FOO
138240
    1MOL0     O    1   8.055   6.659   7.970 -0.5282  0.2474 -0.2756
    1MOL0     C    2   8.087   6.746   8.056  0.0705  0.2047  0.1303
    1MOL0     O    3   8.001   6.812   8.145 -0.0578  1.0489 -0.7607
    1MOL0     C    4   7.881   6.750   8.189 -0.5801  0.3762  0.0578
    1MOL0     C    5   7.859   6.609   8.183  0.0093  0.2548  0.1679
    1MOL0     C    6   7.739   6.565   8.227  0.4380 -0.7868  0.3742
    1MOL0     C    7   7.646   6.641   8.290 -0.1610 -0.3075  0.1915
    1MOL0     O    8   7.540   6.564   8.300 -0.1118  0.5472  0.1061
    1MOL0     C    9   7.429   6.569   8.383  0.0670 -0.9617 -0.0700
    1MOL0     C   10   7.474   6.573   8.528  0.0790  0.4908  0.7921
    1MOL0     C   11   7.560   6.453   8.571 -0.0167 -0.6607 -0.4900
    1MOL0     C   12   7.634   6.492   8.697  0.7065 -0.8897  0.1487
    1MOL0     C   13   7.722   6.380   8.730 -0.5617  0.2858 -0.0786
    1MOL0     C   14   7.808   6.411   8.852  0.2477  0.2886 -0.8678
    1MOL0     C   15   7.896   6.281   8.878  0.2241  0.2144 -0.1956
    1MOL0     C   16   7.997   6.283   8.994 -0.3813 -1.0733 -0.1625
    1MOL0     N   17   7.933   6.284   9.122  0.5123 -0.6282 -0.2293
    1MOL0     C   18   7.882   6.171   9.176 -0.4715 -0.1593  1.0377
    1MOL0     C   19   7.851   6.212   9.302  0.6109  0.7966 -0.3233
    1MOL0     C   20   7.813   6.118   9.413 -0.2519  1.3435 -0.3366
    1MOL0     C   21   7.731   6.185   9.524  0.0087  0.0351  0.2809
    1MOL0     C   22   7.826   6.227   9.646  0.8141  0.4817 -0.1468
    1MOL0     C   23   7.733   6.299   9.744 -0.6718  0.5099  0.0516
    1MOL0     O   24   7.815   6.342   9.847  0.5702 -0.7560 -0.3194
    1MOL0     C   25   7.742   6.410   9.945 -0.4117 -0.5791  0.1964
    1MOL0     C   26   7.805   6.404  10.074  0.3060 -0.1487 -0.6741
    1MOL0     C   27   7.742   6.466  10.189  0.1270 -0.3487  0.6939
    1MOL0     C   28   7.621   6.531  10.166 -0.3636 -0.5893 -0.4768
    1MOL0     C   29   7.556   6.594  10.284 -0.1611  0.5392 -0.1698
    1MOL0     O   30   7.642   6.637  10.381  0.5629  0.4078 -0.3079
    1MOL0     C   31   7.594   6.707  10.489  0.5936  0.4891 -0.1642
    1MOL0     C   32   7.659   6.824  10.544  0.3577 -0.0170  0.1791
    1MOL0     C   33   7.608   6.902  10.657 -0.9583 -0.2610  0.0991
    1MOL0     C   34   7.486   6.869  10.707 -0.4733 -0.4222 -1.2017
    1MOL0     O   35   7.428   6.941  10.812 -0.0758 -0.5009  0.2602
    1MOL0     C   36   7.429   7.091  10.814 -0.6630  0.3506  0.3965
    1MOL0     C   37   7.528   7.139  10.930  0.1580  0.1517  0.1402
    1MOL0     C   38   7.507   7.086  11.071  0.2914 -0.0138 -0.1431
    1MOL0     C   39   7.361   7.094  11.100 -0.2388 -0.3436  0.4580
    1MOL0     C   40   7.314   7.065  11.243 -0.4266  0.1249 -0.5489
    1MOL0     C   41   7.166   7.030  11.257 -0.6798 -0.3335 -1.2898
    1MOL0     C   42   7.083   7.149  11.224 -0.7763 -0.1075  0.3994
    1MOL0     C   43   6.940   7.126  11.266  0.8456 -0.7220  0.2367
    1MOL0    Cl   44   6.859   7.002  11.166 -0.1122  0.3343  0.2354
    1MOL0     C   45   7.419   6.755  10.664  0.4666  0.2073 -0.6311
    1MOL0     C   46   7.475   6.670  10.563 -0.4008  0.5083 -0.0895
    1MOL0     O   47   7.436   6.590  10.294 -0.4368  0.5461  0.1323
    1MOL0     C   48   7.562   6.538  10.043  0.6726 -0.3778  0.3035
    1MOL0     C   49   7.614   6.480   9.932 -0.4283  0.3182  0.4654
    1MOL0     N   50   7.875   6.345   9.313  0.0779 -0.2351  0.3144
    1MOL0     N   51   7.927   6.394   9.207 -0.4487  0.7793 -0.1699
    1MOL0     C   52   7.660   6.778   8.305  0.1882 -0.2212  0.2984
    1MOL0     C   53   7.786   6.823   8.257 -0.4495 -0.3881 -0.3217
    1MOL0     C   54   8.236   6.783   8.080 -0.3695  0.4367  0.5671
    1MOL0     C   55   8.268   6.909   8.142  0.3411  0.0348  0.3117
    1MOL0     C   56   8.403   6.939   8.158 -0.1872 -0.4252 -0.2513
    1MOL0     C   57   8.507   6.848   8.133 -0.4702  1.0500 -0.7808
    1MOL0     O   58   8.644   6.859   8.163  0.5902  0.4843  0.1401
    1MOL0     C   59   8.701   6.966   8.240  0.5076 -0.4122 -0.2910
    1MOL0     C   60   8.660   6.980   8.387  1.0692 -0.0038  0.5701
    1MOL0     C   61   8.681   6.849   8.461 -0.1420 -0.5473  0.3365
    1MOL0     C   62   8.641   6.874   8.604  0.1712 -0.4865 -0.4338
    1MOL0     C   63   8.673   6.761   8.685  0.6239  0.7243  0.4117
    1MOL0     C   64   8.703   6.667   8.758 -0.6403 -0.4149 -0.8688
    1MOL0     C   65   8.466   6.730   8.085  0.3434  1.0669  0.3986
    1MOL0     C   66   8.340   6.690   8.053  0.2101 -0.2862  1.3622
    1MOL0     C   67   8.326   6.550   7.982 -0.4659  0.5760  0.3448
    1MOL0     H   68   7.931   6.543   8.137 -3.2951 -0.4153 -4.7783
    1MOL0     H   69   7.697   6.468   8.204 -4.5468  0.7182  1.8511
    1MOL0     H   70   7.367   6.656   8.361 -2.2530 -2.8823 -1.5449
    1MOL0     H   71   7.357   6.489   8.364 -0.8928 -0.1630  0.1520
    1MOL0     H   72   7.382   6.582   8.587 -0.1162  1.0119  0.4125
    1MOL0     H   73   7.536   6.663   8.536  1.0864  0.0865 -1.6916
    1MOL0     H   74   7.633   6.423   8.494 -0.2310 -5.6911  0.9599
    1MOL0     H   75   7.499   6.365   8.592  1.1850 -1.2740  0.5805
    1MOL0     H   76   7.684   6.588   8.684  0.4993 -0.6505  1.0668
    1MOL0     H   77   7.563   6.498   8.780  2.3330  1.5687  1.4677
    1MOL0     H   78   7.667   6.288   8.751  0.2809  0.2461  2.2331
    1MOL0     H   79   7.779   6.365   8.638 -2.6835  0.5698 -1.5118
    1MOL0     H   80   7.868   6.501   8.833  1.6107 -0.0002  1.6396
    1MOL0     H   81   7.741   6.436   8.935  2.5146  2.1902  0.4853
    1MOL0     H   82   7.937   6.252   8.781  2.7605  3.7870 -0.3848
    1MOL0     H   83   7.832   6.196   8.905  2.3317 -1.4070 -0.0020
    1MOL0     H   84   8.072   6.204   8.992  1.1828 -0.0064  4.2385
    1MOL0     H   85   8.052   6.377   8.984 -0.9964 -0.7738 -0.8498
    1MOL0     H   86   7.877   6.074   9.126  0.1929 -1.3062  3.0463
    1MOL0     H   87   7.747   6.049   9.360 -0.7919  0.7107  1.0850
    1MOL0     H   88   7.898   6.058   9.448  0.8951  1.4568 -2.7364
    1MOL0     H   89   7.663   6.259   9.480 -1.8408 -1.5625  0.3079
    1MOL0     H   90   7.664   6.115   9.575 -2.8898  2.8891  0.7562
    1MOL0     H   91   7.905   6.297   9.615  0.8029  1.3815  1.7102
    1MOL0     H   92   7.873   6.140   9.692 -0.6011 -1.8592 -2.8084
    1MOL0     H   93   7.662   6.229   9.789 -2.0376  1.6301 -0.2825
    1MOL0     H   94   7.680   6.385   9.700  3.9009  2.0503 -3.2357
    1MOL0     H   95   7.894   6.344  10.091 -0.5000 -1.7334 -1.8534
    1MOL0     H   96   7.791   6.458  10.285  0.9298  0.3110  0.3483
    1MOL0     H   97   7.745   6.871  10.498  0.5146  1.5407  1.9403
    1MOL0     H   98   7.659   6.989  10.698  0.5036 -0.4739 -1.1887
    1MOL0     H   99   7.470   7.127  10.719  1.9172 -1.4111  0.7443
    1MOL0     H  100   7.332   7.141  10.816  0.1878  2.1606 -0.9282
    1MOL0     H  101   7.629   7.110  10.900  1.0248  2.4011  0.6435
    1MOL0     H  102   7.522   7.248  10.945  4.7295  0.4443  1.2486
    1MOL0     H  103   7.543   6.982  11.074  0.9680  0.2331  1.0282
    1MOL0     H  104   7.575   7.130  11.144  1.4477  0.1089 -1.2674
    1MOL0     H  105   7.305   7.026  11.035  2.0314 -2.0255  0.1350
    1MOL0     H  106   7.342   7.196  11.067  0.7041 -0.0814  0.6999
    1MOL0     H  107   7.330   7.158  11.297 -1.8541  0.7599 -1.1777
    1MOL0     H  108   7.373   6.987  11.293 -0.0683 -0.1482 -1.3717
    1MOL0     H  109   7.153   6.940  11.195  0.7496 -1.2213 -0.3451
    1MOL0     H  110   7.156   7.011  11.364  5.7275 -0.7032 -0.3401
    1MOL0     H  111   7.097   7.177  11.119  0.5755  0.7539  0.7889
    1MOL0     H  112   7.124   7.234  11.279 -0.5985  0.5386 -0.6994
    1MOL0     H  113   6.939   7.086  11.368 -0.6137 -1.9738 -0.2295
    1MOL0     H  114   6.877   7.214  11.252  1.3271 -0.0536  1.9830
    1MOL0     H  115   7.316   6.731  10.687 -0.2026  2.3563 -1.0995
    1MOL0     H  116   7.421   6.577  10.553 -2.0014  1.0298  2.6513
    1MOL0     H  117   7.470   6.592  10.027  3.1691  4.4086  0.4333
    1MOL0     H  118   7.572   6.494   9.833  2.2606 -2.0414 -1.1892
    1MOL0     H  119   7.593   6.849   8.350 -0.4501 -1.5055  1.4527
    1MOL0     H  120   7.796   6.929   8.277  0.1790 -0.2215 -1.4347
    1MOL0     H  121   8.184   6.975   8.163 -0.9627 -1.4636  0.0097
    1MOL0     H  122   8.435   7.040   8.181  4.8313 -1.6203 -0.7851
    1MOL0     H  123   8.666   7.063   8.204 -3.2086 -1.2518  0.6272
    1MOL0     H  124   8.807   6.942   8.233  0.3741 -0.7537 -1.4318
    1MOL0     H  125   8.556   7.009   8.403  1.2072 -0.8386  3.4445
    1MOL0     H  126   8.724   7.059   8.428  1.6365  0.7758 -1.6533
    1MOL0     H  127   8.788   6.827   8.468 -0.3148 -1.4305  0.2998
    1MOL0     H  128   8.613   6.771   8.426 -2.2263  1.2161  0.2189
    1MOL0     H  129   8.715   6.946   8.639  2.5826 -3.1163  0.1994
    1MOL0     H  130   8.538   6.912   8.611  0.8607  1.2977  0.7435
    1MOL0     H  131   8.723   6.582   8.819 -3.4635  1.1435  2.6528
    1MOL0     H  132   8.546   6.659   8.069  0.6332  1.6821 -1.0048
    1MOL0     H  133   8.414   6.484   7.987 -0.9317  0.0206  1.4428
    1MOL0     H  134   8.248   6.487   8.026 -1.1689  0.1113 -1.4720
    1MOL0     H  135   8.299   6.566   7.877  1.5952  0.2179 -0.2904
    2MOL0     O  136   3.043   7.941   4.207  0.5471 -0.3240 -0.4335
    2MOL0     C  137   2.948   7.966   4.285 -0.3923  1.1393  0.3175
    2MOL0     O  138   2.942   7.955   4.425  0.1843  0.4484 -0.0232
    2MOL0     C  139   3.022   7.873   4.497  0.7398  0.1779  0.0000
    2MOL0     C  140   3.011   7.738   4.483 -0.2970 -0.3453 -0.2787
    2MOL0     C  141   3.103   7.651   4.539  0.6185  1.0513  0.0073
    2MOL0     C  142   3.208   7.707   4.610 -0.0348 -0.6357 -0.2708
    2MOL0     O  143   3.302   7.614   4.664  0.4389  0.1245  0.1668
    2MOL0     C  144   3.254   7.488   4.719 -0.5599 -0.0853  0.1770
    2MOL0     C  145   3.176   7.524   4.843  0.5734 -0.2315 -1.2843
    2MOL0     C  146   3.121   7.409   4.934 -0.3709 -0.0744 -0.0235
    2MOL0     C  147   3.046   7.306   4.855 -0.4826  0.0680 -0.2881
    2MOL0     C  148   2.922   7.359   4.776 -0.4247  0.2423 -0.1726
    2MOL0     C  149   2.855   7.244   4.697 -0.0163  0.0948  0.1581
    2MOL0     C  150   2.945   7.206   4.579 -0.4003 -0.5425  0.2139
    2MOL0     C  151   2.864   7.110   4.494 -0.5417  0.2018  0.7991
    2MOL0     N  152   2.930   7.085   4.366  0.3094  0.8973  1.1964
    2MOL0     C  153   3.025   6.985   4.342 -1.0153 -0.0985 -0.4564
    2MOL0     C  154   3.043   6.993   4.208  0.2587  1.1566 -0.6913
    2MOL0     C  155   3.128   6.905   4.127  0.1095 -0.0691 -0.1625
    2MOL0     C  156   3.281   6.938   4.151 -0.0615 -0.4016 -0.1963
    2MOL0     C  157   3.373   6.896   4.035  0.6099  0.9245 -0.2495
    2MOL0     C  158   3.367   6.743   4.018  0.1475 -0.0311  0.0362
    2MOL0     O  159   3.429   6.697   3.898 -0.3111 -0.1357 -0.6293
    2MOL0     C  160   3.348   6.674   3.791  1.6297  0.1207 -0.1067
    2MOL0     C  161   3.411   6.606   3.689  0.1751  0.4417  0.0548
    2MOL0     C  162   3.344   6.570   3.584  0.7066  0.3804 -0.4247
    2MOL0     C  163   3.210   6.614   3.566  0.7047  0.8496  0.3669
    2MOL0     C  164   3.131   6.561   3.457  0.5857 -0.2844 -0.8472
    2MOL0     O  165   3.004   6.624   3.434 -0.2185  0.0726  1.0500
    2MOL0     C  166   2.939   6.576   3.323 -0.0194  0.4263 -0.5618
    2MOL0     C  167   2.884   6.442   3.317  0.1227  0.9531  0.8108
    2MOL0     C  168   2.816   6.406   3.200 -0.0120  0.8857  0.3082
    2MOL0     C  169   2.805   6.487   3.092 -0.4733  0.0599  0.3387
    2MOL0     O  170   2.745   6.465   2.976  1.0214  0.3744  0.1394
    2MOL0     C  171   2.644   6.360   2.958  0.2674  0.5309  1.0270
    2MOL0     C  172   2.671   6.281   2.829  0.0336  0.6904  0.1239
    2MOL0     C  173   2.689   6.357   2.705 -0.2846 -0.8345  0.8563
    2MOL0     C  174   2.715   6.269   2.588  0.4085 -1.2864  1.9086
    2MOL0     C  175   2.730   6.342   2.447 -0.3650 -0.0840 -0.5260
    2MOL0     C  176   2.754   6.236   2.343 -0.0028  0.3538  0.3311
    2MOL0     C  177   2.762   6.304   2.203 -0.7871  0.5623  0.3597
    2MOL0     C  178   2.781   6.207   2.081  0.6622 -0.2954 -0.0255
    2MOL0    Cl  179   2.795   6.310   1.928 -0.0691  0.2931 -0.1083
    2MOL0     C  180   2.877   6.607   3.083  0.2904  0.3262 -0.9291
    2MOL0     C  181   2.944   6.652   3.203 -0.3802  0.5883 -0.7455
    2MOL0     O  182   3.187   6.484   3.375 -0.0805  0.3122  0.4954
    2MOL0     C  183   3.150   6.702   3.664  0.0165  0.0941  0.1751
    2MOL0     C  184   3.218   6.723   3.780  0.5810  0.4898 -0.1546
    2MOL0     N  185   2.957   7.084   4.150 -0.1430  0.9239  0.5911
    2MOL0     N  186   2.885   7.138   4.241  0.8183 -0.3289  0.4053
    2MOL0     C  187   3.221   7.848   4.624  0.2651  1.3634 -0.5910
    2MOL0     C  188   3.120   7.939   4.566  0.0409 -0.3320  0.8156
    2MOL0     C  189   2.837   8.037   4.223  1.1154  0.3830  0.6597
    2MOL0     C  190   2.762   8.132   4.297  0.5093  0.2599 -0.1936
    2MOL0     C  191   2.675   8.222   4.237 -0.1353 -0.8328  0.1999
    2MOL0     C  192   2.644   8.198   4.105  0.3097 -0.5490 -0.2996
    2MOL0     O  193   2.558   8.277   4.039  0.1512 -0.1266  0.6181
    2MOL0     C  194   2.455   8.366   4.100  0.2520  0.9395  0.3594
    2MOL0     C  195   2.375   8.438   3.988 -0.7423 -0.1263 -0.6660
    2MOL0     C  196   2.310   8.343   3.890  0.2746  0.0989 -0.6507
    2MOL0     C  197   2.236   8.410   3.779 -0.5077  0.0360  0.2084
    2MOL0     C  198   2.319   8.496   3.700  0.7280 -0.5762  0.2551
    2MOL0     C  199   2.400   8.576   3.651 -0.2016 -0.3754  0.4883
    2MOL0     C  200   2.715   8.116   4.021 -0.1321 -1.3375  0.2618
    2MOL0     C  201   2.809   8.030   4.082  0.4697 -0.2301 -0.3738
    2MOL0     C  202   2.882   7.948   3.980 -0.0524  0.0100 -0.7010
    2MOL0     H  203   2.923   7.698   4.433 -1.9052  2.6149 -0.0444
    2MOL0     H  204   3.096   7.547   4.512 -0.1852  1.0110  0.3439
    2MOL0     H  205   3.195   7.424   4.653 -0.3043  0.1677 -0.3076
    2MOL0     H  206   3.338   7.428   4.755 -0.9981 -0.7914  0.0441
    2MOL0     H  207   3.085   7.574   4.807 -0.0100 -0.6113 -0.3537
    2MOL0     H  208   3.227   7.599   4.904 -2.5383  2.7020 -1.9865
    2MOL0     H  209   3.064   7.443   5.021  1.8566 -0.7542  1.8349
    2MOL0     H  210   3.203   7.354   4.981 -0.4451 -0.6903 -0.6139
    2MOL0     H  211   3.118   7.260   4.786  1.8022 -2.5729  3.4868
    2MOL0     H  212   3.016   7.225   4.922  1.8261 -0.8671 -0.2841
    2MOL0     H  213   2.851   7.409   4.843 -0.5806 -0.7142  0.3963
    2MOL0     H  214   2.948   7.432   4.698  0.7689 -1.2568 -1.2497
    2MOL0     H  215   2.825   7.155   4.753 -0.2712 -0.2760 -0.5597
    2MOL0     H  216   2.764   7.291   4.658 -1.2254  0.0109  2.6374
    2MOL0     H  217   3.048   7.174   4.601 -1.2519 -2.0653  2.3592
    2MOL0     H  218   2.949   7.295   4.516 -1.8336 -1.9908 -2.0778
    2MOL0     H  219   2.846   7.018   4.550  0.3660 -1.4228 -1.4646
    2MOL0     H  220   2.766   7.151   4.467  0.8677  2.5834 -1.1802
    2MOL0     H  221   3.072   6.933   4.424 -0.4913  4.4035  2.4373
    2MOL0     H  222   3.105   6.799   4.136  3.7408 -0.8171  2.5727
    2MOL0     H  223   3.104   6.934   4.024 -0.2564 -3.3444 -1.1008
    2MOL0     H  224   3.294   7.046   4.160  0.3449 -0.3016 -1.7632
    2MOL0     H  225   3.325   6.904   4.245  1.9405  0.7288 -0.6623
    2MOL0     H  226   3.474   6.937   4.040  1.6955 -1.2655 -2.0426
    2MOL0     H  227   3.331   6.942   3.945 -0.0393 -1.7787 -1.4334
    2MOL0     H  228   3.269   6.694   4.027  0.8672 -2.4361 -3.2725
    2MOL0     H  229   3.426   6.696   4.097  2.1487  0.7893 -0.9162
    2MOL0     H  230   3.515   6.575   3.695  0.3468  0.8988 -0.5003
    2MOL0     H  231   3.399   6.533   3.499  1.4214  1.3303 -0.3909
    2MOL0     H  232   2.890   6.368   3.397 -3.8143  1.1176  1.4750
    2MOL0     H  233   2.779   6.305   3.185 -2.4313  1.9956 -2.1164
    2MOL0     H  234   2.634   6.291   3.043 -2.2509 -0.7690 -0.2318
    2MOL0     H  235   2.546   6.408   2.946  0.6506  1.9066  2.8750
    2MOL0     H  236   2.743   6.199   2.840 -0.5248  0.3721  1.6121
    2MOL0     H  237   2.576   6.228   2.813  0.8686 -0.2334 -2.2589
    2MOL0     H  238   2.608   6.420   2.668  0.3900 -0.4561 -0.0002
    2MOL0     H  239   2.771   6.429   2.719 -1.4245  0.9854 -1.2162
    2MOL0     H  240   2.628   6.204   2.576 -2.4759  2.2934  1.7162
    2MOL0     H  241   2.802   6.205   2.607  0.2009 -2.3147 -0.3010
    2MOL0     H  242   2.808   6.418   2.455  1.4349 -1.9728  1.4902
    2MOL0     H  243   2.630   6.382   2.430 -0.3291  0.2758  0.0940
    2MOL0     H  244   2.835   6.164   2.357 -1.4015 -1.3480 -0.0112
    2MOL0     H  245   2.670   6.166   2.340  1.1552 -1.0752 -0.2282
    2MOL0     H  246   2.860   6.353   2.202  0.8046 -2.3426  2.0765
    2MOL0     H  247   2.678   6.374   2.196  0.0168  1.4908 -0.3642
    2MOL0     H  248   2.869   6.144   2.099 -1.0579 -1.9508  3.7826
    2MOL0     H  249   2.693   6.143   2.070 -0.1370  0.8565 -0.4415
    2MOL0     H  250   2.878   6.668   2.993 -0.7250 -2.8774 -3.2964
    2MOL0     H  251   3.003   6.742   3.213  1.9554 -1.1579  3.6978
    2MOL0     H  252   3.050   6.744   3.659  0.2971  1.1060  1.9307
    2MOL0     H  253   3.168   6.784   3.855 -1.8521 -1.0354 -0.4347
    2MOL0     H  254   3.306   7.880   4.683  0.2111 -1.8155  1.3910
    2MOL0     H  255   3.127   8.047   4.569  1.0315 -0.4086  1.9676
    2MOL0     H  256   2.787   8.152   4.401 -1.1443 -4.6494  1.4086
    2MOL0     H  257   2.624   8.306   4.284  1.9156  1.7463 -1.8595
    2MOL0     H  258   2.489   8.444   4.168 -0.5679 -0.2277  2.1605
    2MOL0     H  259   2.391   8.296   4.153  0.5482 -0.8148 -1.4672
    2MOL0     H  260   2.437   8.506   3.930  0.7126 -2.5883 -2.1426
    2MOL0     H  261   2.303   8.499   4.043 -2.4104 -1.3496 -1.4016
    2MOL0     H  262   2.243   8.284   3.952 -0.4303  0.8221 -0.7088
    2MOL0     H  263   2.389   8.280   3.847 -0.6914 -0.9650 -0.9113
    2MOL0     H  264   2.202   8.329   3.714  0.3492  1.3820 -2.0187
    2MOL0     H  265   2.154   8.460   3.831 -1.0719 -2.0246  1.4441
    2MOL0     H  266   2.476   8.646   3.622 -0.6124  1.4225  3.3326
    2MOL0     H  267   2.690   8.117   3.915 -3.2438 -0.5701  0.8881
    2MOL0     H  268   2.829   7.937   3.885 -0.1090  0.7399 -0.7571
    2MOL0     H  269   2.978   7.990   3.948 -1.4147  3.0492 -1.0877
    2MOL0     H  270   2.904   7.852   4.029 -0.3469  0.7250  0.9118
    3MOL0     O  271   8.898   5.227   4.931 -0.0192 -0.3201 -0.2706
    3MOL0     C  272   8.785   5.182   4.945 -0.6491  0.2462 -0.1643
    3MOL0     O  273   8.695   5.176   4.848  0.3065  0.5604 -0.4464
    3MOL0     C  274   8.721   5.213   4.721  0.4677  0.2081  0.9776
    3MOL0     C  275   8.635   5.287   4.641  0.4626  0.3544 -0.5106
    3MOL0     C  276   8.661   5.325   4.514 -0.0070  0.3652 -0.2597
    3MOL0     C  277   8.786   5.293   4.453 -0.1458  0.0771 -0.1706
    3MOL0     O  278   8.820   5.333   4.325  0.1704  0.8456 -0.1815
    3MOL0     C  279   8.837   5.213   4.245  0.1001  0.2146 -1.3161
    3MOL0     C  280   8.855   5.239   4.103 -0.1783 -0.3878 -0.3914
    3MOL0     C  281   8.803   5.125   4.021  0.2154 -0.1473 -0.4360
    3MOL0     C  282   8.882   5.126   3.892 -0.7208 -0.6509 -0.7995
    3MOL0     C  283   8.786   5.083   3.779  0.1783 -0.2720 -0.0476
    3MOL0     C  284   8.863   5.057   3.652 -0.4265  0.2662 -0.9211
    3MOL0     C  285   8.771   5.060   3.532 -0.0177 -0.3186  0.0953
    3MOL0     C  286   8.698   4.927   3.505  0.1133  0.1667 -1.2224
    3MOL0     N  287   8.603   4.906   3.610  0.4883  0.0724 -0.0349
    3MOL0     C  288   8.490   4.982   3.642 -0.1917  0.3385 -0.4010
    3MOL0     C  289   8.429   4.906   3.739 -0.2823  0.2168  0.7360
    3MOL0     C  290   8.312   4.949   3.816 -0.2798  0.7973  0.4059
    3MOL0     C  291   8.332   5.066   3.908  0.0805  1.3760  0.6562
    3MOL0     C  292   8.200   5.103   3.976 -0.2723  0.3165  0.1157
    3MOL0     C  293   8.195   5.235   4.055  0.5828  0.1570  0.1285
    3MOL0     O  294   8.312   5.253   4.132 -0.1340 -0.5892 -0.5127
    3MOL0     C  295   8.367   5.378   4.167 -0.4574 -0.6350 -0.2138
    3MOL0     C  296   8.282   5.492   4.163 -0.0324 -0.6584  0.0177
    3MOL0     C  297   8.315   5.622   4.200  0.0359 -0.8679 -0.4729
    3MOL0     C  298   8.454   5.640   4.239  0.4323  0.1869  0.2958
    3MOL0     C  299   8.509   5.778   4.282  0.6290 -0.1221  0.0262
    3MOL0     O  300   8.430   5.884   4.284  0.7717 -0.1130 -0.6084
    3MOL0     C  301   8.463   6.010   4.307 -0.4359 -1.6471 -0.3820
    3MOL0     C  302   8.452   6.063   4.434  0.0170  0.0142  0.5381
    3MOL0     C  303   8.483   6.194   4.457  0.0220 -0.7863  0.3373
    3MOL0     C  304   8.532   6.279   4.356  0.7003  0.7941 -0.5564
    3MOL0     O  305   8.564   6.416   4.372  0.7353 -0.2857 -0.1885
    3MOL0     C  306   8.603   6.456   4.506 -0.1231 -0.7632  0.6027
    3MOL0     C  307   8.601   6.606   4.494  0.4695  0.6352  0.2143
    3MOL0     C  308   8.728   6.649   4.424  0.6412  0.1730  0.0566
    3MOL0     C  309   8.745   6.800   4.430  0.8801  0.3590  0.9286
    3MOL0     C  310   8.866   6.847   4.350  0.7566 -0.1206 -0.6686
    3MOL0     C  311   8.992   6.769   4.366 -0.7537 -0.2848  0.3401
    3MOL0     C  312   9.102   6.870   4.358 -0.2630  0.7923  0.3520
    3MOL0     C  313   9.229   6.794   4.364 -0.2123  0.2150  0.2298
    3MOL0    Cl  314   9.364   6.905   4.340  0.0888  0.3257 -0.5628
    3MOL0     C  315   8.554   6.219   4.231 -0.9373  0.1108 -0.0179
    3MOL0     C  316   8.531   6.083   4.211  0.3649 -0.2251 -0.6520
    3MOL0     O  317   8.630   5.782   4.321  0.2584  0.7146  0.1240
    3MOL0     C  318   8.547   5.530   4.230 -0.1419  0.1515  1.0944
    3MOL0     C  319   8.496   5.403   4.198 -0.5368  0.3826 -0.2779
    3MOL0     N  320   8.495   4.785   3.758 -0.4845 -0.3577 -0.6512
    3MOL0     N  321   8.595   4.787   3.681 -0.4652  0.5754 -0.8104
    3MOL0     C  322   8.878   5.223   4.528  0.3755 -0.4754  0.1057
    3MOL0     C  323   8.843   5.176   4.653  0.1921  0.9668 -0.3740
    3MOL0     C  324   8.737   5.142   5.083 -0.1848 -0.5690  0.2095
    3MOL0     C  325   8.607   5.101   5.105  0.2230  0.5188 -0.8710
    3MOL0     C  326   8.565   5.052   5.226 -0.5488 -0.3284 -0.1064
    3MOL0     C  327   8.647   5.063   5.340 -0.0858 -0.7363 -0.2697
    3MOL0     O  328   8.596   5.009   5.459 -0.0152  0.8077 -0.0134
    3MOL0     C  329   8.691   4.952   5.554  0.5544 -0.2182 -0.7289
    3MOL0     C  330   8.740   5.059   5.655  0.6201  0.6742 -0.7899
    3MOL0     C  331   8.613   5.114   5.729 -0.1350  0.9417  0.1538
    3MOL0     C  332   8.663   5.246   5.801  0.3326  0.1965 -0.1990
    3MOL0     C  333   8.762   5.216   5.903 -0.7370 -0.2514 -0.3359
    3MOL0     C  334   8.853   5.205   5.985  0.0553 -0.9826  0.3627
    3MOL0     C  335   8.780   5.113   5.323  0.4159 -0.4740  0.1593
    3MOL0     C  336   8.828   5.136   5.197  0.3286  0.2756  0.3834
    3MOL0     C  337   8.977   5.150   5.184 -0.7591 -0.5679 -0.6044
    3MOL0     H  338   8.537   5.308   4.681  1.8136  1.8162  2.3396
    3MOL0     H  339   8.583   5.380   4.463 -0.4464  0.3532  0.3926
    3MOL0     H  340   8.928   5.163   4.278 -0.6522  0.9572  2.2255
    3MOL0     H  341   8.751   5.148   4.265  1.2866 -0.7591  0.8916
    3MOL0     H  342   8.964   5.236   4.097  0.1711 -0.4240  3.4158
    3MOL0     H  343   8.820   5.337   4.068  0.8984 -0.0204 -0.4669
    3MOL0     H  344   8.701   5.159   4.005  0.6996  2.2660  1.0152
    3MOL0     H  345   8.796   5.025   4.066 -1.1589  0.6074  1.1310
    3MOL0     H  346   8.927   5.219   3.855 -1.4188 -0.2684 -0.7105
    3MOL0     H  347   8.960   5.052   3.906  0.8865  1.5299  3.4154
    3MOL0     H  348   8.732   4.995   3.814  0.2329  0.4545  2.0251
    3MOL0     H  349   8.708   5.159   3.763 -1.3991 -1.3460  2.0639
    3MOL0     H  350   8.939   5.136   3.652  2.1407 -1.8896  3.1803
    3MOL0     H  351   8.923   4.965   3.658  0.5731  0.8189 -1.9501
    3MOL0     H  352   8.831   5.067   3.440  1.1693 -1.1209  0.7797
    3MOL0     H  353   8.699   5.143   3.534  1.0303  0.7805 -2.6371
    3MOL0     H  354   8.652   4.915   3.407  1.7182 -3.5994 -1.7198
    3MOL0     H  355   8.762   4.837   3.502 -2.4395 -1.9770  1.8798
    3MOL0     H  356   8.455   5.079   3.609 -0.2664  0.6883  0.6967
    3MOL0     H  357   8.239   4.984   3.743  0.0780  1.3808  0.3256
    3MOL0     H  358   8.278   4.855   3.862  1.5998  1.2779  2.9932
    3MOL0     H  359   8.411   5.041   3.979 -1.2806 -0.1560  1.7094
    3MOL0     H  360   8.357   5.154   3.848 -1.3307  0.0951 -2.0291
    3MOL0     H  361   8.192   5.019   4.046  1.0551 -1.1113 -1.3810
    3MOL0     H  362   8.114   5.103   3.909  0.8490  0.5543 -1.3584
    3MOL0     H  363   8.100   5.250   4.109  0.7628 -0.5214  0.6419
    3MOL0     H  364   8.197   5.320   3.986  1.2901  0.6371  0.7253
    3MOL0     H  365   8.176   5.493   4.144 -0.3478  3.0471  1.1226
    3MOL0     H  366   8.250   5.707   4.212  0.5841 -0.7903  3.4553
    3MOL0     H  367   8.401   6.004   4.509  0.2790 -3.7011 -1.9566
    3MOL0     H  368   8.458   6.240   4.553 -0.5227  0.3988 -0.3448
    3MOL0     H  369   8.534   6.426   4.586  0.7290 -1.9214  0.9365
    3MOL0     H  370   8.698   6.409   4.535  0.9987 -0.2160 -1.8960
    3MOL0     H  371   8.518   6.626   4.425 -1.3108 -2.0411  1.3977
    3MOL0     H  372   8.586   6.661   4.587  2.6541 -2.5266  2.6955
    3MOL0     H  373   8.816   6.596   4.462  0.3915 -2.3750 -2.5209
    3MOL0     H  374   8.719   6.624   4.317  0.8231 -0.1915  0.1265
    3MOL0     H  375   8.746   6.830   4.535 -1.9888 -3.0003  2.1367
    3MOL0     H  376   8.660   6.854   4.387  1.9680  0.2338 -1.5318
    3MOL0     H  377   8.893   6.949   4.380 -1.2394 -0.1929  1.6843
    3MOL0     H  378   8.851   6.852   4.242 -0.1502  4.3609 -0.5486
    3MOL0     H  379   8.993   6.721   4.464  0.1886 -1.7509 -0.3605
    3MOL0     H  380   8.999   6.687   4.294  3.6556  1.1030 -1.1228
    3MOL0     H  381   9.096   6.933   4.447  0.8300 -2.1001  2.6222
    3MOL0     H  382   9.114   6.921   4.262  4.3501 -1.1924 -0.4116
    3MOL0     H  383   9.239   6.752   4.465  1.5066 -0.0824 -0.0382
    3MOL0     H  384   9.228   6.719   4.284 -0.2790  0.0606  0.3756
    3MOL0     H  385   8.584   6.290   4.155  1.0699  2.2318  2.5494
    3MOL0     H  386   8.540   6.041   4.112 -0.8965 -5.8612  1.2596
    3MOL0     H  387   8.653   5.544   4.245 -0.0830  0.3158  0.5381
    3MOL0     H  388   8.555   5.312   4.195  2.4171  2.1736 -1.6125
    3MOL0     H  389   8.975   5.198   4.485 -0.1357 -0.6694 -0.9448
    3MOL0     H  390   8.918   5.128   4.716 -0.0612  0.2808 -0.5956
    3MOL0     H  391   8.534   5.098   5.025  0.0561  2.6491 -0.8424
    3MOL0     H  392   8.460   5.024   5.227 -0.5317 -0.3926  0.3259
    3MOL0     H  393   8.775   4.909   5.500  0.6125 -0.1288 -0.7086
    3MOL0     H  394   8.643   4.872   5.611  0.6984 -0.5049 -1.0127
    3MOL0     H  395   8.791   5.143   5.608  0.6203 -0.7043 -3.4497
    3MOL0     H  396   8.808   5.015   5.729  1.1228  0.7706 -1.1850
    3MOL0     H  397   8.584   5.037   5.801  0.8067  1.7619  1.4463
    3MOL0     H  398   8.549   5.146   5.646  0.3441  0.4352 -0.4241
    3MOL0     H  399   8.714   5.301   5.722  3.0693  0.5965  1.6889
    3MOL0     H  400   8.587   5.312   5.844 -2.3678 -2.1343 -1.1011
    3MOL0     H  401   8.936   5.178   6.047 -0.9692 -1.6656  1.5112
    3MOL0     H  402   8.850   5.106   5.406 -0.5823 -2.6844  0.9059
    3MOL0     H  403   8.989   5.254   5.149 -0.3587  0.5799  2.6287
    3MOL0     H  404   9.029   5.136   5.279  0.3750 -1.2170 -1.3049
    3MOL0     H  405   9.026   5.090   5.107  4.6002 -0.2084  2.0798
    4MOL0     O  406   3.442   6.930   9.552  0.0703 -0.5698  0.6676
    4MOL0     C  407   3.404   6.884   9.659  1.1167  0.3405 -1.0573
    4MOL0     O  408   3.433   6.930   9.781 -0.2946  0.4964  0.4811
    4MOL0     C  409   3.529   7.034   9.791 -0.0022 -0.4286 -1.0853
    4MOL0     C  410   3.532   7.150   9.718  0.2749 -0.4833  0.1408
    4MOL0     C  411   3.635   7.247   9.721  0.5316  0.1991  0.2589
    4MOL0     C  412   3.740   7.232   9.815  0.6753 -0.8142 -0.7331
    4MOL0     O  413   3.830   7.342   9.826  0.3424  0.2492 -0.7388
    4MOL0     C  414   3.966   7.300   9.855  0.1058  0.3407 -0.6392
    4MOL0     C  415   4.062   7.425   9.844  0.2311  0.2657 -0.2282
    4MOL0     C  416   4.018   7.535   9.930 -0.1602  0.4975 -0.4217
    4MOL0     C  417   4.127   7.639   9.940  0.1364 -0.6950 -0.0039
    4MOL0     C  418   4.089   7.757  10.034 -0.8755  0.3334  0.1599
    4MOL0     C  419   3.972   7.841  10.001 -0.0218 -0.5992  0.7208
    4MOL0     C  420   3.995   7.917   9.871 -0.7814  1.0576 -0.6811
    4MOL0     C  421   3.876   7.998   9.824  0.1466 -1.3124 -0.2490
    4MOL0     N  422   3.755   7.919   9.806  0.1349  0.4059 -0.3348
    4MOL0     C  423   3.636   7.936   9.869  0.5040 -0.1214 -0.3527
    4MOL0     C  424   3.558   7.840   9.821  0.3460 -0.8093  0.1814
    4MOL0     C  425   3.411   7.832   9.832  0.4678 -0.1196  0.0585
    4MOL0     C  426   3.362   7.738   9.937  0.0625 -1.2380  0.3446
    4MOL0     C  427   3.416   7.602   9.911 -0.4838 -0.3664  0.0046
    4MOL0     C  428   3.378   7.482  10.002 -0.1436  0.9006  0.0682
    4MOL0     O  429   3.233   7.465  10.004  0.6267 -0.4420  0.2007
    4MOL0     C  430   3.174   7.444   9.886 -1.3520  0.4060 -0.1128
    4MOL0     C  431   3.045   7.499   9.868 -0.4424 -0.4844 -0.3750
    4MOL0     C  432   2.975   7.468   9.748  0.2094  0.5192  0.1876
    4MOL0     C  433   3.029   7.380   9.652  0.4815 -0.2877  0.4330
    4MOL0     C  434   2.952   7.337   9.529  0.8107  0.0288  0.7685
    4MOL0     O  435   2.844   7.418   9.496  0.5170  0.1565 -0.1113
    4MOL0     C  436   2.772   7.383   9.385  0.7225  0.0924 -0.0227
    4MOL0     C  437   2.708   7.258   9.347  0.4986 -0.5583 -1.3310
    4MOL0     C  438   2.623   7.246   9.234 -0.5217  0.2410  0.7769
    4MOL0     C  439   2.609   7.348   9.141 -0.2899 -0.0149 -0.9328
    4MOL0     O  440   2.542   7.318   9.031 -1.1383 -0.4063  0.4531
    4MOL0     C  441   2.577   7.220   8.931  0.4029  0.8170 -0.4819
    4MOL0     C  442   2.511   7.261   8.793  0.2560 -0.2495 -0.3366
    4MOL0     C  443   2.367   7.263   8.804  0.6186  0.0841 -0.7395
    4MOL0     C  444   2.297   7.336   8.689 -0.5801  0.4598  0.9753
    4MOL0     C  445   2.288   7.489   8.708  0.4115 -0.5003  0.2393
    4MOL0     C  446   2.210   7.580   8.608 -0.5699  0.0777 -0.3977
    4MOL0     C  447   2.073   7.519   8.565 -0.5439  0.5162 -1.0971
    4MOL0     C  448   1.978   7.502   8.682 -0.1126 -0.5398 -0.6609
    4MOL0    Cl  449   1.822   7.421   8.647  0.3345 -0.5415 -0.1208
    4MOL0     C  450   2.653   7.472   9.185 -0.3864 -0.1101 -0.4103
    4MOL0     C  451   2.740   7.483   9.295  0.0740  0.0283 -1.0042
    4MOL0     O  452   2.993   7.243   9.460  0.6167  0.3830 -0.4295
    4MOL0     C  453   3.160   7.334   9.674  1.1001 -0.5553 -0.4379
    4MOL0     C  454   3.228   7.359   9.787 -0.4939 -0.8744 -0.3441
    4MOL0     N  455   3.629   7.767   9.729  1.2141 -0.6289 -0.4284
    4MOL0     N  456   3.741   7.810   9.724  0.2841  0.1991 -0.5092
    4MOL0     C  457   3.744   7.120   9.894 -0.4126  0.7949 -1.3995
    4MOL0     C  458   3.648   7.020   9.873  0.8848  0.2669  0.0606
    4MOL0     C  459   3.319   6.773   9.643 -0.5267 -0.3897 -0.9448
    4MOL0     C  460   3.375   6.650   9.614  0.6746  0.5049 -0.4387
    4MOL0     C  461   3.297   6.535   9.599 -0.2259  0.7530 -0.2033
    4MOL0     C  462   3.154   6.548   9.607  1.2999  0.2080 -0.8064
    4MOL0     O  463   3.066   6.443   9.599  0.6790  0.2350  0.5843
    4MOL0     C  464   3.112   6.315   9.651  0.5258  0.4619 -0.4565
    4MOL0     C  465   2.988   6.230   9.675  0.0807  0.1748 -0.8518
    4MOL0     C  466   3.025   6.085   9.703 -0.0196  0.4389 -0.5397
    4MOL0     C  467   2.906   5.989   9.680  0.0785  0.5262  0.2023
    4MOL0     C  468   2.931   5.851   9.730  0.0684 -0.6699 -0.1399
    4MOL0     C  469   2.928   5.744   9.764 -0.2237  0.4106  1.1419
    4MOL0     C  470   3.102   6.665   9.640 -0.0658 -0.3119 -0.3162
    4MOL0     C  471   3.181   6.779   9.657 -0.0440  0.6218  0.3415
    4MOL0     C  472   3.111   6.903   9.697 -0.7014 -0.1897  0.8108
    4MOL0     H  473   3.448   7.172   9.653  1.6917 -1.1591 -2.0306
    4MOL0     H  474   3.630   7.341   9.667  0.2832  1.0636  1.7291
    4MOL0     H  475   3.972   7.254   9.954 -0.8677 -0.6632 -1.0213
    4MOL0     H  476   4.003   7.229   9.781  1.1733 -0.5986  0.7419
    4MOL0     H  477   4.065   7.467   9.743  2.1545  1.7591  0.3952
    4MOL0     H  478   4.159   7.388   9.877  0.1554 -0.1290 -0.4275
    4MOL0     H  479   4.000   7.504  10.033 -1.6197  3.1247  0.2191
    4MOL0     H  480   3.925   7.575   9.888 -0.1550  0.3074 -0.6206
    4MOL0     H  481   4.221   7.606   9.985 -0.5474  1.9698  3.8716
    4MOL0     H  482   4.148   7.684   9.842 -1.5312 -1.1133 -0.5997
    4MOL0     H  483   4.066   7.708  10.128  3.6338  3.6547  3.4734
    4MOL0     H  484   4.184   7.811  10.047  1.9547 -4.0427 -0.1280
    4MOL0     H  485   3.882   7.779  10.000 -1.9334  1.9983 -0.7686
    4MOL0     H  486   3.948   7.911  10.082 -0.6864 -0.1814  0.1740
    4MOL0     H  487   4.017   7.841   9.795  0.5410 -0.5861  1.2130
    4MOL0     H  488   4.082   7.983   9.879 -0.7046  0.9211 -0.3169
    4MOL0     H  489   3.870   8.087   9.886  0.0418 -1.1727 -0.4578
    4MOL0     H  490   3.902   8.035   9.724 -0.9391  0.0417 -0.0538
    4MOL0     H  491   3.606   8.016   9.935  1.8084  1.8487 -2.0153
    4MOL0     H  492   3.372   7.931   9.858 -2.6563 -1.1378 -0.3379
    4MOL0     H  493   3.363   7.798   9.740 -0.8998 -1.8768  1.3500
    4MOL0     H  494   3.394   7.771  10.036  0.4158 -0.7843  0.0864
    4MOL0     H  495   3.253   7.734   9.935 -0.1826  2.3125  0.8102
    4MOL0     H  496   3.525   7.604   9.911 -0.3385 -1.4750  3.5800
    4MOL0     H  497   3.386   7.585   9.807 -1.6478 -1.5557  0.4989
    4MOL0     H  498   3.417   7.498  10.103  1.5605 -1.1410 -0.2119
    4MOL0     H  499   3.424   7.385   9.984 -2.5054 -0.9050  2.9481
    4MOL0     H  500   3.009   7.571   9.941 -2.3590 -0.2970 -1.4417
    4MOL0     H  501   2.876   7.507   9.727 -0.5201 -2.8365 -4.0426
    4MOL0     H  502   2.723   7.163   9.397  1.0906 -1.2062 -2.7125
    4MOL0     H  503   2.577   7.151   9.211  0.1742 -0.0787  0.6630
    4MOL0     H  504   2.686   7.212   8.918  0.6021  1.3053  0.7124
    4MOL0     H  505   2.539   7.122   8.960  0.3144  1.3849  1.5100
    4MOL0     H  506   2.555   7.360   8.779 -1.3699  0.3969 -1.1232
    4MOL0     H  507   2.544   7.193   8.714  0.3576  1.3413 -1.6971
    4MOL0     H  508   2.338   7.158   8.812 -1.4103  0.7100  1.1157
    4MOL0     H  509   2.332   7.305   8.899 -2.0242 -1.6167 -0.8530
    4MOL0     H  510   2.196   7.293   8.679  0.0756 -2.0821  3.7641
    4MOL0     H  511   2.341   7.324   8.590 -2.4582  0.4362  0.0869
    4MOL0     H  512   2.384   7.540   8.706  0.8734 -1.3530 -1.7073
    4MOL0     H  513   2.244   7.503   8.807 -0.8984 -1.7025 -0.1434
    4MOL0     H  514   2.186   7.676   8.656 -2.2107 -0.4795 -0.0368
    4MOL0     H  515   2.265   7.595   8.515 -1.8502  1.2653 -1.0023
    4MOL0     H  516   2.089   7.425   8.511  1.2005 -0.5263  1.0685
    4MOL0     H  517   2.028   7.589   8.494  1.1040  1.7884 -0.9385
    4MOL0     H  518   2.018   7.449   8.768 -3.0228  2.2095  2.7037
    4MOL0     H  519   1.960   7.599   8.730 -2.3121 -0.7335 -0.9906
    4MOL0     H  520   2.643   7.553   9.114 -0.7794  1.2355  1.1122
    4MOL0     H  521   2.786   7.579   9.317 -2.7411  0.8929  2.0104
    4MOL0     H  522   3.215   7.276   9.601  1.5390  0.5599 -1.0188
    4MOL0     H  523   3.329   7.320   9.790 -0.1894 -0.3713 -2.5388
    4MOL0     H  524   3.833   7.101   9.953  0.8433  0.3803 -3.3079
    4MOL0     H  525   3.665   6.932   9.934  0.3127 -0.7325 -1.1799
    4MOL0     H  526   3.482   6.639   9.600  0.5227 -2.8063  0.1203
    4MOL0     H  527   3.340   6.436   9.597  0.8710  1.0880  2.4545
    4MOL0     H  528   3.155   6.356   9.743  2.1608 -2.1831  0.0680
    4MOL0     H  529   3.175   6.256   9.584  1.9538 -0.5199  1.6294
    4MOL0     H  530   2.948   6.228   9.573  1.4070 -0.7551 -1.3939
    4MOL0     H  531   2.931   6.277   9.755  0.4375 -3.2122  1.5979
    4MOL0     H  532   3.065   6.080   9.805 -0.2190 -1.9114 -0.5206
    4MOL0     H  533   3.110   6.064   9.638 -0.4140  2.3776 -1.7721
    4MOL0     H  534   2.817   6.038   9.718 -0.2000 -1.5345  2.4523
    4MOL0     H  535   2.879   5.987   9.574  3.7506  3.8411 -1.0447
    4MOL0     H  536   2.948   5.640   9.778  1.9304  0.6947  0.5681
    4MOL0     H  537   2.996   6.687   9.643 -0.2078 -0.7164 -1.5698
    4MOL0     H  538   3.091   6.964   9.609 -0.9064 -1.1731  0.1622
    4MOL0     H  539   3.015   6.884   9.748 -0.8910 -1.1878  0.1085
    4MOL0     H  540   3.178   6.956   9.765  3.9287 -3.1997 -0.9385
    5MOL0     O  541   0.465   1.881   3.120  0.1895  1.3733 -0.4616
    5MOL0     C  542   0.554   1.958   3.113 -0.8449 -0.4565  0.5515
    5MOL0     O  543   0.600   2.018   3.000  0.8236 -0.1728 -0.0880
    5MOL0     C  544   0.516   2.016   2.887  0.2645 -0.1335  0.4420
    5MOL0     C  545   0.519   1.910   2.797 -0.2842 -0.9599  0.5645
    5MOL0     C  546   0.431   1.894   2.690  0.4282  0.3707 -1.6391
    5MOL0     C  547   0.334   1.993   2.665  0.6126 -0.3446 -0.0163
    5MOL0     O  548   0.243   1.988   2.566 -0.5763 -0.2638 -0.1789
    5MOL0     C  549   0.237   1.876   2.476  0.4137  0.0731  0.5125
    5MOL0     C  550   0.133   1.890   2.357 -0.2075  0.2430 -0.3437
    5MOL0     C  551  -0.011   1.844   2.395 -0.9722  0.5359  0.1287
    5MOL0     C  552  -0.107   1.914   2.303  0.5719  0.7601 -0.1363
    5MOL0     C  553  -0.248   1.849   2.312  0.4726 -0.1964 -0.3235
    5MOL0     C  554  -0.335   1.926   2.222 -0.0233  0.5421 -0.6528
    5MOL0     C  555  -0.481   1.874   2.228 -0.3067  0.3054  0.6755
    5MOL0     C  556  -0.566   1.965   2.144  0.2095  0.1653  1.0064
    5MOL0     N  557  -0.551   1.951   1.992  0.2497  0.2735 -0.7485
    5MOL0     C  558  -0.614   1.861   1.914 -0.3166  0.5311  0.6420
    5MOL0     C  559  -0.614   1.916   1.795 -0.5928 -0.1328  0.6484
    5MOL0     C  560  -0.712   1.868   1.690  0.9589 -0.5484  0.2982
    5MOL0     C  561  -0.800   1.989   1.652  0.4243  0.1012 -0.4982
    5MOL0     C  562  -0.864   1.969   1.524  0.9607 -0.5074 -0.2184
    5MOL0     C  563  -0.915   2.100   1.469  0.1755  0.1347 -0.3147
    5MOL0     O  564  -1.016   2.088   1.365  0.1309 -0.4070 -1.0768
    5MOL0     C  565  -1.139   2.037   1.413  0.4555  0.6144  1.3224
    5MOL0     C  566  -1.190   1.921   1.350  0.6587 -0.0510  0.0072
    5MOL0     C  567  -1.310   1.864   1.384 -0.0066 -0.0725  0.4266
    5MOL0     C  568  -1.382   1.912   1.496 -0.2742  0.4028  0.7618
    5MOL0     C  569  -1.501   1.838   1.542  0.0023 -0.1284  0.7076
    5MOL0     O  570  -1.550   1.748   1.449 -0.1455  0.4617 -0.5114
    5MOL0     C  571  -1.672   1.690   1.441 -0.3344 -0.5776  0.2618
    5MOL0     C  572  -1.701   1.580   1.367 -0.8329  0.0241  0.1675
    5MOL0     C  573  -1.832   1.532   1.342 -0.3587  0.5483  0.9430
    5MOL0     C  574  -1.950   1.593   1.399 -0.2254  0.5935  0.1425
    5MOL0     O  575  -2.083   1.560   1.382  0.0131  1.1537  0.7121
    5MOL0     C  576  -2.121   1.465   1.289  1.4028 -0.9841 -0.7733
    5MOL0     C  577  -2.131   1.526   1.145  0.0286  0.8653 -0.4175
    5MOL0     C  578  -2.227   1.462   1.042 -0.9344  0.2172  0.3612
    5MOL0     C  579  -2.167   1.449   0.899 -0.4072  0.6883  0.4975
    5MOL0     C  580  -2.268   1.388   0.802 -0.2158 -0.3296 -0.2413
    5MOL0     C  581  -2.220   1.426   0.651 -0.1811 -0.0164 -0.4550
    5MOL0     C  582  -2.315   1.351   0.544  0.2666  0.3446 -0.0052
    5MOL0     C  583  -2.309   1.204   0.539  0.7126  0.1998  0.1368
    5MOL0    Cl  584  -2.147   1.125   0.521  0.6089 -0.0842  0.5273
    5MOL0     C  585  -1.919   1.703   1.477 -0.4086  0.0710  0.3711
    5MOL0     C  586  -1.789   1.754   1.487  0.4115 -0.1092  0.6077
    5MOL0     O  587  -1.547   1.864   1.646  0.2924  0.3501 -0.5393
    5MOL0     C  588  -1.329   2.028   1.570 -1.2413 -0.0270 -0.1360
    5MOL0     C  589  -1.216   2.093   1.523 -0.0481 -0.2387  0.1741
    5MOL0     N  590  -0.538   2.032   1.802 -0.3194 -0.2066 -0.0464
    5MOL0     N  591  -0.515   2.057   1.925 -0.6440  0.0673 -0.2950
    5MOL0     C  592   0.338   2.110   2.740 -0.3461  0.7665 -0.7475
    5MOL0     C  593   0.430   2.123   2.852  0.1048 -0.2564  0.0650
    5MOL0     C  594   0.623   1.997   3.235  0.4366 -0.9568  0.3499
    5MOL0     C  595   0.760   2.028   3.236  0.9740 -0.5696  0.1276
    5MOL0     C  596   0.826   2.063   3.346  0.3325  0.6868 -0.0766
    5MOL0     C  597   0.759   2.073   3.470 -0.1357 -0.1249 -0.8648
    5MOL0     O  598   0.833   2.124   3.574 -0.3842  0.1274 -0.1474
    5MOL0     C  599   0.775   2.196   3.676  0.0328 -0.3542 -0.6807
    5MOL0     C  600   0.859   2.312   3.716  0.4801  0.3434 -0.1437
    5MOL0     C  601   0.780   2.403   3.803  0.5826  0.3462 -0.8188
    5MOL0     C  602   0.863   2.512   3.868  0.1773  0.3935  0.1005
    5MOL0     C  603   0.966   2.456   3.962  0.9957  0.9218  0.1495
    5MOL0     C  604   1.072   2.441   4.028 -0.7553  0.3370  0.3359
    5MOL0     C  605   0.625   2.035   3.474 -0.3422 -0.3316 -0.0126
    5MOL0     C  606   0.549   1.992   3.362 -0.9727 -0.2480  0.3927
    5MOL0     C  607   0.408   1.973   3.384  0.7249 -0.1700 -0.2463
    5MOL0     H  608   0.602   1.842   2.814  1.5160  1.1235  0.5256
    5MOL0     H  609   0.436   1.798   2.639  0.4724  0.7426 -2.3602
    5MOL0     H  610   0.342   1.863   2.448  0.1799 -2.8530  0.7076
    5MOL0     H  611   0.199   1.793   2.537 -0.8667 -0.1246 -0.5098
    5MOL0     H  612   0.169   1.830   2.273  2.3962  2.6983 -1.1646
    5MOL0     H  613   0.145   1.991   2.317  1.0908  0.2779  0.0795
    5MOL0     H  614  -0.034   1.863   2.500  0.9599 -1.3186  0.9732
    5MOL0     H  615  -0.018   1.736   2.378 -2.1463  0.4646  0.9520
    5MOL0     H  616  -0.122   2.020   2.326  0.6937 -0.0867  5.1760
    5MOL0     H  617  -0.075   1.922   2.199 -2.7138 -1.1599 -1.4536
    5MOL0     H  618  -0.247   1.740   2.298  0.0881 -0.4597  1.4227
    5MOL0     H  619  -0.280   1.870   2.415  2.9104 -0.7040  0.6013
    5MOL0     H  620  -0.332   2.033   2.248  2.8758  0.3217  0.2852
    5MOL0     H  621  -0.302   1.927   2.118 -2.2894  2.7395 -1.4394
    5MOL0     H  622  -0.515   1.876   2.332  0.9824  3.0085  1.1257
    5MOL0     H  623  -0.487   1.774   2.183  1.5520  0.3368  0.2612
    5MOL0     H  624  -0.672   1.949   2.165 -0.5013  1.3772 -1.3439
    5MOL0     H  625  -0.554   2.069   2.174 -0.0403 -0.2122  2.5000
    5MOL0     H  626  -0.668   1.773   1.947  2.2685 -1.0525  0.9285
    5MOL0     H  627  -0.654   1.825   1.609 -2.2685 -2.8744 -1.0087
    5MOL0     H  628  -0.776   1.791   1.735 -1.7830  0.2184 -2.0028
    5MOL0     H  629  -0.879   2.019   1.722  0.4734 -2.2808  0.7001
    5MOL0     H  630  -0.726   2.064   1.626  1.3916  0.4360  2.7409
    5MOL0     H  631  -0.957   1.913   1.538 -0.2141  1.1732 -0.9120
    5MOL0     H  632  -0.799   1.915   1.454  1.1258 -0.3545 -0.1838
    5MOL0     H  633  -0.823   2.141   1.425 -0.0684  1.3921  0.2959
    5MOL0     H  634  -0.948   2.167   1.549  0.4867  1.7335 -1.4841
    5MOL0     H  635  -1.135   1.880   1.266 -3.2570 -0.9800 -2.3839
    5MOL0     H  636  -1.329   1.771   1.331  4.3764 -1.0186  0.1013
    5MOL0     H  637  -1.617   1.543   1.310  1.6497  0.0906  3.5099
    5MOL0     H  638  -1.847   1.447   1.276  0.0096  2.3875 -1.6401
    5MOL0     H  639  -2.057   1.376   1.286  0.0332 -1.9857 -3.0297
    5MOL0     H  640  -2.219   1.432   1.324  0.2978  3.6627  1.1770
    5MOL0     H  641  -2.160   1.631   1.131  2.8009  2.0134  1.5941
    5MOL0     H  642  -2.034   1.507   1.099  0.3008 -0.9532  0.8219
    5MOL0     H  643  -2.252   1.366   1.088 -0.5448 -0.2963 -0.4735
    5MOL0     H  644  -2.326   1.509   1.034 -0.2069  1.5089 -1.7313
    5MOL0     H  645  -2.085   1.376   0.906 -0.9831 -0.6687 -3.9549
    5MOL0     H  646  -2.139   1.552   0.876  0.8101  0.3464  0.3569
    5MOL0     H  647  -2.360   1.444   0.822  2.3643  3.8723  1.1330
    5MOL0     H  648  -2.278   1.280   0.809 -0.3803 -0.2506  5.7755
    5MOL0     H  649  -2.234   1.533   0.639 -2.3796 -0.1810  0.3433
    5MOL0     H  650  -2.115   1.396   0.639  0.1639  1.4913 -1.4913
    5MOL0     H  651  -2.286   1.397   0.449 -2.6361  2.3980 -0.0267
    5MOL0     H  652  -2.412   1.393   0.572  0.0825 -0.7603  1.0923
    5MOL0     H  653  -2.359   1.167   0.629  2.7251 -2.8645  0.1319
    5MOL0     H  654  -2.376   1.182   0.455 -0.2169  0.1634  0.8639
    5MOL0     H  655  -1.996   1.768   1.516  1.4404  0.8764  2.9183
    5MOL0     H  656  -1.777   1.846   1.543  1.6624  0.3651 -0.3931
    5MOL0     H  657  -1.371   2.064   1.663  0.5051  1.5086  0.1118
    5MOL0     H  658  -1.201   2.193   1.561 -2.3809 -0.8210  2.9066
    5MOL0     H  659   0.265   2.187   2.714 -1.4455 -0.0628 -0.2321
    5MOL0     H  660   0.454   2.216   2.904 -2.0555  0.6278 -0.3826
    5MOL0     H  661   0.818   2.021   3.145 -0.3502  1.2860 -0.9467
    5MOL0     H  662   0.930   2.095   3.345  0.1004  2.0790  3.4501
    5MOL0     H  663   0.749   2.128   3.757  0.0972  0.6065  0.1649
    5MOL0     H  664   0.676   2.234   3.646 -1.7656 -3.2661  1.1387
    5MOL0     H  665   0.883   2.378   3.632  3.2153 -0.0223  0.2546
    5MOL0     H  666   0.957   2.282   3.755 -0.0391 -1.5822 -0.2025
    5MOL0     H  667   0.741   2.346   3.888  0.5952  1.5935  0.0525
    5MOL0     H  668   0.695   2.443   3.746 -1.4875  0.7531  2.2777
    5MOL0     H  669   0.923   2.555   3.787  1.7658 -2.0114 -0.0805
    5MOL0     H  670   0.803   2.586   3.923  0.1955 -0.5018  1.3566
    5MOL0     H  671   1.163   2.428   4.082  0.4217  1.3958 -1.3076
    5MOL0     H  672   0.579   2.047   3.572  1.4450  3.2165  0.5656
    5MOL0     H  673   0.355   1.997   3.292  1.0482 -0.9828 -0.6429
    5MOL0     H  674   0.394   1.868   3.410 -1.0901 -0.0314 -0.5243
    5MOL0     H  675   0.369   2.042   3.461  0.7039  0.7368 -1.0491
    6MOL0     O  676   3.543   4.281   4.917 -0.1445  0.1025  0.4967
    6MOL0     C  677   3.642   4.317   4.850  0.0108 -0.0750  0.6138
    6MOL0     O  678   3.770   4.339   4.898 -1.0788 -0.3133  0.0209
    6MOL0     C  679   3.792   4.321   5.029  0.1457 -0.4528  1.0118
    6MOL0     C  680   3.736   4.405   5.113  0.0193  0.6527  0.0368
    6MOL0     C  681   3.727   4.373   5.247  1.3558 -0.3218 -0.7389
    6MOL0     C  682   3.797   4.272   5.302  0.0615  0.0437  0.6500
    6MOL0     O  683   3.774   4.241   5.427 -0.2097 -0.0557  0.0456
    6MOL0     C  684   3.888   4.173   5.499  0.6793 -0.4378  0.5287
    6MOL0     C  685   3.892   4.216   5.651  0.6494  0.1300 -0.5279
    6MOL0     C  686   4.026   4.169   5.718  0.9450  0.5998  0.8594
    6MOL0     C  687   4.048   4.208   5.864  0.5402 -0.2598 -1.0711
    6MOL0     C  688   3.921   4.199   5.957 -0.9964  0.2607  0.1323
    6MOL0     C  689   3.945   4.259   6.100  0.6286  0.1908  0.0762
    6MOL0     C  690   3.959   4.410   6.095  0.3247  0.0912  0.2030
    6MOL0     C  691   3.933   4.474   6.241  0.0717  1.2176  0.7715
    6MOL0     N  692   3.810   4.425   6.304  1.1070 -0.1762  0.6324
    6MOL0     C  693   3.676   4.453   6.276 -0.0093  0.2378 -0.5178
    6MOL0     C  694   3.606   4.428   6.392 -0.1643  0.5166 -0.4276
    6MOL0     C  695   3.457   4.435   6.409 -0.1993 -0.1384  0.7669
    6MOL0     C  696   3.402   4.296   6.433  0.8157 -0.0497 -0.4451
    6MOL0     C  697   3.244   4.285   6.409  0.3251  0.7293 -0.2343
    6MOL0     C  698   3.191   4.154   6.472  0.2176 -0.3704 -0.1815
    6MOL0     O  699   3.225   4.139   6.615 -0.3286  0.1549 -0.1545
    6MOL0     C  700   3.300   4.033   6.661  0.3529 -0.4613 -0.0934
    6MOL0     C  701   3.389   4.045   6.766  0.0587  1.0500 -0.4061
    6MOL0     C  702   3.474   3.946   6.813 -0.1728  0.2209 -0.8936
    6MOL0     C  703   3.460   3.819   6.766 -0.0054 -0.0248  0.4375
    6MOL0     C  704   3.547   3.703   6.805  1.0367 -0.6792 -0.4088
    6MOL0     O  705   3.553   3.601   6.707  0.4713 -0.2261 -0.9066
    6MOL0     C  706   3.617   3.486   6.752  0.2453 -0.2741 -0.7497
    6MOL0     C  707   3.580   3.423   6.872 -0.1368  0.5934 -0.3602
    6MOL0     C  708   3.632   3.298   6.896  1.0843  0.2452 -0.7084
    6MOL0     C  709   3.726   3.233   6.811  0.7074  0.1569 -0.7182
    6MOL0     O  710   3.798   3.112   6.840  0.6796 -0.4022  0.5557
    6MOL0     C  711   3.769   3.035   6.953 -0.0321  0.4148 -0.6973
    6MOL0     C  712   3.805   2.884   6.942  0.8174  0.4809 -0.0876
    6MOL0     C  713   3.726   2.799   6.851 -0.0341 -0.7679 -0.3182
    6MOL0     C  714   3.734   2.656   6.872 -0.6149  0.2105  1.1166
    6MOL0     C  715   3.877   2.587   6.860  0.2248 -0.1649 -0.4400
    6MOL0     C  716   3.931   2.548   6.997  0.1551  0.5771  0.1363
    6MOL0     C  717   4.054   2.459   6.986 -0.1902 -0.7292  0.3811
    6MOL0     C  718   4.159   2.488   7.088  0.4129  0.6242 -0.2049
    6MOL0    Cl  719   4.097   2.448   7.260 -0.1178 -0.4252  0.3774
    6MOL0     C  720   3.741   3.286   6.683 -0.1001 -0.1659 -0.1731
    6MOL0     C  721   3.682   3.414   6.659 -0.1205  0.6314 -0.2316
    6MOL0     O  722   3.606   3.708   6.916  0.5038 -0.1194  0.3359
    6MOL0     C  723   3.363   3.799   6.660 -0.2092  1.7624  0.4213
    6MOL0     C  724   3.281   3.909   6.606 -0.2955 -0.6748 -0.6199
    6MOL0     N  725   3.696   4.374   6.485  0.0460 -0.3848  0.1694
    6MOL0     N  726   3.809   4.380   6.429  0.7992  0.3714  0.9202
    6MOL0     C  727   3.867   4.187   5.216 -0.1558 -0.8381 -0.6945
    6MOL0     C  728   3.863   4.213   5.079  0.0283  0.2844 -0.3377
    6MOL0     C  729   3.626   4.325   4.703 -0.2495  0.6794 -0.3566
    6MOL0     C  730   3.702   4.425   4.633  0.4554  0.4825 -0.3878
    6MOL0     C  731   3.706   4.438   4.496 -0.2805 -0.2334  0.2584
    6MOL0     C  732   3.629   4.346   4.419  0.7830 -0.3717 -0.2826
    6MOL0     O  733   3.634   4.354   4.277  0.2255  0.1120 -0.9424
    6MOL0     C  734   3.541   4.271   4.203  0.4586 -0.2272 -0.0236
    6MOL0     C  735   3.565   4.302   4.050 -0.5322 -0.2612  0.4232
    6MOL0     C  736   3.710   4.294   4.016  0.4643 -0.4510  0.7757
    6MOL0     C  737   3.714   4.285   3.855  0.2624  0.0662 -0.3713
    6MOL0     C  738   3.813   4.379   3.797 -0.4383  0.5671 -0.4816
    6MOL0     C  739   3.894   4.459   3.754  0.1717 -0.4426 -0.5853
    6MOL0     C  740   3.543   4.249   4.490 -0.5811  0.2380 -0.0373
    6MOL0     C  741   3.553   4.233   4.631 -0.3332 -0.6767 -0.0945
    6MOL0     C  742   3.493   4.108   4.701  0.2540 -0.1652 -0.1943
    6MOL0     H  743   3.695   4.501   5.082 -1.5167 -0.5838 -1.9977
    6MOL0     H  744   3.660   4.445   5.292 -0.7698 -1.2728 -2.2239
    6MOL0     H  745   3.880   4.064   5.505  3.3995 -0.6350  2.6592
    6MOL0     H  746   3.982   4.200   5.450 -0.9034  1.7127 -1.5765
    6MOL0     H  747   3.805   4.177   5.705  0.8912 -1.2103 -1.0595
    6MOL0     H  748   3.880   4.324   5.666  1.9263  0.3037 -0.6595
    6MOL0     H  749   4.104   4.217   5.659  0.1960  0.2211 -0.4635
    6MOL0     H  750   4.041   4.061   5.714  1.7690  0.7419 -1.9752
    6MOL0     H  751   4.133   4.154   5.907 -1.4268 -4.0906 -1.5253
    6MOL0     H  752   4.076   4.313   5.877  2.3538 -0.9386  1.4270
    6MOL0     H  753   3.849   4.269   5.912  0.2321  1.0258 -0.7038
    6MOL0     H  754   3.887   4.095   5.960  1.5932 -0.6370  2.4844
    6MOL0     H  755   3.857   4.229   6.158 -1.1917  2.0136 -1.5444
    6MOL0     H  756   4.033   4.207   6.139  1.9784 -0.0773 -3.0223
    6MOL0     H  757   3.891   4.458   6.024  1.2425  1.1802  0.0416
    6MOL0     H  758   4.060   4.434   6.062 -0.4537  0.4318 -2.1629
    6MOL0     H  759   4.025   4.460   6.298  0.2788  0.1415  0.2120
    6MOL0     H  760   3.924   4.582   6.232  3.5646  1.5056 -1.5992
    6MOL0     H  761   3.632   4.497   6.187 -1.0606  1.6125  0.6327
    6MOL0     H  762   3.424   4.493   6.495 -3.0529  0.3330 -0.5446
    6MOL0     H  763   3.402   4.466   6.320  0.3911  2.5680  1.2520
    6MOL0     H  764   3.441   4.233   6.353  2.3345  1.3032 -0.8256
    6MOL0     H  765   3.438   4.248   6.525  2.9571 -2.1454 -2.2720
    6MOL0     H  766   3.219   4.278   6.303 -0.4250  0.6972 -0.0629
    6MOL0     H  767   3.195   4.370   6.456 -2.6269 -0.6428 -0.6124
    6MOL0     H  768   3.222   4.072   6.407 -0.8029 -0.2737 -0.8077
    6MOL0     H  769   3.084   4.145   6.454 -0.3889  2.6456  1.2445
    6MOL0     H  770   3.406   4.141   6.814  2.3498 -0.4942  2.1374
    6MOL0     H  771   3.555   3.958   6.884 -0.4990  1.5625 -0.7090
    6MOL0     H  772   3.515   3.462   6.950 -2.3272 -4.4784  0.7390
    6MOL0     H  773   3.608   3.246   6.988 -0.1820  2.7972  0.5180
    6MOL0     H  774   3.828   3.081   7.032  3.9261 -4.6104 -0.2223
    6MOL0     H  775   3.668   3.035   6.996 -0.0298  0.1809 -0.6889
    6MOL0     H  776   3.912   2.866   6.925  0.6236 -0.8166 -0.0129
    6MOL0     H  777   3.787   2.837   7.039  2.5345  1.0370  0.5486
    6MOL0     H  778   3.629   2.842   6.876  0.9535  1.8245 -0.6608
    6MOL0     H  779   3.748   2.806   6.744  1.3321 -1.2120 -0.0805
    6MOL0     H  780   3.676   2.610   6.791 -0.1890  0.1321  0.8506
    6MOL0     H  781   3.692   2.629   6.969  0.8769 -0.8891  1.5047
    6MOL0     H  782   3.950   2.660   6.823  0.8116 -1.0138 -1.0018
    6MOL0     H  783   3.881   2.498   6.796  0.6620 -0.2695 -0.2748
    6MOL0     H  784   3.969   2.632   7.056  2.2891  0.6713 -1.2358
    6MOL0     H  785   3.851   2.508   7.060 -1.6592  2.5895 -0.7919
    6MOL0     H  786   4.102   2.488   6.891  0.5296 -1.1841  0.5959
    6MOL0     H  787   4.043   2.351   6.969  0.0999 -0.5247 -1.3168
    6MOL0     H  788   4.246   2.424   7.068  1.0516  1.6911 -0.9100
    6MOL0     H  789   4.190   2.593   7.092 -0.3803  0.8230  1.5203
    6MOL0     H  790   3.813   3.245   6.613  1.8360  1.0125  1.0752
    6MOL0     H  791   3.699   3.445   6.556 -0.7184  0.1719 -0.4756
    6MOL0     H  792   3.347   3.701   6.617  1.5368  1.7303 -0.2395
    6MOL0     H  793   3.204   3.893   6.532 -3.3877  1.9929  1.7442
    6MOL0     H  794   3.930   4.103   5.244  1.3925 -0.3150 -2.4055
    6MOL0     H  795   3.888   4.141   5.002 -1.2941  0.5307 -1.0354
    6MOL0     H  796   3.779   4.475   4.690  1.7993  0.3273 -1.9850
    6MOL0     H  797   3.762   4.515   4.444 -1.8126  2.5546  2.4505
    6MOL0     H  798   3.437   4.295   4.227 -1.2405 -5.9477 -0.3234
    6MOL0     H  799   3.554   4.163   4.212 -2.4119 -0.8840 -2.1067
    6MOL0     H  800   3.543   4.406   4.024 -1.0972  0.1331  2.3333
    6MOL0     H  801   3.504   4.236   3.988 -0.6506  0.2831 -0.0429
    6MOL0     H  802   3.752   4.203   4.059  0.2810 -0.8942  0.0335
    6MOL0     H  803   3.773   4.373   4.058  1.5652 -2.1492  2.4986
    6MOL0     H  804   3.710   4.185   3.810 -3.2089  0.5074 -1.3989
    6MOL0     H  805   3.622   4.328   3.815  0.2055  2.2495  1.8264
    6MOL0     H  806   3.968   4.526   3.716 -1.3287  2.8906  1.8197
    6MOL0     H  807   3.477   4.176   4.443  0.2255  0.4428 -1.5606
    6MOL0     H  808   3.550   4.065   4.783 -1.5924  0.4050  1.4749
    6MOL0     H  809   3.394   4.134   4.741 -0.2532 -1.8772 -0.2939
    6MOL0     H  810   3.465   4.032   4.627 -0.8161 -1.6649  1.6635
    7MOL0     O  811   2.756   2.195   3.203 -0.1858  0.9042 -0.0565
    7MOL0     C  812   2.708   2.095   3.262 -0.9319  0.0539  0.3169
    7MOL0     O  813   2.595   2.034   3.225  0.0761 -0.2787  0.0310
    7MOL0     C  814   2.533   2.061   3.105 -0.2184  0.1640  1.2770
    7MOL0     C  815   2.389   2.068   3.091 -0.5685 -1.1029  0.1770
    7MOL0     C  816   2.329   2.097   2.968  0.4725 -0.5818  0.2460
    7MOL0     C  817   2.404   2.104   2.857  0.8305  0.1425 -0.2961
    7MOL0     O  818   2.345   2.143   2.741  0.1225 -0.4150 -0.9680
    7MOL0     C  819   2.283   2.024   2.671 -0.0609 -0.0657  0.7252
    7MOL0     C  820   2.196   2.084   2.561 -0.2573 -0.1312  0.3054
    7MOL0     C  821   2.284   2.103   2.442  0.2100  0.4684  0.8402
    7MOL0     C  822   2.247   2.225   2.360 -0.0903 -0.3794  0.3161
    7MOL0     C  823   2.344   2.241   2.235 -0.1498 -0.3860  0.1752
    7MOL0     C  824   2.331   2.374   2.171 -0.7223 -0.6779  0.1309
    7MOL0     C  825   2.400   2.371   2.041 -0.1199  0.5782  0.0780
    7MOL0     C  826   2.423   2.512   1.977 -0.0370 -0.2939  1.0402
    7MOL0     N  827   2.301   2.574   1.928  0.3383 -0.4547 -0.1980
    7MOL0     C  828   2.243   2.564   1.805 -0.1941 -0.8211 -0.4380
    7MOL0     C  829   2.123   2.621   1.824 -0.1497 -0.6532 -0.3808
    7MOL0     C  830   2.031   2.658   1.716  0.0598 -0.1095 -0.5511
    7MOL0     C  831   2.081   2.787   1.638  0.6704 -0.0568 -0.6768
    7MOL0     C  832   1.986   2.820   1.525  0.2797  0.2827 -0.5423
    7MOL0     C  833   1.994   2.965   1.488  0.7762  0.8857  0.7992
    7MOL0     O  834   2.130   3.014   1.459 -0.3237 -0.4657  0.6122
    7MOL0     C  835   2.189   2.966   1.346  0.1226  0.0593  0.1808
    7MOL0     C  836   2.120   2.922   1.225  0.4964  0.1100  0.3640
    7MOL0     C  837   2.183   2.875   1.108  0.0951 -0.5555 -0.3839
    7MOL0     C  838   2.320   2.875   1.096 -0.2544  0.1768  0.1524
    7MOL0     C  839   2.381   2.837   0.965 -0.3648 -0.3121  0.0678
    7MOL0     O  840   2.510   2.785   0.971  0.4217 -0.5472 -0.1600
    7MOL0     C  841   2.574   2.753   0.853 -0.6393  0.6805 -0.1775
    7MOL0     C  842   2.586   2.615   0.810 -0.0395  0.6577  0.2830
    7MOL0     C  843   2.645   2.574   0.688  0.7629 -0.6101  0.2300
    7MOL0     C  844   2.702   2.675   0.614  0.1210 -1.0290  0.1324
    7MOL0     O  845   2.780   2.655   0.504 -0.3456  0.0335 -0.2371
    7MOL0     C  846   2.797   2.518   0.452  0.4267 -0.3438 -0.3513
    7MOL0     C  847   2.911   2.527   0.355  0.3777  0.5475  0.1228
    7MOL0     C  848   2.924   2.396   0.282 -0.2439  0.4899 -0.5037
    7MOL0     C  849   3.055   2.395   0.204 -0.2173  0.0599 -0.6812
    7MOL0     C  850   3.050   2.289   0.088 -0.7010 -0.6635  0.1259
    7MOL0     C  851   3.032   2.150   0.144  0.1658  0.3786  1.0237
    7MOL0     C  852   3.086   2.055   0.030  0.8322 -0.0305 -0.2697
    7MOL0     C  853   3.061   1.911   0.077 -0.8156  0.6837 -0.2014
    7MOL0    Cl  854   3.006   1.810  -0.071  0.2494 -0.6033  0.0114
    7MOL0     C  855   2.692   2.810   0.651 -0.1870 -0.2629  0.3727
    7MOL0     C  856   2.620   2.847   0.763  0.4421  0.7344  0.1708
    7MOL0     O  857   2.310   2.837   0.866  0.8181  0.1680 -0.3427
    7MOL0     C  858   2.392   2.908   1.219 -0.8510 -0.3617 -0.1746
    7MOL0     C  859   2.332   2.963   1.338  0.5990  0.1736  1.0843
    7MOL0     N  860   2.113   2.654   1.954 -0.7706  0.1720 -0.2191
    7MOL0     N  861   2.214   2.617   2.024 -0.1749 -0.3643  0.5024
    7MOL0     C  862   2.539   2.091   2.862  0.3104  0.8650 -0.0043
    7MOL0     C  863   2.605   2.075   2.986  0.0130  0.0718  0.6520
    7MOL0     C  864   2.770   2.046   3.384  0.4882 -0.1858  0.3201
    7MOL0     C  865   2.877   2.135   3.422 -0.3468  0.1067 -0.6687
    7MOL0     C  866   2.941   2.133   3.545 -0.5962  0.8566 -0.4875
    7MOL0     C  867   2.908   2.022   3.630  0.6382 -0.3529  0.4095
    7MOL0     O  868   2.990   2.003   3.739 -0.0148 -0.2642  0.1234
    7MOL0     C  869   3.037   1.868   3.742 -0.4389 -0.6884 -0.1553
    7MOL0     C  870   3.126   1.856   3.870  0.3106  0.8755  0.5445
    7MOL0     C  871   3.265   1.901   3.830  0.7742 -0.3660  0.2840
    7MOL0     C  872   3.369   1.871   3.939 -0.0575  0.3228  0.0679
    7MOL0     C  873   3.406   1.732   3.964  1.1570 -0.4582 -0.5910
    7MOL0     C  874   3.430   1.616   3.989  0.0320 -0.1941 -0.2475
    7MOL0     C  875   2.807   1.937   3.585  0.2235 -0.0938 -0.4649
    7MOL0     C  876   2.728   1.951   3.472  0.6500 -0.4514  0.1775
    7MOL0     C  877   2.607   1.864   3.452  0.0399 -0.0818  1.4466
    7MOL0     H  878   2.337   2.072   3.186  0.8466  1.2340  0.9482
    7MOL0     H  879   2.223   2.122   2.970  0.8617  1.6323 -2.1936
    7MOL0     H  880   2.348   1.955   2.617 -0.3758  0.2754 -0.0993
    7MOL0     H  881   2.216   1.970   2.738  0.9638  1.3200  3.0233
    7MOL0     H  882   2.140   2.172   2.591 -1.5915 -0.9221  0.2300
    7MOL0     H  883   2.125   2.006   2.531  0.2996  1.0111 -4.9114
    7MOL0     H  884   2.278   2.017   2.374  0.8401  1.1622 -0.1262
    7MOL0     H  885   2.390   2.105   2.472  0.6050  1.6684 -0.4856
    7MOL0     H  886   2.145   2.215   2.323 -0.6566 -0.8968  1.9304
    7MOL0     H  887   2.255   2.313   2.424  3.3612  0.6608 -1.2961
    7MOL0     H  888   2.451   2.229   2.254 -0.1514 -1.8438 -0.5660
    7MOL0     H  889   2.326   2.159   2.165  3.0243 -1.7892  0.8277
    7MOL0     H  890   2.223   2.392   2.163 -0.9343 -1.1015  1.6919
    7MOL0     H  891   2.375   2.445   2.242  1.8901 -2.0671  0.0058
    7MOL0     H  892   2.341   2.314   1.969  0.6860 -1.9486  1.3318
    7MOL0     H  893   2.501   2.331   2.057  1.0526  1.8594 -3.0784
    7MOL0     H  894   2.456   2.571   2.063 -0.8045  1.2710  0.2896
    7MOL0     H  895   2.494   2.510   1.894 -2.3402  2.2063 -1.1566
    7MOL0     H  896   2.278   2.512   1.716 -0.3376 -0.8951 -0.4503
    7MOL0     H  897   2.006   2.578   1.645  0.0226  1.3880 -2.2853
    7MOL0     H  898   1.938   2.683   1.767  0.0210 -1.2341 -0.0322
    7MOL0     H  899   2.096   2.870   1.708  2.9146 -1.4341  0.5772
    7MOL0     H  900   2.181   2.757   1.607  2.9698 -1.3037  6.2196
    7MOL0     H  901   1.888   2.798   1.568  0.9322 -0.5981  0.5423
    7MOL0     H  902   2.001   2.755   1.438 -0.0571 -1.7002  0.8124
    7MOL0     H  903   1.948   3.025   1.567 -0.5367 -1.9511  2.3334
    7MOL0     H  904   1.929   2.983   1.402 -0.9796  0.2909  1.9651
    7MOL0     H  905   2.011   2.923   1.227  0.2705 -3.0217 -1.9041
    7MOL0     H  906   2.120   2.843   1.026 -2.0254 -0.4408  1.1114
    7MOL0     H  907   2.536   2.539   0.868 -1.8360 -0.2575 -2.2950
    7MOL0     H  908   2.649   2.468   0.663  2.4020 -0.2727 -1.1358
    7MOL0     H  909   2.815   2.455   0.539 -6.1706 -0.8836  1.0804
    7MOL0     H  910   2.704   2.493   0.401  1.6709 -1.1002 -2.4133
    7MOL0     H  911   2.884   2.608   0.287 -2.7161 -0.0281  0.4976
    7MOL0     H  912   2.996   2.551   0.420 -1.0269 -1.8197  3.0990
    7MOL0     H  913   2.927   2.315   0.355 -0.6366 -0.9111 -1.9746
    7MOL0     H  914   2.845   2.388   0.207 -0.6031 -0.5976 -0.0261
    7MOL0     H  915   3.138   2.378   0.273 -1.7707  0.3676  1.3883
    7MOL0     H  916   3.081   2.494   0.165  2.1003  0.3250  1.3053
    7MOL0     H  917   3.154   2.301   0.054 -0.8368  0.4494  0.0793
    7MOL0     H  918   2.974   2.313   0.013 -2.1834 -0.8342  1.5375
    7MOL0     H  919   3.110   2.136   0.220 -1.4007 -1.6937  2.3529
    7MOL0     H  920   2.930   2.136   0.183  0.1524 -1.3544  0.4146
    7MOL0     H  921   3.192   2.072   0.011  0.8993  3.8596  2.4416
    7MOL0     H  922   3.016   2.083  -0.050 -1.9882  0.2874  2.1360
    7MOL0     H  923   3.148   1.883   0.137 -1.8199  2.5144  2.3018
    7MOL0     H  924   2.984   1.910   0.155  0.4938  1.6802  1.1793
    7MOL0     H  925   2.741   2.875   0.579  0.4906 -0.2557  0.8293
    7MOL0     H  926   2.590   2.949   0.784 -5.8546 -0.5323 -0.8237
    7MOL0     H  927   2.500   2.899   1.219 -0.7136  1.0702 -0.2521
    7MOL0     H  928   2.397   3.003   1.415 -0.6844  2.1379  1.2270
    7MOL0     H  929   2.599   2.107   2.772 -0.1570 -0.2560 -0.5336
    7MOL0     H  930   2.713   2.080   2.988 -0.0396  2.2437  2.6986
    7MOL0     H  931   2.929   2.198   3.351  0.6098 -2.9157 -2.8525
    7MOL0     H  932   3.024   2.201   3.561 -1.0255  1.6544 -1.4814
    7MOL0     H  933   3.090   1.845   3.650  2.4017  2.4414  0.4879
    7MOL0     H  934   2.955   1.800   3.767 -1.7487  0.6105 -0.7755
    7MOL0     H  935   3.126   1.752   3.901 -3.0410 -0.1470 -2.2221
    7MOL0     H  936   3.089   1.922   3.949 -0.1855  0.9383  0.2646
    7MOL0     H  937   3.272   2.011   3.828  3.3807 -0.4836 -0.1074
    7MOL0     H  938   3.295   1.864   3.732  1.7324 -0.7958  0.7323
    7MOL0     H  939   3.462   1.922   3.914  0.4006 -1.4386 -2.1544
    7MOL0     H  940   3.327   1.915   4.030 -1.2356 -0.9853  0.1924
    7MOL0     H  941   3.448   1.519   4.030 -2.2308 -1.4941 -2.0797
    7MOL0     H  942   2.776   1.870   3.664  4.2220 -0.1462  1.3138
    7MOL0     H  943   2.600   1.785   3.526 -0.8625  0.5016  2.0104
    7MOL0     H  944   2.516   1.923   3.463  0.5009  1.1848 -0.7828
    7MOL0     H  945   2.610   1.811   3.356  0.4577 -0.2020  1.5275
    8MOL0     O  946   8.342   9.857   1.892 -0.3465 -0.2325 -0.2822
    8MOL0     C  947   8.372   9.953   1.822 -0.4487 -1.3670  0.0488
    8MOL0     O  948   8.446   9.943   1.703  0.2584  0.0174 -0.3372
    8MOL0     C  949   8.503   9.818   1.683  0.0321 -0.5581  0.6952
    8MOL0     C  950   8.641   9.798   1.714  0.7248  0.1996 -0.5149
    8MOL0     C  951   8.697   9.674   1.678 -0.2397  0.9182 -0.1950
    8MOL0     C  952   8.618   9.566   1.630 -0.4343 -0.6150 -0.2422
    8MOL0     O  953   8.687   9.457   1.589  0.4948  0.5780 -0.6059
    8MOL0     C  954   8.619   9.358   1.516  0.2008  0.1421 -0.2105
    8MOL0     C  955   8.718   9.264   1.446 -0.5254 -0.3605  0.4621
    8MOL0     C  956   8.752   9.148   1.539 -0.0144 -0.6101 -0.6011
    8MOL0     C  957   8.827   9.036   1.473  0.1943  0.7357  1.1141
    8MOL0     C  958   8.726   8.949   1.380  0.2350  0.6596 -1.1988
    8MOL0     C  959   8.755   8.800   1.401 -0.7435 -0.1780 -0.1446
    8MOL0     C  960   8.688   8.748   1.534 -0.5168 -0.2418  0.1713
    8MOL0     C  961   8.545   8.701   1.518  0.4854  0.2878 -0.0206
    8MOL0     N  962   8.484   8.643   1.638  0.7101  0.1875  0.4157
    8MOL0     C  963   8.490   8.513   1.668 -0.4377 -0.3136 -0.2830
    8MOL0     C  964   8.434   8.499   1.792  0.1807 -1.2542  0.5984
    8MOL0     C  965   8.439   8.378   1.879 -0.2707 -0.2034 -0.3638
    8MOL0     C  966   8.594   8.343   1.888  0.0892 -1.0187  0.7907
    8MOL0     C  967   8.616   8.246   2.003 -0.4792  0.1825 -0.2997
    8MOL0     C  968   8.764   8.222   2.034  0.2700 -0.7314  0.1184
    8MOL0     O  969   8.831   8.190   1.916 -0.1054 -0.3984 -0.7397
    8MOL0     C  970   8.961   8.245   1.904  0.6830 -0.8478 -0.0724
    8MOL0     C  971   9.020   8.220   1.782  0.3284 -0.8095  0.4077
    8MOL0     C  972   9.154   8.259   1.753  0.2966  0.6253 -0.1913
    8MOL0     C  973   9.239   8.305   1.856  0.1289  0.4716  0.4896
    8MOL0     C  974   9.378   8.321   1.833 -0.5490  0.1656  1.4591
    8MOL0     O  975   9.417   8.323   1.702 -1.0826  0.3771 -1.0947
    8MOL0     C  976   9.551   8.323   1.670  0.3340 -0.4225  0.0744
    8MOL0     C  977   9.608   8.429   1.589  0.5491 -0.3417 -1.5601
    8MOL0     C  978   9.743   8.425   1.550  0.7870 -0.1352 -0.1926
    8MOL0     C  979   9.823   8.315   1.577  0.4123  0.4719 -0.7412
    8MOL0     O  980   9.956   8.299   1.532  1.4110 -0.6018  0.0701
    8MOL0     C  981  10.047   8.417   1.513  1.0909 -0.3406  0.4262
    8MOL0     C  982  10.185   8.392   1.558  0.8227 -0.8564 -0.8829
    8MOL0     C  983  10.254   8.271   1.482 -0.3706 -1.1087 -0.6849
    8MOL0     C  984  10.372   8.225   1.563  0.0499  0.6288 -0.0330
    8MOL0     C  985  10.481   8.330   1.566  0.1012 -0.1224 -0.3713
    8MOL0     C  986  10.559   8.346   1.435  0.2983 -0.3821 -0.4482
    8MOL0     C  987  10.582   8.227   1.334 -0.4936  0.4176 -0.5039
    8MOL0     C  988  10.687   8.248   1.240  0.2808  0.3022  0.8778
    8MOL0    Cl  989  10.760   8.087   1.192 -0.3579 -0.0558  0.4641
    8MOL0     C  990   9.769   8.214   1.660  0.0543  0.3409 -0.7177
    8MOL0     C  991   9.634   8.217   1.706 -0.7355  1.0179  0.5791
    8MOL0     O  992   9.457   8.331   1.922 -0.0289  0.7761 -0.3156
    8MOL0     C  993   9.176   8.328   1.982 -0.0859  0.3533 -0.1639
    8MOL0     C  994   9.036   8.301   2.009 -0.3580  1.1252 -0.1381
    8MOL0     N  995   8.377   8.620   1.823  0.1183  1.0087 -0.0883
    8MOL0     N  996   8.418   8.709   1.747 -0.0766 -0.5647  0.9110
    8MOL0     C  997   8.475   9.578   1.627 -0.9369  0.1560 -0.0773
    8MOL0     C  998   8.422   9.712   1.631  0.6959  0.3453  0.8656
    8MOL0     C  999   8.327  10.094   1.851 -0.2035  0.1274 -0.1329
    8MOL0     C 1000   8.349  10.197   1.752  1.0728 -0.3600 -0.1578
    8MOL0     C 1001   8.336  10.326   1.767  0.6046 -0.2510 -0.3279
    8MOL0     C 1002   8.292  10.372   1.893 -0.4998  0.0949 -0.0872
    8MOL0     O 1003   8.270  10.513   1.901 -0.8217  0.6422  0.6109
    8MOL0     C 1004   8.301  10.558   2.038 -0.2910 -0.0894  0.5361
    8MOL0     C 1005   8.325  10.714   2.031 -0.0510  0.4533 -0.3039
    8MOL0     C 1006   8.444  10.740   1.937  0.6091  0.2033 -0.8663
    8MOL0     C 1007   8.512  10.872   1.931 -0.1490 -0.3987 -0.2886
    8MOL0     C 1008   8.412  10.974   1.921 -0.2849 -0.5136  0.1874
    8MOL0     C 1009   8.326  11.060   1.909 -0.3829 -0.6207 -0.3277
    8MOL0     C 1010   8.262  10.281   2.000 -1.3462  1.0387 -0.2458
    8MOL0     C 1011   8.276  10.135   1.969 -0.3072 -0.4623 -1.2071
    8MOL0     C 1012   8.230  10.039   2.089  0.2522  0.1231  0.6064
    8MOL0     H 1013   8.698   9.880   1.757 -0.0986  0.5727 -0.0906
    8MOL0     H 1014   8.804   9.657   1.691  0.7541  2.7268 -4.2937
    8MOL0     H 1015   8.558   9.299   1.585  0.1630 -0.3502 -0.6603
    8MOL0     H 1016   8.552   9.408   1.445 -0.1798  0.4884  0.3863
    8MOL0     H 1017   8.809   9.324   1.435 -0.3395 -0.1841  2.6672
    8MOL0     H 1018   8.676   9.216   1.356 -1.9211  0.1641  0.8020
    8MOL0     H 1019   8.666   9.110   1.595  0.5422  0.2351  0.8655
    8MOL0     H 1020   8.820   9.186   1.615  0.5206 -3.3152  0.3713
    8MOL0     H 1021   8.906   9.081   1.412 -1.3579 -0.0764 -1.6770
    8MOL0     H 1022   8.893   8.975   1.535  4.1748  1.2737 -2.1078
    8MOL0     H 1023   8.625   8.971   1.417 -0.0505 -0.3875 -1.3353
    8MOL0     H 1024   8.722   8.980   1.275 -0.4298  0.7573 -1.1463
    8MOL0     H 1025   8.700   8.738   1.329 -0.5471  0.8555 -1.2287
    8MOL0     H 1026   8.862   8.780   1.393 -0.9951 -1.1216 -1.6899
    8MOL0     H 1027   8.693   8.827   1.609 -0.4735 -0.6069  0.5533
    8MOL0     H 1028   8.749   8.664   1.570  1.5249  1.5369  1.0565
    8MOL0     H 1029   8.504   8.799   1.491  2.6480  2.7824  4.6445
    8MOL0     H 1030   8.534   8.617   1.448 -1.5206  1.1254 -0.7903
    8MOL0     H 1031   8.526   8.434   1.603 -0.6786 -2.8084  2.4053
    8MOL0     H 1032   8.398   8.400   1.978  0.2760 -0.8199  0.0055
    8MOL0     H 1033   8.381   8.299   1.830 -0.0568 -0.4739 -0.1853
    8MOL0     H 1034   8.635   8.317   1.790  2.4472  1.6183  0.9344
    8MOL0     H 1035   8.645   8.433   1.923  0.5159 -0.2461 -1.6450
    8MOL0     H 1036   8.565   8.154   1.972 -1.8976  0.0534  2.1682
    8MOL0     H 1037   8.555   8.287   2.084 -2.5402  3.2804 -3.1645
    8MOL0     H 1038   8.757   8.136   2.101 -0.0271 -0.4622  0.4360
    8MOL0     H 1039   8.791   8.311   2.090 -0.6444  1.2190 -2.3266
    8MOL0     H 1040   8.960   8.181   1.701 -0.0829  0.5658  0.0378
    8MOL0     H 1041   9.190   8.244   1.651 -0.2828 -1.0653 -0.1773
    8MOL0     H 1042   9.546   8.510   1.550  0.0002  0.4368  0.7803
    8MOL0     H 1043   9.769   8.519   1.502 -1.4452  1.4976  1.5248
    8MOL0     H 1044  10.037   8.440   1.406 -0.9839  0.3572  0.7075
    8MOL0     H 1045  10.019   8.512   1.559  2.1010  0.0316  0.2788
    8MOL0     H 1046  10.240   8.485   1.544 -1.8993  0.5565 -3.1359
    8MOL0     H 1047  10.187   8.359   1.663  1.8338 -0.5141 -0.7854
    8MOL0     H 1048  10.186   8.189   1.456 -0.5919 -0.5556 -1.9197
    8MOL0     H 1049  10.284   8.313   1.386  1.0704  2.2042  1.0755
    8MOL0     H 1050  10.400   8.133   1.511  1.3166  0.6619  0.5545
    8MOL0     H 1051  10.352   8.208   1.669 -0.1568  1.1757  0.0175
    8MOL0     H 1052  10.547   8.290   1.643 -0.5858  2.0867  1.4722
    8MOL0     H 1053  10.461   8.430   1.605  1.3945  0.5042 -1.2453
    8MOL0     H 1054  10.532   8.433   1.374  1.5381  1.4643  1.5187
    8MOL0     H 1055  10.660   8.365   1.470 -0.3579  1.9626  0.3651
    8MOL0     H 1056  10.491   8.199   1.279 -2.0164 -0.6469  2.3368
    8MOL0     H 1057  10.620   8.145   1.395  2.4118  1.0776 -1.2681
    8MOL0     H 1058  10.658   8.295   1.145 -3.1998 -2.0394  0.5790
    8MOL0     H 1059  10.760   8.311   1.291  0.5398  0.1725  0.6725
    8MOL0     H 1060   9.829   8.131   1.697 -1.4694  0.2941  1.8506
    8MOL0     H 1061   9.595   8.138   1.769  3.0057 -3.0458 -1.5952
    8MOL0     H 1062   9.238   8.343   2.070  2.6514 -3.5030 -1.1807
    8MOL0     H 1063   9.007   8.297   2.113 -1.2149  0.7073 -0.3830
    8MOL0     H 1064   8.408   9.495   1.607  0.9685 -1.1919 -1.2344
    8MOL0     H 1065   8.319   9.728   1.604  0.1258 -2.7828  0.7787
    8MOL0     H 1066   8.372  10.165   1.651  2.2695 -1.3565  0.4043
    8MOL0     H 1067   8.356  10.393   1.684 -0.7632 -0.7698 -1.1142
    8MOL0     H 1068   8.395  10.509   2.067  0.9350  1.6425 -0.3472
    8MOL0     H 1069   8.220  10.541   2.109  0.3040 -2.0854  0.7936
    8MOL0     H 1070   8.353  10.742   2.133  0.4894  2.1805 -0.8954
    8MOL0     H 1071   8.228  10.754   1.998  1.1714  1.3048 -3.1101
    8MOL0     H 1072   8.411  10.727   1.833  1.0952 -0.6210 -0.9204
    8MOL0     H 1073   8.522  10.669   1.964 -0.3267 -0.5623 -0.1109
    8MOL0     H 1074   8.573  10.895   2.019 -2.2550  1.0995  0.8642
    8MOL0     H 1075   8.573  10.872   1.840  0.0617  0.2684 -0.1508
    8MOL0     H 1076   8.243  11.126   1.897 -0.4141 -0.9177 -1.9653
    8MOL0     H 1077   8.219  10.302   2.098  2.0816  2.2884  1.1340
    8MOL0     H 1078   8.323   9.999   2.131  1.9032  4.0986  1.1755
    8MOL0     H 1079   8.173  10.089   2.168  2.0032  0.6514  1.5921
    8MOL0     H 1080   8.176   9.951   2.054 -0.2563 -0.5788  2.9683
    9MOL0     O 1081   8.140   9.945  11.393  0.2587 -1.1313 -0.0713
    9MOL0     C 1082   8.193  10.011  11.301 -1.2043 -0.6524 -0.6603
    9MOL0     O 1083   8.173  10.148  11.274 -0.4433  0.7165  0.7438
    9MOL0     C 1084   8.104  10.219  11.365  0.3658 -0.2120  0.1676
    9MOL0     C 1085   8.005  10.307  11.321  1.0308 -0.3035  0.3015
    9MOL0     C 1086   7.943  10.396  11.403  0.1709 -0.2978  0.1623
    9MOL0     C 1087   7.974  10.405  11.538 -0.4932 -0.1558  0.2392
    9MOL0     O 1088   7.909  10.493  11.621 -0.5516  0.5582  0.0495
    9MOL0     C 1089   7.962  10.513  11.751 -0.2774 -0.2158  0.4491
    9MOL0     C 1090   7.876  10.617  11.815 -0.9006  0.3782 -0.0522
    9MOL0     C 1091   7.937  10.630  11.957 -0.0135  1.1851  0.1589
    9MOL0     C 1092   7.877  10.735  12.049  0.0753  0.2089 -0.0078
    9MOL0     C 1093   7.970  10.767  12.168 -0.0257  0.3968 -0.3584
    9MOL0     C 1094   7.926  10.903  12.236  0.2850  0.0080  0.8735
    9MOL0     C 1095   8.026  10.951  12.341  0.0243 -0.4758 -1.0419
    9MOL0     C 1096   7.963  11.055  12.432 -0.4095 -0.7244 -0.8643
    9MOL0     N 1097   8.059  11.092  12.542  0.1606  1.0808  0.0887
    9MOL0     C 1098   8.172  11.158  12.522 -0.5929 -0.1529 -0.3684
    9MOL0     C 1099   8.213  11.198  12.647 -0.2114  1.0960  0.0089
    9MOL0     C 1100   8.339  11.270  12.681  0.9542 -0.9078 -0.4897
    9MOL0     C 1101   8.456  11.217  12.609  1.0253  0.6426  0.2519
    9MOL0     C 1102   8.584  11.289  12.664  0.7934  1.2285 -1.0076
    9MOL0     C 1103   8.721  11.244  12.619  0.5101  0.3572  0.3407
    9MOL0     O 1104   8.716  11.274  12.482  0.4747  0.0999  0.5754
    9MOL0     C 1105   8.809  11.205  12.407  0.1795 -0.1439  0.1641
    9MOL0     C 1106   8.927  11.141  12.454  0.4190 -0.0221 -0.4132
    9MOL0     C 1107   9.009  11.074  12.370  0.0328  0.3978 -0.5215
    9MOL0     C 1108   8.982  11.077  12.232 -1.2225  0.4747 -0.2261
    9MOL0     C 1109   9.065  11.007  12.134 -0.6533 -0.4978  0.0516
    9MOL0     O 1110   9.168  10.936  12.174  0.5427 -0.3860 -0.3715
    9MOL0     C 1111   9.246  10.867  12.087  0.4349  0.1742 -0.2412
    9MOL0     C 1112   9.217  10.739  12.040 -0.3103  0.5807 -0.0540
    9MOL0     C 1113   9.294  10.683  11.940 -0.0419 -0.7334 -0.8108
    9MOL0     C 1114   9.406  10.751  11.893  0.5383 -0.0743  0.1001
    9MOL0     O 1115   9.490  10.697  11.800 -0.6516  0.1122  0.1362
    9MOL0     C 1116   9.444  10.616  11.690  0.1792 -0.4057  0.6463
    9MOL0     C 1117   9.550  10.592  11.585 -0.5706 -0.2417  0.3830
    9MOL0     C 1118   9.501  10.472  11.484  0.6078  0.0251 -0.3597
    9MOL0     C 1119   9.609  10.451  11.371  0.1758  0.0411  0.0295
    9MOL0     C 1120   9.569  10.337  11.267 -0.2081  0.1871  0.1563
    9MOL0     C 1121   9.675  10.328  11.151  0.3098  0.1801 -0.4816
    9MOL0     C 1122   9.691  10.453  11.066 -0.1180  1.0056  0.0133
    9MOL0     C 1123   9.805  10.450  10.959 -0.3606  0.4115 -0.1730
    9MOL0    Cl 1124   9.967  10.408  11.028  0.5196 -0.1990 -0.0801
    9MOL0     C 1125   9.447  10.873  11.954  0.8295  0.2199 -0.3224
    9MOL0     C 1126   9.365  10.934  12.043  0.2800  0.2931 -1.0717
    9MOL0     O 1127   9.052  11.038  12.021  0.4317 -0.2221  0.2246
    9MOL0     C 1128   8.866  11.142  12.185  0.0198  0.2421  0.6553
    9MOL0     C 1129   8.783  11.215  12.273 -0.7376  0.1657  0.1549
    9MOL0     N 1130   8.119  11.157  12.738 -0.6625 -0.0535 -0.5466
    9MOL0     N 1131   8.030  11.092  12.676  0.9017 -0.2805 -0.0614
    9MOL0     C 1132   8.071  10.316  11.591 -0.2207 -1.2778  0.0285
    9MOL0     C 1133   8.134  10.227  11.502 -1.1609 -0.0619  1.2183
    9MOL0     C 1134   8.255   9.923  11.189  0.1382  0.0186  0.3494
    9MOL0     C 1135   8.223   9.940  11.056 -0.4396  0.7171 -0.1255
    9MOL0     C 1136   8.281   9.856  10.958  0.6214  0.4486  0.0259
    9MOL0     C 1137   8.376   9.750  10.988 -0.4974 -0.7475  0.0878
    9MOL0     O 1138   8.416   9.677  10.880 -0.0963  0.7285 -0.9757
    9MOL0     C 1139   8.515   9.571  10.909  0.6595  0.0998 -0.6228
    9MOL0     C 1140   8.551   9.492  10.784  0.4350 -0.4287  0.0956
    9MOL0     C 1141   8.668   9.391  10.823  0.1165 -0.2951  0.0917
    9MOL0     C 1142   8.703   9.331  10.687 -0.0139 -0.1335 -0.1257
    9MOL0     C 1143   8.783   9.211  10.698 -0.2061  0.3004 -0.0689
    9MOL0     C 1144   8.873   9.122  10.712  0.2744  0.3461  0.4637
    9MOL0     C 1145   8.402   9.736  11.120 -0.4940 -0.0957  0.1212
    9MOL0     C 1146   8.350   9.818  11.220  0.3965  0.3865  0.4955
    9MOL0     C 1147   8.406   9.801  11.359 -0.2001  0.3923  0.1409
    9MOL0     H 1148   7.973  10.312  11.218  1.2854 -0.0131  0.2386
    9MOL0     H 1149   7.863  10.452  11.357  1.3132 -0.1438 -1.7339
    9MOL0     H 1150   7.968  10.419  11.806  2.5759  0.2291  1.0631
    9MOL0     H 1151   8.060  10.561  11.739 -1.9074  3.3180 -0.0929
    9MOL0     H 1152   7.770  10.589  11.821 -0.8779 -0.1412 -1.7575
    9MOL0     H 1153   7.870  10.707  11.753 -2.0854 -0.3669 -1.0802
    9MOL0     H 1154   8.043  10.654  11.943  1.2158 -2.9977  1.0130
    9MOL0     H 1155   7.926  10.530  12.000  0.0804  0.8736 -0.5400
    9MOL0     H 1156   7.853  10.825  11.991 -0.2363 -0.0283 -0.2488
    9MOL0     H 1157   7.777  10.704  12.082  0.2657 -0.8125 -0.3433
    9MOL0     H 1158   7.948  10.695  12.248 -2.8011  3.3047  1.7773
    9MOL0     H 1159   8.071  10.786  12.132  0.3012  0.1308  0.3914
    9MOL0     H 1160   7.904  10.982  12.163  0.8929  0.4155  1.1204
    9MOL0     H 1161   7.834  10.877  12.289  1.9083 -1.0080  3.3567
    9MOL0     H 1162   8.115  10.998  12.297  0.8813 -1.7589 -0.7674
    9MOL0     H 1163   8.061  10.868  12.403 -1.2970  0.0155  0.4090
    9MOL0     H 1164   7.929  11.148  12.388  2.9811  0.9049 -0.3624
    9MOL0     H 1165   7.889  10.997  12.488  0.1829 -0.6521  0.0117
    9MOL0     H 1166   8.233  11.178  12.435 -0.6773 -0.8169 -0.5894
    9MOL0     H 1167   8.324  11.374  12.650  0.7677 -1.3072 -1.8421
    9MOL0     H 1168   8.350  11.269  12.789  2.0748 -1.4713 -0.5976
    9MOL0     H 1169   8.463  11.112  12.640  0.6683  0.7240  0.6232
    9MOL0     H 1170   8.450  11.227  12.501  2.2578  0.9909  0.2039
    9MOL0     H 1171   8.578  11.263  12.771  3.1082 -1.0224 -1.2973
    9MOL0     H 1172   8.580  11.397  12.649 -1.2222  1.2050 -0.8476
    9MOL0     H 1173   8.735  11.135  12.625  4.0680  0.6946  0.3274
    9MOL0     H 1174   8.802  11.293  12.673  1.2355 -0.1622 -0.2600
    9MOL0     H 1175   8.962  11.146  12.556  3.4393  0.0088 -1.3718
    9MOL0     H 1176   9.092  11.027  12.424 -0.8496 -0.6329 -0.0257
    9MOL0     H 1177   9.136  10.688  12.092  0.5042  1.2266  1.9388
    9MOL0     H 1178   9.261  10.589  11.897 -1.0854 -0.4995 -0.5737
    9MOL0     H 1179   9.399  10.522  11.723 -2.7494  0.7075  0.1887
    9MOL0     H 1180   9.362  10.672  11.643 -1.0980 -1.7271  1.2056
    9MOL0     H 1181   9.586  10.676  11.524  1.6870 -0.9862  0.6038
    9MOL0     H 1182   9.633  10.562  11.649 -0.5655 -4.4234 -1.2925
    9MOL0     H 1183   9.505  10.378  11.540  0.0233  0.0098 -0.3360
    9MOL0     H 1184   9.400  10.504  11.457  0.3021  2.6483  3.1045
    9MOL0     H 1185   9.712  10.441  11.404  1.2970  1.0787 -2.8274
    9MOL0     H 1186   9.620  10.547  11.319 -0.8283 -1.8091 -4.0375
    9MOL0     H 1187   9.481  10.380  11.218 -1.1019 -1.1477  0.5372
    9MOL0     H 1188   9.535  10.241  11.308 -1.9124  0.8913  0.4584
    9MOL0     H 1189   9.763  10.292  11.204  0.2681  0.7918  0.0196
    9MOL0     H 1190   9.649  10.254  11.075  2.3483  0.5529 -1.6157
    9MOL0     H 1191   9.710  10.544  11.124  1.6033  0.4887  0.3388
    9MOL0     H 1192   9.596  10.463  11.013  0.1666  0.0622 -0.7132
    9MOL0     H 1193   9.766  10.378  10.886 -3.6319 -0.6576  2.3435
    9MOL0     H 1194   9.823  10.542  10.903 -0.1882 -0.0094 -0.8214
    9MOL0     H 1195   9.547  10.910  11.936  1.9678 -1.2073  2.4384
    9MOL0     H 1196   9.396  11.028  12.086  4.9539 -1.9183  1.1229
    9MOL0     H 1197   8.838  11.139  12.080 -0.5806 -0.1029  0.8167
    9MOL0     H 1198   8.708  11.279  12.228 -1.3896 -2.3421 -2.6590
    9MOL0     H 1199   8.105  10.320  11.694 -1.5514 -2.0603  0.5132
    9MOL0     H 1200   8.217  10.169  11.541  0.2512  0.8460 -0.3277
    9MOL0     H 1201   8.156  10.018  11.019 -1.0404 -0.2282 -1.0850
    9MOL0     H 1202   8.236   9.847  10.860 -1.3667  0.3394  0.8949
    9MOL0     H 1203   8.469   9.501  10.979 -1.4446  0.6585 -1.3705
    9MOL0     H 1204   8.602   9.621  10.954  0.5837  2.5912 -3.0124
    9MOL0     H 1205   8.585   9.564  10.709  1.0003  1.0310  1.6646
    9MOL0     H 1206   8.467   9.439  10.739 -0.0201  0.4548 -0.1098
    9MOL0     H 1207   8.626   9.327  10.901 -0.4292 -0.3081 -0.2111
    9MOL0     H 1208   8.744   9.445  10.880  1.5092 -3.2383  1.1788
    9MOL0     H 1209   8.616   9.302  10.629  0.0443 -4.0003  1.4135
    9MOL0     H 1210   8.752   9.415  10.637 -2.0749 -1.1814 -4.3571
    9MOL0     H 1211   8.938   9.037  10.710 -1.4144 -1.0697  1.9771
    9MOL0     H 1212   8.478   9.665  11.152 -0.3598 -0.2484 -0.5136
    9MOL0     H 1213   8.514   9.785  11.347  0.0499 -1.2156  3.2658
    9MOL0     H 1214   8.405   9.890  11.422  2.6640 -1.1986  2.7552
    9MOL0     H 1215   8.365   9.718  11.418  1.1781  0.0640  0.7051
   10MOL0     O 1216   3.578   9.067   3.355  0.0590 -0.3283 -0.2250
   10MOL0     C 1217   3.508   9.000   3.283  0.1753  0.2684  0.0308
   10MOL0     O 1218   3.379   9.024   3.240 -0.1069  0.4507 -0.2139
   10MOL0     C 1219   3.359   9.156   3.214 -0.7819  0.3325 -1.1961
   10MOL0     C 1220   3.257   9.215   3.273 -0.0418  0.4033  0.2271
   10MOL0     C 1221   3.207   9.343   3.239 -0.7768 -0.1354 -0.4244
   10MOL0     C 1222   3.285   9.416   3.144  0.3548 -0.8244 -0.0128
   10MOL0     O 1223   3.247   9.537   3.081  0.0045 -0.2670 -0.5220
   10MOL0     C 1224   3.106   9.570   3.082  0.0415  0.1513 -0.3858
   10MOL0     C 1225   3.060   9.659   2.971  0.1367  0.5145  0.0141
   10MOL0     C 1226   3.137   9.794   2.985  0.0838  0.2148 -0.0535
   10MOL0     C 1227   3.151   9.864   2.850 -0.1126  0.2869 -0.1017
   10MOL0     C 1228   3.206  10.003   2.862 -0.0931 -0.4282 -0.9092
   10MOL0     C 1229   3.217  10.079   2.725 -0.8252 -0.1303 -0.0186
   10MOL0     C 1230   3.310  10.199   2.733  0.4508 -0.2441  0.1741
   10MOL0     C 1231   3.293  10.278   2.598 -0.1189 -0.2316 -0.1306
   10MOL0     N 1232   3.361  10.418   2.594  0.3662 -0.6102  0.8592
   10MOL0     C 1233   3.351  10.500   2.483 -0.4678 -0.2040  0.0178
   10MOL0     C 1234   3.391  10.623   2.524  0.5979  0.0199 -0.9289
   10MOL0     C 1235   3.430  10.744   2.443  0.0170 -1.5488  0.5194
   10MOL0     C 1236   3.516  10.710   2.321  0.7681  0.4852  1.1597
   10MOL0     C 1237   3.641  10.642   2.363 -0.1811 -0.5810 -0.9924
   10MOL0     C 1238   3.756  10.675   2.262  0.2665 -0.0644 -0.4184
   10MOL0     O 1239   3.881  10.613   2.311  0.6615  0.4521 -0.5686
   10MOL0     C 1240   3.997  10.655   2.253 -1.0750 -0.9999 -0.8549
   10MOL0     C 1241   4.016  10.741   2.140  0.9786  0.7822 -0.8324
   10MOL0     C 1242   4.133  10.760   2.080  0.0205  0.9931  0.3145
   10MOL0     C 1243   4.253  10.713   2.138  0.5111  0.1793  0.9010
   10MOL0     C 1244   4.378  10.754   2.080  0.2553  0.4173 -0.7205
   10MOL0     O 1245   4.487  10.723   2.157 -0.6170  0.2023  0.2080
   10MOL0     C 1246   4.607  10.739   2.093  0.0771  0.2141  0.3291
   10MOL0     C 1247   4.636  10.688   1.965 -0.4176 -0.4637  0.7785
   10MOL0     C 1248   4.757  10.715   1.904  0.1682 -0.9496 -0.7591
   10MOL0     C 1249   4.856  10.787   1.971 -0.4937 -0.3611  0.3930
   10MOL0     O 1250   4.965  10.800   1.887  0.2871  0.2325 -0.6786
   10MOL0     C 1251   5.055  10.909   1.916  1.3147  0.3887  0.8542
   10MOL0     C 1252   5.190  10.878   1.848 -0.2408  0.8186 -0.5189
   10MOL0     C 1253   5.304  10.981   1.893  0.8434 -0.1360  0.2951
   10MOL0     C 1254   5.437  10.933   1.837 -0.2278  0.3219 -0.1446
   10MOL0     C 1255   5.544  11.046   1.853  0.1605  0.7018  0.2859
   10MOL0     C 1256   5.679  10.999   1.794 -0.6922 -0.3906  0.6128
   10MOL0     C 1257   5.756  10.880   1.855  0.0053 -0.3407  0.2656
   10MOL0     C 1258   5.729  10.761   1.759  0.2235  0.2120  0.1846
   10MOL0    Cl 1259   5.798  10.619   1.836 -0.2744 -0.1053  0.0074
   10MOL0     C 1260   4.833  10.835   2.102 -0.0456  0.1399 -0.4638
   10MOL0     C 1261   4.712  10.805   2.163 -0.4457 -0.5351  0.7069
   10MOL0     O 1262   4.385  10.792   1.961  0.8070  0.5423 -0.8823
   10MOL0     C 1263   4.242  10.631   2.246 -0.4967  0.4876  0.2756
   10MOL0     C 1264   4.120  10.604   2.302 -0.5618  0.4423  0.0968
   10MOL0     N 1265   3.417  10.616   2.661  0.3959  0.3158 -1.0892
   10MOL0     N 1266   3.391  10.498   2.700  0.8014  0.0607 -0.4615
   10MOL0     C 1267   3.404   9.362   3.095  1.3093 -0.2278  0.3190
   10MOL0     C 1268   3.437   9.228   3.128 -0.3779  0.0357 -0.1559
   10MOL0     C 1269   3.567   8.870   3.261  0.6409  0.2927  0.6302
   10MOL0     C 1270   3.559   8.771   3.363 -0.5638 -0.8292 -0.1092
   10MOL0     C 1271   3.605   8.638   3.331  0.4292  0.6248 -0.1375
   10MOL0     C 1272   3.672   8.607   3.214  0.6403  0.6895  0.3238
   10MOL0     O 1273   3.724   8.483   3.176 -0.0830 -0.2905  0.0359
   10MOL0     C 1274   3.714   8.372   3.271 -0.1700  0.0165  0.2028
   10MOL0     C 1275   3.576   8.311   3.271  1.3197  0.2401 -0.4926
   10MOL0     C 1276   3.563   8.187   3.353 -0.8269 -0.7371  0.4844
   10MOL0     C 1277   3.608   8.196   3.498  0.7356 -0.8721 -0.4348
   10MOL0     C 1278   3.743   8.185   3.530 -0.6491 -0.4610  0.0402
   10MOL0     C 1279   3.861   8.168   3.557 -0.1952 -0.9229 -0.0086
   10MOL0     C 1280   3.694   8.714   3.124 -0.0581  0.1096  1.0409
   10MOL0     C 1281   3.643   8.842   3.143  0.2077 -0.0120 -0.4277
   10MOL0     C 1282   3.660   8.949   3.036 -0.7472  0.5711  0.4177
   10MOL0     H 1283   3.195   9.156   3.340 -0.3927  0.1479 -0.3179
   10MOL0     H 1284   3.119   9.383   3.288 -0.7264  1.5875 -1.6391
   10MOL0     H 1285   3.055   9.473   3.083  1.0620 -0.3990 -0.7392
   10MOL0     H 1286   3.075   9.620   3.174 -0.8199 -0.2874 -0.4281
   10MOL0     H 1287   2.952   9.678   2.972 -0.0478  0.2675 -3.2727
   10MOL0     H 1288   3.065   9.623   2.868  2.0364 -0.4101  0.3972
   10MOL0     H 1289   3.238   9.787   3.028 -1.8100 -0.2877  4.9710
   10MOL0     H 1290   3.075   9.865   3.041 -0.3044 -0.6882  0.6949
   10MOL0     H 1291   3.217   9.800   2.791  1.3815 -0.5273  2.2990
   10MOL0     H 1292   3.059   9.865   2.791 -0.7217  1.6336  0.8190
   10MOL0     H 1293   3.129  10.047   2.925 -1.7827 -1.3808 -2.2211
   10MOL0     H 1294   3.300  10.000   2.918 -0.5284  1.0165 -0.0377
   10MOL0     H 1295   3.251  10.017   2.642  0.4619  1.6765 -0.9123
   10MOL0     H 1296   3.116  10.112   2.698 -0.2666  2.1706  0.4557
   10MOL0     H 1297   3.415  10.173   2.747  0.6151  1.1513  2.0083
   10MOL0     H 1298   3.268  10.266   2.810 -1.6976  0.4175 -1.4770
   10MOL0     H 1299   3.326  10.225   2.508  1.0304  1.6842 -0.9088
   10MOL0     H 1300   3.187  10.299   2.579  0.0878 -1.1972 -2.7666
   10MOL0     H 1301   3.309  10.477   2.386 -1.2626 -1.1456  0.5651
   10MOL0     H 1302   3.342  10.794   2.401  2.1548  0.2878 -2.0962
   10MOL0     H 1303   3.483  10.818   2.503  0.9003 -1.4311 -0.3863
   10MOL0     H 1304   3.468  10.641   2.251  2.6566 -0.2007  0.4844
   10MOL0     H 1305   3.539  10.802   2.267 -0.7071  0.7996  1.0398
   10MOL0     H 1306   3.632  10.533   2.370  0.2530 -0.5360  0.8042
   10MOL0     H 1307   3.670  10.662   2.466  1.3995  0.6831 -1.6393
   10MOL0     H 1308   3.768  10.784   2.268  1.1822 -0.1787  0.0648
   10MOL0     H 1309   3.722  10.634   2.166 -0.5194 -0.7930  0.1605
   10MOL0     H 1310   3.928  10.779   2.089 -0.5418  1.8042  2.3021
   10MOL0     H 1311   4.135  10.819   1.989  1.1947  1.9820  0.9567
   10MOL0     H 1312   4.568  10.625   1.909 -1.2969  0.5765  0.6345
   10MOL0     H 1313   4.790  10.673   1.810  2.4529 -0.6404 -0.1602
   10MOL0     H 1314   5.011  11.004   1.881  1.0728  0.0758  0.2992
   10MOL0     H 1315   5.079  10.927   2.021  2.6030  0.1006  0.6179
   10MOL0     H 1316   5.214  10.772   1.858  0.3118  1.0154  0.2707
   10MOL0     H 1317   5.185  10.898   1.740  3.8402 -1.5020 -1.3339
   10MOL0     H 1318   5.301  11.077   1.841  1.2953 -0.3240 -0.0818
   10MOL0     H 1319   5.297  10.977   2.002  0.0075 -1.0058  0.2175
   10MOL0     H 1320   5.411  10.907   1.734 -0.8422 -0.8567  0.2914
   10MOL0     H 1321   5.476  10.840   1.880  0.8891 -0.6345 -2.9763
   10MOL0     H 1322   5.552  11.068   1.960 -0.2564 -2.3241  1.0175
   10MOL0     H 1323   5.514  11.135   1.796 -2.3405 -0.9951 -1.2576
   10MOL0     H 1324   5.675  10.990   1.685 -0.5850  0.6344  0.5148
   10MOL0     H 1325   5.735  11.088   1.824  0.3285 -1.4218  1.9128
   10MOL0     H 1326   5.709  10.861   1.951 -1.2053  1.5651  0.1038
   10MOL0     H 1327   5.861  10.910   1.853 -0.1369  0.2381 -1.9408
   10MOL0     H 1328   5.621  10.744   1.764  0.2880  0.0070  1.0882
   10MOL0     H 1329   5.763  10.778   1.656  2.1303 -4.6031 -0.2980
   10MOL0     H 1330   4.920  10.879   2.150 -0.1078 -1.2467  1.0303
   10MOL0     H 1331   4.701  10.839   2.266  0.9937  0.5577  0.5313
   10MOL0     H 1332   4.323  10.574   2.290 -0.6258 -1.6548 -2.0674
   10MOL0     H 1333   4.120  10.541   2.390 -1.5838 -1.9294 -1.5259
   10MOL0     H 1334   3.470   9.418   3.029 -0.0815 -0.2855 -1.2026
   10MOL0     H 1335   3.520   9.193   3.068  0.4503  0.2842  0.8114
   10MOL0     H 1336   3.490   8.795   3.443 -0.4162  1.3151 -0.5786
   10MOL0     H 1337   3.595   8.551   3.395  0.2072 -0.3039 -1.3760
   10MOL0     H 1338   3.742   8.402   3.373  2.9373  1.1572 -0.8776
   10MOL0     H 1339   3.791   8.304   3.234  0.6612  0.2250  1.4825
   10MOL0     H 1340   3.549   8.284   3.169 -2.6065  0.8812  0.2263
   10MOL0     H 1341   3.503   8.392   3.284 -0.7137 -1.6276  0.2764
   10MOL0     H 1342   3.634   8.111   3.320  2.1895  0.4844  3.5492
   10MOL0     H 1343   3.464   8.141   3.342 -0.6737 -0.4516 -4.2769
   10MOL0     H 1344   3.576   8.291   3.542  3.2695 -0.1554  0.0196
   10MOL0     H 1345   3.558   8.118   3.556 -0.7961  0.5085  0.1688
   10MOL0     H 1346   3.961   8.155   3.594 -0.3003  0.6557  0.8905
   10MOL0     H 1347   3.743   8.696   3.029 -0.1688 -1.3700  1.2393
   10MOL0     H 1348   3.565   8.950   2.982 -0.6406 -2.5834 -0.0022
   10MOL0     H 1349   3.674   9.052   3.070 -0.1537  0.4814  0.4506
   10MOL0     H 1350   3.751   8.923   2.980 -1.1320  2.5227 -1.2383
   11MOL0     O 1351   1.412   6.005   4.876  0.3851  0.2035  0.1272
   11MOL0     C 1352   1.396   5.950   4.764 -1.2092 -0.0122  0.3800
   11MOL0     O 1353   1.308   5.988   4.672 -0.0405  0.1001  0.5592
   11MOL0     C 1354   1.248   6.121   4.683  0.0827  0.7962 -0.0986
   11MOL0     C 1355   1.146   6.158   4.775 -1.0752 -0.0770 -0.0800
   11MOL0     C 1356   1.105   6.298   4.784 -0.3852  0.1980 -0.0776
   11MOL0     C 1357   1.159   6.397   4.702 -0.4602  0.2178  0.1293
   11MOL0     O 1358   1.120   6.532   4.723 -0.4076  1.0164 -0.4476
   11MOL0     C 1359   1.041   6.565   4.840 -1.2326 -0.0165 -0.8239
   11MOL0     C 1360   1.063   6.719   4.856 -0.6015  0.5324  0.2697
   11MOL0     C 1361   1.055   6.760   5.010 -0.2226 -0.2545 -0.7770
   11MOL0     C 1362   1.011   6.907   5.040  0.1573  0.3533 -0.2373
   11MOL0     C 1363   1.003   6.927   5.186  0.1558  0.8446  0.2604
   11MOL0     C 1364   0.893   7.042   5.218 -0.2643 -0.2442 -0.4673
   11MOL0     C 1365   0.876   7.065   5.366 -0.4873  0.0757  0.4058
   11MOL0     C 1366   0.843   7.216   5.392  0.6300  0.4764 -0.6556
   11MOL0     N 1367   0.694   7.233   5.392 -0.9271 -0.1813 -0.1084
   11MOL0     C 1368   0.601   7.213   5.492  0.1588  0.1277  0.0429
   11MOL0     C 1369   0.483   7.209   5.424  1.0998 -0.2537  0.2987
   11MOL0     C 1370   0.345   7.190   5.478  0.7390  0.2337  0.2919
   11MOL0     C 1371   0.258   7.314   5.467  1.0124  0.6212  0.0800
   11MOL0     C 1372   0.120   7.295   5.525  0.4071 -0.1841 -0.2149
   11MOL0     C 1373   0.051   7.425   5.578 -0.3428 -0.2370 -0.3378
   11MOL0     O 1374  -0.064   7.388   5.652 -0.7489 -0.2051 -0.7032
   11MOL0     C 1375  -0.165   7.481   5.693 -0.6587  0.1842 -0.4511
   11MOL0     C 1376  -0.156   7.617   5.672 -0.5079  0.1662  0.6553
   11MOL0     C 1377  -0.270   7.698   5.699  0.6556 -0.7804 -0.0113
   11MOL0     C 1378  -0.396   7.646   5.723  0.1066 -0.4915 -0.1352
   11MOL0     C 1379  -0.511   7.735   5.740 -0.4930  1.4076 -0.3671
   11MOL0     O 1380  -0.504   7.856   5.663 -0.0192  0.9941 -1.1069
   11MOL0     C 1381  -0.607   7.943   5.679 -0.8346  0.8418  0.5364
   11MOL0     C 1382  -0.654   8.010   5.565  0.1000  0.1998 -0.4003
   11MOL0     C 1383  -0.748   8.118   5.576 -0.4077  0.0718 -1.1736
   11MOL0     C 1384  -0.782   8.168   5.698 -0.5150 -0.9059  0.2996
   11MOL0     O 1385  -0.843   8.287   5.731  0.1882  0.2242  0.0170
   11MOL0     C 1386  -0.887   8.370   5.627 -0.0082  0.6929 -0.3841
   11MOL0     C 1387  -1.017   8.303   5.575  0.1845  1.1460 -0.0956
   11MOL0     C 1388  -1.127   8.397   5.537 -0.8468  0.0980  0.7718
   11MOL0     C 1389  -1.232   8.336   5.446 -0.1116 -0.4199 -0.1024
   11MOL0     C 1390  -1.333   8.245   5.508 -0.7742 -0.0404  0.1301
   11MOL0     C 1391  -1.444   8.194   5.413  0.2370  0.8982 -0.6175
   11MOL0     C 1392  -1.545   8.291   5.344 -0.7704  0.2699 -0.4031
   11MOL0     C 1393  -1.675   8.223   5.270  0.1303 -0.2944 -0.2813
   11MOL0    Cl 1394  -1.715   8.342   5.154 -0.0433 -0.3619 -0.2588
   11MOL0     C 1395  -0.737   8.090   5.808  0.0542  0.7358 -0.6187
   11MOL0     C 1396  -0.643   7.994   5.803 -0.3816  0.2502  0.1033
   11MOL0     O 1397  -0.595   7.697   5.819  0.1685  0.2095 -0.0387
   11MOL0     C 1398  -0.398   7.509   5.760 -0.0559 -0.1223  0.5807
   11MOL0     C 1399  -0.281   7.424   5.738  0.4528  0.3771  0.3223
   11MOL0     N 1400   0.509   7.211   5.292 -0.4192  0.7814 -0.4864
   11MOL0     N 1401   0.635   7.220   5.274 -0.0653 -0.1549  0.2115
   11MOL0     C 1402   1.256   6.349   4.611  0.4541 -0.4742  0.1598
   11MOL0     C 1403   1.309   6.216   4.597  0.2321 -0.2822  0.0376
   11MOL0     C 1404   1.470   5.823   4.749  0.3586  0.2205 -0.0315
   11MOL0     C 1405   1.537   5.803   4.625 -0.1126 -0.1443  0.4743
   11MOL0     C 1406   1.610   5.681   4.616 -1.6171  0.5671 -0.1975
   11MOL0     C 1407   1.617   5.584   4.716 -0.3762 -0.2673  0.2284
   11MOL0     O 1408   1.669   5.461   4.683  0.3712 -0.2102  0.1336
   11MOL0     C 1409   1.726   5.375   4.779 -0.1009  0.6682  0.2539
   11MOL0     C 1410   1.640   5.262   4.827  0.4586 -0.4811  0.2062
   11MOL0     C 1411   1.579   5.175   4.704  0.0348  0.2739 -0.0224
   11MOL0     C 1412   1.503   5.053   4.756 -0.9283 -0.4105  0.6213
   11MOL0     C 1413   1.406   5.006   4.654 -1.6977  0.5413 -0.6186
   11MOL0     C 1414   1.349   4.937   4.575  1.0089 -0.1053 -0.4982
   11MOL0     C 1415   1.560   5.612   4.844 -0.5379 -0.2217 -0.6839
   11MOL0     C 1416   1.480   5.730   4.862 -0.3987  0.1523 -0.0973
   11MOL0     C 1417   1.422   5.761   4.998 -1.3180  0.3780 -0.1043
   11MOL0     H 1418   1.112   6.079   4.840 -0.5058 -1.6516 -1.6142
   11MOL0     H 1419   1.017   6.320   4.843 -1.5010 -0.7680 -1.2992
   11MOL0     H 1420   0.935   6.542   4.823 -1.9894  1.8566  0.8882
   11MOL0     H 1421   1.066   6.507   4.929 -1.9048  0.5659 -0.2409
   11MOL0     H 1422   0.981   6.764   4.800  0.9299 -0.5944 -3.1938
   11MOL0     H 1423   1.160   6.743   4.811 -0.7777  1.9497  0.6075
   11MOL0     H 1424   1.157   6.758   5.048 -0.8530  1.0031  1.1279
   11MOL0     H 1425   0.984   6.704   5.071  0.1986  2.0006  2.0266
   11MOL0     H 1426   1.079   6.979   4.994  1.6998 -0.9673 -0.1262
   11MOL0     H 1427   0.911   6.921   4.997  0.3367 -0.2272 -0.8723
   11MOL0     H 1428   0.978   6.841   5.248  2.3642 -0.7761 -0.9786
   11MOL0     H 1429   1.103   6.964   5.212  0.1903  2.3562 -1.7999
   11MOL0     H 1430   0.946   7.129   5.177 -0.0719 -0.6849 -1.1835
   11MOL0     H 1431   0.796   7.014   5.176 -1.9306  1.3851  2.0713
   11MOL0     H 1432   0.973   7.054   5.416 -0.6614  1.0590  0.9877
   11MOL0     H 1433   0.807   6.992   5.410 -2.2947  1.0599 -0.6692
   11MOL0     H 1434   0.884   7.242   5.490  0.3570  2.5011 -1.0255
   11MOL0     H 1435   0.901   7.273   5.319  1.7956 -0.2828 -0.3473
   11MOL0     H 1436   0.597   7.208   5.600 -0.3518  0.6433  0.0574
   11MOL0     H 1437   0.288   7.106   5.439  0.3267 -1.6478  4.4715
   11MOL0     H 1438   0.355   7.160   5.583 -0.4935  0.3781  0.4665
   11MOL0     H 1439   0.309   7.404   5.505  2.7940 -0.8159  1.2993
   11MOL0     H 1440   0.243   7.327   5.360 -0.1048 -2.5247 -0.2359
   11MOL0     H 1441   0.123   7.217   5.602  1.5981 -0.0541 -0.1020
   11MOL0     H 1442   0.051   7.253   5.452  1.8134  1.2921 -2.5295
   11MOL0     H 1443   0.022   7.497   5.501 -0.5506 -0.2791 -0.2983
   11MOL0     H 1444   0.115   7.474   5.652 -0.1036 -1.4083  0.2429
   11MOL0     H 1445  -0.062   7.658   5.638 -0.2060 -1.0112  0.0144
   11MOL0     H 1446  -0.241   7.799   5.669  1.2616 -0.3509  1.8846
   11MOL0     H 1447  -0.641   7.974   5.464  1.3998  1.4572 -0.7194
   11MOL0     H 1448  -0.782   8.159   5.481 -1.2555  0.5519 -0.6730
   11MOL0     H 1449  -0.922   8.468   5.661  1.3144  1.5419 -1.4080
   11MOL0     H 1450  -0.807   8.377   5.553  0.8360 -1.8724  0.1797
   11MOL0     H 1451  -0.978   8.238   5.497  0.4922  1.4724 -0.2117
   11MOL0     H 1452  -1.071   8.238   5.645  2.4634 -0.0915  0.6019
   11MOL0     H 1453  -1.174   8.443   5.624  0.2191  1.7877  0.5080
   11MOL0     H 1454  -1.072   8.477   5.488 -1.5142 -0.3396 -0.7612
   11MOL0     H 1455  -1.181   8.288   5.361 -0.8892 -0.9526 -0.2833
   11MOL0     H 1456  -1.296   8.415   5.406  0.5250  2.1191  3.4917
   11MOL0     H 1457  -1.378   8.287   5.598 -1.2734 -0.8580  0.2745
   11MOL0     H 1458  -1.283   8.160   5.556 -3.4867 -0.6233  2.1478
   11MOL0     H 1459  -1.392   8.133   5.338 -1.5477  0.0716 -1.2577
   11MOL0     H 1460  -1.504   8.126   5.475  0.7541  1.9461  1.1033
   11MOL0     H 1461  -1.481   8.341   5.271 -0.6863 -1.0367 -1.2673
   11MOL0     H 1462  -1.580   8.363   5.418 -0.7069  1.6020 -1.6178
   11MOL0     H 1463  -1.656   8.126   5.223  1.3085 -0.9236  1.3993
   11MOL0     H 1464  -1.748   8.197   5.347  0.8420 -2.9719 -0.4209
   11MOL0     H 1465  -0.761   8.100   5.914 -0.6979 -3.0728 -0.2836
   11MOL0     H 1466  -0.598   7.946   5.889 -0.7131  1.8512  1.2263
   11MOL0     H 1467  -0.488   7.455   5.788 -0.7056  0.1211 -0.9296
   11MOL0     H 1468  -0.288   7.316   5.731 -2.8922  0.5715 -3.9684
   11MOL0     H 1469   1.303   6.424   4.549  1.4106 -0.1666  1.2229
   11MOL0     H 1470   1.393   6.199   4.531  0.2841 -1.0604  0.3002
   11MOL0     H 1471   1.537   5.881   4.549  1.7376 -0.0871  0.4907
   11MOL0     H 1472   1.657   5.657   4.522 -0.4678 -2.3562  1.0211
   11MOL0     H 1473   1.773   5.421   4.866  0.2271 -1.7833  1.4744
   11MOL0     H 1474   1.807   5.322   4.729 -1.6007  1.3102 -3.1169
   11MOL0     H 1475   1.555   5.301   4.886  1.0795  3.3990 -1.1702
   11MOL0     H 1476   1.700   5.200   4.894  1.2186 -1.1576 -1.0676
   11MOL0     H 1477   1.658   5.139   4.636  1.8774  1.3024  1.4861
   11MOL0     H 1478   1.512   5.238   4.645 -0.8054 -1.0442 -0.5283
   11MOL0     H 1479   1.576   4.976   4.784  1.0922  1.9545  2.3292
   11MOL0     H 1480   1.440   5.087   4.839  1.6048 -1.5681  3.2066
   11MOL0     H 1481   1.296   4.876   4.505 -1.0490  0.3020  0.5981
   11MOL0     H 1482   1.566   5.547   4.931 -1.7977 -0.1300 -0.5049
   11MOL0     H 1483   1.503   5.808   5.055  1.8663 -1.8209 -2.4375
   11MOL0     H 1484   1.329   5.818   5.003 -1.5282  0.4068 -3.0617
   11MOL0     H 1485   1.402   5.665   5.047  0.0542 -0.0760 -0.3933
   12MOL0     O 1486   8.208   4.289   1.321  0.3018  0.3947 -0.7665
   12MOL0     C 1487   8.322   4.307   1.352 -0.7589 -0.4118  1.0936
   12MOL0     O 1488   8.378   4.433   1.366 -0.8223  0.3236 -0.4400
   12MOL0     C 1489   8.293   4.547   1.365 -0.0057  0.7091  0.1932
   12MOL0     C 1490   8.289   4.626   1.256 -0.4355 -0.2000 -0.0890
   12MOL0     C 1491   8.206   4.742   1.240 -0.1781 -0.2434 -0.2818
   12MOL0     C 1492   8.125   4.778   1.347 -0.9188  0.3158 -0.4926
   12MOL0     O 1493   8.035   4.873   1.333  0.8202 -0.3605 -0.4199
   12MOL0     C 1494   8.053   4.987   1.256 -0.6992 -0.5658 -0.6963
   12MOL0     C 1495   7.988   5.101   1.323  0.4191  0.4510 -0.0670
   12MOL0     C 1496   7.843   5.108   1.303  0.7746  0.1601  0.1119
   12MOL0     C 1497   7.778   5.222   1.365  0.1348 -0.4116  0.1582
   12MOL0     C 1498   7.628   5.203   1.374 -0.2077 -0.5960 -0.2932
   12MOL0     C 1499   7.553   5.327   1.425 -0.3114 -0.5440  0.6720
   12MOL0     C 1500   7.407   5.299   1.458 -0.0241  0.6472 -0.3800
   12MOL0     C 1501   7.328   5.420   1.514  0.2492 -1.0721  0.4545
   12MOL0     N 1502   7.208   5.374   1.583 -0.0726  0.3315  0.2383
   12MOL0     C 1503   7.092   5.324   1.526 -1.0865  0.3649  0.2330
   12MOL0     C 1504   7.014   5.281   1.630  0.8420 -0.8211 -0.2131
   12MOL0     C 1505   6.873   5.213   1.625  0.0786 -0.0424  0.4892
   12MOL0     C 1506   6.761   5.294   1.701  0.4953 -0.3014  0.5634
   12MOL0     C 1507   6.735   5.429   1.625  0.2917  0.1985  0.0438
   12MOL0     C 1508   6.628   5.507   1.701 -0.2530 -0.3838  0.3773
   12MOL0     O 1509   6.697   5.574   1.812  0.5465  0.1155 -0.2168
   12MOL0     C 1510   6.636   5.673   1.887 -1.1633  0.3007 -0.6602
   12MOL0     C 1511   6.511   5.719   1.863 -0.0563  0.6021  0.7628
   12MOL0     C 1512   6.450   5.801   1.946 -0.0363 -0.1680  0.0130
   12MOL0     C 1513   6.511   5.849   2.065 -0.5356  0.4486 -0.5904
   12MOL0     C 1514   6.444   5.944   2.160 -0.1511 -0.6471  0.2091
   12MOL0     O 1515   6.518   6.003   2.257  0.0791 -0.1068  0.5735
   12MOL0     C 1516   6.439   6.072   2.348  0.6651 -0.9673  0.3262
   12MOL0     C 1517   6.335   6.018   2.414  0.0708 -0.2145  0.2158
   12MOL0     C 1518   6.257   6.080   2.519  0.2478 -0.5765  0.4415
   12MOL0     C 1519   6.283   6.208   2.576 -0.8505 -0.2725  0.9826
   12MOL0     O 1520   6.205   6.264   2.681  0.5715  0.3855 -0.5133
   12MOL0     C 1521   6.220   6.403   2.686  0.3583 -0.0286  0.3228
   12MOL0     C 1522   6.134   6.460   2.804 -0.9712 -0.1911  1.0949
   12MOL0     C 1523   6.180   6.431   2.946  0.1056  0.1596 -0.5352
   12MOL0     C 1524   6.094   6.517   3.053 -0.6419  0.6100  0.9405
   12MOL0     C 1525   6.152   6.489   3.199 -0.0369  0.1318  0.4094
   12MOL0     C 1526   6.055   6.542   3.311 -0.8148  0.5189  0.6493
   12MOL0     C 1527   6.099   6.517   3.452 -0.0280 -0.5753  0.3922
   12MOL0     C 1528   6.010   6.576   3.553  0.5968  0.0449 -0.4946
   12MOL0    Cl 1529   6.027   6.747   3.596 -0.1835  0.3344  0.4362
   12MOL0     C 1530   6.387   6.274   2.494  0.8181  0.8000 -1.2117
   12MOL0     C 1531   6.464   6.207   2.393  0.2132 -0.2612  0.1767
   12MOL0     O 1532   6.326   5.976   2.137  0.7369  0.2029  0.2102
   12MOL0     C 1533   6.639   5.795   2.094  0.5380 -0.2015 -0.8502
   12MOL0     C 1534   6.707   5.704   2.007  0.8848  0.5075 -0.2161
   12MOL0     N 1535   7.090   5.306   1.745 -0.4424 -0.4764  0.3083
   12MOL0     N 1536   7.212   5.355   1.724  0.1640  0.2983 -0.0709
   12MOL0     C 1537   8.114   4.686   1.455 -0.2557 -0.0770 -0.1967
   12MOL0     C 1538   8.194   4.564   1.465  0.5576 -0.0670  0.6455
   12MOL0     C 1539   8.429   4.207   1.371  0.2818 -0.6020  0.0097
   12MOL0     C 1540   8.564   4.241   1.385 -0.4985 -0.2237  0.5195
   12MOL0     C 1541   8.666   4.143   1.406 -0.8697  0.2028 -0.3760
   12MOL0     C 1542   8.633   4.005   1.416 -0.3399 -0.6942 -0.6269
   12MOL0     O 1543   8.710   3.897   1.456  0.1021 -0.2919 -0.7049
   12MOL0     C 1544   8.841   3.925   1.496 -0.0623 -1.0162 -0.1846
   12MOL0     C 1545   8.896   3.796   1.560 -0.4867  0.2845  0.1493
   12MOL0     C 1546   8.819   3.768   1.695 -0.1861 -0.0237  0.0252
   12MOL0     C 1547   8.891   3.644   1.755  0.0738 -0.6393  0.6999
   12MOL0     C 1548   8.830   3.526   1.686  0.8131 -0.2160  0.0230
   12MOL0     C 1549   8.774   3.425   1.654 -0.0831  0.1668 -0.0520
   12MOL0     C 1550   8.501   3.971   1.404 -0.3107 -0.9256  0.8075
   12MOL0     C 1551   8.405   4.068   1.367 -0.5540 -0.5768  0.0914
   12MOL0     C 1552   8.263   4.008   1.355 -0.5485  0.1516  0.3511
   12MOL0     H 1553   8.370   4.608   1.186 -0.3707  1.5375 -0.5231
   12MOL0     H 1554   8.210   4.799   1.148  0.9459 -3.4115 -2.3842
   12MOL0     H 1555   8.158   5.018   1.252 -1.1584  0.9673 -1.5724
   12MOL0     H 1556   8.013   4.976   1.155 -2.1472 -0.3166 -0.1704
   12MOL0     H 1557   8.034   5.198   1.300  2.5120 -0.5110 -0.1835
   12MOL0     H 1558   7.993   5.093   1.432  0.1348  2.2044  0.1074
   12MOL0     H 1559   7.798   5.018   1.344  2.4773 -1.3843 -1.2452
   12MOL0     H 1560   7.827   5.112   1.194 -0.7531  0.2217  0.3246
   12MOL0     H 1561   7.814   5.255   1.462 -5.3588 -1.2864  2.8750
   12MOL0     H 1562   7.792   5.299   1.289 -2.0838 -0.1812 -0.0998
   12MOL0     H 1563   7.600   5.185   1.270 -1.6191  1.4238 -0.3173
   12MOL0     H 1564   7.595   5.121   1.439 -2.0955 -1.2418 -1.9846
   12MOL0     H 1565   7.608   5.371   1.508  0.5326 -0.4487  0.0735
   12MOL0     H 1566   7.560   5.402   1.345  1.3941 -0.8760  0.4686
   12MOL0     H 1567   7.404   5.215   1.528  2.2335  0.8319  0.0201
   12MOL0     H 1568   7.350   5.276   1.368 -1.8378 -1.1528  1.1182
   12MOL0     H 1569   7.391   5.488   1.572 -0.4200  1.1399 -1.2518
   12MOL0     H 1570   7.284   5.476   1.431  0.6021 -1.3595  0.0700
   12MOL0     H 1571   7.078   5.315   1.419  4.3712 -0.0021 -0.7703
   12MOL0     H 1572   6.846   5.213   1.519  0.9599  0.3521  0.2602
   12MOL0     H 1573   6.863   5.109   1.657 -4.0852 -0.1586 -0.5470
   12MOL0     H 1574   6.671   5.234   1.687  0.7471 -0.3661 -0.8532
   12MOL0     H 1575   6.794   5.308   1.805 -0.3602  2.2253  0.5783
   12MOL0     H 1576   6.717   5.410   1.518  0.5978  0.2922 -0.0277
   12MOL0     H 1577   6.834   5.475   1.623  1.7584 -2.7045  0.4358
   12MOL0     H 1578   6.543   5.449   1.738 -0.2390 -1.2997 -0.9734
   12MOL0     H 1579   6.599   5.582   1.627  1.2837 -2.5357 -2.6403
   12MOL0     H 1580   6.444   5.700   1.779 -0.3212  1.3401  0.7926
   12MOL0     H 1581   6.345   5.829   1.933  0.0371 -0.1195 -0.4796
   12MOL0     H 1582   6.290   5.923   2.384 -0.0113 -0.6127  1.5240
   12MOL0     H 1583   6.163   6.037   2.552  0.0784  1.2782  2.6610
   12MOL0     H 1584   6.326   6.426   2.703  1.4877 -1.4959 -3.4851
   12MOL0     H 1585   6.186   6.440   2.589  1.0331  0.9712  0.4553
   12MOL0     H 1586   6.135   6.567   2.784  0.5465 -0.2167  0.8994
   12MOL0     H 1587   6.032   6.422   2.793 -1.5132  0.9857  1.9362
   12MOL0     H 1588   6.172   6.322   2.950 -1.7358  0.2255 -1.4309
   12MOL0     H 1589   6.283   6.465   2.961  0.2072 -0.8284  1.3338
   12MOL0     H 1590   5.986   6.498   3.049 -0.7873  1.6116 -1.2764
   12MOL0     H 1591   6.108   6.623   3.031 -1.3141  0.8481  1.6235
   12MOL0     H 1592   6.252   6.533   3.199  0.1440 -0.2421 -0.9245
   12MOL0     H 1593   6.179   6.385   3.213  1.6291  0.5783  0.6679
   12MOL0     H 1594   6.058   6.651   3.306  0.5834  0.5182  0.9200
   12MOL0     H 1595   5.954   6.503   3.299 -0.5856 -0.3758  1.4824
   12MOL0     H 1596   6.186   6.583   3.456 -0.3590 -0.1840  2.2224
   12MOL0     H 1597   6.118   6.410   3.468  1.0576 -0.0977  2.7401
   12MOL0     H 1598   5.907   6.564   3.519  0.0952  2.1657  0.1698
   12MOL0     H 1599   6.020   6.506   3.636 -0.8510 -2.4677 -2.2865
   12MOL0     H 1600   6.405   6.377   2.521 -0.3012  0.8239 -0.4751
   12MOL0     H 1601   6.541   6.260   2.338 -1.6735 -1.0858 -3.6378
   12MOL0     H 1602   6.690   5.838   2.180 -1.8770 -0.6291  0.9128
   12MOL0     H 1603   6.801   5.652   2.024  0.5651  0.4175  1.4144
   12MOL0     H 1604   8.041   4.695   1.534  0.7187 -2.2719  1.0697
   12MOL0     H 1605   8.171   4.493   1.543  1.3376 -1.6923 -0.5556
   12MOL0     H 1606   8.606   4.341   1.377  4.1373 -2.0729 -1.0623
   12MOL0     H 1607   8.769   4.177   1.401 -1.3955  1.9009 -0.3608
   12MOL0     H 1608   8.847   4.008   1.567  0.0242  0.4052 -1.7978
   12MOL0     H 1609   8.907   3.959   1.416  0.6060  1.8658  1.4645
   12MOL0     H 1610   9.000   3.815   1.585  0.1892 -1.4515 -1.1469
   12MOL0     H 1611   8.883   3.713   1.490  1.9235 -1.1659  1.3101
   12MOL0     H 1612   8.717   3.738   1.670  0.5370 -0.9671 -1.9993
   12MOL0     H 1613   8.828   3.855   1.762 -1.0551  2.7855 -3.1922
   12MOL0     H 1614   9.000   3.641   1.746 -0.0349  1.2962 -2.8979
   12MOL0     H 1615   8.870   3.643   1.863  2.2995 -0.6421  1.1835
   12MOL0     H 1616   8.730   3.332   1.623  0.4111  0.3147 -1.2857
   12MOL0     H 1617   8.465   3.868   1.401 -2.4287 -0.2104 -1.1590
   12MOL0     H 1618   8.218   4.021   1.257 -0.6657 -3.7031 -0.2343
   12MOL0     H 1619   8.271   3.901   1.377 -0.2911 -0.0877 -0.8359
   12MOL0     H 1620   8.202   4.061   1.429 -0.5892  0.9426 -0.2330
   13MOL0     O 1621   8.936   8.710   0.331  0.2581  0.2074  0.2866
   13MOL0     C 1622   8.992   8.820   0.327 -0.1646  0.8348  0.5802
   13MOL0     O 1623   8.989   8.910   0.431 -0.0142 -0.1386  0.7523
   13MOL0     C 1624   8.890   8.913   0.530 -0.2142 -0.8916  0.0630
   13MOL0     C 1625   8.865   8.812   0.615 -0.4399 -0.0375  0.6773
   13MOL0     C 1626   8.748   8.821   0.688  0.8852  0.4995  0.0988
   13MOL0     C 1627   8.658   8.928   0.684 -1.1667  0.1644 -0.7460
   13MOL0     O 1628   8.561   8.944   0.779 -0.4863  0.0866  0.5970
   13MOL0     C 1629   8.544   9.070   0.847 -0.5796  0.5254  0.5394
   13MOL0     C 1630   8.401   9.128   0.848 -0.4243  0.2380 -0.8258
   13MOL0     C 1631   8.367   9.154   0.706 -0.9924  0.2101 -0.3554
   13MOL0     C 1632   8.221   9.188   0.699  0.1494 -0.2799 -0.9096
   13MOL0     C 1633   8.149   9.179   0.565 -0.6404 -0.1429 -0.0997
   13MOL0     C 1634   8.228   9.258   0.458  0.2960  0.1861 -0.6903
   13MOL0     C 1635   8.215   9.198   0.320  0.5319  0.1166  0.2046
   13MOL0     C 1636   8.082   9.247   0.256 -0.5172 -0.9865 -0.6058
   13MOL0     N 1637   8.046   9.181   0.135  0.4383  0.3473 -0.4126
   13MOL0     C 1638   7.920   9.179   0.074 -0.8615 -0.4696  0.5961
   13MOL0     C 1639   7.938   9.092  -0.024 -0.1667 -0.5601  0.1067
   13MOL0     C 1640   7.837   9.044  -0.119  0.5469 -0.3123 -1.0289
   13MOL0     C 1641   7.807   9.144  -0.233  0.3238 -0.1248  1.1211
   13MOL0     C 1642   7.866   9.077  -0.360  0.1635  0.3423 -0.1792
   13MOL0     C 1643   7.819   9.153  -0.479  0.4920 -0.5038 -0.6092
   13MOL0     O 1644   7.680   9.135  -0.495 -0.6902  0.7530 -0.3654
   13MOL0     C 1645   7.625   9.016  -0.541 -0.3423 -0.7372 -0.4001
   13MOL0     C 1646   7.487   9.007  -0.533  0.6650  0.2132  0.3664
   13MOL0     C 1647   7.418   8.889  -0.578  0.1837  0.6209 -0.5093
   13MOL0     C 1648   7.501   8.783  -0.636  0.4181 -0.1656  0.2778
   13MOL0     C 1649   7.435   8.671  -0.715  0.0172 -1.2094  0.0479
   13MOL0     O 1650   7.517   8.558  -0.742  0.3098  0.6324 -0.2441
   13MOL0     C 1651   7.473   8.433  -0.803 -0.2846  0.9473 -0.6362
   13MOL0     C 1652   7.573   8.333  -0.807  0.4332 -0.2175 -0.5966
   13MOL0     C 1653   7.552   8.209  -0.878  0.1963 -0.7538  0.6424
   13MOL0     C 1654   7.432   8.185  -0.942  0.3540  0.2741 -1.2783
   13MOL0     O 1655   7.411   8.078  -1.026 -0.4735  0.6764 -0.0686
   13MOL0     C 1656   7.491   7.959  -1.011  0.9844  0.3523 -0.0345
   13MOL0     C 1657   7.484   7.880  -1.144 -0.5096  0.4362 -0.4428
   13MOL0     C 1658   7.577   7.758  -1.144  0.3107  0.6274 -0.0808
   13MOL0     C 1659   7.582   7.668  -1.272  0.2737  0.0029  0.3024
   13MOL0     C 1660   7.691   7.556  -1.255  0.5657 -0.3062 -0.0417
   13MOL0     C 1661   7.752   7.522  -1.389 -1.3240  0.2708 -0.4802
   13MOL0     C 1662   7.835   7.399  -1.382  0.1921  0.0523 -0.0512
   13MOL0     C 1663   7.915   7.372  -1.505  0.5013  0.5138  0.7950
   13MOL0    Cl 1664   7.808   7.350  -1.647 -0.1538  0.3038  0.0361
   13MOL0     C 1665   7.333   8.284  -0.929  0.4568 -1.1497 -0.5498
   13MOL0     C 1666   7.350   8.401  -0.854  0.6437  0.1431  0.0747
   13MOL0     O 1667   7.324   8.690  -0.762 -0.6042  0.2420 -0.0950
   13MOL0     C 1668   7.642   8.789  -0.645  0.7718 -0.1785 -0.6578
   13MOL0     C 1669   7.701   8.912  -0.596 -0.0107  0.3770  1.0749
   13MOL0     N 1670   8.065   9.031  -0.014  0.4972  0.1630  0.4821
   13MOL0     N 1671   8.124   9.078   0.083 -0.1758 -0.2839 -0.4068
   13MOL0     C 1672   8.695   9.035   0.604 -0.3049 -0.2830 -0.8840
   13MOL0     C 1673   8.803   9.027   0.521 -0.2844  0.3047  0.2999
   13MOL0     C 1674   9.070   8.844   0.207 -0.4583  0.3529 -0.6560
   13MOL0     C 1675   9.122   8.733   0.131 -0.4209  0.2246 -0.7665
   13MOL0     C 1676   9.208   8.753   0.021 -0.1846 -0.3888  0.0591
   13MOL0     C 1677   9.231   8.876  -0.040 -0.2118 -0.0219 -0.4216
   13MOL0     O 1678   9.305   8.896  -0.157  0.3299 -0.6250 -0.5650
   13MOL0     C 1679   9.359   8.794  -0.243  0.0639 -0.3018  0.4545
   13MOL0     C 1680   9.281   8.791  -0.382 -0.3562  0.3027 -0.2723
   13MOL0     C 1681   9.149   8.865  -0.389  0.1647  0.2579  0.4639
   13MOL0     C 1682   9.162   9.013  -0.411  0.9251 -0.0115  0.7308
   13MOL0     C 1683   9.032   9.082  -0.419  0.0072  0.0404 -0.4699
   13MOL0     C 1684   8.918   9.130  -0.415  0.1502 -0.5435 -0.6091
   13MOL0     C 1685   9.174   8.984   0.029 -0.3885  0.4695 -0.1502
   13MOL0     C 1686   9.099   8.971   0.150  0.1381  0.2373  0.6099
   13MOL0     C 1687   9.040   9.098   0.209  0.4097 -0.0759 -0.2578
   13MOL0     H 1688   8.923   8.720   0.618  1.1018  0.8365 -0.7160
   13MOL0     H 1689   8.725   8.741   0.758  2.3619  0.1269  0.2033
   13MOL0     H 1690   8.563   9.045   0.952 -2.8258 -0.2977  0.8146
   13MOL0     H 1691   8.615   9.147   0.814  0.4958 -0.7944 -0.3190
   13MOL0     H 1692   8.399   9.223   0.901 -2.2788  0.5812 -1.4285
   13MOL0     H 1693   8.335   9.052   0.892  3.7892 -3.3156  0.0863
   13MOL0     H 1694   8.391   9.067   0.644  0.6199 -2.2908  3.4155
   13MOL0     H 1695   8.437   9.228   0.667  0.7038 -0.9268  0.4316
   13MOL0     H 1696   8.166   9.124   0.769  0.2119 -0.0570 -0.6528
   13MOL0     H 1697   8.205   9.289   0.736  0.5339 -0.9231  1.1458
   13MOL0     H 1698   8.143   9.074   0.536 -1.1937 -0.9568  2.6454
   13MOL0     H 1699   8.044   9.207   0.577 -0.7345 -1.3132  2.6363
   13MOL0     H 1700   8.183   9.357   0.460 -2.1585 -0.8219 -1.9051
   13MOL0     H 1701   8.335   9.264   0.483  0.2791  0.4243 -0.6710
   13MOL0     H 1702   8.211   9.089   0.324 -0.3290  0.1794  1.7054
   13MOL0     H 1703   8.298   9.236   0.259 -1.3967  2.9342 -0.8335
   13MOL0     H 1704   8.008   9.227   0.335 -0.4969 -1.6197 -0.7414
   13MOL0     H 1705   8.085   9.356   0.244  0.7741 -0.9492 -0.0694
   13MOL0     H 1706   7.838   9.247   0.097  2.0741  2.8327  2.4254
   13MOL0     H 1707   7.871   8.947  -0.157  0.3242 -0.4286 -0.9365
   13MOL0     H 1708   7.744   9.035  -0.061  0.8079  2.5915 -0.0088
   13MOL0     H 1709   7.698   9.157  -0.235  0.3952  1.7165 -3.9178
   13MOL0     H 1710   7.859   9.238  -0.209  0.6848  0.1273 -0.5473
   13MOL0     H 1711   7.834   8.973  -0.369 -2.8764  1.3463 -3.2335
   13MOL0     H 1712   7.974   9.094  -0.360  0.0420  1.2868  1.2815
   13MOL0     H 1713   7.878   9.114  -0.563  0.9065 -0.4927 -0.3283
   13MOL0     H 1714   7.828   9.260  -0.463 -0.3429 -0.2752 -1.5912
   13MOL0     H 1715   7.430   9.082  -0.480 -1.7463 -3.3422  3.3293
   13MOL0     H 1716   7.311   8.883  -0.562  0.3566  1.9199  1.4222
   13MOL0     H 1717   7.670   8.360  -0.766 -0.3423 -0.0540  1.2209
   13MOL0     H 1718   7.643   8.151  -0.879  0.2976 -0.6021 -0.8321
   13MOL0     H 1719   7.598   7.970  -0.991  1.1407 -2.4305  1.1313
   13MOL0     H 1720   7.438   7.901  -0.935  0.8134  2.1451  1.2696
   13MOL0     H 1721   7.380   7.851  -1.161 -0.1687  0.9180 -4.2830
   13MOL0     H 1722   7.514   7.940  -1.231  1.5709 -0.4952 -0.4297
   13MOL0     H 1723   7.679   7.787  -1.118  2.4025 -3.1197 -3.0368
   13MOL0     H 1724   7.555   7.691  -1.060  0.4247  0.3721 -0.2528
   13MOL0     H 1725   7.607   7.725  -1.362 -0.1116 -1.7610 -0.9963
   13MOL0     H 1726   7.486   7.615  -1.277  1.0855 -1.4199 -1.2938
   13MOL0     H 1727   7.644   7.462  -1.225 -0.5017 -0.4773 -2.0447
   13MOL0     H 1728   7.758   7.581  -1.172  0.6955  1.0518 -0.5256
   13MOL0     H 1729   7.685   7.493  -1.470 -2.4462 -1.1710  0.9056
   13MOL0     H 1730   7.810   7.610  -1.418  2.4622 -1.3659  1.4020
   13MOL0     H 1731   7.765   7.316  -1.373  2.4324 -2.4238 -3.2248
   13MOL0     H 1732   7.904   7.404  -1.297 -1.1839 -1.9742  1.2790
   13MOL0     H 1733   7.974   7.463  -1.518 -0.7619  1.0691 -1.8093
   13MOL0     H 1734   7.975   7.282  -1.494  0.2455 -0.1749 -2.3285
   13MOL0     H 1735   7.239   8.285  -0.984  2.7228  2.0265 -5.0523
   13MOL0     H 1736   7.268   8.472  -0.863  0.2375 -0.4289 -0.8686
   13MOL0     H 1737   7.699   8.702  -0.677  1.6566  0.3902 -0.6500
   13MOL0     H 1738   7.807   8.913  -0.618 -0.5674 -3.4296 -3.5242
   13MOL0     H 1739   8.647   9.130   0.623 -0.3267 -0.2231 -1.2300
   13MOL0     H 1740   8.826   9.111   0.455 -2.4514 -0.5304 -1.6615
   13MOL0     H 1741   9.096   8.633   0.162  2.0198 -0.2618 -0.0572
   13MOL0     H 1742   9.236   8.654  -0.014 -1.4913 -1.3693  1.6638
   13MOL0     H 1743   9.354   8.698  -0.192 -0.7409  0.0543  1.0646
   13MOL0     H 1744   9.465   8.819  -0.255  0.6403 -0.2959  4.3375
   13MOL0     H 1745   9.263   8.683  -0.389  1.4912 -0.2471  2.1273
   13MOL0     H 1746   9.341   8.832  -0.463  0.1413  0.5822  0.2323
   13MOL0     H 1747   9.095   8.850  -0.294 -2.8903  1.2800 -0.9691
   13MOL0     H 1748   9.101   8.827  -0.479  0.5650  3.4263 -1.2321
   13MOL0     H 1749   9.216   9.065  -0.331 -3.1508  2.5610  2.1404
   13MOL0     H 1750   9.211   9.031  -0.507 -1.9209  3.2970 -0.3200
   13MOL0     H 1751   8.820   9.162  -0.388  1.2922  0.8716  2.3148
   13MOL0     H 1752   9.203   9.079  -0.015 -0.8618  1.3976  1.4541
   13MOL0     H 1753   8.936   9.093   0.245 -1.0665  1.0782 -3.9159
   13MOL0     H 1754   9.092   9.147   0.292  0.6760 -0.1406 -0.3860
   13MOL0     H 1755   9.043   9.172   0.129 -0.1641  0.1435 -0.0860
   14MOL0     O 1756   2.231   5.394   0.744 -0.0407  0.0823  1.1340
   14MOL0     C 1757   2.312   5.304   0.768 -0.3632  0.8593  1.0454
   14MOL0     O 1758   2.283   5.176   0.765  0.1648 -0.1414  0.6697
   14MOL0     C 1759   2.189   5.130   0.676 -0.1880  0.5405 -1.1697
   14MOL0     C 1760   2.226   5.044   0.568 -0.2178 -1.1135  0.5360
   14MOL0     C 1761   2.127   4.975   0.501  0.5415 -0.4767  0.2309
   14MOL0     C 1762   1.988   4.999   0.535 -0.7265  0.4014  1.1615
   14MOL0     O 1763   1.888   4.924   0.478 -0.1911 -0.7659 -0.3884
   14MOL0     C 1764   1.797   4.997   0.399  0.5191  0.2575  0.9687
   14MOL0     C 1765   1.728   4.931   0.282 -0.7247 -0.0934 -0.4799
   14MOL0     C 1766   1.685   4.784   0.307 -0.0720  0.0666  0.6690
   14MOL0     C 1767   1.583   4.769   0.422 -0.4434  0.0609  0.2470
   14MOL0     C 1768   1.440   4.826   0.408  0.6340 -0.2071 -0.8175
   14MOL0     C 1769   1.355   4.783   0.285 -0.0907  0.2404  0.1702
   14MOL0     C 1770   1.242   4.886   0.266  1.1609  0.5463  0.2910
   14MOL0     C 1771   1.136   4.854   0.160  0.0656 -0.0573  0.4215
   14MOL0     N 1772   1.082   4.719   0.170  0.7037 -0.3806  0.1694
   14MOL0     C 1773   1.040   4.650   0.059 -0.5556 -0.1079 -0.7912
   14MOL0     C 1774   0.978   4.549   0.116  0.6158 -0.1918  0.8904
   14MOL0     C 1775   0.903   4.443   0.036  0.3135  0.0394 -0.1808
   14MOL0     C 1776   0.893   4.305   0.107 -0.2432 -0.0645  0.4528
   14MOL0     C 1777   0.754   4.289   0.175 -0.4153 -0.5729 -0.0490
   14MOL0     C 1778   0.735   4.150   0.216 -0.0825  0.4108 -0.5368
   14MOL0     O 1779   0.674   4.143   0.349  0.3917  0.0602 -0.4545
   14MOL0     C 1780   0.554   4.079   0.370 -0.1897 -0.2185 -0.3244
   14MOL0     C 1781   0.461   4.029   0.276  0.0449 -0.0776 -0.5141
   14MOL0     C 1782   0.352   3.948   0.323 -0.7413  0.9798 -0.7309
   14MOL0     C 1783   0.326   3.940   0.468 -0.2750  0.0959 -0.4464
   14MOL0     C 1784   0.210   3.860   0.512  0.4372  0.1490 -0.2607
   14MOL0     O 1785   0.205   3.829   0.642  0.0497 -0.4712 -0.7345
   14MOL0     C 1786   0.084   3.791   0.691  0.5521 -0.1205 -0.4156
   14MOL0     C 1787  -0.019   3.882   0.726 -0.0049 -0.2987 -0.4120
   14MOL0     C 1788  -0.141   3.841   0.776  0.2075 -0.1094 -1.2105
   14MOL0     C 1789  -0.176   3.710   0.790 -0.1261  0.4871 -0.7961
   14MOL0     O 1790  -0.302   3.666   0.828  0.7099 -0.1683  0.5019
   14MOL0     C 1791  -0.317   3.576   0.945 -0.2673 -0.3933  1.1989
   14MOL0     C 1792  -0.234   3.634   1.066 -0.3404 -0.0657  0.1036
   14MOL0     C 1793  -0.270   3.567   1.202  0.0413 -1.0059 -0.3466
   14MOL0     C 1794  -0.143   3.507   1.265 -0.0924  0.5287  0.2689
   14MOL0     C 1795  -0.112   3.364   1.204 -0.8137  0.8606 -0.7348
   14MOL0     C 1796  -0.000   3.286   1.264 -0.1179  0.8146 -0.2581
   14MOL0     C 1797   0.030   3.146   1.212 -0.1287  0.2566 -0.2948
   14MOL0     C 1798   0.132   3.066   1.306 -0.2052  0.6292 -0.3790
   14MOL0    Cl 1799   0.104   3.096   1.482  0.2354  0.4592  0.1230
   14MOL0     C 1800  -0.077   3.620   0.742  0.9313  0.0765  0.4024
   14MOL0     C 1801   0.050   3.654   0.697  1.3538  0.3206 -0.0022
   14MOL0     O 1802   0.110   3.855   0.439 -1.0514 -0.3718  0.7480
   14MOL0     C 1803   0.414   3.995   0.559 -0.2901 -0.4995  1.0724
   14MOL0     C 1804   0.527   4.063   0.507  1.0198 -0.6896 -0.5107
   14MOL0     N 1805   0.984   4.556   0.257  0.6228 -0.0843 -0.1491
   14MOL0     N 1806   1.037   4.666   0.293  0.5786  0.4167  0.0454
   14MOL0     C 1807   1.952   5.096   0.630  0.7826 -0.1076 -0.7864
   14MOL0     C 1808   2.053   5.156   0.703  0.0938 -0.1845 -0.0359
   14MOL0     C 1809   2.445   5.340   0.813 -0.9380  0.2085 -0.5884
   14MOL0     C 1810   2.522   5.252   0.909  0.0323 -0.1223  0.4046
   14MOL0     C 1811   2.641   5.291   0.971  0.6616 -0.5526  1.0137
   14MOL0     C 1812   2.688   5.419   0.941  0.4466  0.1347  0.0074
   14MOL0     O 1813   2.805   5.451   1.008  0.1251 -0.2257 -0.2894
   14MOL0     C 1814   2.855   5.586   1.013 -0.1407  0.1757  0.6813
   14MOL0     C 1815   2.955   5.601   1.116  0.5062  0.0597 -0.6014
   14MOL0     C 1816   2.896   5.569   1.255 -0.9441 -0.5522 -0.9919
   14MOL0     C 1817   3.022   5.604   1.349  0.1955  0.2939  0.2165
   14MOL0     C 1818   2.992   5.580   1.478  0.4464  0.0751 -0.7671
   14MOL0     C 1819   2.964   5.546   1.595 -0.0278 -0.3933 -0.4795
   14MOL0     C 1820   2.618   5.497   0.852  0.3638 -0.6929  0.0427
   14MOL0     C 1821   2.503   5.465   0.782  0.0537 -0.0273  0.2989
   14MOL0     C 1822   2.433   5.569   0.687 -0.3648  0.4143  0.6114
   14MOL0     H 1823   2.332   5.022   0.561  0.7952  3.0769 -0.2865
   14MOL0     H 1824   2.160   4.911   0.421 -1.1785 -0.5877 -0.4347
   14MOL0     H 1825   1.727   5.022   0.480  2.8487  3.4126  2.2398
   14MOL0     H 1826   1.840   5.095   0.375  0.3609  0.8635  2.9331
   14MOL0     H 1827   1.808   4.943   0.209  0.7229  0.9295  1.1751
   14MOL0     H 1828   1.644   4.992   0.248 -1.9438 -2.2188 -1.5066
   14MOL0     H 1829   1.775   4.725   0.328  0.2933  1.1560  2.3982
   14MOL0     H 1830   1.629   4.742   0.224 -2.6772  4.6038 -0.1741
   14MOL0     H 1831   1.560   4.664   0.439 -1.9908  0.0817 -1.4178
   14MOL0     H 1832   1.619   4.810   0.517 -1.9598 -2.6772  2.1373
   14MOL0     H 1833   1.382   4.807   0.499 -1.2266 -1.9500 -2.2908
   14MOL0     H 1834   1.448   4.935   0.404 -0.6339 -0.0869 -0.3948
   14MOL0     H 1835   1.423   4.789   0.199 -2.3107  3.9518 -1.5833
   14MOL0     H 1836   1.300   4.688   0.285  0.0296  0.1637 -0.8483
   14MOL0     H 1837   1.273   4.990   0.252 -0.7492  1.1361  0.0622
   14MOL0     H 1838   1.194   4.887   0.364 -0.1176  1.2298 -0.3110
   14MOL0     H 1839   1.048   4.914   0.181 -0.1490 -1.3101  3.6299
   14MOL0     H 1840   1.165   4.877   0.057  0.1131 -0.1738  0.4074
   14MOL0     H 1841   1.036   4.679  -0.045  1.3872 -1.9689 -1.4680
   14MOL0     H 1842   0.802   4.480   0.014 -0.9372 -3.3055 -0.6244
   14MOL0     H 1843   0.950   4.432  -0.062  1.5865 -2.1543  0.6104
   14MOL0     H 1844   0.907   4.228   0.031  0.9747 -1.1029  1.6967
   14MOL0     H 1845   0.980   4.297   0.173  0.7777  0.0441 -0.8492
   14MOL0     H 1846   0.670   4.313   0.108  0.1565 -1.6728 -1.1762
   14MOL0     H 1847   0.743   4.362   0.256 -0.0311  1.9807 -2.1468
   14MOL0     H 1848   0.836   4.109   0.226  0.1775  1.3710  1.0807
   14MOL0     H 1849   0.697   4.081   0.140 -1.5501  0.0454  0.4830
   14MOL0     H 1850   0.471   4.056   0.171 -2.6848 -2.8615 -1.6365
   14MOL0     H 1851   0.287   3.910   0.245 -1.2095 -1.2001  0.6308
   14MOL0     H 1852   0.005   3.987   0.709  1.4301 -0.7535 -1.3711
   14MOL0     H 1853  -0.209   3.921   0.802 -1.7370 -1.8275 -0.7654
   14MOL0     H 1854  -0.419   3.554   0.978  0.0060 -2.0113  1.0552
   14MOL0     H 1855  -0.284   3.483   0.897 -1.3914  1.3748 -3.5892
   14MOL0     H 1856  -0.127   3.628   1.044 -0.7645 -0.1766 -2.1260
   14MOL0     H 1857  -0.256   3.742   1.061  0.3902  0.2047  1.8580
   14MOL0     H 1858  -0.303   3.647   1.269 -2.8761 -2.2997 -0.0916
   14MOL0     H 1859  -0.352   3.495   1.197 -0.9549  0.1481 -1.4859
   14MOL0     H 1860  -0.159   3.498   1.373 -1.3458  5.3283  0.7036
   14MOL0     H 1861  -0.053   3.569   1.257  0.2706 -0.2270 -3.0374
   14MOL0     H 1862  -0.076   3.391   1.104  0.4964 -2.7520 -1.3912
   14MOL0     H 1863  -0.202   3.302   1.207  0.2131 -0.7381 -1.4426
   14MOL0     H 1864   0.086   3.348   1.238  0.7257 -0.9277 -1.8519
   14MOL0     H 1865  -0.009   3.298   1.373 -1.1408 -2.4403  0.1195
   14MOL0     H 1866   0.053   3.157   1.106 -0.2843  3.7538 -0.0632
   14MOL0     H 1867  -0.061   3.086   1.225  0.8655 -1.3747 -0.5845
   14MOL0     H 1868   0.108   2.962   1.282  2.8809 -0.6148  1.3313
   14MOL0     H 1869   0.237   3.084   1.282 -0.5195  1.0161 -1.5199
   14MOL0     H 1870  -0.110   3.517   0.731 -0.3267  0.3151  1.6191
   14MOL0     H 1871   0.129   3.591   0.658  1.1148 -0.3783  0.6269
   14MOL0     H 1872   0.404   3.980   0.666 -0.4226 -0.8825  1.0084
   14MOL0     H 1873   0.589   4.114   0.579 -3.3416  1.4492  2.1693
   14MOL0     H 1874   1.848   5.111   0.656  0.7075  2.6017 -2.2644
   14MOL0     H 1875   2.017   5.212   0.789 -0.9442  0.5663 -0.9367
   14MOL0     H 1876   2.485   5.154   0.940 -0.4111 -0.5411 -1.3384
   14MOL0     H 1877   2.707   5.225   1.027  1.2889 -0.3824  0.4889
   14MOL0     H 1878   2.768   5.645   1.043  0.8243  1.3713  1.2286
   14MOL0     H 1879   2.891   5.617   0.914  0.1074 -0.3555  0.6011
   14MOL0     H 1880   2.988   5.705   1.112 -1.5624  0.7301 -1.8679
   14MOL0     H 1881   3.036   5.534   1.087 -0.0457 -0.4575 -0.9632
   14MOL0     H 1882   2.863   5.465   1.258 -2.1714 -0.2492 -2.5137
   14MOL0     H 1883   2.819   5.640   1.286  0.0565  1.0532 -2.0026
   14MOL0     H 1884   3.103   5.539   1.314 -1.8322 -0.7412 -3.0043
   14MOL0     H 1885   3.054   5.707   1.333 -2.7081  1.8195  3.0256
   14MOL0     H 1886   2.950   5.524   1.699  5.6567  1.5443  1.0302
   14MOL0     H 1887   2.663   5.594   0.832 -0.2132 -0.7342 -1.6328
   14MOL0     H 1888   2.515   5.626   0.642 -1.2090 -0.3498 -2.0540
   14MOL0     H 1889   2.372   5.519   0.611 -0.5027  1.6255 -0.0969
   14MOL0     H 1890   2.369   5.630   0.751 -1.2440  2.2067 -1.8302
   15MOL0     O 1891   6.780   7.429   1.571  0.5143 -0.9343  0.6396
   15MOL0     C 1892   6.793   7.484   1.680  0.6066 -1.2547 -1.4901
   15MOL0     O 1893   6.765   7.607   1.709 -0.4328 -0.0742  0.3670
   15MOL0     C 1894   6.696   7.694   1.623  0.4467  0.2737  0.4968
   15MOL0     C 1895   6.721   7.824   1.637  0.0063 -0.1189  0.1271
   15MOL0     C 1896   6.648   7.926   1.580 -0.9281 -0.6162  0.4230
   15MOL0     C 1897   6.540   7.886   1.496 -0.7714 -0.7843 -0.4789
   15MOL0     O 1898   6.463   7.975   1.422 -0.4179  0.0646  0.0249
   15MOL0     C 1899   6.511   8.114   1.421  0.8874  0.2850 -0.1205
   15MOL0     C 1900   6.421   8.191   1.315  0.0945  0.0179  0.2054
   15MOL0     C 1901   6.498   8.204   1.189 -0.5499 -0.3830 -0.1540
   15MOL0     C 1902   6.599   8.327   1.185 -0.1097  0.1358  0.1118
   15MOL0     C 1903   6.640   8.352   1.046  1.0722  0.8111 -0.1895
   15MOL0     C 1904   6.585   8.479   0.999  0.2569  0.3926  0.3204
   15MOL0     C 1905   6.646   8.510   0.863  0.8882  0.0003 -0.0004
   15MOL0     C 1906   6.653   8.657   0.835 -0.4119  0.4717  0.4645
   15MOL0     N 1907   6.524   8.722   0.851 -0.4104 -0.8243 -0.0423
   15MOL0     C 1908   6.478   8.767   0.966 -0.0970 -0.7167  0.6477
   15MOL0     C 1909   6.365   8.846   0.936  0.1836  0.1189  0.5270
   15MOL0     C 1910   6.280   8.934   1.024 -0.0849  0.9106  1.1524
   15MOL0     C 1911   6.292   9.085   0.976  1.5352 -0.4160  0.9285
   15MOL0     C 1912   6.376   9.162   1.072  1.2278  0.6622 -0.1554
   15MOL0     C 1913   6.378   9.310   1.030  0.6991  0.8123  0.3173
   15MOL0     O 1914   6.469   9.381   1.104  0.0730 -0.0999 -0.6923
   15MOL0     C 1915   6.484   9.514   1.067  0.0448  0.0270  1.1388
   15MOL0     C 1916   6.509   9.545   0.931  0.3993 -0.5078 -0.8321
   15MOL0     C 1917   6.555   9.674   0.900 -0.2083  0.0357 -0.8564
   15MOL0     C 1918   6.578   9.780   0.995 -0.4209 -0.8329 -0.0242
   15MOL0     C 1919   6.639   9.910   0.959  0.2017  0.0784 -0.4900
   15MOL0     O 1920   6.656   9.926   0.822  0.1788  0.4066  0.4709
   15MOL0     C 1921   6.682  10.053   0.782 -0.2869  0.0595 -0.3732
   15MOL0     C 1922   6.761  10.064   0.671 -0.1327  0.0590 -0.6144
   15MOL0     C 1923   6.792  10.183   0.619  0.0076  1.0843 -0.1265
   15MOL0     C 1924   6.729  10.304   0.669 -0.2696  0.9245 -0.2779
   15MOL0     O 1925   6.749  10.424   0.611  0.3235 -0.0916  0.1004
   15MOL0     C 1926   6.718  10.541   0.686  0.2608 -0.3682  0.7914
   15MOL0     C 1927   6.826  10.641   0.631 -0.3444  0.3975 -0.7601
   15MOL0     C 1928   6.835  10.773   0.713 -0.1730 -0.4709  0.9577
   15MOL0     C 1929   6.872  10.896   0.629 -0.5531 -0.1794  0.1388
   15MOL0     C 1930   7.003  10.964   0.660  1.1545  0.2880 -1.3152
   15MOL0     C 1931   7.039  11.074   0.568  0.0555 -0.0226  0.1674
   15MOL0     C 1932   6.921  11.175   0.555 -0.6812 -0.7265 -0.0233
   15MOL0     C 1933   6.976  11.307   0.489 -0.2347  0.4608  0.3507
   15MOL0    Cl 1934   6.846  11.398   0.417 -0.3306  0.0724 -0.3342
   15MOL0     C 1935   6.641  10.287   0.779 -1.0131  0.4462  0.0928
   15MOL0     C 1936   6.615  10.168   0.839  0.2842 -0.5078  0.1321
   15MOL0     O 1937   6.674   9.991   1.047  0.7137  0.1740  0.4019
   15MOL0     C 1938   6.538   9.747   1.125 -0.9020 -0.0720  0.5859
   15MOL0     C 1939   6.500   9.610   1.159 -0.2510 -0.6358  0.2205
   15MOL0     N 1940   6.337   8.832   0.805  0.0539  0.4114  0.0125
   15MOL0     N 1941   6.425   8.755   0.754  0.3266  0.7719  0.6626
   15MOL0     C 1942   6.516   7.755   1.471 -0.0226  0.1325 -0.7807
   15MOL0     C 1943   6.592   7.657   1.541 -0.1549  0.0191  0.4206
   15MOL0     C 1944   6.844   7.396   1.789 -0.0447  0.2415  0.6610
   15MOL0     C 1945   6.842   7.452   1.916  0.2676  0.8225 -0.2128
   15MOL0     C 1946   6.873   7.374   2.024  0.2717 -1.1750 -0.4621
   15MOL0     C 1947   6.906   7.238   2.008  0.4836  0.1304  0.4607
   15MOL0     O 1948   6.942   7.170   2.117 -0.2146 -0.2153 -0.1327
   15MOL0     C 1949   6.969   7.026   2.117 -0.0130 -0.2141 -0.2696
   15MOL0     C 1950   7.032   6.980   2.253 -0.1140  0.4884  1.1789
   15MOL0     C 1951   6.948   7.004   2.375 -1.0405  0.1712 -0.2251
   15MOL0     C 1952   6.846   6.884   2.400 -0.6732  0.5130 -0.0807
   15MOL0     C 1953   6.909   6.758   2.439  0.2282  0.4773 -0.6049
   15MOL0     C 1954   6.969   6.652   2.461 -0.7553 -0.5079 -0.3979
   15MOL0     C 1955   6.910   7.178   1.881  0.5185  0.7541  0.7598
   15MOL0     C 1956   6.883   7.260   1.767  0.6315 -0.2423 -0.4579
   15MOL0     C 1957   6.878   7.187   1.636 -0.9475 -0.4389 -0.6746
   15MOL0     H 1958   6.800   7.852   1.706  1.3790 -1.5320 -0.7984
   15MOL0     H 1959   6.676   8.028   1.605  1.3572 -0.9400 -0.6178
   15MOL0     H 1960   6.483   8.168   1.512 -2.4862  2.0396 -1.9904
   15MOL0     H 1961   6.618   8.130   1.408  1.5418 -3.6482 -0.8552
   15MOL0     H 1962   6.389   8.288   1.354 -3.2445 -1.0613  0.4464
   15MOL0     H 1963   6.321   8.150   1.304 -0.8161  1.5175  2.1067
   15MOL0     H 1964   6.420   8.218   1.113  0.2092  0.7528 -0.7500
   15MOL0     H 1965   6.537   8.106   1.159  0.0898  0.1862 -1.2648
   15MOL0     H 1966   6.559   8.415   1.237  1.0607  1.2777 -0.8315
   15MOL0     H 1967   6.682   8.298   1.251 -1.0812 -1.6075  0.6138
   15MOL0     H 1968   6.749   8.344   1.055  0.8052 -1.6337  2.2981
   15MOL0     H 1969   6.614   8.263   0.989 -0.3036 -0.1753  1.8480
   15MOL0     H 1970   6.476   8.470   1.006  0.4674 -3.1443  0.7245
   15MOL0     H 1971   6.615   8.543   1.082  0.1551  0.5024  0.2725
   15MOL0     H 1972   6.594   8.456   0.784  0.6605  1.3180 -0.7931
   15MOL0     H 1973   6.752   8.484   0.857  1.0788  0.8853 -0.8484
   15MOL0     H 1974   6.706   8.705   0.917  1.5157  1.7680 -1.4306
   15MOL0     H 1975   6.709   8.689   0.746 -0.0719  0.8940  0.8295
   15MOL0     H 1976   6.517   8.771   1.067 -3.3161  0.9983  1.9931
   15MOL0     H 1977   6.179   8.900   1.002  0.2376  1.1704 -0.9298
   15MOL0     H 1978   6.306   8.928   1.130  0.9045 -3.4290  0.8351
   15MOL0     H 1979   6.340   9.093   0.878  1.2602  2.9717  0.9453
   15MOL0     H 1980   6.191   9.127   0.971  1.7577 -0.0494 -0.8698
   15MOL0     H 1981   6.481   9.129   1.074  1.4992  1.5044  0.4799
   15MOL0     H 1982   6.337   9.152   1.174 -0.5123  1.7947 -0.6808
   15MOL0     H 1983   6.279   9.355   1.044 -0.3942 -0.9882 -1.0929
   15MOL0     H 1984   6.396   9.302   0.923 -2.1226 -0.7961 -0.1548
   15MOL0     H 1985   6.510   9.475   0.847 -2.8491 -1.1865 -0.4501
   15MOL0     H 1986   6.565   9.690   0.793 -1.6103 -1.6067 -1.2750
   15MOL0     H 1987   6.809   9.977   0.628  0.0507 -0.2556  0.2007
   15MOL0     H 1988   6.861  10.176   0.536  0.4582 -0.4955  0.3669
   15MOL0     H 1989   6.617  10.572   0.657 -0.2666 -0.7596  2.1391
   15MOL0     H 1990   6.724  10.535   0.795 -0.4277 -1.3323  0.7937
   15MOL0     H 1991   6.924  10.593   0.643  0.4090  2.5691  3.3534
   15MOL0     H 1992   6.791  10.661   0.529 -0.3270 -0.2285 -0.8962
   15MOL0     H 1993   6.749  10.796   0.777  0.1570  2.0981  0.5465
   15MOL0     H 1994   6.918  10.764   0.784  2.2572  3.5778 -1.0246
   15MOL0     H 1995   6.788  10.966   0.633  0.6053  1.2133  0.8781
   15MOL0     H 1996   6.881  10.858   0.527  2.8137  0.4853  0.0811
   15MOL0     H 1997   7.072  10.880   0.646 -0.5711 -1.4801  0.1574
   15MOL0     H 1998   7.008  10.996   0.764 -2.3448 -0.7006 -0.7167
   15MOL0     H 1999   7.131  11.122   0.603 -1.1926  1.3957  1.6641
   15MOL0     H 2000   7.068  11.022   0.476 -2.7995 -0.9096 -0.3179
   15MOL0     H 2001   6.878  11.195   0.654 -0.2423  1.2439 -0.1921
   15MOL0     H 2002   6.836  11.137   0.496 -0.2171 -0.4239 -0.9098
   15MOL0     H 2003   7.028  11.362   0.568  1.1463  0.5478 -0.5933
   15MOL0     H 2004   7.042  11.284   0.405 -1.2761 -0.8909 -0.1217
   15MOL0     H 2005   6.587  10.374   0.816 -4.1239 -0.3924 -2.0661
   15MOL0     H 2006   6.543  10.155   0.919  1.5873 -0.6959  1.3059
   15MOL0     H 2007   6.552   9.823   1.201 -0.4891  0.0105  0.4315
   15MOL0     H 2008   6.496   9.584   1.265 -0.7007  0.2359  0.4280
   15MOL0     H 2009   6.434   7.727   1.405  0.3064 -2.5743 -0.1531
   15MOL0     H 2010   6.557   7.554   1.540 -1.3783  0.4060 -1.4864
   15MOL0     H 2011   6.814   7.554   1.941  0.4008  0.6983  0.4717
   15MOL0     H 2012   6.880   7.415   2.124  2.2297  0.9152 -1.3604
   15MOL0     H 2013   7.029   7.015   2.026  0.0836  2.9770 -0.7200
   15MOL0     H 2014   6.881   6.961   2.111  0.1329 -0.7893  2.4096
   15MOL0     H 2015   7.133   7.020   2.263  0.1452  0.4005 -0.6442
   15MOL0     H 2016   7.050   6.872   2.244  1.0179  0.7606 -0.0847
   15MOL0     H 2017   6.902   7.100   2.351  0.5294  1.0255  0.0742
   15MOL0     H 2018   7.001   7.026   2.468 -1.7603  1.5941 -0.1331
   15MOL0     H 2019   6.790   6.914   2.489 -1.1317 -1.1716  0.2232
   15MOL0     H 2020   6.772   6.868   2.320 -2.3293 -1.4728  1.7191
   15MOL0     H 2021   7.023   6.566   2.497  2.5228  2.3162  2.2175
   15MOL0     H 2022   6.922   7.072   1.866 -0.9733  0.7880 -1.0564
   15MOL0     H 2023   6.770   7.180   1.616 -0.9810 -3.0625  0.0702
   15MOL0     H 2024   6.928   7.228   1.547 -1.1305 -3.2795 -2.2256
   15MOL0     H 2025   6.913   7.084   1.650  0.1275  0.1509  1.4245
   16MOL0     O 2026   0.275   1.900   6.009 -0.3020  0.1514  0.2344
   16MOL0     C 2027   0.287   1.792   6.070  0.7457 -0.6382  0.4146
   16MOL0     O 2028   0.341   1.772   6.192  0.6265 -0.6914  0.4505
   16MOL0     C 2029   0.436   1.848   6.256 -0.2392  0.4792 -0.0311
   16MOL0     C 2030   0.517   1.944   6.179  0.4546  1.0413  0.3577
   16MOL0     C 2031   0.608   2.032   6.252 -0.5084  0.5268  0.0672
   16MOL0     C 2032   0.621   2.013   6.391 -0.0757 -0.0795  0.3151
   16MOL0     O 2033   0.702   2.108   6.457 -0.1011  0.2564  0.4644
   16MOL0     C 2034   0.782   2.067   6.568 -0.8321  0.2395  0.2007
   16MOL0     C 2035   0.905   2.007   6.501 -0.5257 -0.2991 -0.2881
   16MOL0     C 2036   1.016   1.994   6.601 -0.7715 -0.9244  0.0506
   16MOL0     C 2037   1.074   2.133   6.621 -0.2495 -0.3748 -0.3950
   16MOL0     C 2038   1.177   2.130   6.724 -0.1491 -0.5554 -0.9393
   16MOL0     C 2039   1.137   2.165   6.871  0.0680 -0.3946 -0.7356
   16MOL0     C 2040   1.261   2.194   6.960  0.2687 -0.1382  1.0983
   16MOL0     C 2041   1.208   2.211   7.103 -0.6714  0.0555 -0.5243
   16MOL0     N 2042   1.317   2.209   7.205 -0.0221  0.4404 -0.6958
   16MOL0     C 2043   1.373   2.090   7.259  0.8848  0.4143 -0.5248
   16MOL0     C 2044   1.460   2.126   7.356  1.0250 -0.0582  0.0722
   16MOL0     C 2045   1.544   2.032   7.440 -0.1897 -0.0769 -0.2126
   16MOL0     C 2046   1.540   2.057   7.590 -0.0621  0.0021  0.5716
   16MOL0     C 2047   1.601   1.940   7.665  0.4571 -0.3495 -0.3740
   16MOL0     C 2048   1.757   1.928   7.646 -0.3957  0.4925  0.0834
   16MOL0     O 2049   1.794   1.850   7.537  0.0058 -0.0502  1.1726
   16MOL0     C 2050   1.931   1.847   7.493  0.7217  0.2727 -0.2113
   16MOL0     C 2051   1.963   1.800   7.362  0.3477 -0.5443  0.0863
   16MOL0     C 2052   2.097   1.813   7.311 -0.7444 -0.0330 -0.1849
   16MOL0     C 2053   2.196   1.874   7.399 -0.4770 -0.5546  0.1595
   16MOL0     C 2054   2.330   1.894   7.358 -0.6480 -0.5732 -0.7138
   16MOL0     O 2055   2.407   1.979   7.427 -0.5058 -0.0694  0.2994
   16MOL0     C 2056   2.543   1.989   7.391  0.1107 -0.7662  0.3316
   16MOL0     C 2057   2.620   1.866   7.398 -0.1315  0.2630 -0.4522
   16MOL0     C 2058   2.753   1.855   7.347 -0.0668  0.6018 -0.6481
   16MOL0     C 2059   2.816   1.977   7.312 -0.9407 -0.8066  0.7581
   16MOL0     O 2060   2.944   1.971   7.278  0.1276 -0.2911 -0.4998
   16MOL0     C 2061   3.022   2.092   7.255 -0.4771 -0.4071 -0.1350
   16MOL0     C 2062   3.164   2.063   7.284  0.5229  0.3825 -0.2899
   16MOL0     C 2063   3.241   2.201   7.283 -0.7269 -0.9215  0.3055
   16MOL0     C 2064   3.383   2.164   7.329  0.2381  0.7602  0.3949
   16MOL0     C 2065   3.486   2.279   7.352 -0.1294 -0.8341  0.6979
   16MOL0     C 2066   3.434   2.398   7.422  0.9552 -0.8639  0.2872
   16MOL0     C 2067   3.534   2.487   7.474  0.1164 -1.1861 -0.6894
   16MOL0     C 2068   3.640   2.528   7.379 -0.0912 -0.7626 -0.1031
   16MOL0    Cl 2069   3.576   2.661   7.283 -0.2679 -0.2560 -0.0957
   16MOL0     C 2070   2.737   2.092   7.292 -0.2834 -0.4177  0.0649
   16MOL0     C 2071   2.608   2.104   7.336 -0.0002  0.0849  0.7443
   16MOL0     O 2072   2.361   1.847   7.250  0.6232 -0.6144 -0.5028
   16MOL0     C 2073   2.165   1.906   7.529  1.0897 -0.0613 -0.3460
   16MOL0     C 2074   2.039   1.894   7.576  0.8736 -1.3041 -0.0584
   16MOL0     N 2075   1.451   2.266   7.362 -1.2957  0.1060  0.5698
   16MOL0     N 2076   1.372   2.319   7.267  0.1817  0.1664 -0.0026
   16MOL0     C 2077   0.558   1.917   6.461  0.4991 -0.3622 -0.0766
   16MOL0     C 2078   0.465   1.837   6.396 -0.1839 -1.0470 -0.3401
   16MOL0     C 2079   0.215   1.683   6.016 -1.2763  0.2743  0.8093
   16MOL0     C 2080   0.096   1.629   6.084 -0.0401 -1.1561 -0.0691
   16MOL0     C 2081   0.018   1.528   6.030 -0.1864 -0.0857 -0.1603
   16MOL0     C 2082   0.061   1.468   5.915  0.4113  0.7915  0.3035
   16MOL0     O 2083   0.002   1.350   5.872  0.7092 -0.1640  0.2836
   16MOL0     C 2084  -0.134   1.348   5.822  0.3718 -0.7160  0.1830
   16MOL0     C 2085  -0.150   1.383   5.684 -0.7284 -0.3911 -0.3530
   16MOL0     C 2086  -0.287   1.443   5.641 -0.2455  0.1109 -0.2496
   16MOL0     C 2087  -0.284   1.595   5.595  0.9630  0.4929 -0.0593
   16MOL0     C 2088  -0.412   1.615   5.534 -0.8532 -0.0954 -0.3652
   16MOL0     C 2089  -0.494   1.628   5.455  0.8347 -0.3997  0.4311
   16MOL0     C 2090   0.170   1.520   5.842 -0.2629  0.3294 -0.7728
   16MOL0     C 2091   0.250   1.628   5.886  1.0858  0.3026 -0.8155
   16MOL0     C 2092   0.355   1.688   5.798  0.6627 -0.9978 -0.4892
   16MOL0     H 2093   0.489   1.966   6.077 -0.5534 -3.6889 -0.6258
   16MOL0     H 2094   0.661   2.111   6.199  1.7689  0.0431  1.5021
   16MOL0     H 2095   0.797   2.157   6.629 -1.0577  1.8691 -2.0538
   16MOL0     H 2096   0.739   2.001   6.644 -1.0826  3.9806  3.6746
   16MOL0     H 2097   0.927   2.064   6.410  1.0483 -0.1562  0.1588
   16MOL0     H 2098   0.884   1.910   6.456 -0.5015 -1.2832  1.6977
   16MOL0     H 2099   1.087   1.917   6.569 -0.1645 -0.1167 -0.5842
   16MOL0     H 2100   0.972   1.951   6.691  0.0638  1.1030  1.4965
   16MOL0     H 2101   1.120   2.145   6.522  1.8353 -1.9555  0.3130
   16MOL0     H 2102   1.005   2.214   6.645  0.9350  1.3446 -2.3785
   16MOL0     H 2103   1.238   2.039   6.729  4.8309  2.4521  0.6105
   16MOL0     H 2104   1.254   2.200   6.690  0.4570 -0.4772  0.5367
   16MOL0     H 2105   1.072   2.252   6.863 -2.3655 -1.9993  0.3080
   16MOL0     H 2106   1.095   2.074   6.914  1.8044 -1.1015 -0.4373
   16MOL0     H 2107   1.317   2.282   6.928  4.5852 -2.8593  0.3447
   16MOL0     H 2108   1.336   2.115   6.949 -1.4003 -1.6408 -0.1519
   16MOL0     H 2109   1.159   2.307   7.116 -0.6386  0.0541 -0.3890
   16MOL0     H 2110   1.134   2.136   7.135 -0.4935  0.3424  0.6215
   16MOL0     H 2111   1.374   1.993   7.209  5.0674 -0.2511  0.4964
   16MOL0     H 2112   1.507   1.929   7.433 -0.5851 -0.1298  2.0320
   16MOL0     H 2113   1.647   2.036   7.405  0.9094 -0.5062  2.7040
   16MOL0     H 2114   1.605   2.145   7.598  1.9025 -1.1746 -1.3377
   16MOL0     H 2115   1.440   2.084   7.626  1.2523  3.0467  2.2772
   16MOL0     H 2116   1.545   1.847   7.657 -0.5100 -0.1631  2.8218
   16MOL0     H 2117   1.600   1.965   7.771  2.3520 -1.4645 -0.0342
   16MOL0     H 2118   1.789   1.876   7.736 -0.9453 -2.3631 -1.2669
   16MOL0     H 2119   1.807   2.025   7.638 -2.6386  1.6899 -0.3495
   16MOL0     H 2120   1.887   1.759   7.297  1.3453  0.5570 -1.8632
   16MOL0     H 2121   2.104   1.781   7.207 -0.3460  0.5116 -0.3302
   16MOL0     H 2122   2.588   1.772   7.441  1.8470  0.5195  1.7506
   16MOL0     H 2123   2.803   1.759   7.355 -1.4025  0.0147  2.5225
   16MOL0     H 2124   2.990   2.136   7.161  0.2947  0.4684  0.0029
   16MOL0     H 2125   2.995   2.166   7.331  2.3069 -0.7843  1.3574
   16MOL0     H 2126   3.171   2.017   7.383  1.0646  0.5509 -0.2483
   16MOL0     H 2127   3.203   1.991   7.211 -0.9182  1.7782 -2.5488
   16MOL0     H 2128   3.243   2.256   7.188 -1.2270 -0.3595  0.6129
   16MOL0     H 2129   3.205   2.283   7.346  0.2361 -0.6830  0.5515
   16MOL0     H 2130   3.427   2.093   7.258 -1.3071 -1.7148  1.7585
   16MOL0     H 2131   3.360   2.115   7.424 -0.4983  1.5207  0.6223
   16MOL0     H 2132   3.516   2.315   7.253  1.0598 -2.1056  0.5657
   16MOL0     H 2133   3.561   2.232   7.417  0.5561  0.8929  1.2173
   16MOL0     H 2134   3.376   2.462   7.356 -0.9258 -0.5246  2.1713
   16MOL0     H 2135   3.374   2.354   7.502  1.2202 -0.2712  0.8211
   16MOL0     H 2136   3.590   2.435   7.553 -0.7550 -1.3608 -0.1640
   16MOL0     H 2137   3.494   2.576   7.523  0.9020 -1.3661  0.3137
   16MOL0     H 2138   3.724   2.564   7.438 -0.1615 -2.3971  1.0645
   16MOL0     H 2139   3.679   2.447   7.315 -2.8460  0.1170 -3.2300
   16MOL0     H 2140   2.779   2.182   7.248 -2.7400  1.0633  0.5616
   16MOL0     H 2141   2.562   2.200   7.314  2.2817  2.2489  4.3114
   16MOL0     H 2142   2.245   1.943   7.593  2.4190  1.6672 -2.8148
   16MOL0     H 2143   2.029   1.915   7.682  2.5981 -0.7104  0.0197
   16MOL0     H 2144   0.577   1.906   6.567  2.5211  0.8139 -0.2745
   16MOL0     H 2145   0.407   1.766   6.454 -0.8725 -2.1017 -2.2223
   16MOL0     H 2146   0.060   1.683   6.172  1.5496 -0.0033 -0.0845
   16MOL0     H 2147  -0.055   1.487   6.099  1.2447 -2.1910  0.1821
   16MOL0     H 2148  -0.180   1.429   5.880  3.6330 -1.7822  4.9083
   16MOL0     H 2149  -0.181   1.253   5.847  2.5569 -1.5606  1.3533
   16MOL0     H 2150  -0.109   1.322   5.603 -0.1460  0.5764 -0.8041
   16MOL0     H 2151  -0.084   1.469   5.672 -0.5099 -0.8291 -3.0522
   16MOL0     H 2152  -0.357   1.416   5.720  0.7253 -3.4719 -0.4528
   16MOL0     H 2153  -0.331   1.389   5.557 -2.9423 -0.7812  1.6237
   16MOL0     H 2154  -0.265   1.665   5.678  1.9632  1.4876 -1.0914
   16MOL0     H 2155  -0.210   1.605   5.516  0.6802 -3.6747 -1.0715
   16MOL0     H 2156  -0.572   1.630   5.381  2.6765 -1.7679 -1.7083
   16MOL0     H 2157   0.203   1.464   5.754  1.2440  1.5960 -1.0694
   16MOL0     H 2158   0.297   1.747   5.726 -3.0139 -3.0124  0.5264
   16MOL0     H 2159   0.416   1.758   5.855  0.0472 -1.2024  0.4452
   16MOL0     H 2160   0.419   1.618   5.743  1.7898 -0.3710 -0.0030
   17MOL0     O 2161   6.593   0.023  11.247 -0.6211  0.6609 -0.3455
   17MOL0     C 2162   6.558   0.137  11.215 -0.8782 -0.8860  1.0640
   17MOL0     O 2163   6.646   0.233  11.167  0.6043  0.7002 -0.3501
   17MOL0     C 2164   6.771   0.247  11.228 -0.3376 -1.2450 -0.8189
   17MOL0     C 2165   6.827   0.173  11.325  0.5470  0.3154  0.7849
   17MOL0     C 2166   6.936   0.215  11.400  0.3685  0.3290  0.3435
   17MOL0     C 2167   7.005   0.333  11.362  0.3766 -0.5650  0.9188
   17MOL0     O 2168   7.114   0.381  11.431 -0.6992 -0.5130  0.2162
   17MOL0     C 2169   7.106   0.514  11.486 -0.2996  0.4818  0.8562
   17MOL0     C 2170   7.018   0.510  11.609 -0.1277 -0.5139  0.1456
   17MOL0     C 2171   7.055   0.402  11.712  0.3983  0.4725  0.4547
   17MOL0     C 2172   6.930   0.324  11.764 -0.6325 -0.0062  0.0507
   17MOL0     C 2173   6.947   0.230  11.880 -0.1802  1.4703  0.3387
   17MOL0     C 2174   7.010   0.262  12.008 -0.7570 -0.2752 -0.5099
   17MOL0     C 2175   6.908   0.301  12.122 -0.8865  0.1176 -0.4744
   17MOL0     C 2176   6.857   0.183  12.216 -0.4401 -0.8453 -0.6291
   17MOL0     N 2177   6.729   0.133  12.170 -0.5517  1.2510 -0.1337
   17MOL0     C 2178   6.614   0.203  12.141  0.2787 -0.4338 -0.1219
   17MOL0     C 2179   6.507   0.114  12.131  0.8275  0.3646 -1.7636
   17MOL0     C 2180   6.370   0.154  12.102  0.0279  0.3786 -0.4932
   17MOL0     C 2181   6.256   0.045  12.116 -0.5748 -1.0323  0.2997
   17MOL0     C 2182   6.241  -0.018  12.253  0.0324 -0.0550 -0.1876
   17MOL0     C 2183   6.176  -0.160  12.239 -0.8310 -0.6500  0.4791
   17MOL0     O 2184   6.237  -0.257  12.144  0.5162 -0.2541 -0.2686
   17MOL0     C 2185   6.308  -0.360  12.204 -0.4406  0.6154  0.3986
   17MOL0     C 2186   6.436  -0.344  12.254  0.5973  0.6115 -1.6425
   17MOL0     C 2187   6.489  -0.458  12.331  0.2161  0.2087  0.1944
   17MOL0     C 2188   6.418  -0.581  12.342 -1.1968  0.3410  0.3810
   17MOL0     C 2189   6.491  -0.693  12.406  0.6125  0.0471  0.2766
   17MOL0     O 2190   6.593  -0.669  12.495  1.3429  0.0287  0.0181
   17MOL0     C 2191   6.627  -0.760  12.582 -0.0504 -0.1088 -0.3802
   17MOL0     C 2192   6.764  -0.807  12.581 -0.4054 -0.3286  0.7342
   17MOL0     C 2193   6.819  -0.894  12.677  0.4220  0.0999  0.6790
   17MOL0     C 2194   6.735  -0.943  12.776  0.8113  0.1833 -0.5557
   17MOL0     O 2195   6.783  -1.042  12.860  0.4064  0.0206 -0.2430
   17MOL0     C 2196   6.777  -1.022  12.996  0.0392 -0.2243 -0.3179
   17MOL0     C 2197   6.738  -1.153  13.063  0.7188 -0.1144  0.1769
   17MOL0     C 2198   6.699  -1.145  13.212 -0.9052  0.2233  0.4332
   17MOL0     C 2199   6.564  -1.076  13.219 -0.4144  0.6078 -0.5006
   17MOL0     C 2200   6.530  -1.024  13.359  0.7549  1.0477 -0.2234
   17MOL0     C 2201   6.480  -1.127  13.452 -0.1088  1.0897  0.3507
   17MOL0     C 2202   6.419  -1.038  13.573  0.9475  0.0849 -0.2315
   17MOL0     C 2203   6.276  -0.997  13.557 -0.1243 -0.7823  0.6896
   17MOL0    Cl 2204   6.154  -1.118  13.578 -0.3039  0.3157  0.2716
   17MOL0     C 2205   6.599  -0.902  12.777 -0.4521  0.4610 -0.8070
   17MOL0     C 2206   6.548  -0.805  12.690 -0.1652  0.1566 -0.1024
   17MOL0     O 2207   6.455  -0.804  12.364 -0.0525  0.1927 -0.2677
   17MOL0     C 2208   6.299  -0.591  12.282 -0.9503  0.5038 -0.5224
   17MOL0     C 2209   6.239  -0.482  12.218 -1.0697 -0.8784  0.4211
   17MOL0     N 2210   6.562  -0.013  12.137  0.7449 -0.1089 -0.1931
   17MOL0     N 2211   6.694   0.002  12.169 -0.4999 -0.6763 -0.2811
   17MOL0     C 2212   6.964   0.402  11.248 -0.0162  0.1055  0.3930
   17MOL0     C 2213   6.844   0.363  11.183  0.7317  0.3384  0.1006
   17MOL0     C 2214   6.416   0.158  11.203 -0.7099  0.5183  0.3709
   17MOL0     C 2215   6.363   0.285  11.185  0.0176  0.4638 -0.4403
   17MOL0     C 2216   6.241   0.315  11.190  0.2154 -0.4755 -0.3755
   17MOL0     C 2217   6.142   0.222  11.235  0.2709  0.3010 -0.9394
   17MOL0     O 2218   6.007   0.250  11.245 -0.4156 -0.6142  0.7989
   17MOL0     C 2219   5.971   0.379  11.278 -0.4642  0.2889  0.0032
   17MOL0     C 2220   5.875   0.375  11.393  0.7541  1.1958 -0.5336
   17MOL0     C 2221   5.948   0.337  11.525 -0.5507 -0.3699 -0.0795
   17MOL0     C 2222   5.930   0.192  11.566 -1.0165 -0.4671 -1.0556
   17MOL0     C 2223   5.962   0.175  11.708  0.1199 -0.5709 -0.0558
   17MOL0     C 2224   5.993   0.159  11.829  0.1794  0.1131 -0.6072
   17MOL0     C 2225   6.187   0.090  11.247  0.5263  0.6676 -0.6622
   17MOL0     C 2226   6.323   0.059  11.225 -0.4825 -0.0482 -0.1851
   17MOL0     C 2227   6.339  -0.081  11.241 -0.6240 -0.3163  0.2003
   17MOL0     H 2228   6.791   0.073  11.346  0.0535  0.0513 -1.1351
   17MOL0     H 2229   6.971   0.154  11.484  1.6680 -4.2445 -3.0948
   17MOL0     H 2230   7.204   0.550  11.518  0.5453  2.0538 -2.9565
   17MOL0     H 2231   7.080   0.592  11.415  2.0670  2.3690  1.8895
   17MOL0     H 2232   6.915   0.507  11.572  0.2107  0.3946 -0.9305
   17MOL0     H 2233   7.018   0.609  11.654 -0.1389 -0.3241 -0.2668
   17MOL0     H 2234   7.108   0.454  11.792  0.7834  0.5233  0.1713
   17MOL0     H 2235   7.125   0.335  11.661  1.0215  1.1803  0.3598
   17MOL0     H 2236   6.857   0.395  11.805 -0.6681 -0.0952  0.1435
   17MOL0     H 2237   6.882   0.276  11.679 -1.7082 -2.3604  1.8567
   17MOL0     H 2238   6.854   0.177  11.900  0.2578 -0.0424 -1.3726
   17MOL0     H 2239   7.013   0.161  11.825  1.7555  2.4933  1.2587
   17MOL0     H 2240   7.057   0.174  12.053 -3.0250 -0.6170  1.3915
   17MOL0     H 2241   7.085   0.341  11.993  0.8846 -1.4699  0.9529
   17MOL0     H 2242   6.838   0.368  12.071  2.0396  2.6274 -1.5137
   17MOL0     H 2243   6.944   0.371  12.198 -1.1830 -1.4729  1.1941
   17MOL0     H 2244   6.934   0.105  12.219 -0.0240 -0.4263 -0.1708
   17MOL0     H 2245   6.842   0.223  12.317  1.1435  0.0503 -0.7181
   17MOL0     H 2246   6.622   0.309  12.123 -1.3158 -0.2387  0.1683
   17MOL0     H 2247   6.332   0.242  12.155 -1.4949  2.0158 -3.9588
   17MOL0     H 2248   6.362   0.174  11.994  1.7894  1.3943 -0.4708
   17MOL0     H 2249   6.160   0.094  12.094 -0.7095 -2.6010 -3.3407
   17MOL0     H 2250   6.271  -0.020  12.029 -2.0877 -1.1760  0.1230
   17MOL0     H 2251   6.170   0.048  12.302  0.2580 -0.0557  0.1437
   17MOL0     H 2252   6.327  -0.019  12.321 -0.4042 -0.9267  0.3643
   17MOL0     H 2253   6.075  -0.137  12.203  0.0445  0.4865 -1.4443
   17MOL0     H 2254   6.197  -0.208  12.335  2.1282  0.7329  0.6439
   17MOL0     H 2255   6.485  -0.248  12.242  0.0267  1.0874 -0.3806
   17MOL0     H 2256   6.594  -0.450  12.358  0.4213 -0.1545 -0.4714
   17MOL0     H 2257   6.829  -0.775  12.500  0.9166  0.4784  2.0362
   17MOL0     H 2258   6.923  -0.924  12.676  0.6977  0.9922 -0.3298
   17MOL0     H 2259   6.881  -1.003  13.024  0.6083 -0.2661 -2.2845
   17MOL0     H 2260   6.709  -0.940  13.020  0.7761  0.6423 -1.1654
   17MOL0     H 2261   6.651  -1.190  13.008  1.3217 -0.0353 -0.8527
   17MOL0     H 2262   6.813  -1.230  13.045  0.5908  0.4093 -3.2573
   17MOL0     H 2263   6.669  -1.245  13.245 -2.4486 -0.4914 -2.7254
   17MOL0     H 2264   6.777  -1.110  13.280  0.8823 -0.6814 -1.0332
   17MOL0     H 2265   6.483  -1.147  13.204 -3.1999  2.5550  3.6310
   17MOL0     H 2266   6.554  -0.997  13.144 -2.4507  0.5027 -0.3897
   17MOL0     H 2267   6.449  -0.951  13.348  1.3875  1.7833 -0.1054
   17MOL0     H 2268   6.612  -0.982  13.418  0.5117 -0.4139  1.2200
   17MOL0     H 2269   6.403  -1.191  13.409  0.8061 -0.1143  0.4737
   17MOL0     H 2270   6.552  -1.193  13.501  1.7242  1.0725 -2.2102
   17MOL0     H 2271   6.477  -0.946  13.586 -0.1875  0.7585  0.1655
   17MOL0     H 2272   6.435  -1.091  13.667  4.0103  1.3384  0.0868
   17MOL0     H 2273   6.258  -0.913  13.624  1.9400  1.7680 -1.6967
   17MOL0     H 2274   6.264  -0.936  13.467 -3.8083  0.3795  1.7629
   17MOL0     H 2275   6.539  -0.933  12.862  0.0600  2.8790  0.5331
   17MOL0     H 2276   6.452  -0.756  12.701  0.2038  0.5460  1.7502
   17MOL0     H 2277   6.230  -0.674  12.275  0.6755 -0.9888  0.4313
   17MOL0     H 2278   6.137  -0.489  12.179 -1.3017  3.2956 -0.1852
   17MOL0     H 2279   7.026   0.490  11.235  2.2029 -0.7959  3.5559
   17MOL0     H 2280   6.804   0.418  11.098  2.1026  3.1557  1.1534
   17MOL0     H 2281   6.438   0.362  11.171  0.4833 -0.2930 -2.2640
   17MOL0     H 2282   6.208   0.410  11.150  0.6133  0.4632  1.4241
   17MOL0     H 2283   5.931   0.433  11.192 -0.8059  1.7394  1.0493
   17MOL0     H 2284   6.055   0.434  11.322 -0.7758  0.0018  0.9705
   17MOL0     H 2285   5.798   0.300  11.374 -1.6990  3.7395 -1.2987
   17MOL0     H 2286   5.827   0.473  11.403 -1.4668  0.5574 -3.5940
   17MOL0     H 2287   5.895   0.396  11.600 -0.3824  0.9418 -0.9501
   17MOL0     H 2288   6.044   0.385  11.545 -1.0719  0.1152  1.3511
   17MOL0     H 2289   5.823   0.169  11.568 -1.1259 -0.0204 -1.5111
   17MOL0     H 2290   5.992   0.128  11.503  1.7276  3.1995 -2.4553
   17MOL0     H 2291   6.005   0.116  11.926  1.1194 -0.1528 -0.8330
   17MOL0     H 2292   6.110   0.017  11.269  1.3070  0.4575  1.7680
   17MOL0     H 2293   6.420  -0.108  11.173 -0.6075 -2.1890  0.8959
   17MOL0     H 2294   6.372  -0.100  11.344  2.0664  0.6734 -0.3897
   17MOL0     H 2295   6.249  -0.142  11.228  0.3970 -2.3681  2.0091
   18MOL0     O 2296   9.632   7.706  10.504 -0.8321 -0.5316 -0.1753
   18MOL0     C 2297   9.711   7.790  10.475 -0.1366  0.1457 -1.3029
   18MOL0     O 2298   9.766   7.803  10.350 -0.6434  0.0968  0.0400
   18MOL0     C 2299   9.756   7.712  10.248  0.0274 -0.4991  0.3459
   18MOL0     C 2300   9.819   7.762  10.137 -0.0684 -0.4306  0.4447
   18MOL0     C 2301   9.828   7.681  10.017  0.2859 -0.1023 -0.0077
   18MOL0     C 2302   9.778   7.549  10.019  1.4949 -0.4683 -0.1089
   18MOL0     O 2303   9.796   7.479   9.912  0.0660  1.1680  1.0922
   18MOL0     C 2304   9.696   7.493   9.810  0.6078  0.7296 -1.0260
   18MOL0     C 2305   9.747   7.417   9.684  0.0206 -0.5925  1.0466
   18MOL0     C 2306   9.863   7.492   9.620 -0.8112  0.2949  0.4386
   18MOL0     C 2307   9.933   7.445   9.496 -0.3185 -0.1326  0.2463
   18MOL0     C 2308   9.831   7.421   9.385  0.3697 -0.3346 -0.3741
   18MOL0     C 2309   9.910   7.384   9.257 -0.7378  0.1886  0.8992
   18MOL0     C 2310   9.828   7.336   9.145 -0.1261  0.2203  0.6768
   18MOL0     C 2311   9.924   7.268   9.049  0.9647  0.0939 -0.9671
   18MOL0     N 2312   9.876   7.243   8.915 -0.0746  0.0697  0.7021
   18MOL0     C 2313   9.772   7.164   8.876  0.5635  0.6157 -0.0734
   18MOL0     C 2314   9.773   7.171   8.744  0.4291 -0.4628  0.5722
   18MOL0     C 2315   9.689   7.078   8.665  0.1943  0.0339 -0.4453
   18MOL0     C 2316   9.611   7.157   8.558  0.0711 -0.5702  0.2984
   18MOL0     C 2317   9.536   7.059   8.474  0.4251  0.9295  0.1828
   18MOL0     C 2318   9.472   7.124   8.352  0.6778  0.1685  0.8253
   18MOL0     O 2319   9.452   7.012   8.258  0.5926  0.5288  0.0362
   18MOL0     C 2320   9.451   7.043   8.128 -0.3356 -0.8562  0.3136
   18MOL0     C 2321   9.406   7.171   8.085  0.9074  0.5851 -0.9781
   18MOL0     C 2322   9.383   7.198   7.949  0.8351  0.2414  0.4292
   18MOL0     C 2323   9.388   7.091   7.855 -0.7226  0.3138 -0.3984
   18MOL0     C 2324   9.362   7.134   7.713  0.4943  0.2413 -0.1403
   18MOL0     O 2325   9.306   7.264   7.704 -0.1388  0.6232  0.3324
   18MOL0     C 2326   9.294   7.311   7.574 -0.0967  0.3576 -0.2067
   18MOL0     C 2327   9.381   7.408   7.534  0.1884 -0.4871 -0.4474
   18MOL0     C 2328   9.350   7.467   7.412  0.6644 -0.5928 -0.0549
   18MOL0     C 2329   9.250   7.414   7.327 -0.1991  0.1777 -0.0604
   18MOL0     O 2330   9.251   7.479   7.210  0.4626  0.3355  0.0401
   18MOL0     C 2331   9.137   7.460   7.120 -0.0307 -0.4900  0.3869
   18MOL0     C 2332   9.179   7.363   6.995  0.9403 -0.0889 -0.3415
   18MOL0     C 2333   9.064   7.355   6.892 -0.1371 -0.0319 -0.0989
   18MOL0     C 2334   9.084   7.247   6.795  0.2450  0.6811  0.0036
   18MOL0     C 2335   8.991   7.258   6.680  0.7507  0.4938 -0.8330
   18MOL0     C 2336   9.032   7.193   6.554  0.2170  0.3011 -0.3261
   18MOL0     C 2337   9.072   7.042   6.564 -0.4584  0.2196 -1.0646
   18MOL0     C 2338   9.081   6.976   6.428  0.6011 -0.4625 -0.1338
   18MOL0    Cl 2339   9.244   7.019   6.373 -0.1450 -0.0053 -0.1477
   18MOL0     C 2340   9.156   7.312   7.355 -0.2383  0.5328 -0.5739
   18MOL0     C 2341   9.191   7.256   7.487 -0.3232  0.0227 -0.5761
   18MOL0     O 2342   9.381   7.058   7.624 -0.2108  0.2759 -0.3212
   18MOL0     C 2343   9.436   6.967   7.896  0.6241 -0.2549 -0.1212
   18MOL0     C 2344   9.459   6.945   8.026 -0.3736  0.0577 -0.4244
   18MOL0     N 2345   9.851   7.277   8.707  0.6727 -0.3285 -0.1656
   18MOL0     N 2346   9.918   7.307   8.803 -0.0143 -0.6761 -0.1442
   18MOL0     C 2347   9.726   7.499  10.135  0.5234 -0.6833  0.1640
   18MOL0     C 2348   9.715   7.575  10.249  0.0536 -0.5486 -0.4073
   18MOL0     C 2349   9.746   7.904  10.566  0.8408 -0.5155 -0.4458
   18MOL0     C 2350   9.644   7.953  10.658 -0.2202  0.6944  0.4120
   18MOL0     C 2351   9.667   8.063  10.746 -1.2686  1.1625 -0.4065
   18MOL0     C 2352   9.791   8.117  10.751 -0.6456 -0.5781  0.2738
   18MOL0     O 2353   9.814   8.232  10.821 -0.1184  0.2045  0.1145
   18MOL0     C 2354   9.946   8.263  10.873  0.6646 -0.3210  0.3636
   18MOL0     C 2355  10.010   8.359  10.765  0.3374 -0.3648  1.0689
   18MOL0     C 2356  10.145   8.418  10.820 -0.1279  0.5624  0.4515
   18MOL0     C 2357  10.188   8.550  10.749  0.8720 -0.2991  0.0112
   18MOL0     C 2358  10.295   8.611  10.818  0.7461 -0.3705 -0.0677
   18MOL0     C 2359  10.385   8.661  10.879 -0.2181 -1.0170 -0.3817
   18MOL0     C 2360   9.891   8.065  10.667 -0.0097 -0.5200 -0.4738
   18MOL0     C 2361   9.877   7.961  10.577  0.4325 -0.6601  0.2811
   18MOL0     C 2362   9.983   7.927  10.482  0.1203 -0.8669  0.3435
   18MOL0     H 2363   9.853   7.864  10.128  0.5296 -0.7975 -2.4610
   18MOL0     H 2364   9.896   7.708   9.937 -0.4727 -1.7615 -1.2674
   18MOL0     H 2365   9.600   7.449   9.837  0.8861 -0.7627 -2.3087
   18MOL0     H 2366   9.676   7.600   9.802  3.7832  1.4676 -0.3832
   18MOL0     H 2367   9.674   7.424   9.602 -1.0870  0.2884  2.0644
   18MOL0     H 2368   9.772   7.312   9.700 -2.3204 -1.8285 -2.2990
   18MOL0     H 2369   9.942   7.484   9.696  0.6608  2.0918 -0.8140
   18MOL0     H 2370   9.843   7.599   9.607  0.3311  0.6005  1.0521
   18MOL0     H 2371  10.013   7.508   9.456 -0.1070 -0.6790 -0.1987
   18MOL0     H 2372   9.975   7.346   9.516 -0.1792 -0.0405  0.4113
   18MOL0     H 2373   9.762   7.337   9.399  0.0612 -0.2467 -1.3002
   18MOL0     H 2374   9.767   7.510   9.378 -1.0340 -1.1427  1.2670
   18MOL0     H 2375   9.961   7.474   9.221 -3.1373  1.9968  1.7630
   18MOL0     H 2376   9.982   7.307   9.284  0.0102  1.8372  4.1657
   18MOL0     H 2377   9.767   7.407   9.090 -2.2999 -3.4477 -2.0907
   18MOL0     H 2378   9.764   7.262   9.193 -0.4679  0.3032  0.3457
   18MOL0     H 2379  10.016   7.326   9.040  2.8899 -2.3807  1.0766
   18MOL0     H 2380   9.954   7.169   9.086  3.0310  0.5396 -1.3413
   18MOL0     H 2381   9.716   7.107   8.949  0.7662  2.1444  1.3589
   18MOL0     H 2382   9.746   7.005   8.608  0.9700  2.7786 -3.4962
   18MOL0     H 2383   9.610   7.035   8.728  1.1483 -1.2016 -0.0722
   18MOL0     H 2384   9.563   7.251   8.584  0.5822  0.9266 -3.5071
   18MOL0     H 2385   9.681   7.192   8.481 -0.8950  0.1584 -0.2694
   18MOL0     H 2386   9.466   7.006   8.539  0.2741  0.2077 -0.5496
   18MOL0     H 2387   9.605   6.986   8.429 -0.7198  1.1791 -2.1671
   18MOL0     H 2388   9.535   7.188   8.290  0.0211 -2.5320 -2.9804
   18MOL0     H 2389   9.381   7.179   8.373  2.6408  3.1472  2.1757
   18MOL0     H 2390   9.396   7.246   8.163  4.0329  1.9234 -1.6989
   18MOL0     H 2391   9.352   7.300   7.928  4.5554  1.5671  0.5347
   18MOL0     H 2392   9.463   7.444   7.596 -1.4914  1.3446  0.8086
   18MOL0     H 2393   9.419   7.543   7.378 -0.1473  0.2927  0.2385
   18MOL0     H 2394   9.042   7.430   7.165  1.3044 -1.3667  2.8050
   18MOL0     H 2395   9.123   7.563   7.083  1.6339 -0.3365  0.1067
   18MOL0     H 2396   9.275   7.377   6.945  2.0807  0.8076  1.9094
   18MOL0     H 2397   9.183   7.258   7.024  0.0300  0.4630  2.0443
   18MOL0     H 2398   8.979   7.331   6.956 -0.2918 -1.2049 -0.7225
   18MOL0     H 2399   9.047   7.451   6.843 -1.0988 -1.2825 -2.3591
   18MOL0     H 2400   9.080   7.153   6.851  0.0228  1.3548  1.1544
   18MOL0     H 2401   9.185   7.252   6.752 -0.2077  0.3528 -1.1178
   18MOL0     H 2402   8.978   7.363   6.653  4.6593  0.7568 -2.4648
   18MOL0     H 2403   8.906   7.202   6.720  1.9887  0.9349  2.8759
   18MOL0     H 2404   8.958   7.205   6.474  2.3064  0.8188 -2.2681
   18MOL0     H 2405   9.119   7.251   6.523  1.0084  0.3859  1.8942
   18MOL0     H 2406   8.993   7.001   6.628  0.7741  1.4016  1.3426
   18MOL0     H 2407   9.165   7.017   6.615 -0.6009 -2.7267 -2.0543
   18MOL0     H 2408   9.064   6.868   6.432 -0.2482 -0.3133  3.4098
   18MOL0     H 2409   9.009   7.025   6.361 -0.4886 -0.6760  0.8459
   18MOL0     H 2410   9.080   7.267   7.292 -1.6406  0.6015  0.9804
   18MOL0     H 2411   9.122   7.177   7.515 -1.7664  0.9116 -1.4573
   18MOL0     H 2412   9.454   6.893   7.820  3.0163  0.8922 -0.7879
   18MOL0     H 2413   9.475   6.844   8.062  1.7789  0.8483  1.0583
   18MOL0     H 2414   9.678   7.402  10.134 -2.0056  0.4606  1.3844
   18MOL0     H 2415   9.686   7.526  10.342  1.9110  1.5951  1.4294
   18MOL0     H 2416   9.539   7.926  10.650  0.0170 -0.4994  1.0612
   18MOL0     H 2417   9.580   8.096  10.803 -0.4285  0.4768  1.3468
   18MOL0     H 2418  10.012   8.180  10.899  0.8172  0.3424  2.1905
   18MOL0     H 2419   9.935   8.318  10.966  0.5405  0.4155 -0.0800
   18MOL0     H 2420   9.945   8.445  10.751  2.9237  1.7379  1.1736
   18MOL0     H 2421  10.034   8.302  10.675  4.2379  0.6755  1.2687
   18MOL0     H 2422  10.222   8.342  10.806 -2.5402 -2.1724  1.0471
   18MOL0     H 2423  10.137   8.450  10.924 -0.6173  2.5469 -0.1615
   18MOL0     H 2424  10.220   8.527  10.647 -0.5172  1.5056 -0.9096
   18MOL0     H 2425  10.108   8.626  10.749  1.7071  0.6559  2.0740
   18MOL0     H 2426  10.471   8.708  10.921  0.1857 -0.1126 -2.1324
   18MOL0     H 2427   9.995   8.091  10.682  0.3557 -0.0431 -3.2350
   18MOL0     H 2428   9.968   7.971  10.383  0.5080  1.9398  1.4457
   18MOL0     H 2429  10.079   7.969  10.513 -0.8018  1.4784  0.2194
   18MOL0     H 2430   9.999   7.819  10.480  0.6501 -0.8064 -2.4947
   19MOL0     O 2431  10.871   4.987   0.844  0.1258 -0.3040 -0.3152
   19MOL0     C 2432  10.843   4.958   0.959  0.0628 -0.6595  0.4809
   19MOL0     O 2433  10.726   4.912   1.007  0.0164 -0.1568  0.2337
   19MOL0     C 2434  10.609   4.918   0.939  0.4450  0.7760  0.1822
   19MOL0     C 2435  10.581   4.992   0.824  1.0843  0.5937  0.2598
   19MOL0     C 2436  10.452   4.983   0.755  0.5585 -0.1464 -0.0542
   19MOL0     C 2437  10.346   4.912   0.819  1.2434  0.2472 -0.0222
   19MOL0     O 2438  10.224   4.924   0.752 -0.3328  0.2727 -0.0096
   19MOL0     C 2439  10.103   4.891   0.831  0.2001 -0.6296  0.2159
   19MOL0     C 2440   9.981   4.939   0.736  0.3033 -0.2803 -0.3729
   19MOL0     C 2441   9.852   4.914   0.814 -0.2386  0.3648  0.1552
   19MOL0     C 2442   9.755   5.036   0.797  0.1087 -0.8897 -0.1465
   19MOL0     C 2443   9.629   5.007   0.877  0.4071 -0.0620  0.7045
   19MOL0     C 2444   9.526   5.122   0.848 -0.4588  0.1906  0.5923
   19MOL0     C 2445   9.411   5.116   0.946  0.7106 -0.1747  0.8173
   19MOL0     C 2446   9.313   5.230   0.916 -0.6269  0.2532 -0.1772
   19MOL0     N 2447   9.378   5.359   0.936  0.1256 -0.2029  0.8203
   19MOL0     C 2448   9.368   5.424   1.054  0.3416 -0.5317 -0.7828
   19MOL0     C 2449   9.393   5.550   1.010 -0.3885 -0.6438 -1.2777
   19MOL0     C 2450   9.353   5.668   1.100 -0.1083  0.2821  0.1306
   19MOL0     C 2451   9.207   5.685   1.084  1.2350  0.3858  0.3689
   19MOL0     C 2452   9.170   5.751   0.948 -0.2240 -0.5667  0.9135
   19MOL0     C 2453   9.032   5.828   0.959 -0.2153 -0.0869 -0.2821
   19MOL0     O 2454   8.919   5.750   0.997  0.2150 -1.4138  0.2489
   19MOL0     C 2455   8.813   5.821   1.051  0.9446  0.3593 -0.4186
   19MOL0     C 2456   8.734   5.769   1.159 -0.2069 -0.2836  0.4525
   19MOL0     C 2457   8.621   5.832   1.213  0.2668  0.3317 -0.3402
   19MOL0     C 2458   8.582   5.960   1.156  0.5145  0.7306 -0.6416
   19MOL0     C 2459   8.464   6.033   1.208 -0.4299 -0.0215 -0.2710
   19MOL0     O 2460   8.384   5.970   1.297 -0.0816  0.2176 -0.6494
   19MOL0     C 2461   8.286   6.045   1.356 -1.1953  0.0633  0.2738
   19MOL0     C 2462   8.193   6.112   1.272  0.6343 -1.0588  0.5369
   19MOL0     C 2463   8.082   6.180   1.321  0.2807  0.2495  0.3091
   19MOL0     C 2464   8.064   6.180   1.464 -0.2412 -0.0891 -0.0672
   19MOL0     O 2465   7.961   6.250   1.521 -0.4709  0.1548 -0.4624
   19MOL0     C 2466   7.994   6.382   1.508  0.6637 -0.4053  1.1619
   19MOL0     C 2467   7.890   6.470   1.591  0.7093  0.1816 -0.5495
   19MOL0     C 2468   7.911   6.610   1.558 -0.1745 -0.6032 -0.7453
   19MOL0     C 2469   8.023   6.674   1.647 -0.3728 -0.4115 -0.1334
   19MOL0     C 2470   8.000   6.833   1.663 -0.8620  0.9401  0.5854
   19MOL0     C 2471   7.983   6.906   1.524  0.4046  0.1131 -0.8919
   19MOL0     C 2472   7.984   7.057   1.541  0.6435  0.5166 -0.5480
   19MOL0     C 2473   8.123   7.110   1.563  0.8832 -0.1064  0.5325
   19MOL0    Cl 2474   8.108   7.285   1.559 -0.3613 -0.2598  0.6285
   19MOL0     C 2475   8.153   6.115   1.548  0.0271  0.3585 -0.2981
   19MOL0     C 2476   8.266   6.042   1.492 -0.4342  0.3876 -0.0797
   19MOL0     O 2477   8.453   6.145   1.167 -0.4657  0.2696 -0.5954
   19MOL0     C 2478   8.654   6.018   1.045 -0.0583 -0.0140  0.4618
   19MOL0     C 2479   8.762   5.945   0.994 -0.2533  1.1438  0.2061
   19MOL0     N 2480   9.448   5.556   0.889 -0.7145 -0.0540  0.3351
   19MOL0     N 2481   9.429   5.435   0.835  0.0743 -0.2532 -0.3462
   19MOL0     C 2482  10.374   4.842   0.941 -0.0858 -0.3226  0.5593
   19MOL0     C 2483  10.504   4.839   0.995 -0.2896  0.2817  0.5525
   19MOL0     C 2484  10.948   4.994   1.055  0.6326 -0.1546  0.2894
   19MOL0     C 2485  10.946   4.924   1.171 -0.5138 -0.2223 -0.5357
   19MOL0     C 2486  11.058   4.920   1.258  0.2271  0.0801  1.1527
   19MOL0     C 2487  11.164   5.003   1.237 -0.2284 -1.0836 -0.0770
   19MOL0     O 2488  11.270   5.017   1.319 -0.3389 -0.3240  0.0294
   19MOL0     C 2489  11.280   4.926   1.426 -0.4330 -0.1937 -0.6554
   19MOL0     C 2490  11.358   4.800   1.384  0.0633 -0.2176 -0.5422
   19MOL0     C 2491  11.383   4.706   1.500  0.8844 -0.1155  0.6592
   19MOL0     C 2492  11.425   4.578   1.444 -0.7322 -0.0661  0.4698
   19MOL0     C 2493  11.385   4.475   1.546 -0.6454 -0.0328  0.0654
   19MOL0     C 2494  11.359   4.410   1.649  0.1214  0.1346  0.2147
   19MOL0     C 2495  11.162   5.089   1.124 -0.4412 -0.1860 -0.3745
   19MOL0     C 2496  11.062   5.092   1.037  0.5315  0.4677  0.3523
   19MOL0     C 2497  11.075   5.182   0.914  0.4147  0.1471 -0.4538
   19MOL0     H 2498  10.663   5.041   0.772  1.3999 -2.4078 -2.3366
   19MOL0     H 2499  10.443   5.040   0.663  0.6016  0.7956  0.5051
   19MOL0     H 2500  10.088   4.784   0.845 -2.0372 -0.5220 -0.8969
   19MOL0     H 2501  10.112   4.939   0.930 -5.0646 -1.1745  1.2581
   19MOL0     H 2502   9.987   4.884   0.642 -0.2609 -0.6700 -0.1861
   19MOL0     H 2503   9.979   5.046   0.715 -0.3154 -0.2509 -0.1761
   19MOL0     H 2504   9.891   4.898   0.915  1.1915 -0.1850 -0.4651
   19MOL0     H 2505   9.804   4.820   0.785  2.1610 -0.9557  0.2507
   19MOL0     H 2506   9.803   5.125   0.837 -0.3444 -0.4921 -0.4855
   19MOL0     H 2507   9.726   5.047   0.692 -2.0725 -0.3445  0.4712
   19MOL0     H 2508   9.596   4.910   0.838  2.6805 -0.3131 -0.7960
   19MOL0     H 2509   9.657   4.993   0.982  1.4699 -2.5148  0.1694
   19MOL0     H 2510   9.585   5.211   0.869  1.1760 -0.8165  0.4642
   19MOL0     H 2511   9.499   5.126   0.742  2.4230 -3.8426 -0.5853
   19MOL0     H 2512   9.439   5.111   1.052 -0.3324 -3.1596  1.0403
   19MOL0     H 2513   9.359   5.023   0.921 -1.2728  1.0620  0.1092
   19MOL0     H 2514   9.269   5.205   0.819 -1.2591 -0.8761  0.3899
   19MOL0     H 2515   9.227   5.215   0.982 -1.0540 -2.5920 -1.2492
   19MOL0     H 2516   9.329   5.383   1.147 -0.8560  3.6361  0.7604
   19MOL0     H 2517   9.382   5.640   1.202 -1.2041  3.1153  1.2934
   19MOL0     H 2518   9.414   5.757   1.086  2.7336 -1.5380  0.0072
   19MOL0     H 2519   9.149   5.592   1.076 -0.1504  1.3944 -2.4818
   19MOL0     H 2520   9.155   5.729   1.170 -1.0153  0.8526 -1.1444
   19MOL0     H 2521   9.149   5.667   0.880  0.9244 -0.6298  0.6208
   19MOL0     H 2522   9.240   5.826   0.910 -1.1030  1.7616  3.5564
   19MOL0     H 2523   9.013   5.880   0.865 -1.9358 -5.3707 -3.2768
   19MOL0     H 2524   9.049   5.904   1.036 -0.1577 -0.7252  0.3506
   19MOL0     H 2525   8.767   5.672   1.196  2.9091  0.6594  0.4405
   19MOL0     H 2526   8.560   5.789   1.292  1.5566 -2.1547 -0.5987
   19MOL0     H 2527   8.205   6.123   1.165 -0.2097 -2.9495  0.1992
   19MOL0     H 2528   7.995   6.222   1.271 -0.2560  0.8444  1.6902
   19MOL0     H 2529   8.095   6.405   1.543  0.9760  4.0850 -1.7808
   19MOL0     H 2530   7.987   6.421   1.406 -0.9887 -1.5505  0.8000
   19MOL0     H 2531   7.791   6.441   1.556  0.6414  0.7099 -0.8100
   19MOL0     H 2532   7.902   6.448   1.697  3.4905  1.6935 -0.4369
   19MOL0     H 2533   7.934   6.628   1.452  0.6302 -0.7509 -0.6014
   19MOL0     H 2534   7.821   6.666   1.582  0.9749  1.2672 -0.6282
   19MOL0     H 2535   8.120   6.659   1.598 -1.3150  0.3842 -2.3545
   19MOL0     H 2536   8.027   6.645   1.753  0.0178  1.5258  0.4434
   19MOL0     H 2537   8.088   6.870   1.717 -2.2666  2.1401  2.1276
   19MOL0     H 2538   7.909   6.841   1.723  0.3456 -2.3839  3.1660
   19MOL0     H 2539   8.068   6.890   1.456 -0.0335 -2.3196 -0.9763
   19MOL0     H 2540   7.895   6.869   1.470 -0.2319 -0.3336  0.4185
   19MOL0     H 2541   7.919   7.075   1.627 -1.3754  0.9710 -2.1191
   19MOL0     H 2542   7.941   7.105   1.453 -1.8500  2.0699  1.3984
   19MOL0     H 2543   8.167   7.069   1.655  1.7266 -1.3319 -0.3898
   19MOL0     H 2544   8.187   7.069   1.485  3.2439 -1.2829  2.9141
   19MOL0     H 2545   8.123   6.118   1.652 -1.0240  2.1090 -0.6183
   19MOL0     H 2546   8.330   5.978   1.552  0.6134 -0.8287 -2.3574
   19MOL0     H 2547   8.609   6.098   0.988  1.0451 -0.9215 -1.8264
   19MOL0     H 2548   8.798   5.977   0.897 -0.8670 -1.2003 -0.8850
   19MOL0     H 2549  10.294   4.791   0.994 -0.2330 -1.4466 -0.7026
   19MOL0     H 2550  10.527   4.781   1.084  2.2299 -3.1826 -2.0773
   19MOL0     H 2551  10.858   4.866   1.196  1.1458 -2.0498  1.3717
   19MOL0     H 2552  11.048   4.843   1.334 -0.5675 -1.3181 -0.2870
   19MOL0     H 2553  11.186   4.903   1.478 -1.6148  1.1194 -2.1260
   19MOL0     H 2554  11.337   4.974   1.505 -2.0515  0.6433  0.0572
   19MOL0     H 2555  11.445   4.832   1.326 -1.0866  0.6834 -1.8308
   19MOL0     H 2556  11.287   4.748   1.319 -0.2493 -1.2987  0.6273
   19MOL0     H 2557  11.298   4.706   1.569 -1.8665  0.7202 -2.5038
   19MOL0     H 2558  11.466   4.743   1.561  0.5711  2.6277 -0.4179
   19MOL0     H 2559  11.374   4.550   1.351  1.3194 -2.7778  0.0143
   19MOL0     H 2560  11.529   4.560   1.414 -1.0535 -0.8336 -0.2295
   19MOL0     H 2561  11.345   4.354   1.739  0.9559  1.9325  1.5230
   19MOL0     H 2562  11.234   5.168   1.110  1.6418 -2.1277 -1.2352
   19MOL0     H 2563  11.129   5.122   0.841 -0.5379  1.0533 -1.9815
   19MOL0     H 2564  10.983   5.211   0.861  0.6802  1.1230 -0.3953
   19MOL0     H 2565  11.127   5.277   0.931  0.1312  0.0662  0.9559
   20MOL0     O 2566   4.822   2.604   4.566 -0.6907  0.9969  0.0273
   20MOL0     C 2567   4.775   2.650   4.464  0.6319  0.2707  1.7018
   20MOL0     O 2568   4.795   2.779   4.416  0.1968 -0.1847 -0.6953
   20MOL0     C 2569   4.884   2.853   4.493  0.4286  0.0911  0.4680
   20MOL0     C 2570   4.840   2.917   4.607  0.0599  0.1144  0.0538
   20MOL0     C 2571   4.923   2.982   4.701  0.2036 -0.7199  0.3858
   20MOL0     C 2572   5.063   2.989   4.666  0.0149 -0.1977 -0.8418
   20MOL0     O 2573   5.147   3.057   4.753  0.4373 -0.1473  0.7837
   20MOL0     C 2574   5.105   3.193   4.778 -0.7513 -0.3873  0.4654
   20MOL0     C 2575   5.166   3.293   4.675 -0.0633  1.7608 -0.1474
   20MOL0     C 2576   5.118   3.439   4.693 -0.2735  0.2532 -0.7851
   20MOL0     C 2577   4.995   3.470   4.623 -0.6312 -0.0502  0.8694
   20MOL0     C 2578   4.952   3.621   4.632  0.8432 -0.4695  0.2438
   20MOL0     C 2579   4.809   3.640   4.572  0.3100 -0.3158  0.3309
   20MOL0     C 2580   4.788   3.785   4.561  1.6164 -0.9206  0.0377
   20MOL0     C 2581   4.776   3.860   4.693 -0.6052 -0.2325  0.0881
   20MOL0     N 2582   4.650   3.831   4.779 -0.1667  0.4262 -0.7299
   20MOL0     C 2583   4.524   3.883   4.752  0.6922 -0.0503 -0.0937
   20MOL0     C 2584   4.445   3.824   4.845 -0.5502  0.4501 -0.2501
   20MOL0     C 2585   4.297   3.838   4.850 -0.9012  0.3310  0.3895
   20MOL0     C 2586   4.244   3.898   4.978  0.3735 -0.4951 -0.2377
   20MOL0     C 2587   4.260   4.046   4.988  0.3498 -0.2836  0.5067
   20MOL0     C 2588   4.387   4.082   5.066  0.7525  0.2923 -0.8765
   20MOL0     O 2589   4.356   4.132   5.208  1.0379 -0.4330  0.6456
   20MOL0     C 2590   4.293   4.248   5.240 -0.7896  0.2649  0.9072
   20MOL0     C 2591   4.325   4.295   5.368  0.4126 -1.2383  1.0392
   20MOL0     C 2592   4.247   4.395   5.431 -0.5628  0.2357  0.6036
   20MOL0     C 2593   4.152   4.462   5.363  0.3611 -0.7470  1.4527
   20MOL0     C 2594   4.082   4.579   5.429 -0.0728  0.0344  0.7069
   20MOL0     O 2595   4.096   4.586   5.564 -0.2875  0.5287  0.6050
   20MOL0     C 2596   4.060   4.701   5.638  0.0582  0.2591  0.5710
   20MOL0     C 2597   4.072   4.832   5.595  0.0389 -0.5924 -0.3446
   20MOL0     C 2598   4.058   4.930   5.697  0.5549  0.5796  0.3210
   20MOL0     C 2599   4.020   4.905   5.827  1.0767 -0.6919  0.0834
   20MOL0     O 2600   4.006   5.017   5.910 -0.3188  0.0007 -0.2758
   20MOL0     C 2601   3.937   5.001   6.035  1.1200 -0.3755  1.1729
   20MOL0     C 2602   3.791   4.967   5.996 -0.4754  0.2161 -0.0071
   20MOL0     C 2603   3.700   4.977   6.127  0.3472 -0.3457  1.5224
   20MOL0     C 2604   3.754   4.901   6.240 -0.8415 -0.4054  0.2937
   20MOL0     C 2605   3.643   4.881   6.342  0.8768  1.1210 -0.2859
   20MOL0     C 2606   3.699   4.819   6.469 -0.9697  0.1973 -0.3267
   20MOL0     C 2607   3.585   4.821   6.575  0.0574 -0.7975  0.2994
   20MOL0     C 2608   3.636   4.779   6.709  0.2979  0.2690  0.9323
   20MOL0    Cl 2609   3.750   4.891   6.775  0.3788  0.0309 -0.0970
   20MOL0     C 2610   4.007   4.767   5.859  0.3057 -0.0123  0.0912
   20MOL0     C 2611   4.016   4.667   5.768  0.7781 -0.2770  0.4153
   20MOL0     O 2612   4.013   4.658   5.365  0.0804 -0.6118 -0.4248
   20MOL0     C 2613   4.134   4.432   5.226 -0.1066 -0.1604 -0.3442
   20MOL0     C 2614   4.205   4.324   5.164  0.4916  0.4445 -0.1524
   20MOL0     N 2615   4.520   3.742   4.923 -0.0092  1.0773 -0.3791
   20MOL0     N 2616   4.641   3.742   4.883  0.2220  0.9146 -1.4074
   20MOL0     C 2617   5.108   2.911   4.555 -0.2056 -0.6336 -0.3848
   20MOL0     C 2618   5.023   2.853   4.466 -0.3051  0.4285  0.5677
   20MOL0     C 2619   4.673   2.565   4.394 -0.1263 -0.6769 -0.6119
   20MOL0     C 2620   4.622   2.459   4.473 -0.5395 -0.0868 -0.0216
   20MOL0     C 2621   4.528   2.375   4.417 -0.8898 -0.9085 -0.3954
   20MOL0     C 2622   4.477   2.389   4.289  0.4440  0.4879  0.0152
   20MOL0     O 2623   4.403   2.291   4.227 -0.0120 -0.7288  0.1091
   20MOL0     C 2624   4.345   2.298   4.099 -0.1525  0.8850  0.8087
   20MOL0     C 2625   4.438   2.269   3.983  0.6500  0.4075 -0.3883
   20MOL0     C 2626   4.362   2.223   3.851 -0.5146  0.5036 -0.6958
   20MOL0     C 2627   4.305   2.077   3.876  0.8750  0.7097 -0.2142
   20MOL0     C 2628   4.314   2.000   3.749 -0.5541  0.2033  0.3750
   20MOL0     C 2629   4.301   1.941   3.645 -0.6821  0.4015 -1.0708
   20MOL0     C 2630   4.526   2.501   4.220 -0.4382 -0.3559  0.3054
   20MOL0     C 2631   4.618   2.594   4.266 -0.1165  0.0544 -0.0999
   20MOL0     C 2632   4.665   2.701   4.174 -0.0518  1.1399 -0.2363
   20MOL0     H 2633   4.736   2.922   4.638 -0.1336  1.0356 -0.6901
   20MOL0     H 2634   4.895   3.023   4.797  0.9206  1.7179 -0.3745
   20MOL0     H 2635   4.996   3.199   4.770 -0.7600  1.0426  1.4002
   20MOL0     H 2636   5.137   3.214   4.880  1.5025 -0.3889 -0.1937
   20MOL0     H 2637   5.134   3.249   4.580 -2.4597 -2.1583  2.1650
   20MOL0     H 2638   5.275   3.293   4.677 -0.0322  1.3709  2.7623
   20MOL0     H 2639   5.197   3.506   4.658 -1.4250  1.6140 -0.8932
   20MOL0     H 2640   5.107   3.473   4.796  2.2276  2.7885 -1.2248
   20MOL0     H 2641   5.013   3.452   4.516  0.1614 -1.1639  1.1768
   20MOL0     H 2642   4.913   3.402   4.647  0.2538 -0.8150  1.8275
   20MOL0     H 2643   4.958   3.651   4.737 -2.2242 -0.0293  0.3940
   20MOL0     H 2644   5.020   3.686   4.576 -0.8438  0.5244 -0.7520
   20MOL0     H 2645   4.807   3.609   4.467  0.4260  2.0819 -0.4394
   20MOL0     H 2646   4.728   3.594   4.629 -0.6870  0.0639 -0.7371
   20MOL0     H 2647   4.689   3.804   4.518  1.8660  2.0734  0.5281
   20MOL0     H 2648   4.869   3.832   4.503  2.4632  1.3394  2.8115
   20MOL0     H 2649   4.866   3.843   4.753 -1.4566  0.7197  1.7152
   20MOL0     H 2650   4.775   3.969   4.682 -1.8820 -0.3435 -1.2570
   20MOL0     H 2651   4.492   3.948   4.671 -1.4136 -0.1278  0.6187
   20MOL0     H 2652   4.251   3.899   4.772 -4.1841  0.7895  2.4789
   20MOL0     H 2653   4.267   3.733   4.840  2.4054 -0.7937  1.1240
   20MOL0     H 2654   4.140   3.872   5.001 -0.3112  2.4668  0.5080
   20MOL0     H 2655   4.292   3.845   5.060  1.5072  2.1520  0.9318
   20MOL0     H 2656   4.167   4.090   5.026  1.5195  3.2993 -0.3286
   20MOL0     H 2657   4.272   4.086   4.887  1.4432 -1.6674  0.0474
   20MOL0     H 2658   4.432   4.155   4.999 -1.1984  1.3896 -1.0643
   20MOL0     H 2659   4.453   3.996   5.082  1.7523  1.2796  0.6407
   20MOL0     H 2660   4.410   4.256   5.424  1.3888 -1.3835 -0.4852
   20MOL0     H 2661   4.278   4.432   5.528  2.1683  1.6440 -0.6609
   20MOL0     H 2662   4.111   4.855   5.496 -0.5013 -0.2360 -0.4797
   20MOL0     H 2663   4.070   5.036   5.677 -0.3790  1.3152  3.2477
   20MOL0     H 2664   3.981   4.914   6.085 -0.6114 -0.2871  2.9389
   20MOL0     H 2665   3.940   5.093   6.093  2.8183  0.4354 -0.1078
   20MOL0     H 2666   3.758   5.033   5.915  1.4709 -1.4787 -2.3326
   20MOL0     H 2667   3.786   4.869   5.947 -1.9380  0.3104 -0.1037
   20MOL0     H 2668   3.686   5.083   6.150 -1.8137  0.0934 -1.3172
   20MOL0     H 2669   3.609   4.927   6.093  0.2298  0.3192  0.8495
   20MOL0     H 2670   3.838   4.956   6.283 -2.3482  0.8830  1.7324
   20MOL0     H 2671   3.790   4.805   6.201 -1.1677 -0.2117 -0.4967
   20MOL0     H 2672   3.560   4.826   6.296 -0.7333  3.7026 -0.6408
   20MOL0     H 2673   3.583   4.968   6.369  0.1825  1.1507 -1.7762
   20MOL0     H 2674   3.737   4.718   6.452  0.9892  0.4212  2.2448
   20MOL0     H 2675   3.792   4.870   6.495 -1.6455  2.5693 -2.1845
   20MOL0     H 2676   3.509   4.751   6.539 -1.0763 -0.7091  2.3738
   20MOL0     H 2677   3.543   4.922   6.581 -1.2112 -0.9872 -3.0474
   20MOL0     H 2678   3.552   4.789   6.778 -0.7766  4.5871 -0.6539
   20MOL0     H 2679   3.677   4.678   6.704  2.7160  1.1939 -0.0557
   20MOL0     H 2680   3.990   4.736   5.962 -0.0605 -0.3163 -0.0585
   20MOL0     H 2681   3.986   4.568   5.803 -1.4065  0.3109  0.3533
   20MOL0     H 2682   4.048   4.476   5.177  0.5641 -0.7555 -2.1533
   20MOL0     H 2683   4.191   4.304   5.059 -1.2399 -1.1329  0.3268
   20MOL0     H 2684   5.215   2.915   4.534  0.2640  0.4482  1.9110
   20MOL0     H 2685   5.064   2.799   4.381  0.9988  1.9343  0.1769
   20MOL0     H 2686   4.655   2.422   4.570 -2.3451 -3.1787 -0.4443
   20MOL0     H 2687   4.502   2.283   4.467 -0.1280 -1.3129 -0.7219
   20MOL0     H 2688   4.298   2.395   4.081 -0.8677  0.1637 -1.6220
   20MOL0     H 2689   4.267   2.222   4.107  1.6231 -1.0433  0.8415
   20MOL0     H 2690   4.508   2.188   4.004  1.0188  0.9218  0.4422
   20MOL0     H 2691   4.503   2.355   3.963  0.9925 -0.4110 -3.2428
   20MOL0     H 2692   4.443   2.219   3.779 -2.3381 -0.6308 -2.8022
   20MOL0     H 2693   4.292   2.299   3.813  0.0645  0.7482 -1.2755
   20MOL0     H 2694   4.355   2.012   3.949 -0.1221  0.0773 -0.0580
   20MOL0     H 2695   4.201   2.070   3.911  1.4303 -1.4554  1.2310
   20MOL0     H 2696   4.289   1.865   3.570 -2.0980  0.4632 -0.9349
   20MOL0     H 2697   4.488   2.508   4.119  2.2126 -3.8508 -1.1419
   20MOL0     H 2698   4.658   2.799   4.221  1.1461  0.6353  1.0990
   20MOL0     H 2699   4.767   2.694   4.133 -1.1939  0.7871 -3.3016
   20MOL0     H 2700   4.593   2.700   4.092 -0.7771 -0.3158  0.3713
   21MOL0     O 2701   0.509   5.645  11.036 -0.0124  0.2035  0.0851
   21MOL0     C 2702   0.473   5.574  11.132  0.0533  0.2620 -1.4284
   21MOL0     O 2703   0.367   5.606  11.212  0.2179 -0.1891 -0.4054
   21MOL0     C 2704   0.277   5.702  11.170 -0.0823  0.2296 -0.4682
   21MOL0     C 2705   0.155   5.663  11.126  0.0198 -0.1694  0.4210
   21MOL0     C 2706   0.054   5.758  11.080 -0.6373 -0.2266  0.3317
   21MOL0     C 2707   0.083   5.900  11.103  0.0553  0.4866  0.0807
   21MOL0     O 2708   0.007   6.006  11.060  0.2088  0.2786  0.0928
   21MOL0     C 2709  -0.117   5.969  11.002  0.1420  0.7501 -0.1235
   21MOL0     C 2710  -0.183   6.100  10.966 -0.1817 -0.0205  0.7845
   21MOL0     C 2711  -0.260   6.161  11.082  0.9799 -0.1447 -0.1416
   21MOL0     C 2712  -0.293   6.316  11.064 -0.2811  0.9206 -0.2349
   21MOL0     C 2713  -0.390   6.367  11.171 -0.3267 -0.2545  0.5583
   21MOL0     C 2714  -0.422   6.520  11.155 -0.7836  0.4233 -1.0067
   21MOL0     C 2715  -0.509   6.553  11.278  0.1644  0.1680  0.3311
   21MOL0     C 2716  -0.545   6.696  11.278 -0.4552  0.4708 -0.6434
   21MOL0     N 2717  -0.623   6.716  11.402 -1.2561  0.0912 -0.4975
   21MOL0     C 2718  -0.570   6.700  11.527 -1.0914  0.3091 -0.5182
   21MOL0     C 2719  -0.677   6.703  11.612  0.5206  0.5216 -1.1146
   21MOL0     C 2720  -0.694   6.685  11.757  0.2489  0.9582  0.0257
   21MOL0     C 2721  -0.710   6.812  11.837 -0.0606  0.0280 -0.7287
   21MOL0     C 2722  -0.764   6.779  11.973  0.3899 -0.0158  0.4477
   21MOL0     C 2723  -0.664   6.706  12.065  0.0635 -0.7627  0.2365
   21MOL0     O 2724  -0.698   6.671  12.204 -0.8466  0.4011  0.1706
   21MOL0     C 2725  -0.679   6.765  12.307 -0.9917  0.5011  0.3237
   21MOL0     C 2726  -0.643   6.899  12.288 -0.0633  0.3131 -0.3765
   21MOL0     C 2727  -0.633   6.979  12.402 -0.6950  0.3883  0.1631
   21MOL0     C 2728  -0.641   6.930  12.532  0.0038  0.1098 -0.1979
   21MOL0     C 2729  -0.627   7.009  12.656 -0.4477  0.0130  0.7185
   21MOL0     O 2730  -0.604   7.144  12.639 -0.3623 -0.6711 -0.0431
   21MOL0     C 2731  -0.587   7.229  12.745  0.5467 -0.4035 -0.7099
   21MOL0     C 2732  -0.678   7.341  12.749  0.6966 -0.2421 -0.4047
   21MOL0     C 2733  -0.661   7.439  12.852  0.4686  0.4073 -1.5379
   21MOL0     C 2734  -0.548   7.431  12.944  0.8144 -1.5121  0.5553
   21MOL0     O 2735  -0.539   7.527  13.040 -0.8451 -0.0550  0.2923
   21MOL0     C 2736  -0.469   7.645  13.003  0.1535  1.1092 -0.3074
   21MOL0     C 2737  -0.348   7.630  12.913  0.6219  1.0955  0.3567
   21MOL0     C 2738  -0.263   7.757  12.890  0.4355  0.1562  0.2216
   21MOL0     C 2739  -0.354   7.868  12.834  0.8016  1.0533  0.8215
   21MOL0     C 2740  -0.265   7.991  12.847  0.6337 -0.4257 -0.3731
   21MOL0     C 2741  -0.330   8.115  12.782 -0.1351  0.0706 -0.1187
   21MOL0     C 2742  -0.271   8.245  12.813 -0.7935 -0.5491 -0.7817
   21MOL0     C 2743  -0.360   8.371  12.786 -0.1126  0.5553 -0.5862
   21MOL0    Cl 2744  -0.474   8.383  12.923 -0.2539  0.1570  0.3823
   21MOL0     C 2745  -0.464   7.326  12.937  0.2607  0.7421  0.2966
   21MOL0     C 2746  -0.491   7.220  12.845  0.0246  0.4952  0.4932
   21MOL0     O 2747  -0.623   6.948  12.763 -0.3979 -0.3487 -0.1791
   21MOL0     C 2748  -0.681   6.795  12.542 -0.8892 -1.0827 -0.3454
   21MOL0     C 2749  -0.698   6.720  12.432  0.7572  0.6128 -0.6543
   21MOL0     N 2750  -0.793   6.721  11.534 -0.3693 -0.2972  0.0134
   21MOL0     N 2751  -0.762   6.732  11.406 -1.2706 -0.2795  0.2263
   21MOL0     C 2752   0.215   5.930  11.148  1.3442  0.3635  0.2332
   21MOL0     C 2753   0.312   5.837  11.176 -0.9466  0.5076  0.1337
   21MOL0     C 2754   0.536   5.438  11.161  0.2466  0.0833 -0.4162
   21MOL0     C 2755   0.575   5.357  11.054 -0.9306 -0.5481 -0.6588
   21MOL0     C 2756   0.627   5.231  11.084  0.6171  0.7652  0.2889
   21MOL0     C 2757   0.629   5.174  11.210 -0.0694  1.1647  0.5596
   21MOL0     O 2758   0.677   5.040  11.217 -0.0812  0.4893 -0.9018
   21MOL0     C 2759   0.571   4.939  11.206  0.1828 -0.1307  0.2012
   21MOL0     C 2760   0.565   4.871  11.341 -0.1724 -0.0615 -0.1619
   21MOL0     C 2761   0.702   4.841  11.403 -0.2571  1.2628 -0.7118
   21MOL0     C 2762   0.689   4.827  11.551 -0.4911  1.4856  0.5261
   21MOL0     C 2763   0.692   4.954  11.622  0.5825  0.2440  0.0732
   21MOL0     C 2764   0.697   5.066  11.674 -1.0739  0.4235 -0.3571
   21MOL0     C 2765   0.587   5.253  11.309  0.1501  0.3952  0.4584
   21MOL0     C 2766   0.546   5.388  11.297  0.9769  0.2614  0.1086
   21MOL0     C 2767   0.512   5.456  11.424 -0.3536  0.4819  0.5417
   21MOL0     H 2768   0.138   5.556  11.122  0.4503 -0.2861  1.3403
   21MOL0     H 2769  -0.044   5.724  11.046  0.3891 -2.2292 -0.8448
   21MOL0     H 2770  -0.088   5.915  10.912  0.5909  0.1132  0.4000
   21MOL0     H 2771  -0.186   5.914  11.066 -2.7551  0.8910 -2.8678
   21MOL0     H 2772  -0.251   6.080  10.883 -0.9458  0.1710  1.3551
   21MOL0     H 2773  -0.112   6.172  10.924 -0.3119  0.2010  0.9397
   21MOL0     H 2774  -0.201   6.138  11.171 -0.6042 -5.9618 -0.1820
   21MOL0     H 2775  -0.350   6.100  11.090  0.2111  0.9279 -0.3350
   21MOL0     H 2776  -0.200   6.373  11.054  1.6731 -2.1123 -0.6566
   21MOL0     H 2777  -0.324   6.334  10.961  3.1306  0.5994 -1.4518
   21MOL0     H 2778  -0.487   6.319  11.153 -0.3686  0.3694 -1.0351
   21MOL0     H 2779  -0.355   6.336  11.270 -2.2602 -1.7299  0.8334
   21MOL0     H 2780  -0.326   6.571  11.139  0.6032 -1.3946  0.9785
   21MOL0     H 2781  -0.482   6.550  11.068 -1.4813  1.9352 -0.0503
   21MOL0     H 2782  -0.468   6.515  11.372  0.7439  1.8811  0.8119
   21MOL0     H 2783  -0.606   6.502  11.272 -0.6147  1.5071  0.9897
   21MOL0     H 2784  -0.450   6.751  11.280  0.3915 -0.7713 -2.6921
   21MOL0     H 2785  -0.600   6.726  11.188 -1.5832 -1.5598 -0.6871
   21MOL0     H 2786  -0.468   6.674  11.553 -0.9260  2.7152  1.6614
   21MOL0     H 2787  -0.783   6.623  11.770  0.0750  1.2887  0.4560
   21MOL0     H 2788  -0.611   6.627  11.799  0.4650  1.5137  0.3794
   21MOL0     H 2789  -0.617   6.869  11.839 -0.0105  0.0300 -2.1385
   21MOL0     H 2790  -0.782   6.885  11.798 -2.9276 -2.1178  0.1981
   21MOL0     H 2791  -0.858   6.723  11.974 -0.2076  0.9419 -0.2212
   21MOL0     H 2792  -0.795   6.871  12.022  2.2050  1.8538 -1.6954
   21MOL0     H 2793  -0.570   6.760  12.053 -0.6611  0.2102 -1.4179
   21MOL0     H 2794  -0.644   6.610  12.015  0.0010 -0.0968 -1.1068
   21MOL0     H 2795  -0.631   6.928  12.185  4.5126 -1.8475 -0.6899
   21MOL0     H 2796  -0.623   7.087  12.401 -0.8544  0.4263  1.1531
   21MOL0     H 2797  -0.768   7.345  12.688 -0.1004  0.3390  0.7617
   21MOL0     H 2798  -0.717   7.532  12.856  0.1614  0.1876  0.0294
   21MOL0     H 2799  -0.544   7.708  12.954  0.1616  0.2210 -1.5116
   21MOL0     H 2800  -0.443   7.697  13.096 -2.1526  1.8185  0.0120
   21MOL0     H 2801  -0.282   7.547  12.938 -1.9079 -1.3102 -0.4563
   21MOL0     H 2802  -0.385   7.591  12.818 -0.7004 -1.3617  1.7912
   21MOL0     H 2803  -0.208   7.789  12.979  1.1696  3.5818 -1.3196
   21MOL0     H 2804  -0.191   7.737  12.810  1.4964  0.7151  1.0058
   21MOL0     H 2805  -0.445   7.873  12.894 -0.5822 -1.4010 -0.8819
   21MOL0     H 2806  -0.382   7.849  12.730 -1.4900  0.1907  1.5423
   21MOL0     H 2807  -0.177   7.969  12.787 -2.6114 -2.7839 -4.8826
   21MOL0     H 2808  -0.236   8.008  12.951  1.0446 -2.3965 -0.1236
   21MOL0     H 2809  -0.334   8.107  12.673  2.5188  1.6160 -0.4260
   21MOL0     H 2810  -0.432   8.121  12.820 -0.3177 -0.7402 -0.4552
   21MOL0     H 2811  -0.176   8.255  12.758  0.3849  1.5292  1.4364
   21MOL0     H 2812  -0.230   8.244  12.914  2.6057 -1.0433 -2.0173
   21MOL0     H 2813  -0.302   8.461  12.763 -1.4780  1.6937  0.2686
   21MOL0     H 2814  -0.425   8.364  12.699 -0.5936 -2.0949 -0.0997
   21MOL0     H 2815  -0.384   7.306  13.007  1.3153  0.7215 -0.8834
   21MOL0     H 2816  -0.416   7.141  12.845  1.2659  1.6404  0.5633
   21MOL0     H 2817  -0.703   6.745  12.635  1.6303  0.0838  0.9778
   21MOL0     H 2818  -0.723   6.614  12.441  0.1221  0.6776 -1.5247
   21MOL0     H 2819   0.249   6.033  11.148 -0.5378  1.0129 -0.8436
   21MOL0     H 2820   0.413   5.854  11.211 -1.2268  1.1963  0.6294
   21MOL0     H 2821   0.559   5.396  10.954 -1.8035  1.0902  0.0781
   21MOL0     H 2822   0.662   5.171  11.001 -0.5669  0.0751  0.2559
   21MOL0     H 2823   0.607   4.869  11.130  1.6199  1.7776 -0.9839
   21MOL0     H 2824   0.475   4.980  11.175 -0.5481 -3.2231 -2.0815
   21MOL0     H 2825   0.509   4.777  11.334 -0.0824 -0.1537  0.3136
   21MOL0     H 2826   0.506   4.936  11.406 -2.6301 -2.5617  0.3326
   21MOL0     H 2827   0.781   4.914  11.381  1.4834 -0.7602 -1.6128
   21MOL0     H 2828   0.752   4.755  11.357  1.6263  1.7344  0.3235
   21MOL0     H 2829   0.599   4.771  11.579 -0.3935  0.3380 -1.3006
   21MOL0     H 2830   0.775   4.769  11.585 -0.6748  1.7026  1.3701
   21MOL0     H 2831   0.705   5.163  11.718  0.8187 -0.2722  0.9735
   21MOL0     H 2832   0.583   5.202  11.405  0.2826  1.2150  0.9112
   21MOL0     H 2833   0.459   5.392  11.495  0.8629 -1.2288 -0.0355
   21MOL0     H 2834   0.602   5.487  11.479 -1.0020  1.4589  1.0900
   21MOL0     H 2835   0.459   5.550  11.410  1.5991  1.6567  0.5679
   22MOL0     O 2836   1.317  10.491   6.477  0.3770 -0.3652  0.4599
   22MOL0     C 2837   1.361  10.607   6.499 -0.1497  0.3750  0.6006
   22MOL0     O 2838   1.307  10.729   6.451 -0.2667 -0.2428 -0.0724
   22MOL0     C 2839   1.269  10.716   6.317 -0.2087  0.4523  1.2380
   22MOL0     C 2840   1.358  10.684   6.201  0.2858  0.3555 -0.2302
   22MOL0     C 2841   1.300  10.661   6.079  0.2990  0.7878 -0.6773
   22MOL0     C 2842   1.167  10.701   6.046  0.6768  0.0562  0.7018
   22MOL0     O 2843   1.125  10.702   5.915 -0.2119  0.0014 -0.0562
   22MOL0     C 2844   1.085  10.835   5.871 -1.3941  0.5969 -0.2086
   22MOL0     C 2845   1.126  10.860   5.726 -0.2002  0.0358  0.4392
   22MOL0     C 2846   1.026  10.791   5.631  0.2714 -0.1634 -1.0005
   22MOL0     C 2847   1.065  10.808   5.480  0.2051 -0.3519 -0.7809
   22MOL0     C 2848   0.953  10.742   5.393  0.4282  0.7222 -0.0614
   22MOL0     C 2849   0.999  10.733   5.249 -0.3064 -0.3935  0.4026
   22MOL0     C 2850   0.906  10.654   5.156 -0.0603  0.0482  0.3487
   22MOL0     C 2851   0.949  10.661   5.007  0.2340 -0.1152 -0.1061
   22MOL0     N 2852   0.857  10.592   4.917  0.4718 -0.0925  0.3663
   22MOL0     C 2853   0.726  10.539   4.938  0.8051  0.1826 -0.9997
   22MOL0     C 2854   0.672  10.524   4.814  0.3827 -0.0301 -0.5855
   22MOL0     C 2855   0.549  10.438   4.790  0.6531 -0.1738 -0.5571
   22MOL0     C 2856   0.436  10.522   4.728 -0.3686  0.0519 -0.9467
   22MOL0     C 2857   0.320  10.439   4.688 -0.8527 -0.5550 -0.2267
   22MOL0     C 2858   0.216  10.522   4.616  0.1467 -0.4969  0.3771
   22MOL0     O 2859   0.151  10.604   4.711  0.2342 -1.0251  0.2570
   22MOL0     C 2860   0.081  10.718   4.675 -0.1243  0.3255 -0.1390
   22MOL0     C 2861   0.056  10.755   4.543  0.2882 -0.3547  0.4040
   22MOL0     C 2862   0.019  10.878   4.503  0.7779 -0.5857 -0.4742
   22MOL0     C 2863  -0.022  10.975   4.599  0.1456 -0.5725 -0.1629
   22MOL0     C 2864  -0.092  11.104   4.554 -0.3684  0.6011 -0.4329
   22MOL0     O 2865  -0.116  11.118   4.421 -0.0540 -1.0703 -0.0441
   22MOL0     C 2866  -0.201  11.212   4.377 -0.2548 -0.0502  0.0732
   22MOL0     C 2867  -0.166  11.288   4.262 -0.2980  1.1982 -0.2865
   22MOL0     C 2868  -0.269  11.361   4.204 -0.2617 -0.6484 -0.8268
   22MOL0     C 2869  -0.396  11.373   4.265 -0.7807  0.4074  0.2677
   22MOL0     O 2870  -0.495  11.463   4.235  0.0292 -0.5781  0.4167
   22MOL0     C 2871  -0.491  11.539   4.107 -0.6859  0.0789  0.3816
   22MOL0     C 2872  -0.617  11.625   4.110  0.1955 -0.4257  0.7114
   22MOL0     C 2873  -0.752  11.559   4.102  0.5023 -0.5916 -0.5411
   22MOL0     C 2874  -0.863  11.653   4.135 -0.4546  0.2248 -0.0596
   22MOL0     C 2875  -1.005  11.595   4.110 -0.2375  0.2993 -0.0076
   22MOL0     C 2876  -1.105  11.705   4.138 -0.5050 -0.4791  0.3095
   22MOL0     C 2877  -1.253  11.653   4.120  0.4311 -0.0581 -0.3558
   22MOL0     C 2878  -1.311  11.559   4.230 -0.6669  0.1101 -0.6174
   22MOL0    Cl 2879  -1.485  11.544   4.205 -0.0910  0.0217  0.1593
   22MOL0     C 2880  -0.411  11.314   4.389  0.3823  1.0869 -0.6921
   22MOL0     C 2881  -0.327  11.222   4.432  0.1316 -0.4183 -0.1740
   22MOL0     O 2882  -0.133  11.176   4.644  0.5982  0.5170  0.1568
   22MOL0     C 2883  -0.018  10.934   4.736  0.0093 -0.2053 -0.8002
   22MOL0     C 2884   0.037  10.810   4.773 -0.4076  0.3772  0.5065
   22MOL0     N 2885   0.775  10.565   4.725  0.4586  0.0745  0.2596
   22MOL0     N 2886   0.871  10.607   4.786 -0.9877  0.2761  0.9373
   22MOL0     C 2887   1.087  10.753   6.148 -0.6942  0.2772 -0.9212
   22MOL0     C 2888   1.138  10.754   6.282  0.3770  0.2303  0.4002
   22MOL0     C 2889   1.483  10.613   6.574 -1.1616 -0.6509 -0.8324
   22MOL0     C 2890   1.520  10.732   6.637  0.8072 -0.2164 -1.0077
   22MOL0     C 2891   1.631  10.742   6.723 -0.3403  0.8794 -0.4125
   22MOL0     C 2892   1.723  10.635   6.730 -0.3898  0.7019  0.5552
   22MOL0     O 2893   1.833  10.648   6.811  0.7940 -0.3282  0.4315
   22MOL0     C 2894   1.897  10.537   6.869  0.2414 -0.3031  0.4141
   22MOL0     C 2895   2.001  10.579   6.970  0.4519  0.0423 -0.1406
   22MOL0     C 2896   2.130  10.624   6.911 -0.3061  0.5193 -0.2417
   22MOL0     C 2897   2.230  10.660   7.015  0.0358 -0.1136  0.0027
   22MOL0     C 2898   2.249  10.576   7.133  0.1456  0.7395 -0.2621
   22MOL0     C 2899   2.273  10.490   7.219 -0.1414 -0.1965  0.0591
   22MOL0     C 2900   1.691  10.520   6.666 -0.0028 -1.0127 -0.1330
   22MOL0     C 2901   1.578  10.507   6.581 -0.4183 -0.4148  0.0919
   22MOL0     C 2902   1.555  10.368   6.521 -0.6790  0.0455  0.6143
   22MOL0     H 2903   1.466  10.680   6.204  0.3139  0.8053 -0.6119
   22MOL0     H 2904   1.368  10.619   6.006  2.8742  0.2805  1.8381
   22MOL0     H 2905   0.978  10.849   5.888 -0.9766  0.2692  3.5702
   22MOL0     H 2906   1.129  10.912   5.934  1.4471 -0.3962 -0.8219
   22MOL0     H 2907   1.231  10.836   5.710 -0.2199 -0.1161  0.5363
   22MOL0     H 2908   1.122  10.966   5.698  2.8134 -0.6709 -3.5705
   22MOL0     H 2909   0.927  10.832   5.653  1.0563  1.7774 -0.8246
   22MOL0     H 2910   1.028  10.682   5.639  0.3647 -0.3708 -3.1421
   22MOL0     H 2911   1.058  10.914   5.451  3.2885 -0.4065 -2.1056
   22MOL0     H 2912   1.162  10.770   5.448 -0.4061 -1.2312 -1.6871
   22MOL0     H 2913   0.950  10.639   5.430 -1.0602  0.2689 -1.3515
   22MOL0     H 2914   0.849  10.775   5.398 -0.6251 -2.2366 -0.4504
   22MOL0     H 2915   1.001  10.835   5.210 -0.9775 -0.1466  0.9813
   22MOL0     H 2916   1.098  10.688   5.241 -0.0488  0.2598 -0.1517
   22MOL0     H 2917   0.811  10.707   5.159  0.7734  1.6120  3.8141
   22MOL0     H 2918   0.902  10.552   5.195  1.8376 -0.5437 -0.8103
   22MOL0     H 2919   0.969  10.766   4.984  0.1859  0.7734  3.2437
   22MOL0     H 2920   1.045  10.609   5.006 -1.6991 -4.0594  0.0726
   22MOL0     H 2921   0.698  10.511   5.039  3.2644 -1.1240 -0.5871
   22MOL0     H 2922   0.572  10.352   4.727 -1.7737 -0.9159 -0.5051
   22MOL0     H 2923   0.525  10.403   4.891 -0.6444  1.0588 -0.4013
   22MOL0     H 2924   0.402  10.608   4.787 -2.2832  0.5996 -2.7417
   22MOL0     H 2925   0.476  10.576   4.642 -2.1867  0.1963 -1.7279
   22MOL0     H 2926   0.273  10.381   4.767 -2.5680  0.5565 -0.3720
   22MOL0     H 2927   0.357  10.369   4.613 -3.1591 -2.1686  0.0280
   22MOL0     H 2928   0.151  10.449   4.567 -0.7553 -0.3951  1.3950
   22MOL0     H 2929   0.266  10.587   4.543 -1.5587 -2.0077 -2.3087
   22MOL0     H 2930   0.093  10.695   4.461 -0.1095  0.8152 -0.6642
   22MOL0     H 2931   0.012  10.906   4.399  0.2725  1.3050  0.0163
   22MOL0     H 2932  -0.067  11.290   4.218 -1.0412 -1.5645 -2.3491
   22MOL0     H 2933  -0.259  11.416   4.110 -2.7447  1.0716 -0.2038
   22MOL0     H 2934  -0.398  11.597   4.101 -1.0226  0.6467  0.5491
   22MOL0     H 2935  -0.487  11.464   4.028 -0.0056 -1.4006  1.7595
   22MOL0     H 2936  -0.622  11.687   4.199  1.8771 -3.2977  2.9793
   22MOL0     H 2937  -0.607  11.694   4.026  0.7958 -0.5278  0.6959
   22MOL0     H 2938  -0.768  11.520   4.001 -4.1797  0.9602 -0.6710
   22MOL0     H 2939  -0.749  11.472   4.168  0.0925 -2.1042 -2.4282
   22MOL0     H 2940  -0.849  11.731   4.060  0.7306 -0.6046 -0.7309
   22MOL0     H 2941  -0.852  11.704   4.231 -0.4807  0.4758 -0.1894
   22MOL0     H 2942  -1.030  11.520   4.186 -1.9922  0.1757 -0.6633
   22MOL0     H 2943  -1.016  11.560   4.007 -2.6746  1.3095 -0.1574
   22MOL0     H 2944  -1.089  11.748   4.238  1.4767  0.4907 -0.3547
   22MOL0     H 2945  -1.084  11.791   4.073  0.4940 -1.7076 -1.0651
   22MOL0     H 2946  -1.257  11.603   4.023  2.2209 -0.8945 -0.0392
   22MOL0     H 2947  -1.314  11.744   4.129  0.2105 -0.2459  0.0725
   22MOL0     H 2948  -1.258  11.464   4.222  0.4314  0.5558  0.9749
   22MOL0     H 2949  -1.294  11.619   4.320  1.0520  1.3972 -1.7327
   22MOL0     H 2950  -0.508  11.312   4.438  1.3350  0.9940  1.2726
   22MOL0     H 2951  -0.365  11.166   4.517 -1.4541 -0.4224 -0.8560
   22MOL0     H 2952  -0.066  10.997   4.810 -1.8133 -1.8679 -0.4639
   22MOL0     H 2953   0.031  10.779   4.877  0.9513 -0.0838  0.4668
   22MOL0     H 2954   0.984  10.776   6.125 -1.1825 -1.9964 -1.2715
   22MOL0     H 2955   1.074  10.791   6.362  0.4702  0.6678  0.2750
   22MOL0     H 2956   1.444  10.810   6.638  0.0398 -0.7204  4.1490
   22MOL0     H 2957   1.648  10.833   6.780  2.7938 -0.1591  0.5450
   22MOL0     H 2958   1.934  10.484   6.781  1.2873  1.7753 -0.4738
   22MOL0     H 2959   1.814  10.480   6.913 -2.0659  1.8552 -0.8387
   22MOL0     H 2960   2.019  10.480   7.013 -0.5971 -0.9218 -1.8097
   22MOL0     H 2961   1.976  10.653   7.047  1.0545 -0.8857  0.9792
   22MOL0     H 2962   2.126  10.711   6.844  1.7875  1.5259  0.8304
   22MOL0     H 2963   2.170  10.546   6.845 -4.0135 -1.3139 -0.5544
   22MOL0     H 2964   2.326  10.678   6.965  1.1879  0.6436  2.3232
   22MOL0     H 2965   2.194  10.757   7.051 -2.9852 -2.3834  3.9400
   22MOL0     H 2966   2.294  10.403   7.278 -0.0715 -0.9389 -1.0112
   22MOL0     H 2967   1.745  10.426   6.667 -1.4711 -1.9540 -1.9774
   22MOL0     H 2968   1.474  10.321   6.577  0.7931  0.5794  3.3976
   22MOL0     H 2969   1.530  10.373   6.415  2.9822  0.6256 -0.3457
   22MOL0     H 2970   1.643  10.303   6.531 -0.5203  0.0846 -0.4697
   23MOL0     O 2971   5.919   0.127   7.639  0.2579  0.3111 -0.0617
   23MOL0     C 2972   5.804   0.148   7.674 -0.1463 -0.7146 -0.6971
   23MOL0     O 2973   5.728   0.066   7.759 -0.5598 -0.0175  0.2757
   23MOL0     C 2974   5.807  -0.041   7.812  0.5136 -0.0407  0.0899
   23MOL0     C 2975   5.804  -0.161   7.736 -0.0019  0.4500 -0.5199
   23MOL0     C 2976   5.880  -0.261   7.791 -0.6267 -0.4662 -0.3437
   23MOL0     C 2977   5.962  -0.253   7.909 -0.4983 -1.1860  0.3953
   23MOL0     O 2978   6.045  -0.354   7.927  0.1371 -0.0017  0.9758
   23MOL0     C 2979   6.155  -0.343   8.006  0.0199 -0.5049 -0.0775
   23MOL0     C 2980   6.257  -0.452   7.984  1.2392  0.1975 -0.2259
   23MOL0     C 2981   6.206  -0.597   8.007  0.9465  0.5090 -0.1794
   23MOL0     C 2982   6.179  -0.613   8.155 -0.1822  0.6035 -1.0806
   23MOL0     C 2983   6.139  -0.755   8.186  0.2818 -0.0171  0.1420
   23MOL0     C 2984   6.076  -0.782   8.321 -0.6515  0.5776  0.0290
   23MOL0     C 2985   6.053  -0.929   8.354  0.4464 -0.9314 -0.3656
   23MOL0     C 2986   5.975  -1.007   8.240 -0.2473 -0.7840  0.2617
   23MOL0     N 2987   5.898  -1.121   8.267 -0.8018  0.1267  0.3066
   23MOL0     C 2988   5.768  -1.132   8.311 -0.0181  0.1892  0.5627
   23MOL0     C 2989   5.739  -1.261   8.296 -0.1861 -0.1450 -0.0991
   23MOL0     C 2990   5.625  -1.327   8.359 -0.0660  0.2922  0.0191
   23MOL0     C 2991   5.501  -1.300   8.277  0.2592  0.4741 -0.5612
   23MOL0     C 2992   5.391  -1.303   8.375  0.8281  1.1979 -0.2497
   23MOL0     C 2993   5.251  -1.313   8.303 -0.1867  0.2737 -0.0880
   23MOL0     O 2994   5.245  -1.436   8.234  0.1881 -0.0429  0.7544
   23MOL0     C 2995   5.131  -1.452   8.166 -0.3525  0.4016  0.6174
   23MOL0     C 2996   5.135  -1.564   8.087  0.4523  0.1226  0.0928
   23MOL0     C 2997   5.026  -1.588   8.004 -0.4548  0.3033 -0.0238
   23MOL0     C 2998   4.909  -1.512   8.002  0.0697 -0.4688 -0.8503
   23MOL0     C 2999   4.802  -1.535   7.905 -0.2309  0.2053  0.6914
   23MOL0     O 3000   4.831  -1.620   7.800 -0.4822 -0.4417 -0.2666
   23MOL0     C 3001   4.728  -1.648   7.719 -1.1699 -0.1161 -0.0260
   23MOL0     C 3002   4.639  -1.757   7.731 -0.3148  0.3182 -0.5202
   23MOL0     C 3003   4.544  -1.782   7.629  0.2153  0.6544 -0.1735
   23MOL0     C 3004   4.546  -1.704   7.508  0.6736  1.1104  0.6876
   23MOL0     O 3005   4.476  -1.721   7.396  1.1240  0.7912 -0.4223
   23MOL0     C 3006   4.369  -1.819   7.404  1.4541  0.2139 -0.1120
   23MOL0     C 3007   4.236  -1.778   7.478 -0.4991 -0.7456  0.3554
   23MOL0     C 3008   4.135  -1.896   7.507  0.6425 -0.5374 -0.1756
   23MOL0     C 3009   4.000  -1.834   7.554  0.4819 -0.0873 -0.3123
   23MOL0     C 3010   3.914  -1.786   7.431  0.0417 -0.6152  0.3953
   23MOL0     C 3011   3.866  -1.899   7.342 -0.1036 -0.1521  0.0585
   23MOL0     C 3012   3.786  -2.006   7.422 -0.4742  0.1661 -0.1058
   23MOL0     C 3013   3.789  -2.125   7.324  0.1749  1.3383 -0.2529
   23MOL0    Cl 3014   3.945  -2.198   7.341 -0.5643  0.0977  0.0132
   23MOL0     C 3015   4.632  -1.596   7.503  0.6183 -0.6918  0.1414
   23MOL0     C 3016   4.730  -1.577   7.603 -0.5340  0.4971 -0.0808
   23MOL0     O 3017   4.691  -1.489   7.929 -0.1479 -0.5057 -0.3481
   23MOL0     C 3018   4.893  -1.412   8.105  0.3429 -1.1511  0.3865
   23MOL0     C 3019   5.008  -1.376   8.173 -0.1358 -0.2004  0.6797
   23MOL0     N 3020   5.860  -1.326   8.265 -0.7990  0.4247 -0.0490
   23MOL0     N 3021   5.956  -1.243   8.244  0.2792  0.0960 -0.7688
   23MOL0     C 3022   5.954  -0.132   7.978  0.2878 -0.0061  0.6029
   23MOL0     C 3023   5.885  -0.019   7.927 -0.8060  0.3723  0.0709
   23MOL0     C 3024   5.740   0.273   7.625 -0.2149  0.8326 -0.0930
   23MOL0     C 3025   5.815   0.391   7.621 -0.3540 -0.6051 -1.0719
   23MOL0     C 3026   5.766   0.510   7.573  1.0962  0.4198  0.0089
   23MOL0     C 3027   5.624   0.527   7.550  0.0907  0.1695 -0.9506
   23MOL0     O 3028   5.552   0.641   7.529  0.3384  0.6658  0.7596
   23MOL0     C 3029   5.594   0.747   7.622  0.4619 -0.3389  0.2645
   23MOL0     C 3030   5.537   0.882   7.588  0.7974 -0.1534 -0.1674
   23MOL0     C 3031   5.386   0.868   7.578  0.4744 -0.8542  0.2865
   23MOL0     C 3032   5.321   1.004   7.594  0.5738 -0.8094  0.2311
   23MOL0     C 3033   5.354   1.099   7.488  0.4832  0.0855  0.8720
   23MOL0     C 3034   5.361   1.176   7.397 -0.6469 -0.4473 -0.8420
   23MOL0     C 3035   5.544   0.405   7.567 -0.4807 -0.8902 -0.0946
   23MOL0     C 3036   5.599   0.282   7.599  0.5401 -0.7879  0.2488
   23MOL0     C 3037   5.522   0.144   7.580  0.7469  0.2845 -0.7672
   23MOL0     H 3038   5.735  -0.167   7.652  1.8323 -2.0952 -1.9893
   23MOL0     H 3039   5.887  -0.356   7.740 -1.6755 -0.3107 -0.7988
   23MOL0     H 3040   6.207  -0.250   7.980 -1.7352  0.1165 -1.5731
   23MOL0     H 3041   6.112  -0.346   8.106 -2.2460 -0.5969 -0.9998
   23MOL0     H 3042   6.348  -0.417   8.035  1.0505  1.1074 -0.4852
   23MOL0     H 3043   6.284  -0.452   7.878 -2.2527  0.4184 -1.2247
   23MOL0     H 3044   6.278  -0.671   7.971  2.3245  1.9563 -0.5156
   23MOL0     H 3045   6.114  -0.617   7.953 -0.0704 -1.8322  2.2120
   23MOL0     H 3046   6.262  -0.588   8.221 -3.0421  2.9065  2.0050
   23MOL0     H 3047   6.104  -0.541   8.190 -2.4264 -1.9349 -0.2949
   23MOL0     H 3048   6.075  -0.788   8.103  1.0265  1.6701 -1.1577
   23MOL0     H 3049   6.231  -0.814   8.177  0.8521  1.0780 -1.9520
   23MOL0     H 3050   6.142  -0.739   8.398  0.4048 -2.7938  1.2093
   23MOL0     H 3051   5.977  -0.736   8.320 -0.9094  0.0314  0.2429
   23MOL0     H 3052   5.991  -0.923   8.444  0.4987 -1.2387 -0.3065
   23MOL0     H 3053   6.144  -0.986   8.373 -0.1882 -1.5955  0.8265
   23MOL0     H 3054   5.895  -0.939   8.210  2.2905  1.8696 -0.9589
   23MOL0     H 3055   6.037  -1.018   8.151  0.8653 -1.6562  1.1148
   23MOL0     H 3056   5.705  -1.056   8.356 -2.0739 -0.5086 -0.9535
   23MOL0     H 3057   5.658  -1.430   8.375  0.4752  0.5528  0.6631
   23MOL0     H 3058   5.614  -1.304   8.466  0.4286 -0.3260  0.2137
   23MOL0     H 3059   5.495  -1.212   8.212  0.4092  0.0685 -1.1316
   23MOL0     H 3060   5.497  -1.386   8.210 -2.4080  2.1031 -2.6889
   23MOL0     H 3061   5.394  -1.213   8.437  2.0755  0.1390  1.3011
   23MOL0     H 3062   5.401  -1.390   8.440  2.7823  1.2306 -0.4540
   23MOL0     H 3063   5.244  -1.224   8.240 -2.8485  0.5357  0.4704
   23MOL0     H 3064   5.179  -1.305   8.385 -1.1032  0.1728 -0.8608
   23MOL0     H 3065   5.230  -1.611   8.066 -0.7061 -0.8811 -3.6111
   23MOL0     H 3066   5.028  -1.673   7.936  3.0365  0.8372 -0.7746
   23MOL0     H 3067   4.645  -1.823   7.817  0.0605 -0.7950 -1.3725
   23MOL0     H 3068   4.469  -1.859   7.644  1.3698 -0.4885 -0.1212
   23MOL0     H 3069   4.332  -1.828   7.302  2.7775  1.1123 -0.6873
   23MOL0     H 3070   4.403  -1.916   7.441  1.7248  0.4318  0.2220
   23MOL0     H 3071   4.273  -1.739   7.574 -0.3874 -1.7928  0.7608
   23MOL0     H 3072   4.190  -1.689   7.437 -0.0872 -1.1560 -1.0415
   23MOL0     H 3073   4.115  -1.942   7.410  0.3973 -2.9605  0.9496
   23MOL0     H 3074   4.177  -1.962   7.583 -0.6408 -1.1946  0.0020
   23MOL0     H 3075   4.007  -1.743   7.615 -4.3028 -1.3840  2.7631
   23MOL0     H 3076   3.952  -1.914   7.611  0.8805  0.6758  1.1478
   23MOL0     H 3077   3.963  -1.709   7.370 -4.3048  0.4832 -2.1584
   23MOL0     H 3078   3.822  -1.745   7.473  0.4272 -1.0260  1.6644
   23MOL0     H 3079   3.798  -1.860   7.266 -2.2166  0.9882  2.4337
   23MOL0     H 3080   3.953  -1.944   7.292 -0.2303 -0.0733 -0.2355
   23MOL0     H 3081   3.681  -1.977   7.426 -0.8093 -1.0862  3.2790
   23MOL0     H 3082   3.819  -2.019   7.525  1.6843  1.9216 -0.5002
   23MOL0     H 3083   3.719  -2.200   7.361  1.3097  0.3199 -0.0999
   23MOL0     H 3084   3.763  -2.111   7.219 -0.0415 -3.0021 -0.9827
   23MOL0     H 3085   4.636  -1.545   7.407 -0.2101 -3.0187 -1.2115
   23MOL0     H 3086   4.792  -1.488   7.598  1.4427 -0.8154  0.0504
   23MOL0     H 3087   4.810  -1.342   8.116  0.4147 -0.9937 -0.0573
   23MOL0     H 3088   4.993  -1.298   8.247 -2.0921 -2.0223  2.3222
   23MOL0     H 3089   5.994  -0.136   8.080 -2.3571 -1.9645  1.6845
   23MOL0     H 3090   5.883   0.077   7.978 -2.0596  1.2434 -1.5392
   23MOL0     H 3091   5.922   0.389   7.641 -0.9014  0.2064  2.5629
   23MOL0     H 3092   5.832   0.593   7.552 -0.0316  2.1012  2.5325
   23MOL0     H 3093   5.704   0.753   7.615  0.4467 -1.7330 -1.7708
   23MOL0     H 3094   5.571   0.727   7.727 -1.1770  3.0688  0.6945
   23MOL0     H 3095   5.583   0.921   7.497  2.9080  0.9130  1.2778
   23MOL0     H 3096   5.571   0.955   7.662  2.7823 -0.1505 -1.0340
   23MOL0     H 3097   5.331   0.816   7.657 -3.0785  3.0918  0.8215
   23MOL0     H 3098   5.371   0.820   7.481  0.3076 -0.7495  0.2592
   23MOL0     H 3099   5.213   0.997   7.605  0.3063  2.8912  1.0424
   23MOL0     H 3100   5.365   1.040   7.687 -1.3842 -1.3428  1.4259
   23MOL0     H 3101   5.340   1.258   7.330  3.5027  0.2853 -1.5495
   23MOL0     H 3102   5.436   0.400   7.556 -1.3735  2.8580  4.0490
   23MOL0     H 3103   5.602   0.073   7.557  2.4890  1.9434 -0.1273
   23MOL0     H 3104   5.474   0.108   7.672  0.9640  0.9437 -0.3935
   23MOL0     H 3105   5.451   0.147   7.496 -1.1920  0.6607  0.8117
   24MOL0     O 3106   8.731   4.943   7.202 -0.1661  0.2157 -0.0847
   24MOL0     C 3107   8.825   4.911   7.280  0.2781  0.5799  0.0192
   24MOL0     O 3108   8.940   4.849   7.249  0.0547  0.3362 -0.6496
   24MOL0     C 3109   8.981   4.835   7.122  0.3609 -0.2871  0.1862
   24MOL0     C 3110   8.969   4.935   7.021 -0.5820  0.3044 -0.2174
   24MOL0     C 3111   9.025   4.913   6.895  0.3267 -0.8246  0.2810
   24MOL0     C 3112   9.081   4.788   6.859  0.7091 -0.4397  0.4221
   24MOL0     O 3113   9.112   4.768   6.726  0.5016 -0.2036  0.4309
   24MOL0     C 3114   9.073   4.650   6.666 -0.4487 -0.2622 -0.1656
   24MOL0     C 3115   9.091   4.669   6.519  0.5482  0.5206  0.1909
   24MOL0     C 3116   8.972   4.747   6.463  0.1084 -0.7803  0.1773
   24MOL0     C 3117   8.969   4.737   6.309  1.1491  0.1064 -0.0237
   24MOL0     C 3118   8.856   4.832   6.260 -0.2897  0.5174 -0.0588
   24MOL0     C 3119   8.720   4.775   6.281  1.1499  0.4470 -0.6770
   24MOL0     C 3120   8.606   4.874   6.300  0.4331  1.0416  0.4514
   24MOL0     C 3121   8.643   4.978   6.403  0.4687  0.4971  0.5158
   24MOL0     N 3122   8.539   5.036   6.488  0.3376  0.1901  0.3558
   24MOL0     C 3123   8.408   4.997   6.490 -0.0691  0.0014 -0.2155
   24MOL0     C 3124   8.351   5.094   6.571  0.1991  0.0970  0.3794
   24MOL0     C 3125   8.213   5.111   6.608  0.2521 -0.4808  0.3560
   24MOL0     C 3126   8.161   5.248   6.665  0.0158 -0.1465 -0.4195
   24MOL0     C 3127   8.199   5.370   6.571  0.4500  0.4088  0.4563
   24MOL0     C 3128   8.159   5.499   6.634  0.0087  0.9998 -0.1873
   24MOL0     O 3129   8.189   5.595   6.528  1.0466  0.3898 -0.9980
   24MOL0     C 3130   8.296   5.679   6.549 -0.3744  0.0362 -0.6614
   24MOL0     C 3131   8.278   5.792   6.474 -0.2811  0.1005  0.7711
   24MOL0     C 3132   8.349   5.906   6.495 -0.1498 -0.0652  0.2692
   24MOL0     C 3133   8.453   5.900   6.600  0.3148  0.1055 -0.2142
   24MOL0     C 3134   8.530   6.020   6.636 -0.0992  0.0883 -0.7502
   24MOL0     O 3135   8.612   6.017   6.752  0.1821 -0.6966  0.1973
   24MOL0     C 3136   8.693   6.120   6.782  0.5954 -0.4664  0.7855
   24MOL0     C 3137   8.830   6.097   6.807  0.2111 -0.3792 -0.7086
   24MOL0     C 3138   8.918   6.201   6.821  0.1246  0.7949 -0.8052
   24MOL0     C 3139   8.878   6.328   6.822  0.6464 -0.7053 -0.0046
   24MOL0     O 3140   8.959   6.437   6.824 -0.6284  0.1373 -0.0171
   24MOL0     C 3141   9.106   6.426   6.817 -0.0594  0.6157 -1.2760
   24MOL0     C 3142   9.157   6.536   6.725  0.0961  0.0040  0.0982
   24MOL0     C 3143   9.289   6.505   6.667  0.2631 -0.2329  0.2554
   24MOL0     C 3144   9.302   6.584   6.529 -0.0495 -0.1137  0.0990
   24MOL0     C 3145   9.437   6.551   6.462 -0.3729  0.4829  0.0911
   24MOL0     C 3146   9.461   6.623   6.332 -0.0813 -0.6225 -0.0259
   24MOL0     C 3147   9.587   6.575   6.261  0.0768  0.3286  0.7444
   24MOL0     C 3148   9.623   6.663   6.136 -0.5061  0.8932 -0.1321
   24MOL0    Cl 3149   9.669   6.838   6.183 -0.1525  0.0449 -0.1633
   24MOL0     C 3150   8.746   6.357   6.800  0.5527 -0.7329  0.6487
   24MOL0     C 3151   8.652   6.258   6.774  0.7862  0.4536 -0.3411
   24MOL0     O 3152   8.526   6.110   6.554  0.6920 -0.0934 -0.6571
   24MOL0     C 3153   8.486   5.784   6.660  0.1768  0.3655 -0.1941
   24MOL0     C 3154   8.400   5.672   6.638  1.5351  1.0427  0.1787
   24MOL0     N 3155   8.444   5.183   6.616 -0.0358  0.5134  0.3950
   24MOL0     N 3156   8.554   5.147   6.559  0.7596 -0.3990  0.7598
   24MOL0     C 3157   9.084   4.693   6.963 -0.0008  0.7409 -0.3904
   24MOL0     C 3158   9.048   4.721   7.099  0.0372 -0.3466  0.1165
   24MOL0     C 3159   8.813   4.964   7.414 -0.1708  0.6003 -0.4969
   24MOL0     C 3160   8.794   5.101   7.435  0.0674 -0.5244  0.0178
   24MOL0     C 3161   8.821   5.162   7.558 -0.2785 -0.4050  0.1359
   24MOL0     C 3162   8.844   5.079   7.676 -0.4169 -1.0070 -1.3002
   24MOL0     O 3163   8.881   5.144   7.802  0.3173 -0.2071  0.1869
   24MOL0     C 3164   8.910   5.065   7.917 -0.3353  0.7081 -0.0226
   24MOL0     C 3165   9.055   5.012   7.930 -0.1384  0.0654 -0.1926
   24MOL0     C 3166   9.164   5.100   7.880 -0.6640  0.8854  0.5138
   24MOL0     C 3167   9.298   5.033   7.875 -0.3917  0.9460 -0.7551
   24MOL0     C 3168   9.401   5.124   7.818  0.0830 -0.7385  0.0746
   24MOL0     C 3169   9.478   5.199   7.767 -0.0477  0.9544 -0.5834
   24MOL0     C 3170   8.846   4.940   7.658  0.0970 -0.0856  0.6059
   24MOL0     C 3171   8.839   4.879   7.528 -0.0661 -0.8108 -0.4504
   24MOL0     C 3172   8.856   4.731   7.528  0.4145 -0.4097  0.1742
   24MOL0     H 3173   8.920   5.030   7.040  2.0635  1.6004  0.5935
   24MOL0     H 3174   9.019   4.986   6.815 -0.5852 -1.7153 -0.4917
   24MOL0     H 3175   9.130   4.566   6.707 -0.3468 -1.2006 -2.1457
   24MOL0     H 3176   8.971   4.623   6.695 -1.5892  3.0475 -0.6107
   24MOL0     H 3177   9.081   4.570   6.474  1.2974 -0.5482  2.2179
   24MOL0     H 3178   9.188   4.714   6.493  0.8458 -1.2071 -1.9367
   24MOL0     H 3179   8.988   4.850   6.497 -0.4717 -0.9172  0.8996
   24MOL0     H 3180   8.876   4.720   6.508  0.5690  0.0991  1.7428
   24MOL0     H 3181   9.066   4.758   6.261  1.0372 -1.3412 -0.9740
   24MOL0     H 3182   8.936   4.637   6.280 -0.8191  1.1438 -1.6293
   24MOL0     H 3183   8.870   4.932   6.303 -1.5199  0.8987 -0.5219
   24MOL0     H 3184   8.869   4.850   6.153 -0.5708  3.5601  0.3135
   24MOL0     H 3185   8.695   4.709   6.198 -0.9540 -0.8461  0.8936
   24MOL0     H 3186   8.719   4.721   6.376 -0.8830  2.4987  0.5901
   24MOL0     H 3187   8.517   4.819   6.332 -1.1964  1.6963 -2.5528
   24MOL0     H 3188   8.583   4.923   6.205 -0.8922 -1.1215 -0.4164
   24MOL0     H 3189   8.709   4.937   6.480  3.9054  3.1034 -0.7570
   24MOL0     H 3190   8.695   5.058   6.349  0.2200  0.0964 -0.3406
   24MOL0     H 3191   8.353   4.915   6.444 -1.6788  0.5375  0.6758
   24MOL0     H 3192   8.144   5.093   6.524 -1.3534  1.9123  1.0551
   24MOL0     H 3193   8.214   5.025   6.675 -1.5462 -2.6383 -2.1514
   24MOL0     H 3194   8.057   5.238   6.697 -0.7124 -0.0680 -2.6328
   24MOL0     H 3195   8.211   5.270   6.760  2.1890  1.1236 -1.7688
   24MOL0     H 3196   8.134   5.356   6.484 -3.0452  1.5471  2.6462
   24MOL0     H 3197   8.302   5.373   6.534 -0.1275  0.8621 -1.1873
   24MOL0     H 3198   8.215   5.517   6.726  0.3836 -0.1526 -0.1801
   24MOL0     H 3199   8.054   5.507   6.662  0.8759  0.2491  3.8776
   24MOL0     H 3200   8.188   5.799   6.414  1.5520  2.9097 -2.0127
   24MOL0     H 3201   8.329   5.996   6.439  1.2606 -1.7081 -3.1335
   24MOL0     H 3202   8.877   5.999   6.812 -1.1868 -1.0226  0.7213
   24MOL0     H 3203   9.019   6.165   6.809 -0.9741 -2.1298 -1.9978
   24MOL0     H 3204   9.148   6.426   6.919  0.2773 -3.0678 -1.2996
   24MOL0     H 3205   9.130   6.328   6.776 -0.8673  0.0496 -0.4382
   24MOL0     H 3206   9.088   6.537   6.640  0.7206 -2.4916 -0.5309
   24MOL0     H 3207   9.158   6.634   6.773  1.6766 -0.3155  0.7802
   24MOL0     H 3208   9.366   6.548   6.732  1.2485  1.7275 -2.0244
   24MOL0     H 3209   9.298   6.397   6.656  0.8415 -0.2096  0.4540
   24MOL0     H 3210   9.293   6.692   6.542 -1.8286  0.0191 -1.7608
   24MOL0     H 3211   9.218   6.554   6.466 -1.5769 -0.0617  2.0036
   24MOL0     H 3212   9.437   6.443   6.443  1.9270  0.8839 -3.1479
   24MOL0     H 3213   9.524   6.569   6.527  0.7751 -1.1143 -0.9030
   24MOL0     H 3214   9.379   6.607   6.261 -0.5241  0.3607  0.2491
   24MOL0     H 3215   9.466   6.731   6.347 -3.7354  0.1742 -2.9515
   24MOL0     H 3216   9.581   6.469   6.236 -2.4751  0.7925 -1.0524
   24MOL0     H 3217   9.677   6.585   6.323  0.1961 -0.3958  0.6929
   24MOL0     H 3218   9.716   6.618   6.102 -1.0923 -0.9090  0.5472
   24MOL0     H 3219   9.544   6.663   6.060 -0.7670  1.7769  0.1198
   24MOL0     H 3220   8.709   6.458   6.788  0.1925 -1.1965 -5.5232
   24MOL0     H 3221   8.547   6.280   6.757 -0.2039 -0.0073  3.9357
   24MOL0     H 3222   8.580   5.786   6.714  1.8428 -1.5846 -2.7665
   24MOL0     H 3223   8.418   5.591   6.708 -0.8381  0.1822 -0.1436
   24MOL0     H 3224   9.107   4.587   6.965 -1.2366  0.4316 -1.1252
   24MOL0     H 3225   9.058   4.644   7.174 -2.0037 -1.5083 -0.7175
   24MOL0     H 3226   8.777   5.170   7.352  1.1813  2.0838  1.7989
   24MOL0     H 3227   8.816   5.269   7.576  0.0208 -0.3790  0.0683
   24MOL0     H 3228   8.848   4.975   7.930 -1.2424  1.2675 -0.3421
   24MOL0     H 3229   8.889   5.122   8.007  0.3614  0.4376  0.3206
   24MOL0     H 3230   9.057   4.918   7.874 -2.8766 -0.4724  0.4743
   24MOL0     H 3231   9.079   5.002   8.036 -2.8497 -1.3679  0.3609
   24MOL0     H 3232   9.165   5.183   7.952 -0.0026  2.0110 -0.7264
   24MOL0     H 3233   9.135   5.131   7.779 -0.1355  0.6165  0.2747
   24MOL0     H 3234   9.320   4.999   7.977  1.6438  0.0545 -1.4258
   24MOL0     H 3235   9.284   4.946   7.810  2.5914 -1.1745  1.1955
   24MOL0     H 3236   9.551   5.268   7.728 -0.4376  1.2754 -0.7485
   24MOL0     H 3237   8.875   4.875   7.740  2.5944 -0.5910 -0.5730
   24MOL0     H 3238   8.964   4.717   7.523  0.5621  0.9689 -2.9153
   24MOL0     H 3239   8.814   4.684   7.618 -2.0295  1.7316  0.2985
   24MOL0     H 3240   8.795   4.691   7.447  0.0856 -0.0588  0.2460
   25MOL0     O 3241   4.226   6.726   9.704 -0.0535  0.0215  0.1127
   25MOL0     C 3242   4.274   6.623   9.657 -0.9398  1.0709 -0.3124
   25MOL0     O 3243   4.306   6.601   9.518 -0.2157 -0.1830  0.1902
   25MOL0     C 3244   4.325   6.712   9.436 -0.2640 -0.4722 -0.0395
   25MOL0     C 3245   4.386   6.833   9.482 -0.3357 -0.9384  0.2503
   25MOL0     C 3246   4.406   6.949   9.392  1.2761 -0.3726 -0.1697
   25MOL0     C 3247   4.372   6.928   9.263  0.2880  0.0701  0.0074
   25MOL0     O 3248   4.397   7.037   9.184  0.6939 -0.1522 -1.1414
   25MOL0     C 3249   4.309   7.062   9.083  0.8257 -0.6003  0.3773
   25MOL0     C 3250   4.317   7.208   9.025 -0.6940  0.9621 -0.6093
   25MOL0     C 3251   4.408   7.237   8.911 -0.2751 -0.0486 -0.1635
   25MOL0     C 3252   4.400   7.139   8.784 -0.0386 -0.4348 -0.2574
   25MOL0     C 3253   4.290   7.188   8.696  0.2040 -0.7611  0.5661
   25MOL0     C 3254   4.256   7.082   8.595 -0.6506  0.3098 -0.6517
   25MOL0     C 3255   4.137   7.132   8.510  0.5035 -0.1055 -0.0853
   25MOL0     C 3256   4.099   7.016   8.411 -0.7289  0.3456  0.0084
   25MOL0     N 3257   4.207   6.996   8.311 -0.9064 -0.4452 -0.3907
   25MOL0     C 3258   4.305   6.899   8.323 -0.4502 -0.1008  0.4393
   25MOL0     C 3259   4.328   6.868   8.188 -0.2305  0.3060  0.5914
   25MOL0     C 3260   4.410   6.751   8.152 -1.0359 -0.0292  1.3842
   25MOL0     C 3261   4.556   6.787   8.185  0.3221  0.1116 -0.4645
   25MOL0     C 3262   4.647   6.676   8.139  0.8256 -0.8079  0.9280
   25MOL0     C 3263   4.696   6.568   8.225  0.3494  0.2677  0.9924
   25MOL0     O 3264   4.601   6.495   8.295 -1.2163 -0.7536 -0.0228
   25MOL0     C 3265   4.647   6.400   8.381  0.4703  0.2680  0.1231
   25MOL0     C 3266   4.764   6.381   8.454  0.1176 -0.1312  0.5781
   25MOL0     C 3267   4.792   6.282   8.545 -0.2660  0.6091 -0.1331
   25MOL0     C 3268   4.695   6.179   8.565 -0.1476  0.1276 -0.4842
   25MOL0     C 3269   4.721   6.074   8.665 -0.3884 -0.5407 -0.0151
   25MOL0     O 3270   4.623   5.971   8.675  0.3580  0.4337 -0.0050
   25MOL0     C 3271   4.671   5.851   8.728 -0.7473  0.2996  0.3524
   25MOL0     C 3272   4.774   5.779   8.666  0.2500  0.0414  0.4892
   25MOL0     C 3273   4.836   5.669   8.734 -0.1163  0.7715 -0.3194
   25MOL0     C 3274   4.799   5.649   8.876 -0.5312  0.2833  0.4689
   25MOL0     O 3275   4.866   5.559   8.957 -0.0493 -0.7128 -0.2979
   25MOL0     C 3276   4.878   5.417   8.930 -0.1421  0.2698 -0.4533
   25MOL0     C 3277   5.021   5.357   8.914 -0.7990 -0.3277  0.3344
   25MOL0     C 3278   5.136   5.409   8.998 -0.2935 -0.7370 -0.8126
   25MOL0     C 3279   5.111   5.391   9.157  0.2614 -0.5958  1.1446
   25MOL0     C 3280   5.133   5.251   9.195  1.2012 -0.1999 -0.9643
   25MOL0     C 3281   5.083   5.233   9.341  0.7369 -0.1235  0.6076
   25MOL0     C 3282   5.140   5.109   9.418 -0.6117 -0.0594 -0.1012
   25MOL0     C 3283   5.076   5.095   9.550  0.2935 -0.5139  0.3988
   25MOL0    Cl 3284   5.143   5.216   9.669  0.1595 -0.0406  0.0251
   25MOL0     C 3285   4.704   5.724   8.937 -0.5083  0.1913  0.1779
   25MOL0     C 3286   4.636   5.815   8.853  0.5255 -0.6013 -0.1820
   25MOL0     O 3287   4.835   6.077   8.719  0.6268  0.1733  0.0571
   25MOL0     C 3288   4.579   6.175   8.482  0.2461 -0.2621 -0.0065
   25MOL0     C 3289   4.561   6.289   8.398 -0.0463 -0.4968 -1.1692
   25MOL0     N 3290   4.257   6.953   8.109 -0.2872  0.4304 -0.5736
   25MOL0     N 3291   4.186   7.031   8.181 -0.1553 -0.0682 -0.3945
   25MOL0     C 3292   4.325   6.810   9.215  0.2376  1.1366  0.0407
   25MOL0     C 3293   4.304   6.698   9.297  0.4891 -0.4397  0.8082
   25MOL0     C 3294   4.303   6.505   9.741 -0.5084  0.4170  0.3353
   25MOL0     C 3295   4.409   6.418   9.702  0.5939 -0.0436  0.7465
   25MOL0     C 3296   4.448   6.310   9.783 -0.3052 -0.6799 -0.4529
   25MOL0     C 3297   4.379   6.278   9.892  0.0974  0.0377 -0.0674
   25MOL0     O 3298   4.414   6.167   9.958 -0.7950  0.0999  0.1319
   25MOL0     C 3299   4.358   6.117  10.089  0.8020 -0.6101  0.1673
   25MOL0     C 3300   4.228   6.050  10.080  0.1894  0.5490 -0.0957
   25MOL0     C 3301   4.195   5.952  10.186 -1.0210  0.4349  0.1632
   25MOL0     C 3302   4.242   5.809  10.154 -0.3586 -0.2596  0.2921
   25MOL0     C 3303   4.179   5.729  10.050 -0.5327 -0.4993  0.0426
   25MOL0     C 3304   4.117   5.655   9.975 -0.0310 -0.0483  0.8930
   25MOL0     C 3305   4.277   6.359   9.941  0.5873 -0.7298  0.4964
   25MOL0     C 3306   4.228   6.470   9.860  0.5050  0.5610 -0.5043
   25MOL0     C 3307   4.121   6.543   9.913  0.7140 -0.3808  0.1730
   25MOL0     H 3308   4.419   6.857   9.583 -0.6487 -0.3858  0.2233
   25MOL0     H 3309   4.435   7.051   9.416 -1.8333  1.5527 -3.5041
   25MOL0     H 3310   4.324   6.989   9.002  2.9640  0.2381 -0.0592
   25MOL0     H 3311   4.209   7.054   9.125  0.9316  0.7434  0.9222
   25MOL0     H 3312   4.342   7.273   9.110  1.2806  1.5129 -1.5533
   25MOL0     H 3313   4.216   7.239   8.998 -2.0925 -2.1446  0.4857
   25MOL0     H 3314   4.510   7.234   8.948 -0.3204  1.3764  0.1212
   25MOL0     H 3315   4.385   7.338   8.874 -3.9972  0.3680  2.7433
   25MOL0     H 3316   4.498   7.149   8.736  2.0322  7.5302  3.8035
   25MOL0     H 3317   4.396   7.032   8.805  3.5225 -0.5533  0.3957
   25MOL0     H 3318   4.198   7.215   8.749 -0.0269 -1.6860  0.6605
   25MOL0     H 3319   4.329   7.281   8.654  0.7426  1.3718  5.1435
   25MOL0     H 3320   4.347   7.056   8.541  1.2445 -2.0485  3.2570
   25MOL0     H 3321   4.227   6.992   8.651  0.3368  0.1251 -0.4339
   25MOL0     H 3322   4.165   7.216   8.446  1.5512 -1.2283 -1.1527
   25MOL0     H 3323   4.054   7.161   8.575  1.8009  1.5516  0.9279
   25MOL0     H 3324   4.070   6.922   8.458 -0.1318 -0.7196 -1.6640
   25MOL0     H 3325   4.015   7.063   8.359  1.0743  1.6672 -1.8697
   25MOL0     H 3326   4.341   6.835   8.403  1.1237 -1.1023 -1.0037
   25MOL0     H 3327   4.383   6.665   8.214  0.1278 -1.3096  0.1978
   25MOL0     H 3328   4.403   6.724   8.046  1.4963 -2.3771  1.6828
   25MOL0     H 3329   4.589   6.873   8.126  2.1832 -0.8018 -0.8314
   25MOL0     H 3330   4.563   6.794   8.294 -2.8409 -2.4892  0.0607
   25MOL0     H 3331   4.739   6.729   8.114  0.2478 -0.3569 -0.3233
   25MOL0     H 3332   4.603   6.633   8.049  1.5484 -1.0160  0.6674
   25MOL0     H 3333   4.781   6.608   8.282  0.2617  2.1999 -0.1252
   25MOL0     H 3334   4.736   6.496   8.154 -2.0121  1.3282 -1.5994
   25MOL0     H 3335   4.840   6.457   8.454  0.0048  0.0001 -0.3925
   25MOL0     H 3336   4.881   6.275   8.607 -1.9041 -1.7140  2.2035
   25MOL0     H 3337   4.817   5.799   8.569 -0.9165  0.5602  0.0612
   25MOL0     H 3338   4.909   5.609   8.681 -1.6235 -0.2825 -1.2694
   25MOL0     H 3339   4.824   5.374   9.014  1.7730  1.9928  1.7901
   25MOL0     H 3340   4.820   5.404   8.838  0.1803  0.3026 -0.6628
   25MOL0     H 3341   5.019   5.248   8.912 -0.5293 -0.3862 -3.0602
   25MOL0     H 3342   5.045   5.384   8.811 -0.2994 -0.9012  0.2894
   25MOL0     H 3343   5.229   5.355   8.978 -0.9633 -2.7511  1.0731
   25MOL0     H 3344   5.140   5.517   8.988 -0.2368 -0.5336  1.0121
   25MOL0     H 3345   5.022   5.441   9.196  0.5505  1.7020 -0.8820
   25MOL0     H 3346   5.185   5.449   9.214 -0.3489 -1.1054  2.4844
   25MOL0     H 3347   5.240   5.229   9.185  1.6511  0.9023  0.8670
   25MOL0     H 3348   5.069   5.185   9.137  1.2886  1.2209 -2.7455
   25MOL0     H 3349   5.099   5.321   9.404  0.5035  1.3932 -1.3812
   25MOL0     H 3350   4.976   5.212   9.331  1.2064 -1.7675 -2.0122
   25MOL0     H 3351   5.247   5.124   9.432 -0.8804  0.5475  1.4728
   25MOL0     H 3352   5.124   5.019   9.356  2.3806 -1.6721  1.2493
   25MOL0     H 3353   4.968   5.107   9.539  0.8705  3.8783 -4.0103
   25MOL0     H 3354   5.092   4.995   9.590  0.6023 -0.2073  1.0682
   25MOL0     H 3355   4.675   5.706   9.040  1.3858  0.3635  0.7648
   25MOL0     H 3356   4.573   5.887   8.902 -1.6504 -0.5530 -2.8259
   25MOL0     H 3357   4.495   6.109   8.499  0.9203 -1.1651 -0.0380
   25MOL0     H 3358   4.461   6.298   8.356 -0.5087  4.6302  0.2607
   25MOL0     H 3359   4.316   6.794   9.108  1.4792  0.5569  0.0036
   25MOL0     H 3360   4.272   6.599   9.266 -3.2971  0.6040  0.8754
   25MOL0     H 3361   4.457   6.420   9.604 -1.5458  0.7892 -0.3480
   25MOL0     H 3362   4.529   6.247   9.747 -0.1756  0.2667 -1.9550
   25MOL0     H 3363   4.334   6.199  10.157  0.7505  4.6421 -5.3677
   25MOL0     H 3364   4.425   6.040  10.128 -0.1766 -0.6442  1.8535
   25MOL0     H 3365   4.235   5.996   9.985  0.5149 -0.0424  0.2588
   25MOL0     H 3366   4.147   6.124  10.083 -1.0848 -0.7377 -1.1310
   25MOL0     H 3367   4.087   5.959  10.207 -0.9736  3.5616 -0.1481
   25MOL0     H 3368   4.232   5.975  10.286 -2.0455 -3.1318  1.5227
   25MOL0     H 3369   4.352   5.808  10.148 -0.4362 -1.0256 -1.3847
   25MOL0     H 3370   4.214   5.747  10.240 -1.3741 -0.3615 -0.1062
   25MOL0     H 3371   4.071   5.582   9.912  2.2519 -2.0384  1.3565
   25MOL0     H 3372   4.226   6.332  10.032  1.9113 -0.7862  1.2395
   25MOL0     H 3373   4.138   6.645   9.950  0.0657  0.7861 -2.5187
   25MOL0     H 3374   4.047   6.550   9.833 -0.4265  0.7224  1.2702
   25MOL0     H 3375   4.070   6.485   9.991  2.8456  1.3001  3.0425
   26MOL0     O 3376   8.177   8.681   6.344  0.2376 -0.1050 -0.0207
   26MOL0     C 3377   8.248   8.601   6.286 -0.5757 -0.0202  0.7126
   26MOL0     O 3378   8.231   8.465   6.268  0.7313 -0.0096 -0.6933
   26MOL0     C 3379   8.131   8.414   6.347 -0.3278 -0.0802 -0.6346
   26MOL0     C 3380   8.001   8.413   6.297 -0.3319  0.8225  0.5867
   26MOL0     C 3381   7.898   8.329   6.347 -0.6134  0.9711  0.0586
   26MOL0     C 3382   7.928   8.263   6.470 -0.3067 -0.5918 -0.5125
   26MOL0     O 3383   7.838   8.191   6.547 -0.1593 -0.5195 -0.1180
   26MOL0     C 3384   7.711   8.246   6.588 -0.0999  1.0994 -0.0937
   26MOL0     C 3385   7.684   8.393   6.597 -0.1081 -0.7633 -0.2412
   26MOL0     C 3386   7.775   8.466   6.698  0.0776  0.2243  0.4776
   26MOL0     C 3387   7.720   8.610   6.714  0.5525 -0.0364  0.5775
   26MOL0     C 3388   7.580   8.610   6.775 -0.5886 -1.0213 -0.3826
   26MOL0     C 3389   7.559   8.724   6.874 -0.6294 -0.3728 -0.4901
   26MOL0     C 3390   7.596   8.866   6.825  0.0682 -0.6431 -0.6713
   26MOL0     C 3391   7.548   8.967   6.926  0.2144  0.0602 -0.3099
   26MOL0     N 3392   7.601   9.102   6.895 -0.1141 -0.2859 -0.1767
   26MOL0     C 3393   7.535   9.197   6.814  0.5056 -0.1296 -0.6552
   26MOL0     C 3394   7.593   9.318   6.839 -0.0081  0.4125  0.3962
   26MOL0     C 3395   7.556   9.457   6.793 -0.3239 -0.1793  1.0200
   26MOL0     C 3396   7.503   9.453   6.652 -0.3881  0.4943 -0.2495
   26MOL0     C 3397   7.466   9.588   6.586  0.2729 -0.7063  0.4932
   26MOL0     C 3398   7.577   9.685   6.573  0.3822  0.0156  0.0532
   26MOL0     O 3399   7.535   9.804   6.642 -0.9300 -0.2063  0.2990
   26MOL0     C 3400   7.621   9.916   6.656  0.6926  0.5710 -0.3197
   26MOL0     C 3401   7.759   9.922   6.636 -0.9922 -0.9198  0.4561
   26MOL0     C 3402   7.819  10.049   6.635  0.7438  0.3581  0.1079
   26MOL0     C 3403   7.745  10.164   6.651 -0.8783 -0.0796  0.2883
   26MOL0     C 3404   7.808  10.303   6.639 -0.5557  1.4871  0.0787
   26MOL0     O 3405   7.720  10.396   6.614 -0.0428 -0.2548  0.7523
   26MOL0     C 3406   7.732  10.525   6.563 -0.2743 -0.5645  0.2071
   26MOL0     C 3407   7.621  10.594   6.547  0.9133  0.1807 -0.5048
   26MOL0     C 3408   7.617  10.720   6.492  0.5541 -0.0860 -0.8389
   26MOL0     C 3409   7.735  10.793   6.460 -0.6358 -0.4595  1.0136
   26MOL0     O 3410   7.725  10.929   6.430  0.1698  0.2083 -0.1873
   26MOL0     C 3411   7.839  10.995   6.381 -0.7893 -0.5670  0.5793
   26MOL0     C 3412   7.808  11.145   6.347 -1.2577  0.2983  0.3212
   26MOL0     C 3413   7.683  11.168   6.263 -0.0441 -0.4099  0.3623
   26MOL0     C 3414   7.660  11.325   6.257  0.2611  0.0393 -0.1567
   26MOL0     C 3415   7.519  11.335   6.210  0.1201 -0.3258  0.5036
   26MOL0     C 3416   7.503  11.479   6.151 -0.7231 -1.1395  0.1231
   26MOL0     C 3417   7.517  11.584   6.258  0.2806 -0.6912  0.5992
   26MOL0     C 3418   7.457  11.722   6.204  0.0813 -0.5435 -0.1789
   26MOL0    Cl 3419   7.445  11.866   6.320 -0.1529 -0.3426 -0.9246
   26MOL0     C 3420   7.861  10.724   6.480  0.5057  0.7963 -0.4023
   26MOL0     C 3421   7.859  10.591   6.544  1.4288 -1.7384 -0.0667
   26MOL0     O 3422   7.933  10.314   6.644 -0.6149  0.1726 -0.5052
   26MOL0     C 3423   7.607  10.157   6.677 -0.0788  0.8314 -0.3686
   26MOL0     C 3424   7.547  10.032   6.697 -0.5119 -0.3010  0.2493
   26MOL0     N 3425   7.683   9.289   6.943 -0.0730  0.3058 -0.4998
   26MOL0     N 3426   7.693   9.164   6.971  0.3611  0.6137 -0.5294
   26MOL0     C 3427   8.056   8.284   6.531  0.0918  0.3268 -0.2702
   26MOL0     C 3428   8.161   8.353   6.466 -0.0225  0.3132 -1.1694
   26MOL0     C 3429   8.370   8.660   6.216 -0.0116  0.5613  0.8062
   26MOL0     C 3430   8.480   8.571   6.188  0.8212 -0.2873 -0.2947
   26MOL0     C 3431   8.590   8.626   6.120 -0.1022 -0.5577 -0.2357
   26MOL0     C 3432   8.602   8.755   6.078  0.0972 -0.6192 -0.5728
   26MOL0     O 3433   8.717   8.791   6.009 -0.3578  0.1953 -0.3922
   26MOL0     C 3434   8.780   8.914   6.026 -1.2091  0.0708  0.2886
   26MOL0     C 3435   8.848   8.945   6.164 -0.3079 -0.1604  0.0250
   26MOL0     C 3436   8.938   8.827   6.207 -0.3982  0.3526  0.2935
   26MOL0     C 3437   9.031   8.859   6.328  0.4677 -0.1870  0.2027
   26MOL0     C 3438   9.143   8.954   6.303 -0.0000  0.0526 -0.6735
   26MOL0     C 3439   9.240   9.014   6.266 -0.0618  0.6250  0.5680
   26MOL0     C 3440   8.493   8.838   6.087 -0.2667 -0.8487 -0.5847
   26MOL0     C 3441   8.380   8.794   6.161  0.4575 -0.3076 -1.5427
   26MOL0     C 3442   8.270   8.896   6.174 -0.1288  0.2984  0.9300
   26MOL0     H 3443   7.986   8.484   6.216 -0.7914  1.3592  1.1286
   26MOL0     H 3444   7.799   8.320   6.302 -0.5262 -1.6498  0.2502
   26MOL0     H 3445   7.626   8.195   6.543  0.3128 -0.1250  0.4633
   26MOL0     H 3446   7.700   8.213   6.692 -0.4511  1.0210 -0.1586
   26MOL0     H 3447   7.584   8.407   6.638  0.1257  0.3145 -0.0065
   26MOL0     H 3448   7.695   8.431   6.495 -2.4638  0.2842 -0.1660
   26MOL0     H 3449   7.873   8.479   6.652 -0.1267 -1.4006 -0.5324
   26MOL0     H 3450   7.803   8.406   6.785  0.4255 -0.9547 -0.4102
   26MOL0     H 3451   7.791   8.651   6.787  3.5797 -2.9621 -0.4656
   26MOL0     H 3452   7.729   8.665   6.620  2.1094  1.2933  1.4519
   26MOL0     H 3453   7.503   8.633   6.701 -1.4241  0.2511  0.8387
   26MOL0     H 3454   7.566   8.520   6.836  3.3937 -1.8933 -0.4764
   26MOL0     H 3455   7.451   8.725   6.890 -0.5032 -2.1116  0.7396
   26MOL0     H 3456   7.613   8.705   6.968  1.5860  1.3658 -1.3089
   26MOL0     H 3457   7.549   8.886   6.729 -1.3265  2.6456  0.5438
   26MOL0     H 3458   7.703   8.891   6.828  0.0124 -0.2028 -1.8696
   26MOL0     H 3459   7.439   8.969   6.935 -0.1315 -1.6212 -3.0198
   26MOL0     H 3460   7.588   8.937   7.024  1.8396 -1.6008 -1.4229
   26MOL0     H 3461   7.458   9.167   6.744 -0.0582 -1.6058  0.5438
   26MOL0     H 3462   7.480   9.493   6.864 -0.8623  3.8580 -1.3147
   26MOL0     H 3463   7.642   9.524   6.803 -1.8014  2.3742 -1.9284
   26MOL0     H 3464   7.570   9.394   6.588 -0.0708  1.4455 -0.8139
   26MOL0     H 3465   7.418   9.384   6.655  3.0169 -4.1317  1.0885
   26MOL0     H 3466   7.385   9.621   6.651 -0.0773 -2.3670  0.9554
   26MOL0     H 3467   7.428   9.564   6.486  0.2243 -3.3089  1.0667
   26MOL0     H 3468   7.605   9.700   6.468  4.0955  2.5690  1.2133
   26MOL0     H 3469   7.665   9.641   6.619  0.4394  1.7442  1.7246
   26MOL0     H 3470   7.810   9.830   6.611 -2.2574 -0.5266 -4.7779
   26MOL0     H 3471   7.926  10.034   6.622  0.3354 -2.7650 -0.6139
   26MOL0     H 3472   7.522  10.556   6.573  1.0308 -0.9911 -1.6932
   26MOL0     H 3473   7.522  10.772   6.485 -1.2769 -2.7285  1.5604
   26MOL0     H 3474   7.923  10.995   6.451 -0.8614  1.1280  0.7120
   26MOL0     H 3475   7.866  10.948   6.286 -0.6032  0.9979 -0.1792
   26MOL0     H 3476   7.787  11.207   6.434  1.8952  1.6101  0.2739
   26MOL0     H 3477   7.894  11.192   6.298 -1.0117 -0.5455 -0.0842
   26MOL0     H 3478   7.690  11.127   6.162  2.4957  1.0797 -0.1707
   26MOL0     H 3479   7.605  11.121   6.323  1.2848 -0.4068  2.1715
   26MOL0     H 3480   7.735  11.370   6.190  1.0610 -4.3758 -2.6593
   26MOL0     H 3481   7.669  11.359   6.361 -0.2309 -0.3757  0.0214
   26MOL0     H 3482   7.448  11.322   6.292  0.0666 -2.3044  0.1784
   26MOL0     H 3483   7.504  11.256   6.136  1.3408 -1.7727  1.7300
   26MOL0     H 3484   7.584  11.497   6.079  0.6129  2.8407  2.3166
   26MOL0     H 3485   7.406  11.490   6.102  0.5590  2.4245 -1.9989
   26MOL0     H 3486   7.621  11.591   6.290  0.8256 -1.0099 -1.0116
   26MOL0     H 3487   7.464  11.538   6.342  0.5029 -1.8854  0.0970
   26MOL0     H 3488   7.523  11.753   6.122 -1.3249 -1.3939 -1.7036
   26MOL0     H 3489   7.358  11.695   6.168  0.3002 -0.8960 -0.5286
   26MOL0     H 3490   7.956  10.772   6.460  1.6150 -0.7529  0.8481
   26MOL0     H 3491   7.948  10.541   6.582  1.2159 -0.9951  1.4861
   26MOL0     H 3492   7.542  10.242   6.694 -1.9412 -0.9300  1.8824
   26MOL0     H 3493   7.444  10.034   6.733 -1.5878  0.5795 -2.5698
   26MOL0     H 3494   8.084   8.234   6.623  0.9819 -0.2869 -0.8561
   26MOL0     H 3495   8.266   8.354   6.494 -0.0021  1.8987 -1.1814
   26MOL0     H 3496   8.478   8.468   6.221 -0.1053 -0.2533 -0.2021
   26MOL0     H 3497   8.673   8.563   6.090 -1.5713  0.4107 -8.6623
   26MOL0     H 3498   8.701   8.989   6.012 -0.8985  0.2510 -0.5311
   26MOL0     H 3499   8.849   8.908   5.942  2.1618 -0.6072  2.8627
   26MOL0     H 3500   8.765   8.969   6.231 -0.6640 -3.7312  1.0854
   26MOL0     H 3501   8.920   9.028   6.163  0.5924 -0.9016 -1.5786
   26MOL0     H 3502   8.994   8.802   6.117 -2.2794 -2.4277 -0.2183
   26MOL0     H 3503   8.875   8.740   6.225  0.5799 -0.1516  1.4712
   26MOL0     H 3504   8.970   8.878   6.417 -0.4757 -1.0163 -0.2517
   26MOL0     H 3505   9.077   8.765   6.359 -2.2736 -1.5224  0.5275
   26MOL0     H 3506   9.324   9.071   6.232  0.2011 -0.3705 -0.4965
   26MOL0     H 3507   8.504   8.941   6.054  0.5899  0.4792  3.3078
   26MOL0     H 3508   8.287   8.972   6.097 -0.2395  0.2541  0.8602
   26MOL0     H 3509   8.172   8.852   6.150 -0.9813  1.8163  1.5110
   26MOL0     H 3510   8.277   8.945   6.271  0.6816  1.0375  0.5131
   27MOL0     O 3511   0.476   3.165   6.803  0.3160  0.4545 -0.2207
   27MOL0     C 3512   0.539   3.154   6.698  0.0011 -0.1009 -0.4716
   27MOL0     O 3513   0.675   3.154   6.695  0.0895  0.1233  0.8810
   27MOL0     C 3514   0.737   3.159   6.818 -0.1469 -0.4756  0.7669
   27MOL0     C 3515   0.832   3.254   6.833 -0.5073  0.2273  0.1718
   27MOL0     C 3516   0.894   3.275   6.957 -0.6120 -0.0616 -0.2379
   27MOL0     C 3517   0.858   3.181   7.060  0.8260 -0.8661  0.5470
   27MOL0     O 3518   0.917   3.217   7.181 -0.2848 -0.5524  0.4641
   27MOL0     C 3519   0.996   3.109   7.233 -0.6864 -0.7884  0.6106
   27MOL0     C 3520   1.082   3.171   7.345 -0.7418 -0.3499 -0.0436
   27MOL0     C 3521   1.175   3.064   7.395 -0.0681  0.2740  0.0051
   27MOL0     C 3522   1.246   3.137   7.502 -0.3594  0.9786 -0.6837
   27MOL0     C 3523   1.378   3.055   7.540  0.2281 -0.0781  0.3398
   27MOL0     C 3524   1.495   3.121   7.464 -0.2115 -0.5402 -0.7350
   27MOL0     C 3525   1.632   3.049   7.496  0.7463  0.3575 -1.4690
   27MOL0     C 3526   1.737   3.110   7.414 -0.3462 -0.3985 -0.1856
   27MOL0     N 3527   1.851   3.024   7.414 -0.9050  0.1799 -0.1910
   27MOL0     C 3528   1.893   2.945   7.309  0.2076  0.1180 -0.3719
   27MOL0     C 3529   2.014   2.902   7.333 -0.5321 -0.6620  0.7953
   27MOL0     C 3530   2.097   2.814   7.241  0.0397 -0.0979 -0.3144
   27MOL0     C 3531   2.163   2.885   7.115 -0.0831  0.0354  0.0591
   27MOL0     C 3532   2.264   2.997   7.154  0.4140  0.5043  0.6541
   27MOL0     C 3533   2.304   3.095   7.044  0.0387  0.1019  1.0784
   27MOL0     O 3534   2.190   3.168   6.989 -0.0103  0.1178  0.5281
   27MOL0     C 3535   2.155   3.144   6.862  0.5960 -1.1572 -0.3622
   27MOL0     C 3536   2.024   3.107   6.825  0.7391  0.1666 -0.2625
   27MOL0     C 3537   1.985   3.106   6.686  0.2290 -0.4049 -1.0760
   27MOL0     C 3538   2.077   3.143   6.590  0.3674  0.2051 -0.1428
   27MOL0     C 3539   2.031   3.153   6.450  1.0816 -0.9641 -1.0042
   27MOL0     O 3540   1.892   3.177   6.428  0.6202  0.4594 -0.0035
   27MOL0     C 3541   1.841   3.190   6.298  0.7452  0.6208 -0.5358
   27MOL0     C 3542   1.902   3.256   6.188 -0.9380  0.9079  0.5412
   27MOL0     C 3543   1.838   3.277   6.061  0.2342 -0.1039 -0.1161
   27MOL0     C 3544   1.707   3.238   6.045  0.8306  0.9758 -0.1627
   27MOL0     O 3545   1.666   3.272   5.924  0.9050 -0.8046 -0.1410
   27MOL0     C 3546   1.531   3.254   5.882  0.3480  0.3788  0.3679
   27MOL0     C 3547   1.511   3.278   5.736 -1.3884 -0.8478  0.9223
   27MOL0     C 3548   1.368   3.232   5.689 -0.2249  0.0344 -0.3901
   27MOL0     C 3549   1.261   3.344   5.688 -0.2234 -0.2335 -0.2969
   27MOL0     C 3550   1.160   3.321   5.589 -0.4814 -0.0925 -0.2603
   27MOL0     C 3551   1.070   3.439   5.578 -0.0450 -0.8018 -0.2862
   27MOL0     C 3552   0.977   3.439   5.453  0.0234 -0.0752 -0.3109
   27MOL0     C 3553   0.886   3.562   5.441  0.0372 -0.3037 -0.2819
   27MOL0    Cl 3554   0.774   3.601   5.571  0.3918 -0.0003 -0.3379
   27MOL0     C 3555   1.639   3.168   6.148 -0.2777 -1.0042  0.5042
   27MOL0     C 3556   1.704   3.158   6.274 -0.8362 -0.7676  0.2445
   27MOL0     O 3557   2.116   3.154   6.363  0.2113 -0.1597 -0.3910
   27MOL0     C 3558   2.208   3.171   6.616  0.2459 -0.0655 -1.0665
   27MOL0     C 3559   2.244   3.173   6.756 -0.3551  0.4379  0.0562
   27MOL0     N 3560   2.062   2.958   7.452  0.2684 -0.2139 -0.5475
   27MOL0     N 3561   1.967   3.033   7.493 -0.5317  0.5743  0.2241
   27MOL0     C 3562   0.765   3.079   7.048 -0.3422  0.5692 -0.4065
   27MOL0     C 3563   0.704   3.070   6.925  0.1362  0.3969 -0.2538
   27MOL0     C 3564   0.475   3.116   6.569 -0.8488  0.5723 -0.1320
   27MOL0     C 3565   0.538   3.007   6.500 -0.2880  0.4981 -0.4727
   27MOL0     C 3566   0.505   2.972   6.367 -0.7036  0.4053 -0.9650
   27MOL0     C 3567   0.389   3.028   6.321  1.0287 -0.8177  0.0362
   27MOL0     O 3568   0.314   2.974   6.216 -0.6771 -0.6917  0.4774
   27MOL0     C 3569   0.362   2.861   6.131  0.1121  0.2397 -0.6086
   27MOL0     C 3570   0.457   2.904   6.020 -0.5843 -0.1711  0.1925
   27MOL0     C 3571   0.383   2.955   5.896 -0.1639 -0.4771  0.2693
   27MOL0     C 3572   0.483   2.988   5.784  1.0493 -1.0044 -0.5858
   27MOL0     C 3573   0.523   2.873   5.718  0.4344  0.0004  0.8924
   27MOL0     C 3574   0.529   2.756   5.669  0.2176 -1.2121  1.0481
   27MOL0     C 3575   0.320   3.140   6.385 -0.1401  0.2226  0.8965
   27MOL0     C 3576   0.362   3.176   6.513  1.1853  0.3929  1.9560
   27MOL0     C 3577   0.281   3.273   6.582  0.4126 -0.8155  1.1881
   27MOL0     H 3578   0.864   3.316   6.750  1.3742 -0.9329 -0.0136
   27MOL0     H 3579   0.954   3.364   6.972 -0.4204 -0.6966  4.0099
   27MOL0     H 3580   0.933   3.030   7.275 -0.1197 -0.5776  1.9252
   27MOL0     H 3581   1.055   3.064   7.153 -2.4907 -0.1759 -1.1542
   27MOL0     H 3582   1.025   3.211   7.430  0.1393  0.2854  0.2592
   27MOL0     H 3583   1.142   3.241   7.287 -0.5949 -2.5520 -2.7421
   27MOL0     H 3584   1.239   3.041   7.310  1.0316 -1.5881  1.2501
   27MOL0     H 3585   1.139   2.967   7.432 -0.2083  0.1274 -0.5192
   27MOL0     H 3586   1.278   3.233   7.460 -0.1333  0.8949 -0.7006
   27MOL0     H 3587   1.184   3.140   7.592 -0.2057 -1.7432 -0.3985
   27MOL0     H 3588   1.387   3.057   7.649  0.2290 -0.1362  0.3406
   27MOL0     H 3589   1.364   2.950   7.512 -0.8405  0.6825 -2.2566
   27MOL0     H 3590   1.483   3.114   7.356 -1.4933  1.5406 -0.7758
   27MOL0     H 3591   1.513   3.222   7.503  0.1327 -0.2428 -1.6416
   27MOL0     H 3592   1.623   2.943   7.472 -2.0191 -0.5849  2.6333
   27MOL0     H 3593   1.650   3.057   7.604 -1.5191 -3.4966 -0.6367
   27MOL0     H 3594   1.704   3.121   7.310 -0.7686  1.7757  0.1295
   27MOL0     H 3595   1.773   3.205   7.456 -1.2060  0.5119 -1.4301
   27MOL0     H 3596   1.852   2.919   7.213  1.7671  1.0382 -1.3317
   27MOL0     H 3597   2.173   2.765   7.303 -0.0909 -1.2682 -1.0496
   27MOL0     H 3598   2.038   2.731   7.201  2.2033 -2.2569  0.6736
   27MOL0     H 3599   2.210   2.807   7.054 -2.9063 -2.1359  0.4666
   27MOL0     H 3600   2.085   2.915   7.045 -0.9518 -2.8159 -0.3047
   27MOL0     H 3601   2.353   2.940   7.181 -0.9111 -0.9875  2.1449
   27MOL0     H 3602   2.226   3.049   7.242 -0.2167  0.8912  0.1682
   27MOL0     H 3603   2.343   3.040   6.958 -2.5161  0.0888 -0.1538
   27MOL0     H 3604   2.380   3.165   7.078  1.6657 -0.0283 -1.9573
   27MOL0     H 3605   1.944   3.106   6.899  1.0333  2.3239  0.1238
   27MOL0     H 3606   1.885   3.082   6.650 -0.6169  1.1234  0.1396
   27MOL0     H 3607   2.006   3.288   6.189  0.5549 -2.9888 -2.5635
   27MOL0     H 3608   1.900   3.321   5.983  0.2596  1.2359  0.6322
   27MOL0     H 3609   1.504   3.152   5.910  1.4704  0.5502  2.2621
   27MOL0     H 3610   1.459   3.310   5.942 -0.5939 -0.8869  0.4451
   27MOL0     H 3611   1.531   3.380   5.702  4.9931 -2.4931 -1.8407
   27MOL0     H 3612   1.587   3.218   5.685  0.9582  2.3907  0.2503
   27MOL0     H 3613   1.375   3.184   5.590 -0.1127 -4.3025  1.4757
   27MOL0     H 3614   1.335   3.155   5.759 -2.1872  2.5654  1.6650
   27MOL0     H 3615   1.308   3.441   5.668  4.1070 -1.3855  2.7876
   27MOL0     H 3616   1.220   3.357   5.788  2.6595  0.9558  0.8543
   27MOL0     H 3617   1.103   3.228   5.602 -2.4838  1.1727  0.3686
   27MOL0     H 3618   1.201   3.313   5.488 -3.7740  1.3941 -1.8705
   27MOL0     H 3619   0.996   3.442   5.659 -0.0622  3.4143 -0.2700
   27MOL0     H 3620   1.136   3.524   5.559  0.6650 -1.7058 -2.1664
   27MOL0     H 3621   0.906   3.357   5.466  0.2721 -0.2247  0.1240
   27MOL0     H 3622   1.037   3.431   5.362  2.1388  3.1160  0.6062
   27MOL0     H 3623   0.942   3.654   5.422  0.1881 -0.1620  0.8332
   27MOL0     H 3624   0.828   3.535   5.352 -0.7725 -1.7284  0.6514
   27MOL0     H 3625   1.536   3.141   6.130 -0.7549  1.6371 -1.2357
   27MOL0     H 3626   1.646   3.124   6.359  4.4892 -2.6179  3.7059
   27MOL0     H 3627   2.284   3.185   6.540 -0.6573  1.3182 -1.7484
   27MOL0     H 3628   2.347   3.199   6.781 -1.1960  3.0415  1.0707
   27MOL0     H 3629   0.729   3.026   7.136 -1.6966 -0.5670 -1.5868
   27MOL0     H 3630   0.630   2.992   6.910  1.2206 -0.9840  1.1792
   27MOL0     H 3631   0.619   2.959   6.554  0.1089 -0.5812 -1.9470
   27MOL0     H 3632   0.555   2.888   6.319 -3.1057 -1.6151 -0.1549
   27MOL0     H 3633   0.276   2.803   6.095 -0.6024  1.2138 -0.5402
   27MOL0     H 3634   0.416   2.802   6.205  0.5528  2.7175  1.1490
   27MOL0     H 3635   0.520   2.817   6.002 -0.7365 -0.2225 -0.0920
   27MOL0     H 3636   0.525   2.983   6.054 -1.0724  0.9985 -1.4532
   27MOL0     H 3637   0.319   3.041   5.918 -2.3702 -2.1396  0.7862
   27MOL0     H 3638   0.315   2.873   5.870  1.5194 -0.9620 -3.2051
   27MOL0     H 3639   0.436   3.050   5.706  1.2894  2.5868  1.9128
   27MOL0     H 3640   0.565   3.040   5.834 -0.2612  1.2442 -0.6346
   27MOL0     H 3641   0.525   2.653   5.641 -0.5947 -0.6072 -1.2834
   27MOL0     H 3642   0.230   3.181   6.341 -0.9343 -2.4076 -0.1735
   27MOL0     H 3643   0.340   3.352   6.629  0.7250  1.2478 -2.3095
   27MOL0     H 3644   0.233   3.340   6.509  0.2829 -2.1019  0.0450
   27MOL0     H 3645   0.198   3.235   6.643 -0.9037 -2.3859 -1.4048
   28MOL0     O 3646   2.282   7.480   4.178 -0.5598  0.5657 -1.4821
   28MOL0     C 3647   2.233   7.590   4.160  0.8967 -0.0324  0.5144
   28MOL0     O 3648   2.249   7.707   4.231 -0.1262  0.2189  0.3546
   28MOL0     C 3649   2.339   7.716   4.330 -0.1483  0.7648 -0.2238
   28MOL0     C 3650   2.301   7.680   4.458 -0.1146  0.0096 -0.4392
   28MOL0     C 3651   2.394   7.675   4.562 -0.3067 -0.1911 -0.4463
   28MOL0     C 3652   2.524   7.713   4.534 -0.5547 -0.4933  0.3651
   28MOL0     O 3653   2.605   7.693   4.637 -0.1874  0.4863 -0.3767
   28MOL0     C 3654   2.722   7.766   4.656  1.8401  0.1729  0.0227
   28MOL0     C 3655   2.708   7.877   4.753  0.7276 -0.6043 -0.4723
   28MOL0     C 3656   2.738   7.842   4.893 -0.3705  0.2342 -0.3646
   28MOL0     C 3657   2.622   7.763   4.966 -0.1571 -0.1677  0.0773
   28MOL0     C 3658   2.514   7.853   5.029 -0.2134  0.3758  0.8516
   28MOL0     C 3659   2.427   7.764   5.106 -0.0798  0.0876 -0.7309
   28MOL0     C 3660   2.292   7.825   5.137 -0.0512 -0.1026 -0.1136
   28MOL0     C 3661   2.192   7.791   5.023 -0.2422  0.0435 -0.1723
   28MOL0     N 3662   2.122   7.667   5.054  0.1764 -0.5145 -0.9166
   28MOL0     C 3663   2.035   7.656   5.162  0.7077 -0.1184 -0.7851
   28MOL0     C 3664   1.994   7.526   5.160  0.2668 -0.5265 -0.5081
   28MOL0     C 3665   1.894   7.455   5.254 -0.6643 -0.9537  0.6244
   28MOL0     C 3666   1.944   7.485   5.401 -0.7937 -0.2327 -0.7123
   28MOL0     C 3667   1.846   7.407   5.505 -1.0382  0.1034  0.0932
   28MOL0     C 3668   1.819   7.255   5.472 -0.1745 -0.8619 -0.1495
   28MOL0     O 3669   1.729   7.204   5.568 -0.9230  0.1111 -0.1208
   28MOL0     C 3670   1.691   7.078   5.556  0.2016 -0.4318 -0.2450
   28MOL0     C 3671   1.596   7.044   5.656 -0.7576  1.6679 -0.0839
   28MOL0     C 3672   1.538   6.915   5.650  1.1012 -0.3361  0.0863
   28MOL0     C 3673   1.565   6.828   5.544 -0.4689 -0.4619 -0.0477
   28MOL0     C 3674   1.496   6.697   5.541 -1.1162 -0.5226  0.2360
   28MOL0     O 3675   1.425   6.644   5.645 -0.1987 -0.1237 -0.3858
   28MOL0     C 3676   1.414   6.509   5.667 -0.0896 -0.9349  0.1407
   28MOL0     C 3677   1.318   6.478   5.767 -0.3692  0.5684  0.2563
   28MOL0     C 3678   1.305   6.342   5.808  0.4960 -1.0741 -0.8924
   28MOL0     C 3679   1.368   6.237   5.746 -0.8879 -0.6032  0.1265
   28MOL0     O 3680   1.344   6.109   5.792  0.2983  0.0742  1.1565
   28MOL0     C 3681   1.220   6.071   5.831  0.7959  0.1648 -0.0917
   28MOL0     C 3682   1.139   6.041   5.710 -0.3206 -0.4961 -0.7830
   28MOL0     C 3683   1.200   5.925   5.638 -0.8684  0.6463  0.0376
   28MOL0     C 3684   1.114   5.854   5.541  0.3920 -0.2498 -0.7680
   28MOL0     C 3685   1.211   5.776   5.450  0.1035  0.5231 -0.0832
   28MOL0     C 3686   1.290   5.661   5.527 -0.0366  0.1681 -0.0520
   28MOL0     C 3687   1.198   5.559   5.601  0.5184  0.4994 -0.4786
   28MOL0     C 3688   1.087   5.500   5.517 -0.7946 -0.1640  0.1033
   28MOL0    Cl 3689   1.149   5.378   5.390 -0.0473  0.1056 -0.1277
   28MOL0     C 3690   1.468   6.274   5.641  0.0880  0.6584 -0.4848
   28MOL0     C 3691   1.494   6.405   5.606 -0.4570 -0.5459 -0.2367
   28MOL0     O 3692   1.503   6.641   5.426  0.1698 -0.5738  0.1348
   28MOL0     C 3693   1.664   6.864   5.447  0.5506  0.2752 -0.2967
   28MOL0     C 3694   1.725   6.983   5.459  0.0431 -0.0774  0.2720
   28MOL0     N 3695   2.049   7.468   5.049  0.4497 -0.6322  0.1281
   28MOL0     N 3696   2.135   7.548   4.996  0.1947 -0.0664 -0.8514
   28MOL0     C 3697   2.558   7.751   4.406 -0.1053 -0.3363 -0.9841
   28MOL0     C 3698   2.472   7.761   4.302  0.0277  0.4547  0.2448
   28MOL0     C 3699   2.120   7.591   4.068  1.3442 -0.1028 -0.7797
   28MOL0     C 3700   2.130   7.514   3.951 -0.9368 -0.2459  0.4225
   28MOL0     C 3701   2.029   7.508   3.854  0.6302  1.4651  0.7129
   28MOL0     C 3702   1.904   7.566   3.884  0.3361 -0.2821  0.3871
   28MOL0     O 3703   1.794   7.571   3.798  0.6092  0.4434  0.0116
   28MOL0     C 3704   1.769   7.456   3.717 -0.3554  0.8645 -0.4631
   28MOL0     C 3705   1.627   7.451   3.690  0.3375 -0.1714  0.2535
   28MOL0     C 3706   1.532   7.472   3.808  0.1152  0.2764 -0.2017
   28MOL0     C 3707   1.389   7.491   3.753 -0.5493  0.6438  0.4017
   28MOL0     C 3708   1.369   7.631   3.706  0.5042 -0.0691  0.4722
   28MOL0     C 3709   1.370   7.746   3.669  0.5998 -0.6021  0.0429
   28MOL0     C 3710   1.885   7.642   4.003 -0.3615 -0.1625  0.8814
   28MOL0     C 3711   1.992   7.660   4.093 -0.7079  0.7007 -0.4666
   28MOL0     C 3712   1.954   7.742   4.217  0.1477  0.1968 -0.4044
   28MOL0     H 3713   2.200   7.641   4.465  0.7190 -2.1187  0.7649
   28MOL0     H 3714   2.371   7.644   4.664  0.1232 -2.3155 -0.9488
   28MOL0     H 3715   2.803   7.698   4.685  1.4147 -0.0144  0.7926
   28MOL0     H 3716   2.754   7.810   4.561  0.0465  3.0004  0.6081
   28MOL0     H 3717   2.600   7.898   4.755  0.9343  0.5730  1.1068
   28MOL0     H 3718   2.761   7.970   4.727  0.7544  0.3449  2.5522
   28MOL0     H 3719   2.762   7.937   4.942  0.3040  0.3411 -0.8973
   28MOL0     H 3720   2.826   7.777   4.892 -1.9527 -2.0316 -2.3729
   28MOL0     H 3721   2.574   7.698   4.893 -0.3695  1.8399 -1.6830
   28MOL0     H 3722   2.679   7.707   5.041 -1.6914 -3.3568 -0.9935
   28MOL0     H 3723   2.561   7.932   5.089  0.4568 -1.0582  2.2888
   28MOL0     H 3724   2.462   7.898   4.944 -1.1235 -0.4228  0.9641
   28MOL0     H 3725   2.412   7.669   5.055 -5.1987  0.2869 -0.1420
   28MOL0     H 3726   2.483   7.745   5.199 -0.5157 -0.2728 -0.5385
   28MOL0     H 3727   2.307   7.931   5.159  3.3525 -0.4907 -0.0268
   28MOL0     H 3728   2.250   7.790   5.232 -2.6318 -1.2090 -1.5530
   28MOL0     H 3729   2.130   7.881   5.017 -0.0521  0.1364 -0.9442
   28MOL0     H 3730   2.246   7.780   4.928  0.2152  3.3381 -0.4002
   28MOL0     H 3731   2.031   7.729   5.242  3.0089 -1.4933  0.7021
   28MOL0     H 3732   1.789   7.477   5.233 -0.5261 -1.4918 -0.7323
   28MOL0     H 3733   1.896   7.347   5.239 -1.1600 -0.8651 -0.1187
   28MOL0     H 3734   2.047   7.458   5.423 -1.5425 -1.7735  1.1267
   28MOL0     H 3735   1.944   7.588   5.437  3.0898 -0.4995  0.4270
   28MOL0     H 3736   1.749   7.457   5.505 -0.5643  1.0498  0.6854
   28MOL0     H 3737   1.897   7.423   5.600 -0.1440 -1.5912 -0.0606
   28MOL0     H 3738   1.919   7.211   5.476  0.1128 -0.6389 -2.8210
   28MOL0     H 3739   1.785   7.234   5.370  0.4747 -1.7016 -0.2025
   28MOL0     H 3740   1.575   7.117   5.734  1.6674  3.1741 -0.7304
   28MOL0     H 3741   1.449   6.901   5.710 -0.4530  3.4051 -1.0229
   28MOL0     H 3742   1.269   6.555   5.826 -0.4573  0.0085  0.9227
   28MOL0     H 3743   1.232   6.330   5.888  1.9166  1.2400  0.9137
   28MOL0     H 3744   1.232   5.982   5.893  3.7181  2.0436  2.3209
   28MOL0     H 3745   1.169   6.136   5.903 -1.1646  1.3770 -2.4153
   28MOL0     H 3746   1.050   6.009   5.766 -0.5037  4.0853  2.0126
   28MOL0     H 3747   1.115   6.130   5.651  3.0051 -0.4081 -2.2449
   28MOL0     H 3748   1.289   5.963   5.586 -0.0090  1.8284  2.2489
   28MOL0     H 3749   1.226   5.850   5.714 -0.2253  0.2450 -0.5682
   28MOL0     H 3750   1.047   5.923   5.489  3.4312  1.2134 -3.0454
   28MOL0     H 3751   1.041   5.789   5.591 -0.3076  0.7742 -0.4269
   28MOL0     H 3752   1.278   5.847   5.401  0.3325  1.3549  1.3887
   28MOL0     H 3753   1.151   5.740   5.365  2.0289  0.5983 -1.5408
   28MOL0     H 3754   1.343   5.602   5.451  0.5593 -0.5634  0.8992
   28MOL0     H 3755   1.351   5.705   5.607 -0.6456  0.0220  0.4963
   28MOL0     H 3756   1.155   5.613   5.687 -0.8744 -0.7968 -0.3078
   28MOL0     H 3757   1.254   5.476   5.644  4.6218  1.4336 -3.4136
   28MOL0     H 3758   1.010   5.444   5.571  0.0075  0.0742  1.5172
   28MOL0     H 3759   1.036   5.581   5.463 -1.4825  1.1167  2.5546
   28MOL0     H 3760   1.519   6.193   5.589 -1.9965 -0.3822 -1.0035
   28MOL0     H 3761   1.575   6.423   5.536  0.0421 -3.1093 -0.4194
   28MOL0     H 3762   1.677   6.788   5.371 -0.3496 -1.2049  0.9709
   28MOL0     H 3763   1.805   7.016   5.393 -1.5530  0.6574 -1.4031
   28MOL0     H 3764   2.666   7.749   4.391  0.7358  1.1467  3.4280
   28MOL0     H 3765   2.501   7.780   4.199 -3.1249 -0.1795 -0.8530
   28MOL0     H 3766   2.218   7.455   3.929 -1.5458 -1.6388  1.5388
   28MOL0     H 3767   2.036   7.446   3.765 -2.1855  2.0365  0.0061
   28MOL0     H 3768   1.782   7.364   3.776 -0.1926  0.2956 -1.3758
   28MOL0     H 3769   1.836   7.452   3.631 -0.4105  0.1369 -0.4846
   28MOL0     H 3770   1.606   7.356   3.639 -0.5840  0.8255 -1.3358
   28MOL0     H 3771   1.620   7.534   3.619  2.3292 -0.2506 -0.1096
   28MOL0     H 3772   1.549   7.548   3.886  0.3785  0.3359 -0.3151
   28MOL0     H 3773   1.528   7.383   3.872 -1.5818  0.8369  0.5305
   28MOL0     H 3774   1.389   7.410   3.679  3.7760 -0.8923  1.8065
   28MOL0     H 3775   1.309   7.472   3.825 -0.5411  0.8665  0.4714
   28MOL0     H 3776   1.370   7.849   3.640  3.6512 -1.2733 -3.0022
   28MOL0     H 3777   1.789   7.690   4.016  0.9159  1.9359  3.3718
   28MOL0     H 3778   2.029   7.818   4.239  3.6184 -2.9085 -0.5528
   28MOL0     H 3779   1.852   7.779   4.206 -0.0675 -0.5629 -1.1037
   28MOL0     H 3780   1.946   7.675   4.304 -2.5893  2.2228  1.0575
   29MOL0     O 3781   1.150   9.010   3.169  0.2936  0.3250 -0.1027
   29MOL0     C 3782   1.232   8.964   3.247  0.9718 -0.6329 -0.1532
   29MOL0     O 3783   1.355   8.914   3.213 -1.0044 -1.0164  0.1000
   29MOL0     C 3784   1.380   8.875   3.083 -0.0499 -0.6543 -0.1350
   29MOL0     C 3785   1.428   8.959   2.978  0.2907  0.6217 -0.7828
   29MOL0     C 3786   1.443   8.905   2.847  1.0326 -0.6067  1.0227
   29MOL0     C 3787   1.434   8.773   2.819  0.4991 -0.4226  0.4892
   29MOL0     O 3788   1.473   8.724   2.704  0.0517 -0.0097  0.1032
   29MOL0     C 3789   1.534   8.804   2.603  0.7752 -0.1293 -0.3144
   29MOL0     C 3790   1.571   8.706   2.486 -0.2113 -0.7879 -0.6919
   29MOL0     C 3791   1.614   8.775   2.359  0.7035 -0.1440  0.0328
   29MOL0     C 3792   1.748   8.841   2.377 -0.1297 -0.2418  0.0746
   29MOL0     C 3793   1.860   8.735   2.396 -1.5321 -0.1457  0.4583
   29MOL0     C 3794   2.006   8.786   2.390 -1.0618 -0.5706  0.2764
   29MOL0     C 3795   2.109   8.676   2.436  0.1589  0.3381 -0.6201
   29MOL0     C 3796   2.147   8.595   2.315  0.4984  0.0421  0.0402
   29MOL0     N 3797   2.199   8.469   2.368 -0.4000 -0.6589 -0.2273
   29MOL0     C 3798   2.331   8.448   2.357 -1.6211 -0.4615 -0.5386
   29MOL0     C 3799   2.354   8.327   2.416 -0.4065  0.1956 -0.5814
   29MOL0     C 3800   2.500   8.274   2.443 -0.5677 -0.1909 -0.0327
   29MOL0     C 3801   2.545   8.176   2.333 -0.3643 -0.2595 -0.8721
   29MOL0     C 3802   2.662   8.089   2.360  0.6120 -0.1604  0.1614
   29MOL0     C 3803   2.717   8.042   2.225  0.3055 -0.1323 -0.1247
   29MOL0     O 3804   2.769   8.154   2.153  0.2313 -0.0963 -0.6135
   29MOL0     C 3805   2.875   8.130   2.067 -0.5179 -0.1954 -0.8457
   29MOL0     C 3806   2.908   8.003   2.010  0.5891 -0.6280  0.4887
   29MOL0     C 3807   3.015   7.980   1.923  1.0783 -0.5684  0.6181
   29MOL0     C 3808   3.100   8.087   1.881  0.0085 -0.5108 -0.6976
   29MOL0     C 3809   3.210   8.068   1.783  0.4867 -0.6746 -0.4793
   29MOL0     O 3810   3.207   7.954   1.710  0.0746 -0.2712  0.3901
   29MOL0     C 3811   3.316   7.935   1.626 -0.0370 -1.0470 -0.7369
   29MOL0     C 3812   3.436   7.881   1.662  0.2105 -0.1625  0.0177
   29MOL0     C 3813   3.545   7.881   1.572  0.7030 -0.3386  0.6159
   29MOL0     C 3814   3.534   7.938   1.444  0.0019  0.4444 -0.8224
   29MOL0     O 3815   3.648   7.915   1.361  0.7790  0.6255 -0.4566
   29MOL0     C 3816   3.716   8.030   1.311  0.2810 -0.0782 -0.2881
   29MOL0     C 3817   3.831   8.075   1.405 -0.0522  0.0217 -0.5856
   29MOL0     C 3818   3.772   8.128   1.540  0.0435  0.0928  0.0042
   29MOL0     C 3819   3.882   8.196   1.628 -0.1785 -0.1378 -0.5440
   29MOL0     C 3820   3.974   8.294   1.555  0.1354 -0.1653 -0.2112
   29MOL0     C 3821   3.881   8.404   1.490 -0.5214  0.4420 -0.0970
   29MOL0     C 3822   3.962   8.505   1.414 -0.0710  0.2897  0.3811
   29MOL0     C 3823   3.874   8.590   1.319 -0.1020 -0.0996  0.6053
   29MOL0    Cl 3824   3.854   8.495   1.166 -0.0571 -0.4371  0.1941
   29MOL0     C 3825   3.415   7.997   1.413  0.2114  0.6839  0.2882
   29MOL0     C 3826   3.305   7.995   1.503 -0.3488 -0.5431  0.2374
   29MOL0     O 3827   3.283   8.161   1.759 -0.0492 -0.2437  0.3690
   29MOL0     C 3828   3.063   8.217   1.941 -0.0042 -0.6627 -0.4050
   29MOL0     C 3829   2.956   8.234   2.024  0.2663 -0.6069  0.1363
   29MOL0     N 3830   2.235   8.273   2.451 -0.2838  0.7035 -0.2713
   29MOL0     N 3831   2.145   8.355   2.426  1.0837  0.4275 -0.0362
   29MOL0     C 3832   1.389   8.698   2.921 -1.1088  1.0072  0.5932
   29MOL0     C 3833   1.365   8.743   3.056  0.5721 -0.1415 -1.0208
   29MOL0     C 3834   1.196   8.978   3.394  0.3719  0.7092 -0.1401
   29MOL0     C 3835   1.293   8.930   3.488  1.7196 -1.2030  0.5943
   29MOL0     C 3836   1.274   8.959   3.629 -0.2089  0.6227  0.2152
   29MOL0     C 3837   1.147   9.009   3.675 -0.0897 -0.7044 -0.8693
   29MOL0     O 3838   1.128   9.037   3.805 -0.0418 -0.7977 -0.4275
   29MOL0     C 3839   1.204   9.130   3.878 -0.9718 -0.1826  1.0464
   29MOL0     C 3840   1.158   9.105   4.013 -0.0329 -0.7667 -0.1232
   29MOL0     C 3841   1.207   8.970   4.079 -0.0567  0.3241 -0.4098
   29MOL0     C 3842   1.363   8.940   4.078  0.0220  0.0940 -0.2053
   29MOL0     C 3843   1.399   8.853   4.195 -0.6832  0.7121  0.1304
   29MOL0     C 3844   1.434   8.768   4.279  0.6596 -0.6369 -0.2800
   29MOL0     C 3845   1.057   9.051   3.584 -0.0681  0.7846 -0.0105
   29MOL0     C 3846   1.075   9.035   3.445  0.2588 -0.2400 -0.6278
   29MOL0     C 3847   0.959   9.088   3.363 -0.7130 -0.2793  0.2645
   29MOL0     H 3848   1.434   9.066   2.993 -1.1414  0.5314  0.6453
   29MOL0     H 3849   1.466   8.984   2.776  0.7915  1.4309  3.0882
   29MOL0     H 3850   1.460   8.873   2.563  0.6015 -0.9329 -1.4225
   29MOL0     H 3851   1.617   8.861   2.646 -0.4816  0.7768  1.0132
   29MOL0     H 3852   1.478   8.654   2.461 -1.0518 -0.6985  1.9958
   29MOL0     H 3853   1.639   8.628   2.520  1.6374 -0.5507 -3.4837
   29MOL0     H 3854   1.534   8.845   2.333 -1.0278 -2.3640 -0.9649
   29MOL0     H 3855   1.615   8.706   2.274  0.2762 -0.1939  0.0649
   29MOL0     H 3856   1.772   8.904   2.291 -1.1569  0.9960  0.6668
   29MOL0     H 3857   1.741   8.913   2.459  0.4401  0.9504 -0.9071
   29MOL0     H 3858   1.846   8.677   2.488 -1.4670  0.0057  0.5655
   29MOL0     H 3859   1.855   8.661   2.316  1.0678  0.0136  0.0358
   29MOL0     H 3860   2.031   8.808   2.286  2.3056 -3.1745  0.3253
   29MOL0     H 3861   2.023   8.871   2.456 -1.7919  0.1623 -0.4623
   29MOL0     H 3862   2.066   8.618   2.519 -1.0969  0.3605 -1.2299
   29MOL0     H 3863   2.192   8.728   2.484  1.4470 -2.0188 -0.1187
   29MOL0     H 3864   2.055   8.581   2.258  0.1652 -1.5982  0.9004
   29MOL0     H 3865   2.220   8.648   2.253  0.5881  1.0629  0.9999
   29MOL0     H 3866   2.406   8.523   2.335 -1.3697 -1.1979 -2.4486
   29MOL0     H 3867   2.567   8.360   2.444 -2.4498  1.3473  1.1987
   29MOL0     H 3868   2.504   8.229   2.542  2.9437  2.1752  1.0811
   29MOL0     H 3869   2.463   8.107   2.311 -0.1465 -0.0203 -2.6013
   29MOL0     H 3870   2.564   8.234   2.242  0.3334  1.7687  0.4872
   29MOL0     H 3871   2.631   8.006   2.423  2.1023 -0.9066 -0.0544
   29MOL0     H 3872   2.742   8.136   2.418  0.1261  0.6639  0.1749
   29MOL0     H 3873   2.641   7.993   2.164  1.2616  0.1589 -1.6045
   29MOL0     H 3874   2.792   7.965   2.246 -0.3603  0.1176  3.8743
   29MOL0     H 3875   2.827   7.932   2.011 -1.0580  1.0126 -2.6579
   29MOL0     H 3876   3.036   7.884   1.876  0.9229  1.1091 -3.3162
   29MOL0     H 3877   3.432   7.830   1.758 -0.3148 -2.6154 -1.2312
   29MOL0     H 3878   3.639   7.831   1.594 -0.3031 -1.7061  2.0645
   29MOL0     H 3879   3.762   8.013   1.213 -0.8838 -0.6227 -0.7462
   29MOL0     H 3880   3.655   8.120   1.297  2.3535  1.1459 -2.3658
   29MOL0     H 3881   3.899   7.990   1.413  0.1303  0.3016  1.5045
   29MOL0     H 3882   3.888   8.154   1.355 -3.1345  1.9644 -1.3066
   29MOL0     H 3883   3.694   8.202   1.518  2.3754  2.6611 -0.1588
   29MOL0     H 3884   3.721   8.049   1.596 -1.5396  1.3920  0.5027
   29MOL0     H 3885   3.942   8.120   1.678  0.5951  0.9619  0.2463
   29MOL0     H 3886   3.839   8.251   1.712 -0.1480 -0.0303 -0.5975
   29MOL0     H 3887   4.049   8.249   1.488  0.4135 -0.0833  0.0422
   29MOL0     H 3888   4.034   8.344   1.631  2.6015 -1.1954 -1.3548
   29MOL0     H 3889   3.813   8.350   1.424  0.3568  0.1786 -0.8075
   29MOL0     H 3890   3.823   8.462   1.563 -0.7895  0.2629 -0.1656
   29MOL0     H 3891   4.031   8.465   1.340 -0.9761 -1.5408  0.4801
   29MOL0     H 3892   4.022   8.562   1.485 -0.3305  0.2668  0.6216
   29MOL0     H 3893   3.776   8.607   1.365  0.8298 -0.6543  2.9477
   29MOL0     H 3894   3.920   8.688   1.305 -0.2098 -0.0665  0.4798
   29MOL0     H 3895   3.414   8.023   1.307 -0.6236 -3.3424 -0.8350
   29MOL0     H 3896   3.216   8.054   1.482 -1.4445 -2.0947  0.3442
   29MOL0     H 3897   3.125   8.302   1.915 -0.3182 -0.0944  0.6943
   29MOL0     H 3898   2.925   8.338   2.036  0.5823 -0.6999  2.0412
   29MOL0     H 3899   1.381   8.590   2.922  4.0031  0.3268 -1.3092
   29MOL0     H 3900   1.333   8.673   3.132 -2.2565 -1.0127 -2.8740
   29MOL0     H 3901   1.387   8.890   3.450  2.1567 -2.5883  2.9068
   29MOL0     H 3902   1.347   8.931   3.704 -0.0459  0.3393 -0.0479
   29MOL0     H 3903   1.170   9.227   3.842  0.1589 -0.2885 -0.4266
   29MOL0     H 3904   1.310   9.112   3.859 -1.3826  0.2087 -2.2213
   29MOL0     H 3905   1.049   9.104   4.014 -0.1524  2.2011 -0.9387
   29MOL0     H 3906   1.183   9.177   4.092  0.2426  0.9187 -1.6697
   29MOL0     H 3907   1.163   8.891   4.018 -0.6109  0.6922 -0.4909
   29MOL0     H 3908   1.165   8.976   4.180 -1.9829  0.7944 -1.2017
   29MOL0     H 3909   1.401   8.896   3.986  2.8305  0.1062  0.8515
   29MOL0     H 3910   1.417   9.032   4.099 -1.0781  0.2599  2.2110
   29MOL0     H 3911   1.452   8.697   4.357 -2.4472 -2.3742 -0.9769
   29MOL0     H 3912   0.966   9.098   3.621  0.0676  1.5114 -0.5764
   29MOL0     H 3913   0.983   9.180   3.309 -0.7511  0.9811  2.2895
   29MOL0     H 3914   0.933   9.005   3.297 -0.5028 -2.1675  2.4027
   29MOL0     H 3915   0.869   9.109   3.421  1.4960  4.1402  2.5811
   30MOL0     O 3916   4.785   9.155   2.307 -1.2545 -0.0675  0.1680
   30MOL0     C 3917   4.713   9.062   2.279 -0.5575 -0.8860 -1.0869
   30MOL0     O 3918   4.673   9.024   2.165 -0.2391 -0.7093 -0.0495
   30MOL0     C 3919   4.720   9.097   2.060  1.3251 -0.8076 -0.4148
   30MOL0     C 3920   4.645   9.203   2.001  0.4328 -0.2605 -0.2863
   30MOL0     C 3921   4.707   9.281   1.914  0.2394 -0.0626 -0.0862
   30MOL0     C 3922   4.837   9.263   1.878  0.6836  0.3841 -0.2435
   30MOL0     O 3923   4.910   9.355   1.807 -0.1613  0.3944 -0.1831
   30MOL0     C 3924   4.840   9.470   1.750 -0.2857  0.7086 -0.4641
   30MOL0     C 3925   4.939   9.560   1.684 -0.5225 -0.0821  0.1868
   30MOL0     C 3926   5.033   9.468   1.592 -0.0397 -0.5130  0.1501
   30MOL0     C 3927   5.138   9.551   1.518 -0.2913  0.2848 -1.6140
   30MOL0     C 3928   5.070   9.652   1.412 -0.3636 -0.3302 -0.1055
   30MOL0     C 3929   5.170   9.740   1.336 -0.2149 -0.2476 -0.1859
   30MOL0     C 3930   5.270   9.669   1.243  0.2684  0.2487  0.2618
   30MOL0     C 3931   5.378   9.766   1.185  0.1082  0.5689 -0.1240
   30MOL0     N 3932   5.312   9.871   1.103  0.2716  0.8091 -0.5931
   30MOL0     C 3933   5.275   9.997   1.135  0.0322 -0.1757  0.5611
   30MOL0     C 3934   5.251  10.059   1.017  0.0013 -0.7552  0.0094
   30MOL0     C 3935   5.266  10.198   0.986  0.6430 -0.3497  0.6405
   30MOL0     C 3936   5.144  10.277   1.042 -0.3393 -0.5296 -0.2887
   30MOL0     C 3937   5.148  10.425   0.988  0.5062  0.2417  0.3203
   30MOL0     C 3938   5.099  10.434   0.847 -1.3082  0.4931  0.1644
   30MOL0     O 3939   4.960  10.446   0.843  0.0675 -0.6273 -0.1417
   30MOL0     C 3940   4.899  10.569   0.836 -0.4056  0.5498 -0.1301
   30MOL0     C 3941   4.954  10.695   0.858  0.5417  0.3083  0.1294
   30MOL0     C 3942   4.870  10.805   0.839 -0.4608  0.3650  0.5157
   30MOL0     C 3943   4.735  10.798   0.807 -0.0936 -1.2128  0.0346
   30MOL0     C 3944   4.653  10.918   0.777 -0.0336  0.4799 -0.8477
   30MOL0     O 3945   4.715  11.039   0.768 -0.3916 -0.4792 -0.0687
   30MOL0     C 3946   4.642  11.154   0.740 -0.4137 -1.1348  0.8613
   30MOL0     C 3947   4.682  11.273   0.795  0.5066 -0.8938  0.4093
   30MOL0     C 3948   4.629  11.393   0.754  0.5800 -0.1540  0.0008
   30MOL0     C 3949   4.535  11.402   0.648  0.1916 -0.6689  0.1559
   30MOL0     O 3950   4.479  11.525   0.614 -0.1192  0.4409  0.2950
   30MOL0     C 3951   4.513  11.566   0.478 -0.7689 -0.1689 -1.0359
   30MOL0     C 3952   4.496  11.714   0.440  0.0472 -0.1098  1.4296
   30MOL0     C 3953   4.564  11.756   0.313  0.2591 -0.1575  0.2067
   30MOL0     C 3954   4.475  11.722   0.190  0.3689  0.2266 -0.1998
   30MOL0     C 3955   4.544  11.752   0.060 -0.7678  0.8642  0.0686
   30MOL0     C 3956   4.648  11.649   0.027  0.3337  0.5275  0.3343
   30MOL0     C 3957   4.634  11.603  -0.117 -0.3840  0.6660  0.5222
   30MOL0     C 3958   4.665  11.709  -0.225  0.2093 -0.6525 -0.5692
   30MOL0    Cl 3959   4.837  11.725  -0.234  0.2649  0.3693 -0.0641
   30MOL0     C 3960   4.487  11.282   0.586  0.5254 -0.8151 -1.0409
   30MOL0     C 3961   4.543  11.160   0.630  0.1559 -0.2023  0.6836
   30MOL0     O 3962   4.529  10.895   0.752 -0.3606  0.6751  0.5127
   30MOL0     C 3963   4.675  10.673   0.794 -0.7996  0.0549  0.0840
   30MOL0     C 3964   4.765  10.565   0.798 -0.0718  0.1505  0.0339
   30MOL0     N 3965   5.241   9.967   0.922  0.2589  0.2620  0.3168
   30MOL0     N 3966   5.271   9.851   0.972  0.4279  0.5744 -0.2354
   30MOL0     C 3967   4.906   9.158   1.930  1.5408  0.0116 -0.4188
   30MOL0     C 3968   4.849   9.071   2.024  0.0583  0.1449  0.4888
   30MOL0     C 3969   4.690   8.980   2.401 -0.1409 -0.1294  0.1924
   30MOL0     C 3970   4.646   9.051   2.515 -0.3816 -0.6298  0.6565
   30MOL0     C 3971   4.602   8.986   2.627  0.3438 -0.1591 -0.1359
   30MOL0     C 3972   4.596   8.853   2.628  0.5397  0.7709  0.0082
   30MOL0     O 3973   4.540   8.802   2.743 -0.4964  0.8340  0.6748
   30MOL0     C 3974   4.606   8.689   2.802  0.6736  0.1297 -0.4480
   30MOL0     C 3975   4.498   8.657   2.909 -1.0300  0.4978  1.0183
   30MOL0     C 3976   4.506   8.760   3.030  0.0346  0.0973 -0.2030
   30MOL0     C 3977   4.421   8.728   3.148  0.7531  0.2157  0.4754
   30MOL0     C 3978   4.279   8.727   3.105  0.5658  0.5182 -0.3684
   30MOL0     C 3979   4.162   8.734   3.056 -0.3326 -0.9836  0.1441
   30MOL0     C 3980   4.647   8.773   2.524  0.8952  0.6612  0.5097
   30MOL0     C 3981   4.695   8.837   2.400  0.7248 -0.5464 -0.7142
   30MOL0     C 3982   4.754   8.758   2.294 -1.1825  0.6328  0.0850
   30MOL0     H 3983   4.546   9.224   2.041  0.2381  0.3975 -1.0890
   30MOL0     H 3984   4.645   9.361   1.874  1.1312 -0.1998 -1.8335
   30MOL0     H 3985   4.784   9.422   1.669  1.7922  3.2382 -3.6932
   30MOL0     H 3986   4.787   9.524   1.829  0.7760  2.8805 -1.1474
   30MOL0     H 3987   5.000   9.618   1.754  2.8703 -1.3304 -1.5246
   30MOL0     H 3988   4.883   9.637   1.631 -0.3920  1.8737  2.7187
   30MOL0     H 3989   4.987   9.412   1.510  2.1666  1.0154 -2.3208
   30MOL0     H 3990   5.082   9.387   1.647  0.0762  0.2733  1.2323
   30MOL0     H 3991   5.212   9.597   1.583 -1.6180 -1.7120  1.5546
   30MOL0     H 3992   5.200   9.472   1.473  0.9560 -0.7960  1.7171
   30MOL0     H 3993   5.012   9.593   1.341 -0.1931 -0.6617  0.0291
   30MOL0     H 3994   4.997   9.713   1.467  0.5087  0.7846 -0.1590
   30MOL0     H 3995   5.110   9.819   1.291  1.4070  1.1080 -0.0654
   30MOL0     H 3996   5.219   9.797   1.415  2.0927 -0.2805 -1.4841
   30MOL0     H 3997   5.212   9.628   1.161  2.1919  0.6584 -1.3798
   30MOL0     H 3998   5.329   9.589   1.289  1.1912 -0.6504 -2.3206
   30MOL0     H 3999   5.443   9.797   1.268  0.1056  3.8373 -1.1961
   30MOL0     H 4000   5.455   9.717   1.125  0.9757 -0.5543  1.8025
   30MOL0     H 4001   5.281  10.046   1.232 -2.2115  2.0837 -0.3181
   30MOL0     H 4002   5.361  10.219   1.036  1.5865 -0.6591 -0.9570
   30MOL0     H 4003   5.276  10.212   0.878 -2.2919 -4.5354 -0.4243
   30MOL0     H 4004   5.045  10.234   1.030 -0.4590 -0.1351 -0.7608
   30MOL0     H 4005   5.170  10.295   1.146  2.1080  0.9555 -1.0562
   30MOL0     H 4006   5.248  10.466   1.005  0.7843 -0.5305  0.6250
   30MOL0     H 4007   5.083  10.492   1.045 -0.5822  0.5880 -1.2772
   30MOL0     H 4008   5.128  10.358   0.774 -1.4821  2.8314 -2.5565
   30MOL0     H 4009   5.140  10.524   0.799 -0.2999 -0.8860 -1.7067
   30MOL0     H 4010   5.060  10.710   0.876 -0.2690  2.2614  4.6191
   30MOL0     H 4011   4.911  10.904   0.855 -1.3665  0.4999  2.2237
   30MOL0     H 4012   4.756  11.272   0.875  2.2462  0.6138 -1.0861
   30MOL0     H 4013   4.665  11.489   0.789 -0.2986  0.4156 -0.6004
   30MOL0     H 4014   4.619  11.546   0.462  0.3515  0.1854  4.1491
   30MOL0     H 4015   4.438  11.521   0.412 -1.8682  0.3942 -0.2058
   30MOL0     H 4016   4.393  11.749   0.426  0.9664  1.9629 -1.0377
   30MOL0     H 4017   4.541  11.774   0.520  1.4149 -1.9438  2.0890
   30MOL0     H 4018   4.570  11.865   0.316 -0.9753 -0.0981  2.2109
   30MOL0     H 4019   4.659  11.703   0.301 -1.1498 -2.7561 -0.2762
   30MOL0     H 4020   4.386  11.785   0.202 -1.4615 -2.3963  0.9162
   30MOL0     H 4021   4.447  11.617   0.201 -0.7648  0.3315 -1.7746
   30MOL0     H 4022   4.595  11.847   0.077 -1.1564  0.9692  0.6766
   30MOL0     H 4023   4.485  11.782  -0.027  0.9463  2.2114 -0.7031
   30MOL0     H 4024   4.744  11.698   0.043 -0.2058  2.5140 -1.9017
   30MOL0     H 4025   4.646  11.562   0.093  2.4306 -1.3604 -1.9139
   30MOL0     H 4026   4.527  11.580  -0.122 -0.1891 -0.8676  2.2130
   30MOL0     H 4027   4.691  11.510  -0.126 -1.8253 -0.1760 -0.2839
   30MOL0     H 4028   4.618  11.682  -0.320 -0.5430 -1.9847  0.1534
   30MOL0     H 4029   4.626  11.804  -0.189 -0.3536 -1.2726  0.4984
   30MOL0     H 4030   4.415  11.278   0.506  0.9614  0.8724 -1.5647
   30MOL0     H 4031   4.527  11.068   0.575 -0.6729  1.5190 -2.1450
   30MOL0     H 4032   4.576  10.642   0.765  0.4739 -3.3036 -1.1335
   30MOL0     H 4033   4.729  10.466   0.770 -1.4938  0.2204  1.4882
   30MOL0     H 4034   5.010   9.159   1.899  1.6775  3.8481 -0.3544
   30MOL0     H 4035   4.900   8.989   2.075  1.4912  1.2879  0.9691
   30MOL0     H 4036   4.644   9.160   2.512 -0.0318 -0.6459 -1.1045
   30MOL0     H 4037   4.566   9.047   2.709 -1.1191  0.9962 -1.5893
   30MOL0     H 4038   4.697   8.732   2.844 -0.6198  2.4765  0.0841
   30MOL0     H 4039   4.635   8.603   2.740 -2.0856 -1.5362  0.4119
   30MOL0     H 4040   4.506   8.550   2.931  1.4211  0.5128  0.4913
   30MOL0     H 4041   4.397   8.663   2.868 -0.9505 -0.5885  0.6284
   30MOL0     H 4042   4.491   8.863   2.995  1.0374  0.6094  0.7850
   30MOL0     H 4043   4.610   8.757   3.065 -0.4267  1.9189  1.4985
   30MOL0     H 4044   4.451   8.629   3.185  1.1513 -0.1719 -0.8318
   30MOL0     H 4045   4.445   8.800   3.226  0.9287  2.2159 -1.3304
   30MOL0     H 4046   4.079   8.734   2.988 -1.5647 -0.7984  1.6088
   30MOL0     H 4047   4.645   8.664   2.521  1.0867  0.5905  2.0385
   30MOL0     H 4048   4.846   8.798   2.249  2.0551 -5.7155 -0.0222
   30MOL0     H 4049   4.796   8.667   2.338 -0.5144  2.8016  4.4391
   30MOL0     H 4050   4.677   8.744   2.218 -3.1390  0.8736  1.9463
   31MOL0     O 4051  10.565   0.492  11.298  0.2216  0.5951 -0.7367
   31MOL0     C 4052  10.448   0.521  11.286  0.5376  0.5863  0.3392
   31MOL0     O 4053  10.385   0.542  11.166  0.0472  0.2770  0.1262
   31MOL0     C 4054  10.460   0.524  11.047  0.4269 -0.1282 -0.1967
   31MOL0     C 4055  10.483   0.400  10.997 -0.1208 -0.1436  0.4601
   31MOL0     C 4056  10.564   0.388  10.886 -0.2177 -0.1145 -0.1070
   31MOL0     C 4057  10.629   0.501  10.823 -0.8227  0.6896  0.4405
   31MOL0     O 4058  10.706   0.499  10.710 -0.2967  0.7257  0.5836
   31MOL0     C 4059  10.683   0.400  10.614  0.0525  0.4245  0.3255
   31MOL0     C 4060  10.547   0.401  10.538 -1.3107 -0.2267 -1.1732
   31MOL0     C 4061  10.554   0.512  10.429 -0.3784  0.8196  0.1985
   31MOL0     C 4062  10.511   0.458  10.284  0.1390  0.1838 -0.7520
   31MOL0     C 4063  10.560   0.535  10.166  0.3189 -0.9992 -0.1093
   31MOL0     C 4064  10.681   0.460  10.095  0.5642 -0.2520  1.0247
   31MOL0     C 4065  10.798   0.413  10.176 -0.3995 -0.0732  0.1237
   31MOL0     C 4066  10.897   0.324  10.096  0.4956  0.5507  0.0287
   31MOL0     N 4067  10.834   0.233   9.996  0.0064 -0.6459 -0.4515
   31MOL0     C 4068  10.817   0.098  10.009  0.2884  0.0788 -0.3992
   31MOL0     C 4069  10.799   0.046   9.890  0.3678  0.5126  0.9305
   31MOL0     C 4070  10.778  -0.104   9.859 -0.0383 -0.3606 -0.2380
   31MOL0     C 4071  10.878  -0.189   9.933  0.7047  0.1634  0.0672
   31MOL0     C 4072  11.022  -0.159   9.896 -0.1376  0.0010 -0.0381
   31MOL0     C 4073  11.043  -0.159   9.743  0.4643  0.8389 -0.6267
   31MOL0     O 4074  11.180  -0.173   9.730  0.4654  0.1981  0.6621
   31MOL0     C 4075  11.215  -0.205   9.599  0.3657  0.2761 -0.9975
   31MOL0     C 4076  11.346  -0.265   9.575  0.3220 -0.3529 -0.4948
   31MOL0     C 4077  11.397  -0.284   9.447  0.0782 -0.4543  0.1008
   31MOL0     C 4078  11.306  -0.272   9.336 -1.3971  0.7549  0.1558
   31MOL0     C 4079  11.353  -0.321   9.199 -1.5152  0.1004  0.0730
   31MOL0     O 4080  11.471  -0.390   9.197  0.4529  1.2290  0.5674
   31MOL0     C 4081  11.525  -0.454   9.080  0.1846 -0.2798  0.3850
   31MOL0     C 4082  11.634  -0.534   9.107  0.6989  0.4634 -0.1911
   31MOL0     C 4083  11.708  -0.593   9.000  0.3174 -0.1189  0.3568
   31MOL0     C 4084  11.672  -0.576   8.871  0.2064  0.3835  1.1287
   31MOL0     O 4085  11.768  -0.616   8.768  0.3885 -0.4924 -0.1808
   31MOL0     C 4086  11.760  -0.580   8.625 -0.2308 -0.1847 -0.0381
   31MOL0     C 4087  11.782  -0.430   8.597  0.0674 -0.4787 -0.2592
   31MOL0     C 4088  11.916  -0.361   8.632  0.0498 -0.3504  0.0091
   31MOL0     C 4089  11.915  -0.211   8.654  0.2966 -0.4160 -0.1751
   31MOL0     C 4090  12.044  -0.167   8.721  0.0329 -0.1331 -1.0615
   31MOL0     C 4091  12.061  -0.009   8.712 -0.2501 -0.7849 -0.6852
   31MOL0     C 4092  12.172   0.052   8.796  0.6052  0.4239  0.0680
   31MOL0     C 4093  12.306   0.071   8.726 -0.2536 -0.2227 -0.0441
   31MOL0    Cl 4094  12.320   0.258   8.704 -0.0750  0.1962  0.1490
   31MOL0     C 4095  11.555  -0.512   8.841  0.2630 -0.9791  0.2843
   31MOL0     C 4096  11.475  -0.450   8.944 -0.5766  0.9527  0.6958
   31MOL0     O 4097  11.295  -0.273   9.099  0.4288  1.2826 -0.5361
   31MOL0     C 4098  11.175  -0.219   9.355 -0.8147  0.8680  0.0013
   31MOL0     C 4099  11.129  -0.179   9.490 -0.4551 -0.5792  0.1738
   31MOL0     N 4100  10.793   0.149   9.805  0.5774 -0.6256 -0.2589
   31MOL0     N 4101  10.814   0.264   9.867 -0.2215  0.5542 -0.4335
   31MOL0     C 4102  10.615   0.624  10.883  0.2080  0.4245 -0.3909
   31MOL0     C 4103  10.533   0.632  10.993 -0.0316  0.1849  0.4369
   31MOL0     C 4104  10.372   0.546  11.413  0.3617  0.0072 -0.1196
   31MOL0     C 4105  10.436   0.519  11.530 -0.7550 -0.2366 -1.2424
   31MOL0     C 4106  10.374   0.513  11.662  1.4414  0.3127 -0.2010
   31MOL0     C 4107  10.222   0.535  11.666  0.3519  0.4655  0.2337
   31MOL0     O 4108  10.135   0.495  11.770 -0.5762 -0.8232 -0.5522
   31MOL0     C 4109  10.192   0.459  11.898 -0.4609  0.2158  0.2169
   31MOL0     C 4110  10.082   0.456  12.007 -0.1538  0.7060  0.3812
   31MOL0     C 4111  10.059   0.598  12.039 -0.1486  0.4728  0.2970
   31MOL0     C 4112   9.931   0.614  12.118 -0.7174 -0.2339  0.4865
   31MOL0     C 4113   9.855   0.731  12.085 -0.0351  0.3679 -0.1209
   31MOL0     C 4114   9.771   0.815  12.067 -0.8505 -0.9154 -0.3041
   31MOL0     C 4115  10.167   0.575  11.545  0.2500 -0.4507 -0.3489
   31MOL0     C 4116  10.237   0.587  11.422  0.3803  0.4449  0.7212
   31MOL0     C 4117  10.145   0.627  11.314  0.7277 -0.4337 -0.1503
   31MOL0     H 4118  10.438   0.314  11.046  1.3182  0.4185  2.9586
   31MOL0     H 4119  10.578   0.289  10.841 -0.0492  0.3573 -1.1340
   31MOL0     H 4120  10.758   0.405  10.534 -0.6599  0.6415 -0.3344
   31MOL0     H 4121  10.688   0.302  10.663 -2.7093 -0.0401 -0.1804
   31MOL0     H 4122  10.466   0.429  10.606 -0.7885 -0.5249 -0.4188
   31MOL0     H 4123  10.540   0.299  10.500 -0.9980 -0.6129 -0.2118
   31MOL0     H 4124  10.653   0.555  10.412 -0.6019  0.8074 -1.3164
   31MOL0     H 4125  10.493   0.600  10.452 -1.7616  0.0543 -0.4210
   31MOL0     H 4126  10.529   0.353  10.260 -1.4842 -0.5466  1.0040
   31MOL0     H 4127  10.405   0.483  10.288  0.7314  2.8448  1.7931
   31MOL0     H 4128  10.483   0.553  10.091 -0.8347 -4.3234  0.1089
   31MOL0     H 4129  10.596   0.631  10.203 -0.5396 -1.2076  1.3440
   31MOL0     H 4130  10.621   0.377  10.057  0.5970  0.7948 -1.5287
   31MOL0     H 4131  10.728   0.516  10.013 -1.4592  2.4970  1.5953
   31MOL0     H 4132  10.759   0.353  10.259  0.5731  1.5084  1.7920
   31MOL0     H 4133  10.853   0.498  10.216  0.6661 -1.6530  2.2700
   31MOL0     H 4134  10.976   0.389  10.057 -1.0400  3.6363  1.6621
   31MOL0     H 4135  10.957   0.267  10.168 -0.0617  3.6543  3.2461
   31MOL0     H 4136  10.826   0.035  10.097  4.1793  0.1676 -0.5636
   31MOL0     H 4137  10.678  -0.118   9.902  0.5834 -0.5496  1.2250
   31MOL0     H 4138  10.779  -0.110   9.750 -2.7547  0.3766 -0.3974
   31MOL0     H 4139  10.866  -0.180  10.041  1.4786  0.3817  0.1437
   31MOL0     H 4140  10.848  -0.290   9.904  1.3452 -0.4366  1.4278
   31MOL0     H 4141  11.092  -0.227   9.947  2.1834  0.8954 -1.8278
   31MOL0     H 4142  11.045  -0.055   9.922 -2.0405  0.7238 -1.1003
   31MOL0     H 4143  10.995  -0.082   9.681  1.7668  0.1869 -2.5071
   31MOL0     H 4144  10.993  -0.245   9.698 -0.7594  0.3300  1.5509
   31MOL0     H 4145  11.412  -0.286   9.659  1.3450  0.9643 -0.9278
   31MOL0     H 4146  11.500  -0.316   9.434 -0.1654 -0.8524 -0.9400
   31MOL0     H 4147  11.658  -0.554   9.211 -0.0667  0.2825 -0.0473
   31MOL0     H 4148  11.800  -0.642   9.029  0.4507  0.9250  1.7954
   31MOL0     H 4149  11.841  -0.639   8.582 -0.0611 -1.4859  1.9415
   31MOL0     H 4150  11.668  -0.625   8.587  0.0073 -0.3406 -0.4305
   31MOL0     H 4151  11.759  -0.425   8.490 -2.7660 -3.7376  0.0357
   31MOL0     H 4152  11.699  -0.384   8.651  0.2567 -2.2225  1.6502
   31MOL0     H 4153  11.935  -0.407   8.729  2.1546  1.5086  0.5701
   31MOL0     H 4154  11.999  -0.387   8.566  1.7419  4.3670 -0.1776
   31MOL0     H 4155  11.822  -0.179   8.702  1.2071 -1.0800  2.1468
   31MOL0     H 4156  11.918  -0.159   8.558  0.6414 -2.3954 -1.2831
   31MOL0     H 4157  12.136  -0.212   8.683  0.4117  1.1150 -1.6751
   31MOL0     H 4158  12.042  -0.192   8.827  2.0007  0.5371 -0.8177
   31MOL0     H 4159  12.072   0.032   8.610 -3.9640 -0.3882 -1.0653
   31MOL0     H 4160  11.965   0.038   8.736  1.5733  1.1093  4.1975
   31MOL0     H 4161  12.201  -0.018   8.875 -0.4425  0.3104  0.3669
   31MOL0     H 4162  12.140   0.139   8.854 -1.5416 -0.0719 -0.3149
   31MOL0     H 4163  12.388   0.023   8.778  2.3278  0.4776 -3.1323
   31MOL0     H 4164  12.304   0.023   8.628 -1.2881 -3.8382  1.5832
   31MOL0     H 4165  11.525  -0.501   8.737 -2.1187 -1.7323  0.8368
   31MOL0     H 4166  11.392  -0.387   8.913 -1.8306 -1.9182 -2.3345
   31MOL0     H 4167  11.120  -0.215   9.262 -0.9404 -0.9226 -0.0363
   31MOL0     H 4168  11.036  -0.124   9.481 -0.8439 -1.0429  1.2457
   31MOL0     H 4169  10.664   0.708  10.835 -2.9825  2.3506 -0.5265
   31MOL0     H 4170  10.517   0.731  11.035  1.8474 -0.4681  2.9526
   31MOL0     H 4171  10.542   0.499  11.544 -0.2789  0.3930 -3.5354
   31MOL0     H 4172  10.427   0.491  11.754 -2.1266  1.5790  2.3704
   31MOL0     H 4173  10.269   0.529  11.933  0.5101 -1.0024  0.5892
   31MOL0     H 4174  10.237   0.361  11.882  1.2302  1.0477 -0.3390
   31MOL0     H 4175  10.119   0.406  12.096  1.3196 -0.9739 -1.0910
   31MOL0     H 4176   9.999   0.395  11.971 -0.2708 -0.8689  3.0657
   31MOL0     H 4177  10.041   0.640  11.940  0.1339 -0.3885 -0.1261
   31MOL0     H 4178  10.153   0.636  12.079  0.9181  0.7159 -2.2765
   31MOL0     H 4179   9.867   0.525  12.116  0.7796 -1.3188 -0.9285
   31MOL0     H 4180   9.953   0.636  12.223 -4.4713  0.7031  1.2183
   31MOL0     H 4181   9.699   0.890  12.039  0.6566  1.2217  1.2050
   31MOL0     H 4182  10.063   0.596  11.566  0.8351  0.3680  2.1244
   31MOL0     H 4183  10.112   0.539  11.258  3.7345 -1.2000 -0.9321
   31MOL0     H 4184  10.062   0.692  11.343  1.2847  0.6728 -0.9459
   31MOL0     H 4185  10.198   0.688  11.239  0.6661 -1.3199 -0.9303
   32MOL0     O 4186   6.395   1.469   8.186  0.0363 -0.3017 -0.2789
   32MOL0     C 4187   6.410   1.560   8.104 -0.2291 -0.4565 -0.2764
   32MOL0     O 4188   6.510   1.562   8.006  0.7823  0.9431 -0.9895
   32MOL0     C 4189   6.613   1.470   8.013  0.2832  0.7953 -0.7249
   32MOL0     C 4190   6.673   1.445   7.886 -0.2929 -0.7289 -0.3819
   32MOL0     C 4191   6.764   1.343   7.866 -0.7824 -0.3048  0.7266
   32MOL0     C 4192   6.833   1.278   7.967  0.0855 -0.0075  0.8060
   32MOL0     O 4193   6.935   1.193   7.939  0.2188  0.0314  0.0683
   32MOL0     C 4194   7.044   1.179   8.023 -0.3308  0.7097  0.0175
   32MOL0     C 4195   7.134   1.070   7.978  0.5987 -0.5390 -0.5383
   32MOL0     C 4196   7.095   0.924   7.995 -0.3218  0.1467 -0.0791
   32MOL0     C 4197   7.139   0.858   8.131  0.7388 -0.7713  0.2650
   32MOL0     C 4198   7.097   0.712   8.130  0.3627 -0.2102 -0.6134
   32MOL0     C 4199   7.121   0.649   8.270 -0.1846 -1.2493  0.5181
   32MOL0     C 4200   7.275   0.629   8.289  0.2412 -0.4702  0.2557
   32MOL0     C 4201   7.331   0.520   8.196 -0.3708  0.0843 -0.2699
   32MOL0     N 4202   7.469   0.481   8.245 -0.1296  0.1951  0.2356
   32MOL0     C 4203   7.594   0.529   8.232 -0.8679  0.5637  0.7300
   32MOL0     C 4204   7.677   0.472   8.318  0.2205 -1.0355 -0.0643
   32MOL0     C 4205   7.815   0.509   8.358 -0.5790 -0.4721  1.7184
   32MOL0     C 4206   7.829   0.651   8.424 -0.5923 -0.1290 -1.1089
   32MOL0     C 4207   7.755   0.654   8.569  1.0401  0.6991  0.1668
   32MOL0     C 4208   7.608   0.700   8.552 -0.3086  0.7682 -0.2089
   32MOL0     O 4209   7.615   0.834   8.497  0.0839 -0.0260 -0.4809
   32MOL0     C 4210   7.503   0.901   8.474 -1.0985 -0.4480  0.0936
   32MOL0     C 4211   7.372   0.862   8.477 -0.0317  0.0735  0.0419
   32MOL0     C 4212   7.273   0.951   8.461  0.5243 -0.0697  0.0409
   32MOL0     C 4213   7.288   1.078   8.409  1.0170 -0.7338 -0.5498
   32MOL0     C 4214   7.181   1.172   8.398 -0.3053 -0.4717 -0.1388
   32MOL0     O 4215   7.216   1.299   8.376  0.9870 -0.0281 -0.7181
   32MOL0     C 4216   7.109   1.389   8.387  0.1438 -1.4892  0.7386
   32MOL0     C 4217   7.047   1.419   8.514  0.0104  1.1141 -0.3668
   32MOL0     C 4218   6.940   1.507   8.524  0.1453  0.2644 -0.0396
   32MOL0     C 4219   6.904   1.573   8.404  0.0830  0.6156 -0.2504
   32MOL0     O 4220   6.822   1.682   8.414  0.0568 -0.0538 -0.1053
   32MOL0     C 4221   6.875   1.819   8.405  0.5316  0.5157  0.8000
   32MOL0     C 4222   7.006   1.834   8.487  0.5850 -0.3436 -0.6686
   32MOL0     C 4223   6.996   1.973   8.558 -0.5646 -0.5660 -0.4431
   32MOL0     C 4224   6.963   2.095   8.464  0.4894 -0.1167 -0.1051
   32MOL0     C 4225   6.946   2.225   8.541 -0.8167 -0.3987  0.0124
   32MOL0     C 4226   6.829   2.237   8.643 -0.5431  0.0182 -0.7126
   32MOL0     C 4227   6.795   2.374   8.688 -0.7970  0.3596 -0.4311
   32MOL0     C 4228   6.647   2.403   8.718 -0.2409 -0.1656  0.5602
   32MOL0    Cl 4229   6.573   2.256   8.795  0.1978  0.3048  0.6206
   32MOL0     C 4230   6.962   1.542   8.282 -0.1860 -0.3278 -0.1323
   32MOL0     C 4231   7.070   1.457   8.273 -0.5969 -0.1843  0.7744
   32MOL0     O 4232   7.073   1.117   8.385  0.2798  0.3380 -0.0764
   32MOL0     C 4233   7.425   1.118   8.400  0.4243  0.4118  0.4858
   32MOL0     C 4234   7.529   1.033   8.431 -0.5509 -1.0927 -0.2919
   32MOL0     N 4235   7.602   0.399   8.399  0.4867 -0.8129 -0.3865
   32MOL0     N 4236   7.480   0.397   8.355 -0.4852 -0.3991 -0.5783
   32MOL0     C 4237   6.791   1.316   8.102  0.4883  0.8053  0.4514
   32MOL0     C 4238   6.684   1.413   8.119  0.4724 -0.0087 -0.3043
   32MOL0     C 4239   6.311   1.670   8.094 -0.2499 -0.3539  0.0433
   32MOL0     C 4240   6.307   1.749   7.971  0.9667  0.0647 -1.6484
   32MOL0     C 4241   6.193   1.813   7.947  0.9364  0.0470 -0.3520
   32MOL0     C 4242   6.088   1.837   8.038 -0.5467  0.9145 -0.3051
   32MOL0     O 4243   5.981   1.914   8.005 -0.1401  0.1442  0.1546
   32MOL0     C 4244   5.856   1.861   7.951 -0.4480  0.3635 -0.3902
   32MOL0     C 4245   5.878   1.770   7.831 -0.5551 -0.2297  0.6963
   32MOL0     C 4246   5.742   1.756   7.758 -0.3159 -0.1513 -0.4081
   32MOL0     C 4247   5.725   1.684   7.616  0.1601 -0.6756 -0.3092
   32MOL0     C 4248   5.827   1.748   7.530 -0.3948  0.2309  0.3992
   32MOL0     C 4249   5.914   1.808   7.470  0.0503  0.3778 -0.0199
   32MOL0     C 4250   6.102   1.774   8.161  0.0236  0.2778 -0.1622
   32MOL0     C 4251   6.207   1.686   8.194 -0.1403  0.4249 -0.2345
   32MOL0     C 4252   6.199   1.622   8.334  0.2831  0.3433  0.9924
   32MOL0     H 4253   6.639   1.509   7.805  2.7137  1.2155 -0.2815
   32MOL0     H 4254   6.797   1.322   7.764 -2.0276 -2.7918  0.7794
   32MOL0     H 4255   7.096   1.275   8.024 -0.9620  1.0552  0.0774
   32MOL0     H 4256   7.010   1.159   8.125 -2.4204 -1.8130 -1.0503
   32MOL0     H 4257   7.234   1.099   8.014  0.2680  5.7238 -3.4365
   32MOL0     H 4258   7.152   1.090   7.872  1.9155  2.2175  0.1082
   32MOL0     H 4259   7.133   0.858   7.917 -0.0614 -1.2760  1.1871
   32MOL0     H 4260   6.986   0.926   8.004 -0.2507  1.6597  0.7515
   32MOL0     H 4261   7.247   0.858   8.148  0.5833 -3.1964  1.7675
   32MOL0     H 4262   7.087   0.911   8.211  3.2453  2.2819  0.0474
   32MOL0     H 4263   6.993   0.709   8.097  1.0432  1.6332 -3.2452
   32MOL0     H 4264   7.156   0.664   8.052  2.4105  1.1164  0.0352
   32MOL0     H 4265   7.074   0.714   8.345  0.2514  5.0208 -3.8653
   32MOL0     H 4266   7.068   0.554   8.276  0.1283 -1.4181  0.6985
   32MOL0     H 4267   7.285   0.602   8.394 -0.8056  2.1570  1.1346
   32MOL0     H 4268   7.334   0.721   8.280 -0.0573 -0.1599  1.3629
   32MOL0     H 4269   7.265   0.432   8.197  0.0210 -0.2675 -1.9722
   32MOL0     H 4270   7.347   0.552   8.093  5.0770  0.0051  0.2762
   32MOL0     H 4271   7.606   0.613   8.165  0.2103  0.3808  0.6840
   32MOL0     H 4272   7.860   0.442   8.432 -0.7255  1.0898  3.2873
   32MOL0     H 4273   7.858   0.510   8.257 -1.9413 -0.1646  1.1303
   32MOL0     H 4274   7.933   0.677   8.447 -1.1587  2.3275 -1.0380
   32MOL0     H 4275   7.793   0.725   8.353 -2.4339 -0.8928 -1.0389
   32MOL0     H 4276   7.804   0.731   8.628  0.8488 -1.2375  3.0489
   32MOL0     H 4277   7.779   0.562   8.624  1.0274 -0.7262 -2.0578
   32MOL0     H 4278   7.561   0.702   8.651 -0.6600 -1.7309 -0.2702
   32MOL0     H 4279   7.541   0.643   8.487 -0.5601  2.0776 -1.1527
   32MOL0     H 4280   7.348   0.766   8.522  2.4209  0.3413  2.1491
   32MOL0     H 4281   7.176   0.919   8.499  0.0832  2.0388  0.8431
   32MOL0     H 4282   7.076   1.368   8.605  0.0916  2.8541  0.6172
   32MOL0     H 4283   6.911   1.530   8.626  4.1852  0.8724  1.1664
   32MOL0     H 4284   6.895   1.850   8.302 -2.4887  1.9236  0.5345
   32MOL0     H 4285   6.798   1.884   8.448  1.7837  2.1537  0.6597
   32MOL0     H 4286   7.022   1.751   8.556 -1.7758 -0.2413  0.0881
   32MOL0     H 4287   7.088   1.834   8.414  1.1402  0.4813 -0.0608
   32MOL0     H 4288   6.924   1.970   8.641  1.5570 -0.7938  1.4913
   32MOL0     H 4289   7.091   1.983   8.611 -3.3058  1.6916  4.7658
   32MOL0     H 4290   6.871   2.078   8.408  1.1411 -1.9785 -0.6895
   32MOL0     H 4291   7.042   2.106   8.390  0.2834  2.9160  0.0109
   32MOL0     H 4292   6.921   2.300   8.466 -2.1542 -0.2976  0.5330
   32MOL0     H 4293   7.038   2.269   8.580 -0.0718 -0.2966 -1.7768
   32MOL0     H 4294   6.741   2.184   8.605  0.6383 -1.6983 -1.1872
   32MOL0     H 4295   6.858   2.174   8.727  1.1226  1.5445 -0.0882
   32MOL0     H 4296   6.822   2.454   8.619  0.4754 -0.9880 -1.5628
   32MOL0     H 4297   6.838   2.399   8.786 -0.8797  2.5354 -0.9125
   32MOL0     H 4298   6.643   2.490   8.784  2.8859  1.0291 -0.6349
   32MOL0     H 4299   6.585   2.429   8.632  2.2101  2.3162 -0.5973
   32MOL0     H 4300   6.938   1.585   8.185  1.9555 -2.2465 -1.6176
   32MOL0     H 4301   7.116   1.457   8.175 -1.4245 -1.5471  0.3531
   32MOL0     H 4302   7.442   1.220   8.367 -2.6889  1.0196  0.3944
   32MOL0     H 4303   7.629   1.073   8.414  0.4544 -3.4179 -0.2772
   32MOL0     H 4304   6.838   1.269   8.188 -1.7523 -0.2789  1.1765
   32MOL0     H 4305   6.652   1.437   8.220  1.1935  0.1135 -0.0921
   32MOL0     H 4306   6.371   1.734   7.884  1.7205  0.0594 -1.0988
   32MOL0     H 4307   6.186   1.871   7.856  0.7507  1.6120  0.6124
   32MOL0     H 4308   5.807   1.952   7.917  0.9049  0.3830 -2.3980
   32MOL0     H 4309   5.794   1.810   8.026 -0.5738  2.0055  0.6560
   32MOL0     H 4310   5.919   1.675   7.869  0.5958 -0.4672 -1.0236
   32MOL0     H 4311   5.953   1.818   7.768 -1.1666  1.0138  0.8814
   32MOL0     H 4312   5.721   1.861   7.736  1.7179  0.4386  0.1935
   32MOL0     H 4313   5.665   1.713   7.823 -0.4498 -2.0445 -1.7653
   32MOL0     H 4314   5.724   1.574   7.611 -1.6828 -0.6686 -0.5559
   32MOL0     H 4315   5.633   1.724   7.574 -0.7112 -0.1671  1.9298
   32MOL0     H 4316   6.001   1.834   7.415  1.0452 -2.8556 -0.2135
   32MOL0     H 4317   6.036   1.797   8.245  0.3785  0.3190  0.1064
   32MOL0     H 4318   6.182   1.514   8.329 -0.1743  0.4695 -1.3210
   32MOL0     H 4319   6.291   1.638   8.390  0.1160 -1.4655  1.8540
   32MOL0     H 4320   6.113   1.668   8.384  1.9094  3.3195  1.2750
   33MOL0     O 4321  10.214   8.886   2.635  0.0743  0.6315  0.0559
   33MOL0     C 4322  10.323   8.928   2.608 -0.2125  0.6186  0.1037
   33MOL0     O 4323  10.435   8.860   2.603  0.1440  0.3802  0.1292
   33MOL0     C 4324  10.440   8.725   2.578  1.2782  0.1568 -1.1412
   33MOL0     C 4325  10.335   8.649   2.524 -0.0908  0.5605 -0.2374
   33MOL0     C 4326  10.328   8.510   2.539 -0.0962  0.1904  1.0351
   33MOL0     C 4327  10.438   8.432   2.585  1.0372  0.5294  0.6652
   33MOL0     O 4328  10.439   8.290   2.570 -0.3510  0.4553  0.1248
   33MOL0     C 4329  10.458   8.217   2.693 -0.4500  0.2330  0.4239
   33MOL0     C 4330  10.326   8.211   2.765  1.0094 -0.4774  0.3448
   33MOL0     C 4331  10.317   8.157   2.900 -0.0824 -0.2644  0.8398
   33MOL0     C 4332  10.173   8.136   2.954  0.6203  0.6508 -0.2252
   33MOL0     C 4333  10.173   8.098   3.097  0.0683 -0.2507  0.5884
   33MOL0     C 4334  10.179   7.940   3.116 -0.0356  0.0616 -0.8778
   33MOL0     C 4335  10.208   7.904   3.259 -0.4480  0.1175  0.0874
   33MOL0     C 4336  10.102   7.834   3.341  0.8921  0.5992 -0.7546
   33MOL0     N 4337  10.054   7.705   3.286 -0.3712  0.1008  0.2595
   33MOL0     C 4338  10.141   7.615   3.233 -1.0483  0.1245  1.4561
   33MOL0     C 4339  10.057   7.521   3.191  0.1437  0.1825  0.2639
   33MOL0     C 4340  10.105   7.409   3.101 -0.0559 -0.4988  0.5661
   33MOL0     C 4341  10.101   7.460   2.951 -0.1983  1.0998 -0.4521
   33MOL0     C 4342  10.157   7.358   2.850 -0.2472  0.1830  0.8892
   33MOL0     C 4343  10.140   7.397   2.694 -0.1010 -0.1415 -0.0788
   33MOL0     O 4344  10.147   7.278   2.623  0.8275 -0.3749  0.1486
   33MOL0     C 4345  10.107   7.287   2.491  0.7403 -0.7289  0.6678
   33MOL0     C 4346  10.107   7.170   2.426 -0.1348  0.3541  0.3210
   33MOL0     C 4347  10.094   7.153   2.288 -0.0072  0.0307 -0.3449
   33MOL0     C 4348  10.089   7.266   2.212 -0.2360 -0.7267 -1.0193
   33MOL0     C 4349  10.077   7.260   2.067 -0.4333  0.1527  0.1357
   33MOL0     O 4350  10.044   7.372   1.999 -0.5344  0.0450  0.2630
   33MOL0     C 4351  10.022   7.378   1.859  0.3945  0.9543 -0.0191
   33MOL0     C 4352   9.893   7.426   1.820 -0.1242  1.7383  0.0332
   33MOL0     C 4353   9.871   7.431   1.683  0.7333 -1.1385 -0.3905
   33MOL0     C 4354   9.972   7.417   1.592  0.3609  0.3631  0.1783
   33MOL0     O 4355   9.954   7.446   1.462  0.4578  0.0882 -0.3238
   33MOL0     C 4356   9.937   7.327   1.375 -0.0695 -0.3674  0.3296
   33MOL0     C 4357   9.964   7.392   1.237  0.1839  0.7329 -0.3989
   33MOL0     C 4358  10.109   7.408   1.212  0.2700 -0.0975  0.1415
   33MOL0     C 4359  10.121   7.500   1.084  0.0840 -0.3649  0.6718
   33MOL0     C 4360  10.262   7.532   1.040  0.0264 -0.3632 -0.8267
   33MOL0     C 4361  10.337   7.611   1.149 -0.4140  0.1106  0.1198
   33MOL0     C 4362  10.470   7.670   1.110  0.0053  0.4508 -0.4659
   33MOL0     C 4363  10.562   7.730   1.219  0.0498  0.2685  0.9404
   33MOL0    Cl 4364  10.492   7.880   1.286 -0.5237  0.5010 -0.2372
   33MOL0     C 4365  10.095   7.368   1.632  1.3245  0.2358 -0.6438
   33MOL0     C 4366  10.120   7.349   1.766  0.0564  0.0620  0.0252
   33MOL0     O 4367  10.075   7.147   2.016  0.1590 -0.0058  0.1257
   33MOL0     C 4368  10.071   7.394   2.282 -0.1904  0.1098 -1.2526
   33MOL0     C 4369  10.084   7.404   2.424 -0.2567  0.1661 -0.9243
   33MOL0     N 4370   9.926   7.545   3.224 -0.0005  0.6394 -0.1210
   33MOL0     N 4371   9.926   7.666   3.262 -0.4968  0.0649 -0.4744
   33MOL0     C 4372  10.543   8.504   2.631  0.5802 -0.6731 -0.0084
   33MOL0     C 4373  10.546   8.652   2.625 -0.7266  1.1776 -0.5682
   33MOL0     C 4374  10.326   9.073   2.570  0.3133  0.7302 -0.2588
   33MOL0     C 4375  10.429   9.114   2.485 -0.5808 -0.1585  0.0654
   33MOL0     C 4376  10.443   9.246   2.445  0.1420 -0.4199  0.1750
   33MOL0     C 4377  10.349   9.337   2.477 -0.6102 -0.7321 -0.2222
   33MOL0     O 4378  10.377   9.461   2.419  0.3636 -0.2864 -1.0208
   33MOL0     C 4379  10.288   9.570   2.430 -0.1980  0.1188 -0.3898
   33MOL0     C 4380  10.335   9.680   2.334 -0.5309 -0.6755  0.4434
   33MOL0     C 4381  10.482   9.713   2.363 -0.3800 -0.2724 -0.1348
   33MOL0     C 4382  10.532   9.820   2.279  0.7381 -0.4836  0.1551
   33MOL0     C 4383  10.462   9.943   2.287 -0.0327  0.1242 -0.0923
   33MOL0     C 4384  10.408  10.044   2.303 -0.4463  0.4296 -0.2191
   33MOL0     C 4385  10.255   9.310   2.572 -0.2000  0.0695 -0.4842
   33MOL0     C 4386  10.250   9.174   2.626 -0.4356 -0.2035  1.3110
   33MOL0     C 4387  10.143   9.146   2.721  0.0724  0.1585  0.1155
   33MOL0     H 4388  10.249   8.705   2.487  2.1041  3.3243 -1.5227
   33MOL0     H 4389  10.255   8.453   2.482 -0.6085 -0.9774  2.7605
   33MOL0     H 4390  10.499   8.118   2.670 -2.3641 -0.5580  0.2024
   33MOL0     H 4391  10.530   8.266   2.759 -1.5722  0.1990  1.7216
   33MOL0     H 4392  10.262   8.151   2.700 -1.1774 -0.0414  1.9580
   33MOL0     H 4393  10.288   8.314   2.772  3.7712  0.5131  3.3113
   33MOL0     H 4394  10.376   8.215   2.972  0.9695 -1.2200  0.7864
   33MOL0     H 4395  10.360   8.056   2.903  1.1237  0.2208  0.4732
   33MOL0     H 4396  10.116   8.227   2.935  1.9737  1.1664 -2.1282
   33MOL0     H 4397  10.117   8.061   2.896 -2.0887  0.9925  1.7595
   33MOL0     H 4398  10.251   8.154   3.148  1.3409  0.8872 -2.3823
   33MOL0     H 4399  10.073   8.130   3.129 -0.6102 -1.2882 -0.4338
   33MOL0     H 4400  10.085   7.893   3.086  0.2472 -2.6715  2.0356
   33MOL0     H 4401  10.263   7.891   3.067 -1.5831 -1.4760 -2.1260
   33MOL0     H 4402  10.242   7.995   3.309 -0.6799  0.7415 -0.8472
   33MOL0     H 4403  10.293   7.836   3.265 -1.1343 -0.7506  0.0923
   33MOL0     H 4404  10.153   7.812   3.435  0.1027 -1.1755 -0.7053
   33MOL0     H 4405  10.015   7.898   3.360 -1.1157 -2.3577  0.8475
   33MOL0     H 4406  10.249   7.615   3.221 -1.0254 -3.9750  0.3442
   33MOL0     H 4407  10.209   7.391   3.130 -0.2009 -2.2398  0.1280
   33MOL0     H 4408  10.050   7.316   3.116 -5.3649  1.6757 -2.3947
   33MOL0     H 4409  10.001   7.485   2.914  0.3101  2.4935 -0.9324
   33MOL0     H 4410  10.151   7.556   2.938 -1.7044  1.7655 -1.6293
   33MOL0     H 4411  10.095   7.271   2.870 -0.4663 -0.1664 -1.1515
   33MOL0     H 4412  10.261   7.336   2.874  0.3809  2.2608  0.2508
   33MOL0     H 4413  10.214   7.472   2.665  1.7404 -1.1727  1.6796
   33MOL0     H 4414  10.037   7.433   2.681 -0.0394  0.1226  0.1633
   33MOL0     H 4415  10.108   7.074   2.477 -2.6992 -2.2038 -3.8373
   33MOL0     H 4416  10.098   7.058   2.235 -1.0055  0.1761 -0.7087
   33MOL0     H 4417   9.805   7.445   1.880 -1.5045  0.6686 -1.5611
   33MOL0     H 4418   9.772   7.468   1.657 -0.3564 -2.5584  1.4560
   33MOL0     H 4419  10.007   7.248   1.401 -1.1752 -0.9331  1.6655
   33MOL0     H 4420   9.842   7.273   1.381  1.2021 -2.6588  0.9470
   33MOL0     H 4421   9.912   7.329   1.164  0.2808 -0.2084  0.3095
   33MOL0     H 4422   9.900   7.479   1.251  0.5936  0.8829  0.6773
   33MOL0     H 4423  10.157   7.447   1.302 -1.8313 -0.9208  1.6914
   33MOL0     H 4424  10.160   7.312   1.196 -3.1251 -1.5854 -3.4599
   33MOL0     H 4425  10.077   7.599   1.102 -0.4441 -0.8314  2.1059
   33MOL0     H 4426  10.085   7.448   0.995  2.7734 -2.0193  0.4339
   33MOL0     H 4427  10.265   7.599   0.953  0.5482 -0.9645 -1.2780
   33MOL0     H 4428  10.313   7.441   1.007  2.1845  0.6285 -0.3925
   33MOL0     H 4429  10.262   7.680   1.191 -0.6808 -0.4069  0.5162
   33MOL0     H 4430  10.365   7.544   1.231  0.3416 -0.0067 -0.2336
   33MOL0     H 4431  10.452   7.734   1.023  0.9123 -0.3407 -1.2483
   33MOL0     H 4432  10.531   7.588   1.072  1.6191  1.2194  0.3965
   33MOL0     H 4433  10.588   7.661   1.300  0.0460 -1.8198 -0.7590
   33MOL0     H 4434  10.650   7.752   1.158 -0.1477 -1.7018 -0.1547
   33MOL0     H 4435  10.172   7.347   1.559  3.2675  0.1458  1.3293
   33MOL0     H 4436  10.213   7.303   1.795 -0.4201 -2.3493 -1.9808
   33MOL0     H 4437  10.090   7.483   2.222  1.4783 -1.1836 -2.7826
   33MOL0     H 4438  10.096   7.502   2.469  1.6257 -0.2916 -0.3491
   33MOL0     H 4439  10.626   8.453   2.678  0.8760 -1.4354 -1.2831
   33MOL0     H 4440  10.635   8.703   2.661 -0.1301 -0.1791 -0.0311
   33MOL0     H 4441  10.501   9.035   2.467  0.8326  0.8161  1.2984
   33MOL0     H 4442  10.520   9.266   2.372  0.0744  1.3032  0.5127
   33MOL0     H 4443  10.260   9.602   2.531  0.7745 -1.3103  0.3640
   33MOL0     H 4444  10.196   9.531   2.385 -0.4267  1.3633 -1.0558
   33MOL0     H 4445  10.271   9.768   2.326  0.9638  0.3915 -0.2001
   33MOL0     H 4446  10.330   9.634   2.235 -0.6662  1.1447 -0.4315
   33MOL0     H 4447  10.533   9.621   2.335 -2.6874 -1.9713  0.8964
   33MOL0     H 4448  10.497   9.736   2.469 -0.7546  0.4979 -0.2411
   33MOL0     H 4449  10.636   9.833   2.308  0.7378 -2.4036  1.2082
   33MOL0     H 4450  10.545   9.785   2.176  1.1668 -2.6646  0.9122
   33MOL0     H 4451  10.364  10.140   2.318 -1.3636 -0.3046  2.1840
   33MOL0     H 4452  10.195   9.388   2.619  1.6927  3.0150 -2.6034
   33MOL0     H 4453  10.134   9.235   2.785  1.2658  0.9372 -0.7466
   33MOL0     H 4454  10.048   9.127   2.671  1.1394  1.4500 -2.5621
   33MOL0     H 4455  10.169   9.074   2.799  1.8709  1.9941  1.3108
   34MOL0     O 4456   7.127   2.369   1.190  0.2461 -0.5197 -0.0067
   34MOL0     C 4457   7.147   2.382   1.066  1.1636 -0.5963 -0.1462
   34MOL0     O 4458   7.257   2.339   1.000  0.5528 -0.6636 -0.4053
   34MOL0     C 4459   7.371   2.293   1.053 -0.4583 -0.4950 -0.0314
   34MOL0     C 4460   7.448   2.210   0.975  0.6574 -0.0427  0.4160
   34MOL0     C 4461   7.575   2.166   1.010  0.4804  0.0166 -0.4340
   34MOL0     C 4462   7.616   2.192   1.146 -0.8922  0.3507  0.3947
   34MOL0     O 4463   7.725   2.132   1.188 -0.3940  0.0004  0.3629
   34MOL0     C 4464   7.703   1.996   1.233  0.0336  0.6449 -0.1691
   34MOL0     C 4465   7.821   1.928   1.293 -0.8962  0.2956  0.8894
   34MOL0     C 4466   7.908   1.874   1.172 -0.0753  0.2164  0.9322
   34MOL0     C 4467   7.917   1.722   1.169  0.0946  0.3804  0.9888
   34MOL0     C 4468   8.012   1.675   1.050  0.8095 -1.5014 -0.6473
   34MOL0     C 4469   8.026   1.523   1.044 -0.0092  0.0700  0.1709
   34MOL0     C 4470   8.065   1.456   1.176 -0.1827 -0.0874 -0.8044
   34MOL0     C 4471   8.202   1.492   1.239 -0.2229 -0.1905 -0.5651
   34MOL0     N 4472   8.272   1.373   1.315 -0.0233 -0.7200  0.0490
   34MOL0     C 4473   8.306   1.251   1.259 -1.1240 -0.7370  0.7098
   34MOL0     C 4474   8.364   1.187   1.369  0.4432  1.0172  1.5875
   34MOL0     C 4475   8.429   1.051   1.377  0.2425  0.1438 -0.0340
   34MOL0     C 4476   8.319   0.961   1.426 -0.4136  1.4095 -0.0855
   34MOL0     C 4477   8.347   0.809   1.454  0.1513  0.4486 -0.2363
   34MOL0     C 4478   8.229   0.734   1.506  0.7706 -1.2418 -0.5042
   34MOL0     O 4479   8.272   0.606   1.552 -0.2947 -0.3203  0.1150
   34MOL0     C 4480   8.182   0.530   1.608  0.1997 -0.6489 -0.4719
   34MOL0     C 4481   8.228   0.412   1.665 -0.0043  0.0358 -0.7257
   34MOL0     C 4482   8.127   0.320   1.708  0.2186  0.0100  0.5693
   34MOL0     C 4483   7.992   0.359   1.725 -0.7758  0.8553 -0.4668
   34MOL0     C 4484   7.878   0.269   1.768 -0.2990  0.1117  0.4289
   34MOL0     O 4485   7.747   0.321   1.767  0.1745 -0.0689  0.3903
   34MOL0     C 4486   7.648   0.260   1.833  0.0102 -0.2881  0.0744
   34MOL0     C 4487   7.655   0.202   1.965  0.0987  0.7233 -1.8853
   34MOL0     C 4488   7.536   0.162   2.032 -0.1874  0.6070  0.2267
   34MOL0     C 4489   7.417   0.143   1.950 -0.1577 -0.9785  0.2855
   34MOL0     O 4490   7.301   0.071   1.972 -0.3769 -0.5476 -0.8089
   34MOL0     C 4491   7.298  -0.029   2.074 -0.1627 -0.2662  0.7705
   34MOL0     C 4492   7.177  -0.110   2.031 -0.2972 -0.1533  0.1210
   34MOL0     C 4493   7.164  -0.216   2.140  0.2293 -0.6654 -0.3754
   34MOL0     C 4494   7.222  -0.347   2.102  0.0967 -0.1494 -0.1372
   34MOL0     C 4495   7.204  -0.456   2.205  0.2167  0.2180  0.3020
   34MOL0     C 4496   7.231  -0.594   2.163 -0.3161  0.6636 -0.2095
   34MOL0     C 4497   7.381  -0.603   2.148 -1.2739  1.0252 -0.2779
   34MOL0     C 4498   7.434  -0.692   2.034 -0.3123  0.2870 -0.4713
   34MOL0    Cl 4499   7.409  -0.612   1.881  0.3804 -0.5529  0.1788
   34MOL0     C 4500   7.419   0.195   1.817 -0.8936 -0.4534  0.9714
   34MOL0     C 4501   7.528   0.264   1.764 -0.9383 -0.1089 -0.1057
   34MOL0     O 4502   7.921   0.155   1.805  0.1153  0.0159  0.1378
   34MOL0     C 4503   7.954   0.489   1.671  0.0410  0.0813 -0.7776
   34MOL0     C 4504   8.045   0.572   1.609  0.2749  0.1312 -0.3064
   34MOL0     N 4505   8.354   1.263   1.482 -0.5706  0.0556 -0.5626
   34MOL0     N 4506   8.307   1.379   1.449 -0.7291 -0.2743  0.1661
   34MOL0     C 4507   7.539   2.280   1.226 -0.8212  0.5493 -0.1248
   34MOL0     C 4508   7.423   2.329   1.181  0.1064 -1.9137 -0.0049
   34MOL0     C 4509   7.027   2.435   0.989 -0.3895 -0.3056 -0.5554
   34MOL0     C 4510   7.059   2.505   0.869  0.2067  0.5423 -0.3497
   34MOL0     C 4511   6.952   2.560   0.804  0.1453 -0.7378  0.1992
   34MOL0     C 4512   6.816   2.553   0.846 -0.5249  0.6582  0.1522
   34MOL0     O 4513   6.725   2.617   0.765 -0.5112  0.1075 -0.3267
   34MOL0     C 4514   6.594   2.661   0.807 -0.5815  0.5148  0.1924
   34MOL0     C 4515   6.519   2.637   0.668 -0.2025 -0.0242 -0.5901
   34MOL0     C 4516   6.492   2.488   0.647 -0.1392  0.3623  0.2923
   34MOL0     C 4517   6.402   2.457   0.524 -0.0960  0.4569 -0.0236
   34MOL0     C 4518   6.391   2.308   0.521 -0.2323 -0.1457  0.0736
   34MOL0     C 4519   6.365   2.194   0.488  0.4811 -0.3851  0.7037
   34MOL0     C 4520   6.791   2.483   0.964  0.7171  0.4508 -0.3851
   34MOL0     C 4521   6.895   2.424   1.038  0.0956  0.1122  0.4534
   34MOL0     C 4522   6.852   2.337   1.149  0.7262 -0.2534 -0.2943
   34MOL0     H 4523   7.407   2.165   0.885 -0.3062  1.4473  0.0654
   34MOL0     H 4524   7.630   2.099   0.945  1.4875  0.1771  0.2427
   34MOL0     H 4525   7.631   1.996   1.315  1.0689  0.5969  0.7562
   34MOL0     H 4526   7.659   1.952   1.143 -1.6141  0.5353  0.6661
   34MOL0     H 4527   7.801   1.838   1.352  5.4796 -3.0428 -1.0676
   34MOL0     H 4528   7.880   1.992   1.359  1.7380 -2.3116  1.3005
   34MOL0     H 4529   8.010   1.911   1.185 -0.8523  2.4923  0.8986
   34MOL0     H 4530   7.872   1.919   1.079  3.6056  1.9560  0.1443
   34MOL0     H 4531   7.950   1.683   1.266  0.9495 -1.6955 -0.0842
   34MOL0     H 4532   7.818   1.677   1.154 -0.5119  2.2371 -1.0198
   34MOL0     H 4533   7.986   1.706   0.949  0.8353 -3.2248 -1.2246
   34MOL0     H 4534   8.114   1.704   1.078  0.5882 -1.3401  0.0186
   34MOL0     H 4535   7.934   1.478   1.005  1.5458 -0.8049 -2.6924
   34MOL0     H 4536   8.106   1.491   0.977  1.1772  1.7459  0.7113
   34MOL0     H 4537   8.064   1.350   1.147 -3.1520  0.0701 -1.5668
   34MOL0     H 4538   7.987   1.462   1.252 -0.4938 -1.9463 -0.9114
   34MOL0     H 4539   8.273   1.547   1.176 -1.4464  2.5143  0.2646
   34MOL0     H 4540   8.180   1.575   1.306  0.3598  0.5452 -1.2635
   34MOL0     H 4541   8.287   1.216   1.158 -0.2066 -3.3336  1.3669
   34MOL0     H 4542   8.470   1.026   1.279 -1.7750  0.2628 -0.9444
   34MOL0     H 4543   8.512   1.063   1.448  0.1593  1.8675 -0.1731
   34MOL0     H 4544   8.279   1.003   1.519  3.1657  0.2358  2.2118
   34MOL0     H 4545   8.246   0.958   1.345 -1.9412  2.4850  1.1839
   34MOL0     H 4546   8.425   0.806   1.531 -0.1761 -2.2374  0.0715
   34MOL0     H 4547   8.392   0.767   1.364  0.4310 -1.4257  0.7210
   34MOL0     H 4548   8.151   0.724   1.430  2.3070 -2.8651 -1.9496
   34MOL0     H 4549   8.188   0.797   1.586  3.6461  0.1631 -0.0005
   34MOL0     H 4550   8.333   0.385   1.670  0.2279  1.0602  0.2332
   34MOL0     H 4551   8.164   0.221   1.735  0.5526  0.1133  0.5002
   34MOL0     H 4552   7.745   0.206   2.025 -0.4978  0.6406 -0.9617
   34MOL0     H 4553   7.542   0.129   2.135  2.9570 -1.0479 -0.3595
   34MOL0     H 4554   7.389  -0.088   2.061 -0.3272  0.0727 -3.0128
   34MOL0     H 4555   7.299   0.007   2.177 -3.9284  1.4384  0.3939
   34MOL0     H 4556   7.089  -0.045   2.025  0.3064  0.6075 -0.7972
   34MOL0     H 4557   7.183  -0.150   1.929 -3.5619  0.0165 -0.2549
   34MOL0     H 4558   7.193  -0.184   2.240  1.3219  2.5255 -1.6024
   34MOL0     H 4559   7.055  -0.225   2.146  0.3735 -1.5830  1.9616
   34MOL0     H 4560   7.329  -0.324   2.095  0.4922 -2.0894 -0.9888
   34MOL0     H 4561   7.192  -0.372   2.000  2.9304  1.1975 -1.4148
   34MOL0     H 4562   7.099  -0.448   2.234 -0.3111 -2.2886 -0.6336
   34MOL0     H 4563   7.262  -0.437   2.295 -1.5780 -0.3725  1.6413
   34MOL0     H 4564   7.193  -0.663   2.240  0.0895  0.0500 -0.5553
   34MOL0     H 4565   7.195  -0.616   2.062 -0.7576 -0.3443  0.1450
   34MOL0     H 4566   7.415  -0.634   2.248  1.2384 -0.7008 -1.5654
   34MOL0     H 4567   7.423  -0.502   2.154  1.5930 -0.1282  2.3525
   34MOL0     H 4568   7.538  -0.724   2.048 -0.4472  0.1678  0.2980
   34MOL0     H 4569   7.382  -0.789   2.034 -2.3838  1.2365  3.0417
   34MOL0     H 4570   7.338   0.207   1.746  0.2181  1.1415 -0.1101
   34MOL0     H 4571   7.529   0.312   1.666  0.5306  0.3781  0.1274
   34MOL0     H 4572   7.854   0.524   1.694 -0.2752 -1.0129 -0.4355
   34MOL0     H 4573   8.009   0.664   1.564  2.5433  0.7112 -1.0871
   34MOL0     H 4574   7.585   2.283   1.324 -1.2722 -1.9128  0.2196
   34MOL0     H 4575   7.348   2.385   1.236  0.4179 -1.3175 -0.1707
   34MOL0     H 4576   7.165   2.509   0.849  1.3533 -3.6626  3.2451
   34MOL0     H 4577   6.976   2.610   0.711  4.2595 -0.3558  1.2407
   34MOL0     H 4578   6.595   2.762   0.848 -0.8521 -0.0887  1.7641
   34MOL0     H 4579   6.544   2.607   0.887  0.3937 -0.7815 -0.0247
   34MOL0     H 4580   6.578   2.676   0.585 -0.3054  3.0378  0.6326
   34MOL0     H 4581   6.424   2.690   0.685  0.8909  0.9876  3.8675
   34MOL0     H 4582   6.455   2.438   0.737  0.2309 -0.5193 -0.0323
   34MOL0     H 4583   6.589   2.439   0.631 -0.3171 -0.5679  1.8013
   34MOL0     H 4584   6.311   2.517   0.536  0.1948  0.5214  2.3139
   34MOL0     H 4585   6.448   2.483   0.428 -0.5686  0.0352 -0.3706
   34MOL0     H 4586   6.355   2.091   0.461  2.9599 -0.4027 -0.4314
   34MOL0     H 4587   6.693   2.485   1.009  0.0643  1.4999 -1.7553
   34MOL0     H 4588   6.869   2.366   1.254 -1.5238 -0.3460  0.1420
   34MOL0     H 4589   6.743   2.327   1.154  0.5014  1.2699 -1.5816
   34MOL0     H 4590   6.894   2.238   1.126 -3.4366 -1.6444 -3.0124
   35MOL0     O 4591   2.538   9.188  10.657  0.5035  0.6459  0.3899
   35MOL0     C 4592   2.479   9.294  10.631  0.2571 -0.7268  1.0704
   35MOL0     O 4593   2.452   9.394  10.716  0.1411  0.1657 -0.7458
   35MOL0     C 4594   2.482   9.364  10.843  0.3464  0.4777 -0.5530
   35MOL0     C 4595   2.591   9.422  10.900 -0.0199 -0.8106  0.0864
   35MOL0     C 4596   2.618   9.405  11.038 -0.4312  0.4091 -0.4542
   35MOL0     C 4597   2.534   9.318  11.119 -0.0294 -1.2983 -0.1207
   35MOL0     O 4598   2.534   9.304  11.254  0.9094 -0.2472  0.1978
   35MOL0     C 4599   2.658   9.303  11.322  0.6716  0.6642 -0.2631
   35MOL0     C 4600   2.619   9.202  11.431  0.5609 -0.5869  0.6249
   35MOL0     C 4601   2.735   9.115  11.487  0.1538  0.0078  0.1783
   35MOL0     C 4602   2.761   9.005  11.383  1.2249 -0.0516  0.1892
   35MOL0     C 4603   2.837   8.893  11.443  0.9624 -1.0459  0.7315
   35MOL0     C 4604   2.835   8.765  11.368  0.1656 -0.2463 -0.4672
   35MOL0     C 4605   2.974   8.753  11.302 -0.9862 -0.2556 -1.1996
   35MOL0     C 4606   2.998   8.619  11.233  0.8886 -0.0683 -0.2817
   35MOL0     N 4607   2.910   8.604  11.114 -0.5303 -0.3377 -0.6594
   35MOL0     C 4608   2.891   8.700  11.021  0.2068 -0.7180 -0.1540
   35MOL0     C 4609   2.793   8.653  10.937 -0.2752 -0.5464  0.8316
   35MOL0     C 4610   2.732   8.733  10.823 -0.0395 -0.5130 -0.6598
   35MOL0     C 4611   2.767   8.670  10.689  0.7738 -0.0762 -0.4751
   35MOL0     C 4612   2.909   8.702  10.640  0.6579 -0.2682 -0.3416
   35MOL0     C 4613   2.936   8.620  10.508 -0.3258 -0.3098 -0.2884
   35MOL0     O 4614   2.848   8.676  10.406 -0.2496 -0.2018 -0.3598
   35MOL0     C 4615   2.828   8.620  10.289 -0.6898  0.0069  0.0049
   35MOL0     C 4616   2.707   8.594  10.240  0.9023 -0.0052  0.4833
   35MOL0     C 4617   2.686   8.537  10.113 -0.2032  0.1647  0.2159
   35MOL0     C 4618   2.793   8.481  10.041  0.5391  0.0257  0.1009
   35MOL0     C 4619   2.776   8.397   9.914 -0.5730 -0.9675 -0.8366
   35MOL0     O 4620   2.639   8.370   9.885  0.1581 -0.3953  0.3177
   35MOL0     C 4621   2.609   8.311   9.768  0.0335  0.7498 -0.2727
   35MOL0     C 4622   2.580   8.176   9.779 -0.3969  0.5938 -0.6398
   35MOL0     C 4623   2.563   8.098   9.668  0.1187  0.0153 -0.5458
   35MOL0     C 4624   2.585   8.151   9.540 -0.7506  0.3846  0.6540
   35MOL0     O 4625   2.586   8.078   9.426  0.2192  0.5033  0.3191
   35MOL0     C 4626   2.623   7.942   9.425  0.3491  0.3785  0.3308
   35MOL0     C 4627   2.581   7.865   9.290 -0.6002 -0.1724 -0.0348
   35MOL0     C 4628   2.440   7.899   9.233 -0.0135 -0.4932  0.4895
   35MOL0     C 4629   2.412   7.849   9.095  0.6047  0.0935 -0.5480
   35MOL0     C 4630   2.262   7.873   9.069 -0.0839 -0.6680 -0.7701
   35MOL0     C 4631   2.226   7.852   8.922 -1.0669 -0.8891  1.0521
   35MOL0     C 4632   2.085   7.899   8.904  0.5883 -0.4623  0.1061
   35MOL0     C 4633   1.986   7.802   8.968  0.1368  0.2313  0.3701
   35MOL0    Cl 4634   1.814   7.824   8.914 -0.3468 -0.4361 -0.2032
   35MOL0     C 4635   2.605   8.291   9.532 -0.0336 -0.2548  0.1419
   35MOL0     C 4636   2.622   8.371   9.646  1.0943 -0.0470  0.5077
   35MOL0     O 4637   2.868   8.364   9.846 -0.2274  0.4516  0.0808
   35MOL0     C 4638   2.924   8.505  10.089 -0.3482 -0.3217  0.2166
   35MOL0     C 4639   2.939   8.562  10.221  0.5688 -1.1531 -0.1590
   35MOL0     N 4640   2.790   8.519  10.966 -0.2452 -1.2779  0.5361
   35MOL0     N 4641   2.860   8.491  11.072  0.4910  1.0067  1.2991
   35MOL0     C 4642   2.429   9.259  11.059  1.2561 -0.0338 -0.6453
   35MOL0     C 4643   2.397   9.274  10.921  0.3091  0.3122 -0.7580
   35MOL0     C 4644   2.443   9.319  10.488  0.3509  0.4393  1.0064
   35MOL0     C 4645   2.400   9.442  10.445 -0.8376  0.2750  0.4386
   35MOL0     C 4646   2.388   9.461  10.304 -0.5786 -1.9751  0.4551
   35MOL0     C 4647   2.405   9.371  10.202  0.5831 -0.1121 -0.2572
   35MOL0     O 4648   2.383   9.410  10.078  0.1071  0.0900  0.1817
   35MOL0     C 4649   2.362   9.309   9.974  0.5248 -0.7626 -0.8518
   35MOL0     C 4650   2.281   9.393   9.871  0.2992  0.5458 -0.6367
   35MOL0     C 4651   2.223   9.295   9.757  0.0292 -0.4857  0.5598
   35MOL0     C 4652   2.321   9.300   9.634  0.3500  0.5093 -0.3617
   35MOL0     C 4653   2.294   9.191   9.538 -0.6032 -0.1554  0.1666
   35MOL0     C 4654   2.287   9.104   9.454  0.0051  0.3439 -0.4356
   35MOL0     C 4655   2.430   9.243  10.250  0.4848  0.1986  0.1662
   35MOL0     C 4656   2.448   9.208  10.391  0.2723 -0.3815 -0.1003
   35MOL0     C 4657   2.484   9.066  10.404  0.6932 -0.1294 -0.9879
   35MOL0     H 4658   2.645   9.486  10.831 -1.6996 -2.3363 -2.8447
   35MOL0     H 4659   2.699   9.454  11.090  2.9678 -2.5016 -2.5302
   35MOL0     H 4660   2.728   9.257  11.253  0.8880 -1.2337  1.1676
   35MOL0     H 4661   2.701   9.400  11.351  0.0754  1.3400 -1.5236
   35MOL0     H 4662   2.541   9.131  11.403  1.4238 -2.4174  2.5730
   35MOL0     H 4663   2.572   9.267  11.504 -2.0711  0.0019 -1.4368
   35MOL0     H 4664   2.709   9.076  11.586 -2.2425 -0.3892 -0.5584
   35MOL0     H 4665   2.822   9.180  11.503 -0.9984  1.4886  0.6249
   35MOL0     H 4666   2.671   8.950  11.354  0.3217 -0.4422  3.3695
   35MOL0     H 4667   2.806   9.049  11.294 -0.9797 -2.1227 -2.1131
   35MOL0     H 4668   2.939   8.930  11.458  1.3386 -0.8604 -1.9029
   35MOL0     H 4669   2.799   8.873  11.544 -0.9954  2.0147  0.7438
   35MOL0     H 4670   2.820   8.683  11.439 -2.6983  0.6040  0.0182
   35MOL0     H 4671   2.756   8.767  11.293  0.1905 -0.6602 -0.5088
   35MOL0     H 4672   3.053   8.758  11.377 -0.0089  0.4860 -2.2545
   35MOL0     H 4673   2.990   8.830  11.226 -0.0221 -0.9794 -1.7529
   35MOL0     H 4674   3.104   8.626  11.207  0.7535  0.9731 -0.6109
   35MOL0     H 4675   2.992   8.534  11.301  0.2957  1.5735  1.8380
   35MOL0     H 4676   2.942   8.796  11.020  1.9149 -1.5476 -2.5744
   35MOL0     H 4677   2.625   8.738  10.844 -0.3314 -2.7223 -1.3770
   35MOL0     H 4678   2.764   8.837  10.827 -2.3287  0.2537 -0.6882
   35MOL0     H 4679   2.738   8.565  10.700 -1.7974  0.5401 -0.6792
   35MOL0     H 4680   2.695   8.710  10.618  0.1965 -0.6274 -0.2183
   35MOL0     H 4681   2.981   8.674  10.717  0.1671  1.1633  0.6656
   35MOL0     H 4682   2.917   8.811  10.634 -1.9416  0.0019 -0.1257
   35MOL0     H 4683   2.905   8.520  10.539  0.4553  0.3925  3.1256
   35MOL0     H 4684   3.035   8.624  10.462 -0.9652 -1.9127 -1.9144
   35MOL0     H 4685   2.623   8.629  10.299  0.0797 -1.1791  0.0367
   35MOL0     H 4686   2.586   8.522  10.075  0.9658 -3.1451 -2.0566
   35MOL0     H 4687   2.554   8.139   9.877 -0.4983 -3.0117 -1.8729
   35MOL0     H 4688   2.529   7.996   9.674  0.0388  0.0262 -0.8044
   35MOL0     H 4689   2.731   7.932   9.438  0.4089 -3.8099 -1.6063
   35MOL0     H 4690   2.574   7.886   9.505  0.0066  0.2944  0.0680
   35MOL0     H 4691   2.657   7.872   9.212  0.5272 -3.1966  0.6670
   35MOL0     H 4692   2.574   7.757   9.303  0.5652 -0.1912  0.5258
   35MOL0     H 4693   2.364   7.843   9.286 -0.9232 -2.0285 -2.2363
   35MOL0     H 4694   2.416   8.006   9.237  0.0154 -0.5313  3.3223
   35MOL0     H 4695   2.425   7.741   9.081 -1.5944  0.1054 -3.7623
   35MOL0     H 4696   2.458   7.898   9.009 -2.0899  0.3254 -1.9683
   35MOL0     H 4697   2.230   7.970   9.107  1.4204 -0.2345 -0.5194
   35MOL0     H 4698   2.206   7.799   9.126  5.0947 -4.1955  0.4764
   35MOL0     H 4699   2.289   7.916   8.860  0.1062 -0.4003  2.6854
   35MOL0     H 4700   2.228   7.746   8.893 -3.3059 -0.2523 -1.9360
   35MOL0     H 4701   2.068   7.902   8.796  2.2294  0.0401 -0.1584
   35MOL0     H 4702   2.077   7.998   8.950  1.4703 -0.6951  0.7828
   35MOL0     H 4703   2.017   7.697   8.970 -0.7755 -0.1126 -1.3674
   35MOL0     H 4704   1.989   7.838   9.071  0.4277  1.8227 -0.1607
   35MOL0     H 4705   2.609   8.339   9.435 -0.0450 -2.6677 -1.1149
   35MOL0     H 4706   2.641   8.477   9.632  1.6060 -0.2214 -0.1867
   35MOL0     H 4707   3.006   8.454  10.040  0.3009 -1.7402  2.6127
   35MOL0     H 4708   3.038   8.563  10.266 -0.0501 -0.8215  1.2291
   35MOL0     H 4709   2.358   9.219  11.131  3.7257 -2.2678  0.7129
   35MOL0     H 4710   2.305   9.231  10.882 -0.2366  1.8463 -1.2622
   35MOL0     H 4711   2.393   9.519  10.520  3.2052 -0.0093  1.3514
   35MOL0     H 4712   2.369   9.564  10.279  1.9443 -1.0328  2.0152
   35MOL0     H 4713   2.297   9.225  10.003  0.3734 -1.1250 -2.1731
   35MOL0     H 4714   2.457   9.265   9.945  0.5333 -2.3937  1.3622
   35MOL0     H 4715   2.339   9.474   9.826 -1.6604  1.6508 -1.2783
   35MOL0     H 4716   2.191   9.432   9.919 -0.9177 -3.4159  0.6822
   35MOL0     H 4717   2.136   9.343   9.712  0.3964  2.2602  2.4995
   35MOL0     H 4718   2.201   9.192   9.786  1.2541 -1.2267 -1.0042
   35MOL0     H 4719   2.314   9.396   9.583  0.2727  1.2318  0.9796
   35MOL0     H 4720   2.424   9.293   9.669  0.1517  1.1170  0.3807
   35MOL0     H 4721   2.268   9.026   9.384 -1.4936  1.0520 -0.8514
   35MOL0     H 4722   2.433   9.159  10.180 -1.4867 -1.6933  2.1883
   35MOL0     H 4723   2.588   9.053  10.436 -0.1082 -1.5672  1.2853
   35MOL0     H 4724   2.433   9.032  10.495 -0.3704  0.3025 -1.4093
   35MOL0     H 4725   2.462   9.002  10.318  0.1629 -1.7125  0.2712
   36MOL0     O 4726   9.994   6.070   3.799  1.0241 -0.1673  0.0074
   36MOL0     C 4727  10.106   6.093   3.745  0.3335  0.6063 -1.1890
   36MOL0     O 4728  10.219   6.023   3.778  0.0898 -0.8950  0.4616
   36MOL0     C 4729  10.217   5.936   3.883 -1.0101  0.0124 -0.8317
   36MOL0     C 4730  10.332   5.947   3.969  0.2058 -0.3709  0.4985
   36MOL0     C 4731  10.341   5.859   4.077  0.0835 -0.2276  0.1059
   36MOL0     C 4732  10.261   5.749   4.093  0.1352  0.4221 -0.7340
   36MOL0     O 4733  10.279   5.661   4.199  0.3864  0.4363 -0.9177
   36MOL0     C 4734  10.367   5.701   4.307 -0.5353  0.1335 -0.9867
   36MOL0     C 4735  10.367   5.627   4.437 -1.1506 -0.2670  0.2018
   36MOL0     C 4736  10.455   5.503   4.432 -0.9832  0.1806  0.3508
   36MOL0     C 4737  10.471   5.451   4.568 -0.0241 -1.0057 -0.6636
   36MOL0     C 4738  10.514   5.305   4.553  0.2218  1.1428 -0.0141
   36MOL0     C 4739  10.573   5.252   4.682 -0.1981 -0.4481  0.5392
   36MOL0     C 4740  10.557   5.098   4.681 -0.7826  0.1923  0.1365
   36MOL0     C 4741  10.638   5.037   4.798 -0.0923  0.1061  0.1937
   36MOL0     N 4742  10.685   4.901   4.777 -0.4018 -0.0015 -0.1424
   36MOL0     C 4743  10.614   4.789   4.810 -0.2493  0.0950 -0.3634
   36MOL0     C 4744  10.681   4.682   4.768 -0.4432  0.0507 -1.1441
   36MOL0     C 4745  10.644   4.531   4.780 -0.2230  0.5215 -0.1792
   36MOL0     C 4746  10.504   4.512   4.716  0.0129  0.2052 -0.3243
   36MOL0     C 4747  10.457   4.364   4.720 -0.9484  0.3438 -0.0889
   36MOL0     C 4748  10.557   4.268   4.659 -0.1328 -0.2384  0.5224
   36MOL0     O 4749  10.571   4.275   4.512  0.1156 -0.7012  0.1965
   36MOL0     C 4750  10.537   4.164   4.436  0.1275 -1.0112  0.2714
   36MOL0     C 4751  10.637   4.086   4.383  0.7016 -0.4776 -0.2876
   36MOL0     C 4752  10.605   3.985   4.297  0.3644 -0.0610 -0.3546
   36MOL0     C 4753  10.475   3.930   4.294  0.8377 -1.0605  0.1766
   36MOL0     C 4754  10.451   3.802   4.215  0.1163 -0.3875 -0.9504
   36MOL0     O 4755  10.559   3.746   4.152  0.9453  0.0264  0.1126
   36MOL0     C 4756  10.534   3.682   4.031 -0.3444 -0.2506  0.6827
   36MOL0     C 4757  10.556   3.756   3.913  0.0607 -0.9431 -0.6473
   36MOL0     C 4758  10.539   3.696   3.786  0.0753 -0.3043 -0.1891
   36MOL0     C 4759  10.518   3.558   3.776  0.5408 -0.0712  0.1621
   36MOL0     O 4760  10.513   3.493   3.652  0.3491 -0.3061  0.0434
   36MOL0     C 4761  10.491   3.568   3.527  0.4316 -0.4678  0.7456
   36MOL0     C 4762  10.508   3.478   3.404  0.6227  0.9460  0.1111
   36MOL0     C 4763  10.388   3.383   3.375 -0.5202  0.0434 -0.8138
   36MOL0     C 4764  10.280   3.454   3.282 -0.2062  0.3682  0.0996
   36MOL0     C 4765  10.193   3.358   3.198 -0.2660  0.1120  0.8880
   36MOL0     C 4766  10.090   3.437   3.120 -0.0284 -0.6077  0.8209
   36MOL0     C 4767   9.979   3.357   3.048  0.1715  0.7202  0.3694
   36MOL0     C 4768   9.866   3.437   2.992 -0.1621 -0.7771 -0.3452
   36MOL0    Cl 4769   9.802   3.549   3.118  0.4472  0.4391 -0.2992
   36MOL0     C 4770  10.485   3.486   3.892 -0.6017 -0.2755 -0.5223
   36MOL0     C 4771  10.481   3.550   4.014  0.2942  0.1115 -0.1662
   36MOL0     O 4772  10.343   3.746   4.227 -0.1448 -0.5584  0.0144
   36MOL0     C 4773  10.376   4.000   4.357 -0.7492  0.3310 -0.1922
   36MOL0     C 4774  10.408   4.113   4.432  0.6502  0.2113 -0.0539
   36MOL0     N 4775  10.791   4.733   4.705  0.4950  0.5816  0.4291
   36MOL0     N 4776  10.803   4.867   4.724 -0.0084  0.0912  0.7896
   36MOL0     C 4777  10.151   5.739   4.007  0.4128  0.7165 -0.1967
   36MOL0     C 4778  10.133   5.831   3.902  0.6865  0.1027  0.0438
   36MOL0     C 4779  10.120   6.201   3.653 -0.4940  1.2144  0.0848
   36MOL0     C 4780  10.254   6.244   3.626 -1.3197  0.1882  0.5858
   36MOL0     C 4781  10.271   6.326   3.516  0.2028 -0.0001 -0.0347
   36MOL0     C 4782  10.163   6.380   3.445  0.2943 -0.2903  0.3183
   36MOL0     O 4783  10.190   6.466   3.345  0.1211  0.5873 -0.0260
   36MOL0     C 4784  10.128   6.588   3.357  0.4327  0.0437 -0.1372
   36MOL0     C 4785  10.198   6.701   3.288 -0.8018 -0.0564 -0.8188
   36MOL0     C 4786  10.321   6.754   3.368  0.2987 -0.4274  0.0627
   36MOL0     C 4787  10.386   6.875   3.289  1.5300 -0.0260  0.6556
   36MOL0     C 4788  10.510   6.925   3.344  0.6407  0.0515 -0.3560
   36MOL0     C 4789  10.621   6.972   3.378  1.2727  0.2497  0.2704
   36MOL0     C 4790  10.029   6.341   3.481 -1.3149 -0.9875 -0.5366
   36MOL0     C 4791  10.011   6.257   3.595 -0.7214 -0.2592 -0.0299
   36MOL0     C 4792   9.866   6.229   3.620  0.9428  0.2238 -0.0417
   36MOL0     H 4793  10.399   6.032   3.959  0.4760 -0.5112  1.0460
   36MOL0     H 4794  10.426   5.877   4.142  1.1248  0.6346 -1.4544
   36MOL0     H 4795  10.462   5.683   4.257 -0.5096 -0.8298 -0.6148
   36MOL0     H 4796  10.365   5.807   4.334 -0.0965 -0.6509  2.6893
   36MOL0     H 4797  10.266   5.607   4.472 -0.3699 -0.0881  2.7408
   36MOL0     H 4798  10.412   5.696   4.509  0.4199 -0.2150 -0.7669
   36MOL0     H 4799  10.553   5.520   4.387 -0.2039 -2.2814  0.9974
   36MOL0     H 4800  10.402   5.432   4.368  3.0359 -1.1263 -1.8504
   36MOL0     H 4801  10.551   5.512   4.610 -1.8380  0.0375  1.4824
   36MOL0     H 4802  10.380   5.466   4.627  0.6180  1.9705 -0.2640
   36MOL0     H 4803  10.423   5.247   4.534  0.9304  1.2566 -5.2738
   36MOL0     H 4804  10.581   5.292   4.468 -1.1436  0.5657 -1.0459
   36MOL0     H 4805  10.675   5.291   4.680 -0.8543  1.5597  2.5508
   36MOL0     H 4806  10.522   5.293   4.769 -0.9411 -1.1415  0.4463
   36MOL0     H 4807  10.583   5.047   4.588 -1.7029 -2.3340  1.1698
   36MOL0     H 4808  10.452   5.069   4.695 -0.5589 -0.7395 -0.0687
   36MOL0     H 4809  10.736   5.084   4.813  0.8697 -1.1423 -1.7705
   36MOL0     H 4810  10.580   5.042   4.891 -0.5677 -2.0822  0.0677
   36MOL0     H 4811  10.525   4.789   4.871  0.5356  0.7786  0.8366
   36MOL0     H 4812  10.711   4.478   4.711  0.6713 -0.6551  1.5428
   36MOL0     H 4813  10.655   4.500   4.884  1.8681 -2.1785 -1.0822
   36MOL0     H 4814  10.425   4.574   4.759 -1.8402 -2.3768  0.1727
   36MOL0     H 4815  10.496   4.534   4.609  1.5877 -0.3459 -0.5836
   36MOL0     H 4816  10.365   4.346   4.664 -0.4668 -0.9836 -0.5050
   36MOL0     H 4817  10.448   4.318   4.819 -0.9120  1.5949  0.5105
   36MOL0     H 4818  10.522   4.169   4.688 -0.1230  0.0011  1.3586
   36MOL0     H 4819  10.660   4.278   4.695  0.2418 -3.8416  0.7501
   36MOL0     H 4820  10.737   4.129   4.391  0.6107 -0.5780  2.0363
   36MOL0     H 4821  10.678   3.945   4.227 -1.1442 -2.5464 -0.6341
   36MOL0     H 4822  10.599   3.855   3.922  0.2933 -1.1594  1.0245
   36MOL0     H 4823  10.552   3.761   3.701 -2.6021  2.0787  1.0575
   36MOL0     H 4824  10.389   3.606   3.522  0.8569  0.7980  1.2623
   36MOL0     H 4825  10.551   3.660   3.523 -1.4068  0.7484 -2.0511
   36MOL0     H 4826  10.518   3.542   3.317 -4.1757 -1.7624 -2.9213
   36MOL0     H 4827  10.598   3.417   3.411  0.7362  1.2634  2.1091
   36MOL0     H 4828  10.418   3.292   3.321 -0.2430  0.3918 -1.2562
   36MOL0     H 4829  10.342   3.354   3.470  0.1890 -1.2735 -0.8547
   36MOL0     H 4830  10.335   3.512   3.207  0.0931  2.7605  2.0450
   36MOL0     H 4831  10.224   3.516   3.352 -2.3513 -1.8404  0.4627
   36MOL0     H 4832  10.137   3.288   3.262 -2.0343  2.7752  2.4606
   36MOL0     H 4833  10.264   3.298   3.141  1.2110 -0.7962  3.4712
   36MOL0     H 4834  10.042   3.515   3.180  0.3789  1.1735 -1.0292
   36MOL0     H 4835  10.149   3.500   3.052 -0.0436  0.7793  2.0379
   36MOL0     H 4836   9.947   3.274   3.110  0.3006  1.0857  0.9331
   36MOL0     H 4837  10.007   3.307   2.955  3.0777 -0.0717  1.5894
   36MOL0     H 4838   9.902   3.503   2.912 -0.3386 -1.5784 -1.0996
   36MOL0     H 4839   9.791   3.372   2.947  1.7664 -1.7039 -2.3783
   36MOL0     H 4840  10.457   3.382   3.875 -0.3884 -0.3703 -0.3015
   36MOL0     H 4841  10.458   3.495   4.104  2.3625  0.4238  0.6049
   36MOL0     H 4842  10.272   3.970   4.348 -0.8467  0.7983 -0.6936
   36MOL0     H 4843  10.327   4.174   4.473 -0.4708  1.3238 -3.5624
   36MOL0     H 4844  10.085   5.655   4.021  1.3657  0.1431  0.9966
   36MOL0     H 4845  10.048   5.822   3.836 -0.5562  0.4286  1.5342
   36MOL0     H 4846  10.341   6.195   3.670 -2.0021 -1.7206 -0.0949
   36MOL0     H 4847  10.365   6.348   3.467 -1.9971  1.4946 -4.0423
   36MOL0     H 4848  10.120   6.612   3.464  2.4999  4.0768 -0.6759
   36MOL0     H 4849  10.030   6.576   3.309 -1.2762 -1.6015  3.3806
   36MOL0     H 4850  10.123   6.780   3.273 -0.5411  0.0406 -1.6789
   36MOL0     H 4851  10.233   6.671   3.189  2.4614  2.9317 -0.7918
   36MOL0     H 4852  10.392   6.671   3.375  0.2590 -0.5903 -1.1504
   36MOL0     H 4853  10.290   6.793   3.465  3.1146  0.3659  0.7457
   36MOL0     H 4854  10.414   6.843   3.188 -1.6594  1.5854 -0.8974
   36MOL0     H 4855  10.313   6.956   3.280 -1.6942 -2.3286  3.6207
   36MOL0     H 4856  10.713   7.021   3.404  1.2697  0.0483  0.6685
   36MOL0     H 4857   9.949   6.387   3.424  0.2881  4.1062  0.7694
   36MOL0     H 4858   9.808   6.258   3.533 -0.6862  1.0690  1.2626
   36MOL0     H 4859   9.854   6.122   3.641  1.2211  0.6148  2.4514
   36MOL0     H 4860   9.830   6.292   3.702 -0.5214 -1.7216  0.8919
   37MOL0     O 4861   0.667   2.969   2.280  0.3558 -1.0203 -0.1095
   37MOL0     C 4862   0.703   3.048   2.185  0.1248  0.8185 -0.5733
   37MOL0     O 4863   0.721   3.019   2.054 -0.5109  0.4949  0.2454
   37MOL0     C 4864   0.671   2.894   2.013  0.1804 -0.4547 -0.2688
   37MOL0     C 4865   0.686   2.774   2.089 -0.5673  0.1326 -0.8244
   37MOL0     C 4866   0.610   2.665   2.054  0.3952  0.4625  0.6027
   37MOL0     C 4867   0.540   2.669   1.933  0.5362 -0.2256  0.1097
   37MOL0     O 4868   0.484   2.553   1.893  0.2286 -0.5295  0.3600
   37MOL0     C 4869   0.540   2.517   1.767 -0.3901 -0.2379 -0.4671
   37MOL0     C 4870   0.525   2.365   1.758  0.5664 -0.2087  0.5340
   37MOL0     C 4871   0.361   2.339   1.756  0.3767  0.5621  0.1540
   37MOL0     C 4872   0.314   2.194   1.703 -0.2059  0.1739  0.0477
   37MOL0     C 4873   0.170   2.166   1.713 -0.2270 -0.0054  0.0322
   37MOL0     C 4874   0.115   2.029   1.669 -0.6495  0.0109  0.7244
   37MOL0     C 4875  -0.034   2.024   1.670 -0.0938 -0.1202 -0.3551
   37MOL0     C 4876  -0.089   1.883   1.653 -0.0899 -0.3336 -0.9595
   37MOL0     N 4877  -0.045   1.830   1.521 -0.2612 -0.9502  0.2462
   37MOL0     C 4878  -0.114   1.837   1.396 -0.2166 -0.1506 -0.6534
   37MOL0     C 4879  -0.044   1.783   1.305  0.0054  0.7763 -0.1599
   37MOL0     C 4880  -0.090   1.787   1.163 -0.3552  0.2958  0.0386
   37MOL0     C 4881   0.038   1.741   1.079  0.2174 -0.1387 -0.5847
   37MOL0     C 4882   0.031   1.760   0.926 -0.3568  0.3014  0.0314
   37MOL0     C 4883  -0.070   1.665   0.869  0.2783 -0.3828  0.0564
   37MOL0     O 4884  -0.203   1.699   0.903 -0.6578 -0.4857 -0.2761
   37MOL0     C 4885  -0.289   1.624   0.839  0.2225  0.0263 -1.2825
   37MOL0     C 4886  -0.413   1.686   0.837 -0.2541  0.2163 -1.0794
   37MOL0     C 4887  -0.523   1.637   0.772 -0.0972 -0.8899  0.1582
   37MOL0     C 4888  -0.514   1.512   0.712  0.2338 -0.0024 -0.5664
   37MOL0     C 4889  -0.637   1.451   0.654 -0.6421 -0.4306  0.6451
   37MOL0     O 4890  -0.751   1.537   0.636  0.2273  0.2935 -0.3109
   37MOL0     C 4891  -0.859   1.480   0.591 -0.2377  0.6759 -0.3688
   37MOL0     C 4892  -0.861   1.431   0.463  0.1364 -0.1503 -0.3640
   37MOL0     C 4893  -0.986   1.387   0.400  0.6473 -0.3318 -0.0156
   37MOL0     C 4894  -1.108   1.407   0.462  0.2725  0.2472 -0.4946
   37MOL0     O 4895  -1.227   1.357   0.416 -0.7955 -1.0662 -0.0497
   37MOL0     C 4896  -1.349   1.430   0.448  0.1448  0.8831  0.9657
   37MOL0     C 4897  -1.471   1.365   0.374 -0.1789  0.5880 -0.0888
   37MOL0     C 4898  -1.494   1.217   0.392 -0.0846  0.4840  0.5262
   37MOL0     C 4899  -1.426   1.141   0.274  0.3801  0.2712 -0.2731
   37MOL0     C 4900  -1.454   0.996   0.292 -0.3993  0.8159 -1.0216
   37MOL0     C 4901  -1.369   0.906   0.199  0.4193  0.0425 -0.2098
   37MOL0     C 4902  -1.223   0.903   0.222 -0.2191  0.7152 -0.0214
   37MOL0     C 4903  -1.191   0.844   0.369 -0.3481 -0.4811  0.0593
   37MOL0    Cl 4904  -1.021   0.806   0.379  0.3845  0.8350 -0.6724
   37MOL0     C 4905  -1.107   1.468   0.596 -0.4350 -0.4694 -1.2634
   37MOL0     C 4906  -0.979   1.498   0.658 -0.1005 -0.4289 -0.0155
   37MOL0     O 4907  -0.647   1.331   0.661  0.1678 -0.8178 -0.1371
   37MOL0     C 4908  -0.383   1.443   0.713 -0.0521 -0.0794  0.5157
   37MOL0     C 4909  -0.274   1.500   0.772 -1.2715  0.0517 -0.3003
   37MOL0     N 4910   0.075   1.734   1.367  0.0321  0.0048 -0.1815
   37MOL0     N 4911   0.068   1.752   1.493 -0.4654 -0.4920 -0.5708
   37MOL0     C 4912   0.535   2.778   1.858  0.4276  0.0194 -0.5560
   37MOL0     C 4913   0.588   2.894   1.899  0.6129 -1.0118  0.6358
   37MOL0     C 4914   0.729   3.193   2.214  0.3997  0.8062 -0.1122
   37MOL0     C 4915   0.805   3.265   2.123  0.6837  0.1550  0.8687
   37MOL0     C 4916   0.855   3.392   2.143 -0.2133  0.1187 -0.2295
   37MOL0     C 4917   0.811   3.456   2.261  0.5387 -0.5400 -0.4238
   37MOL0     O 4918   0.848   3.584   2.290 -0.3547 -0.7760 -0.3197
   37MOL0     C 4919   0.905   3.675   2.190  0.8937 -0.6323  0.9168
   37MOL0     C 4920   1.056   3.692   2.191 -1.1648 -0.3708 -0.1435
   37MOL0     C 4921   1.103   3.736   2.334  0.3103  0.0404 -1.0159
   37MOL0     C 4922   1.085   3.629   2.444 -0.6048  0.1241 -0.4665
   37MOL0     C 4923   1.158   3.513   2.402  0.1680 -0.8412  0.7052
   37MOL0     C 4924   1.205   3.415   2.352  0.4894  0.5702 -0.5703
   37MOL0     C 4925   0.737   3.394   2.354  0.3419  0.2420  0.8591
   37MOL0     C 4926   0.693   3.260   2.333  0.3872 -0.3217 -0.9210
   37MOL0     C 4927   0.620   3.202   2.460 -0.2276 -0.7694  0.4983
   37MOL0     H 4928   0.747   2.767   2.178  0.7385 -4.1807 -1.8191
   37MOL0     H 4929   0.589   2.591   2.130 -2.5282  1.4800  0.9103
   37MOL0     H 4930   0.498   2.573   1.683  1.1235  0.3329 -0.8798
   37MOL0     H 4931   0.648   2.532   1.764 -0.6772  2.2702 -0.0558
   37MOL0     H 4932   0.566   2.308   1.842 -0.6017 -3.3938 -0.9189
   37MOL0     H 4933   0.571   2.333   1.664 -0.1800  0.8252 -0.2091
   37MOL0     H 4934   0.317   2.409   1.685 -0.1712 -0.8660 -0.9652
   37MOL0     H 4935   0.323   2.345   1.858  0.3058 -0.3491  0.1869
   37MOL0     H 4936   0.344   2.185   1.598  2.1504  1.2510  0.5505
   37MOL0     H 4937   0.364   2.113   1.758  1.0441 -0.3350 -1.7500
   37MOL0     H 4938   0.136   2.169   1.817 -1.3378  0.8694 -0.3371
   37MOL0     H 4939   0.132   2.247   1.651  0.2646  1.5903  1.7389
   37MOL0     H 4940   0.154   2.011   1.569  1.8936  0.4193  1.5466
   37MOL0     H 4941   0.159   1.952   1.734 -0.0631  1.7948  2.5693
   37MOL0     H 4942  -0.076   2.084   1.588 -2.3764  2.9273  2.7527
   37MOL0     H 4943  -0.068   2.070   1.763  0.7007 -0.1167 -0.0601
   37MOL0     H 4944  -0.048   1.815   1.729 -1.6249 -1.1838 -0.8388
   37MOL0     H 4945  -0.198   1.879   1.668 -0.0739  0.9410 -0.3438
   37MOL0     H 4946  -0.205   1.892   1.379 -0.4679 -0.7058 -1.1617
   37MOL0     H 4947  -0.178   1.722   1.163 -0.7482  0.7627  2.1886
   37MOL0     H 4948  -0.117   1.891   1.142  1.0775  0.9223  1.0934
   37MOL0     H 4949   0.119   1.797   1.126 -1.3546  0.3300  1.7727
   37MOL0     H 4950   0.051   1.634   1.096  0.4892 -0.0654 -0.3167
   37MOL0     H 4951   0.130   1.741   0.884  0.0322 -2.6990  2.0053
   37MOL0     H 4952   0.005   1.861   0.893  3.2566  1.3216 -0.1348
   37MOL0     H 4953  -0.045   1.561   0.895 -1.4498 -1.3277 -1.7851
   37MOL0     H 4954  -0.061   1.683   0.762 -0.2223  1.5115  0.2945
   37MOL0     H 4955  -0.427   1.776   0.895  1.4858  1.3276 -2.3006
   37MOL0     H 4956  -0.620   1.686   0.775 -0.0505 -0.7984  0.1706
   37MOL0     H 4957  -0.764   1.430   0.413  1.2569  2.6922  1.5052
   37MOL0     H 4958  -0.990   1.349   0.298 -0.5958  1.3391 -0.6293
   37MOL0     H 4959  -1.371   1.440   0.555  2.3076  0.6937  1.4736
   37MOL0     H 4960  -1.343   1.531   0.407 -2.0730  0.5676 -0.3116
   37MOL0     H 4961  -1.560   1.414   0.417  0.1566 -0.6008  2.1149
   37MOL0     H 4962  -1.455   1.373   0.266  0.2337  0.8796 -0.0048
   37MOL0     H 4963  -1.461   1.196   0.494  2.6647  1.2850 -0.1107
   37MOL0     H 4964  -1.601   1.195   0.386 -0.1842  1.1120 -4.2062
   37MOL0     H 4965  -1.318   1.157   0.278  0.5920 -1.0008 -0.2974
   37MOL0     H 4966  -1.462   1.167   0.175 -0.3025  2.1353  0.4230
   37MOL0     H 4967  -1.559   0.978   0.265 -1.3548  3.4000  0.5806
   37MOL0     H 4968  -1.457   0.965   0.397 -0.3100  2.2019 -0.5995
   37MOL0     H 4969  -1.426   0.813   0.202 -1.5283  0.9388 -3.8743
   37MOL0     H 4970  -1.379   0.937   0.094  1.4978  0.0588 -0.3188
   37MOL0     H 4971  -1.173   0.997   0.195  1.1996 -0.3487 -1.3035
   37MOL0     H 4972  -1.186   0.827   0.152 -1.9427  0.4465 -0.6852
   37MOL0     H 4973  -1.217   0.932   0.429  1.5528  3.9704 -4.9235
   37MOL0     H 4974  -1.248   0.753   0.394  0.0902  0.2112  4.2663
   37MOL0     H 4975  -1.199   1.509   0.638  0.4917 -0.6231  1.0600
   37MOL0     H 4976  -0.975   1.539   0.759 -0.9115 -2.0665  0.7074
   37MOL0     H 4977  -0.362   1.346   0.671 -3.9986 -1.8888  2.2229
   37MOL0     H 4978  -0.183   1.442   0.785  0.3434  2.5109  0.1614
   37MOL0     H 4979   0.478   2.768   1.766 -1.4028 -4.1485  0.7628
   37MOL0     H 4980   0.570   2.987   1.847 -0.9485 -1.8609 -0.4170
   37MOL0     H 4981   0.845   3.218   2.034  0.8255  0.8059  0.5822
   37MOL0     H 4982   0.920   3.429   2.065 -0.2892  1.2440  0.2174
   37MOL0     H 4983   0.860   3.774   2.206  2.4004  0.8454 -2.9990
   37MOL0     H 4984   0.877   3.648   2.088  1.0780  1.5929  0.2182
   37MOL0     H 4985   1.098   3.763   2.120 -0.3657 -0.7981 -0.1105
   37MOL0     H 4986   1.088   3.592   2.160 -2.7513 -1.1129  0.4898
   37MOL0     H 4987   1.057   3.829   2.371  1.7491 -0.0316  1.1177
   37MOL0     H 4988   1.211   3.752   2.323  0.6548 -2.2405 -1.2779
   37MOL0     H 4989   1.121   3.658   2.543 -1.2158 -1.8601  0.3953
   37MOL0     H 4990   0.983   3.602   2.474 -0.2727  0.2756  0.8473
   37MOL0     H 4991   1.256   3.333   2.307  1.9991  1.5283 -0.7133
   37MOL0     H 4992   0.712   3.457   2.438  2.4795  0.8674  1.0951
   37MOL0     H 4993   0.534   3.268   2.469  0.9769  1.4146 -2.4137
   37MOL0     H 4994   0.600   3.094   2.458 -0.6355 -0.6911 -0.7985
   37MOL0     H 4995   0.691   3.209   2.543 -0.4450 -2.7987  0.9072
   38MOL0     O 4996   0.608   0.055   6.556  0.0859  0.3168  0.2318
   38MOL0     C 4997   0.606  -0.070   6.556  0.7102 -0.2273 -0.1374
   38MOL0     O 4998   0.682  -0.154   6.470  0.8629 -0.6935  0.1252
   38MOL0     C 4999   0.767  -0.081   6.397 -0.4904 -1.5046  0.2708
   38MOL0     C 5000   0.889  -0.021   6.447 -0.3587  0.4976 -0.6367
   38MOL0     C 5001   0.987   0.048   6.371  0.1226  0.5610 -0.1079
   38MOL0     C 5002   0.963   0.064   6.235 -0.0846  0.8028 -1.1022
   38MOL0     O 5003   1.058   0.129   6.168 -0.0664 -0.3507 -0.0518
   38MOL0     C 5004   1.033   0.178   6.040  0.2803  0.0857 -0.0707
   38MOL0     C 5005   1.162   0.268   6.012 -0.3359 -0.5228 -0.2699
   38MOL0     C 5006   1.133   0.330   5.869 -0.2702 -0.2387  0.1477
   38MOL0     C 5007   1.264   0.411   5.835  0.5708  0.6343  0.4011
   38MOL0     C 5008   1.260   0.475   5.691 -0.7136  0.4312 -0.3991
   38MOL0     C 5009   1.386   0.553   5.685 -0.3031 -1.1572 -0.0140
   38MOL0     C 5010   1.401   0.599   5.529 -0.9181  0.4604 -0.2421
   38MOL0     C 5011   1.541   0.662   5.518  0.7085  0.4234 -0.3167
   38MOL0     N 5012   1.578   0.691   5.385 -0.1182 -0.1894 -0.0873
   38MOL0     C 5013   1.508   0.756   5.292  0.8587  0.4184  0.9065
   38MOL0     C 5014   1.586   0.766   5.188  0.5741 -0.2619  0.3993
   38MOL0     C 5015   1.563   0.826   5.050 -0.2947  0.2400 -0.2274
   38MOL0     C 5016   1.522   0.732   4.946 -0.3279 -0.1145 -0.2888
   38MOL0     C 5017   1.405   0.641   4.982  0.3956  0.4513  0.7460
   38MOL0     C 5018   1.272   0.707   5.044 -0.1065  0.0172 -0.2132
   38MOL0     O 5019   1.183   0.597   5.042  0.0660 -0.1724  0.0825
   38MOL0     C 5020   1.120   0.568   5.161  0.2948 -0.7044 -0.8360
   38MOL0     C 5021   1.075   0.661   5.251 -0.5460  0.5146  0.8285
   38MOL0     C 5022   1.010   0.630   5.372 -0.0265  1.2090 -0.2198
   38MOL0     C 5023   0.981   0.493   5.399  0.3115 -0.1883  0.0255
   38MOL0     C 5024   0.923   0.455   5.528  0.0599  1.0528 -0.1170
   38MOL0     O 5025   0.901   0.312   5.544  0.1329 -0.1444 -0.5530
   38MOL0     C 5026   0.812   0.276   5.646  0.1161  0.8245 -0.4327
   38MOL0     C 5027   0.831   0.159   5.720  0.2985  0.9193  0.5922
   38MOL0     C 5028   0.742   0.102   5.813  0.0247 -0.3725  0.7525
   38MOL0     C 5029   0.622   0.169   5.835  0.5422  0.2361 -0.0188
   38MOL0     O 5030   0.527   0.119   5.919 -0.4056  0.5079 -0.5887
   38MOL0     C 5031   0.425   0.208   5.958  1.0880 -0.3023 -1.3974
   38MOL0     C 5032   0.331   0.154   6.069 -0.4277 -0.0395  0.3008
   38MOL0     C 5033   0.404   0.117   6.202 -0.0373  0.0899 -0.1154
   38MOL0     C 5034   0.291   0.058   6.298  0.0832  0.2843 -0.3288
   38MOL0     C 5035   0.220   0.175   6.362  0.5880 -0.2250 -0.2230
   38MOL0     C 5036   0.124   0.127   6.479 -0.2353  0.4071 -0.8118
   38MOL0     C 5037   0.179   0.025   6.589 -0.3647  0.5219  0.6025
   38MOL0     C 5038   0.114   0.039   6.719  0.9927 -0.3419 -0.0627
   38MOL0    Cl 5039   0.178   0.161   6.842  0.0478  0.0835  0.1576
   38MOL0     C 5040   0.596   0.290   5.752  0.2526 -0.3848  0.0623
   38MOL0     C 5041   0.690   0.338   5.656  0.1896  0.3831  0.0200
   38MOL0     O 5042   0.891   0.549   5.602  0.6772  0.5583  0.4421
   38MOL0     C 5043   1.020   0.396   5.305 -0.5741  0.1831  0.8597
   38MOL0     C 5044   1.085   0.435   5.184  0.0040  0.1181  0.0786
   38MOL0     N 5045   1.715   0.708   5.215  0.3645  0.3979  0.3332
   38MOL0     N 5046   1.707   0.673   5.336 -0.0328 -0.0930 -0.1569
   38MOL0     C 5047   0.844   0.004   6.185 -0.3889  0.3494  0.8176
   38MOL0     C 5048   0.755  -0.070   6.261  0.1733  0.3743  0.3570
   38MOL0     C 5049   0.514  -0.143   6.647  0.7236 -0.2201 -0.4682
   38MOL0     C 5050   0.486  -0.086   6.774 -0.4605 -0.7729  0.2552
   38MOL0     C 5051   0.405  -0.145   6.867  0.3845 -0.9755 -0.9916
   38MOL0     C 5052   0.362  -0.273   6.843  0.8048  0.0088  0.4025
   38MOL0     O 5053   0.306  -0.351   6.939 -0.0934  0.2337  0.5653
   38MOL0     C 5054   0.285  -0.485   6.921 -0.1736  0.4136 -0.0222
   38MOL0     C 5055   0.247  -0.556   7.053 -0.5864 -0.7776 -0.2364
   38MOL0     C 5056   0.244  -0.714   7.031  0.0144 -0.6544 -0.0813
   38MOL0     C 5057   0.127  -0.761   6.944  0.2495 -0.1118 -0.3543
   38MOL0     C 5058   0.109  -0.904   6.950 -0.3617  0.2510 -0.0336
   38MOL0     C 5059   0.089  -1.019   6.957  0.7272 -0.1973 -0.0626
   38MOL0     C 5060   0.371  -0.324   6.706 -0.3393 -0.5071  0.6973
   38MOL0     C 5061   0.458  -0.263   6.611  0.5377 -0.4468 -0.4842
   38MOL0     C 5062   0.466  -0.328   6.475  0.0188  0.9504 -0.0394
   38MOL0     H 5063   0.911  -0.039   6.551  2.4261  1.4938 -0.9718
   38MOL0     H 5064   1.081   0.075   6.418 -0.1168  0.9415  0.1553
   38MOL0     H 5065   1.024   0.094   5.972 -0.4279 -1.4827  1.8524
   38MOL0     H 5066   0.937   0.231   6.044 -1.1371 -2.1775 -1.8759
   38MOL0     H 5067   1.252   0.206   6.003  0.8237  1.1828 -0.8802
   38MOL0     H 5068   1.185   0.345   6.086  2.2099 -1.4057 -0.0512
   38MOL0     H 5069   1.045   0.395   5.866  0.8455  1.5075 -4.7990
   38MOL0     H 5070   1.118   0.247   5.800  1.7517 -0.7551  0.2743
   38MOL0     H 5071   1.287   0.486   5.911 -1.6709  1.7624  0.0401
   38MOL0     H 5072   1.354   0.349   5.831  0.7781  0.9382  0.3063
   38MOL0     H 5073   1.254   0.397   5.615 -0.5769 -2.7435  2.6081
   38MOL0     H 5074   1.174   0.541   5.674 -0.5377  1.1097  1.1445
   38MOL0     H 5075   1.396   0.643   5.746  1.8433 -2.9264  2.4632
   38MOL0     H 5076   1.474   0.496   5.715 -0.1032 -0.7713  0.1380
   38MOL0     H 5077   1.326   0.668   5.490  1.6371  1.1131 -4.6940
   38MOL0     H 5078   1.396   0.511   5.464  2.3571 -0.7589  0.9277
   38MOL0     H 5079   1.538   0.743   5.592 -0.4152 -1.9529  2.4230
   38MOL0     H 5080   1.617   0.591   5.551  1.3809  0.8826 -0.8342
   38MOL0     H 5081   1.411   0.802   5.312  0.2333 -0.4963  0.0584
   38MOL0     H 5082   1.480   0.893   5.076 -0.2836 -0.2460  1.1399
   38MOL0     H 5083   1.650   0.884   5.015 -0.6541  0.9711  0.0668
   38MOL0     H 5084   1.498   0.784   4.852 -0.2776 -0.1181 -0.3041
   38MOL0     H 5085   1.609   0.677   4.910 -1.0551  0.1004 -2.5653
   38MOL0     H 5086   1.442   0.560   5.046 -0.8722 -1.8450 -1.2246
   38MOL0     H 5087   1.381   0.588   4.889  1.9964  1.1024 -0.0726
   38MOL0     H 5088   1.233   0.795   4.992 -1.2173 -0.1838  0.2627
   38MOL0     H 5089   1.297   0.745   5.143 -1.1728  0.3111 -0.0433
   38MOL0     H 5090   1.092   0.767   5.241 -0.0096  0.6376  2.6870
   38MOL0     H 5091   0.971   0.712   5.432 -3.0843 -0.4579  0.2434
   38MOL0     H 5092   0.930   0.113   5.722 -0.7980 -1.5720  0.5734
   38MOL0     H 5093   0.765   0.006   5.859 -3.0316 -2.1467 -1.0707
   38MOL0     H 5094   0.465   0.301   5.999 -2.2542  0.6101  0.1564
   38MOL0     H 5095   0.362   0.232   5.872 -1.2407 -1.4113 -0.1204
   38MOL0     H 5096   0.257   0.234   6.082 -1.2234 -0.1041 -2.8932
   38MOL0     H 5097   0.284   0.061   6.034 -1.4842  1.2392 -1.8919
   38MOL0     H 5098   0.476   0.037   6.184 -0.6537 -0.7383  0.9369
   38MOL0     H 5099   0.454   0.204   6.245  0.6290  0.4628 -1.6029
   38MOL0     H 5100   0.334  -0.003   6.378  0.1577 -1.4391 -1.6150
   38MOL0     H 5101   0.225  -0.005   6.238  3.6413 -2.2593 -1.9926
   38MOL0     H 5102   0.156   0.223   6.287  1.2067 -2.3380 -2.1984
   38MOL0     H 5103   0.289   0.246   6.409 -1.7051  0.3379  2.6447
   38MOL0     H 5104   0.073   0.208   6.532 -1.3477  0.1342 -1.4321
   38MOL0     H 5105   0.042   0.072   6.432 -0.7961  0.7624 -0.2729
   38MOL0     H 5106   0.287   0.030   6.606  0.7459 -3.9769 -3.0673
   38MOL0     H 5107   0.173  -0.078   6.551  2.0882  0.8713 -0.9950
   38MOL0     H 5108   0.010   0.067   6.704  1.1744  1.1648  1.2653
   38MOL0     H 5109   0.119  -0.058   6.769  4.4525 -0.4834 -0.4451
   38MOL0     H 5110   0.504   0.348   5.752 -1.3713 -2.7807  1.5671
   38MOL0     H 5111   0.669   0.428   5.599 -0.3933 -1.6807 -3.2926
   38MOL0     H 5112   1.010   0.289   5.314 -1.2513  0.3913  2.9515
   38MOL0     H 5113   1.107   0.353   5.116  0.5160 -1.0205  1.5500
   38MOL0     H 5114   0.838   0.005   6.076  3.3658  2.5222  0.4436
   38MOL0     H 5115   0.671  -0.114   6.207 -0.3509 -1.1705  2.2969
   38MOL0     H 5116   0.525   0.015   6.786 -2.5637  0.5397 -2.7046
   38MOL0     H 5117   0.392  -0.113   6.970 -1.0917 -2.8479 -0.5401
   38MOL0     H 5118   0.387  -0.516   6.897  0.0385  1.1815 -0.1214
   38MOL0     H 5119   0.215  -0.516   6.844 -2.0136  0.1620  1.6596
   38MOL0     H 5120   0.151  -0.514   7.085 -0.8662 -2.0090  0.6033
   38MOL0     H 5121   0.310  -0.534   7.139 -0.4465 -0.8036 -0.3312
   38MOL0     H 5122   0.239  -0.770   7.124 -1.5005 -3.4172 -1.7008
   38MOL0     H 5123   0.341  -0.744   6.990 -0.7834 -2.8112 -0.5286
   38MOL0     H 5124   0.028  -0.733   6.982 -0.4778  0.2961 -2.3989
   38MOL0     H 5125   0.137  -0.721   6.842 -5.0176 -0.0575 -1.1170
   38MOL0     H 5126   0.066  -1.124   6.965  2.1772 -0.7327 -2.1608
   38MOL0     H 5127   0.327  -0.418   6.672  2.3169 -1.8885  0.8002
   38MOL0     H 5128   0.447  -0.270   6.384 -3.0845 -2.3935 -1.7661
   38MOL0     H 5129   0.559  -0.378   6.451  0.2307 -0.1278  2.7012
   38MOL0     H 5130   0.388  -0.404   6.467  1.8468 -1.3505  2.3143
   39MOL0     O 5131   6.258   3.587   5.204 -0.0105 -0.1709  0.0851
   39MOL0     C 5132   6.172   3.626   5.130  0.3774  0.2474  0.0532
   39MOL0     O 5133   6.110   3.745   5.142 -0.0099  0.3582 -0.0924
   39MOL0     C 5134   6.141   3.831   5.243 -0.5713 -0.0725  0.1664
   39MOL0     C 5135   6.133   3.808   5.381  1.2444  0.2226  0.5824
   39MOL0     C 5136   6.168   3.898   5.477 -0.0505 -0.6792  0.6552
   39MOL0     C 5137   6.208   4.029   5.437 -1.1226  0.1829  1.1722
   39MOL0     O 5138   6.254   4.114   5.533  0.1811  0.9209 -0.4864
   39MOL0     C 5139   6.223   4.256   5.524  0.6663  1.5223 -0.0043
   39MOL0     C 5140   6.220   4.318   5.674  0.0768  0.7390  0.2902
   39MOL0     C 5141   6.337   4.264   5.752  0.3414  0.0942 -0.6318
   39MOL0     C 5142   6.469   4.341   5.709 -0.3545  0.1972  0.7695
   39MOL0     C 5143   6.588   4.253   5.751  0.2240 -0.4114 -0.1267
   39MOL0     C 5144   6.727   4.334   5.741  0.1910  0.4589 -0.0871
   39MOL0     C 5145   6.849   4.253   5.797  0.5882  1.0348 -0.0782
   39MOL0     C 5146   6.843   4.191   5.940 -0.5638  0.7336  0.2313
   39MOL0     N 5147   6.979   4.155   5.971 -0.0183  0.3722 -0.7525
   39MOL0     C 5148   7.055   4.213   6.079  1.2500  0.4068 -0.5346
   39MOL0     C 5149   7.176   4.159   6.069 -0.1445 -0.0655  0.3804
   39MOL0     C 5150   7.279   4.184   6.160 -0.7163 -1.0136 -0.4436
   39MOL0     C 5151   7.392   4.075   6.144 -0.1823  0.1444  0.2930
   39MOL0     C 5152   7.510   4.099   6.244  0.4292 -0.5251 -0.1074
   39MOL0     C 5153   7.631   4.183   6.194 -0.1953 -0.4424  0.1728
   39MOL0     O 5154   7.596   4.317   6.202  0.0726 -0.3756  0.4163
   39MOL0     C 5155   7.686   4.419   6.225  0.1075 -0.3213 -0.0927
   39MOL0     C 5156   7.637   4.547   6.252  0.1207 -0.6060 -0.1041
   39MOL0     C 5157   7.722   4.662   6.259 -0.8372 -0.5307  0.5587
   39MOL0     C 5158   7.857   4.649   6.227 -0.5023  0.4928  0.4333
   39MOL0     C 5159   7.940   4.777   6.218  0.4713 -0.3632 -0.1445
   39MOL0     O 5160   8.079   4.751   6.198  0.5794 -1.3238  0.1978
   39MOL0     C 5161   8.159   4.867   6.169 -0.8171  0.9261  0.5208
   39MOL0     C 5162   8.158   4.979   6.246  0.3124 -0.1295  0.2073
   39MOL0     C 5163   8.240   5.091   6.222  0.3434  0.9658 -0.3167
   39MOL0     C 5164   8.336   5.082   6.123  0.3805  0.3566  0.8243
   39MOL0     O 5165   8.419   5.188   6.083 -0.1156 -0.2661  0.7755
   39MOL0     C 5166   8.381   5.314   6.120 -0.3076  0.6985 -0.0826
   39MOL0     C 5167   8.453   5.371   6.246  1.2266  0.0875  0.4436
   39MOL0     C 5168   8.599   5.361   6.245  0.5075 -0.0443  0.1609
   39MOL0     C 5169   8.653   5.446   6.368 -0.3019 -0.4743 -0.0125
   39MOL0     C 5170   8.806   5.457   6.376 -0.6565 -0.0931  0.7672
   39MOL0     C 5171   8.852   5.566   6.480 -0.2569  0.3538 -0.4061
   39MOL0     C 5172   8.796   5.530   6.615 -0.0410  0.0436 -0.0437
   39MOL0     C 5173   8.847   5.637   6.705  0.3993  0.0327  0.4398
   39MOL0    Cl 5174   8.791   5.624   6.876 -0.0123  0.0573  0.1325
   39MOL0     C 5175   8.350   4.966   6.053  0.1988 -0.4674  0.8231
   39MOL0     C 5176   8.265   4.853   6.071 -1.0130 -0.0405 -0.4063
   39MOL0     O 5177   7.882   4.881   6.224 -0.1781 -0.6097  0.2210
   39MOL0     C 5178   7.910   4.519   6.208 -0.8555 -0.3044  0.2373
   39MOL0     C 5179   7.827   4.408   6.204 -0.9865  0.0114 -0.5161
   39MOL0     N 5180   7.179   4.084   5.958  0.5881 -0.0579  0.1150
   39MOL0     N 5181   7.064   4.072   5.904  0.7880 -0.4691 -0.1110
   39MOL0     C 5182   6.212   4.054   5.300 -0.5467  0.4104 -0.2747
   39MOL0     C 5183   6.185   3.954   5.202 -0.1534 -0.8000  0.5857
   39MOL0     C 5184   6.145   3.549   5.001  0.1006  0.8595  1.0909
   39MOL0     C 5185   6.085   3.615   4.893 -0.6690 -0.5467 -0.4893
   39MOL0     C 5186   6.047   3.551   4.774 -0.3816  0.0455 -0.5998
   39MOL0     C 5187   6.084   3.415   4.752  0.0579  0.7371 -0.0615
   39MOL0     O 5188   6.067   3.346   4.637  0.5335 -0.4694  0.3245
   39MOL0     C 5189   6.094   3.215   4.607 -0.0174 -0.6898 -0.3992
   39MOL0     C 5190   6.010   3.126   4.694 -0.0305  0.9377 -1.0192
   39MOL0     C 5191   5.857   3.156   4.693  0.6354 -0.6650  0.0567
   39MOL0     C 5192   5.768   3.060   4.769 -0.7213  0.3553 -0.3240
   39MOL0     C 5193   5.638   3.043   4.708 -0.3522 -0.0147  0.2767
   39MOL0     C 5194   5.514   3.032   4.690  0.3636 -0.1076 -0.1721
   39MOL0     C 5195   6.173   3.359   4.855  0.6925 -0.5662  0.9747
   39MOL0     C 5196   6.194   3.419   4.979 -0.2833  0.0767 -0.6450
   39MOL0     C 5197   6.259   3.325   5.083 -0.0756  0.5785 -0.3117
   39MOL0     H 5198   6.105   3.708   5.411 -0.6794 -0.2637 -2.4826
   39MOL0     H 5199   6.164   3.887   5.585 -1.8919  1.7706  0.9238
   39MOL0     H 5200   6.298   4.300   5.457 -0.1978  0.9793 -1.3780
   39MOL0     H 5201   6.131   4.273   5.468  0.1832  3.8710  1.3415
   39MOL0     H 5202   6.132   4.266   5.711  1.4529 -2.4693 -0.6395
   39MOL0     H 5203   6.205   4.427   5.674 -1.6515  0.5242  0.2689
   39MOL0     H 5204   6.350   4.156   5.742 -0.0235  0.1209 -1.4899
   39MOL0     H 5205   6.325   4.276   5.860 -1.9693  1.3019 -0.9749
   39MOL0     H 5206   6.486   4.355   5.602  0.2119 -1.4971  0.6060
   39MOL0     H 5207   6.466   4.434   5.766  1.7062  1.0920 -0.4562
   39MOL0     H 5208   6.582   4.230   5.858 -0.6213  0.1890 -0.0309
   39MOL0     H 5209   6.594   4.168   5.684 -4.4345 -0.4957 -0.7883
   39MOL0     H 5210   6.737   4.359   5.634  1.2804 -1.8512 -0.5919
   39MOL0     H 5211   6.726   4.425   5.800  0.1671 -1.0520  2.3703
   39MOL0     H 5212   6.938   4.314   5.780 -0.3264  2.2333 -0.7952
   39MOL0     H 5213   6.869   4.160   5.743 -1.6265  1.1881 -1.2863
   39MOL0     H 5214   6.815   4.269   6.011 -0.2822  0.7986  0.2749
   39MOL0     H 5215   6.771   4.109   5.952 -1.6099  2.0396  4.1799
   39MOL0     H 5216   7.010   4.275   6.156  2.4258  2.0628 -1.1284
   39MOL0     H 5217   7.319   4.282   6.131 -0.0205 -1.9486 -2.9456
   39MOL0     H 5218   7.252   4.189   6.266  0.1409  1.8300 -0.2669
   39MOL0     H 5219   7.339   3.980   6.161  1.2266 -0.5380  1.0051
   39MOL0     H 5220   7.419   4.063   6.039 -4.5742 -1.2681 -0.8937
   39MOL0     H 5221   7.539   3.995   6.258  0.1877 -0.2136  3.9124
   39MOL0     H 5222   7.476   4.140   6.340  2.7015  1.8574 -0.1946
   39MOL0     H 5223   7.672   4.158   6.095  0.4870 -0.1529  0.3796
   39MOL0     H 5224   7.708   4.174   6.271  0.7873  0.0204 -0.7302
   39MOL0     H 5225   7.530   4.559   6.260 -0.1260 -2.7284  0.4935
   39MOL0     H 5226   7.686   4.765   6.257  3.4825  1.2896 -3.8498
   39MOL0     H 5227   8.087   4.998   6.327 -1.4698 -1.2808 -0.9978
   39MOL0     H 5228   8.213   5.170   6.291 -0.2546  0.4327  0.0743
   39MOL0     H 5229   8.401   5.371   6.030 -1.5132 -0.7140 -1.3039
   39MOL0     H 5230   8.272   5.320   6.123 -0.5940 -1.7007 -2.2605
   39MOL0     H 5231   8.414   5.472   6.259 -0.4689 -0.0243 -2.6656
   39MOL0     H 5232   8.426   5.307   6.331 -0.3884  0.4809  0.2709
   39MOL0     H 5233   8.627   5.255   6.242  0.6779 -0.0243  0.9395
   39MOL0     H 5234   8.642   5.411   6.157  0.1285 -1.4456 -0.8553
   39MOL0     H 5235   8.609   5.418   6.464  2.4656  1.9282  2.1583
   39MOL0     H 5236   8.615   5.548   6.353 -0.5841 -0.3649  1.2713
   39MOL0     H 5237   8.839   5.488   6.276 -4.4371  2.3234  0.0693
   39MOL0     H 5238   8.854   5.361   6.399  2.2857  1.8872  3.7780
   39MOL0     H 5239   8.960   5.577   6.471 -0.4098  3.6738  0.4469
   39MOL0     H 5240   8.823   5.669   6.454  1.4370  0.9851  0.1141
   39MOL0     H 5241   8.854   5.444   6.650  0.5951  1.0432  1.4780
   39MOL0     H 5242   8.688   5.527   6.636  0.4591 -1.3655  2.8280
   39MOL0     H 5243   8.956   5.628   6.702  0.2218 -4.1224 -2.9570
   39MOL0     H 5244   8.821   5.737   6.669 -0.4372  0.4340  2.0378
   39MOL0     H 5245   8.429   4.979   5.979 -1.6111  2.7592 -0.7763
   39MOL0     H 5246   8.280   4.759   6.018  2.3377 -1.3179  2.4183
   39MOL0     H 5247   8.014   4.496   6.187 -1.2250 -0.3674 -1.8043
   39MOL0     H 5248   7.891   4.324   6.178  0.1271  0.9178 -0.7812
   39MOL0     H 5249   6.232   4.153   5.259 -1.9488  0.3544 -1.1902
   39MOL0     H 5250   6.188   3.992   5.101  1.0694 -0.1247  0.8633
   39MOL0     H 5251   6.079   3.723   4.895  3.2980 -0.2044  0.0600
   39MOL0     H 5252   6.000   3.609   4.695  0.7596 -1.6507 -2.6214
   39MOL0     H 5253   6.200   3.188   4.605  0.1575 -0.0643 -2.5744
   39MOL0     H 5254   6.073   3.205   4.500 -1.3602  2.4863 -0.5246
   39MOL0     H 5255   6.051   3.152   4.793  0.8288 -1.0841 -0.7906
   39MOL0     H 5256   6.028   3.023   4.665  0.4297  1.3984 -2.4279
   39MOL0     H 5257   5.822   3.162   4.589  1.0582 -1.8599 -0.1653
   39MOL0     H 5258   5.846   3.246   4.754 -0.8729 -2.6849  3.0216
   39MOL0     H 5259   5.816   2.962   4.777 -0.9888  0.2702  0.2555
   39MOL0     H 5260   5.754   3.104   4.868 -2.1311  0.3360 -0.4909
   39MOL0     H 5261   5.412   3.042   4.658 -0.7032 -1.4386  2.4933
   39MOL0     H 5262   6.229   3.270   4.829  2.1884  0.9410 -1.2440
   39MOL0     H 5263   6.359   3.365   5.101  0.6068 -1.6702  1.2413
   39MOL0     H 5264   6.192   3.320   5.169 -2.4681 -0.7562 -2.1393
   39MOL0     H 5265   6.264   3.224   5.042  0.1142  0.6119 -0.3720
   40MOL0     O 5266   4.680   9.330   1.051  0.3596 -0.3854  0.0010
   40MOL0     C 5267   4.662   9.394   1.157  0.3307 -0.7836  0.0131
   40MOL0     O 5268   4.764   9.435   1.236  0.0470 -0.0040 -0.8189
   40MOL0     C 5269   4.885   9.383   1.214 -0.0947  0.1956  0.1307
   40MOL0     C 5270   4.967   9.437   1.113 -0.0953 -0.0999 -0.3870
   40MOL0     C 5271   5.088   9.371   1.078 -0.2900  0.7142  0.0145
   40MOL0     C 5272   5.127   9.253   1.134 -0.6703  0.4843 -0.6481
   40MOL0     O 5273   5.228   9.180   1.090  0.7153  0.4182  0.5802
   40MOL0     C 5274   5.174   9.063   1.021 -0.2902 -0.1228 -0.7235
   40MOL0     C 5275   5.271   8.961   1.003 -0.2760  0.1989  0.3700
   40MOL0     C 5276   5.253   8.859   1.114 -1.0785 -0.6601  0.0938
   40MOL0     C 5277   5.365   8.754   1.112  0.4003  0.6999  0.6075
   40MOL0     C 5278   5.366   8.638   1.008  0.4164  0.2547 -0.7882
   40MOL0     C 5279   5.498   8.562   0.995 -0.0720 -0.8266  0.1136
   40MOL0     C 5280   5.476   8.444   0.897 -0.3113 -0.5506  0.1773
   40MOL0     C 5281   5.529   8.484   0.757  0.7310 -0.3799 -1.0030
   40MOL0     N 5282   5.492   8.391   0.650 -0.3525 -0.8269  0.4005
   40MOL0     C 5283   5.378   8.320   0.654  0.1279  0.1586  0.3575
   40MOL0     C 5284   5.359   8.267   0.523 -0.5793  0.4299 -1.2578
   40MOL0     C 5285   5.244   8.172   0.485  0.5610  1.3503  0.0958
   40MOL0     C 5286   5.122   8.244   0.429  0.2817  0.3572 -0.4122
   40MOL0     C 5287   5.098   8.207   0.285 -0.1960  0.4878  0.2310
   40MOL0     C 5288   5.204   8.262   0.200 -0.1068 -0.5269 -0.2816
   40MOL0     O 5289   5.155   8.255   0.065 -0.7157 -0.7245  0.2734
   40MOL0     C 5290   5.234   8.320  -0.026 -0.3221  0.5386 -0.0672
   40MOL0     C 5291   5.175   8.380  -0.144  0.2559  0.4125  0.4316
   40MOL0     C 5292   5.246   8.453  -0.237  0.8542  0.6786  0.8289
   40MOL0     C 5293   5.387   8.462  -0.227  0.9064  0.9993  0.8497
   40MOL0     C 5294   5.460   8.553  -0.330 -0.7129 -0.4265 -0.2511
   40MOL0     O 5295   5.586   8.598  -0.289 -0.1171 -0.4618 -0.1111
   40MOL0     C 5296   5.650   8.696  -0.361  0.0171 -0.0263  0.3803
   40MOL0     C 5297   5.703   8.804  -0.288  0.0948 -1.4048  1.0821
   40MOL0     C 5298   5.785   8.895  -0.356 -0.4032 -0.3071 -0.3723
   40MOL0     C 5299   5.837   8.861  -0.483 -0.1945  0.3225  0.0341
   40MOL0     O 5300   5.942   8.925  -0.546 -0.0762  0.0004  0.5361
   40MOL0     C 5301   5.974   9.059  -0.503 -0.6092 -1.0502  0.2263
   40MOL0     C 5302   6.102   9.125  -0.576  0.1803 -0.6216  0.9976
   40MOL0     C 5303   6.211   9.024  -0.566 -0.3717  0.1836 -0.5935
   40MOL0     C 5304   6.349   9.088  -0.587 -0.5949 -0.0602  0.0914
   40MOL0     C 5305   6.385   9.180  -0.459 -0.6224 -0.0741 -0.4393
   40MOL0     C 5306   6.540   9.207  -0.459  0.3590 -0.1240 -0.7122
   40MOL0     C 5307   6.580   9.275  -0.325 -0.2193 -0.2438 -1.4424
   40MOL0     C 5308   6.637   9.170  -0.230 -0.7902  0.4454 -0.0184
   40MOL0    Cl 5309   6.697   9.241  -0.076 -0.1260  0.1016  0.5750
   40MOL0     C 5310   5.793   8.756  -0.545  1.1412  0.0768  0.5957
   40MOL0     C 5311   5.703   8.665  -0.483  0.0173  0.8223  0.4483
   40MOL0     O 5312   5.391   8.594  -0.431  0.4920  0.3607 -0.7833
   40MOL0     C 5313   5.455   8.391  -0.126  1.2001 -0.3808  0.2396
   40MOL0     C 5314   5.376   8.322  -0.025  0.9460 -0.2826  0.5283
   40MOL0     N 5315   5.463   8.316   0.446  0.3783  0.1844 -1.0396
   40MOL0     N 5316   5.535   8.397   0.523 -0.2400 -0.3392  0.1316
   40MOL0     C 5317   5.056   9.207   1.237  0.2701  0.4462 -0.5786
   40MOL0     C 5318   4.929   9.259   1.269 -0.6327  0.1811 -0.3972
   40MOL0     C 5319   4.522   9.424   1.196 -0.9427 -0.6449  0.2750
   40MOL0     C 5320   4.415   9.390   1.107  0.6081 -1.1711  0.0074
   40MOL0     C 5321   4.282   9.420   1.138 -0.5156 -0.2371  0.7236
   40MOL0     C 5322   4.256   9.491   1.255  0.9569  0.9403 -0.2669
   40MOL0     O 5323   4.124   9.514   1.267  0.9118 -0.5012  0.6041
   40MOL0     C 5324   4.072   9.592   1.378 -0.5921  0.1827  0.1030
   40MOL0     C 5325   3.922   9.617   1.350 -0.4824 -1.0974  0.8509
   40MOL0     C 5326   3.847   9.484   1.381  0.7398  0.0350 -0.1628
   40MOL0     C 5327   3.688   9.498   1.395 -0.9370  0.1088 -0.7401
   40MOL0     C 5328   3.659   9.538   1.526  0.2213  0.0139  0.1106
   40MOL0     C 5329   3.651   9.540   1.642  0.9816 -0.0325  0.0064
   40MOL0     C 5330   4.355   9.522   1.348 -0.2735 -1.0929  1.0198
   40MOL0     C 5331   4.492   9.482   1.319  1.6590  0.1135 -0.3148
   40MOL0     C 5332   4.596   9.517   1.427  0.6139  0.6533  0.6466
   40MOL0     H 5333   4.941   9.530   1.065 -1.0248  2.2059  4.0240
   40MOL0     H 5334   5.137   9.416   0.991 -0.7366  2.8678  0.8136
   40MOL0     H 5335   5.084   9.011   1.055  0.9317 -3.3349 -2.0243
   40MOL0     H 5336   5.150   9.100   0.921 -2.0399  0.9236  0.0400
   40MOL0     H 5337   5.372   9.003   1.013  0.7042 -2.4129  2.8599
   40MOL0     H 5338   5.260   8.917   0.903  0.0297  2.5659 -0.7766
   40MOL0     H 5339   5.162   8.798   1.106 -1.7357  0.4457 -1.0568
   40MOL0     H 5340   5.253   8.918   1.206  0.5256 -3.1266  1.8019
   40MOL0     H 5341   5.459   8.802   1.085 -0.0495  0.6518 -1.1455
   40MOL0     H 5342   5.352   8.701   1.207 -2.7983  2.2482  1.1790
   40MOL0     H 5343   5.285   8.564   1.017  1.6911 -1.2928 -1.4513
   40MOL0     H 5344   5.353   8.682   0.909 -0.2921 -2.1981 -1.8735
   40MOL0     H 5345   5.569   8.634   0.954 -1.1557  1.3033  1.7990
   40MOL0     H 5346   5.544   8.517   1.084  0.6520 -2.6531 -1.1266
   40MOL0     H 5347   5.370   8.427   0.879  0.1860 -1.9426 -1.7381
   40MOL0     H 5348   5.523   8.351   0.930  1.6452 -0.0949 -1.1340
   40MOL0     H 5349   5.478   8.578   0.736 -2.1577 -0.9534  2.5223
   40MOL0     H 5350   5.639   8.489   0.752  0.7971 -1.9117 -1.5325
   40MOL0     H 5351   5.310   8.307   0.737 -1.1024  2.0799 -0.2739
   40MOL0     H 5352   5.272   8.091   0.417 -1.0555 -1.3087  2.3723
   40MOL0     H 5353   5.220   8.118   0.577 -0.4462  2.5141  0.5346
   40MOL0     H 5354   5.037   8.228   0.497  0.7927 -2.3760 -0.3057
   40MOL0     H 5355   5.144   8.351   0.430 -0.3098  0.5284 -1.9441
   40MOL0     H 5356   5.002   8.245   0.249 -0.4338 -0.3214 -0.0009
   40MOL0     H 5357   5.086   8.101   0.261 -2.0750  0.8768 -0.7642
   40MOL0     H 5358   5.299   8.206   0.205 -0.6371 -1.4658 -0.4093
   40MOL0     H 5359   5.218   8.366   0.230 -1.6713 -0.5256  0.5161
   40MOL0     H 5360   5.071   8.356  -0.160  1.2118 -3.3412 -1.5543
   40MOL0     H 5361   5.195   8.504  -0.318 -0.6772  0.5517  1.6665
   40MOL0     H 5362   5.700   8.806  -0.179  1.1229 -1.8407  1.1291
   40MOL0     H 5363   5.838   8.968  -0.297  2.8039 -1.1358 -2.0135
   40MOL0     H 5364   5.892   9.131  -0.502  0.5640  0.4093  2.5379
   40MOL0     H 5365   6.009   9.053  -0.399  0.7338 -0.3863 -0.1578
   40MOL0     H 5366   6.088   9.139  -0.684  0.7909 -0.0620  0.9896
   40MOL0     H 5367   6.121   9.224  -0.536 -0.9618  0.2018 -0.3986
   40MOL0     H 5368   6.205   8.978  -0.467 -1.3021  5.2341  1.9885
   40MOL0     H 5369   6.187   8.942  -0.635 -4.5793  0.7299 -0.0217
   40MOL0     H 5370   6.336   9.145  -0.679 -2.3466 -0.3692  0.1199
   40MOL0     H 5371   6.422   9.008  -0.605  0.4411  1.1587 -1.4172
   40MOL0     H 5372   6.350   9.142  -0.362  0.0716 -0.1067 -0.1986
   40MOL0     H 5373   6.324   9.270  -0.472 -1.6360 -0.9282 -1.9271
   40MOL0     H 5374   6.588   9.109  -0.469 -0.2259 -0.7796  2.0886
   40MOL0     H 5375   6.569   9.270  -0.544  3.0172 -0.1801  0.0451
   40MOL0     H 5376   6.500   9.332  -0.276 -1.0686 -3.4787  1.3315
   40MOL0     H 5377   6.653   9.354  -0.347  1.2520 -1.5635 -1.4839
   40MOL0     H 5378   6.555   9.104  -0.204  0.6374 -1.2800  0.2820
   40MOL0     H 5379   6.715   9.112  -0.280  2.2330  4.6113 -0.7067
   40MOL0     H 5380   5.838   8.733  -0.641 -3.2346 -0.6008 -1.5720
   40MOL0     H 5381   5.671   8.573  -0.530 -2.4730  1.9945 -0.3501
   40MOL0     H 5382   5.563   8.383  -0.129  1.1175 -1.6111  0.1243
   40MOL0     H 5383   5.438   8.260   0.039  0.5773 -0.0915  1.0717
   40MOL0     H 5384   5.086   9.112   1.282  0.4345  0.5640 -0.4344
   40MOL0     H 5385   4.861   9.208   1.337  1.0640 -2.9894 -0.8544
   40MOL0     H 5386   4.446   9.334   1.019  2.1149  3.2452 -2.5597
   40MOL0     H 5387   4.201   9.419   1.067 -0.4461  3.6759  0.3500
   40MOL0     H 5388   4.124   9.688   1.373 -0.0418  0.0300  2.1834
   40MOL0     H 5389   4.093   9.541   1.472 -2.9186 -0.9584  0.0724
   40MOL0     H 5390   3.901   9.667   1.255 -0.7556  1.0982  1.9889
   40MOL0     H 5391   3.898   9.699   1.419  0.8812  0.5243 -0.5091
   40MOL0     H 5392   3.898   9.436   1.465 -0.3159  0.4016  0.7230
   40MOL0     H 5393   3.853   9.407   1.304  0.2081  0.3800 -0.5625
   40MOL0     H 5394   3.659   9.559   1.309  0.8794  2.1881  0.0205
   40MOL0     H 5395   3.640   9.401   1.378 -0.0078 -0.6901  0.9438
   40MOL0     H 5396   3.634   9.542   1.748 -2.7832  0.0905 -0.4872
   40MOL0     H 5397   4.331   9.565   1.445 -0.5101 -0.3819  0.6470
   40MOL0     H 5398   4.629   9.424   1.474  1.4571  0.6951  0.1488
   40MOL0     H 5399   4.680   9.576   1.389 -0.5827  0.4062 -2.7297
   40MOL0     H 5400   4.541   9.579   1.498  1.0386  1.6354  0.1380
   41MOL0     O 5401   9.118   5.317   5.500  0.2096  0.2004 -1.0483
   41MOL0     C 5402   9.070   5.403   5.441  0.7417 -0.9690  0.1049
   41MOL0     O 5403   9.103   5.446   5.314  0.5343 -0.6159 -0.6575
   41MOL0     C 5404   9.229   5.420   5.257 -0.0356  0.0868 -0.9490
   41MOL0     C 5405   9.228   5.391   5.127  0.1944  0.2924  1.3828
   41MOL0     C 5406   9.347   5.366   5.064 -0.5938  0.7561  0.2616
   41MOL0     C 5407   9.470   5.368   5.127  0.1614  0.0025 -0.0302
   41MOL0     O 5408   9.593   5.357   5.071  0.3659  0.1950  0.4063
   41MOL0     C 5409   9.586   5.306   4.935  0.5552  0.2257  0.8808
   41MOL0     C 5410   9.727   5.323   4.885  0.4095 -0.4244  0.1463
   41MOL0     C 5411   9.730   5.282   4.733 -0.8219  0.7009  0.3034
   41MOL0     C 5412   9.883   5.270   4.687  0.2139 -0.5150 -0.1485
   41MOL0     C 5413   9.897   5.264   4.535 -0.4345 -0.4109  0.2104
   41MOL0     C 5414  10.036   5.264   4.487  0.3324 -0.0618  0.6419
   41MOL0     C 5415  10.031   5.262   4.331 -0.3942 -0.2400  0.0560
   41MOL0     C 5416  10.165   5.213   4.278  0.1691  0.6171  1.1014
   41MOL0     N 5417  10.193   5.072   4.305 -0.2558 -0.7647  0.1436
   41MOL0     C 5418  10.144   4.957   4.262  0.0433 -0.0600 -0.3571
   41MOL0     C 5419  10.210   4.857   4.316 -0.0454  0.4891 -0.4443
   41MOL0     C 5420  10.194   4.713   4.277 -0.2866 -0.6545 -0.1984
   41MOL0     C 5421  10.290   4.629   4.361  0.0578  0.4408 -0.0040
   41MOL0     C 5422  10.263   4.478   4.330  1.9661 -0.2790  0.0484
   41MOL0     C 5423  10.243   4.432   4.179 -0.3782  0.1903  1.2083
   41MOL0     O 5424  10.344   4.473   4.083  0.1513  0.6762  0.4342
   41MOL0     C 5425  10.455   4.392   4.053  0.0288  0.3363 -0.2421
   41MOL0     C 5426  10.450   4.248   4.051  0.4506 -1.1236  0.7823
   41MOL0     C 5427  10.562   4.172   4.021  0.6273 -1.6233  1.1397
   41MOL0     C 5428  10.684   4.233   3.991  0.3075  0.4007 -0.2986
   41MOL0     C 5429  10.801   4.142   3.964  0.3921  0.1819  0.2572
   41MOL0     O 5430  10.792   4.004   3.989  0.3272 -0.7032  0.2683
   41MOL0     C 5431  10.888   3.915   3.956 -0.1710 -0.2143  0.3554
   41MOL0     C 5432  10.899   3.812   4.041 -0.8870 -0.0706  0.5805
   41MOL0     C 5433  10.991   3.708   4.015 -0.0323  0.2678  0.4208
   41MOL0     C 5434  11.071   3.706   3.899  0.3948 -0.1958  0.2018
   41MOL0     O 5435  11.164   3.621   3.857 -0.8745 -0.3527  0.0269
   41MOL0     C 5436  11.166   3.486   3.913  0.5187 -0.3039 -0.5944
   41MOL0     C 5437  11.053   3.403   3.856  1.1692  0.2584 -0.2255
   41MOL0     C 5438  11.040   3.278   3.938  0.3096  1.3006  0.4213
   41MOL0     C 5439  10.937   3.184   3.881 -0.8364 -0.0210 -0.6680
   41MOL0     C 5440  10.798   3.242   3.880 -0.1986 -0.3866  0.8669
   41MOL0     C 5441  10.705   3.131   3.828  0.7241 -0.1556  0.3151
   41MOL0     C 5442  10.674   3.147   3.675  0.3449 -1.1314 -0.2668
   41MOL0     C 5443  10.573   3.048   3.616 -0.1972 -1.2877 -0.1678
   41MOL0    Cl 5444  10.580   3.053   3.447  0.2619 -0.0808 -0.0259
   41MOL0     C 5445  11.052   3.808   3.810 -0.4617 -0.8747  0.4778
   41MOL0     C 5446  10.957   3.909   3.831  0.3138 -0.3064 -0.2016
   41MOL0     O 5447  10.907   4.199   3.928 -1.2592 -0.1924  0.4447
   41MOL0     C 5448  10.688   4.374   3.991 -0.3710  0.2424 -0.2400
   41MOL0     C 5449  10.568   4.446   4.031 -0.7710 -0.8100 -0.7344
   41MOL0     N 5450  10.311   4.915   4.393 -0.5226 -0.9721 -0.0180
   41MOL0     N 5451  10.304   5.042   4.380  0.6790 -0.3550  0.8531
   41MOL0     C 5452   9.469   5.396   5.267  0.6368 -0.0118  0.1484
   41MOL0     C 5453   9.358   5.433   5.334  0.1764  0.2226 -0.2598
   41MOL0     C 5454   8.952   5.450   5.499  1.0247  0.3725 -0.3156
   41MOL0     C 5455   8.830   5.439   5.425  0.5877  0.4461 -0.3937
   41MOL0     C 5456   8.711   5.497   5.466  0.9886 -0.0597 -0.4029
   41MOL0     C 5457   8.712   5.565   5.593  0.3836  0.0124 -0.6104
   41MOL0     O 5458   8.604   5.629   5.649  0.1329  0.3289  0.3938
   41MOL0     C 5459   8.465   5.603   5.616  0.2042  0.3384  0.7278
   41MOL0     C 5460   8.420   5.691   5.505  0.0676  0.2900  0.5315
   41MOL0     C 5461   8.480   5.827   5.500  0.6558  0.3877 -0.3124
   41MOL0     C 5462   8.435   5.897   5.630 -0.6029  0.3422 -0.0770
   41MOL0     C 5463   8.456   6.041   5.612  0.8163  0.5530 -0.1776
   41MOL0     C 5464   8.485   6.153   5.588  0.4052 -0.4098 -0.2305
   41MOL0     C 5465   8.838   5.576   5.664  0.7808 -0.0171 -0.5482
   41MOL0     C 5466   8.957   5.520   5.618  0.3069 -0.1496  0.0110
   41MOL0     C 5467   9.088   5.537   5.694 -0.6536  0.2785  0.1962
   41MOL0     H 5468   9.136   5.393   5.070  1.5187 -0.7159 -0.9363
   41MOL0     H 5469   9.344   5.350   4.957  0.1191  2.6731 -0.0859
   41MOL0     H 5470   9.542   5.207   4.922 -2.3601  1.8145 -4.2567
   41MOL0     H 5471   9.530   5.380   4.878 -0.8154 -0.3854  1.4133
   41MOL0     H 5472   9.792   5.264   4.951  0.7548  1.1841  1.3128
   41MOL0     H 5473   9.757   5.428   4.898 -2.2572  0.4379 -0.0254
   41MOL0     H 5474   9.686   5.369   4.683  0.7639  2.4102  1.7190
   41MOL0     H 5475   9.694   5.182   4.708  0.6288  0.5050 -1.1456
   41MOL0     H 5476   9.928   5.368   4.707 -2.0944  0.4087  0.8693
   41MOL0     H 5477   9.922   5.188   4.748  1.0260 -1.5467 -1.9882
   41MOL0     H 5478   9.853   5.168   4.503  0.0005  0.2332 -2.5497
   41MOL0     H 5479   9.836   5.340   4.486  0.3536 -0.9964 -1.7602
   41MOL0     H 5480  10.102   5.346   4.515  0.7352  0.3028 -1.2412
   41MOL0     H 5481  10.083   5.174   4.530 -1.9000 -1.4847  0.2829
   41MOL0     H 5482  10.017   5.363   4.293  1.0980  0.5519  1.4674
   41MOL0     H 5483   9.965   5.183   4.294  1.8181 -1.7883 -0.8500
   41MOL0     H 5484  10.160   5.224   4.170 -0.0171 -3.5751  0.5073
   41MOL0     H 5485  10.246   5.275   4.316  1.5125  1.4396 -2.7058
   41MOL0     H 5486  10.055   4.956   4.200 -0.0703  2.1198 -0.3016
   41MOL0     H 5487  10.088   4.690   4.295 -0.0922 -0.3870  1.4733
   41MOL0     H 5488  10.213   4.703   4.170 -3.1170 -4.6792 -0.5606
   41MOL0     H 5489  10.391   4.665   4.337 -0.1936  0.4075 -1.1948
   41MOL0     H 5490  10.269   4.660   4.464 -0.8254 -0.1662  0.0023
   41MOL0     H 5491  10.166   4.444   4.367  0.9300  2.0389 -0.3910
   41MOL0     H 5492  10.329   4.410   4.385 -0.2673 -0.5520  2.5519
   41MOL0     H 5493  10.152   4.478   4.139  0.3219  0.5827  0.0040
   41MOL0     H 5494  10.229   4.323   4.179 -4.4092  0.5197  3.2240
   41MOL0     H 5495  10.364   4.185   4.071 -1.2125  1.4972  2.4980
   41MOL0     H 5496  10.547   4.066   4.040 -0.5386 -1.8458 -0.6606
   41MOL0     H 5497  10.849   3.802   4.137 -1.3234 -0.2122  0.3401
   41MOL0     H 5498  11.010   3.629   4.087  0.3781 -0.1158 -0.0994
   41MOL0     H 5499  11.260   3.431   3.902  1.2072  0.1761  2.1027
   41MOL0     H 5500  11.154   3.498   4.021  0.5090  2.3188 -0.8056
   41MOL0     H 5501  10.957   3.452   3.871  0.6044 -0.9111  0.0902
   41MOL0     H 5502  11.076   3.376   3.753 -0.8128  0.1224 -0.6717
   41MOL0     H 5503  11.135   3.229   3.961 -1.0600 -1.2604  1.0622
   41MOL0     H 5504  10.999   3.309   4.035  3.4550  1.0992  1.9450
   41MOL0     H 5505  10.932   3.096   3.944 -1.7715 -1.4497 -2.6332
   41MOL0     H 5506  10.976   3.151   3.784  0.1073  0.1891 -0.3744
   41MOL0     H 5507  10.783   3.334   3.823 -0.2595 -1.6255 -1.2346
   41MOL0     H 5508  10.776   3.268   3.984  1.6587  4.6482  0.2434
   41MOL0     H 5509  10.751   3.032   3.838  1.3888 -0.1953 -2.3150
   41MOL0     H 5510  10.614   3.126   3.888  1.3623 -2.2046  1.2258
   41MOL0     H 5511  10.762   3.148   3.611  1.1807  0.0920  0.8476
   41MOL0     H 5512  10.629   3.247   3.670  2.4368 -0.1241  0.0829
   41MOL0     H 5513  10.608   2.948   3.643 -0.3743 -1.5468 -0.8737
   41MOL0     H 5514  10.477   3.072   3.662  1.5038  3.1541  1.6425
   41MOL0     H 5515  11.107   3.809   3.716 -2.4580 -0.1439 -0.7468
   41MOL0     H 5516  10.941   3.995   3.766  2.6321  1.0206  0.8588
   41MOL0     H 5517  10.780   4.431   3.982  1.6611 -2.2258  2.9033
   41MOL0     H 5518  10.573   4.553   4.020 -0.4795 -0.6345  0.8521
   41MOL0     H 5519   9.560   5.403   5.326  0.6096  2.6366 -0.0269
   41MOL0     H 5520   9.349   5.473   5.435  2.9942  0.8202 -0.1737
   41MOL0     H 5521   8.830   5.399   5.324  1.4872 -1.7396  0.4148
   41MOL0     H 5522   8.619   5.494   5.408 -1.1190 -0.4682  2.7116
   41MOL0     H 5523   8.405   5.622   5.705 -0.1625  1.1625  0.3206
   41MOL0     H 5524   8.435   5.502   5.585 -1.3160  0.9126  0.2343
   41MOL0     H 5525   8.310   5.691   5.508  0.0715  0.3030  2.9061
   41MOL0     H 5526   8.435   5.646   5.407  2.2820 -0.1408  1.0080
   41MOL0     H 5527   8.440   5.879   5.412  0.9113 -0.2003 -0.7839
   41MOL0     H 5528   8.589   5.829   5.509  0.6948 -1.4005 -0.1081
   41MOL0     H 5529   8.327   5.891   5.644 -0.3559 -0.8238  1.6697
   41MOL0     H 5530   8.475   5.874   5.729  0.2988  0.7329 -0.3330
   41MOL0     H 5531   8.509   6.253   5.558 -0.9455 -0.4704 -1.5741
   41MOL0     H 5532   8.829   5.631   5.757  3.3867 -1.9498  0.9878
   41MOL0     H 5533   9.097   5.472   5.781  3.4944  0.0051 -0.2584
   41MOL0     H 5534   9.180   5.509   5.641  0.8079 -3.4898  4.1109
   41MOL0     H 5535   9.098   5.641   5.725  2.9990  0.7807 -2.0788
   42MOL0     O 5536   0.661   0.983   9.888 -0.5230 -0.6043  0.2724
   42MOL0     C 5537   0.616   0.951   9.778 -0.4452 -0.0088 -0.6505
   42MOL0     O 5538   0.609   1.034   9.673  0.1592  0.0543  0.1113
   42MOL0     C 5539   0.707   1.123   9.639  0.3153 -0.2474 -0.0958
   42MOL0     C 5540   0.823   1.155   9.708 -0.2165 -0.3859 -0.7867
   42MOL0     C 5541   0.912   1.244   9.658  0.3509 -0.3117  0.4946
   42MOL0     C 5542   0.893   1.304   9.530 -0.3464 -0.1296  0.3072
   42MOL0     O 5543   0.982   1.396   9.480  0.6135 -0.6657 -0.0991
   42MOL0     C 5544   1.062   1.339   9.367 -0.8143  0.9504 -0.3380
   42MOL0     C 5545   1.170   1.249   9.423  0.2742 -0.1882 -0.0825
   42MOL0     C 5546   1.269   1.208   9.309 -0.7966  0.1531  0.2788
   42MOL0     C 5547   1.396   1.136   9.365  0.3132 -0.5562  0.3278
   42MOL0     C 5548   1.501   1.110   9.249 -1.1223  0.2203 -0.1026
   42MOL0     C 5549   1.605   1.003   9.290 -0.2722  0.4114 -0.8468
   42MOL0     C 5550   1.710   0.985   9.183  0.0181  0.1536  0.7270
   42MOL0     C 5551   1.817   0.893   9.237  1.0561  0.7055  0.5206
   42MOL0     N 5552   1.935   0.872   9.152 -0.0474 -0.4006  0.0665
   42MOL0     C 5553   1.996   0.746   9.143 -0.6562  0.2947 -0.1499
   42MOL0     C 5554   2.128   0.772   9.120  0.0419 -0.4398  0.6316
   42MOL0     C 5555   2.239   0.676   9.077 -0.1819  0.2226  0.8668
   42MOL0     C 5556   2.314   0.614   9.189 -0.9198  0.3452  0.3321
   42MOL0     C 5557   2.391   0.485   9.132 -0.2802  0.1774 -0.4645
   42MOL0     C 5558   2.531   0.519   9.074  0.1161  0.0390 -0.2845
   42MOL0     O 5559   2.580   0.395   9.014 -0.7984 -0.3463 -0.8690
   42MOL0     C 5560   2.711   0.373   8.998 -0.1912 -0.3370 -0.1270
   42MOL0     C 5561   2.810   0.451   9.057 -0.0487 -0.6759 -0.1697
   42MOL0     C 5562   2.949   0.409   9.040  0.0390 -0.6712  0.1982
   42MOL0     C 5563   2.986   0.306   8.951  0.6107 -0.2958  0.2477
   42MOL0     C 5564   3.125   0.268   8.907 -0.1233 -0.1172 -0.3502
   42MOL0     O 5565   3.136   0.152   8.848 -0.8960 -0.5305  0.3986
   42MOL0     C 5566   3.256   0.110   8.804  0.0669 -1.2853 -0.9315
   42MOL0     C 5567   3.266   0.089   8.668  0.0362  0.6605 -0.6383
   42MOL0     C 5568   3.380   0.045   8.607  0.3644  0.5308 -0.6275
   42MOL0     C 5569   3.500   0.033   8.677 -0.2066  0.1465  0.3070
   42MOL0     O 5570   3.605  -0.017   8.615  0.5060  0.7639 -0.1122
   42MOL0     C 5571   3.693  -0.114   8.678 -0.9031  0.4893 -0.4625
   42MOL0     C 5572   3.636  -0.247   8.712 -0.1740  0.0931  0.7649
   42MOL0     C 5573   3.689  -0.327   8.829  0.2982  0.4358 -0.2794
   42MOL0     C 5574   3.830  -0.389   8.788 -0.6268  0.0870 -1.1219
   42MOL0     C 5575   3.936  -0.418   8.906 -1.0682 -0.9169  0.2878
   42MOL0     C 5576   3.880  -0.514   9.018 -0.5979  0.0699 -0.2734
   42MOL0     C 5577   3.995  -0.527   9.120 -0.6637 -0.1967 -0.2020
   42MOL0     C 5578   3.994  -0.652   9.209 -0.0204 -0.3696 -0.2972
   42MOL0    Cl 5579   4.106  -0.646   9.343 -0.0921  0.0082  0.3657
   42MOL0     C 5580   3.496   0.059   8.811 -0.0451 -1.1790  0.2720
   42MOL0     C 5581   3.374   0.095   8.880 -0.4088  0.9416  0.1676
   42MOL0     O 5582   3.221   0.340   8.939 -0.2420 -0.0577  0.0361
   42MOL0     C 5583   2.875   0.228   8.911  0.1167 -0.1873  0.0694
   42MOL0     C 5584   2.743   0.264   8.926  0.1820 -0.5257  0.6151
   42MOL0     N 5585   2.145   0.908   9.123 -0.0314  0.9349 -0.6192
   42MOL0     N 5586   2.026   0.961   9.125 -0.8227 -0.5957 -0.2009
   42MOL0     C 5587   0.781   1.275   9.461 -0.3777 -1.0457  1.0414
   42MOL0     C 5588   0.693   1.182   9.514  0.8241  0.6111  0.4924
   42MOL0     C 5589   0.550   0.822   9.769  0.2471 -0.9706 -0.0710
   42MOL0     C 5590   0.423   0.836   9.736 -0.0820 -0.1258  0.7029
   42MOL0     C 5591   0.340   0.723   9.719  0.0631  0.4927  0.2816
   42MOL0     C 5592   0.390   0.591   9.750  0.0730  0.9078 -0.1621
   42MOL0     O 5593   0.309   0.481   9.747 -0.0624  0.2258  0.6033
   42MOL0     C 5594   0.171   0.485   9.780 -0.6938  0.4173 -0.3105
   42MOL0     C 5595   0.068   0.493   9.664 -0.0692 -0.2188  0.1206
   42MOL0     C 5596  -0.072   0.536   9.710 -0.3186  1.2181 -0.2006
   42MOL0     C 5597  -0.173   0.531   9.593 -0.1577  0.2431 -0.3946
   42MOL0     C 5598  -0.267   0.428   9.616  0.1796 -0.0416 -0.3617
   42MOL0     C 5599  -0.331   0.333   9.648  0.6241  0.6641 -1.3603
   42MOL0     C 5600   0.523   0.579   9.783  0.7369 -0.0090 -0.0826
   42MOL0     C 5601   0.605   0.697   9.800  0.5150  0.2180 -0.1456
   42MOL0     C 5602   0.751   0.674   9.840  0.8411 -0.0093  0.3744
   42MOL0     H 5603   0.850   1.086   9.788  0.7885 -0.8172 -1.4738
   42MOL0     H 5604   0.999   1.267   9.718 -0.5523 -0.5899  1.9731
   42MOL0     H 5605   1.007   1.267   9.305  0.3172  0.1259 -0.4095
   42MOL0     H 5606   1.099   1.412   9.295 -0.9681  0.7051 -0.6665
   42MOL0     H 5607   1.124   1.155   9.456  2.8040 -1.3690  0.2757
   42MOL0     H 5608   1.227   1.288   9.508 -0.7358 -0.3216  0.6747
   42MOL0     H 5609   1.306   1.297   9.258  3.4751 -0.3800  2.0168
   42MOL0     H 5610   1.216   1.141   9.241 -0.1995 -1.1739  1.0814
   42MOL0     H 5611   1.446   1.199   9.439  3.9968 -1.8719 -0.8150
   42MOL0     H 5612   1.375   1.036   9.402 -1.2909 -0.4206 -0.1455
   42MOL0     H 5613   1.438   1.089   9.163 -2.6441  0.4167  0.9357
   42MOL0     H 5614   1.566   1.195   9.224  0.6034 -1.4904 -1.8203
   42MOL0     H 5615   1.654   1.037   9.382 -1.3640  1.7096 -0.7248
   42MOL0     H 5616   1.557   0.906   9.308 -1.8881  1.5724  1.6418
   42MOL0     H 5617   1.747   1.085   9.156 -4.0056  2.2903  2.3276
   42MOL0     H 5618   1.657   0.926   9.107  3.7409 -4.3590  1.2225
   42MOL0     H 5619   1.846   0.949   9.325  0.6042 -1.6274  2.2724
   42MOL0     H 5620   1.770   0.799   9.270  0.2636  0.3160 -1.5518
   42MOL0     H 5621   1.946   0.649   9.144 -1.6313  0.7827  1.1399
   42MOL0     H 5622   2.197   0.585   9.031 -1.9217 -0.5308  3.6973
   42MOL0     H 5623   2.298   0.724   8.999 -3.6321 -0.4418 -2.4759
   42MOL0     H 5624   2.380   0.694   9.224  0.0955 -0.5388  0.4896
   42MOL0     H 5625   2.247   0.589   9.271 -1.0387 -0.0073  0.1273
   42MOL0     H 5626   2.335   0.428   9.057  2.7588 -3.0315 -0.5620
   42MOL0     H 5627   2.412   0.420   9.218  0.5040  1.8794  0.6893
   42MOL0     H 5628   2.598   0.544   9.157  2.9558 -2.3378 -1.6894
   42MOL0     H 5629   2.531   0.600   9.000  0.5044  0.9063  0.6452
   42MOL0     H 5630   2.792   0.552   9.092 -1.5447  0.0583 -2.7922
   42MOL0     H 5631   3.027   0.471   9.083 -1.5457  2.5612 -1.2390
   42MOL0     H 5632   3.170   0.099   8.618  0.3972  1.6589 -1.1582
   42MOL0     H 5633   3.385   0.047   8.499 -0.4417 -0.7291 -0.7029
   42MOL0     H 5634   3.780  -0.129   8.613  1.3415  2.5102  1.8485
   42MOL0     H 5635   3.731  -0.061   8.766 -1.9498  1.1820 -0.4053
   42MOL0     H 5636   3.533  -0.233   8.749  0.6538 -1.6402  4.1182
   42MOL0     H 5637   3.636  -0.307   8.621 -0.6496 -3.6129  3.0048
   42MOL0     H 5638   3.695  -0.260   8.915 -1.3146 -0.5736  0.6823
   42MOL0     H 5639   3.624  -0.410   8.857 -1.0224  1.9991  1.5223
   42MOL0     H 5640   3.868  -0.316   8.716 -0.8621  0.3171 -1.0158
   42MOL0     H 5641   3.815  -0.483   8.735  0.0148 -2.3001  2.5717
   42MOL0     H 5642   3.968  -0.319   8.941 -0.9810 -0.9896  0.4146
   42MOL0     H 5643   4.021  -0.452   8.847 -0.4291 -1.1781  1.3312
   42MOL0     H 5644   3.786  -0.470   9.054 -0.8233 -1.1030  0.6356
   42MOL0     H 5645   3.859  -0.603   8.958 -1.9259  0.9060 -1.1195
   42MOL0     H 5646   3.985  -0.446   9.193 -1.3683  0.6551 -1.2148
   42MOL0     H 5647   4.092  -0.508   9.072 -0.1014 -1.0014  0.5868
   42MOL0     H 5648   3.896  -0.692   9.240 -0.0886  0.4207  0.5692
   42MOL0     H 5649   4.036  -0.733   9.150  3.1312  1.7702 -1.2463
   42MOL0     H 5650   3.592   0.048   8.860  1.6008  2.4619 -1.7248
   42MOL0     H 5651   3.377   0.118   8.986 -0.2402 -0.5926  0.5306
   42MOL0     H 5652   2.900   0.163   8.828 -0.4074  1.4018 -1.4151
   42MOL0     H 5653   2.663   0.202   8.887  0.1681 -0.3077  0.2921
   42MOL0     H 5654   0.757   1.330   9.370  3.2714  0.6172  0.8793
   42MOL0     H 5655   0.599   1.176   9.460  0.8861  2.2308  0.1599
   42MOL0     H 5656   0.388   0.933   9.704  0.8412 -0.5021 -1.6708
   42MOL0     H 5657   0.240   0.743   9.682  1.1898  2.1263 -2.2121
   42MOL0     H 5658   0.135   0.569   9.839 -5.3193 -1.3078 -0.3203
   42MOL0     H 5659   0.142   0.401   9.843 -0.2436  0.3147 -0.2329
   42MOL0     H 5660   0.068   0.399   9.608 -0.0813 -0.5813  0.7175
   42MOL0     H 5661   0.103   0.569   9.594  1.8492  0.4878  1.7585
   42MOL0     H 5662  -0.063   0.638   9.750  0.0612  1.4291 -0.8155
   42MOL0     H 5663  -0.109   0.466   9.785  1.4872  2.7614  2.2791
   42MOL0     H 5664  -0.217   0.631   9.585 -1.4516 -0.4509 -2.9431
   42MOL0     H 5665  -0.121   0.506   9.500 -0.3986 -1.4132 -0.1242
   42MOL0     H 5666  -0.394   0.254   9.683  2.3134  0.8675  2.6875
   42MOL0     H 5667   0.563   0.478   9.792  0.3058 -0.2998 -1.2831
   42MOL0     H 5668   0.749   0.603   9.923 -0.1127  1.4964  1.7230
   42MOL0     H 5669   0.797   0.626   9.753 -0.2267  2.2561 -1.5629
   42MOL0     H 5670   0.813   0.763   9.853 -1.4360  2.2043 -2.3463
   43MOL0     O 5671  11.171   9.360   7.530  0.0009 -0.1249  0.0214
   43MOL0     C 5672  11.216   9.472   7.502  0.2449 -0.0619  0.8670
   43MOL0     O 5673  11.200   9.587   7.583 -0.3558 -0.1407 -0.3076
   43MOL0     C 5674  11.145   9.592   7.713 -0.0764  0.0131 -0.0083
   43MOL0     C 5675  11.145   9.714   7.786 -0.0675 -1.1444  0.3582
   43MOL0     C 5676  11.079   9.731   7.911  0.3806  0.3234 -0.6882
   43MOL0     C 5677  11.028   9.622   7.977 -0.6493 -0.3086  0.6141
   43MOL0     O 5678  10.978   9.616   8.099 -0.1039  0.3366  0.0721
   43MOL0     C 5679  10.937   9.733   8.166 -0.0729 -1.2165  0.0743
   43MOL0     C 5680  10.862   9.706   8.307 -0.2074  0.6261  0.8590
   43MOL0     C 5681  10.801   9.838   8.350  0.3897 -0.1634  0.5504
   43MOL0     C 5682  10.782   9.833   8.500  0.4384 -0.4928  0.8120
   43MOL0     C 5683  10.650   9.773   8.526  0.8988 -0.2121  0.3273
   43MOL0     C 5684  10.532   9.867   8.572  0.1629 -0.2968 -0.0853
   43MOL0     C 5685  10.459   9.943   8.457 -1.1298 -0.7540  1.0211
   43MOL0     C 5686  10.361   9.857   8.366  0.1509  0.8779 -0.3949
   43MOL0     N 5687  10.235   9.821   8.429  0.2377  0.7131  0.4334
   43MOL0     C 5688  10.156   9.723   8.373 -0.2520  0.8901  0.2342
   43MOL0     C 5689  10.031   9.755   8.398  0.5828  0.3924  0.0811
   43MOL0     C 5690   9.909   9.660   8.356 -0.6161 -0.2678 -0.8129
   43MOL0     C 5691   9.778   9.738   8.379 -0.5080 -0.4052 -0.0653
   43MOL0     C 5692   9.663   9.679   8.301  0.4640 -0.4200  0.6075
   43MOL0     C 5693   9.529   9.733   8.346 -0.3026 -0.2944 -0.4439
   43MOL0     O 5694   9.426   9.646   8.291 -0.8761 -0.7696  0.5678
   43MOL0     C 5695   9.295   9.647   8.332  0.5124  0.3682 -0.2912
   43MOL0     C 5696   9.206   9.564   8.271 -0.2273  1.1229  0.0289
   43MOL0     C 5697   9.071   9.568   8.294 -0.0934 -0.3045 -0.3575
   43MOL0     C 5698   9.019   9.660   8.388 -0.5019 -0.3914 -0.0523
   43MOL0     C 5699   8.874   9.657   8.424  0.0956  0.5946  0.4596
   43MOL0     O 5700   8.787   9.568   8.362 -0.1888 -0.5172  0.8043
   43MOL0     C 5701   8.652   9.562   8.396 -0.3018 -0.4591  0.2691
   43MOL0     C 5702   8.568   9.522   8.295 -0.0453 -0.0168  0.3849
   43MOL0     C 5703   8.423   9.525   8.296 -0.0309 -0.1108 -0.3785
   43MOL0     C 5704   8.361   9.566   8.418 -0.1109  0.0749 -0.0927
   43MOL0     O 5705   8.227   9.566   8.428  0.2430 -0.2815 -0.0549
   43MOL0     C 5706   8.161   9.588   8.554 -0.7917  0.6900  0.0838
   43MOL0     C 5707   8.007   9.611   8.530  0.2672 -0.5929  0.8604
   43MOL0     C 5708   7.952   9.502   8.451  0.3105 -0.2976  0.4921
   43MOL0     C 5709   7.918   9.386   8.540  0.2619 -0.5518  0.6115
   43MOL0     C 5710   7.827   9.283   8.469  0.8694 -0.6307  0.0845
   43MOL0     C 5711   7.825   9.155   8.547  0.2175  0.8516  0.5777
   43MOL0     C 5712   7.750   9.042   8.466 -0.5642 -0.0194  0.4052
   43MOL0     C 5713   7.713   8.923   8.559 -0.3056 -0.4266  0.5187
   43MOL0    Cl 5714   7.650   8.816   8.443 -0.0935 -0.0179 -0.0612
   43MOL0     C 5715   8.446   9.610   8.523  0.0146  0.1963  0.6100
   43MOL0     C 5716   8.592   9.596   8.511  0.7587 -0.0376 -1.1242
   43MOL0     O 5717   8.838   9.743   8.502 -0.1434  0.0647 -0.1896
   43MOL0     C 5718   9.112   9.741   8.456  0.1153  0.5997  0.8968
   43MOL0     C 5719   9.248   9.737   8.431  0.2410 -0.2827  0.5781
   43MOL0     N 5720  10.027   9.875   8.458  0.2241  0.4977 -0.2765
   43MOL0     N 5721  10.149   9.914   8.474 -0.0180  0.0762 -0.0193
   43MOL0     C 5722  11.049   9.497   7.915 -0.4745  0.2641  0.5500
   43MOL0     C 5723  11.111   9.483   7.787  0.3496  0.9532 -0.6682
   43MOL0     C 5724  11.270   9.494   7.364 -0.5983 -0.5831  0.6006
   43MOL0     C 5725  11.253   9.629   7.321 -0.7825  0.3400 -0.4167
   43MOL0     C 5726  11.292   9.669   7.195 -1.1479  0.1568  1.1225
   43MOL0     C 5727  11.360   9.582   7.105  0.1603 -0.1633  0.2380
   43MOL0     O 5728  11.408   9.613   6.986 -0.1590 -0.5470  0.3574
   43MOL0     C 5729  11.505   9.724   6.981 -0.7032 -0.2105 -0.7030
   43MOL0     C 5730  11.467   9.817   6.871 -0.8892  0.6541  0.3445
   43MOL0     C 5731  11.581   9.928   6.853  0.2992  0.4566 -0.6409
   43MOL0     C 5732  11.563  10.010   6.724 -0.9855 -0.1258  0.6659
   43MOL0     C 5733  11.446  10.094   6.753 -0.4979 -0.4009  0.2315
   43MOL0     C 5734  11.358  10.180   6.779 -0.2924  0.1322  0.7365
   43MOL0     C 5735  11.382   9.449   7.143  0.1502 -0.2482 -0.5652
   43MOL0     C 5736  11.330   9.401   7.266 -0.6505 -1.9512 -0.5016
   43MOL0     C 5737  11.330   9.259   7.290 -0.2015 -0.4195  1.1640
   43MOL0     H 5738  11.172   9.814   7.753 -3.1823  0.7212  2.8244
   43MOL0     H 5739  11.086   9.829   7.957 -0.6328  0.2909 -0.4460
   43MOL0     H 5740  11.023   9.790   8.200 -1.5932  0.2618  1.6388
   43MOL0     H 5741  10.862   9.793   8.112  1.3762  0.1538 -0.4761
   43MOL0     H 5742  10.939   9.678   8.380  0.7410  0.0271 -0.3209
   43MOL0     H 5743  10.787   9.627   8.292 -0.4377  1.3890 -3.3819
   43MOL0     H 5744  10.708   9.857   8.294  1.5849 -0.0884 -1.5152
   43MOL0     H 5745  10.860   9.926   8.323 -3.3168  1.9746 -1.5398
   43MOL0     H 5746  10.858   9.774   8.553 -1.3146 -2.6065  1.1050
   43MOL0     H 5747  10.792   9.929   8.551  1.1012 -0.4123  0.5512
   43MOL0     H 5748  10.614   9.711   8.443  2.5717 -1.3455  0.3962
   43MOL0     H 5749  10.668   9.708   8.611 -0.7681  2.1317  2.6435
   43MOL0     H 5750  10.464   9.802   8.628  1.2502 -3.8195 -2.5096
   43MOL0     H 5751  10.571   9.940   8.644  1.2318 -0.7378 -0.2108
   43MOL0     H 5752  10.544   9.979   8.400 -0.7013  0.5678  2.4458
   43MOL0     H 5753  10.416  10.038   8.490  3.0542  2.2668 -1.2865
   43MOL0     H 5754  10.351   9.914   8.273 -1.0429  0.4485 -0.5527
   43MOL0     H 5755  10.412   9.765   8.338 -1.8578 -0.4833  0.1186
   43MOL0     H 5756  10.188   9.646   8.304 -2.0018  0.3161 -0.0059
   43MOL0     H 5757   9.916   9.632   8.251  2.9533  0.3446 -0.8642
   43MOL0     H 5758   9.923   9.564   8.408  0.4405 -0.1386 -0.8408
   43MOL0     H 5759   9.747   9.754   8.483 -1.1085 -1.5167 -0.0547
   43MOL0     H 5760   9.795   9.838   8.339  2.6414 -0.6928  0.3412
   43MOL0     H 5761   9.661   9.570   8.296 -0.8595 -0.3645 -1.1846
   43MOL0     H 5762   9.678   9.708   8.196 -0.0585 -0.3927  0.5380
   43MOL0     H 5763   9.521   9.831   8.298 -0.6761 -0.2993 -0.4026
   43MOL0     H 5764   9.527   9.748   8.454 -1.2211 -0.0596 -0.4800
   43MOL0     H 5765   9.252   9.501   8.196 -0.3703  0.2190  0.6817
   43MOL0     H 5766   9.013   9.494   8.240  0.1126 -1.8806  1.4601
   43MOL0     H 5767   8.608   9.491   8.199 -0.6512 -0.5268  0.2885
   43MOL0     H 5768   8.367   9.493   8.209 -0.9673  0.1778  0.1089
   43MOL0     H 5769   8.186   9.505   8.620 -0.4189 -0.1328 -1.0537
   43MOL0     H 5770   8.206   9.672   8.607  0.4627  1.3196 -1.8346
   43MOL0     H 5771   7.964   9.629   8.629  3.7466  0.9497  2.2838
   43MOL0     H 5772   7.984   9.702   8.474  1.2406 -1.8707 -1.7840
   43MOL0     H 5773   7.868   9.541   8.393  1.8453  0.0880 -1.5873
   43MOL0     H 5774   8.023   9.475   8.372 -0.5438  0.3969 -0.5433
   43MOL0     H 5775   7.874   9.435   8.628 -0.9947  0.1427 -0.3804
   43MOL0     H 5776   8.010   9.330   8.560  0.3599 -0.7690 -0.4338
   43MOL0     H 5777   7.852   9.278   8.363  0.8470  2.6087 -0.1825
   43MOL0     H 5778   7.724   9.320   8.464  1.4880  1.0298 -2.0610
   43MOL0     H 5779   7.929   9.123   8.557  0.0821 -0.0752 -0.6640
   43MOL0     H 5780   7.790   9.165   8.650 -1.2203  0.5915  0.1321
   43MOL0     H 5781   7.816   9.006   8.387  1.0682  0.9753  1.2619
   43MOL0     H 5782   7.669   9.096   8.417  1.0663  1.3710 -0.8783
   43MOL0     H 5783   7.808   8.900   8.609 -1.2011  0.3221  2.6911
   43MOL0     H 5784   7.635   8.939   8.634 -0.7714 -0.2295 -0.0020
   43MOL0     H 5785   8.399   9.649   8.612 -2.8782  1.1254 -1.1831
   43MOL0     H 5786   8.651   9.610   8.601 -1.5231 -1.1886  0.6743
   43MOL0     H 5787   9.071   9.815   8.524  1.5394 -0.7097  3.3394
   43MOL0     H 5788   9.307   9.821   8.466  1.7377  0.4678 -3.3242
   43MOL0     H 5789  11.014   9.413   7.974  0.8865 -1.1215 -0.5403
   43MOL0     H 5790  11.121   9.379   7.758  2.3515  0.3143  1.9929
   43MOL0     H 5791  11.221   9.715   7.379  3.2347  0.9213  1.2773
   43MOL0     H 5792  11.273   9.773   7.172 -1.5936 -0.2334 -0.3955
   43MOL0     H 5793  11.606   9.684   6.966 -0.7082 -1.9806  2.9397
   43MOL0     H 5794  11.517   9.781   7.073 -0.9372 -1.8164  0.3622
   43MOL0     H 5795  11.368   9.852   6.901 -1.4435  0.6949 -1.4100
   43MOL0     H 5796  11.464   9.757   6.779 -0.9996  2.8433 -1.1366
   43MOL0     H 5797  11.681   9.885   6.856 -0.5399 -1.5964 -0.3928
   43MOL0     H 5798  11.583   9.985   6.946  1.9602 -0.6418  0.0548
   43MOL0     H 5799  11.651  10.072   6.703  2.5327 -4.9230 -0.5762
   43MOL0     H 5800  11.545   9.956   6.631  2.7877  3.1143 -2.3220
   43MOL0     H 5801  11.274  10.245   6.790 -1.3618 -1.2171  0.7491
   43MOL0     H 5802  11.439   9.376   7.086  1.6765 -0.7159  1.4305
   43MOL0     H 5803  11.425   9.213   7.259 -0.7315 -1.1490  0.5720
   43MOL0     H 5804  11.332   9.237   7.398  2.1246  0.6623  1.4039
   43MOL0     H 5805  11.243   9.214   7.241  0.2580  0.2783 -0.3129
   44MOL0     O 5806   4.130   8.088   3.916 -0.2165 -0.0045  0.3750
   44MOL0     C 5807   4.171   8.203   3.929  0.1947 -0.3041 -0.4642
   44MOL0     O 5808   4.173   8.264   4.047 -0.0027  0.1663 -0.6847
   44MOL0     C 5809   4.127   8.201   4.162  0.0034  0.0635  0.7961
   44MOL0     C 5810   4.215   8.134   4.251  0.7834 -0.3035 -0.4263
   44MOL0     C 5811   4.165   8.059   4.358 -0.7301 -0.2031 -0.0561
   44MOL0     C 5812   4.039   8.064   4.393  0.3456  0.0040 -0.3744
   44MOL0     O 5813   3.991   7.993   4.498  0.3834 -0.6327  0.4635
   44MOL0     C 5814   4.054   7.988   4.624 -0.2711 -0.1283 -0.3955
   44MOL0     C 5815   3.938   8.006   4.726 -0.3660 -0.1146 -0.3795
   44MOL0     C 5816   3.848   7.876   4.726  0.4541  0.0512  0.9986
   44MOL0     C 5817   3.911   7.740   4.784  0.5951  0.0641 -0.1708
   44MOL0     C 5818   3.787   7.641   4.806  0.0946  0.5262  0.1469
   44MOL0     C 5819   3.837   7.501   4.846  0.3326  0.6592 -0.3414
   44MOL0     C 5820   3.733   7.396   4.912 -0.7171  0.2438 -0.3083
   44MOL0     C 5821   3.624   7.362   4.816  0.6403  0.0903 -0.3404
   44MOL0     N 5822   3.552   7.245   4.879 -0.4358 -0.4315 -0.0005
   44MOL0     C 5823   3.607   7.122   4.872  0.1253  0.4036 -0.5129
   44MOL0     C 5824   3.527   7.045   4.937  0.2362  0.2010 -0.1028
   44MOL0     C 5825   3.538   6.899   4.965 -0.2018 -0.2672 -0.2532
   44MOL0     C 5826   3.584   6.879   5.110  0.6679  0.0699 -0.2594
   44MOL0     C 5827   3.735   6.905   5.118 -0.1372 -0.6158  0.3635
   44MOL0     C 5828   3.794   6.822   5.243  0.2227 -0.4827 -0.0048
   44MOL0     O 5829   3.938   6.838   5.260 -0.2427 -0.3221 -0.2787
   44MOL0     C 5830   3.992   6.937   5.345  0.3256 -0.0537  0.2938
   44MOL0     C 5831   3.925   7.024   5.434 -0.2299 -0.0567 -0.2008
   44MOL0     C 5832   4.007   7.105   5.514  0.2495 -0.8592  0.2075
   44MOL0     C 5833   4.145   7.133   5.495  0.0935  0.8923 -0.6564
   44MOL0     C 5834   4.215   7.232   5.577 -0.0071 -0.7720  0.1383
   44MOL0     O 5835   4.154   7.310   5.667 -0.2761  0.7573 -0.1579
   44MOL0     C 5836   4.224   7.381   5.756  0.3867  0.1758 -0.3394
   44MOL0     C 5837   4.279   7.323   5.866 -0.5256  0.2024 -0.7077
   44MOL0     C 5838   4.333   7.400   5.970 -0.4381 -0.1253 -0.5837
   44MOL0     C 5839   4.352   7.536   5.958 -0.0528 -1.1480 -0.3672
   44MOL0     O 5840   4.402   7.619   6.058 -0.8179 -0.5837 -0.6152
   44MOL0     C 5841   4.495   7.552   6.148 -0.2576  0.6622  0.0964
   44MOL0     C 5842   4.567   7.658   6.227  0.4651  0.4996  0.3419
   44MOL0     C 5843   4.696   7.610   6.291 -0.3256  0.1502 -0.1821
   44MOL0     C 5844   4.809   7.693   6.280 -0.1141 -0.5649 -0.9021
   44MOL0     C 5845   4.934   7.635   6.355 -0.2412 -0.1126  0.0934
   44MOL0     C 5846   5.061   7.725   6.317  0.2269  0.5859 -0.4345
   44MOL0     C 5847   5.182   7.708   6.406 -0.2544 -0.1916 -1.1604
   44MOL0     C 5848   5.294   7.816   6.379 -0.3819 -0.7309  0.7864
   44MOL0    Cl 5849   5.397   7.839   6.524  0.0641  0.2536 -0.2240
   44MOL0     C 5850   4.280   7.602   5.856 -0.1590  0.8589  0.3186
   44MOL0     C 5851   4.217   7.524   5.754 -0.0216  0.1394  0.0348
   44MOL0     O 5852   4.339   7.239   5.552 -0.2980  0.3160 -0.1920
   44MOL0     C 5853   4.206   7.053   5.398  0.3060 -0.0741  0.2640
   44MOL0     C 5854   4.131   6.955   5.323 -0.6712 -0.3304  0.2965
   44MOL0     N 5855   3.420   7.122   4.979  0.6617 -0.2235  0.4975
   44MOL0     N 5856   3.444   7.241   4.953 -0.5866  0.4709  0.9278
   44MOL0     C 5857   3.949   8.139   4.313 -0.2784 -0.7865  0.0232
   44MOL0     C 5858   3.993   8.194   4.192  0.0444  0.7276  1.1656
   44MOL0     C 5859   4.257   8.250   3.818  0.4916 -1.0611  0.1990
   44MOL0     C 5860   4.273   8.170   3.698  0.2749 -1.1002 -0.3442
   44MOL0     C 5861   4.362   8.214   3.607 -0.1564 -0.5515 -1.3459
   44MOL0     C 5862   4.451   8.325   3.620 -0.1376 -0.3978 -0.0196
   44MOL0     O 5863   4.547   8.358   3.525 -0.7774  0.2212 -0.1426
   44MOL0     C 5864   4.501   8.382   3.388  0.1720 -0.1227  0.3606
   44MOL0     C 5865   4.614   8.432   3.295  0.3658 -1.4859  0.5059
   44MOL0     C 5866   4.738   8.340   3.301 -0.7145  0.5805 -0.6705
   44MOL0     C 5867   4.833   8.352   3.184  0.2663 -0.9706  0.1616
   44MOL0     C 5868   4.849   8.483   3.126 -1.0164 -1.0163 -1.1118
   44MOL0     C 5869   4.867   8.591   3.071 -1.1299 -0.1553 -0.6149
   44MOL0     C 5870   4.431   8.397   3.737  0.6542 -0.4266  0.3801
   44MOL0     C 5871   4.324   8.372   3.827  0.2235  0.1603  0.2943
   44MOL0     C 5872   4.303   8.480   3.928  0.0662 -0.0355  0.5354
   44MOL0     H 5873   4.321   8.136   4.226  1.4110 -1.6379  1.8033
   44MOL0     H 5874   4.244   8.000   4.404  1.0343 -1.4844 -4.2034
   44MOL0     H 5875   4.099   7.891   4.646  0.9456  1.0734  3.0587
   44MOL0     H 5876   4.121   8.071   4.647 -0.9164 -0.1876  1.9963
   44MOL0     H 5877   3.878   8.091   4.692  0.6866  0.6652 -0.3464
   44MOL0     H 5878   3.978   8.028   4.825  1.4595 -0.5948 -0.9673
   44MOL0     H 5879   3.798   7.866   4.629 -1.9557 -1.1100  2.2953
   44MOL0     H 5880   3.763   7.901   4.789  0.5914  0.3031  1.0851
   44MOL0     H 5881   3.989   7.684   4.731 -0.1341 -0.5753 -0.5733
   44MOL0     H 5882   3.966   7.761   4.876  2.5484  2.1493 -1.6948
   44MOL0     H 5883   3.712   7.673   4.879 -0.2934 -3.3050  1.6129
   44MOL0     H 5884   3.735   7.659   4.711  0.4863  3.3122  0.3604
   44MOL0     H 5885   3.897   7.457   4.766 -1.6193 -5.4515  1.0799
   44MOL0     H 5886   3.905   7.522   4.929  0.2545 -0.5463  0.0330
   44MOL0     H 5887   3.698   7.448   5.002  1.7127  2.5229 -0.5690
   44MOL0     H 5888   3.796   7.309   4.933 -1.5789  0.1657  2.4847
   44MOL0     H 5889   3.561   7.448   4.793  2.0548  0.6564 -2.3847
   44MOL0     H 5890   3.677   7.334   4.725  3.5923  0.6990  1.0718
   44MOL0     H 5891   3.702   7.100   4.824  0.8972 -0.3158  1.2397
   44MOL0     H 5892   3.441   6.854   4.944  0.2979 -0.4552 -2.3238
   44MOL0     H 5893   3.608   6.847   4.898  0.7735  0.4660  0.1662
   44MOL0     H 5894   3.511   6.932   5.172  1.1947 -2.2783  2.5916
   44MOL0     H 5895   3.571   6.781   5.157  0.1086  0.3175  0.1190
   44MOL0     H 5896   3.752   7.011   5.136  2.0388 -0.6116 -1.2247
   44MOL0     H 5897   3.782   6.877   5.023  2.2530 -3.4067  2.1922
   44MOL0     H 5898   3.781   6.714   5.230 -0.9439 -0.2106 -1.3285
   44MOL0     H 5899   3.734   6.850   5.330 -2.3898 -0.6393 -1.6459
   44MOL0     H 5900   3.818   7.011   5.451  0.1541 -2.8076  0.5787
   44MOL0     H 5901   3.942   7.156   5.585 -0.2735 -2.6369  1.0596
   44MOL0     H 5902   4.274   7.215   5.870  2.8934 -0.0337  2.4744
   44MOL0     H 5903   4.353   7.339   6.058 -2.3278  2.8990  2.1765
   44MOL0     H 5904   4.429   7.488   6.208 -0.7209  2.0201  1.0868
   44MOL0     H 5905   4.560   7.488   6.088 -0.5147  1.2134 -0.7852
   44MOL0     H 5906   4.596   7.733   6.153  0.3813 -0.3514 -0.5715
   44MOL0     H 5907   4.488   7.694   6.293  0.4326  2.6796 -0.8123
   44MOL0     H 5908   4.681   7.597   6.399 -2.9787 -1.1997 -0.6318
   44MOL0     H 5909   4.723   7.513   6.248 -0.4903 -0.4889  1.0919
   44MOL0     H 5910   4.789   7.790   6.326 -0.1651 -1.7763  1.7643
   44MOL0     H 5911   4.840   7.703   6.175  0.7769  0.8458 -0.5251
   44MOL0     H 5912   4.952   7.534   6.315 -0.8508 -0.9661  1.8834
   44MOL0     H 5913   4.928   7.631   6.464 -0.3173 -0.6481  0.0734
   44MOL0     H 5914   5.084   7.698   6.213  0.7129 -0.6770 -0.0153
   44MOL0     H 5915   5.030   7.830   6.319 -0.1026  0.8058 -5.2591
   44MOL0     H 5916   5.218   7.605   6.409  2.0308  0.5084  3.0594
   44MOL0     H 5917   5.148   7.731   6.507 -1.1775 -0.0794 -1.4786
   44MOL0     H 5918   5.350   7.786   6.290  0.4089 -0.3949  1.1564
   44MOL0     H 5919   5.257   7.917   6.359  2.8958  0.3225 -0.5957
   44MOL0     H 5920   4.267   7.710   5.857 -1.3050  0.7894  3.3622
   44MOL0     H 5921   4.171   7.575   5.670  0.6273  3.2987  1.4459
   44MOL0     H 5922   4.312   7.071   5.384  0.3441  1.7753  2.4061
   44MOL0     H 5923   4.183   6.896   5.248 -0.7651  0.9734 -0.8334
   44MOL0     H 5924   3.842   8.145   4.328 -0.7051  3.2307 -2.9591
   44MOL0     H 5925   3.920   8.240   4.126 -1.2146 -2.8772 -0.1769
   44MOL0     H 5926   4.221   8.077   3.677  1.7661 -1.5443 -2.4059
   44MOL0     H 5927   4.361   8.158   3.514 -1.8954 -2.7812 -0.0585
   44MOL0     H 5928   4.414   8.449   3.384 -1.8624 -2.4111  2.8536
   44MOL0     H 5929   4.466   8.286   3.348 -2.6062  1.7632 -2.2641
   44MOL0     H 5930   4.635   8.531   3.337 -1.4712  0.7039 -3.2413
   44MOL0     H 5931   4.575   8.446   3.194  0.9210 -0.6267  0.3959
   44MOL0     H 5932   4.700   8.238   3.309  1.1180  0.0056  1.9069
   44MOL0     H 5933   4.798   8.363   3.390  1.6971  2.4808 -2.6310
   44MOL0     H 5934   4.930   8.305   3.197 -0.4562 -1.9600  2.4142
   44MOL0     H 5935   4.791   8.292   3.103  1.8079 -2.0061  0.1005
   44MOL0     H 5936   4.871   8.686   3.021 -0.2388 -0.3907 -1.0112
   44MOL0     H 5937   4.486   8.491   3.745  0.6162 -0.3417 -0.3058
   44MOL0     H 5938   4.200   8.517   3.935 -0.4043 -1.3138  0.5751
   44MOL0     H 5939   4.331   8.456   4.031 -0.0070 -0.7929  0.3865
   44MOL0     H 5940   4.360   8.563   3.886  0.6873 -1.6324 -1.9983
   45MOL0     O 5941   7.909   0.189   6.296 -0.0755 -0.0607  1.1273
   45MOL0     C 5942   7.981   0.252   6.373 -0.3947  1.1416 -0.4438
   45MOL0     O 5943   7.965   0.261   6.504  0.5722  0.0049 -0.3974
   45MOL0     C 5944   7.842   0.201   6.542  0.1623 -0.5182  0.3812
   45MOL0     C 5945   7.730   0.283   6.574  0.1325  0.3349  0.1248
   45MOL0     C 5946   7.615   0.224   6.632  0.5508 -0.1968  0.3922
   45MOL0     C 5947   7.602   0.086   6.651  0.5172  0.3091  0.1316
   45MOL0     O 5948   7.497   0.022   6.705  0.0831 -0.2164 -0.6484
   45MOL0     C 5949   7.481  -0.112   6.740 -0.1758  0.6388 -0.3062
   45MOL0     C 5950   7.406  -0.188   6.630 -0.0960  0.2798 -0.2047
   45MOL0     C 5951   7.431  -0.335   6.624 -0.0040 -0.3610  0.0721
   45MOL0     C 5952   7.346  -0.396   6.507 -0.2183  0.4617 -0.1414
   45MOL0     C 5953   7.194  -0.357   6.499 -0.3302 -0.0385  0.5093
   45MOL0     C 5954   7.124  -0.418   6.376 -0.1920 -0.6674 -0.1093
   45MOL0     C 5955   6.968  -0.412   6.372 -0.8359  0.7085 -1.6231
   45MOL0     C 5956   6.903  -0.499   6.487 -0.4122 -0.9486  0.0959
   45MOL0     N 5957   6.921  -0.639   6.462 -0.3358 -0.3981  0.1947
   45MOL0     C 5958   7.018  -0.722   6.514  0.6140  0.2145 -0.0795
   45MOL0     C 5959   6.995  -0.839   6.449  0.4820 -0.2751 -0.1793
   45MOL0     C 5960   7.073  -0.965   6.463  0.5167  0.5087  0.1180
   45MOL0     C 5961   7.159  -0.974   6.337 -0.0682 -0.5228 -0.6058
   45MOL0     C 5962   7.098  -1.085   6.239  0.4396 -0.3854  0.3181
   45MOL0     C 5963   7.190  -1.084   6.107  0.2078 -1.1880  0.1671
   45MOL0     O 5964   7.321  -1.106   6.156  0.1164 -0.3320  0.0377
   45MOL0     C 5965   7.432  -1.103   6.071  0.2744  0.3648 -0.7730
   45MOL0     C 5966   7.548  -1.141   6.138 -0.6313 -0.9910 -0.6244
   45MOL0     C 5967   7.673  -1.136   6.070  0.0756  0.6891  0.1683
   45MOL0     C 5968   7.675  -1.107   5.931  0.9712  0.2849 -0.1192
   45MOL0     C 5969   7.800  -1.132   5.857 -0.1234 -0.4734 -0.1487
   45MOL0     O 5970   7.915  -1.096   5.923  0.2307  0.8636 -0.8821
   45MOL0     C 5971   8.044  -1.127   5.884  0.3974  0.0098  0.4755
   45MOL0     C 5972   8.080  -1.244   5.815 -0.5133 -0.2366  0.2692
   45MOL0     C 5973   8.220  -1.273   5.800 -0.1514  0.9614 -1.3055
   45MOL0     C 5974   8.318  -1.205   5.863 -0.4833 -0.3142  0.3189
   45MOL0     O 5975   8.443  -1.268   5.847  0.1521 -0.6454  0.1792
   45MOL0     C 5976   8.547  -1.211   5.928 -0.5918 -1.0930 -0.4649
   45MOL0     C 5977   8.659  -1.313   5.949 -0.6802  0.2734  1.0048
   45MOL0     C 5978   8.768  -1.248   6.035 -0.6377 -0.3515  0.6790
   45MOL0     C 5979   8.863  -1.355   6.086  0.2302 -0.1726 -0.5248
   45MOL0     C 5980   8.952  -1.311   6.202  0.3080 -0.1300 -0.3217
   45MOL0     C 5981   9.074  -1.221   6.166  0.2614 -0.7585  0.1509
   45MOL0     C 5982   9.170  -1.203   6.280 -0.6100 -0.7424  1.0120
   45MOL0     C 5983   9.275  -1.087   6.240 -0.4794 -0.1656  0.1640
   45MOL0    Cl 5984   9.194  -0.928   6.232 -0.1617 -0.1410 -0.4485
   45MOL0     C 5985   8.279  -1.083   5.920 -0.6563  0.7126 -0.6502
   45MOL0     C 5986   8.142  -1.043   5.932 -0.7126 -0.2926 -0.4641
   45MOL0     O 5987   7.802  -1.165   5.745 -0.0297 -0.1883 -0.1057
   45MOL0     C 5988   7.550  -1.075   5.869 -0.3816  0.7520 -1.0936
   45MOL0     C 5989   7.431  -1.066   5.940  0.0117 -0.3716 -0.1685
   45MOL0     N 5990   6.881  -0.828   6.364 -0.4695  0.0448 -1.0990
   45MOL0     N 5991   6.842  -0.709   6.376  0.8409  0.3181 -0.4528
   45MOL0     C 5992   7.709   0.006   6.606  0.5867 -0.1722  0.8052
   45MOL0     C 5993   7.829   0.065   6.558 -0.6713  0.5021  0.1340
   45MOL0     C 5994   8.096   0.323   6.323  0.0505 -0.3668 -0.3731
   45MOL0     C 5995   8.128   0.446   6.370  0.0623 -0.0636  0.5979
   45MOL0     C 5996   8.245   0.511   6.350 -0.3436 -0.7334  0.6008
   45MOL0     C 5997   8.341   0.463   6.265 -0.3574  0.4092  0.1206
   45MOL0     O 5998   8.455   0.543   6.247  1.0461  1.0278  0.5602
   45MOL0     C 5999   8.557   0.502   6.157  0.1214  0.6822  0.1362
   45MOL0     C 6000   8.647   0.407   6.248  0.2056 -0.3281 -0.8176
   45MOL0     C 6001   8.778   0.365   6.173  0.4935  0.2609 -0.5868
   45MOL0     C 6002   8.855   0.253   6.243  0.8305  0.1590 -0.3838
   45MOL0     C 6003   8.879   0.308   6.384 -0.7577 -0.6298  1.2584
   45MOL0     C 6004   8.897   0.332   6.496 -0.2866  0.6393 -0.2505
   45MOL0     C 6005   8.302   0.346   6.201 -0.5352 -0.3339  0.0339
   45MOL0     C 6006   8.181   0.278   6.230  0.4979 -0.8171  0.8272
   45MOL0     C 6007   8.165   0.147   6.154 -0.0511  0.3294  0.2508
   45MOL0     H 6008   7.722   0.389   6.554  0.8225  0.4824  0.6001
   45MOL0     H 6009   7.529   0.282   6.664 -1.7684 -2.8851 -0.5037
   45MOL0     H 6010   7.574  -0.164   6.764 -1.4191 -0.3787  2.8215
   45MOL0     H 6011   7.410  -0.105   6.823  1.4331  0.8432  1.1128
   45MOL0     H 6012   7.427  -0.138   6.535  1.2264 -1.4070 -0.8489
   45MOL0     H 6013   7.302  -0.172   6.660  0.5424  2.2101  1.1747
   45MOL0     H 6014   7.410  -0.372   6.725  1.2419  1.3395  1.0107
   45MOL0     H 6015   7.538  -0.349   6.603  0.1946  1.2062 -0.0320
   45MOL0     H 6016   7.388  -0.376   6.408  0.0827  1.8447  0.2411
   45MOL0     H 6017   7.353  -0.503   6.530 -0.1618  1.0677  3.1650
   45MOL0     H 6018   7.136  -0.390   6.586 -0.1768 -1.9512 -0.0734
   45MOL0     H 6019   7.181  -0.249   6.488 -0.9007  0.1505  2.5790
   45MOL0     H 6020   7.163  -0.373   6.284  1.4955 -1.8264 -0.0228
   45MOL0     H 6021   7.147  -0.525   6.366 -4.0705 -1.5962 -0.7259
   45MOL0     H 6022   6.918  -0.451   6.283 -1.2228 -0.1931 -1.0302
   45MOL0     H 6023   6.934  -0.310   6.392 -1.4099  0.1107  0.7966
   45MOL0     H 6024   6.947  -0.472   6.584 -1.3604 -0.5172  0.4196
   45MOL0     H 6025   6.796  -0.476   6.481 -0.2564 -0.4399 -0.8653
   45MOL0     H 6026   7.094  -0.693   6.586 -0.0882 -4.8368  3.2456
   45MOL0     H 6027   7.122  -0.960   6.561  3.5593 -2.2256 -1.1038
   45MOL0     H 6028   7.000  -1.046   6.464 -0.5568  1.4154 -1.0683
   45MOL0     H 6029   7.158  -0.880   6.282 -2.3902 -1.6670 -2.7462
   45MOL0     H 6030   7.263  -0.990   6.368  0.4744 -0.9758 -2.4828
   45MOL0     H 6031   6.992  -1.069   6.220  0.5689 -2.0909 -2.2948
   45MOL0     H 6032   7.105  -1.188   6.277  2.3490  0.5850  2.9112
   45MOL0     H 6033   7.179  -0.988   6.055 -0.6345 -0.8365  0.9691
   45MOL0     H 6034   7.156  -1.163   6.039 -0.8530  0.7225 -1.6328
   45MOL0     H 6035   7.553  -1.174   6.241 -2.1948 -1.4033 -0.6508
   45MOL0     H 6036   7.768  -1.166   6.112  0.4684 -0.6351 -1.5501
   45MOL0     H 6037   8.004  -1.313   5.780  0.8691 -2.4676  1.4235
   45MOL0     H 6038   8.252  -1.361   5.746  1.0698 -0.0077  0.8554
   45MOL0     H 6039   8.596  -1.133   5.869  0.0778 -0.5401  0.7833
   45MOL0     H 6040   8.522  -1.161   6.022  3.5595  0.3977  0.0575
   45MOL0     H 6041   8.614  -1.397   6.003  3.0369 -1.7714  1.2344
   45MOL0     H 6042   8.695  -1.353   5.854 -0.6176  2.1461  0.2069
   45MOL0     H 6043   8.834  -1.187   5.974 -0.2219  0.0126  1.4794
   45MOL0     H 6044   8.736  -1.174   6.109  0.9073 -0.7341  1.7855
   45MOL0     H 6045   8.924  -1.400   6.007 -0.6139  0.9255 -1.8407
   45MOL0     H 6046   8.801  -1.437   6.124  0.3497  0.4383  1.0725
   45MOL0     H 6047   8.995  -1.402   6.245 -2.1281 -1.8482 -1.2446
   45MOL0     H 6048   8.884  -1.257   6.270 -1.0157  0.4769 -2.0410
   45MOL0     H 6049   9.135  -1.252   6.081 -0.0658 -0.4731 -0.1954
   45MOL0     H 6050   9.040  -1.122   6.131 -0.6665 -0.4094  1.9265
   45MOL0     H 6051   9.216  -1.300   6.300  5.0609  1.2520 -0.5259
   45MOL0     H 6052   9.123  -1.163   6.371 -1.6400  0.1838  0.1051
   45MOL0     H 6053   9.342  -1.072   6.325 -3.4500  2.1534  2.3145
   45MOL0     H 6054   9.326  -1.101   6.145 -1.3305 -0.0278 -0.3257
   45MOL0     H 6055   8.358  -1.019   5.957 -0.8201  1.8475 -2.1800
   45MOL0     H 6056   8.121  -0.955   5.991  2.3593  0.1274  0.2000
   45MOL0     H 6057   7.547  -1.040   5.766 -2.4172  0.7471 -1.0651
   45MOL0     H 6058   7.336  -1.036   5.897 -0.5451 -1.9570 -0.0974
   45MOL0     H 6059   7.705  -0.102   6.597 -3.4667 -0.0964 -0.5037
   45MOL0     H 6060   7.909  -0.006   6.538 -0.2839  0.4866  1.6319
   45MOL0     H 6061   8.060   0.480   6.449 -0.0964 -0.6854  0.7316
   45MOL0     H 6062   8.270   0.606   6.396  1.9119  0.2556 -2.3270
   45MOL0     H 6063   8.613   0.589   6.121 -0.2066  0.5671 -0.6681
   45MOL0     H 6064   8.517   0.457   6.066 -2.3513  2.8815  0.0085
   45MOL0     H 6065   8.592   0.313   6.259  1.2338 -0.7496  0.9912
   45MOL0     H 6066   8.659   0.446   6.349 -1.8469  0.5386 -0.8612
   45MOL0     H 6067   8.826   0.464   6.171  1.8169 -0.3030  0.8293
   45MOL0     H 6068   8.768   0.321   6.074  0.3792  0.5481 -0.7023
   45MOL0     H 6069   8.816   0.151   6.245  0.7418  0.1997  1.2993
   45MOL0     H 6070   8.948   0.249   6.186  1.7501  0.7253  1.0432
   45MOL0     H 6071   8.908   0.337   6.602  1.5029  0.2412 -0.3896
   45MOL0     H 6072   8.362   0.319   6.115  3.2032  1.4377  1.8872
   45MOL0     H 6073   8.120   0.075   6.224 -0.3820 -0.4952 -0.7741
   45MOL0     H 6074   8.104   0.158   6.064 -2.2558 -2.3917  1.2662
   45MOL0     H 6075   8.263   0.110   6.120 -0.1361  0.5821 -0.2730
   46MOL0     O 6076   0.487   9.736   0.924  0.0080  0.0433  0.3980
   46MOL0     C 6077   0.583   9.663   0.905  0.3392  0.1277 -0.9039
   46MOL0     O 6078   0.650   9.591   1.004 -0.1197 -0.3485  0.2583
   46MOL0     C 6079   0.599   9.578   1.130 -0.3258 -1.1694  0.3690
   46MOL0     C 6080   0.530   9.684   1.206  0.4412  0.0495  0.6232
   46MOL0     C 6081   0.471   9.651   1.331 -0.1878 -0.5716  0.9829
   46MOL0     C 6082   0.488   9.529   1.383  0.2957  0.1836  1.1892
   46MOL0     O 6083   0.434   9.523   1.509  0.5406  0.2058 -0.4212
   46MOL0     C 6084   0.436   9.395   1.575 -0.3711  0.1918 -0.4864
   46MOL0     C 6085   0.441   9.417   1.726 -0.9584  0.4758  0.3789
   46MOL0     C 6086   0.372   9.297   1.805 -0.0140 -0.5646  0.5781
   46MOL0     C 6087   0.315   9.341   1.945  0.1724  0.2024  0.3528
   46MOL0     C 6088   0.416   9.350   2.051  0.2259 -0.5432 -0.1078
   46MOL0     C 6089   0.344   9.389   2.184 -0.0500 -0.1519 -0.2846
   46MOL0     C 6090   0.340   9.544   2.216 -0.8574 -0.4884  0.7791
   46MOL0     C 6091   0.245   9.581   2.332  0.6914 -1.2136 -0.2249
   46MOL0     N 6092   0.312   9.578   2.462  0.2818 -0.2193 -0.4794
   46MOL0     C 6093   0.363   9.702   2.513  0.3169 -0.3663  0.0041
   46MOL0     C 6094   0.372   9.676   2.650  0.5887  0.1161 -0.7910
   46MOL0     C 6095   0.409   9.774   2.762 -0.5074 -0.5820  0.5503
   46MOL0     C 6096   0.295   9.867   2.789 -0.4426 -0.6963 -0.8694
   46MOL0     C 6097   0.335   9.984   2.874 -1.3844 -0.5871 -0.2547
   46MOL0     C 6098   0.224  10.057   2.960 -0.2222  0.3409 -1.1309
   46MOL0     O 6099   0.269  10.175   3.032  0.5314 -0.2726 -0.0358
   46MOL0     C 6100   0.201  10.232   3.138 -0.3573 -0.1829  0.5137
   46MOL0     C 6101   0.239  10.194   3.269  0.3836 -0.9470  0.0801
   46MOL0     C 6102   0.146  10.229   3.370  0.4484  0.1631 -0.5141
   46MOL0     C 6103   0.038  10.324   3.340 -0.4706  0.2455  0.2445
   46MOL0     C 6104  -0.042  10.364   3.453 -0.4376 -0.1494  0.1432
   46MOL0     O 6105  -0.123  10.467   3.430  0.2226 -1.1106 -0.4804
   46MOL0     C 6106  -0.200  10.518   3.527  0.2548  0.1650  0.1806
   46MOL0     C 6107  -0.316  10.580   3.485 -1.4688 -0.5581 -0.4678
   46MOL0     C 6108  -0.401  10.641   3.580 -0.5756  0.2385  0.7340
   46MOL0     C 6109  -0.381  10.624   3.712 -0.2428  0.2402 -0.4880
   46MOL0     O 6110  -0.464  10.671   3.813 -0.9108 -0.6048  1.0153
   46MOL0     C 6111  -0.597  10.719   3.785 -0.2261  0.3630  1.0050
   46MOL0     C 6112  -0.661  10.797   3.908 -0.5542 -0.4264  0.4827
   46MOL0     C 6113  -0.792  10.862   3.867 -0.3040  1.4033 -0.6755
   46MOL0     C 6114  -0.904  10.764   3.842 -1.1217 -0.3154  0.0480
   46MOL0     C 6115  -1.002  10.807   3.734 -0.5915 -0.0935 -0.8477
   46MOL0     C 6116  -1.114  10.710   3.723  0.4841 -1.6183 -0.3033
   46MOL0     C 6117  -1.229  10.772   3.635 -0.5694 -0.4671  0.1960
   46MOL0     C 6118  -1.368  10.720   3.679  0.3630 -0.3986 -0.1423
   46MOL0    Cl 6119  -1.399  10.759   3.853  0.6286 -0.5606  0.2099
   46MOL0     C 6120  -0.264  10.564   3.748 -0.7554 -0.2476 -0.3156
   46MOL0     C 6121  -0.169  10.513   3.661 -0.3345  1.1304  0.9786
   46MOL0     O 6122  -0.036  10.297   3.557 -0.1748 -0.1096  0.3363
   46MOL0     C 6123   0.016  10.367   3.214 -0.7908  0.8395 -0.1680
   46MOL0     C 6124   0.096  10.319   3.113  0.4557 -1.0427  0.2328
   46MOL0     N 6125   0.320   9.553   2.679 -0.2331 -0.3092  0.3331
   46MOL0     N 6126   0.278   9.494   2.570  0.1437  0.0350 -0.5844
   46MOL0     C 6127   0.567   9.431   1.317 -0.1905 -0.9116 -0.7837
   46MOL0     C 6128   0.614   9.455   1.194  0.6421  0.5296  1.0450
   46MOL0     C 6129   0.635   9.690   0.770  0.1379 -0.3471  0.1914
   46MOL0     C 6130   0.584   9.619   0.663 -0.5406 -0.6313 -1.1354
   46MOL0     C 6131   0.630   9.651   0.542 -0.1640 -1.1275 -0.0436
   46MOL0     C 6132   0.738   9.742   0.527  0.5214  1.0026  0.3708
   46MOL0     O 6133   0.789   9.779   0.405 -0.0347 -0.1915  0.1023
   46MOL0     C 6134   0.695   9.789   0.294 -0.2224  0.3045 -0.0295
   46MOL0     C 6135   0.763   9.857   0.181  0.4237 -0.4862 -0.7685
   46MOL0     C 6136   0.774  10.007   0.227  0.9172 -0.0035 -0.4045
   46MOL0     C 6137   0.812  10.085   0.097 -0.4879 -0.0916 -0.0949
   46MOL0     C 6138   0.952  10.056   0.057  0.1554  0.0538  0.5248
   46MOL0     C 6139   1.069  10.029   0.032  0.1513 -0.1932  0.2634
   46MOL0     C 6140   0.789   9.804   0.636 -1.2132  0.0840 -0.2717
   46MOL0     C 6141   0.735   9.782   0.763  0.2752  0.4929 -0.6800
   46MOL0     C 6142   0.797   9.849   0.883 -1.4983 -0.4872  0.6962
   46MOL0     H 6143   0.526   9.780   1.157  0.5058  0.2493  1.0086
   46MOL0     H 6144   0.425   9.737   1.379  1.3614  0.5500  0.5216
   46MOL0     H 6145   0.338   9.347   1.560 -0.8880  0.7897  0.7977
   46MOL0     H 6146   0.518   9.334   1.537 -1.4458 -1.7010  0.1342
   46MOL0     H 6147   0.377   9.502   1.752  0.5312  1.3569  1.3196
   46MOL0     H 6148   0.547   9.434   1.744 -0.5935  0.2862 -1.4673
   46MOL0     H 6149   0.452   9.222   1.809  0.7117  0.2151  0.7982
   46MOL0     H 6150   0.291   9.253   1.746  2.7018  0.4645 -4.4875
   46MOL0     H 6151   0.257   9.433   1.933  0.4247  0.2675 -0.4136
   46MOL0     H 6152   0.254   9.255   1.973  2.0294 -3.0879 -4.3413
   46MOL0     H 6153   0.471   9.257   2.071  0.4228 -1.1970 -3.1072
   46MOL0     H 6154   0.494   9.424   2.028 -0.0113 -1.1556 -3.5116
   46MOL0     H 6155   0.242   9.350   2.178  0.8656 -2.5289 -1.9041
   46MOL0     H 6156   0.391   9.336   2.267  0.3207  1.1293  0.3630
   46MOL0     H 6157   0.303   9.605   2.133 -1.8092 -1.4361  0.4881
   46MOL0     H 6158   0.440   9.584   2.236 -0.6600  0.4587 -1.6896
   46MOL0     H 6159   0.214   9.683   2.311  0.6123 -0.4797  2.9470
   46MOL0     H 6160   0.154   9.522   2.347 -2.0977  2.8663  0.5280
   46MOL0     H 6161   0.389   9.795   2.463 -0.5977 -0.8670 -1.4524
   46MOL0     H 6162   0.443   9.726   2.855  1.3585  1.2605  0.8915
   46MOL0     H 6163   0.498   9.829   2.731 -1.4006  0.8153  0.3895
   46MOL0     H 6164   0.238   9.903   2.702 -1.4904 -1.5910 -0.5627
   46MOL0     H 6165   0.218   9.809   2.840 -0.0745 -1.6660 -1.3964
   46MOL0     H 6166   0.375  10.064   2.812 -3.1890  0.7755  0.2742
   46MOL0     H 6167   0.416   9.964   2.945  0.8203  1.0713 -2.1668
   46MOL0     H 6168   0.197   9.982   3.035  1.2407 -0.3152 -1.2466
   46MOL0     H 6169   0.134  10.090   2.907 -1.4314  1.0970  1.2423
   46MOL0     H 6170   0.322  10.124   3.278  2.0760  1.0389  0.8071
   46MOL0     H 6171   0.154  10.185   3.469 -0.6385  1.6704  0.2749
   46MOL0     H 6172  -0.320  10.589   3.377  3.1288 -1.7819 -0.9726
   46MOL0     H 6173  -0.481  10.708   3.548  2.2481  2.9565 -1.2661
   46MOL0     H 6174  -0.608  10.791   3.703 -0.7764  2.3244  2.7322
   46MOL0     H 6175  -0.657  10.631   3.757 -0.8206  1.5216 -1.6790
   46MOL0     H 6176  -0.669  10.731   3.995  2.8401  1.2787  2.2690
   46MOL0     H 6177  -0.594  10.877   3.942  2.1231 -1.0696 -2.7545
   46MOL0     H 6178  -0.817  10.914   3.960 -2.5316 -4.2633  2.3967
   46MOL0     H 6179  -0.783  10.920   3.775  0.8249 -2.4817 -3.2606
   46MOL0     H 6180  -0.958  10.764   3.937  0.6100  0.5668  1.0709
   46MOL0     H 6181  -0.861  10.666   3.820 -2.0352 -1.1866  1.8853
   46MOL0     H 6182  -0.948  10.811   3.640  1.9507  0.2577  0.5410
   46MOL0     H 6183  -1.034  10.911   3.749 -0.7826  0.2226 -3.1148
   46MOL0     H 6184  -1.082  10.611   3.689 -2.0483 -1.5296 -3.3887
   46MOL0     H 6185  -1.139  10.687   3.827 -0.1237 -2.4019 -0.6113
   46MOL0     H 6186  -1.208  10.751   3.530  2.0080  2.4605 -0.0143
   46MOL0     H 6187  -1.228  10.881   3.648  0.3873 -0.4511  0.0450
   46MOL0     H 6188  -1.452  10.763   3.624  0.0495 -1.8847 -0.8696
   46MOL0     H 6189  -1.372  10.612   3.661  0.2471 -0.2359 -1.1957
   46MOL0     H 6190  -0.244  10.557   3.854  0.1203  0.3124 -0.4303
   46MOL0     H 6191  -0.068  10.492   3.694 -0.5221 -0.8914  0.3884
   46MOL0     H 6192  -0.058  10.444   3.193  2.1217  2.8130 -4.8480
   46MOL0     H 6193   0.066  10.352   3.014 -0.3109 -1.7980  0.1968
   46MOL0     H 6194   0.596   9.337   1.363  1.3489  1.5488  3.9125
   46MOL0     H 6195   0.676   9.391   1.132  1.7239  4.7076 -2.8057
   46MOL0     H 6196   0.508   9.542   0.674 -0.2636 -0.6436  1.3534
   46MOL0     H 6197   0.568   9.616   0.461 -0.9937  1.8753 -0.8210
   46MOL0     H 6198   0.601   9.844   0.304 -1.1287 -0.8337 -1.7106
   46MOL0     H 6199   0.672   9.684   0.271 -4.9731  0.7805  1.4753
   46MOL0     H 6200   0.716   9.841   0.083  0.1711  1.9061 -1.0952
   46MOL0     H 6201   0.866   9.821   0.168  1.3770  0.6751  2.7114
   46MOL0     H 6202   0.838  10.024   0.315 -3.2919  0.7698  2.8436
   46MOL0     H 6203   0.679  10.045   0.266  2.7471  2.2470  2.3327
   46MOL0     H 6204   0.751  10.070   0.007  1.3809  4.1177 -2.3673
   46MOL0     H 6205   0.803  10.192   0.115  0.2890  0.2902 -1.7283
   46MOL0     H 6206   1.173  10.024   0.005  0.4929  1.1175  1.2615
   46MOL0     H 6207   0.875   9.868   0.620 -0.7974 -0.8457 -2.1199
   46MOL0     H 6208   0.895   9.885   0.849 -2.6720 -0.6314 -3.2927
   46MOL0     H 6209   0.742   9.938   0.913 -0.8838  0.2928 -0.4387
   46MOL0     H 6210   0.820   9.786   0.969  1.8019 -0.2117  0.1769
   47MOL0     O 6211  11.203   6.814   7.976  0.1175 -0.8169 -1.3216
   47MOL0     C 6212  11.231   6.814   7.853 -0.2079 -0.3734 -0.3295
   47MOL0     O 6213  11.168   6.885   7.763 -0.0671 -0.3283 -0.8023
   47MOL0     C 6214  11.074   6.977   7.825  0.4712  0.5684  0.2629
   47MOL0     C 6215  11.104   7.112   7.839 -0.8094 -0.1456 -0.3597
   47MOL0     C 6216  11.007   7.202   7.883 -0.3259  0.3901  0.8007
   47MOL0     C 6217  10.882   7.153   7.933 -0.2328  0.2546  0.4429
   47MOL0     O 6218  10.791   7.244   7.982  1.1880  0.7929  0.1523
   47MOL0     C 6219  10.825   7.383   8.004 -0.1959  0.3485  0.0006
   47MOL0     C 6220  10.908   7.403   8.132 -0.1270  0.2453 -0.0904
   47MOL0     C 6221  10.848   7.357   8.256  0.1105 -0.8392  0.2473
   47MOL0     C 6222  10.939   7.380   8.375  0.3908 -0.9546  0.1338
   47MOL0     C 6223  10.879   7.336   8.513  0.0146  0.1729  0.6678
   47MOL0     C 6224  10.906   7.189   8.563  0.4582  0.5838  0.3805
   47MOL0     C 6225  10.832   7.170   8.704  0.0742  0.3362  0.9155
   47MOL0     C 6226  10.835   7.023   8.760  0.5618 -0.3382  1.2161
   47MOL0     N 6227  10.731   6.926   8.718  0.5457  0.6149 -0.1513
   47MOL0     C 6228  10.614   6.952   8.648  0.4048 -0.1089  0.6761
   47MOL0     C 6229  10.553   6.830   8.646  0.4855  0.5334 -0.6506
   47MOL0     C 6230  10.429   6.784   8.574  0.5365  0.5883 -0.5270
   47MOL0     C 6231  10.320   6.783   8.676 -0.0544  0.2294 -0.3399
   47MOL0     C 6232  10.321   6.647   8.754 -0.6154  0.8553 -0.2570
   47MOL0     C 6233  10.266   6.651   8.897 -1.3490 -0.6704  0.2768
   47MOL0     O 6234  10.137   6.714   8.888 -0.1733  0.0801  0.0464
   47MOL0     C 6235  10.062   6.750   9.000 -0.4976  0.4344 -0.2479
   47MOL0     C 6236  10.077   6.693   9.132 -0.0572  0.2328 -0.2701
   47MOL0     C 6237   9.998   6.740   9.242  0.0441 -0.0729 -0.2893
   47MOL0     C 6238   9.893   6.835   9.216 -0.6843 -0.3539 -0.2825
   47MOL0     C 6239   9.818   6.885   9.336 -0.2804 -0.1904  0.2848
   47MOL0     O 6240   9.799   6.805   9.445 -0.0876  0.4306  0.0225
   47MOL0     C 6241   9.765   6.859   9.566 -0.6966  0.1138  0.3108
   47MOL0     C 6242   9.813   6.981   9.610  0.0378 -0.5532  1.1490
   47MOL0     C 6243   9.787   7.023   9.739  0.6271 -0.1452  0.9769
   47MOL0     C 6244   9.712   6.955   9.839 -0.3110  0.7828 -0.3475
   47MOL0     O 6245   9.710   7.007   9.968 -0.5149 -0.2153  0.4086
   47MOL0     C 6246   9.607   6.953  10.049 -0.8258 -0.8399 -0.3915
   47MOL0     C 6247   9.624   6.993  10.196 -0.4627 -0.2485 -0.5752
   47MOL0     C 6248   9.524   7.109  10.214  0.1404 -0.3778 -0.3434
   47MOL0     C 6249   9.559   7.203  10.333  0.2369  0.2443 -0.3340
   47MOL0     C 6250   9.433   7.256  10.394  0.0766  0.0439 -0.1685
   47MOL0     C 6251   9.341   7.312  10.296 -0.0075  0.4153 -0.4291
   47MOL0     C 6252   9.217   7.375  10.365 -0.4089 -1.0366  0.6197
   47MOL0     C 6253   9.110   7.408  10.263  0.4211  0.5498  0.6911
   47MOL0    Cl 6254   9.043   7.266  10.168  0.6302  0.2605  0.2897
   47MOL0     C 6255   9.664   6.829   9.799 -0.0494  0.2921  0.3570
   47MOL0     C 6256   9.687   6.783   9.660 -0.5425 -0.3365 -0.2178
   47MOL0     O 6257   9.775   6.998   9.324  0.2243 -0.1846 -0.5322
   47MOL0     C 6258   9.871   6.871   9.084  0.0231 -0.5295  0.8220
   47MOL0     C 6259   9.963   6.842   8.980  1.6493 -0.7538  0.2304
   47MOL0     N 6260  10.636   6.749   8.705 -0.7261  0.3811 -0.2620
   47MOL0     N 6261  10.743   6.797   8.750  0.2630  0.5691 -0.0204
   47MOL0     C 6262  10.852   7.015   7.911  0.1106  0.1331  0.7569
   47MOL0     C 6263  10.947   6.932   7.862 -0.7447 -0.3704 -0.9209
   47MOL0     C 6264  11.337   6.725   7.806  0.6514  0.0708  0.4798
   47MOL0     C 6265  11.341   6.688   7.667  0.2953  1.4026  0.2676
   47MOL0     C 6266  11.440   6.602   7.612 -0.0158  0.0497 -0.0858
   47MOL0     C 6267  11.520   6.524   7.701 -0.2234 -0.0958 -0.3328
   47MOL0     O 6268  11.611   6.432   7.661 -0.0187  0.5195 -0.4200
   47MOL0     C 6269  11.574   6.293   7.635  0.2078  0.0656  0.2150
   47MOL0     C 6270  11.633   6.196   7.746  0.0728 -0.3991 -0.3168
   47MOL0     C 6271  11.586   6.051   7.712 -1.0444 -0.1407  0.4199
   47MOL0     C 6272  11.666   5.951   7.799 -0.0739  0.0120 -0.6401
   47MOL0     C 6273  11.599   5.941   7.931 -0.6450 -0.2961  0.2902
   47MOL0     C 6274  11.528   5.905   8.027  0.6368  0.2764 -0.2690
   47MOL0     C 6275  11.519   6.562   7.838 -0.1702  0.2976  0.3902
   47MOL0     C 6276  11.429   6.660   7.888 -0.3730  0.3357 -0.5491
   47MOL0     C 6277  11.435   6.682   8.038  0.8967  0.6215  0.4070
   47MOL0     H 6278  11.197   7.159   7.809  1.1578 -2.4020  1.7445
   47MOL0     H 6279  11.031   7.307   7.872 -1.5036  0.5413 -0.5043
   47MOL0     H 6280  10.870   7.428   7.915 -1.2523  0.9006 -0.2812
   47MOL0     H 6281  10.732   7.440   8.015 -0.6207 -0.3909  0.3442
   47MOL0     H 6282  10.940   7.505   8.154  1.1946  0.0961 -1.2008
   47MOL0     H 6283  11.006   7.355   8.119 -1.0228 -1.6714 -0.1967
   47MOL0     H 6284  10.826   7.250   8.247  1.9132 -1.2457  0.4184
   47MOL0     H 6285  10.749   7.401   8.273 -0.4139 -1.8889  0.0175
   47MOL0     H 6286  11.036   7.332   8.361  0.8021 -0.1869  0.2943
   47MOL0     H 6287  10.966   7.485   8.390 -2.3868 -0.2596  0.8958
   47MOL0     H 6288  10.946   7.385   8.584  1.5316 -0.8730  0.0292
   47MOL0     H 6289  10.778   7.370   8.536 -0.5970 -0.7421 -0.5622
   47MOL0     H 6290  10.866   7.113   8.495  0.8922 -1.7750  2.6263
   47MOL0     H 6291  11.013   7.166   8.566 -0.0527 -2.4648 -0.6646
   47MOL0     H 6292  10.729   7.206   8.704 -0.2352 -0.5246  1.5384
   47MOL0     H 6293  10.888   7.239   8.769  2.7561 -0.3212 -0.5312
   47MOL0     H 6294  10.932   6.977   8.739 -0.0142 -1.4393  0.8681
   47MOL0     H 6295  10.825   7.038   8.868  2.4310  3.6514  1.0047
   47MOL0     H 6296  10.582   7.043   8.599  2.2525 -1.3549 -3.2139
   47MOL0     H 6297  10.391   6.863   8.510  1.7820 -0.8790 -3.2247
   47MOL0     H 6298  10.444   6.688   8.525 -0.2996 -0.4629  1.1823
   47MOL0     H 6299  10.331   6.866   8.746  0.3875  2.1849 -2.6111
   47MOL0     H 6300  10.226   6.790   8.620 -0.0807  1.8323 -0.1236
   47MOL0     H 6301  10.423   6.614   8.777 -0.7408  0.7379  0.1529
   47MOL0     H 6302  10.266   6.568   8.702 -2.2437  1.8932 -0.1678
   47MOL0     H 6303  10.340   6.693   8.965  0.5628 -4.7645  1.0475
   47MOL0     H 6304  10.264   6.551   8.941 -0.0230 -0.0192  1.9271
   47MOL0     H 6305  10.161   6.627   9.152 -0.0555  0.8579  2.0529
   47MOL0     H 6306  10.029   6.694   9.335  0.1935 -0.1737 -0.3900
   47MOL0     H 6307   9.878   7.040   9.546 -0.0506 -1.1284  0.5206
   47MOL0     H 6308   9.821   7.122   9.768  1.4728 -0.3280  0.6401
   47MOL0     H 6309   9.507   6.968  10.008 -0.7460  0.3399 -0.1949
   47MOL0     H 6310   9.633   6.847  10.044  1.1344 -0.3616 -1.0595
   47MOL0     H 6311   9.615   6.900  10.253  1.2581 -0.2803 -0.2990
   47MOL0     H 6312   9.729   7.019  10.207 -0.4361 -0.2306 -0.8427
   47MOL0     H 6313   9.524   7.174  10.126  0.1075  0.2914  0.1358
   47MOL0     H 6314   9.427   7.064  10.236  1.7563 -2.3614  3.9128
   47MOL0     H 6315   9.613   7.289  10.292  1.7489 -1.3301 -1.7567
   47MOL0     H 6316   9.626   7.165  10.411 -0.0079 -0.5892 -0.5253
   47MOL0     H 6317   9.455   7.337  10.463 -1.4233 -0.2884  0.7318
   47MOL0     H 6318   9.388   7.179  10.457 -3.2749  1.8832 -0.0671
   47MOL0     H 6319   9.395   7.392  10.245 -1.4650  1.5356 -0.2977
   47MOL0     H 6320   9.308   7.234  10.226  3.6011 -2.2579  0.5537
   47MOL0     H 6321   9.241   7.469  10.415  1.0153 -2.0850  2.0185
   47MOL0     H 6322   9.174   7.312  10.444 -1.5188  1.0536  1.7532
   47MOL0     H 6323   9.027   7.447  10.324  0.1050 -0.0136  0.6278
   47MOL0     H 6324   9.144   7.483  10.191  0.4483 -0.3424 -0.2351
   47MOL0     H 6325   9.594   6.775   9.862 -0.6153  1.3774  0.6860
   47MOL0     H 6326   9.655   6.686   9.622 -1.1353  0.7738 -2.7838
   47MOL0     H 6327   9.790   6.937   9.054 -2.0208 -2.9598  0.7105
   47MOL0     H 6328   9.947   6.884   8.882 -0.5426 -0.2222  0.7678
   47MOL0     H 6329  10.753   6.985   7.944  0.4588  1.2947  3.1620
   47MOL0     H 6330  10.938   6.825   7.850 -0.2394 -0.5534  0.2139
   47MOL0     H 6331  11.262   6.718   7.599 -1.3876 -1.2926  0.8466
   47MOL0     H 6332  11.421   6.582   7.507 -2.2913  2.9148 -0.3355
   47MOL0     H 6333  11.608   6.271   7.533  0.4292 -0.7743  0.4602
   47MOL0     H 6334  11.464   6.288   7.638  0.1825  0.7000  0.4095
   47MOL0     H 6335  11.600   6.203   7.850 -0.1177 -2.3213 -0.2025
   47MOL0     H 6336  11.742   6.207   7.748  0.2201 -1.8124  1.3567
   47MOL0     H 6337  11.622   6.032   7.611  0.7562  2.6263  0.4438
   47MOL0     H 6338  11.477   6.044   7.714 -1.0860 -1.6736 -2.6451
   47MOL0     H 6339  11.661   5.851   7.754  4.3237 -0.5097 -0.3908
   47MOL0     H 6340  11.774   5.964   7.808 -0.1043 -0.4003  0.6607
   47MOL0     H 6341  11.460   5.876   8.105  0.0274 -3.4416 -1.9896
   47MOL0     H 6342  11.589   6.522   7.911  1.5762  0.6504 -1.0155
   47MOL0     H 6343  11.355   6.622   8.082 -1.4711  2.8719 -0.5210
   47MOL0     H 6344  11.524   6.643   8.088 -0.7180  0.0725  3.0043
   47MOL0     H 6345  11.416   6.788   8.058 -2.3735  0.5487 -1.6380
   48MOL0     O 6346  11.132   9.518  10.381  0.7249 -0.5966 -0.1635
   48MOL0     C 6347  11.248   9.510  10.333  0.9217  0.0296 -0.9779
   48MOL0     O 6348  11.361   9.514  10.408 -0.8776 -0.5152  0.0138
   48MOL0     C 6349  11.344   9.534  10.546 -0.4300 -0.0610  0.0089
   48MOL0     C 6350  11.367   9.658  10.610  0.2477  0.5436  0.2053
   48MOL0     C 6351  11.358   9.682  10.749 -0.5951 -0.2637  0.4522
   48MOL0     C 6352  11.328   9.576  10.831  0.2211 -0.2607 -1.0298
   48MOL0     O 6353  11.296   9.609  10.963 -0.7694  0.3917  0.4497
   48MOL0     C 6354  11.251   9.498  11.037  0.6319 -0.3753 -0.3362
   48MOL0     C 6355  11.223   9.563  11.179 -0.7709 -0.4107 -0.1927
   48MOL0     C 6356  11.344   9.615  11.264  0.2240  0.7675 -0.7476
   48MOL0     C 6357  11.311   9.624  11.415  0.5343  0.6381 -0.5088
   48MOL0     C 6358  11.207   9.730  11.449  1.0266 -0.2204 -0.9769
   48MOL0     C 6359  11.190   9.741  11.611 -0.3576  0.2268  0.6883
   48MOL0     C 6360  11.311   9.798  11.694  0.4261 -0.3762  0.0673
   48MOL0     C 6361  11.271   9.832  11.833 -0.5474  0.7465 -0.2690
   48MOL0     N 6362  11.206   9.714  11.903  0.2042  0.2192 -0.4502
   48MOL0     C 6363  11.139   9.720  12.020 -0.0299  0.7655  0.0137
   48MOL0     C 6364  11.121   9.587  12.052 -0.3171 -0.0133 -0.1047
   48MOL0     C 6365  11.041   9.534  12.181 -0.1767 -0.0577  0.8463
   48MOL0     C 6366  11.111   9.412  12.244 -0.3710 -0.5640 -0.6492
   48MOL0     C 6367  11.266   9.416  12.245 -1.1073 -0.3033 -0.3768
   48MOL0     C 6368  11.331   9.315  12.341  0.6346  0.8696 -0.3792
   48MOL0     O 6369  11.310   9.178  12.293 -0.2281  1.0071  0.0913
   48MOL0     C 6370  11.306   9.080  12.392  0.6561 -0.1659  0.5174
   48MOL0     C 6371  11.408   9.065  12.480 -0.1612  0.1459 -0.0617
   48MOL0     C 6372  11.420   8.947  12.549  0.9278 -0.5840 -0.8640
   48MOL0     C 6373  11.322   8.835  12.542  0.5554 -1.1688 -0.0307
   48MOL0     C 6374  11.354   8.700  12.607 -0.0831 -0.3381 -0.2960
   48MOL0     O 6375  11.455   8.707  12.707  0.1042  0.0902  0.0835
   48MOL0     C 6376  11.487   8.590  12.769 -0.0285 -0.2175 -0.5471
   48MOL0     C 6377  11.551   8.492  12.698 -0.6163 -0.7761  0.3225
   48MOL0     C 6378  11.576   8.366  12.764  0.7459  0.5663  0.2276
   48MOL0     C 6379  11.551   8.351  12.904  1.8895  0.4856  0.4760
   48MOL0     O 6380  11.572   8.240  12.983  0.4839 -0.7477  0.4127
   48MOL0     C 6381  11.637   8.127  12.924  0.2769  0.1938 -0.1181
   48MOL0     C 6382  11.694   8.052  13.037  0.1051 -0.0946 -0.5082
   48MOL0     C 6383  11.803   8.133  13.119  0.7928  0.4204  0.2130
   48MOL0     C 6384  11.856   8.069  13.249  0.0786  0.5639 -0.6618
   48MOL0     C 6385  11.977   8.137  13.319  0.3991  0.2651  0.6660
   48MOL0     C 6386  11.945   8.284  13.337 -1.3478 -0.0394 -1.3834
   48MOL0     C 6387  12.044   8.345  13.445 -0.9816 -0.0810 -0.0701
   48MOL0     C 6388  12.198   8.321  13.420  0.5598  0.1479 -0.4058
   48MOL0    Cl 6389  12.233   8.384  13.255 -0.5285 -0.0608  0.0221
   48MOL0     C 6390  11.490   8.458  12.969  1.0529  0.1436 -0.4678
   48MOL0     C 6391  11.459   8.575  12.906  0.5399  0.6526  0.1852
   48MOL0     O 6392  11.285   8.600  12.573  0.0245  0.2802 -0.9566
   48MOL0     C 6393  11.228   8.843  12.434 -0.1564 -0.9189  0.2099
   48MOL0     C 6394  11.213   8.976  12.367 -0.9346 -0.2972 -0.2489
   48MOL0     N 6395  11.173   9.514  11.954 -0.2892 -0.1502  0.4203
   48MOL0     N 6396  11.227   9.586  11.871 -0.6836 -0.4280 -0.1490
   48MOL0     C 6397  11.309   9.442  10.773  0.0412 -1.2858  0.1256
   48MOL0     C 6398  11.325   9.423  10.640 -0.2263  0.1888  0.3422
   48MOL0     C 6399  11.273   9.495  10.193  0.0863  0.4449 -0.2643
   48MOL0     C 6400  11.400   9.510  10.140 -0.0161  0.1189  0.0981
   48MOL0     C 6401  11.425   9.532  10.006 -0.0765  0.1305  0.3545
   48MOL0     C 6402  11.327   9.512   9.906 -0.1020 -0.9687 -1.1436
   48MOL0     O 6403  11.354   9.528   9.769 -0.2059 -0.0535  0.0555
   48MOL0     C 6404  11.472   9.594   9.721 -0.1234 -0.8758  0.0567
   48MOL0     C 6405  11.440   9.648   9.584 -0.1075 -0.2219  0.2540
   48MOL0     C 6406  11.567   9.658   9.509 -0.0378  0.0385  0.8265
   48MOL0     C 6407  11.530   9.654   9.351 -0.1173  0.5273 -0.6553
   48MOL0     C 6408  11.648   9.689   9.268  0.0853 -0.9984 -0.1737
   48MOL0     C 6409  11.743   9.719   9.201 -0.1134 -0.8441  0.5203
   48MOL0     C 6410  11.198   9.490   9.960 -1.1286 -0.7853  0.9626
   48MOL0     C 6411  11.170   9.495  10.099 -0.4597 -0.9553  0.2419
   48MOL0     C 6412  11.024   9.456  10.136 -0.8994 -0.0883  0.7938
   48MOL0     H 6413  11.373   9.742  10.541 -2.9274  1.6106  1.0425
   48MOL0     H 6414  11.391   9.773  10.799 -0.3774  0.2968 -0.6737
   48MOL0     H 6415  11.160   9.451  11.000  1.9009 -2.2891 -1.1967
   48MOL0     H 6416  11.321   9.414  11.043  2.6581  1.0466 -2.1437
   48MOL0     H 6417  11.176   9.480  11.232  1.4128 -1.4371  0.2347
   48MOL0     H 6418  11.153   9.647  11.171  1.6422  1.6668 -0.9395
   48MOL0     H 6419  11.377   9.717  11.244  0.7536  0.9434  0.9265
   48MOL0     H 6420  11.423   9.543  11.237  0.3374 -0.2104  1.9248
   48MOL0     H 6421  11.279   9.527  11.454 -0.2199  1.9037  2.3036
   48MOL0     H 6422  11.401   9.659  11.465 -0.1063 -0.2114  1.3255
   48MOL0     H 6423  11.237   9.824  11.401 -1.4771  1.7599  1.0719
   48MOL0     H 6424  11.119   9.692  11.396  0.1936  0.9551 -0.4908
   48MOL0     H 6425  11.106   9.812  11.617  0.9982  1.9497  0.1337
   48MOL0     H 6426  11.159   9.639  11.633  0.8945 -0.3260 -0.0015
   48MOL0     H 6427  11.361   9.879  11.641 -2.4586  1.3316 -0.2630
   48MOL0     H 6428  11.391   9.724  11.702  0.8807 -0.2161 -2.3410
   48MOL0     H 6429  11.355   9.876  11.886  0.4154 -0.7926 -0.4600
   48MOL0     H 6430  11.196   9.907  11.805 -2.7112 -0.6142  1.5302
   48MOL0     H 6431  11.120   9.808  12.081 -0.9143  0.2166  0.5593
   48MOL0     H 6432  11.032   9.620  12.249  0.2535  0.3009  0.4537
   48MOL0     H 6433  10.939   9.511  12.149 -0.2961  1.1764  0.2563
   48MOL0     H 6434  11.087   9.408  12.351 -0.7325  1.4577 -0.6151
   48MOL0     H 6435  11.092   9.325  12.181  2.5743 -1.2142 -0.7929
   48MOL0     H 6436  11.306   9.513  12.275 -0.3785  0.1256 -2.5634
   48MOL0     H 6437  11.298   9.387  12.144  0.1605 -1.9871  0.4665
   48MOL0     H 6438  11.287   9.323  12.440  1.7562 -1.1938  0.3477
   48MOL0     H 6439  11.438   9.334  12.356  0.1993  1.1026  3.3602
   48MOL0     H 6440  11.483   9.141  12.502 -2.3741  2.8436 -1.2072
   48MOL0     H 6441  11.497   8.929  12.623 -1.4579 -1.9753  1.4310
   48MOL0     H 6442  11.567   8.510  12.593 -1.3429  2.0237  0.6216
   48MOL0     H 6443  11.629   8.296  12.701  2.7151  3.1088 -1.1198
   48MOL0     H 6444  11.575   8.049  12.879  3.8008 -3.9006  1.3858
   48MOL0     H 6445  11.717   8.142  12.850  1.9593  0.1527  1.6040
   48MOL0     H 6446  11.612   8.015  13.099  1.3652 -1.3648  0.4623
   48MOL0     H 6447  11.750   7.963  13.007 -1.1930 -0.1225 -3.0835
   48MOL0     H 6448  11.898   8.134  13.065  0.8650 -1.5882  0.2224
   48MOL0     H 6449  11.775   8.237  13.140  3.9117  1.9539 -2.3839
   48MOL0     H 6450  11.885   7.964  13.235  1.0208  0.4966  1.3647
   48MOL0     H 6451  11.768   8.065  13.313 -0.5634  3.6399 -1.2021
   48MOL0     H 6452  12.070   8.118  13.264 -0.7153 -1.3777 -0.7676
   48MOL0     H 6453  12.004   8.092  13.415 -0.4072 -0.9977  0.3324
   48MOL0     H 6454  11.960   8.350  13.251  2.0768  1.7705  0.4014
   48MOL0     H 6455  11.841   8.296  13.369 -1.6755  0.8928 -2.6898
   48MOL0     H 6456  12.010   8.313  13.543  0.2938  2.4211  1.2927
   48MOL0     H 6457  12.029   8.453  13.435  1.0126  0.0638 -2.5188
   48MOL0     H 6458  12.265   8.359  13.497 -0.8707 -0.8843  1.4447
   48MOL0     H 6459  12.223   8.214  13.423  1.4339  0.3493 -0.2614
   48MOL0     H 6460  11.466   8.446  13.074  0.9121  4.0260  0.0658
   48MOL0     H 6461  11.413   8.649  12.971 -1.2699 -1.0570  0.9458
   48MOL0     H 6462  11.154   8.767  12.408 -0.4009 -0.4287 -0.5892
   48MOL0     H 6463  11.146   8.980  12.282  0.0115 -0.9782 -1.0605
   48MOL0     H 6464  11.278   9.355  10.829  2.7178 -0.0670  3.9375
   48MOL0     H 6465  11.301   9.328  10.595 -0.2370 -0.0062  0.7561
   48MOL0     H 6466  11.484   9.522  10.208 -1.9449  2.0781  2.3252
   48MOL0     H 6467  11.530   9.548   9.984  0.0137  0.0843  0.7349
   48MOL0     H 6468  11.555   9.525   9.733  1.7739  1.0374 -1.3028
   48MOL0     H 6469  11.495   9.684   9.779  2.4492 -1.0807 -0.5399
   48MOL0     H 6470  11.391   9.745   9.592  0.3549 -0.1377  4.1423
   48MOL0     H 6471  11.370   9.574   9.546  0.7699 -2.7187  3.0483
   48MOL0     H 6472  11.627   9.570   9.534  0.7226  0.8457  1.9102
   48MOL0     H 6473  11.628   9.740   9.546  2.4925 -0.8424 -1.0880
   48MOL0     H 6474  11.494   9.554   9.325  2.3004 -0.9523  1.1817
   48MOL0     H 6475  11.443   9.715   9.324  0.6175  1.5381 -0.8126
   48MOL0     H 6476  11.820   9.772   9.148 -0.5142  1.1124  1.7632
   48MOL0     H 6477  11.117   9.469   9.890 -1.3733 -1.1629  1.3531
   48MOL0     H 6478  10.974   9.458  10.039  2.7061 -1.2738 -1.3166
   48MOL0     H 6479  11.014   9.356  10.178  0.3808 -0.8970 -0.7017
   48MOL0     H 6480  10.977   9.532  10.198  1.0489  1.3097  0.6444
   49MOL0     O 6481   1.054   1.351   1.891  0.1718 -0.3359  0.7779
   49MOL0     C 6482   1.151   1.282   1.861  0.1610  0.0156 -0.6849
   49MOL0     O 6483   1.236   1.288   1.750 -1.0884 -0.5191  0.4603
   49MOL0     C 6484   1.213   1.392   1.670  1.0485 -1.1025  0.6726
   49MOL0     C 6485   1.312   1.487   1.664 -0.2649 -0.3965 -0.1715
   49MOL0     C 6486   1.303   1.600   1.588  0.2513 -0.5304  0.2015
   49MOL0     C 6487   1.194   1.618   1.504 -0.5830  0.2977 -0.0592
   49MOL0     O 6488   1.200   1.727   1.419  0.9392  0.5504  0.7347
   49MOL0     C 6489   1.158   1.710   1.277  0.1680 -0.5904  1.0569
   49MOL0     C 6490   1.259   1.787   1.182  0.2479  0.0415  1.2582
   49MOL0     C 6491   1.230   1.941   1.165  0.7378  0.3120 -0.1111
   49MOL0     C 6492   1.211   1.986   1.019 -0.3605 -0.2116 -0.1860
   49MOL0     C 6493   1.190   2.134   1.014 -0.3405 -0.9819 -0.1666
   49MOL0     C 6494   1.156   2.171   0.875 -0.2339  0.7334  0.7102
   49MOL0     C 6495   1.161   2.321   0.844 -0.2479 -0.2443 -0.7849
   49MOL0     C 6496   1.092   2.415   0.949 -0.9515  0.6149 -0.2896
   49MOL0     N 6497   0.943   2.391   0.954  0.0338  0.3678  0.2417
   49MOL0     C 6498   0.844   2.472   0.910  0.2641 -0.3431  0.4324
   49MOL0     C 6499   0.730   2.399   0.937  0.5989  0.0149 -0.3450
   49MOL0     C 6500   0.588   2.450   0.898 -0.1863 -0.3578  0.9079
   49MOL0     C 6501   0.466   2.349   0.881 -0.1416 -0.1550 -0.4516
   49MOL0     C 6502   0.343   2.413   0.938  0.6337  0.8914  0.2577
   49MOL0     C 6503   0.215   2.351   0.876  0.2206  0.4017 -0.2041
   49MOL0     O 6504   0.106   2.393   0.952  0.3846 -0.7276 -0.1643
   49MOL0     C 6505  -0.019   2.338   0.921 -0.3153  0.3230  0.2854
   49MOL0     C 6506  -0.048   2.211   0.971  0.1975 -0.0071 -0.5642
   49MOL0     C 6507  -0.152   2.135   0.927  0.4324 -0.1579 -0.6143
   49MOL0     C 6508  -0.227   2.177   0.821 -0.0569 -0.2821 -0.1346
   49MOL0     C 6509  -0.340   2.105   0.770  0.0539  0.8716 -0.2249
   49MOL0     O 6510  -0.389   2.152   0.658  0.2866 -0.6265  0.6652
   49MOL0     C 6511  -0.497   2.092   0.603 -0.0206  0.4339  0.0979
   49MOL0     C 6512  -0.623   2.124   0.639 -1.7096 -0.0821 -0.2721
   49MOL0     C 6513  -0.737   2.070   0.587 -0.2330 -0.1632 -0.1096
   49MOL0     C 6514  -0.723   1.980   0.485  0.3031  0.3642 -0.5700
   49MOL0     O 6515  -0.843   1.921   0.445 -0.3230  0.8066 -0.3137
   49MOL0     C 6516  -0.843   1.785   0.393 -0.4938  0.2996  0.3433
   49MOL0     C 6517  -0.829   1.785   0.239 -0.4070 -0.2861  0.9962
   49MOL0     C 6518  -0.857   1.651   0.173 -0.5962  0.3413  0.1979
   49MOL0     C 6519  -0.833   1.650   0.029 -0.0135  0.3461  0.6833
   49MOL0     C 6520  -0.698   1.592  -0.020 -0.2494  0.4280 -0.1330
   49MOL0     C 6521  -0.698   1.439  -0.023  0.6776  0.2378 -0.0170
   49MOL0     C 6522  -0.586   1.370  -0.096 -0.0634  0.1543 -0.4071
   49MOL0     C 6523  -0.594   1.372  -0.253 -0.5062  0.9291  0.1595
   49MOL0    Cl 6524  -0.445   1.278  -0.318 -0.0250 -0.2371  0.1540
   49MOL0     C 6525  -0.590   1.930   0.448 -0.3469  0.2537 -0.3899
   49MOL0     C 6526  -0.481   1.995   0.499  0.0186 -0.0458 -0.4330
   49MOL0     O 6527  -0.376   2.004   0.833  0.4752 -0.0835  0.4230
   49MOL0     C 6528  -0.194   2.301   0.761 -1.6275 -0.4004 -0.1154
   49MOL0     C 6529  -0.092   2.380   0.816  0.2226  0.0056 -0.1821
   49MOL0     N 6530   0.759   2.277   0.992 -0.0794 -0.6477  0.3700
   49MOL0     N 6531   0.890   2.274   1.004  0.0574 -0.4361 -0.1016
   49MOL0     C 6532   1.094   1.519   1.497  0.0604  0.7800 -0.7220
   49MOL0     C 6533   1.099   1.406   1.588  0.2618 -0.7561 -0.0977
   49MOL0     C 6534   1.173   1.170   1.951 -0.7826  0.2194  0.0239
   49MOL0     C 6535   1.233   1.049   1.911  0.0759 -0.6975 -0.9966
   49MOL0     C 6536   1.256   0.945   2.001  0.7270  0.4042 -0.4552
   49MOL0     C 6537   1.212   0.943   2.140 -0.3207 -0.3522  0.4561
   49MOL0     O 6538   1.201   0.824   2.205  0.2841 -0.6015 -0.5463
   49MOL0     C 6539   1.222   0.845   2.348  0.4658 -0.0094 -0.0930
   49MOL0     C 6540   1.221   0.710   2.415 -0.1260 -0.2641 -0.6044
   49MOL0     C 6541   1.142   0.703   2.550 -0.7208 -0.4291  0.3503
   49MOL0     C 6542   1.208   0.763   2.665  0.3753 -0.0816 -0.8247
   49MOL0     C 6543   1.141   0.721   2.794  0.5615  0.1441  0.8384
   49MOL0     C 6544   1.107   0.686   2.906  0.0853 -0.2497  0.2608
   49MOL0     C 6545   1.171   1.063   2.186 -0.9658 -0.4034  0.7536
   49MOL0     C 6546   1.154   1.179   2.096 -0.0895  0.9174  0.7866
   49MOL0     C 6547   1.112   1.308   2.160  0.5060  0.9520  0.0726
   49MOL0     H 6548   1.400   1.470   1.725  3.2096 -0.2356 -4.5971
   49MOL0     H 6549   1.369   1.685   1.576  1.4405 -1.8485 -4.3916
   49MOL0     H 6550   1.168   1.603   1.254  0.5499 -0.7228  1.7938
   49MOL0     H 6551   1.056   1.736   1.249  1.0408  3.8484  1.2699
   49MOL0     H 6552   1.237   1.748   1.082 -2.3609  0.6636  1.5205
   49MOL0     H 6553   1.365   1.771   1.207  1.3571  3.0039 -0.8709
   49MOL0     H 6554   1.296   2.004   1.225  0.8761  0.5527 -0.5153
   49MOL0     H 6555   1.130   1.950   1.209 -0.6632 -1.8277 -2.5415
   49MOL0     H 6556   1.302   1.975   0.959 -0.8373  1.3668 -1.2674
   49MOL0     H 6557   1.123   1.940   0.973 -0.8119  0.7136 -0.2679
   49MOL0     H 6558   1.122   2.170   1.092  0.6326 -0.9346  0.6906
   49MOL0     H 6559   1.282   2.179   1.052 -1.3948 -0.5122  1.9757
   49MOL0     H 6560   1.220   2.110   0.810 -1.5578 -1.6191  1.4784
   49MOL0     H 6561   1.054   2.138   0.850  0.5945  0.4837 -2.8336
   49MOL0     H 6562   1.107   2.340   0.751 -0.7608  0.1479 -0.4122
   49MOL0     H 6563   1.266   2.348   0.828 -0.2890 -0.4528 -1.4280
   49MOL0     H 6564   1.138   2.399   1.047 -3.4307  0.5793  0.9455
   49MOL0     H 6565   1.113   2.519   0.921 -1.1066 -0.0565 -3.2257
   49MOL0     H 6566   0.845   2.562   0.850  0.0611  0.5063  1.6655
   49MOL0     H 6567   0.554   2.537   0.956 -1.1404 -0.0282 -0.1076
   49MOL0     H 6568   0.600   2.494   0.798 -2.9868  1.4513  1.2523
   49MOL0     H 6569   0.438   2.336   0.776 -2.0805 -1.2077  0.1384
   49MOL0     H 6570   0.476   2.254   0.934 -2.4577 -2.1257 -3.2018
   49MOL0     H 6571   0.338   2.521   0.920  0.2256  1.2510  2.2690
   49MOL0     H 6572   0.357   2.396   1.045  2.9142  1.3070  0.0851
   49MOL0     H 6573   0.226   2.244   0.894 -0.7835  0.8298  3.9181
   49MOL0     H 6574   0.201   2.377   0.771  0.1860  1.4341  0.0425
   49MOL0     H 6575   0.010   2.180   1.057 -1.9380 -0.2357  0.8698
   49MOL0     H 6576  -0.162   2.039   0.977  0.5662  0.7026  1.1531
   49MOL0     H 6577  -0.639   2.195   0.719  0.0863 -1.6691  1.6071
   49MOL0     H 6578  -0.829   2.112   0.628  0.8249  1.7392  0.4265
   49MOL0     H 6579  -0.753   1.738   0.433 -1.5666 -0.1666  2.3108
   49MOL0     H 6580  -0.940   1.737   0.411 -0.9221  0.2426 -1.8673
   49MOL0     H 6581  -0.895   1.858   0.191 -0.9464 -2.2159 -1.4108
   49MOL0     H 6582  -0.725   1.812   0.217 -0.0185 -2.7303 -0.5449
   49MOL0     H 6583  -0.811   1.564   0.222 -0.3068  0.2393 -0.2519
   49MOL0     H 6584  -0.962   1.629   0.195 -0.8922 -1.4020 -2.5001
   49MOL0     H 6585  -0.827   1.755   0.001  0.1446 -0.1765 -1.4280
   49MOL0     H 6586  -0.921   1.613  -0.025 -0.0426  5.2049 -3.3543
   49MOL0     H 6587  -0.626   1.612   0.060 -1.6448 -0.7733  1.4801
   49MOL0     H 6588  -0.672   1.632  -0.119 -0.9866 -1.8250 -1.2980
   49MOL0     H 6589  -0.696   1.408   0.082  1.0619  1.5905  0.4024
   49MOL0     H 6590  -0.787   1.400  -0.074  0.1995 -0.0811  1.0460
   49MOL0     H 6591  -0.582   1.263  -0.070 -1.9978  0.2489  0.3881
   49MOL0     H 6592  -0.486   1.409  -0.074  0.3688 -0.6881 -0.8034
   49MOL0     H 6593  -0.692   1.329  -0.275  1.5541 -4.5063  0.1581
   49MOL0     H 6594  -0.589   1.471  -0.299  1.7517  1.7117  1.9110
   49MOL0     H 6595  -0.558   1.852   0.379 -1.2735 -2.2944  1.8515
   49MOL0     H 6596  -0.378   1.987   0.464  0.1173 -1.3901  0.1208
   49MOL0     H 6597  -0.239   2.348   0.674 -2.1262  0.8233  0.7781
   49MOL0     H 6598  -0.063   2.476   0.774  0.1437  0.9938  1.9120
   49MOL0     H 6599   1.007   1.541   1.437 -0.8761 -2.3338 -0.6959
   49MOL0     H 6600   1.025   1.327   1.591  0.7383 -1.2236  3.9306
   49MOL0     H 6601   1.263   1.036   1.808  0.7388 -1.8469 -0.6846
   49MOL0     H 6602   1.285   0.848   1.963  2.4300  0.8414 -0.3701
   49MOL0     H 6603   1.135   0.894   2.392  0.9921  1.2516 -0.4323
   49MOL0     H 6604   1.312   0.901   2.375  0.5461 -0.8665  1.5539
   49MOL0     H 6605   1.323   0.688   2.448  0.1226  2.1805  0.3818
   49MOL0     H 6606   1.187   0.629   2.348  3.4178 -1.0781 -1.6419
   49MOL0     H 6607   1.110   0.602   2.577 -1.0769 -0.4719 -0.2024
   49MOL0     H 6608   1.047   0.757   2.542 -0.2599  0.6380  1.6764
   49MOL0     H 6609   1.314   0.738   2.657  0.4251  0.0068 -0.4339
   49MOL0     H 6610   1.184   0.869   2.672 -4.1889 -1.0230  3.7193
   49MOL0     H 6611   1.080   0.647   3.002 -0.0463 -1.8807 -0.3938
   49MOL0     H 6612   1.136   1.078   2.287  2.3833  2.9283  1.6046
   49MOL0     H 6613   1.003   1.321   2.162  0.5917  2.2995 -1.3684
   49MOL0     H 6614   1.141   1.302   2.265 -2.4023  0.0769  0.9185
   49MOL0     H 6615   1.160   1.397   2.119  1.4516  0.4842  0.1402
   50MOL0     O 6616   1.156   7.587   0.714  0.4911  0.7586  0.0170
   50MOL0     C 6617   1.045   7.540   0.757 -1.0267 -0.1854  0.0667
   50MOL0     O 6618   1.033   7.492   0.883  0.0173  1.2143  0.1941
   50MOL0     C 6619   1.098   7.561   0.981 -0.9606  0.7581 -0.0305
   50MOL0     C 6620   1.110   7.482   1.096 -0.9529 -0.0568  0.3787
   50MOL0     C 6621   1.179   7.529   1.204 -0.0725 -0.5323 -1.0107
   50MOL0     C 6622   1.223   7.665   1.208  0.5637  0.2316  0.2301
   50MOL0     O 6623   1.282   7.716   1.322  0.3749  0.1627 -1.0440
   50MOL0     C 6624   1.425   7.744   1.305 -0.9984 -0.2892 -0.5607
   50MOL0     C 6625   1.504   7.610   1.313 -0.3122  0.4669  0.1886
   50MOL0     C 6626   1.654   7.607   1.342  0.2860  0.1622  0.4627
   50MOL0     C 6627   1.720   7.702   1.248  0.0946  0.0469  0.8352
   50MOL0     C 6628   1.872   7.718   1.256 -0.4383  0.1130 -0.4598
   50MOL0     C 6629   1.954   7.599   1.199  0.2509  0.1171 -1.2518
   50MOL0     C 6630   2.107   7.624   1.214 -0.0083 -0.7107  0.7741
   50MOL0     C 6631   2.147   7.761   1.173  0.3733  0.2243  0.5538
   50MOL0     N 6632   2.121   7.803   1.029 -0.8848  0.1242 -0.6178
   50MOL0     C 6633   2.109   7.732   0.912 -0.5991  0.3726 -0.0011
   50MOL0     C 6634   2.068   7.813   0.818  0.8336  0.2465  0.7482
   50MOL0     C 6635   2.038   7.779   0.675 -0.1868 -0.1552 -0.5386
   50MOL0     C 6636   2.138   7.680   0.614 -0.4323  0.6767  1.1264
   50MOL0     C 6637   2.144   7.675   0.462  0.5000 -1.7980 -0.0987
   50MOL0     C 6638   2.227   7.564   0.412  0.2513 -0.3625  0.0676
   50MOL0     O 6639   2.242   7.588   0.276  0.4697 -0.5086 -0.4479
   50MOL0     C 6640   2.372   7.611   0.246  0.0503 -1.4552 -0.7035
   50MOL0     C 6641   2.412   7.741   0.222 -0.4565  0.0967 -0.2952
   50MOL0     C 6642   2.540   7.771   0.174  0.1261  0.2053 -0.3634
   50MOL0     C 6643   2.644   7.674   0.168  0.3870  0.2359 -0.0912
   50MOL0     C 6644   2.786   7.714   0.160 -0.2414 -0.2169  0.6340
   50MOL0     O 6645   2.883   7.620   0.150  0.2608 -0.0980 -0.3530
   50MOL0     C 6646   3.020   7.634   0.187  0.6136  0.1673 -0.3276
   50MOL0     C 6647   3.081   7.530   0.263  0.6969 -0.3037 -0.8409
   50MOL0     C 6648   3.214   7.544   0.315  0.3675  0.0643 -0.2295
   50MOL0     C 6649   3.289   7.655   0.287  0.3660 -0.5210 -0.1631
   50MOL0     O 6650   3.411   7.689   0.344  1.0486  0.0081 -0.5890
   50MOL0     C 6651   3.468   7.607   0.454  0.5348  0.1203 -0.4660
   50MOL0     C 6652   3.398   7.626   0.584 -0.5455  0.8325  0.3397
   50MOL0     C 6653   3.453   7.546   0.700  0.7015  0.0423  0.0226
   50MOL0     C 6654   3.327   7.501   0.792  0.5954  0.0130 -0.1468
   50MOL0     C 6655   3.351   7.450   0.933  0.4583  0.8777 -0.0909
   50MOL0     C 6656   3.411   7.310   0.927 -0.4735 -0.2736 -0.0833
   50MOL0     C 6657   3.424   7.260   1.068  0.3856 -0.5206  0.5368
   50MOL0     C 6658   3.520   7.135   1.065  0.2091 -0.1106 -0.3628
   50MOL0    Cl 6659   3.497   7.017   0.934  0.1786 -0.3080  0.0577
   50MOL0     C 6660   3.236   7.755   0.205  0.6263  0.0393  0.9325
   50MOL0     C 6661   3.102   7.739   0.143 -0.1801 -0.8345  0.3868
   50MOL0     O 6662   2.803   7.838   0.158  0.2771  0.8031 -0.2882
   50MOL0     C 6663   2.600   7.541   0.194  0.3284 -0.1447  0.5427
   50MOL0     C 6664   2.468   7.513   0.244 -1.2393  0.8776 -0.5901
   50MOL0     N 6665   2.049   7.934   0.871 -0.4610  0.2727  0.7066
   50MOL0     N 6666   2.071   7.928   1.000 -0.3844  0.6682 -0.1151
   50MOL0     C 6667   1.211   7.753   1.093  0.1031  0.3490 -0.3495
   50MOL0     C 6668   1.148   7.697   0.974 -0.2585  0.5304 -0.2316
   50MOL0     C 6669   0.939   7.496   0.667 -0.8551 -1.1221  0.3989
   50MOL0     C 6670   0.873   7.374   0.701 -0.1427  0.0671  0.1853
   50MOL0     C 6671   0.773   7.323   0.621 -0.6081 -0.7228 -0.0695
   50MOL0     C 6672   0.741   7.391   0.499 -0.3564  0.8724 -1.3806
   50MOL0     O 6673   0.660   7.326   0.399  0.4112 -0.2923  0.0908
   50MOL0     C 6674   0.625   7.191   0.417 -0.6003  0.7001  0.0339
   50MOL0     C 6675   0.512   7.180   0.314  0.5010  0.4020  0.8249
   50MOL0     C 6676   0.375   7.237   0.372  0.1640  0.2410 -0.5117
   50MOL0     C 6677   0.266   7.198   0.276  1.0084  0.6759 -0.6500
   50MOL0     C 6678   0.240   7.058   0.280  0.7015  0.7763 -0.5248
   50MOL0     C 6679   0.242   6.935   0.269 -0.0003 -1.0458 -0.5547
   50MOL0     C 6680   0.807   7.515   0.468  0.7373  1.2779 -0.1148
   50MOL0     C 6681   0.910   7.567   0.546 -0.4622 -0.1101  0.2904
   50MOL0     C 6682   0.983   7.692   0.508 -0.1537  0.4728  0.5006
   50MOL0     H 6683   1.083   7.377   1.091 -1.3509 -0.1127  2.5771
   50MOL0     H 6684   1.196   7.483   1.301 -0.9148  2.0845  0.4933
   50MOL0     H 6685   1.452   7.807   1.220  1.0320  0.3392  0.4933
   50MOL0     H 6686   1.454   7.812   1.386 -0.2150 -0.6087 -0.5682
   50MOL0     H 6687   1.505   7.561   1.215  0.9155 -1.0374  0.9210
   50MOL0     H 6688   1.441   7.552   1.381 -1.7770  3.4135  1.5273
   50MOL0     H 6689   1.678   7.504   1.317 -0.3206  0.5238 -1.8626
   50MOL0     H 6690   1.663   7.636   1.447 -0.8123  0.7633  0.4085
   50MOL0     H 6691   1.711   7.672   1.143  0.3565 -1.4130  1.2003
   50MOL0     H 6692   1.670   7.798   1.256  0.8216  0.3414  2.2079
   50MOL0     H 6693   1.903   7.806   1.199 -0.2223  1.0410  1.0390
   50MOL0     H 6694   1.902   7.730   1.361  0.6025 -1.7362 -0.5077
   50MOL0     H 6695   1.934   7.502   1.245  1.3966 -0.2408 -1.4717
   50MOL0     H 6696   1.910   7.580   1.101 -1.2204  0.7799 -0.7369
   50MOL0     H 6697   2.164   7.564   1.143  1.4439 -1.2711  2.3431
   50MOL0     H 6698   2.147   7.602   1.314  0.2980  1.5490  1.2197
   50MOL0     H 6699   2.111   7.837   1.242 -0.2712  0.4030  0.0270
   50MOL0     H 6700   2.257   7.757   1.176  0.5811 -0.2218 -3.0674
   50MOL0     H 6701   2.134   7.627   0.902 -1.2582  0.4188 -3.1847
   50MOL0     H 6702   1.938   7.736   0.665 -2.5860  4.6543 -0.4527
   50MOL0     H 6703   2.044   7.875   0.622  2.7545  0.6724  1.0969
   50MOL0     H 6704   2.240   7.685   0.655  0.3954  0.7872 -0.8485
   50MOL0     H 6705   2.097   7.582   0.641  0.0186  0.8543  2.5891
   50MOL0     H 6706   2.179   7.771   0.423 -1.8420 -0.1768  1.4837
   50MOL0     H 6707   2.039   7.674   0.430 -0.1248 -0.7807  1.7201
   50MOL0     H 6708   2.179   7.465   0.419  1.4144 -0.8857  0.8175
   50MOL0     H 6709   2.320   7.558   0.470 -1.6385  0.7863  3.5263
   50MOL0     H 6710   2.341   7.821   0.241  0.7309  0.9307  0.8493
   50MOL0     H 6711   2.573   7.874   0.167  0.7232  0.2164  1.8354
   50MOL0     H 6712   3.037   7.435   0.291  0.7180  0.2547  1.2250
   50MOL0     H 6713   3.269   7.461   0.359 -0.4402 -0.4712 -0.2002
   50MOL0     H 6714   3.463   7.504   0.416 -0.2005 -0.0373  0.0333
   50MOL0     H 6715   3.570   7.644   0.467  0.1338 -0.0135  5.5687
   50MOL0     H 6716   3.397   7.732   0.610  1.0409  1.0220 -0.2356
   50MOL0     H 6717   3.294   7.599   0.564  0.3978 -3.7234  0.4723
   50MOL0     H 6718   3.511   7.457   0.674  1.5153  0.7642 -0.6448
   50MOL0     H 6719   3.521   7.614   0.752 -2.1009  1.7160  1.7681
   50MOL0     H 6720   3.257   7.432   0.743  2.1194 -2.9292  1.5480
   50MOL0     H 6721   3.268   7.593   0.799  0.7232  0.6689 -4.7671
   50MOL0     H 6722   3.255   7.437   0.984  0.7501 -1.8565 -0.0591
   50MOL0     H 6723   3.416   7.515   0.991  0.4384  0.5999  0.2497
   50MOL0     H 6724   3.350   7.240   0.869 -1.1180  1.2881 -1.3839
   50MOL0     H 6725   3.510   7.311   0.881 -0.2420 -0.6152  0.3989
   50MOL0     H 6726   3.327   7.228   1.106 -0.2806  0.3468 -0.3566
   50MOL0     H 6727   3.460   7.338   1.136  0.9596  0.3538 -0.7248
   50MOL0     H 6728   3.617   7.178   1.040 -1.0227  2.4794 -0.9459
   50MOL0     H 6729   3.520   7.082   1.161  0.0055 -1.4466 -1.0775
   50MOL0     H 6730   3.275   7.854   0.184 -0.0136  0.0207 -0.4410
   50MOL0     H 6731   3.056   7.821   0.087 -0.2237  0.0322  1.6282
   50MOL0     H 6732   2.670   7.459   0.191  0.2275 -0.2049 -0.2040
   50MOL0     H 6733   2.434   7.415   0.274 -1.4740  1.0191 -0.3892
   50MOL0     H 6734   1.241   7.857   1.093 -2.4754  1.1523 -0.1948
   50MOL0     H 6735   1.146   7.763   0.888  1.3010  0.8544 -0.0584
   50MOL0     H 6736   0.895   7.322   0.793 -0.0423  0.7583  0.5609
   50MOL0     H 6737   0.724   7.231   0.652 -2.2819  0.5172  1.0948
   50MOL0     H 6738   0.588   7.172   0.518  2.8806 -0.1810  1.2824
   50MOL0     H 6739   0.705   7.119   0.396  1.1040  2.4540  0.1972
   50MOL0     H 6740   0.497   7.072   0.305  1.3491  0.3982 -0.8622
   50MOL0     H 6741   0.552   7.230   0.225  3.8703  0.9155  2.4702
   50MOL0     H 6742   0.367   7.346   0.378  0.8285  0.3600 -1.4340
   50MOL0     H 6743   0.354   7.191   0.469 -0.8664 -1.0736 -1.3193
   50MOL0     H 6744   0.178   7.259   0.303  1.5365  1.8197 -1.4234
   50MOL0     H 6745   0.291   7.227   0.173  0.3098 -1.8986 -1.6229
   50MOL0     H 6746   0.239   6.828   0.265 -3.2179 -1.1268  1.0238
   50MOL0     H 6747   0.757   7.548   0.378 -2.6046 -2.4494  0.1012
   50MOL0     H 6748   0.988   7.762   0.592  0.9168  0.6760  0.2815
   50MOL0     H 6749   1.087   7.676   0.478 -0.0893  3.4349 -1.2348
   50MOL0     H 6750   0.936   7.737   0.420 -1.0736 -1.2283  0.0930
   51MOL0     O 6751   9.542   3.238   0.398  0.1321  0.7136  0.4919
   51MOL0     C 6752   9.491   3.228   0.515 -0.2476 -0.1327  0.1884
   51MOL0     O 6753   9.562   3.261   0.631  0.2739  1.3550 -0.3891
   51MOL0     C 6754   9.694   3.282   0.626 -0.5034  0.7775  0.3863
   51MOL0     C 6755   9.761   3.372   0.541 -1.0652  0.2614  0.5796
   51MOL0     C 6756   9.907   3.376   0.543 -0.2018  0.5178  0.3751
   51MOL0     C 6757   9.982   3.294   0.633  0.1784  0.5992 -0.3957
   51MOL0     O 6758  10.116   3.292   0.645  0.0299  0.0839  0.0189
   51MOL0     C 6759  10.175   3.307   0.775 -0.5869 -0.3503 -0.3060
   51MOL0     C 6760  10.308   3.390   0.758  1.0686 -0.2557 -0.0762
   51MOL0     C 6761  10.387   3.392   0.894  0.0189 -0.7561  0.7953
   51MOL0     C 6762  10.331   3.504   0.983 -0.5495  0.0431 -0.8083
   51MOL0     C 6763  10.429   3.540   1.106 -0.5601 -0.0421  0.4452
   51MOL0     C 6764  10.356   3.622   1.219  0.0567  1.0165  0.2913
   51MOL0     C 6765  10.464   3.670   1.323  0.0501  0.0248  0.2380
   51MOL0     C 6766  10.402   3.770   1.419  0.2179  1.3068  0.7497
   51MOL0     N 6767  10.478   3.800   1.544 -0.3013 -0.7281  1.5993
   51MOL0     C 6768  10.509   3.717   1.638 -0.2382 -0.4308 -0.0245
   51MOL0     C 6769  10.588   3.788   1.721  0.4735 -0.6149 -0.2932
   51MOL0     C 6770  10.644   3.747   1.847  0.9699 -0.0169 -0.1442
   51MOL0     C 6771  10.732   3.630   1.841  0.5631 -1.0477  0.0962
   51MOL0     C 6772  10.881   3.654   1.792 -0.3358 -0.0879 -0.1306
   51MOL0     C 6773  10.945   3.541   1.707 -0.9977 -0.4303 -0.0525
   51MOL0     O 6774  10.855   3.498   1.606  0.7434 -0.4495 -0.2451
   51MOL0     C 6775  10.851   3.554   1.474  0.0387 -0.2004 -0.3080
   51MOL0     C 6776  10.908   3.680   1.443 -1.1783 -0.1722  0.3780
   51MOL0     C 6777  10.904   3.730   1.308 -0.3375 -0.5590  0.5294
   51MOL0     C 6778  10.828   3.657   1.206 -0.2790 -0.1796  0.3084
   51MOL0     C 6779  10.829   3.709   1.063 -1.2831 -0.4217  0.1839
   51MOL0     O 6780  10.748   3.645   0.978  0.8931 -0.0637  0.1725
   51MOL0     C 6781  10.718   3.702   0.861 -0.1207  0.1726  0.3218
   51MOL0     C 6782  10.805   3.696   0.754  0.4105 -0.0362  0.8607
   51MOL0     C 6783  10.762   3.737   0.628 -0.3491  0.6302 -1.5468
   51MOL0     C 6784  10.640   3.802   0.609  0.8190  0.2558  0.1230
   51MOL0     O 6785  10.589   3.851   0.488  0.0595  0.4496 -0.2402
   51MOL0     C 6786  10.568   3.757   0.386  0.2904 -0.0262 -0.2648
   51MOL0     C 6787  10.427   3.694   0.420 -0.4445  0.0328 -0.4406
   51MOL0     C 6788  10.312   3.803   0.412 -0.4476  0.4488  0.2097
   51MOL0     C 6789  10.188   3.726   0.443 -0.0593 -0.1220  0.5014
   51MOL0     C 6790  10.080   3.817   0.509  0.5020 -0.0606  0.7831
   51MOL0     C 6791  10.031   3.936   0.413  0.8450 -0.4145 -0.7037
   51MOL0     C 6792   9.879   3.973   0.437 -1.1815  0.0929 -0.1273
   51MOL0     C 6793   9.774   3.860   0.417  0.7492 -0.3452  0.4684
   51MOL0    Cl 6794   9.696   3.896   0.252  0.3286  0.1683  0.3644
   51MOL0     C 6795  10.563   3.821   0.719  0.6536 -0.2308  0.7896
   51MOL0     C 6796  10.598   3.762   0.834 -0.1310  0.0551  0.1020
   51MOL0     O 6797  10.894   3.807   1.040 -0.6211 -0.3135  0.9019
   51MOL0     C 6798  10.765   3.536   1.242  0.5441 -0.4444 -0.4791
   51MOL0     C 6799  10.769   3.494   1.377 -0.3582 -0.0754 -0.5438
   51MOL0     N 6800  10.598   3.913   1.677  0.8122 -0.0781  0.7612
   51MOL0     N 6801  10.522   3.926   1.571 -0.1450  0.9317 -0.5377
   51MOL0     C 6802   9.898   3.206   0.721 -0.3806 -0.8795 -0.2245
   51MOL0     C 6803   9.762   3.202   0.713 -0.7696  1.2940  0.4802
   51MOL0     C 6804   9.361   3.164   0.536  0.1106  0.1877  0.1238
   51MOL0     C 6805   9.312   3.132   0.661  0.5381 -0.2742  0.2154
   51MOL0     C 6806   9.178   3.076   0.685 -0.4323 -0.6074 -0.5450
   51MOL0     C 6807   9.095   3.042   0.578 -0.1420 -0.6999  0.6568
   51MOL0     O 6808   8.968   2.993   0.579 -0.3524 -0.2667  0.3494
   51MOL0     C 6809   8.900   2.962   0.707 -0.9512  0.0173  0.7002
   51MOL0     C 6810   8.922   2.816   0.753 -0.7090 -0.3549  0.6012
   51MOL0     C 6811   8.870   2.777   0.878 -0.0934 -0.0210 -0.7581
   51MOL0     C 6812   8.970   2.805   0.993  0.2349 -0.0537  1.2003
   51MOL0     C 6813   8.910   2.748   1.118  0.2206  0.2727  0.3990
   51MOL0     C 6814   8.875   2.685   1.219 -0.1135  0.7579  0.7052
   51MOL0     C 6815   9.142   3.081   0.453  0.6230  0.2778 -0.8966
   51MOL0     C 6816   9.269   3.148   0.423 -0.2812  0.4141 -0.3349
   51MOL0     C 6817   9.288   3.177   0.276  0.8949  0.1976  0.9509
   51MOL0     H 6818   9.701   3.440   0.482  0.1877  0.2618 -0.7525
   51MOL0     H 6819   9.950   3.451   0.477 -1.7704  2.6536  1.6826
   51MOL0     H 6820  10.105   3.355   0.844 -2.1766 -2.8655 -0.0383
   51MOL0     H 6821  10.212   3.209   0.807  2.4002  1.5147  2.6650
   51MOL0     H 6822  10.274   3.488   0.723 -1.2770 -0.8612  0.3559
   51MOL0     H 6823  10.371   3.338   0.685 -1.7647 -1.5103 -1.7934
   51MOL0     H 6824  10.490   3.422   0.875 -0.6107  0.6830 -0.5689
   51MOL0     H 6825  10.383   3.294   0.942 -1.4887 -1.3689 -0.4915
   51MOL0     H 6826  10.337   3.597   0.925 -0.9361 -0.4610 -1.6769
   51MOL0     H 6827  10.226   3.489   1.009 -1.2233  0.7163 -2.9365
   51MOL0     H 6828  10.472   3.452   1.154 -1.5164 -0.8367 -0.1295
   51MOL0     H 6829  10.514   3.599   1.068  1.5096 -2.3690  1.1953
   51MOL0     H 6830  10.302   3.707   1.176 -0.5002  1.9726  2.7186
   51MOL0     H 6831  10.279   3.571   1.277  0.3943  0.1511 -0.0007
   51MOL0     H 6832  10.546   3.723   1.274 -0.1648 -1.4430 -1.8347
   51MOL0     H 6833  10.505   3.590   1.386  0.0542 -1.1593 -1.2165
   51MOL0     H 6834  10.381   3.857   1.357 -0.4959 -0.3977 -1.5045
   51MOL0     H 6835  10.298   3.739   1.433 -0.3149  1.9386 -1.5013
   51MOL0     H 6836  10.480   3.614   1.651  3.0956 -1.5748 -0.5534
   51MOL0     H 6837  10.688   3.830   1.901  0.5444 -0.1844  0.4747
   51MOL0     H 6838  10.556   3.722   1.907  1.5602 -1.0401  0.3134
   51MOL0     H 6839  10.720   3.591   1.943 -0.1054 -2.6746 -0.5735
   51MOL0     H 6840  10.682   3.558   1.775  0.6943 -0.6405 -0.4527
   51MOL0     H 6841  10.949   3.675   1.875  0.6692  1.2893 -1.2471
   51MOL0     H 6842  10.873   3.740   1.725  0.2602 -1.2312 -1.7156
   51MOL0     H 6843  10.983   3.458   1.767  1.7569 -0.6851 -1.9658
   51MOL0     H 6844  11.041   3.564   1.660 -1.4587  0.6368 -0.5006
   51MOL0     H 6845  10.956   3.735   1.523 -1.2736  1.1022 -0.4128
   51MOL0     H 6846  10.958   3.824   1.296 -1.8472  0.3311  0.4538
   51MOL0     H 6847  10.901   3.645   0.761  1.8246  2.4402  0.6125
   51MOL0     H 6848  10.824   3.723   0.540  2.8983 -1.1058  0.7857
   51MOL0     H 6849  10.573   3.789   0.281 -2.4394 -2.5605 -1.2958
   51MOL0     H 6850  10.644   3.679   0.374  1.2581  1.0741 -1.7575
   51MOL0     H 6851  10.421   3.608   0.353  1.1686 -2.3669  2.2425
   51MOL0     H 6852  10.432   3.658   0.523  1.5178  2.3825  0.3703
   51MOL0     H 6853  10.320   3.885   0.485 -1.1517  0.2590  0.5146
   51MOL0     H 6854  10.312   3.844   0.311  2.0091  2.6284  0.9788
   51MOL0     H 6855  10.202   3.642   0.513 -0.1397  0.9449  1.8280
   51MOL0     H 6856  10.143   3.684   0.352  1.3646  1.6861 -1.1085
   51MOL0     H 6857  10.129   3.863   0.596  1.3367  1.9476 -0.6791
   51MOL0     H 6858   9.998   3.751   0.540  1.2649 -1.4489 -0.0665
   51MOL0     H 6859  10.097   4.021   0.431 -0.7140  0.4323  1.3474
   51MOL0     H 6860  10.041   3.897   0.311 -1.5065  0.1928 -1.2172
   51MOL0     H 6861   9.848   4.052   0.369 -0.1679  0.8671  0.2780
   51MOL0     H 6862   9.870   4.013   0.539 -2.5044 -1.4099  0.3949
   51MOL0     H 6863   9.819   3.761   0.418  2.8115  0.5127 -0.8578
   51MOL0     H 6864   9.694   3.870   0.490 -1.3132 -2.2964 -1.3806
   51MOL0     H 6865  10.470   3.878   0.713  1.1948  0.6091  0.2634
   51MOL0     H 6866  10.524   3.764   0.913 -0.5617 -0.7880 -0.2671
   51MOL0     H 6867  10.700   3.472   1.183 -1.8765  0.2508  1.2941
   51MOL0     H 6868  10.722   3.399   1.399  1.1312 -0.8414 -0.6223
   51MOL0     H 6869   9.949   3.141   0.791 -2.2317  0.1456  2.1972
   51MOL0     H 6870   9.714   3.130   0.779 -0.6429 -0.3365 -1.1152
   51MOL0     H 6871   9.379   3.138   0.745  1.3665  0.3875 -0.4816
   51MOL0     H 6872   9.131   3.074   0.783 -2.8116  1.6429 -1.5208
   51MOL0     H 6873   8.795   2.976   0.682 -1.0980 -0.4213  1.0662
   51MOL0     H 6874   8.919   3.025   0.795 -3.8828 -2.0544  3.0015
   51MOL0     H 6875   9.029   2.797   0.745 -0.4382  1.1424  0.3973
   51MOL0     H 6876   8.873   2.756   0.676  2.1671 -0.6476 -1.1303
   51MOL0     H 6877   8.858   2.670   0.855  1.2362  0.0050 -1.7020
   51MOL0     H 6878   8.770   2.812   0.902 -0.8115 -1.5118 -1.4068
   51MOL0     H 6879   9.070   2.761   0.987  0.3960  0.1773  2.0111
   51MOL0     H 6880   8.987   2.912   1.002  1.2980 -0.2814  2.1130
   51MOL0     H 6881   8.853   2.631   1.309 -0.1006 -0.4477  0.0104
   51MOL0     H 6882   9.068   3.054   0.379  0.5402 -0.3275 -0.5939
   51MOL0     H 6883   9.282   3.286   0.261  2.2716  0.7235  3.6464
   51MOL0     H 6884   9.389   3.147   0.247  0.3490 -0.7241 -0.0760
   51MOL0     H 6885   9.217   3.123   0.213  1.5098 -0.1395  0.5368
   52MOL0     O 6886   8.385   1.734   4.577 -0.2689  0.2208  0.1434
   52MOL0     C 6887   8.294   1.772   4.647 -0.5076  0.0397 -0.1012
   52MOL0     O 6888   8.174   1.709   4.655  0.4037 -0.2636 -0.3124
   52MOL0     C 6889   8.138   1.618   4.562  0.6353  0.4119 -0.5186
   52MOL0     C 6890   8.015   1.645   4.496  0.0053 -0.0025 -0.3979
   52MOL0     C 6891   7.981   1.555   4.394  0.6451  0.3532  0.3418
   52MOL0     C 6892   8.059   1.452   4.350 -0.2484  0.1321 -0.6029
   52MOL0     O 6893   8.032   1.388   4.229  0.5682  0.2612 -0.1264
   52MOL0     C 6894   7.968   1.256   4.238 -0.1454 -0.6064 -0.1666
   52MOL0     C 6895   7.919   1.226   4.090 -0.0084 -0.0384  0.3286
   52MOL0     C 6896   7.849   1.347   4.023  0.5778 -0.0170  0.8343
   52MOL0     C 6897   7.799   1.300   3.880  0.0235  0.1445 -0.1561
   52MOL0     C 6898   7.768   1.419   3.791  0.1930  0.2489 -0.1760
   52MOL0     C 6899   7.734   1.369   3.653 -0.3703 -0.2560  0.8980
   52MOL0     C 6900   7.844   1.315   3.560  0.1931 -0.4262  0.0578
   52MOL0     C 6901   7.800   1.273   3.416 -0.1556 -0.0702 -0.8471
   52MOL0     N 6902   7.736   1.384   3.366  0.0422  0.4429  0.0503
   52MOL0     C 6903   7.802   1.475   3.292  0.0502 -0.5266 -0.1377
   52MOL0     C 6904   7.705   1.557   3.248 -1.0350  0.9439  0.2157
   52MOL0     C 6905   7.723   1.682   3.162 -0.2014 -0.0142  0.1549
   52MOL0     C 6906   7.630   1.783   3.195  0.0929 -0.6814  0.3931
   52MOL0     C 6907   7.674   1.922   3.131  0.6906  0.2956  0.0430
   52MOL0     C 6908   7.760   2.007   3.233  0.3249  0.0991  0.1526
   52MOL0     O 6909   7.866   1.929   3.285 -0.7082 -0.7633  0.2875
   52MOL0     C 6910   7.974   2.006   3.328  0.6005  0.4468  0.3587
   52MOL0     C 6911   7.953   2.106   3.423  0.1614  0.5911  0.1435
   52MOL0     C 6912   8.054   2.190   3.469  0.3618 -0.3408 -0.1334
   52MOL0     C 6913   8.184   2.169   3.425 -0.2713 -0.6705  0.0196
   52MOL0     C 6914   8.301   2.252   3.473  0.8300  0.0937 -0.1794
   52MOL0     O 6915   8.267   2.361   3.544  0.6254 -1.1394  0.3693
   52MOL0     C 6916   8.353   2.436   3.613 -0.9587  0.5451  0.1853
   52MOL0     C 6917   8.454   2.396   3.699 -0.0582  0.0634  0.1168
   52MOL0     C 6918   8.540   2.482   3.769  0.2295 -0.8970 -0.1347
   52MOL0     C 6919   8.523   2.622   3.758 -0.0724  0.4169 -1.2477
   52MOL0     O 6920   8.600   2.710   3.825  0.5390 -0.1296  0.1539
   52MOL0     C 6921   8.725   2.738   3.768 -0.9946  0.2354  0.8455
   52MOL0     C 6922   8.755   2.893   3.777 -0.0162  0.3070 -0.2135
   52MOL0     C 6923   8.906   2.923   3.769 -0.4088  0.9127  1.2622
   52MOL0     C 6924   8.938   3.059   3.690  0.9032  0.3452  0.2086
   52MOL0     C 6925   9.087   3.069   3.639  1.3066  0.9304 -0.3717
   52MOL0     C 6926   9.112   3.220   3.613 -0.7824  0.6068  0.3101
   52MOL0     C 6927   9.227   3.259   3.536  0.0804  0.7368  0.0265
   52MOL0     C 6928   9.221   3.226   3.385 -0.3497  0.0672  0.8136
   52MOL0    Cl 6929   9.390   3.270   3.317 -0.4330  0.2727 -0.0968
   52MOL0     C 6930   8.426   2.663   3.669  0.4441 -0.5148  0.1895
   52MOL0     C 6931   8.342   2.571   3.597 -0.3761 -0.2945 -0.1258
   52MOL0     O 6932   8.417   2.208   3.462  0.2266 -0.2188  0.0977
   52MOL0     C 6933   8.210   2.069   3.329  0.2756  0.0348  0.1398
   52MOL0     C 6934   8.105   1.988   3.281 -0.0783  0.2455 -0.9061
   52MOL0     N 6935   7.585   1.520   3.286 -0.3118 -0.1987  0.5573
   52MOL0     N 6936   7.605   1.414   3.357  0.6367 -0.6795  0.0738
   52MOL0     C 6937   8.184   1.424   4.416 -0.4704  0.2741 -0.7091
   52MOL0     C 6938   8.216   1.506   4.527 -0.4305  0.2946  0.0726
   52MOL0     C 6939   8.328   1.878   4.754  0.5924  0.2987  1.0453
   52MOL0     C 6940   8.243   1.885   4.865 -0.6766  0.2037  1.3506
   52MOL0     C 6941   8.267   1.981   4.967 -0.1797 -0.6978  0.0450
   52MOL0     C 6942   8.371   2.079   4.957  1.1598  0.0779  1.0204
   52MOL0     O 6943   8.397   2.172   5.051 -0.7722 -0.2829 -0.4405
   52MOL0     C 6944   8.319   2.176   5.166  0.1586  0.1726  0.5778
   52MOL0     C 6945   8.359   2.302   5.249 -0.8123 -1.0434  0.4065
   52MOL0     C 6946   8.303   2.435   5.194  0.0134  0.0196 -0.1374
   52MOL0     C 6947   8.167   2.471   5.266  0.5967  1.1373 -1.3067
   52MOL0     C 6948   8.048   2.413   5.198  0.3664 -0.2455  0.1554
   52MOL0     C 6949   7.949   2.355   5.154  0.1031  0.6505  0.3613
   52MOL0     C 6950   8.449   2.068   4.845 -0.9896 -0.4478 -0.4876
   52MOL0     C 6951   8.425   1.977   4.739 -0.0941  0.0984  0.6320
   52MOL0     C 6952   8.518   1.981   4.625 -0.0473 -0.4820  0.2169
   52MOL0     H 6953   7.955   1.733   4.519 -2.0114 -1.4531  0.2470
   52MOL0     H 6954   7.902   1.581   4.323  3.0595  4.3007 -1.2603
   52MOL0     H 6955   8.039   1.181   4.274 -1.6324 -0.4661  3.5056
   52MOL0     H 6956   7.881   1.266   4.304 -0.1224  0.8918 -0.3467
   52MOL0     H 6957   7.853   1.139   4.099 -0.7584  0.2959 -1.5589
   52MOL0     H 6958   8.012   1.200   4.039  1.7509  1.2931  2.6939
   52MOL0     H 6959   7.920   1.431   4.018 -0.2188  0.9182  3.5584
   52MOL0     H 6960   7.761   1.383   4.077 -2.2261 -1.5328 -2.3358
   52MOL0     H 6961   7.879   1.242   3.832  1.7064  0.9567  1.5411
   52MOL0     H 6962   7.713   1.233   3.879  1.6544 -2.0940  0.6341
   52MOL0     H 6963   7.688   1.476   3.837  0.9218 -0.0612  1.5526
   52MOL0     H 6964   7.861   1.478   3.788 -1.2026  2.7003  1.6918
   52MOL0     H 6965   7.675   1.278   3.664 -1.9413 -0.3823 -5.0808
   52MOL0     H 6966   7.668   1.445   3.609  2.1258  2.1511  1.0614
   52MOL0     H 6967   7.892   1.227   3.602 -0.7433 -2.3137 -2.5118
   52MOL0     H 6968   7.925   1.388   3.562  0.6055 -0.6589 -2.9046
   52MOL0     H 6969   7.892   1.249   3.363 -0.4287 -1.5877 -0.6763
   52MOL0     H 6970   7.734   1.186   3.421  0.4304 -0.4504  1.4776
   52MOL0     H 6971   7.907   1.497   3.273 -0.5549  0.3166 -3.0633
   52MOL0     H 6972   7.827   1.716   3.168 -0.9964  2.5586  0.5463
   52MOL0     H 6973   7.713   1.656   3.056 -2.6150 -1.3576  0.6495
   52MOL0     H 6974   7.532   1.758   3.152  0.4874  1.3109 -1.8696
   52MOL0     H 6975   7.619   1.795   3.303  0.7084  1.7940  0.2335
   52MOL0     H 6976   7.585   1.976   3.099  1.1819 -0.0755 -2.0819
   52MOL0     H 6977   7.732   1.903   3.041  0.2642  0.3319 -0.2386
   52MOL0     H 6978   7.696   2.035   3.317  3.8531 -2.6275  4.1911
   52MOL0     H 6979   7.800   2.099   3.190  0.1815  0.9644  1.7872
   52MOL0     H 6980   7.858   2.121   3.474 -0.2425 -0.9353 -0.1212
   52MOL0     H 6981   8.023   2.270   3.535 -1.4825 -1.4261  0.3643
   52MOL0     H 6982   8.458   2.288   3.706  3.1190 -0.0346 -1.3152
   52MOL0     H 6983   8.611   2.445   3.842  1.5210 -0.8775 -1.3314
   52MOL0     H 6984   8.785   2.677   3.836 -3.2703 -2.7444  0.4090
   52MOL0     H 6985   8.733   2.702   3.665 -2.7069 -1.0623  1.1117
   52MOL0     H 6986   8.707   2.949   3.696  4.3513  1.4003 -2.3080
   52MOL0     H 6987   8.716   2.929   3.872  2.6364  3.1647 -0.0592
   52MOL0     H 6988   8.945   2.939   3.870 -0.4238  0.2484  1.3737
   52MOL0     H 6989   8.949   2.841   3.710  0.9625  3.0503 -0.8921
   52MOL0     H 6990   8.908   3.142   3.754  1.8845  0.8333  0.0571
   52MOL0     H 6991   8.864   3.056   3.609 -2.6619  0.7354  3.2221
   52MOL0     H 6992   9.089   3.007   3.549 -1.1300 -0.5262  0.4641
   52MOL0     H 6993   9.153   3.032   3.717  1.2460 -0.3118 -0.8809
   52MOL0     H 6994   9.025   3.274   3.575 -0.4690  1.2459  0.4684
   52MOL0     H 6995   9.139   3.268   3.708 -0.5834  0.2024  0.4617
   52MOL0     H 6996   9.317   3.205   3.566  0.0926  1.4347  1.3358
   52MOL0     H 6997   9.249   3.366   3.546  2.1955  0.1486  2.6349
   52MOL0     H 6998   9.199   3.122   3.359 -0.5761  1.0055 -3.4629
   52MOL0     H 6999   9.136   3.281   3.345 -0.0718 -0.5178 -0.6253
   52MOL0     H 7000   8.406   2.770   3.661  2.0519 -0.2998 -2.1900
   52MOL0     H 7001   8.266   2.609   3.529 -0.9220 -1.2507 -0.0692
   52MOL0     H 7002   8.314   2.052   3.304  1.1934  2.1453  2.0361
   52MOL0     H 7003   8.129   1.912   3.208  2.6405  1.2585 -1.1870
   52MOL0     H 7004   8.247   1.346   4.374 -2.7085 -2.2513  0.3738
   52MOL0     H 7005   8.309   1.500   4.582  0.8628  1.1551 -1.8893
   52MOL0     H 7006   8.172   1.803   4.867  1.3370 -1.8633 -2.1579
   52MOL0     H 7007   8.208   1.972   5.057 -0.8798 -0.9113 -0.4227
   52MOL0     H 7008   8.331   2.087   5.228  0.8914 -0.2117 -0.1043
   52MOL0     H 7009   8.212   2.192   5.148  0.4207  3.0916  1.0495
   52MOL0     H 7010   8.462   2.315   5.283 -1.4944 -1.5003  2.8403
   52MOL0     H 7011   8.320   2.286   5.350 -2.7028  1.3516  0.1675
   52MOL0     H 7012   8.272   2.416   5.090 -4.1107 -3.8229  1.4156
   52MOL0     H 7013   8.379   2.512   5.207  1.3141 -1.3322  0.5838
   52MOL0     H 7014   8.169   2.435   5.369 -0.1931 -0.8928 -1.9293
   52MOL0     H 7015   8.158   2.579   5.272  1.5857  1.1841 -0.5200
   52MOL0     H 7016   7.877   2.279   5.132 -0.7735  1.0303  1.8000
   52MOL0     H 7017   8.544   2.118   4.835 -0.6342 -0.0399  3.5635
   52MOL0     H 7018   8.597   1.905   4.633 -0.3045 -0.8523 -0.6830
   52MOL0     H 7019   8.456   1.969   4.536 -0.2059  0.5889  0.1747
   52MOL0     H 7020   8.574   2.074   4.609 -2.5541  0.7292 -2.1480
   53MOL0     O 7021   8.709  11.006   1.423  0.1577  1.0292 -1.4471
   53MOL0     C 7022   8.749  10.994   1.537  0.1086 -0.2619  0.0406
   53MOL0     O 7023   8.781  11.105   1.619 -0.4217  0.5690  0.2676
   53MOL0     C 7024   8.749  11.232   1.574  0.9312  0.0880 -1.5988
   53MOL0     C 7025   8.646  11.304   1.630 -0.5867 -1.0609 -0.2473
   53MOL0     C 7026   8.633  11.446   1.596 -0.4559  0.2666 -0.5010
   53MOL0     C 7027   8.713  11.501   1.499 -0.0193  0.0833 -0.5382
   53MOL0     O 7028   8.697  11.643   1.472  0.7225 -0.9415 -0.0956
   53MOL0     C 7029   8.640  11.673   1.345 -0.7729 -0.6886 -0.3246
   53MOL0     C 7030   8.589  11.818   1.356  0.2400  0.1746 -0.7297
   53MOL0     C 7031   8.705  11.911   1.357  0.2829 -1.1168  0.0509
   53MOL0     C 7032   8.647  12.058   1.352  0.1199  1.1494 -0.6361
   53MOL0     C 7033   8.747  12.171   1.334 -0.1291 -0.8550 -0.1960
   53MOL0     C 7034   8.866  12.170   1.431 -0.0495  0.2286  0.1711
   53MOL0     C 7035   8.964  12.282   1.425  0.2468 -0.9051  0.0330
   53MOL0     C 7036   8.919  12.406   1.495 -0.0151 -0.1921  0.0296
   53MOL0     N 7037   9.021  12.508   1.490 -0.2131 -0.2640  0.1194
   53MOL0     C 7038   9.152  12.496   1.525 -0.2540  0.5943 -0.1570
   53MOL0     C 7039   9.207  12.620   1.521  0.3383  0.3093 -0.5839
   53MOL0     C 7040   9.342  12.666   1.575 -0.6769  0.7971  0.8302
   53MOL0     C 7041   9.451  12.557   1.573  1.1993 -0.0224  1.1453
   53MOL0     C 7042   9.589  12.602   1.620 -1.0734 -0.3865  0.3955
   53MOL0     C 7043   9.653  12.720   1.536  0.3583 -0.0152  0.2490
   53MOL0     O 7044   9.649  12.691   1.402 -0.3102 -0.0845  0.5127
   53MOL0     C 7045   9.772  12.645   1.351  0.9863 -0.4914  0.0001
   53MOL0     C 7046   9.767  12.513   1.300  0.0603 -0.3300  0.3997
   53MOL0     C 7047   9.884  12.463   1.240  0.9183  0.7611 -0.1504
   53MOL0     C 7048  10.007  12.531   1.251 -0.0826 -0.0878  1.2158
   53MOL0     C 7049  10.135  12.471   1.197 -0.6544 -0.8654  0.9650
   53MOL0     O 7050  10.238  12.471   1.277  0.2804  0.0822  0.3726
   53MOL0     C 7051  10.339  12.385   1.258 -0.4020 -0.0811  0.1999
   53MOL0     C 7052  10.325  12.246   1.278  0.6760  0.5502 -0.2662
   53MOL0     C 7053  10.432  12.157   1.255 -0.0768 -0.3737  0.2741
   53MOL0     C 7054  10.559  12.205   1.217  0.7569  0.2276 -0.2726
   53MOL0     O 7055  10.659  12.113   1.201 -0.4637  0.5814 -0.2244
   53MOL0     C 7056  10.797  12.150   1.175 -0.1426  0.7597  0.4561
   53MOL0     C 7057  10.891  12.022   1.170 -0.6244  0.0704  0.2048
   53MOL0     C 7058  11.029  12.060   1.224 -0.5876  0.6834  0.4150
   53MOL0     C 7059  11.121  11.932   1.224 -0.9869 -0.4110  0.6490
   53MOL0     C 7060  11.250  11.943   1.312 -0.1068  0.1678  0.4866
   53MOL0     C 7061  11.342  11.827   1.274  0.0166  0.5381  0.0181
   53MOL0     C 7062  11.467  11.811   1.369 -0.4330 -0.9304  0.6732
   53MOL0     C 7063  11.522  11.670   1.372 -0.6977 -0.0585 -0.3065
   53MOL0    Cl 7064  11.566  11.627   1.212 -0.5889  0.0679  0.3968
   53MOL0     C 7065  10.578  12.347   1.219 -0.0517  0.1968  0.3778
   53MOL0     C 7066  10.469  12.434   1.231 -0.1722 -0.8999  0.6187
   53MOL0     O 7067  10.132  12.415   1.081  0.0859 -0.5374 -0.7876
   53MOL0     C 7068  10.008  12.658   1.305 -1.1464 -0.2138  0.8301
   53MOL0     C 7069   9.893  12.716   1.360  0.0958 -1.0216 -0.4211
   53MOL0     N 7070   9.105  12.707   1.483 -0.5959  0.0956  0.0146
   53MOL0     N 7071   8.993  12.637   1.451  0.3548  0.1456 -0.9182
   53MOL0     C 7072   8.809  11.421   1.443  0.8403  0.3403  0.2102
   53MOL0     C 7073   8.833  11.286   1.489  0.0709  0.3111 -0.0345
   53MOL0     C 7074   8.745  10.853   1.596 -0.4537 -0.4978 -0.9648
   53MOL0     C 7075   8.861  10.820   1.674  0.6365 -0.4732  0.4910
   53MOL0     C 7076   8.862  10.693   1.727  0.3340 -0.0230  0.1265
   53MOL0     C 7077   8.756  10.601   1.724  0.2635  0.2645  0.3143
   53MOL0     O 7078   8.783  10.486   1.794  0.0321 -0.8509  0.6373
   53MOL0     C 7079   8.666  10.425   1.851 -0.6891 -0.2912  0.9278
   53MOL0     C 7080   8.721  10.377   1.981  0.3381  0.1336 -0.4156
   53MOL0     C 7081   8.612  10.285   2.052  0.3006  0.0522  0.0941
   53MOL0     C 7082   8.676  10.206   2.166  0.2969  0.0213 -0.6868
   53MOL0     C 7083   8.587  10.133   2.255 -0.6426  0.0664  0.9265
   53MOL0     C 7084   8.508  10.071   2.325 -0.3669 -0.4407  0.2267
   53MOL0     C 7085   8.648  10.629   1.646  0.0423  0.0735 -0.1112
   53MOL0     C 7086   8.637  10.760   1.586 -0.2086  0.4454 -0.4452
   53MOL0     C 7087   8.526  10.794   1.495  0.6670  0.9455 -0.1726
   53MOL0     H 7088   8.577  11.256   1.699  1.8216 -0.5066  2.7667
   53MOL0     H 7089   8.550  11.510   1.624 -0.3032  0.6317 -0.8821
   53MOL0     H 7090   8.724  11.670   1.275  0.5835 -5.5652  1.1877
   53MOL0     H 7091   8.567  11.601   1.308 -1.1861  0.2199 -1.3589
   53MOL0     H 7092   8.519  11.830   1.439  0.0549 -1.6770 -0.5793
   53MOL0     H 7093   8.531  11.844   1.267 -1.3401 -2.6323 -0.6402
   53MOL0     H 7094   8.770  11.893   1.272 -0.6775  0.7146 -1.1526
   53MOL0     H 7095   8.756  11.902   1.453  2.2477  0.3532 -0.7806
   53MOL0     H 7096   8.579  12.075   1.269 -1.6478 -3.1694 -0.3383
   53MOL0     H 7097   8.593  12.091   1.442 -1.0013  1.9862 -1.5878
   53MOL0     H 7098   8.786  12.151   1.233 -0.6574 -1.3070 -0.3180
   53MOL0     H 7099   8.699  12.269   1.329 -2.0626 -1.7784 -1.0937
   53MOL0     H 7100   8.826  12.169   1.533 -0.8268  0.1374 -0.1260
   53MOL0     H 7101   8.907  12.072   1.409 -0.2243  0.3425 -0.6898
   53MOL0     H 7102   8.964  12.297   1.317 -0.5114 -0.2591  0.1155
   53MOL0     H 7103   9.066  12.259   1.457  2.0254  1.9154 -3.0529
   53MOL0     H 7104   8.834  12.437   1.433  2.1299  3.5088 -1.3271
   53MOL0     H 7105   8.879  12.387   1.596 -2.0689  1.2558 -0.4337
   53MOL0     H 7106   9.205  12.415   1.575 -1.9817  2.5968  5.7937
   53MOL0     H 7107   9.367  12.743   1.502 -0.0920 -0.1172  0.0436
   53MOL0     H 7108   9.333  12.709   1.676  0.2034 -1.0253  1.7385
   53MOL0     H 7109   9.414  12.475   1.636 -1.0463 -0.6642 -0.8563
   53MOL0     H 7110   9.461  12.516   1.472  0.1465  2.3808 -0.0093
   53MOL0     H 7111   9.652  12.513   1.620 -1.5894 -0.8619 -2.5879
   53MOL0     H 7112   9.585  12.642   1.722 -0.6408 -0.9382  0.6305
   53MOL0     H 7113   9.753  12.743   1.572  0.1411  0.3598  0.6325
   53MOL0     H 7114   9.588  12.806   1.559 -1.1136 -1.3255  1.1454
   53MOL0     H 7115   9.669  12.466   1.308  0.7934 -1.6704  2.0035
   53MOL0     H 7116   9.869  12.364   1.197 -3.7048  2.5748 -3.4833
   53MOL0     H 7117  10.232  12.203   1.313  1.2671 -3.0571 -2.5880
   53MOL0     H 7118  10.420  12.049   1.257  1.6521 -0.6311  3.3246
   53MOL0     H 7119  10.797  12.191   1.074 -0.1995  1.0501  0.5737
   53MOL0     H 7120  10.828  12.224   1.250  1.3529 -0.4585  1.1047
   53MOL0     H 7121  10.850  11.936   1.223 -0.1839 -0.8114 -0.8653
   53MOL0     H 7122  10.907  11.986   1.068  4.0187  1.9777  0.0070
   53MOL0     H 7123  11.067  12.136   1.156 -1.7099  0.1403 -0.8640
   53MOL0     H 7124  11.023  12.098   1.327  1.7134 -0.5343  1.0761
   53MOL0     H 7125  11.168  11.943   1.126  3.3078  0.7451  2.6409
   53MOL0     H 7126  11.063  11.840   1.241  1.8254 -2.7330 -1.3343
   53MOL0     H 7127  11.213  11.952   1.414 -1.3384  0.2214  0.0497
   53MOL0     H 7128  11.304  12.036   1.291  0.2883 -0.5747 -2.1351
   53MOL0     H 7129  11.280  11.738   1.290 -1.1267  0.9439 -1.8463
   53MOL0     H 7130  11.372  11.824   1.169  0.4848  1.4377  0.1217
   53MOL0     H 7131  11.453  11.848   1.471  3.5433  0.3965  0.9081
   53MOL0     H 7132  11.557  11.866   1.341 -1.8049  1.0186 -0.0559
   53MOL0     H 7133  11.610  11.661   1.436 -0.0896  1.4559 -0.8987
   53MOL0     H 7134  11.445  11.597   1.401 -1.6073  0.4180 -1.4522
   53MOL0     H 7135  10.676  12.390   1.198  0.0559  0.5301  1.4955
   53MOL0     H 7136  10.469  12.543   1.226  1.4187 -0.9321 -0.9342
   53MOL0     H 7137  10.107  12.702   1.308 -2.0253  1.9307  0.1356
   53MOL0     H 7138   9.902  12.811   1.411  0.8196 -1.1449 -0.3070
   53MOL0     H 7139   8.878  11.476   1.380 -0.9271  3.7772  1.0145
   53MOL0     H 7140   8.922  11.236   1.451  3.4387  3.7336  2.4910
   53MOL0     H 7141   8.936  10.897   1.688  1.2181 -0.8413 -0.5618
   53MOL0     H 7142   8.955  10.658   1.771  0.1823 -1.4761 -0.6458
   53MOL0     H 7143   8.638  10.338   1.791 -3.0449  2.0419 -1.6253
   53MOL0     H 7144   8.587  10.498   1.865 -0.6966 -0.1690  0.2908
   53MOL0     H 7145   8.736  10.468   2.039 -0.3294  1.1400 -1.7454
   53MOL0     H 7146   8.814  10.323   1.964 -0.7115 -2.1468  0.6545
   53MOL0     H 7147   8.565  10.216   1.981  2.7253 -2.5778  0.8890
   53MOL0     H 7148   8.541  10.356   2.096 -1.5784 -1.8545  0.3068
   53MOL0     H 7149   8.737  10.129   2.118  4.1552  1.2495  1.7578
   53MOL0     H 7150   8.740  10.267   2.230  3.0100  1.9232 -4.8295
   53MOL0     H 7151   8.449  10.009   2.390  1.6089 -0.2704  2.2869
   53MOL0     H 7152   8.570  10.554   1.642 -0.2201  0.3472 -0.2710
   53MOL0     H 7153   8.451  10.868   1.526  1.1951  0.9412  1.1497
   53MOL0     H 7154   8.552  10.818   1.391  0.2816 -1.7914 -0.9708
   53MOL0     H 7155   8.468  10.702   1.486  0.9181  0.6550  1.0622
   54MOL0     O 7156   7.579   8.997   5.570  0.1383  0.1351  0.2892
   54MOL0     C 7157   7.545   9.091   5.495 -1.3038 -0.0347  0.0190
   54MOL0     O 7158   7.619   9.139   5.390  0.2061  0.8722  0.0584
   54MOL0     C 7159   7.731   9.068   5.351 -0.7468  0.0869 -0.3047
   54MOL0     C 7160   7.738   8.991   5.245  0.0714  0.1636 -0.0585
   54MOL0     C 7161   7.851   8.916   5.218 -0.4401  0.5915 -0.4885
   54MOL0     C 7162   7.969   8.921   5.302  1.1644  0.0096 -0.6280
   54MOL0     O 7163   8.080   8.859   5.257 -0.5300 -0.3148  0.3429
   54MOL0     C 7164   8.206   8.893   5.325 -0.4011 -0.4422  0.5089
   54MOL0     C 7165   8.314   8.803   5.277 -0.0334  0.4563  0.1254
   54MOL0     C 7166   8.449   8.867   5.329 -0.2943  0.1205 -0.5950
   54MOL0     C 7167   8.567   8.793   5.257  0.9428  0.5059  0.0004
   54MOL0     C 7168   8.696   8.862   5.311 -0.5688  0.7226  0.5049
   54MOL0     C 7169   8.824   8.787   5.263 -0.4902  0.5733  0.3379
   54MOL0     C 7170   8.945   8.879   5.281 -0.6295  0.6383 -0.0740
   54MOL0     C 7171   9.055   8.854   5.174  0.1507 -0.9090 -0.4133
   54MOL0     N 7172   9.169   8.955   5.186 -0.2497 -0.2966 -0.0122
   54MOL0     C 7173   9.164   9.093   5.185 -0.0357  0.2536  0.5236
   54MOL0     C 7174   9.298   9.124   5.182 -0.8535  0.0806 -0.1222
   54MOL0     C 7175   9.347   9.265   5.151 -0.2229 -0.1568  0.1214
   54MOL0     C 7176   9.407   9.317   5.278 -0.1494 -0.2988 -0.6430
   54MOL0     C 7177   9.518   9.420   5.260  0.3324 -0.2627 -0.4156
   54MOL0     C 7178   9.572   9.466   5.406  0.0940  0.2431  1.1177
   54MOL0     O 7179   9.591   9.355   5.491 -0.2437 -0.4161  0.4676
   54MOL0     C 7180   9.712   9.293   5.469  0.8898 -0.2061  0.1092
   54MOL0     C 7181   9.830   9.350   5.504  0.4789 -0.0435  0.3013
   54MOL0     C 7182   9.946   9.283   5.490 -0.6827  0.5857  0.5942
   54MOL0     C 7183   9.962   9.154   5.428 -0.4336  0.2613  0.0022
   54MOL0     C 7184  10.088   9.093   5.405 -0.1704  0.9229 -0.3129
   54MOL0     O 7185  10.087   8.983   5.316 -0.6859  0.1223  0.2416
   54MOL0     C 7186  10.197   8.894   5.297  0.1933 -0.3592 -0.0450
   54MOL0     C 7187  10.170   8.757   5.269 -0.5435 -0.4086  0.3361
   54MOL0     C 7188  10.272   8.668   5.241  0.0157 -0.1780 -0.0699
   54MOL0     C 7189  10.403   8.708   5.249  0.3013 -0.1559  0.1855
   54MOL0     O 7190  10.509   8.626   5.212 -0.2914  0.2111 -0.0164
   54MOL0     C 7191  10.516   8.554   5.091 -0.1928 -0.4189 -0.3126
   54MOL0     C 7192  10.646   8.461   5.087 -0.4905 -0.0448 -0.2784
   54MOL0     C 7193  10.657   8.366   5.203  0.9840  0.8014 -0.0794
   54MOL0     C 7194  10.755   8.243   5.174  0.2945  0.2272 -0.5882
   54MOL0     C 7195  10.892   8.306   5.128 -0.2586 -0.5542 -0.0578
   54MOL0     C 7196  11.007   8.199   5.141  0.0574  0.8453 -0.4175
   54MOL0     C 7197  11.138   8.244   5.079  1.2885 -0.1575  0.1441
   54MOL0     C 7198  11.247   8.141   5.099 -0.9343  0.2796 -0.3869
   54MOL0    Cl 7199  11.407   8.203   5.053  0.0079  0.7633 -0.0988
   54MOL0     C 7200  10.430   8.832   5.285  0.2313  0.9082  0.0804
   54MOL0     C 7201  10.326   8.928   5.303 -0.4817 -0.0584 -0.1990
   54MOL0     O 7202  10.194   9.129   5.466 -0.1669 -0.5102  0.3087
   54MOL0     C 7203   9.843   9.109   5.365 -0.5961  0.1331  0.9653
   54MOL0     C 7204   9.722   9.176   5.395  1.0412  0.9478  0.6067
   54MOL0     N 7205   9.376   9.009   5.201 -0.2288 -0.4825 -0.3423
   54MOL0     N 7206   9.295   8.907   5.205 -0.8007 -0.4929  0.1337
   54MOL0     C 7207   7.955   8.994   5.427 -0.3122 -0.8505  0.5870
   54MOL0     C 7208   7.841   9.065   5.445 -0.3472 -0.5778  0.8210
   54MOL0     C 7209   7.422   9.161   5.536 -0.3469  0.4259  0.0029
   54MOL0     C 7210   7.415   9.301   5.497  1.4059 -0.0689  0.3237
   54MOL0     C 7211   7.304   9.374   5.541 -0.2088  0.5144 -0.1550
   54MOL0     C 7212   7.207   9.322   5.621 -0.7516  0.4997 -2.0629
   54MOL0     O 7213   7.100   9.394   5.673 -0.5198  0.5384  0.1509
   54MOL0     C 7214   7.136   9.496   5.767  0.4159 -0.8080  0.2034
   54MOL0     C 7215   7.233   9.434   5.878  0.3116 -0.2183 -0.0523
   54MOL0     C 7216   7.256   9.543   5.982 -0.0228 -0.0986  0.7521
   54MOL0     C 7217   7.385   9.510   6.062  0.4587 -0.5443  0.1618
   54MOL0     C 7218   7.362   9.452   6.195  0.2906  0.0705  0.5909
   54MOL0     C 7219   7.347   9.407   6.303 -0.2467 -0.4300 -0.5842
   54MOL0     C 7220   7.216   9.192   5.663  0.2394 -0.3000 -0.4152
   54MOL0     C 7221   7.318   9.109   5.621 -0.1290  0.5136  0.2645
   54MOL0     C 7222   7.313   8.958   5.643 -0.2657 -0.6908  0.1967
   54MOL0     H 7223   7.651   8.974   5.182  0.7015  0.7674 -1.1286
   54MOL0     H 7224   7.850   8.862   5.124 -2.8758  0.8403 -0.6559
   54MOL0     H 7225   8.225   8.999   5.306 -3.3605  0.0684 -0.0336
   54MOL0     H 7226   8.199   8.870   5.432  0.0746  1.5804  1.0272
   54MOL0     H 7227   8.315   8.804   5.168  1.9923 -0.3192  0.1086
   54MOL0     H 7228   8.310   8.698   5.308  2.5101  0.0290 -0.7799
   54MOL0     H 7229   8.456   8.860   5.437  2.6422 -0.6762 -0.7571
   54MOL0     H 7230   8.445   8.974   5.306 -1.1432  0.2448  0.0854
   54MOL0     H 7231   8.581   8.687   5.283  2.8277  0.2677 -1.7291
   54MOL0     H 7232   8.560   8.815   5.150  1.6352 -1.7367 -0.5607
   54MOL0     H 7233   8.697   8.963   5.268 -2.2524  0.4989 -0.1082
   54MOL0     H 7234   8.709   8.876   5.418  2.1503  0.7300  0.2462
   54MOL0     H 7235   8.837   8.701   5.329 -1.1828  0.2542  0.0646
   54MOL0     H 7236   8.817   8.762   5.157 -1.0105 -1.1016  0.7386
   54MOL0     H 7237   8.979   8.851   5.381 -1.5746 -2.5187 -0.5327
   54MOL0     H 7238   8.912   8.983   5.286 -0.2650  0.7879 -0.6790
   54MOL0     H 7239   9.101   8.755   5.167  0.3220 -0.7663 -1.4001
   54MOL0     H 7240   9.013   8.858   5.073  1.1639 -2.6391 -0.9433
   54MOL0     H 7241   9.087   9.164   5.159 -0.6796 -0.2595  0.9882
   54MOL0     H 7242   9.419   9.257   5.068  0.1736 -0.7892  0.5148
   54MOL0     H 7243   9.266   9.327   5.115 -1.8632 -1.8449  0.7282
   54MOL0     H 7244   9.324   9.363   5.332 -2.2199 -3.0574 -1.2485
   54MOL0     H 7245   9.438   9.235   5.344  4.0505  1.3684 -0.2417
   54MOL0     H 7246   9.490   9.513   5.210  3.5215 -0.4202 -2.7766
   54MOL0     H 7247   9.599   9.369   5.207 -1.7785 -1.2975 -2.8246
   54MOL0     H 7248   9.488   9.524   5.445 -0.7541 -0.4162  0.3109
   54MOL0     H 7249   9.669   9.516   5.396  2.0212 -3.1057  1.5563
   54MOL0     H 7250   9.831   9.455   5.531 -0.0338  0.1698 -0.4537
   54MOL0     H 7251  10.030   9.341   5.525 -2.7741  3.6107  0.9722
   54MOL0     H 7252  10.063   8.737   5.271 -0.5904 -0.1312  0.6038
   54MOL0     H 7253  10.239   8.568   5.216  1.7024 -1.0371  0.9368
   54MOL0     H 7254  10.423   8.502   5.067 -1.4988  1.8774 -0.5679
   54MOL0     H 7255  10.532   8.628   5.012 -0.1125  0.0142  0.1045
   54MOL0     H 7256  10.647   8.401   4.995 -0.2459  2.4662 -2.0159
   54MOL0     H 7257  10.725   8.536   5.098 -1.2688  0.7454  0.0256
   54MOL0     H 7258  10.695   8.417   5.292  1.1061 -0.0017  0.3363
   54MOL0     H 7259  10.561   8.319   5.224  0.9887  1.3527  1.2773
   54MOL0     H 7260  10.710   8.177   5.098  3.4439 -1.1386 -1.4215
   54MOL0     H 7261  10.775   8.189   5.266  0.3165  3.5202  1.4963
   54MOL0     H 7262  10.921   8.389   5.193 -0.4140  1.5660 -2.5090
   54MOL0     H 7263  10.874   8.342   5.026  0.4353 -0.6184 -0.2113
   54MOL0     H 7264  11.028   8.192   5.248 -1.8370 -2.7008 -0.1099
   54MOL0     H 7265  10.986   8.102   5.095  1.6870  0.8197 -1.1963
   54MOL0     H 7266  11.172   8.334   5.132  3.8775  0.1326 -1.8109
   54MOL0     H 7267  11.122   8.267   4.974  0.2757 -1.0565  0.0831
   54MOL0     H 7268  11.260   8.125   5.206  5.1579  1.1642 -0.6328
   54MOL0     H 7269  11.215   8.053   5.042  0.0997 -0.2450 -0.1787
   54MOL0     H 7270  10.529   8.877   5.286  1.3334 -1.3466 -1.3985
   54MOL0     H 7271  10.356   9.032   5.313  4.4650 -1.3702  1.7683
   54MOL0     H 7272   9.839   9.013   5.314 -1.0617  0.5800  0.1363
   54MOL0     H 7273   9.640   9.123   5.349  2.7743 -0.0323 -1.5405
   54MOL0     H 7274   8.037   9.004   5.497  2.3630  2.1622 -2.5784
   54MOL0     H 7275   7.831   9.122   5.537 -3.3616  2.0615 -0.9427
   54MOL0     H 7276   7.483   9.348   5.426  2.0844  0.4096  1.2724
   54MOL0     H 7277   7.293   9.481   5.526  0.4166  0.6013 -0.0157
   54MOL0     H 7278   7.044   9.538   5.810  0.1079 -1.4805  0.2226
   54MOL0     H 7279   7.183   9.576   5.709 -1.6051  1.3193  1.3453
   54MOL0     H 7280   7.329   9.420   5.828  0.2815  0.3011 -0.2652
   54MOL0     H 7281   7.193   9.335   5.902  2.8006 -2.3414 -3.6343
   54MOL0     H 7282   7.172   9.552   6.052  1.5619  1.0035  2.6260
   54MOL0     H 7283   7.267   9.635   5.923  0.2115 -0.6102 -0.0165
   54MOL0     H 7284   7.444   9.443   5.999  2.0166  1.8338 -1.0826
   54MOL0     H 7285   7.448   9.598   6.079  1.5237 -1.5644  1.7197
   54MOL0     H 7286   7.335   9.353   6.395  0.7276 -1.5597 -1.0841
   54MOL0     H 7287   7.138   9.146   5.723  0.6839 -0.2612  0.2019
   54MOL0     H 7288   7.216   8.927   5.685 -0.0122 -0.0025  1.3488
   54MOL0     H 7289   7.320   8.901   5.551 -0.2150  1.5895 -1.2874
   54MOL0     H 7290   7.388   8.924   5.715 -2.4295  1.0723  3.5627
   55MOL0     O 7291   9.925   7.226   7.671  0.4122  0.2246 -0.4653
   55MOL0     C 7292   9.809   7.221   7.632 -0.2186  0.1678  0.6782
   55MOL0     O 7293   9.698   7.248   7.714 -0.5506  0.4407 -0.2914
   55MOL0     C 7294   9.718   7.294   7.839  0.4659  0.2960  0.2203
   55MOL0     C 7295   9.701   7.211   7.950 -0.7778  0.0077  1.1264
   55MOL0     C 7296   9.743   7.270   8.080  0.2916 -0.2665 -0.1600
   55MOL0     C 7297   9.767   7.409   8.095 -0.1159  0.6725 -0.3638
   55MOL0     O 7298   9.819   7.483   8.204 -0.1773  0.2243 -0.8344
   55MOL0     C 7299   9.720   7.521   8.304  0.8478 -0.1450 -0.1085
   55MOL0     C 7300   9.802   7.563   8.436 -0.3038  1.1496  0.3926
   55MOL0     C 7301   9.702   7.631   8.534 -0.6120 -0.7230  0.1243
   55MOL0     C 7302   9.775   7.664   8.665  0.0951 -0.0703 -0.1106
   55MOL0     C 7303   9.681   7.700   8.782  0.0438  0.0666  0.2381
   55MOL0     C 7304   9.750   7.688   8.924 -0.2698 -0.2574  0.5026
   55MOL0     C 7305   9.657   7.708   9.042 -0.2651  0.1535  0.5767
   55MOL0     C 7306   9.585   7.845   9.037 -0.2040  0.4979 -1.3722
   55MOL0     N 7307   9.660   7.933   9.122  0.5325 -0.6099  0.6738
   55MOL0     C 7308   9.783   7.984   9.093 -0.5793 -0.0447 -0.0361
   55MOL0     C 7309   9.812   8.057   9.203  0.9823  0.6209  0.2206
   55MOL0     C 7310   9.937   8.151   9.212 -0.2536 -0.7201 -0.3290
   55MOL0     C 7311   9.923   8.264   9.117 -0.4488 -0.7182 -0.8979
   55MOL0     C 7312  10.041   8.371   9.120 -0.1068  0.8457  0.6060
   55MOL0     C 7313  10.098   8.416   8.984 -1.4149 -0.8009  0.3124
   55MOL0     O 7314  10.243   8.427   8.995 -0.1495 -0.2766 -1.1450
   55MOL0     C 7315  10.287   8.533   9.076  0.2521  0.8469 -0.4568
   55MOL0     C 7316  10.250   8.665   9.058  0.1695  0.9617  0.5523
   55MOL0     C 7317  10.303   8.762   9.137  0.0293  0.0691 -1.2898
   55MOL0     C 7318  10.412   8.737   9.226  0.4709  0.0086  0.0424
   55MOL0     C 7319  10.480   8.853   9.296  0.6547  1.0579  1.0105
   55MOL0     O 7320  10.407   8.968   9.311 -0.1894  0.8072  0.5305
   55MOL0     C 7321  10.463   9.072   9.381 -0.0148  0.6541 -0.0667
   55MOL0     C 7322  10.551   9.161   9.318 -0.3636 -0.2406 -0.0199
   55MOL0     C 7323  10.598   9.278   9.378 -1.1768  0.3758 -0.4537
   55MOL0     C 7324  10.567   9.311   9.497  0.0754  0.0465 -1.0223
   55MOL0     O 7325  10.609   9.420   9.560 -0.9915 -0.4376 -0.5685
   55MOL0     C 7326  10.663   9.441   9.699 -0.5149  0.3397  0.2639
   55MOL0     C 7327  10.801   9.491   9.707 -0.5630 -0.1610  0.5454
   55MOL0     C 7328  10.835   9.616   9.628  0.0353 -0.2883 -0.4239
   55MOL0     C 7329  10.987   9.613   9.614  0.0564 -0.0233 -0.5600
   55MOL0     C 7330  11.039   9.738   9.553 -0.4060 -0.1337  0.0055
   55MOL0     C 7331  11.063   9.840   9.654 -0.6054 -0.9251  0.7175
   55MOL0     C 7332  11.131   9.962   9.587 -0.1478  0.8313  0.2843
   55MOL0     C 7333  11.199  10.060   9.684 -0.0779  0.5050 -0.5746
   55MOL0    Cl 7334  11.299   9.968   9.795  0.0566  0.0583 -0.6328
   55MOL0     C 7335  10.460   9.231   9.563 -0.1859 -0.4237 -0.1948
   55MOL0     C 7336  10.415   9.114   9.505 -0.2070 -0.5195 -0.8124
   55MOL0     O 7337  10.591   8.832   9.320 -0.1005  0.7265 -0.0628
   55MOL0     C 7338  10.455   8.597   9.246 -0.1875 -0.6959 -0.0660
   55MOL0     C 7339  10.384   8.501   9.174  0.4118  0.7709 -1.0386
   55MOL0     N 7340   9.706   8.046   9.295 -0.5962 -0.5086  0.2029
   55MOL0     N 7341   9.622   7.971   9.245 -0.1968 -0.4063  0.4425
   55MOL0     C 7342   9.742   7.486   7.978  0.6674 -0.9811 -0.1204
   55MOL0     C 7343   9.731   7.426   7.853 -0.3688  0.3607  0.1826
   55MOL0     C 7344   9.783   7.189   7.484  0.8388  0.8886  0.2929
   55MOL0     C 7345   9.659   7.207   7.432 -0.3695  0.3652 -0.0028
   55MOL0     C 7346   9.631   7.164   7.300 -0.1496 -0.7893  0.4788
   55MOL0     C 7347   9.727   7.128   7.207  1.0809 -0.2477  0.8517
   55MOL0     O 7348   9.711   7.084   7.077 -0.3756  0.1416  0.2684
   55MOL0     C 7349   9.576   7.104   7.021  0.4818 -0.1035 -0.4011
   55MOL0     C 7350   9.566   7.049   6.876 -0.4173 -0.4399 -0.3337
   55MOL0     C 7351   9.591   6.899   6.883 -0.5462  0.6087  0.6318
   55MOL0     C 7352   9.514   6.830   6.772 -0.1736 -0.7978 -0.1167
   55MOL0     C 7353   9.550   6.885   6.628 -0.6105 -0.3187 -0.7758
   55MOL0     C 7354   9.587   6.916   6.519 -0.3713 -0.5827 -0.2974
   55MOL0     C 7355   9.850   7.121   7.258  0.1179  0.4676 -0.8883
   55MOL0     C 7356   9.888   7.143   7.393 -0.0519 -0.0513 -0.0719
   55MOL0     C 7357  10.035   7.118   7.438  0.3293  0.1475 -0.4998
   55MOL0     H 7358   9.679   7.105   7.944 -2.9114  0.2816  2.8262
   55MOL0     H 7359   9.754   7.210   8.170 -3.0358 -1.0222 -0.1181
   55MOL0     H 7360   9.658   7.605   8.270 -0.9183 -1.0765  0.6413
   55MOL0     H 7361   9.656   7.434   8.324 -0.9307  1.3935  1.2660
   55MOL0     H 7362   9.885   7.630   8.411  0.4993  0.0915  0.1566
   55MOL0     H 7363   9.842   7.471   8.480 -0.5916  0.3950 -0.8921
   55MOL0     H 7364   9.619   7.562   8.553  1.6860 -3.6982  0.2038
   55MOL0     H 7365   9.667   7.723   8.487  2.2130 -0.7341 -2.2766
   55MOL0     H 7366   9.831   7.571   8.682 -1.6912 -1.2529 -0.5179
   55MOL0     H 7367   9.855   7.739   8.657  1.7344 -1.6519  0.6946
   55MOL0     H 7368   9.634   7.799   8.777 -3.5949 -1.4524  0.6666
   55MOL0     H 7369   9.598   7.631   8.799  0.2978  0.3711  3.1612
   55MOL0     H 7370   9.790   7.586   8.922 -2.1893 -1.0470 -1.4547
   55MOL0     H 7371   9.838   7.751   8.939 -0.8765  0.3435  1.6415
   55MOL0     H 7372   9.703   7.696   9.141 -2.3001  0.1904  1.5847
   55MOL0     H 7373   9.585   7.626   9.031 -0.6002  0.3875  1.0009
   55MOL0     H 7374   9.577   7.893   8.940  3.5344 -2.4857 -3.4363
   55MOL0     H 7375   9.483   7.834   9.077 -0.5338  3.1849 -1.2835
   55MOL0     H 7376   9.850   7.971   9.008 -1.6972 -4.0447 -0.5159
   55MOL0     H 7377   9.940   8.191   9.314  0.3558 -0.7211 -0.3444
   55MOL0     H 7378  10.027   8.096   9.185 -1.6141 -3.0409 -0.4273
   55MOL0     H 7379   9.911   8.203   9.027 -2.1348 -0.8478 -0.6220
   55MOL0     H 7380   9.836   8.329   9.134 -0.4305 -0.4681 -1.7337
   55MOL0     H 7381  10.123   8.319   9.170 -1.5377  0.9424  3.2228
   55MOL0     H 7382  10.013   8.461   9.177 -2.3665  0.6457 -0.0748
   55MOL0     H 7383  10.046   8.510   8.965  1.6600  1.1700  0.9118
   55MOL0     H 7384  10.080   8.339   8.909  0.2295 -1.1156  0.2073
   55MOL0     H 7385  10.184   8.685   8.975 -0.0210 -3.8024 -0.7467
   55MOL0     H 7386  10.260   8.861   9.131 -3.1033 -1.0124  0.8023
   55MOL0     H 7387  10.579   9.149   9.214 -2.3479  0.2185 -0.6661
   55MOL0     H 7388  10.681   9.335   9.335 -1.5372  0.1475 -1.4653
   55MOL0     H 7389  10.612   9.523   9.749  2.6904  1.3721  2.1466
   55MOL0     H 7390  10.653   9.356   9.768  1.2107 -0.2707 -0.1635
   55MOL0     H 7391  10.825   9.504   9.813 -0.7571  1.9859  0.3770
   55MOL0     H 7392  10.867   9.415   9.666 -1.4401 -0.7751  0.2415
   55MOL0     H 7393  10.800   9.606   9.524  1.3967  1.7792 -1.1354
   55MOL0     H 7394  10.797   9.710   9.669  1.1838 -0.9141  2.2716
   55MOL0     H 7395  11.022   9.532   9.549 -1.1817 -1.8837  0.9685
   55MOL0     H 7396  11.017   9.595   9.717 -1.5986  1.3765  0.2222
   55MOL0     H 7397  10.977   9.772   9.470 -1.1272  0.3021  0.7132
   55MOL0     H 7398  11.127   9.709   9.495 -2.1232 -1.7717 -1.9416
   55MOL0     H 7399  10.975   9.879   9.706  0.9354  0.8423  2.1373
   55MOL0     H 7400  11.131   9.796   9.727  1.5177 -1.6989 -1.5876
   55MOL0     H 7401  11.058  10.016   9.526 -0.9489  0.2592  0.7228
   55MOL0     H 7402  11.208   9.923   9.520  1.3806  1.1995  1.7613
   55MOL0     H 7403  11.264  10.131   9.632  0.4529  0.4768  0.0396
   55MOL0     H 7404  11.118  10.117   9.730 -1.1054  2.0464 -3.9376
   55MOL0     H 7405  10.429   9.276   9.657  1.1527  0.3661 -0.1119
   55MOL0     H 7406  10.335   9.068   9.562  0.7250  2.0147  2.8990
   55MOL0     H 7407  10.534   8.569   9.315  1.3475  0.2476 -1.3622
   55MOL0     H 7408  10.394   8.395   9.195  2.1884  0.8732 -1.2727
   55MOL0     H 7409   9.755   7.594   7.975 -3.7498 -0.2804 -2.8006
   55MOL0     H 7410   9.717   7.485   7.763 -0.8840 -1.9761 -1.3594
   55MOL0     H 7411   9.578   7.243   7.493 -2.0266  0.5728 -2.2157
   55MOL0     H 7412   9.531   7.160   7.258 -0.1217 -0.7660  0.4105
   55MOL0     H 7413   9.549   7.210   7.021  0.3138 -0.1466 -0.1964
   55MOL0     H 7414   9.493   7.060   7.076 -1.0608  2.3802 -0.6212
   55MOL0     H 7415   9.629   7.107   6.808  0.6590 -1.1241  0.0413
   55MOL0     H 7416   9.462   7.070   6.851 -0.2055  3.4754  1.4046
   55MOL0     H 7417   9.565   6.858   6.981 -0.3991  0.0241  0.4339
   55MOL0     H 7418   9.699   6.881   6.875 -0.6157  0.5622 -0.2331
   55MOL0     H 7419   9.527   6.721   6.776  2.8894 -0.4944  1.5581
   55MOL0     H 7420   9.411   6.855   6.798  0.2484  0.6385  0.2278
   55MOL0     H 7421   9.598   6.961   6.422  0.9815  2.1367  1.0420
   55MOL0     H 7422   9.929   7.100   7.185  1.3248  0.4895  0.3699
   55MOL0     H 7423  10.051   7.031   7.503  1.6753 -0.1825 -1.2383
   55MOL0     H 7424  10.095   7.082   7.354  0.6702  0.2726 -0.3146
   55MOL0     H 7425  10.096   7.199   7.480  0.0803 -0.1967  0.5481
   56MOL0     O 7426  10.637  11.146   5.198 -0.4003 -0.6144 -0.5308
   56MOL0     C 7427  10.598  11.045   5.147 -0.0611  0.6142 -0.5872
   56MOL0     O 7428  10.480  11.033   5.069  0.2784 -0.5880 -0.4023
   56MOL0     C 7429  10.395  11.141   5.052 -0.7109  0.4000  0.0036
   56MOL0     C 7430  10.401  11.211   4.939  0.1831 -0.1367 -0.5216
   56MOL0     C 7431  10.311  11.315   4.923  0.3202  0.5541  0.2163
   56MOL0     C 7432  10.216  11.347   5.015  0.2968  0.1479  0.0850
   56MOL0     O 7433  10.114  11.441   4.999  0.0902 -0.6561 -0.7432
   56MOL0     C 7434  10.117  11.565   5.071 -0.3029 -0.8310  0.2619
   56MOL0     C 7435  10.254  11.630   5.038  0.0686  0.2081 -0.1285
   56MOL0     C 7436  10.254  11.777   5.039  0.4186 -0.3581 -0.3935
   56MOL0     C 7437  10.183  11.828   4.918 -0.4720  0.3316  0.0675
   56MOL0     C 7438  10.116  11.969   4.936  0.3410 -0.2267 -0.3322
   56MOL0     C 7439  10.217  12.085   4.927  0.0666 -0.9951 -0.0643
   56MOL0     C 7440  10.142  12.219   4.930 -0.1291 -0.0165 -0.3403
   56MOL0     C 7441  10.227  12.326   4.992 -0.3026  0.9875  0.5482
   56MOL0     N 7442  10.215  12.463   4.947 -0.2091  0.1189 -0.4293
   56MOL0     C 7443  10.254  12.509   4.827 -0.3864  0.4531  0.2311
   56MOL0     C 7444  10.227  12.641   4.825 -0.3581  0.4078 -0.0695
   56MOL0     C 7445  10.259  12.738   4.717  0.6386 -0.4274 -1.8424
   56MOL0     C 7446  10.273  12.873   4.787  0.4107 -0.3173  0.5146
   56MOL0     C 7447  10.296  12.979   4.680 -0.1269 -1.3800 -1.2063
   56MOL0     C 7448  10.329  13.110   4.751  0.1331 -0.2125 -0.3772
   56MOL0     O 7449  10.383  13.203   4.658  0.5313  0.7652  0.6024
   56MOL0     C 7450  10.412  13.329   4.695 -0.0706  0.0791  1.0507
   56MOL0     C 7451  10.473  13.412   4.608 -0.2278 -0.0360 -0.0535
   56MOL0     C 7452  10.481  13.552   4.633 -1.2718  0.4235 -0.1975
   56MOL0     C 7453  10.434  13.613   4.751  0.4626  0.7502  0.6155
   56MOL0     C 7454  10.454  13.760   4.776 -0.3093  0.1443  0.5262
   56MOL0     O 7455  10.574  13.797   4.713 -0.2201  0.3354  0.7221
   56MOL0     C 7456  10.618  13.927   4.711 -0.4875 -0.1116 -0.0961
   56MOL0     C 7457  10.527  14.034   4.706  0.0943  0.1001  0.1747
   56MOL0     C 7458  10.571  14.168   4.687 -0.3094  0.0744  0.5633
   56MOL0     C 7459  10.701  14.192   4.683 -0.4343  0.3554  0.2933
   56MOL0     O 7460  10.737  14.323   4.657 -0.5515 -0.1079 -0.0677
   56MOL0     C 7461  10.747  14.401   4.782 -0.4843  0.0405 -0.3684
   56MOL0     C 7462  10.855  14.356   4.880  0.1174 -1.0464  0.2075
   56MOL0     C 7463  10.989  14.356   4.814 -0.9100  0.1917  0.1125
   56MOL0     C 7464  11.086  14.252   4.864  0.3348  0.3671 -0.4847
   56MOL0     C 7465  11.221  14.273   4.791  0.0487 -0.6427 -0.6800
   56MOL0     C 7466  11.317  14.373   4.836 -0.4129  0.2588 -0.8374
   56MOL0     C 7467  11.442  14.387   4.741  1.1837 -1.1419 -0.3529
   56MOL0     C 7468  11.511  14.517   4.775 -0.3032  0.2661  0.2231
   56MOL0    Cl 7469  11.415  14.641   4.685 -0.2622  0.1385  0.7704
   56MOL0     C 7470  10.796  14.094   4.676  0.0020 -0.0367  0.0548
   56MOL0     C 7471  10.752  13.960   4.688 -0.4627  0.6151  0.0091
   56MOL0     O 7472  10.391  13.833   4.851 -0.1964 -0.2571 -0.8460
   56MOL0     C 7473  10.364  13.530   4.837 -0.1119 -0.5586  0.4496
   56MOL0     C 7474  10.358  13.392   4.809  0.2040  0.3590  0.1970
   56MOL0     N 7475  10.178  12.676   4.948  0.2450  0.3272 -0.0390
   56MOL0     N 7476  10.170  12.572   5.022 -0.1676 -0.1025 -0.3569
   56MOL0     C 7477  10.214  11.271   5.129  0.2395  0.3088 -0.0658
   56MOL0     C 7478  10.297  11.164   5.143 -0.0081  0.3446  0.0413
   56MOL0     C 7479  10.691  10.925   5.159  0.2678 -0.7006 -0.8404
   56MOL0     C 7480  10.826  10.948   5.196  0.2511 -0.2963  0.7618
   56MOL0     C 7481  10.908  10.837   5.219  0.0402 -0.0891 -0.1406
   56MOL0     C 7482  10.862  10.704   5.196 -0.3683  0.1053 -0.1731
   56MOL0     O 7483  10.952  10.606   5.222  0.2291  0.6027  0.1148
   56MOL0     C 7484  10.920  10.469   5.189  0.5272  0.9630  0.6789
   56MOL0     C 7485  11.042  10.384   5.219 -0.0899  0.4473 -1.2682
   56MOL0     C 7486  11.107  10.403   5.354  0.0105  0.7458 -0.4889
   56MOL0     C 7487  11.187  10.275   5.398 -0.7680 -0.1575  0.5659
   56MOL0     C 7488  11.287  10.314   5.500 -0.4080 -0.9162 -0.3260
   56MOL0     C 7489  11.370  10.341   5.581 -0.7408  0.2179  0.5102
   56MOL0     C 7490  10.738  10.690   5.139  0.2359 -0.5778  0.2365
   56MOL0     C 7491  10.648  10.796   5.123  0.5596 -1.0792 -0.0628
   56MOL0     C 7492  10.508  10.756   5.092  0.1901  1.1364  0.0293
   56MOL0     H 7493  10.469  11.187   4.858  4.4931  0.0876  2.6388
   56MOL0     H 7494  10.311  11.371   4.830 -0.5916  1.9622  1.0244
   56MOL0     H 7495  10.044  11.637   5.034  1.5360  2.3869  2.3788
   56MOL0     H 7496  10.091  11.571   5.177 -0.3665 -0.7674  0.2431
   56MOL0     H 7497  10.289  11.596   4.940 -1.9342 -1.9304 -0.1788
   56MOL0     H 7498  10.330  11.589   5.105  2.8361  1.9015 -2.0004
   56MOL0     H 7499  10.355  11.817   5.045  0.2720  0.0821 -0.7980
   56MOL0     H 7500  10.198  11.803   5.130  2.6091  0.4538  0.7851
   56MOL0     H 7501  10.253  11.817   4.835 -1.6205 -1.1044 -0.7589
   56MOL0     H 7502  10.095  11.769   4.892  1.2854 -1.0429 -3.3963
   56MOL0     H 7503  10.038  11.986   4.861  0.1742 -0.7175 -0.2743
   56MOL0     H 7504  10.067  11.976   5.033  1.3775  0.8661  0.1479
   56MOL0     H 7505  10.291  12.080   5.007 -4.2048  2.5864  4.7829
   56MOL0     H 7506  10.265  12.100   4.830  2.0662  0.3197  1.0710
   56MOL0     H 7507  10.048  12.222   4.986 -0.7299  2.3287 -1.3516
   56MOL0     H 7508  10.107  12.250   4.831 -0.6972  1.8795  0.4196
   56MOL0     H 7509  10.213  12.316   5.100  0.4255 -0.2586  0.5354
   56MOL0     H 7510  10.332  12.308   4.970 -0.4052 -0.5421  1.2154
   56MOL0     H 7511  10.305  12.447   4.754 -1.8828  0.0727 -0.5227
   56MOL0     H 7512  10.354  12.705   4.673  0.7537  0.4587 -2.2951
   56MOL0     H 7513  10.192  12.732   4.631 -0.7277 -3.6723 -0.6911
   56MOL0     H 7514  10.194  12.910   4.853  2.4206  3.9437  0.9301
   56MOL0     H 7515  10.358  12.866   4.856 -0.3304 -1.7686  1.3177
   56MOL0     H 7516  10.210  12.999   4.616  0.5138  0.7885 -1.4813
   56MOL0     H 7517  10.386  12.956   4.621  1.4669  0.4919  0.3302
   56MOL0     H 7518  10.401  13.090   4.831  1.2520 -3.4542 -2.0228
   56MOL0     H 7519  10.242  13.149   4.805 -0.8977 -0.2198 -1.9742
   56MOL0     H 7520  10.513  13.378   4.513  0.8567  1.5146 -0.2071
   56MOL0     H 7521  10.548  13.606   4.566  1.9268 -3.5694 -0.5874
   56MOL0     H 7522  10.420  14.013   4.705  0.4587 -2.0043  0.3989
   56MOL0     H 7523  10.493  14.243   4.686 -0.1281  0.2658  0.6700
   56MOL0     H 7524  10.760  14.509   4.769 -2.5580  0.8626  3.0343
   56MOL0     H 7525  10.652  14.401   4.837  0.2627  1.1052  0.9835
   56MOL0     H 7526  10.861  14.426   4.963  0.0636 -1.7192  0.7847
   56MOL0     H 7527  10.826  14.259   4.921 -1.8937  0.1072  1.7175
   56MOL0     H 7528  10.975  14.332   4.708 -0.0274 -4.9167  0.9131
   56MOL0     H 7529  11.030  14.456   4.831 -1.4262  0.2343  1.1816
   56MOL0     H 7530  11.052  14.148   4.857  3.0768 -0.6052 -0.6359
   56MOL0     H 7531  11.100  14.273   4.971  0.1117  0.8244 -0.5415
   56MOL0     H 7532  11.214  14.300   4.686 -0.5182  2.7449  0.1258
   56MOL0     H 7533  11.273  14.177   4.802  3.5018  0.6925 -3.5636
   56MOL0     H 7534  11.274  14.474   4.829  1.0612  0.9778  0.0533
   56MOL0     H 7535  11.361  14.361   4.935 -0.8453  2.2204 -0.3626
   56MOL0     H 7536  11.404  14.375   4.639 -0.3607 -0.6635  0.1472
   56MOL0     H 7537  11.504  14.298   4.759 -0.6000 -2.5242 -0.8024
   56MOL0     H 7538  11.518  14.528   4.883 -1.9450  0.9185  0.2814
   56MOL0     H 7539  11.611  14.538   4.734 -0.4684  1.6504  0.4793
   56MOL0     H 7540  10.900  14.121   4.661  0.5573 -2.2451 -0.2840
   56MOL0     H 7541  10.828  13.882   4.690  2.3361  3.0823 -1.7380
   56MOL0     H 7542  10.330  13.570   4.932  0.9393 -3.2136  2.0754
   56MOL0     H 7543  10.293  13.352   4.886  0.5532  0.3080  0.4644
   56MOL0     H 7544  10.127  11.252   5.191 -0.0436 -0.1888 -0.5994
   56MOL0     H 7545  10.288  11.104   5.233 -0.2026  3.0068  1.9082
   56MOL0     H 7546  10.872  11.045   5.207  4.6524 -1.8054 -1.6760
   56MOL0     H 7547  11.012  10.840   5.250  0.1714  1.5190 -0.5971
   56MOL0     H 7548  10.901  10.468   5.081  1.8625 -0.4477  0.4267
   56MOL0     H 7549  10.836  10.439   5.252 -0.1633  2.7264  0.6510
   56MOL0     H 7550  11.123  10.397   5.147  0.4789 -0.1332 -0.7459
   56MOL0     H 7551  10.998  10.284   5.213  1.0169  0.0023 -2.4723
   56MOL0     H 7552  11.021  10.408   5.422  0.4938 -2.2077  0.4783
   56MOL0     H 7553  11.155  10.499   5.375  1.5707 -0.0101 -0.5035
   56MOL0     H 7554  11.115  10.202   5.435  1.5543 -2.3380  0.9934
   56MOL0     H 7555  11.239  10.214   5.324 -2.3531  0.0813 -0.8043
   56MOL0     H 7556  11.442  10.349   5.661 -2.4372  3.5417  1.9287
   56MOL0     H 7557  10.697  10.592   5.115 -3.6138  1.4851 -2.8182
   56MOL0     H 7558  10.425  10.811   5.137 -0.9176  0.9519 -1.6807
   56MOL0     H 7559  10.490  10.771   4.985  0.6667  1.5462  0.0076
   56MOL0     H 7560  10.487  10.649   5.099  2.5125  0.3621 -3.0140
   57MOL0     O 7561   2.240   5.414   3.456  0.1622 -0.0203  0.0682
   57MOL0     C 7562   2.235   5.369   3.571  0.1971  0.5177  0.0564
   57MOL0     O 7563   2.281   5.438   3.689 -0.4586  0.8510  0.3217
   57MOL0     C 7564   2.345   5.564   3.688 -0.1943  0.6257  0.5663
   57MOL0     C 7565   2.377   5.645   3.580 -0.7032 -0.3195 -0.0826
   57MOL0     C 7566   2.418   5.779   3.605 -0.1554 -0.4919  1.1259
   57MOL0     C 7567   2.409   5.830   3.730 -0.2050 -0.3434 -0.8518
   57MOL0     O 7568   2.442   5.958   3.764 -0.2153 -0.2166 -0.1684
   57MOL0     C 7569   2.325   6.040   3.790  0.5073  1.3279  0.9083
   57MOL0     C 7570   2.326   6.089   3.934 -0.5876 -0.3601  0.0815
   57MOL0     C 7571   2.227   6.205   3.968 -0.7094  0.1720  0.2475
   57MOL0     C 7572   2.284   6.290   4.082 -0.9368  0.1088 -0.4705
   57MOL0     C 7573   2.178   6.369   4.160  0.2113 -0.2959 -0.1552
   57MOL0     C 7574   2.238   6.488   4.242  0.8202 -1.1627 -0.6549
   57MOL0     C 7575   2.119   6.579   4.296 -0.7305 -0.2520 -0.5503
   57MOL0     C 7576   2.017   6.513   4.396 -0.4017 -0.4573 -0.2926
   57MOL0     N 7577   2.077   6.464   4.520 -0.3111 -0.0347  0.1050
   57MOL0     C 7578   2.043   6.351   4.593 -0.4222 -0.1725 -0.0493
   57MOL0     C 7579   2.125   6.352   4.705 -0.5361 -1.4212 -0.4984
   57MOL0     C 7580   2.123   6.251   4.818  0.0387 -0.1830  0.9071
   57MOL0     C 7581   2.014   6.291   4.930  0.5221  0.4193  0.6817
   57MOL0     C 7582   2.023   6.410   5.011 -0.1987 -0.4985 -0.3616
   57MOL0     C 7583   1.933   6.423   5.141  0.4411  0.4229  0.1512
   57MOL0     O 7584   1.930   6.322   5.239 -0.4057  0.0333 -1.0195
   57MOL0     C 7585   2.049   6.281   5.302  1.0298  0.2494  0.4467
   57MOL0     C 7586   2.048   6.162   5.379 -0.3104  0.3024 -0.4219
   57MOL0     C 7587   2.173   6.136   5.449  1.1170  0.8808  0.5044
   57MOL0     C 7588   2.289   6.215   5.442  0.7072 -0.3859  0.3897
   57MOL0     C 7589   2.417   6.154   5.496 -0.7285  0.7272 -0.6123
   57MOL0     O 7590   2.529   6.230   5.493  0.2015  0.1374 -0.3722
   57MOL0     C 7591   2.644   6.170   5.553 -0.0931  0.4553  0.4370
   57MOL0     C 7592   2.658   6.156   5.686  0.0541  1.1618 -0.1414
   57MOL0     C 7593   2.786   6.111   5.743  0.7558  0.3200  0.2076
   57MOL0     C 7594   2.895   6.083   5.658  0.1329  0.1630 -0.9580
   57MOL0     O 7595   3.005   6.023   5.723  0.1873  0.0754 -0.2046
   57MOL0     C 7596   3.070   5.921   5.651  0.2205 -0.0042  0.6936
   57MOL0     C 7597   3.163   5.824   5.734 -0.1076  0.4903 -0.9184
   57MOL0     C 7598   3.071   5.748   5.829 -0.7813  0.4358 -0.4914
   57MOL0     C 7599   3.161   5.650   5.922  0.3219 -0.1933 -1.1920
   57MOL0     C 7600   3.062   5.559   5.990 -0.5378  0.9085  0.0729
   57MOL0     C 7601   3.142   5.452   6.069 -0.1627  0.6246  0.3695
   57MOL0     C 7602   3.219   5.519   6.195  0.8680  0.2602  0.0965
   57MOL0     C 7603   3.216   5.416   6.312 -0.4632 -1.2526 -0.0812
   57MOL0    Cl 7604   3.305   5.260   6.272 -0.2541 -0.1279 -0.0890
   57MOL0     C 7605   2.882   6.102   5.521 -0.8817 -0.9399 -0.3527
   57MOL0     C 7606   2.759   6.153   5.474 -0.0206 -0.4361 -0.5347
   57MOL0     O 7607   2.407   6.039   5.539  0.2290  0.9601  0.5859
   57MOL0     C 7608   2.278   6.333   5.366 -0.0264 -0.2503  1.5194
   57MOL0     C 7609   2.160   6.354   5.303 -0.6601 -0.3289  0.5527
   57MOL0     N 7610   2.204   6.460   4.701  0.4073  0.3031  0.2959
   57MOL0     N 7611   2.167   6.536   4.598 -0.1072  0.2563 -0.4888
   57MOL0     C 7612   2.370   5.753   3.841  0.1246 -1.1960  0.2747
   57MOL0     C 7613   2.347   5.618   3.820  0.2828  0.1346  0.1767
   57MOL0     C 7614   2.198   5.224   3.594 -0.2298 -0.2415  0.1501
   57MOL0     C 7615   2.150   5.192   3.723 -0.0753  0.4311 -0.1567
   57MOL0     C 7616   2.114   5.055   3.749  0.0211  0.6809  0.1891
   57MOL0     C 7617   2.137   4.955   3.660 -0.6584 -0.3427 -0.5019
   57MOL0     O 7618   2.114   4.836   3.711  0.8867 -0.0543  0.6458
   57MOL0     C 7619   2.192   4.727   3.673  0.1370  1.0443  0.2661
   57MOL0     C 7620   2.184   4.623   3.784 -0.6686 -0.0462  0.0357
   57MOL0     C 7621   2.059   4.622   3.875  0.3494  0.3319 -0.2538
   57MOL0     C 7622   2.078   4.523   3.984  0.3784 -1.1054 -0.4707
   57MOL0     C 7623   1.968   4.512   4.085  0.4926  0.0927 -0.6348
   57MOL0     C 7624   1.877   4.486   4.165 -0.2999  0.3344 -0.5831
   57MOL0     C 7625   2.193   4.987   3.529  0.3329  0.6030 -0.1668
   57MOL0     C 7626   2.216   5.116   3.492  0.0844  0.1490  0.9003
   57MOL0     C 7627   2.243   5.147   3.347 -0.4336  0.3805 -0.1003
   57MOL0     H 7628   2.360   5.614   3.478 -1.6541  1.8126 -0.6239
   57MOL0     H 7629   2.457   5.843   3.527  1.6211 -0.3416  2.0810
   57MOL0     H 7630   2.326   6.130   3.728  0.7203  1.8684  1.6884
   57MOL0     H 7631   2.231   5.991   3.762  0.2904  1.5802  1.1984
   57MOL0     H 7632   2.429   6.127   3.935 -0.4757 -0.1340 -3.5590
   57MOL0     H 7633   2.314   6.009   4.007 -0.3199  0.6701  1.2935
   57MOL0     H 7634   2.131   6.160   3.995  1.0551 -1.6602  4.2092
   57MOL0     H 7635   2.203   6.263   3.878  0.6545 -0.5363 -0.5988
   57MOL0     H 7636   2.335   6.223   4.151  2.1841 -0.2583 -2.8851
   57MOL0     H 7637   2.369   6.352   4.052  1.0046 -0.4260  3.3562
   57MOL0     H 7638   2.120   6.413   4.078  1.6476 -1.2585 -1.7427
   57MOL0     H 7639   2.115   6.302   4.219 -0.7878  1.1751  0.5081
   57MOL0     H 7640   2.309   6.452   4.317 -0.0629 -1.0291  0.2602
   57MOL0     H 7641   2.290   6.539   4.160  0.9003  0.0025  0.0925
   57MOL0     H 7642   2.072   6.630   4.211  1.3186  5.7578  1.4524
   57MOL0     H 7643   2.167   6.656   4.356  0.2713 -1.1641 -0.1601
   57MOL0     H 7644   1.954   6.598   4.426  2.4923  1.7903 -0.1253
   57MOL0     H 7645   1.967   6.435   4.338  0.8546 -0.3423 -1.5917
   57MOL0     H 7646   1.973   6.274   4.562 -0.5177 -0.7197  1.4268
   57MOL0     H 7647   2.086   6.163   4.765  0.1557 -1.1472  2.3681
   57MOL0     H 7648   2.223   6.232   4.856  0.0625 -1.2444  0.3271
   57MOL0     H 7649   1.914   6.277   4.888  0.8926 -1.5277  0.3210
   57MOL0     H 7650   2.014   6.206   4.999  1.2474  0.5580  0.8683
   57MOL0     H 7651   2.007   6.496   4.945 -1.1783 -1.0242 -0.8352
   57MOL0     H 7652   2.127   6.414   5.045  0.7114 -1.8728 -2.7718
   57MOL0     H 7653   1.833   6.424   5.096  0.3241 -1.0500  0.3210
   57MOL0     H 7654   1.939   6.523   5.185 -0.4470  0.3787  0.3855
   57MOL0     H 7655   1.954   6.111   5.397  0.8123 -2.3341 -1.5386
   57MOL0     H 7656   2.173   6.044   5.507 -0.2840  1.1913  1.0489
   57MOL0     H 7657   2.575   6.173   5.754 -1.8764 -0.0313 -2.0879
   57MOL0     H 7658   2.787   6.086   5.849  0.1352 -1.7143 -0.2181
   57MOL0     H 7659   3.002   5.853   5.598  2.0749  0.3539 -2.3897
   57MOL0     H 7660   3.140   5.965   5.580 -1.9819 -2.9436 -3.7971
   57MOL0     H 7661   3.213   5.754   5.666 -0.2886 -2.7701  1.9953
   57MOL0     H 7662   3.221   5.888   5.800 -0.8234  0.2641 -0.0490
   57MOL0     H 7663   3.016   5.819   5.891 -0.3472 -0.0852  0.5115
   57MOL0     H 7664   3.004   5.690   5.765  0.2839  1.0506 -2.2403
   57MOL0     H 7665   3.206   5.706   6.005 -1.7066 -2.7555  1.9095
   57MOL0     H 7666   3.232   5.595   5.859 -0.7735 -2.9137 -0.2137
   57MOL0     H 7667   3.001   5.516   5.910  1.1263 -2.3735  0.3605
   57MOL0     H 7668   2.998   5.608   6.063 -0.0938 -0.3690  1.3821
   57MOL0     H 7669   3.071   5.378   6.107 -1.3537  1.5216 -0.0401
   57MOL0     H 7670   3.215   5.407   6.001 -0.1409 -0.3117  0.9966
   57MOL0     H 7671   3.162   5.609   6.221 -0.7958 -1.2429  1.9787
   57MOL0     H 7672   3.319   5.554   6.169  0.4872  1.3096  0.0099
   57MOL0     H 7673   3.242   5.459   6.409  1.1508 -1.9714 -0.1524
   57MOL0     H 7674   3.110   5.392   6.329 -0.8485  1.6060  2.2744
   57MOL0     H 7675   2.971   6.083   5.462 -1.1149 -3.7682  0.0732
   57MOL0     H 7676   2.748   6.178   5.368 -0.6401 -1.2471 -0.6732
   57MOL0     H 7677   2.352   6.410   5.347 -1.4015  1.1679  1.7005
   57MOL0     H 7678   2.163   6.450   5.253  2.3369 -0.1857  0.8325
   57MOL0     H 7679   2.354   5.799   3.938 -0.9162 -0.6910 -0.1233
   57MOL0     H 7680   2.320   5.557   3.906 -0.3236 -1.3630 -1.0390
   57MOL0     H 7681   2.144   5.261   3.806 -1.1383 -0.4967  0.5574
   57MOL0     H 7682   2.059   5.028   3.839 -0.4349  1.0493  0.0199
   57MOL0     H 7683   2.297   4.759   3.678  0.6244 -0.6053  1.5366
   57MOL0     H 7684   2.182   4.671   3.580  0.5583  0.9482  0.2779
   57MOL0     H 7685   2.267   4.647   3.851  0.0958  2.0997 -1.5669
   57MOL0     H 7686   2.201   4.520   3.751 -2.5878 -0.0389 -1.1057
   57MOL0     H 7687   1.972   4.578   3.825  1.8159 -1.4808 -1.3093
   57MOL0     H 7688   2.035   4.722   3.914 -0.2999  0.7960 -1.7508
   57MOL0     H 7689   2.098   4.421   3.950 -0.4915 -0.9108 -1.6033
   57MOL0     H 7690   2.157   4.573   4.041 -1.9310  2.7216 -0.2693
   57MOL0     H 7691   1.798   4.449   4.228  0.4611 -2.0418 -0.9312
   57MOL0     H 7692   2.210   4.905   3.460  2.9434  0.8673  0.0362
   57MOL0     H 7693   2.349   5.173   3.340 -0.5589  0.5099 -1.7618
   57MOL0     H 7694   2.229   5.057   3.286  1.5753  0.0597 -0.1572
   57MOL0     H 7695   2.169   5.219   3.313  0.3479  0.4215 -1.8263
   58MOL0     O 7696   6.309  10.318   6.879 -0.4500  0.3348  0.2381
   58MOL0     C 7697   6.256  10.404   6.805  0.3291  0.5702  0.7633
   58MOL0     O 7698   6.155  10.379   6.715  0.5991 -0.0990  0.2755
   58MOL0     C 7699   6.068  10.274   6.736 -0.3831  0.0391  0.1091
   58MOL0     C 7700   6.020  10.244   6.866 -0.0867  0.5505 -0.2225
   58MOL0     C 7701   5.905  10.154   6.864 -0.0305 -0.3708 -0.9150
   58MOL0     C 7702   5.844  10.107   6.741  0.3174  0.0035 -1.2298
   58MOL0     O 7703   5.739  10.026   6.738 -0.6114  0.5756  0.1898
   58MOL0     C 7704   5.696   9.959   6.862  1.1420  0.3721 -0.2099
   58MOL0     C 7705   5.777   9.838   6.900  0.6607 -0.1615 -0.5608
   58MOL0     C 7706   5.731   9.750   7.017 -0.2545 -1.7249  1.0853
   58MOL0     C 7707   5.810   9.616   7.019 -0.1792  0.5911  0.1419
   58MOL0     C 7708   5.772   9.532   7.143 -0.2019 -0.1887 -1.5054
   58MOL0     C 7709   5.871   9.435   7.195 -0.0652  0.5098  0.7163
   58MOL0     C 7710   5.886   9.318   7.103  0.8929  0.3541 -0.0396
   58MOL0     C 7711   5.762   9.224   7.098 -0.5627  0.0946 -0.2564
   58MOL0     N 7712   5.814   9.088   7.065 -0.0930 -1.1281 -0.8163
   58MOL0     C 7713   5.807   9.027   6.945 -0.0438  0.6792  1.0093
   58MOL0     C 7714   5.838   8.902   6.980 -0.3453 -0.3086  0.2690
   58MOL0     C 7715   5.814   8.777   6.880  0.4080  0.0741 -0.6524
   58MOL0     C 7716   5.903   8.774   6.755 -0.0307 -0.1363 -0.4781
   58MOL0     C 7717   5.861   8.674   6.647 -0.6063  0.9834 -0.2476
   58MOL0     C 7718   5.869   8.526   6.672  0.0256 -0.3214 -0.3300
   58MOL0     O 7719   6.007   8.497   6.676 -0.5822  0.1254 -0.0459
   58MOL0     C 7720   6.052   8.370   6.677 -0.9637 -0.4984  0.4679
   58MOL0     C 7721   5.975   8.259   6.641  0.4568  0.0667 -0.2690
   58MOL0     C 7722   6.023   8.128   6.658 -0.0027 -0.4565  0.3472
   58MOL0     C 7723   6.151   8.114   6.716  0.5480  0.3053 -0.5107
   58MOL0     C 7724   6.199   7.979   6.731 -0.3474  0.6552 -0.2469
   58MOL0     O 7725   6.332   7.966   6.735 -0.2897  0.4813 -0.0033
   58MOL0     C 7726   6.398   7.848   6.774 -0.4608 -0.1340  1.1365
   58MOL0     C 7727   6.470   7.844   6.892 -0.1897  0.5988  0.4128
   58MOL0     C 7728   6.532   7.726   6.931 -0.5225  0.0048  1.1499
   58MOL0     C 7729   6.525   7.606   6.855 -0.4238 -0.5812  0.3880
   58MOL0     O 7730   6.601   7.499   6.882 -0.5630 -0.4441 -0.3024
   58MOL0     C 7731   6.603   7.448   7.014  0.4050  0.6992 -0.0174
   58MOL0     C 7732   6.674   7.313   7.039  0.0281  0.3858  0.4414
   58MOL0     C 7733   6.729   7.317   7.181  0.4812  0.4512 -0.1755
   58MOL0     C 7734   6.773   7.174   7.221  0.0689  0.5026  0.5937
   58MOL0     C 7735   6.800   7.172   7.370  0.1763  0.3342 -0.3466
   58MOL0     C 7736   6.678   7.151   7.449  0.5199  0.3625 -0.3772
   58MOL0     C 7737   6.656   7.001   7.465  0.3646 -0.0442  0.5007
   58MOL0     C 7738   6.520   6.950   7.504  0.1911  0.1189 -1.0004
   58MOL0    Cl 7739   6.382   6.988   7.380  0.1369  0.6256 -0.1208
   58MOL0     C 7740   6.466   7.624   6.734  0.1972  0.5789  0.4720
   58MOL0     C 7741   6.388   7.731   6.698 -0.1942 -0.3581  0.2644
   58MOL0     O 7742   6.112   7.894   6.756 -0.9050  0.0824 -0.1161
   58MOL0     C 7743   6.226   8.222   6.754 -0.1566 -0.2282  0.3110
   58MOL0     C 7744   6.184   8.354   6.730 -0.2582 -0.2749 -0.3725
   58MOL0     N 7745   5.890   8.899   7.103  0.5049 -0.7620  0.4453
   58MOL0     N 7746   5.868   9.012   7.159  0.7112 -0.1955 -0.3922
   58MOL0     C 7747   5.897  10.139   6.616  0.1277 -1.0985 -0.1269
   58MOL0     C 7748   6.005  10.223   6.618  0.1302  0.9386 -0.3169
   58MOL0     C 7749   6.301  10.540   6.819 -0.1577 -0.7423  0.3534
   58MOL0     C 7750   6.424  10.559   6.887 -0.7950 -0.6849  0.7981
   58MOL0     C 7751   6.482  10.686   6.901  0.0230 -0.7760 -0.1990
   58MOL0     C 7752   6.404  10.800   6.869 -0.0658 -0.0751 -0.7269
   58MOL0     O 7753   6.476  10.918   6.887  0.6734 -0.9929  0.0522
   58MOL0     C 7754   6.409  11.044   6.892 -0.1435 -1.1499  0.6052
   58MOL0     C 7755   6.503  11.140   6.961  0.4665  0.6122 -0.2903
   58MOL0     C 7756   6.467  11.284   6.926  0.2024 -0.5081  0.5399
   58MOL0     C 7757   6.390  11.354   7.041 -0.2822 -0.2325 -0.2393
   58MOL0     C 7758   6.254  11.296   7.054 -1.2074  0.2179  0.1949
   58MOL0     C 7759   6.144  11.236   7.046 -0.1264 -0.7829 -0.4598
   58MOL0     C 7760   6.282  10.786   6.816 -0.2122 -0.5688  0.0983
   58MOL0     C 7761   6.228  10.663   6.775  1.2128 -0.0399 -0.3828
   58MOL0     C 7762   6.097  10.657   6.710 -0.1930 -0.5647 -0.4284
   58MOL0     H 7763   6.062  10.290   6.955  2.6937  0.9380 -1.6286
   58MOL0     H 7764   5.871  10.119   6.962 -0.0746  1.8674 -0.0816
   58MOL0     H 7765   5.695  10.034   6.942  1.1549  2.7850 -2.3372
   58MOL0     H 7766   5.592   9.924   6.856  1.1219  0.4228 -0.1577
   58MOL0     H 7767   5.873   9.885   6.923 -0.5948  3.4136 -1.8642
   58MOL0     H 7768   5.808   9.787   6.808 -1.9361 -2.5230 -0.2677
   58MOL0     H 7769   5.626   9.730   6.996 -0.8039  1.3044  0.4854
   58MOL0     H 7770   5.751   9.810   7.107 -2.3118  2.8821 -1.1615
   58MOL0     H 7771   5.790   9.567   6.923  2.5191 -0.2611 -0.0475
   58MOL0     H 7772   5.912   9.654   7.022  0.1610 -0.3595  2.4681
   58MOL0     H 7773   5.776   9.607   7.223  1.2864 -1.4922 -0.2807
   58MOL0     H 7774   5.676   9.480   7.141 -0.8868  0.8117  1.2904
   58MOL0     H 7775   5.966   9.486   7.211  1.0587 -1.8659  2.1557
   58MOL0     H 7776   5.837   9.401   7.293 -2.6927  0.8111 -0.0251
   58MOL0     H 7777   5.964   9.248   7.133 -0.1447 -0.6322  0.4444
   58MOL0     H 7778   5.894   9.346   6.998 -3.4640 -4.2248 -1.9783
   58MOL0     H 7779   5.700   9.211   7.188 -0.6027 -0.6142 -0.3807
   58MOL0     H 7780   5.704   9.262   7.014  0.7953 -1.2907 -1.8829
   58MOL0     H 7781   5.788   9.058   6.843  2.0551  0.0686  0.3773
   58MOL0     H 7782   5.849   8.692   6.939 -0.3076  0.6673  0.6679
   58MOL0     H 7783   5.707   8.768   6.856  0.6242  0.2429 -1.7547
   58MOL0     H 7784   5.893   8.873   6.710  2.7141  0.8140  0.7101
   58MOL0     H 7785   6.010   8.767   6.779 -0.0769 -3.6208 -0.8131
   58MOL0     H 7786   5.940   8.686   6.573  1.9124  3.3603  2.5338
   58MOL0     H 7787   5.763   8.703   6.609 -0.5384  0.2539 -0.9880
   58MOL0     H 7788   5.799   8.470   6.608 -2.1699 -0.7900  2.3191
   58MOL0     H 7789   5.831   8.502   6.772  1.5849 -4.9946 -0.5814
   58MOL0     H 7790   5.874   8.258   6.602 -0.4013  1.1364  1.7331
   58MOL0     H 7791   5.961   8.046   6.623 -2.4543  1.6081 -0.4807
   58MOL0     H 7792   6.472   7.934   6.952 -1.9560 -0.2523  1.8376
   58MOL0     H 7793   6.587   7.720   7.025  1.8837  0.3863 -0.1561
   58MOL0     H 7794   6.646   7.522   7.083 -0.3146 -0.3879  1.6630
   58MOL0     H 7795   6.500   7.424   7.041  1.3693 -4.8485 -0.1228
   58MOL0     H 7796   6.596   7.236   7.029 -2.8579  3.2919 -1.1497
   58MOL0     H 7797   6.750   7.287   6.965 -1.7763  1.0914 -1.7638
   58MOL0     H 7798   6.818   7.379   7.198  1.3067 -1.0131  1.0801
   58MOL0     H 7799   6.646   7.355   7.240 -0.1699  1.5957 -1.7601
   58MOL0     H 7800   6.865   7.147   7.168 -0.7918  0.1590 -0.7803
   58MOL0     H 7801   6.694   7.101   7.198 -1.0179  1.8842 -0.2426
   58MOL0     H 7802   6.840   7.269   7.402  0.8777 -0.0666  0.0122
   58MOL0     H 7803   6.877   7.099   7.394 -0.3187  0.3180  1.3457
   58MOL0     H 7804   6.681   7.201   7.546 -0.4203 -0.6874  0.2099
   58MOL0     H 7805   6.590   7.195   7.400  0.2892 -0.1126 -0.3913
   58MOL0     H 7806   6.726   6.974   7.545  0.9746  1.4144  0.4889
   58MOL0     H 7807   6.692   6.949   7.376  0.3392  1.1044 -0.1906
   58MOL0     H 7808   6.529   6.841   7.512  1.1126  0.1597 -1.3393
   58MOL0     H 7809   6.497   6.984   7.605  0.1625 -3.5566  0.4002
   58MOL0     H 7810   6.474   7.540   6.665 -0.5005  2.2124 -1.6759
   58MOL0     H 7811   6.335   7.730   6.603  2.5871 -3.7123 -1.4968
   58MOL0     H 7812   6.321   8.208   6.804 -0.8930  2.6539  2.7915
   58MOL0     H 7813   6.238   8.442   6.763  2.0652 -1.6003 -0.4608
   58MOL0     H 7814   5.851  10.096   6.527  2.5492 -4.9301  0.2114
   58MOL0     H 7815   6.042  10.244   6.518 -0.6765  1.2253 -0.5582
   58MOL0     H 7816   6.490  10.477   6.912 -0.9153 -0.9215  0.3545
   58MOL0     H 7817   6.586  10.708   6.926 -0.4488  2.0882 -0.3637
   58MOL0     H 7818   6.320  11.035   6.955  2.8435  0.9979  5.8160
   58MOL0     H 7819   6.396  11.083   6.791  0.3656 -0.3846  0.8228
   58MOL0     H 7820   6.599  11.103   6.923  0.4443  4.2278 -4.6814
   58MOL0     H 7821   6.501  11.121   7.069 -0.8307 -0.4347 -0.4700
   58MOL0     H 7822   6.413  11.290   6.831  1.3556 -0.4384 -0.1309
   58MOL0     H 7823   6.558  11.343   6.915  1.5534 -2.2983  1.4713
   58MOL0     H 7824   6.446  11.343   7.135  2.1498  3.1877 -1.0802
   58MOL0     H 7825   6.375  11.461   7.023 -2.3190  0.1825  2.9478
   58MOL0     H 7826   6.046  11.197   7.059 -0.6228  1.0233  2.0548
   58MOL0     H 7827   6.219  10.872   6.795 -1.5024 -1.9106 -1.8413
   58MOL0     H 7828   6.097  10.619   6.608  0.8385  1.4754 -1.2393
   58MOL0     H 7829   6.033  10.592   6.770  1.3864 -0.9956  0.8689
   58MOL0     H 7830   6.044  10.752   6.721  0.9316  0.3029 -2.1679
   59MOL0     O 7831   4.217   7.953   2.672  0.3269  0.1677  0.4015
   59MOL0     C 7832   4.235   8.063   2.623 -0.0322 -0.0569 -0.3835
   59MOL0     O 7833   4.225   8.189   2.690 -0.3349  0.4485 -0.4355
   59MOL0     C 7834   4.224   8.209   2.826  0.3486 -0.6442 -0.2713
   59MOL0     C 7835   4.212   8.347   2.862 -0.1238  0.3955 -0.2810
   59MOL0     C 7836   4.206   8.382   2.999 -0.0360  0.0820  0.6192
   59MOL0     C 7837   4.206   8.285   3.103 -0.8013  1.3753  0.3728
   59MOL0     O 7838   4.197   8.309   3.237  0.2039  0.4099  0.2826
   59MOL0     C 7839   4.081   8.397   3.272 -0.6473  0.7999 -0.2487
   59MOL0     C 7840   4.096   8.430   3.420 -0.7672  0.0800  1.2130
   59MOL0     C 7841   4.063   8.572   3.440 -0.2756 -0.2090 -0.5952
   59MOL0     C 7842   4.105   8.619   3.584 -0.1768 -0.4235 -0.2808
   59MOL0     C 7843   4.116   8.773   3.596 -0.0794 -0.3515  0.4648
   59MOL0     C 7844   4.227   8.829   3.508 -0.0959 -0.1512  0.7030
   59MOL0     C 7845   4.177   8.940   3.402 -0.5474  0.0810 -0.7028
   59MOL0     C 7846   4.195   9.087   3.452  0.2672  0.4825 -0.1917
   59MOL0     N 7847   4.096   9.113   3.564  0.3275 -0.7250 -0.0893
   59MOL0     C 7848   3.954   9.106   3.570  0.1729  0.2114 -0.4958
   59MOL0     C 7849   3.919   9.176   3.678 -0.6852  0.3523 -0.2463
   59MOL0     C 7850   3.782   9.191   3.733  0.5195 -0.1457  1.1307
   59MOL0     C 7851   3.678   9.077   3.694 -0.5244 -0.6584  0.1045
   59MOL0     C 7852   3.582   9.047   3.803  0.4330  0.6029 -0.0239
   59MOL0     C 7853   3.476   9.159   3.822  0.4185 -0.2463 -0.9558
   59MOL0     O 7854   3.411   9.189   3.693  0.3843 -0.2384 -0.7094
   59MOL0     C 7855   3.318   9.291   3.688 -0.8913 -0.5898  0.1578
   59MOL0     C 7856   3.290   9.348   3.566  0.2405 -0.5160 -0.0178
   59MOL0     C 7857   3.203   9.459   3.549  0.0976  0.1673  0.8594
   59MOL0     C 7858   3.136   9.508   3.649 -0.0428  0.3403 -0.3359
   59MOL0     C 7859   3.048   9.625   3.641  0.0838  0.0952  0.3788
   59MOL0     O 7860   2.962   9.654   3.737 -0.0231 -0.6438  0.5446
   59MOL0     C 7861   2.867   9.751   3.726 -0.1741  0.5164  0.7269
   59MOL0     C 7862   2.904   9.885   3.706 -0.6549 -0.1619  0.0160
   59MOL0     C 7863   2.813   9.983   3.683 -0.0481 -0.1850 -0.4482
   59MOL0     C 7864   2.679   9.953   3.676 -0.5973 -0.0831 -0.3989
   59MOL0     O 7865   2.588  10.055   3.651 -0.0072  1.0575  0.4346
   59MOL0     C 7866   2.444  10.032   3.648 -0.3231  0.0497  0.5119
   59MOL0     C 7867   2.383  10.163   3.605 -0.1157  0.4176 -0.7247
   59MOL0     C 7868   2.233  10.156   3.613  0.4885  0.3688 -0.2574
   59MOL0     C 7869   2.181  10.299   3.588  0.2393 -0.5271 -0.8932
   59MOL0     C 7870   2.023  10.314   3.591 -0.5967  1.2153  0.6471
   59MOL0     C 7871   1.995  10.464   3.620 -0.9025  0.6674 -0.0198
   59MOL0     C 7872   1.842  10.503   3.621  1.0250 -0.8145  0.0330
   59MOL0     C 7873   1.832  10.651   3.646 -0.1790 -0.2897 -0.4567
   59MOL0    Cl 7874   1.923  10.757   3.533 -0.0979  0.0243 -0.3136
   59MOL0     C 7875   2.640   9.815   3.694  0.3960 -0.3398  0.2408
   59MOL0     C 7876   2.731   9.715   3.722  0.0159 -1.0080 -0.4500
   59MOL0     O 7877   3.039   9.676   3.535 -0.3090  0.1952 -0.1837
   59MOL0     C 7878   3.158   9.446   3.775 -0.1655  2.0834 -0.2641
   59MOL0     C 7879   3.251   9.340   3.798  1.0921 -0.4527 -0.3553
   59MOL0     N 7880   4.037   9.223   3.733 -0.5290 -0.4055 -0.0304
   59MOL0     N 7881   4.138   9.183   3.673  0.5759 -0.1815  0.2463
   59MOL0     C 7882   4.224   8.150   3.066 -1.4712  0.2396  0.7211
   59MOL0     C 7883   4.238   8.115   2.928 -0.0588  0.3193 -0.0651
   59MOL0     C 7884   4.236   8.090   2.473  1.0126  0.9369 -1.1091
   59MOL0     C 7885   4.179   8.208   2.415 -0.4342  0.4782  0.9476
   59MOL0     C 7886   4.161   8.219   2.276 -0.7311 -0.5786 -0.2821
   59MOL0     C 7887   4.207   8.115   2.188 -0.7897 -0.1602  0.0199
   59MOL0     O 7888   4.186   8.125   2.056  0.2722  0.8965  0.1328
   59MOL0     C 7889   4.294   8.184   1.991  0.0864  0.1350  0.1013
   59MOL0     C 7890   4.238   8.273   1.876  0.4265  0.3268  0.3030
   59MOL0     C 7891   4.359   8.338   1.798 -0.2271  0.8084 -0.9846
   59MOL0     C 7892   4.326   8.358   1.651 -0.4146 -1.2427 -0.6337
   59MOL0     C 7893   4.440   8.413   1.574  0.5756 -0.8870  0.8790
   59MOL0     C 7894   4.522   8.468   1.499  0.1925  0.6537  0.0106
   59MOL0     C 7895   4.270   8.002   2.242  0.1516 -0.5562 -0.5107
   59MOL0     C 7896   4.282   7.992   2.386 -0.9542 -0.5663  0.3517
   59MOL0     C 7897   4.353   7.861   2.444  0.2060 -0.3937  0.3115
   59MOL0     H 7898   4.208   8.422   2.784  2.8295 -1.6133 -2.5873
   59MOL0     H 7899   4.202   8.484   3.034  1.2040 -0.2283  1.7402
   59MOL0     H 7900   4.058   8.488   3.216 -2.2505  0.4013 -0.2892
   59MOL0     H 7901   3.992   8.334   3.267 -0.3171  0.2434  0.6064
   59MOL0     H 7902   4.198   8.419   3.456 -0.0692  4.5085  1.2060
   59MOL0     H 7903   4.019   8.377   3.476 -4.2077  2.8651 -0.4141
   59MOL0     H 7904   3.956   8.586   3.423  0.0639  1.5792 -1.4639
   59MOL0     H 7905   4.108   8.639   3.367 -2.0774  0.2769 -1.2981
   59MOL0     H 7906   4.046   8.574   3.664 -1.4478 -1.1654 -1.5838
   59MOL0     H 7907   4.203   8.575   3.601  0.2884 -1.8589 -5.0763
   59MOL0     H 7908   4.013   8.805   3.577 -1.2219 -3.0106  1.5753
   59MOL0     H 7909   4.137   8.807   3.698 -1.3908  0.6229  0.4413
   59MOL0     H 7910   4.306   8.874   3.570 -0.2812  3.0762 -1.1648
   59MOL0     H 7911   4.281   8.750   3.456 -2.8634 -0.3696 -2.0734
   59MOL0     H 7912   4.077   8.924   3.361  0.0979 -1.7106 -1.7153
   59MOL0     H 7913   4.236   8.918   3.313 -2.6864 -1.8720 -1.7515
   59MOL0     H 7914   4.292   9.107   3.498  0.9518  1.0750 -1.8413
   59MOL0     H 7915   4.161   9.162   3.380 -0.4841  1.1652  0.8301
   59MOL0     H 7916   3.894   9.053   3.497 -1.2490  0.5927  0.3660
   59MOL0     H 7917   3.774   9.191   3.842 -1.0694 -1.3249  1.0545
   59MOL0     H 7918   3.741   9.286   3.696 -1.7217 -1.6790 -0.5800
   59MOL0     H 7919   3.618   9.105   3.607  0.3644  1.8871  0.2082
   59MOL0     H 7920   3.726   8.981   3.676  2.0386  1.1114 -4.0744
   59MOL0     H 7921   3.625   9.031   3.902  2.3641 -0.9445 -1.0423
   59MOL0     H 7922   3.532   8.957   3.767  1.3109  0.7966 -1.8297
   59MOL0     H 7923   3.512   9.245   3.879  1.0006  0.6628 -2.6264
   59MOL0     H 7924   3.390   9.124   3.879  1.7091 -1.2065  0.4846
   59MOL0     H 7925   3.357   9.313   3.488  2.2136 -0.2641  1.4748
   59MOL0     H 7926   3.204   9.508   3.452  3.0523  0.0602  0.7523
   59MOL0     H 7927   3.011   9.906   3.705 -0.6139 -0.3756 -1.1427
   59MOL0     H 7928   2.846  10.086   3.670 -2.8829  0.8531 -0.3035
   59MOL0     H 7929   2.434   9.957   3.569  3.2095  1.9300 -2.0012
   59MOL0     H 7930   2.401   9.983   3.735 -0.4180 -3.6580 -1.4134
   59MOL0     H 7931   2.414  10.252   3.661 -2.6532  0.9345 -0.0431
   59MOL0     H 7932   2.399  10.169   3.496 -2.0575 -0.7363 -1.1137
   59MOL0     H 7933   2.192  10.077   3.549  1.7529 -1.1447  0.7258
   59MOL0     H 7934   2.201  10.123   3.711 -3.4406  0.4121 -1.3607
   59MOL0     H 7935   2.202  10.333   3.486  1.5381 -0.2848 -0.5648
   59MOL0     H 7936   2.229  10.365   3.662 -1.4110 -0.9012  0.5525
   59MOL0     H 7937   1.974  10.245   3.660  0.1562 -1.1597 -1.0355
   59MOL0     H 7938   1.987  10.280   3.493  0.6842 -0.8549  0.8308
   59MOL0     H 7939   2.043  10.500   3.711 -1.0499  1.1678 -0.1375
   59MOL0     H 7940   2.037  10.512   3.531 -2.7417 -1.5538 -2.2124
   59MOL0     H 7941   1.792  10.469   3.712 -0.4175  3.2723  1.0116
   59MOL0     H 7942   1.792  10.465   3.531 -1.9739  1.9745  0.3356
   59MOL0     H 7943   1.726  10.676   3.650  0.0212  0.4205  0.6731
   59MOL0     H 7944   1.864  10.674   3.748 -3.5360  1.0968  0.4210
   59MOL0     H 7945   2.537   9.782   3.692 -0.0930  1.1357  0.5203
   59MOL0     H 7946   2.707   9.612   3.745 -1.1377 -0.5043  0.6991
   59MOL0     H 7947   3.098   9.480   3.859 -0.1699 -1.5659  1.3734
   59MOL0     H 7948   3.257   9.284   3.891  0.3725 -4.5425 -2.5340
   59MOL0     H 7949   4.239   8.079   3.147  1.3578 -0.7465 -0.5571
   59MOL0     H 7950   4.263   8.012   2.906  1.7259  0.5812  0.6016
   59MOL0     H 7951   4.143   8.287   2.481 -0.5158  1.0981  0.1762
   59MOL0     H 7952   4.130   8.316   2.239  2.6273  0.3811 -0.9396
   59MOL0     H 7953   4.353   8.101   1.950  3.5051  1.0356  2.7845
   59MOL0     H 7954   4.369   8.242   2.044  1.5502 -0.5089 -1.1957
   59MOL0     H 7955   4.177   8.352   1.919  1.5231  1.4449 -0.1480
   59MOL0     H 7956   4.165   8.218   1.815 -1.2647  2.1464  0.5718
   59MOL0     H 7957   4.445   8.271   1.799  0.8690  2.0967  1.4972
   59MOL0     H 7958   4.387   8.434   1.841 -1.5408  1.0704 -0.6632
   59MOL0     H 7959   4.296   8.264   1.602  0.4976 -2.0111  0.2552
   59MOL0     H 7960   4.250   8.436   1.642 -1.0321 -1.6795  0.5253
   59MOL0     H 7961   4.600   8.519   1.446 -1.8868  2.2336 -1.6653
   59MOL0     H 7962   4.294   7.919   2.176 -0.9106 -2.0598  0.9104
   59MOL0     H 7963   4.414   7.883   2.531  4.0914  0.4387 -2.3718
   59MOL0     H 7964   4.277   7.786   2.470 -1.8603  0.8390 -1.7141
   59MOL0     H 7965   4.423   7.812   2.376 -1.3819 -2.8111  0.2761
   60MOL0     O 7966   0.172   5.026   1.456  0.0817 -0.2487 -0.1616
   60MOL0     C 7967   0.182   5.103   1.356 -0.5546  0.4319  0.6619
   60MOL0     O 7968   0.168   5.237   1.348 -0.2166  0.1533  0.4090
   60MOL0     C 7969   0.120   5.295   1.463  1.1454 -0.6188 -0.2749
   60MOL0     C 7970   0.002   5.367   1.456 -0.0704 -0.3822 -1.2739
   60MOL0     C 7971  -0.048   5.447   1.561 -0.2103 -0.3211  0.0045
   60MOL0     C 7972   0.029   5.446   1.680  0.0500 -0.9063  0.0185
   60MOL0     O 7973  -0.025   5.511   1.793 -1.1433  0.0011  0.8981
   60MOL0     C 7974   0.077   5.543   1.888  0.3384 -0.9658  0.5932
   60MOL0     C 7975   0.025   5.648   1.994 -0.2038  1.1768  0.3338
   60MOL0     C 7976  -0.047   5.776   1.942  0.2518  0.0526  0.3641
   60MOL0     C 7977   0.049   5.846   1.842  0.5598 -0.3909  0.5664
   60MOL0     C 7978  -0.004   5.976   1.788 -0.2686 -0.4843  0.3672
   60MOL0     C 7979  -0.136   5.954   1.710  0.6584  0.5128 -0.2454
   60MOL0     C 7980  -0.128   5.845   1.604  0.2396 -0.1294 -0.3381
   60MOL0     C 7981  -0.016   5.891   1.497 -0.3536  1.2279 -0.7453
   60MOL0     N 7982  -0.048   6.024   1.443  0.2264  0.0058 -0.9327
   60MOL0     C 7983   0.051   6.117   1.412  0.5502  0.0398  0.4437
   60MOL0     C 7984   0.003   6.198   1.317  0.2871  0.3982 -0.5586
   60MOL0     C 7985   0.076   6.302   1.242 -0.3076 -0.1405  0.0488
   60MOL0     C 7986   0.036   6.300   1.098 -0.2223 -0.3149  0.7784
   60MOL0     C 7987   0.065   6.430   1.017  0.6822 -0.5731 -0.2856
   60MOL0     C 7988   0.066   6.412   0.877  0.1057 -0.4015  0.0504
   60MOL0     O 7989  -0.069   6.363   0.841  0.1023 -0.0092  1.2045
   60MOL0     C 7990  -0.078   6.253   0.759  0.0197  0.3667 -0.7571
   60MOL0     C 7991  -0.161   6.150   0.804  0.3215 -0.8457 -0.3328
   60MOL0     C 7992  -0.170   6.025   0.738  0.4300  0.1347  0.6195
   60MOL0     C 7993  -0.106   6.008   0.617  0.0760 -0.1206 -0.3137
   60MOL0     C 7994  -0.133   5.894   0.522  0.7799  0.3913  0.5881
   60MOL0     O 7995  -0.042   5.873   0.415 -0.4430 -0.4707 -0.7832
   60MOL0     C 7996  -0.067   5.768   0.338  0.3781  0.7622  1.0491
   60MOL0     C 7997   0.026   5.663   0.318 -0.9869  0.4169  1.0129
   60MOL0     C 7998  -0.005   5.541   0.253  0.4348  1.0084 -0.3969
   60MOL0     C 7999  -0.133   5.524   0.201  0.6918 -0.7436  0.3121
   60MOL0     O 8000  -0.168   5.412   0.141 -0.1903  0.3826 -0.3245
   60MOL0     C 8001  -0.071   5.320   0.099  0.0585 -1.3531 -0.1389
   60MOL0     C 8002  -0.133   5.183   0.052  0.7664 -0.3835 -0.5174
   60MOL0     C 8003  -0.141   5.098   0.186 -0.4396  0.2808 -0.3051
   60MOL0     C 8004  -0.244   5.146   0.293 -0.5618 -0.3718 -0.4106
   60MOL0     C 8005  -0.257   5.045   0.402  1.4771 -0.8335 -0.1544
   60MOL0     C 8006  -0.142   5.053   0.505  0.4971 -0.9743 -0.3842
   60MOL0     C 8007  -0.151   5.184   0.591 -0.7791 -0.0916  0.9044
   60MOL0     C 8008  -0.046   5.166   0.708 -0.5466 -0.4357 -0.8108
   60MOL0    Cl 8009  -0.039   5.283   0.845 -0.2000 -0.2281  0.2321
   60MOL0     C 8010  -0.221   5.633   0.210  0.7857 -0.2934 -0.3275
   60MOL0     C 8011  -0.190   5.749   0.277 -0.2156 -0.3469  0.6602
   60MOL0     O 8012  -0.233   5.834   0.550  0.0526  0.0419  0.3167
   60MOL0     C 8013  -0.034   6.121   0.561  0.4035  0.4359 -0.6508
   60MOL0     C 8014  -0.011   6.234   0.644  0.5572 -0.3864  0.2647
   60MOL0     N 8015  -0.126   6.145   1.274 -1.0299 -1.1132 -0.1374
   60MOL0     N 8016  -0.146   6.047   1.351  0.2937  0.8538  0.2221
   60MOL0     C 8017   0.165   5.397   1.676  0.4942 -0.9191  0.1475
   60MOL0     C 8018   0.206   5.320   1.567 -0.1784  0.3610  0.5620
   60MOL0     C 8019   0.210   5.041   1.221 -0.0366  0.2848  0.8843
   60MOL0     C 8020   0.116   5.062   1.124  0.1612 -0.8893 -0.5246
   60MOL0     C 8021   0.140   5.007   0.999  1.0873 -0.4306 -0.2151
   60MOL0     C 8022   0.253   4.929   0.969 -0.2231 -0.1048  0.8462
   60MOL0     O 8023   0.258   4.874   0.841  0.0999  0.2916 -1.0414
   60MOL0     C 8024   0.383   4.844   0.774 -0.1232 -0.2463  0.3948
   60MOL0     C 8025   0.435   4.953   0.675  0.1931  0.1068  0.0779
   60MOL0     C 8026   0.339   5.063   0.627  0.0036 -0.0951 -0.2973
   60MOL0     C 8027   0.402   5.122   0.494 -0.2372 -0.4486  0.4283
   60MOL0     C 8028   0.322   5.237   0.464  0.7030 -1.3458  1.2693
   60MOL0     C 8029   0.258   5.345   0.451 -0.0976  0.7765  0.7096
   60MOL0     C 8030   0.344   4.902   1.073  0.9139 -0.5893  1.3217
   60MOL0     C 8031   0.318   4.957   1.197 -0.9219 -0.0660 -0.1967
   60MOL0     C 8032   0.402   4.908   1.309  0.2615 -0.0213 -0.6153
   60MOL0     H 8033  -0.048   5.365   1.359 -1.0116 -1.5210 -0.7896
   60MOL0     H 8034  -0.147   5.491   1.548 -1.0624 -2.2500 -0.4224
   60MOL0     H 8035   0.122   5.457   1.937  0.9490 -2.7582 -2.8608
   60MOL0     H 8036   0.159   5.595   1.838 -1.6947  2.9683  0.9201
   60MOL0     H 8037   0.113   5.686   2.047  0.8458  1.2575 -1.3876
   60MOL0     H 8038  -0.034   5.580   2.056  0.5876 -0.5139 -0.6740
   60MOL0     H 8039  -0.064   5.852   2.019 -0.1253  0.7793 -0.4253
   60MOL0     H 8040  -0.143   5.750   1.896  0.3528  0.1099  0.1226
   60MOL0     H 8041   0.149   5.866   1.881  1.0482  0.8316 -1.1970
   60MOL0     H 8042   0.062   5.784   1.754  0.9146  0.3459  0.0870
   60MOL0     H 8043  -0.034   6.040   1.871 -3.8330 -2.6987  0.9881
   60MOL0     H 8044   0.073   6.022   1.725 -1.7279 -1.1804 -2.0382
   60MOL0     H 8045  -0.210   5.924   1.784 -0.3602 -1.1952 -1.8731
   60MOL0     H 8046  -0.171   6.048   1.665 -0.2474  0.9577  1.3245
   60MOL0     H 8047  -0.225   5.833   1.557 -1.4070  0.8310  2.5528
   60MOL0     H 8048  -0.111   5.747   1.649  1.4449  0.2487  0.0726
   60MOL0     H 8049   0.088   5.878   1.526 -0.7140 -0.6655 -0.2166
   60MOL0     H 8050  -0.042   5.832   1.408  0.1337  1.2857 -0.9319
   60MOL0     H 8051   0.157   6.122   1.436  0.3396 -0.3270  1.5338
   60MOL0     H 8052   0.047   6.401   1.279 -0.5361  0.4577 -1.6134
   60MOL0     H 8053   0.184   6.295   1.257 -0.4633  1.0461  2.2166
   60MOL0     H 8054   0.083   6.218   1.042 -3.9145 -0.9061 -1.8150
   60MOL0     H 8055  -0.070   6.281   1.079  0.1886  1.0462 -4.5485
   60MOL0     H 8056   0.150   6.483   1.060  1.7289 -2.0387 -0.4802
   60MOL0     H 8057  -0.021   6.496   1.032 -1.9793 -4.1220  1.3651
   60MOL0     H 8058   0.147   6.347   0.843 -2.0458 -3.2925  0.0631
   60MOL0     H 8059   0.082   6.508   0.827  3.8465  0.4416  2.4638
   60MOL0     H 8060  -0.224   6.153   0.893  2.3828  1.2559  1.1739
   60MOL0     H 8061  -0.228   5.944   0.780 -2.9898  1.9592 -0.1904
   60MOL0     H 8062   0.125   5.678   0.360 -1.0619  0.1501  1.2827
   60MOL0     H 8063   0.068   5.460   0.254 -0.1728  0.4512 -0.1494
   60MOL0     H 8064  -0.030   5.359   0.006  0.4756 -0.2073  0.5046
   60MOL0     H 8065   0.004   5.289   0.173 -0.2044  0.8822  1.1766
   60MOL0     H 8066  -0.234   5.210   0.020  0.3957  3.9310  3.2468
   60MOL0     H 8067  -0.071   5.134  -0.024  0.9787  1.9234 -1.9271
   60MOL0     H 8068  -0.159   4.994   0.158  0.2062  0.0571  0.0836
   60MOL0     H 8069  -0.035   5.102   0.216 -0.6473 -0.5507  0.5807
   60MOL0     H 8070  -0.340   5.151   0.240 -2.0002  1.4318  2.1564
   60MOL0     H 8071  -0.218   5.248   0.322 -0.6169 -0.3816 -0.3260
   60MOL0     H 8072  -0.271   4.941   0.371  0.4806 -1.4291  2.0545
   60MOL0     H 8073  -0.345   5.068   0.464  1.1592  0.1916 -0.9624
   60MOL0     H 8074  -0.144   4.978   0.585 -0.4539 -0.1644  0.3950
   60MOL0     H 8075  -0.044   5.051   0.457  2.6621 -2.6109  3.5804
   60MOL0     H 8076  -0.248   5.194   0.641 -0.6538 -0.2961  1.1905
   60MOL0     H 8077  -0.123   5.273   0.534 -0.3602  0.1089  1.4108
   60MOL0     H 8078  -0.068   5.065   0.741 -0.7647 -0.6211 -1.5067
   60MOL0     H 8079   0.054   5.171   0.665  0.1668 -1.1368  0.7020
   60MOL0     H 8080  -0.325   5.626   0.180  0.4829  2.4238 -0.1495
   60MOL0     H 8081  -0.259   5.831   0.262  0.0234 -0.1916  0.4117
   60MOL0     H 8082   0.010   6.125   0.462  4.0423 -1.9646  0.6557
   60MOL0     H 8083   0.038   6.312   0.586 -2.0362 -0.9992 -3.0212
   60MOL0     H 8084   0.230   5.403   1.763 -3.1170 -4.1077  3.4057
   60MOL0     H 8085   0.302   5.269   1.562  0.4789  1.4792  1.1927
   60MOL0     H 8086   0.024   5.120   1.133 -0.0204 -1.3035  0.4103
   60MOL0     H 8087   0.071   5.031   0.919 -1.0888 -2.3210  0.9783
   60MOL0     H 8088   0.372   4.744   0.732  5.1560 -1.3669  0.9615
   60MOL0     H 8089   0.469   4.831   0.840  2.1661 -1.1074 -2.5488
   60MOL0     H 8090   0.461   4.900   0.583  1.4004  1.1074 -0.1754
   60MOL0     H 8091   0.526   4.995   0.718 -0.4436 -0.7263  2.4157
   60MOL0     H 8092   0.353   5.145   0.697 -1.0168 -0.8196  0.7831
   60MOL0     H 8093   0.232   5.043   0.622 -0.6152  2.7620 -0.1651
   60MOL0     H 8094   0.507   5.145   0.512 -1.0055  0.9619  3.9606
   60MOL0     H 8095   0.413   5.062   0.403  3.3272  1.3067 -0.4432
   60MOL0     H 8096   0.191   5.426   0.431  0.0549 -0.1793 -5.8921
   60MOL0     H 8097   0.430   4.837   1.056  0.9037  0.2819 -3.1430
   60MOL0     H 8098   0.491   4.853   1.274 -0.3082 -0.7144 -1.0133
   60MOL0     H 8099   0.436   4.990   1.371  0.6425 -0.4808 -0.2066
   60MOL0     H 8100   0.353   4.845   1.383 -1.4792  3.4115  1.3774
   61MOL0     O 8101   2.006   8.662   7.472  0.5842  0.1768  0.3626
   61MOL0     C 8102   1.889   8.696   7.450  0.2214 -0.1519 -0.8157
   61MOL0     O 8103   1.812   8.741   7.551 -0.1813  0.5842  0.2205
   61MOL0     C 8104   1.869   8.774   7.677 -0.1630 -0.3256  0.7420
   61MOL0     C 8105   1.944   8.688   7.765  0.8137 -1.4735 -0.0792
   61MOL0     C 8106   1.999   8.746   7.879 -0.2620 -0.6943 -0.4271
   61MOL0     C 8107   1.981   8.875   7.918 -0.7612 -0.3223  1.0841
   61MOL0     O 8108   2.042   8.917   8.030  0.3527  0.0472 -0.0752
   61MOL0     C 8109   1.957   8.990   8.123  0.1954 -0.2249  0.1970
   61MOL0     C 8110   1.873   8.891   8.203 -0.1732  0.0489 -0.3885
   61MOL0     C 8111   1.771   8.961   8.285  0.1738 -1.0560  0.1393
   61MOL0     C 8112   1.659   8.864   8.333 -0.5970  0.0046  0.1037
   61MOL0     C 8113   1.634   8.870   8.482 -0.1157 -0.1036  0.2079
   61MOL0     C 8114   1.537   8.769   8.531 -0.3574 -0.9318 -0.3119
   61MOL0     C 8115   1.540   8.782   8.678 -0.0584 -0.1310 -0.0227
   61MOL0     C 8116   1.422   8.730   8.752 -0.5663  0.2432  0.4007
   61MOL0     N 8117   1.457   8.723   8.892  0.7297 -0.9536 -0.1097
   61MOL0     C 8118   1.466   8.835   8.972 -0.0873 -0.7411 -0.2264
   61MOL0     C 8119   1.516   8.784   9.089 -0.8678 -0.1329  0.7614
   61MOL0     C 8120   1.536   8.853   9.222  0.8365  0.5084 -0.3350
   61MOL0     C 8121   1.476   8.761   9.329  0.8620 -0.6139 -0.2102
   61MOL0     C 8122   1.446   8.822   9.464  0.5512  0.3323  0.1632
   61MOL0     C 8123   1.570   8.858   9.552 -0.4012  1.0147  0.9191
   61MOL0     O 8124   1.542   8.979   9.620  0.2185  0.0862 -0.8144
   61MOL0     C 8125   1.512   8.968   9.752 -0.4741  0.2785 -0.2707
   61MOL0     C 8126   1.599   8.904   9.840  0.9299 -0.1959  0.0415
   61MOL0     C 8127   1.567   8.891   9.981  0.0367  0.3651  0.2136
   61MOL0     C 8128   1.445   8.942  10.033 -0.4521  0.4939 -0.2518
   61MOL0     C 8129   1.419   8.921  10.174  1.0250 -1.2565  0.3908
   61MOL0     O 8130   1.509   8.848  10.245  0.3185 -0.3754  1.1562
   61MOL0     C 8131   1.511   8.850  10.383 -0.1642  0.0446 -0.2175
   61MOL0     C 8132   1.542   8.972  10.442  0.2974 -0.4221 -0.2044
   61MOL0     C 8133   1.537   8.980  10.584 -0.1139 -0.1034  0.7776
   61MOL0     C 8134   1.523   8.863  10.668  0.4017 -0.7007 -0.2712
   61MOL0     O 8135   1.529   8.869  10.803  0.4285  0.4853 -1.0292
   61MOL0     C 8136   1.615   8.964  10.869 -0.0557 -0.0213  1.1617
   61MOL0     C 8137   1.759   8.921  10.870  0.5379 -0.0839  0.3808
   61MOL0     C 8138   1.853   8.988  10.969 -0.9643  0.1257 -0.0907
   61MOL0     C 8139   1.835   8.941  11.112  0.9290  0.1416  0.2433
   61MOL0     C 8140   1.934   9.023  11.200 -0.6831  0.6604 -0.3927
   61MOL0     C 8141   1.862   9.142  11.264 -0.7516 -0.5435  0.1554
   61MOL0     C 8142   1.951   9.216  11.361 -0.3158  0.2960 -0.0290
   61MOL0     C 8143   1.931   9.365  11.367  0.2439  0.0172 -0.0909
   61MOL0    Cl 8144   1.775   9.416  11.409  0.2090 -0.2925 -0.1441
   61MOL0     C 8145   1.497   8.744  10.599  0.0916 -0.3604 -0.2696
   61MOL0     C 8146   1.492   8.741  10.461  0.2001 -0.2603  0.1137
   61MOL0     O 8147   1.320   8.973  10.230 -0.3749  0.4485 -0.0325
   61MOL0     C 8148   1.359   9.004   9.945  1.0118 -0.1295 -0.8408
   61MOL0     C 8149   1.393   9.018   9.806  0.4083  0.1312  0.1638
   61MOL0     N 8150   1.556   8.656   9.066  0.9347  0.0102 -0.4094
   61MOL0     N 8151   1.517   8.621   8.947  0.4110 -0.2097  0.1708
   61MOL0     C 8152   1.884   8.943   7.848  0.1504  0.2164 -0.2572
   61MOL0     C 8153   1.849   8.904   7.723 -0.0073 -0.1557  0.6310
   61MOL0     C 8154   1.829   8.680   7.318 -0.8218 -1.0294 -0.0583
   61MOL0     C 8155   1.693   8.648   7.318  0.2213 -0.4219  0.4720
   61MOL0     C 8156   1.619   8.670   7.203  0.7312  0.2214 -0.8208
   61MOL0     C 8157   1.694   8.696   7.090  0.3369 -0.8874 -0.0002
   61MOL0     O 8158   1.635   8.694   6.963 -0.1166  0.0725  0.2222
   61MOL0     C 8159   1.524   8.781   6.941 -0.3579  0.2037 -0.2253
   61MOL0     C 8160   1.485   8.777   6.796  0.4517  0.1984  0.0274
   61MOL0     C 8161   1.444   8.637   6.740  0.0436  0.7128  0.1930
   61MOL0     C 8162   1.305   8.629   6.684 -1.0671  0.3560 -0.6073
   61MOL0     C 8163   1.206   8.646   6.785 -0.3341  0.4447  0.1769
   61MOL0     C 8164   1.120   8.655   6.871 -0.1588 -0.6907 -0.2230
   61MOL0     C 8165   1.825   8.725   7.093  0.1947  0.2769 -0.5633
   61MOL0     C 8166   1.900   8.722   7.206 -0.0996  0.5058  0.0209
   61MOL0     C 8167   2.038   8.776   7.192  0.0160  0.3869  0.0819
   61MOL0     H 8168   1.971   8.589   7.731 -2.0937 -1.8614 -1.6244
   61MOL0     H 8169   2.065   8.684   7.939  1.5784  0.7516 -0.8922
   61MOL0     H 8170   2.024   9.035   8.197 -1.7216  0.1051  1.8136
   61MOL0     H 8171   1.913   9.082   8.083 -0.3698 -0.0687  1.1566
   61MOL0     H 8172   1.936   8.831   8.268 -0.5122 -0.6471 -0.6925
   61MOL0     H 8173   1.820   8.828   8.131 -0.1136 -1.2729  0.7008
   61MOL0     H 8174   1.730   9.050   8.236  2.2238  1.3438  2.4693
   61MOL0     H 8175   1.816   9.005   8.374 -0.3101 -1.3300  0.5289
   61MOL0     H 8176   1.570   8.892   8.276 -0.5876  0.4061  0.2780
   61MOL0     H 8177   1.680   8.760   8.307 -0.5227  0.6351 -2.6747
   61MOL0     H 8178   1.728   8.873   8.537 -0.9613  1.1429  1.6668
   61MOL0     H 8179   1.593   8.969   8.504 -0.8950 -0.3397 -0.1570
   61MOL0     H 8180   1.439   8.803   8.497 -0.0442  1.7299  1.1175
   61MOL0     H 8181   1.560   8.666   8.506  2.6131 -0.1949 -1.0293
   61MOL0     H 8182   1.554   8.885   8.711  1.4000  0.3683 -2.0219
   61MOL0     H 8183   1.633   8.732   8.707 -0.0862 -0.0471  0.2102
   61MOL0     H 8184   1.334   8.795   8.741 -1.6580 -1.4368 -1.4162
   61MOL0     H 8185   1.387   8.633   8.716 -0.8580  0.2737  0.5965
   61MOL0     H 8186   1.432   8.938   8.966 -0.8328 -0.8817  1.1673
   61MOL0     H 8187   1.640   8.881   9.243  0.0753  4.0697 -0.6584
   61MOL0     H 8188   1.475   8.943   9.233  0.8574  0.1961  4.3378
   61MOL0     H 8189   1.378   8.722   9.299  0.6662  0.7619 -1.4909
   61MOL0     H 8190   1.547   8.680   9.348  2.2768  0.8082  0.8165
   61MOL0     H 8191   1.379   8.756   9.518 -0.7871  0.6419 -1.0674
   61MOL0     H 8192   1.374   8.905   9.462 -0.1232 -0.2455  0.2559
   61MOL0     H 8193   1.653   8.873   9.481 -0.4706 -4.3279 -0.7905
   61MOL0     H 8194   1.607   8.778   9.618 -1.3271 -0.2832 -0.0774
   61MOL0     H 8195   1.694   8.862   9.810  1.9345 -0.3792  3.1224
   61MOL0     H 8196   1.634   8.834  10.044  0.4657  0.6385  0.0173
   61MOL0     H 8197   1.564   9.062  10.386 -2.9847  2.8177  3.1710
   61MOL0     H 8198   1.553   9.083  10.616  0.1893  0.2499 -0.4852
   61MOL0     H 8199   1.629   9.055  10.810  2.6055 -0.5144  0.9101
   61MOL0     H 8200   1.584   8.983  10.973  0.1237 -2.3805  1.7053
   61MOL0     H 8201   1.753   8.816  10.899  1.1787 -0.0304  0.7278
   61MOL0     H 8202   1.810   8.917  10.773 -2.5419 -1.1749 -1.3229
   61MOL0     H 8203   1.955   8.961  10.941 -0.8571 -0.2834  0.6750
   61MOL0     H 8204   1.829   9.095  10.963 -0.7746  0.3062  1.8640
   61MOL0     H 8205   1.850   8.833  11.114 -0.2857 -0.1053 -1.3929
   61MOL0     H 8206   1.736   8.953  11.156  0.6580  1.5368 -0.6622
   61MOL0     H 8207   2.021   9.067  11.151 -1.8744  3.8421  0.1345
   61MOL0     H 8208   1.971   8.962  11.283  0.2752  0.2118 -1.1326
   61MOL0     H 8209   1.829   9.213  11.188  1.1987  2.1403  1.6249
   61MOL0     H 8210   1.769   9.113  11.314  0.1785 -0.7405  1.8650
   61MOL0     H 8211   2.058   9.195  11.350 -0.2480  1.2683 -1.6258
   61MOL0     H 8212   1.922   9.182  11.460 -3.3246  2.0650 -0.1883
   61MOL0     H 8213   1.998   9.400  11.446 -1.3532  0.6216  1.0198
   61MOL0     H 8214   1.963   9.408  11.271  1.2764 -2.2758 -0.8596
   61MOL0     H 8215   1.491   8.651  10.655 -0.7111  1.1392  2.2959
   61MOL0     H 8216   1.459   8.655  10.403 -1.9887 -1.0835  2.4208
   61MOL0     H 8217   1.268   9.037   9.993  1.6923 -1.1774  1.2870
   61MOL0     H 8218   1.317   9.060   9.741  0.7653  1.4649  0.5899
   61MOL0     H 8219   1.840   9.036   7.884 -1.9551 -1.2088  1.0400
   61MOL0     H 8220   1.779   8.968   7.670  0.2068  0.1558  0.7222
   61MOL0     H 8221   1.654   8.614   7.414  0.8524 -1.4399  0.3865
   61MOL0     H 8222   1.516   8.645   7.230  0.6284 -1.9530 -2.8843
   61MOL0     H 8223   1.542   8.887   6.963  0.1795  0.2681 -0.9354
   61MOL0     H 8224   1.436   8.756   7.001  0.5512 -1.1079  0.6173
   61MOL0     H 8225   1.573   8.814   6.743  0.2304 -0.5028 -0.8663
   61MOL0     H 8226   1.412   8.856   6.779  0.7019  0.3948 -0.1359
   61MOL0     H 8227   1.460   8.562   6.818 -0.2930  0.1239 -0.2919
   61MOL0     H 8228   1.508   8.615   6.654 -0.5878  2.2229 -0.7150
   61MOL0     H 8229   1.306   8.711   6.612  2.2039  0.4321 -0.6324
   61MOL0     H 8230   1.283   8.532   6.638  2.9405 -1.7522  1.4393
   61MOL0     H 8231   1.054   8.674   6.953  1.5263 -3.6685  2.0534
   61MOL0     H 8232   1.865   8.755   6.996 -1.9525  3.2007 -0.6911
   61MOL0     H 8233   2.031   8.884   7.201 -4.4933  0.3666 -1.0019
   61MOL0     H 8234   2.108   8.735   7.265  0.9363  1.1094 -0.3809
   61MOL0     H 8235   2.075   8.742   7.095 -1.8927  0.5651 -0.7601
   62MOL0     O 8236   6.283   4.646  10.928  0.3785 -0.2967  0.0673
   62MOL0     C 8237   6.337   4.753  10.972  0.2915  0.2545  0.3423
   62MOL0     O 8238   6.465   4.754  11.022 -0.5362  0.9633  0.2752
   62MOL0     C 8239   6.535   4.634  11.004  1.5202  0.0471 -1.1458
   62MOL0     C 8240   6.520   4.536  11.101  0.8222  0.2156 -0.1683
   62MOL0     C 8241   6.570   4.395  11.084  0.3317  0.0761 -0.2332
   62MOL0     C 8242   6.647   4.365  10.967  0.5279 -0.6166 -0.0984
   62MOL0     O 8243   6.707   4.250  10.926  0.5399 -0.4672 -0.2572
   62MOL0     C 8244   6.710   4.145  11.024 -0.6984  0.6940 -0.0629
   62MOL0     C 8245   6.840   4.069  11.024 -0.1241  0.3761  0.0589
   62MOL0     C 8246   6.964   4.158  11.039 -1.0716  1.0583 -0.6723
   62MOL0     C 8247   7.092   4.070  11.057 -1.0186 -0.4269 -0.3612
   62MOL0     C 8248   7.134   3.986  10.933  0.4338  0.4181  0.2785
   62MOL0     C 8249   7.252   3.885  10.968 -0.2557 -0.5556 -0.4268
   62MOL0     C 8250   7.321   3.817  10.845 -0.0513 -0.0694  0.5060
   62MOL0     C 8251   7.425   3.908  10.779 -0.2545  0.4193  0.1916
   62MOL0     N 8252   7.499   3.831  10.677  0.2795 -0.4445  0.5369
   62MOL0     C 8253   7.461   3.804  10.552  0.2097 -0.0147  0.5662
   62MOL0     C 8254   7.532   3.697  10.510 -0.3418  0.0087 -0.1138
   62MOL0     C 8255   7.494   3.619  10.391 -0.1908  0.5541  0.4025
   62MOL0     C 8256   7.386   3.513  10.430  0.1531  0.4535 -0.1307
   62MOL0     C 8257   7.260   3.566  10.505 -0.1228  0.0878  0.0702
   62MOL0     C 8258   7.153   3.458  10.512  1.0701  0.4862 -0.1590
   62MOL0     O 8259   7.018   3.513  10.532  0.4100  0.5088  0.0200
   62MOL0     C 8260   6.985   3.571  10.651  0.4104  0.2564 -0.0690
   62MOL0     C 8261   7.054   3.554  10.772  0.1548 -0.3555 -0.0162
   62MOL0     C 8262   7.012   3.595  10.895  0.0499 -0.5884  1.3016
   62MOL0     C 8263   6.889   3.664  10.901  0.2489  1.2553 -0.4024
   62MOL0     C 8264   6.829   3.691  11.036  0.6134 -0.3769 -0.1593
   62MOL0     O 8265   6.691   3.717  11.032 -0.3538 -0.4590 -0.3771
   62MOL0     C 8266   6.621   3.807  11.118  0.2940  0.4037  0.3123
   62MOL0     C 8267   6.669   3.849  11.241 -0.1218  0.1577  0.0231
   62MOL0     C 8268   6.593   3.923  11.325 -0.8704 -0.2536  0.2294
   62MOL0     C 8269   6.461   3.950  11.304  0.3801 -0.9061 -0.2683
   62MOL0     O 8270   6.394   4.033  11.394 -0.7481 -0.1617 -0.1470
   62MOL0     C 8271   6.278   4.094  11.349  0.5322 -0.5708 -0.2337
   62MOL0     C 8272   6.160   4.009  11.389  1.0017 -0.4718  0.0987
   62MOL0     C 8273   6.025   4.066  11.351  0.0521  0.2361 -0.1248
   62MOL0     C 8274   5.977   4.164  11.464  0.0419 -0.0468  0.6725
   62MOL0     C 8275   5.830   4.204  11.476 -0.2573  0.0128  0.0530
   62MOL0     C 8276   5.754   4.239  11.344  0.0583  0.0039 -0.2099
   62MOL0     C 8277   5.633   4.324  11.381 -1.1970 -0.2793 -0.4214
   62MOL0     C 8278   5.579   4.399  11.259  0.6157 -0.6091 -0.8432
   62MOL0    Cl 8279   5.423   4.466  11.302 -0.0442  0.2610  0.1260
   62MOL0     C 8280   6.403   3.894  11.177 -0.0468  0.2449  0.3966
   62MOL0     C 8281   6.488   3.833  11.083  0.4428  0.3224  0.2708
   62MOL0     O 8282   6.906   3.706  11.131  0.4157 -0.1206 -0.0767
   62MOL0     C 8283   6.816   3.684  10.783 -0.0995  0.1508 -0.4170
   62MOL0     C 8284   6.863   3.635  10.659  0.4654 -1.1075  0.7951
   62MOL0     N 8285   7.618   3.659  10.609  0.3187 -0.0548  0.7491
   62MOL0     N 8286   7.598   3.749  10.707 -0.4435  0.0339  0.3103
   62MOL0     C 8287   6.666   4.476  10.875  0.0585  0.5786 -0.0725
   62MOL0     C 8288   6.601   4.597  10.894 -0.3261 -0.5862 -1.3730
   62MOL0     C 8289   6.254   4.872  11.002  0.3260  1.3594  0.2084
   62MOL0     C 8290   6.319   4.984  11.049 -0.6439 -0.3354 -0.1744
   62MOL0     C 8291   6.246   5.111  11.081 -0.5457 -0.2079  0.8290
   62MOL0     C 8292   6.112   5.118  11.065  1.3098 -0.4912  0.3027
   62MOL0     O 8293   6.056   5.237  11.090 -0.0864 -0.7503  0.5336
   62MOL0     C 8294   5.907   5.238  11.082 -0.4292 -0.3636  1.1522
   62MOL0     C 8295   5.846   5.372  11.134 -0.4224  0.5922  0.3914
   62MOL0     C 8296   5.693   5.393  11.087  0.0401 -0.2181 -0.0855
   62MOL0     C 8297   5.670   5.488  10.973 -0.1855  0.0020  0.2559
   62MOL0     C 8298   5.536   5.462  10.916 -0.1036 -0.4275  0.8328
   62MOL0     C 8299   5.422   5.449  10.876 -0.1523  0.0152 -0.2335
   62MOL0     C 8300   6.039   5.002  11.013  0.2515 -0.6243 -0.5354
   62MOL0     C 8301   6.109   4.879  10.984  0.0025 -0.3092  0.5740
   62MOL0     C 8302   6.028   4.766  10.927 -0.0386 -0.1091 -0.0778
   62MOL0     H 8303   6.467   4.565  11.192  0.9013 -0.7658  0.2049
   62MOL0     H 8304   6.557   4.319  11.160 -0.0624  1.5045  1.2056
   62MOL0     H 8305   6.692   4.169  11.129  0.1196 -1.4051  0.6027
   62MOL0     H 8306   6.634   4.073  10.995 -1.1721  0.7242  1.0770
   62MOL0     H 8307   6.855   4.002  10.938 -0.9335  2.0640 -1.4793
   62MOL0     H 8308   6.840   4.001  11.109 -1.0153  1.6631  1.1293
   62MOL0     H 8309   6.963   4.214  11.133 -0.1481  0.5515 -0.3439
   62MOL0     H 8310   6.988   4.226  10.958 -0.5345  1.9922  0.2510
   62MOL0     H 8311   7.176   4.131  11.091 -3.3763  1.8060  1.8470
   62MOL0     H 8312   7.073   4.003  11.141  1.9060 -1.2808 -0.2746
   62MOL0     H 8313   7.054   3.921  10.898  0.0105  0.9312  0.2853
   62MOL0     H 8314   7.173   4.043  10.848 -0.3164  0.6765  0.1017
   62MOL0     H 8315   7.336   3.934  11.018  2.6278 -1.3175 -4.1001
   62MOL0     H 8316   7.215   3.801  11.028 -0.0938 -0.7913 -0.6598
   62MOL0     H 8317   7.246   3.782  10.774  0.0769 -0.8197  0.7322
   62MOL0     H 8318   7.365   3.731  10.896 -0.2128  0.2298  1.1641
   62MOL0     H 8319   7.376   3.993  10.732 -1.0637 -1.2635 -2.1961
   62MOL0     H 8320   7.506   3.935  10.847 -2.0655  4.2589  1.0855
   62MOL0     H 8321   7.388   3.856  10.491 -0.0222 -1.6852 -0.6202
   62MOL0     H 8322   7.465   3.689  10.312  1.0671 -0.4641 -1.0051
   62MOL0     H 8323   7.576   3.563  10.345 -1.1961 -0.3951 -0.3078
   62MOL0     H 8324   7.359   3.448  10.346 -0.0806 -0.9169  0.9859
   62MOL0     H 8325   7.435   3.442  10.496 -1.6066 -1.2244 -0.5521
   62MOL0     H 8326   7.215   3.647  10.448 -2.0156 -1.8441 -1.3223
   62MOL0     H 8327   7.285   3.597  10.607 -1.5591 -1.9043  1.1027
   62MOL0     H 8328   7.181   3.381  10.584  1.7281  0.7294 -0.1482
   62MOL0     H 8329   7.145   3.404  10.417 -2.3158 -1.5060  1.0797
   62MOL0     H 8330   7.144   3.493  10.769 -0.3212 -1.2107  1.8694
   62MOL0     H 8331   7.069   3.570  10.984  1.1380  1.3051  1.1969
   62MOL0     H 8332   6.772   3.842  11.274 -0.2951 -0.0281  0.5367
   62MOL0     H 8333   6.639   3.975  11.407 -4.6526  2.8854  0.6644
   62MOL0     H 8334   6.262   4.193  11.393  0.5373 -1.4083  1.7307
   62MOL0     H 8335   6.275   4.117  11.242 -0.9493  0.8703  0.0722
   62MOL0     H 8336   6.169   3.911  11.343  3.3449 -0.5979  0.7130
   62MOL0     H 8337   6.160   3.979  11.495  2.8315 -1.4206 -0.1329
   62MOL0     H 8338   6.021   4.115  11.253 -1.1341 -0.9168 -0.6871
   62MOL0     H 8339   5.957   3.980  11.339 -0.5472  0.9635 -2.4226
   62MOL0     H 8340   6.039   4.252  11.447  2.1316 -1.6795 -0.7377
   62MOL0     H 8341   5.995   4.123  11.564 -2.3007  1.6490  1.8840
   62MOL0     H 8342   5.825   4.281  11.553 -1.5357 -2.0269  2.1329
   62MOL0     H 8343   5.783   4.114  11.518 -1.6433  0.6973  0.0083
   62MOL0     H 8344   5.816   4.288  11.269  1.5845  0.4665  1.2756
   62MOL0     H 8345   5.722   4.142  11.305 -4.2674  0.4123  1.8073
   62MOL0     H 8346   5.666   4.400  11.452  2.2892  1.7479 -3.8311
   62MOL0     H 8347   5.559   4.255  11.423  0.8316 -1.5496  1.2816
   62MOL0     H 8348   5.649   4.473  11.220 -1.6592  1.4244 -1.2943
   62MOL0     H 8349   5.558   4.334  11.174 -2.1145  1.6096 -2.0330
   62MOL0     H 8350   6.300   3.900  11.143  0.3367 -0.7906 -1.0990
   62MOL0     H 8351   6.438   3.784  11.000  1.4393 -0.9906  0.4177
   62MOL0     H 8352   6.716   3.725  10.794  1.2092  2.9802  2.1615
   62MOL0     H 8353   6.805   3.650  10.569  0.0589 -0.9434  1.0864
   62MOL0     H 8354   6.721   4.455  10.785 -0.0841 -4.0907  0.7104
   62MOL0     H 8355   6.607   4.681  10.826  1.9052  1.5887  1.2380
   62MOL0     H 8356   6.418   4.970  11.092 -1.4681 -1.3689  1.4660
   62MOL0     H 8357   6.305   5.198  11.108  2.6836 -0.7084 -3.5223
   62MOL0     H 8358   5.869   5.150  11.134 -2.3117 -0.3691 -0.1146
   62MOL0     H 8359   5.882   5.231  10.975 -1.0017  0.7943  1.1913
   62MOL0     H 8360   5.914   5.455  11.112 -0.4171 -0.0247 -2.3206
   62MOL0     H 8361   5.848   5.356  11.242  2.4081  1.2318  0.5250
   62MOL0     H 8362   5.651   5.434  11.179 -0.7723  1.5004 -1.1741
   62MOL0     H 8363   5.626   5.307  11.076  1.2675 -1.0260 -1.6451
   62MOL0     H 8364   5.689   5.591  11.005  2.2618 -0.8436  1.8189
   62MOL0     H 8365   5.740   5.469  10.890 -2.2467 -1.2552 -1.2789
   62MOL0     H 8366   5.318   5.459  10.850 -0.1857  3.3258  0.7429
   62MOL0     H 8367   5.934   5.008  10.988  1.2098  0.1084 -5.2755
   62MOL0     H 8368   6.039   4.683  10.997 -3.5309 -0.0587  0.6713
   62MOL0     H 8369   5.925   4.801  10.922  0.1854  1.2503  2.6948
   62MOL0     H 8370   6.070   4.729  10.833  1.1279  1.7858 -0.3631
   63MOL0     O 8371   5.661  10.737   5.140 -0.3609  0.1117  0.0778
   63MOL0     C 8372   5.681  10.619   5.168 -0.2417  0.0846  0.2517
   63MOL0     O 8373   5.749  10.576   5.280  0.7563 -1.2189  0.3127
   63MOL0     C 8374   5.834  10.660   5.352 -0.7978  0.2662  0.1669
   63MOL0     C 8375   5.940  10.720   5.284  0.3372  0.7236  0.3876
   63MOL0     C 8376   6.028  10.805   5.347 -0.1097 -0.0963  0.5406
   63MOL0     C 8377   6.008  10.843   5.475 -0.1053 -0.9203  1.5505
   63MOL0     O 8378   6.112  10.927   5.530 -0.0798  0.0354  0.1616
   63MOL0     C 8379   6.092  11.027   5.635 -0.5415  0.0701  0.2035
   63MOL0     C 8380   6.214  11.113   5.642 -0.8728 -0.2086 -0.1991
   63MOL0     C 8381   6.240  11.181   5.784 -0.3057 -0.0423 -0.2470
   63MOL0     C 8382   6.122  11.257   5.833  0.9111  0.9409 -0.0499
   63MOL0     C 8383   6.148  11.309   5.980 -0.6002 -0.3810 -0.5464
   63MOL0     C 8384   6.172  11.464   5.998 -0.4608  0.0745  0.4991
   63MOL0     C 8385   6.072  11.560   5.936 -0.0417  0.5319  0.1212
   63MOL0     C 8386   5.927  11.552   5.980 -0.1116  0.4775 -1.5337
   63MOL0     N 8387   5.837  11.605   5.878  0.3145  0.2257 -0.0113
   63MOL0     C 8388   5.838  11.733   5.842  1.0395 -1.2281 -0.1953
   63MOL0     C 8389   5.757  11.737   5.729  0.0401  0.3193 -0.0589
   63MOL0     C 8390   5.741  11.848   5.631 -0.4172  0.3252  0.6837
   63MOL0     C 8391   5.857  11.833   5.537 -0.2718 -0.7338  0.2588
   63MOL0     C 8392   5.987  11.871   5.601 -0.0745  0.1332  0.9048
   63MOL0     C 8393   6.093  11.874   5.497 -0.2231  0.1605  1.7120
   63MOL0     O 8394   6.195  11.966   5.542  0.3171 -0.0995  0.3877
   63MOL0     C 8395   6.306  11.987   5.462 -0.4628 -0.1702 -0.3985
   63MOL0     C 8396   6.334  11.918   5.333  0.4252  0.3247 -0.3025
   63MOL0     C 8397   6.452  11.958   5.267 -1.2273 -0.3897  0.8872
   63MOL0     C 8398   6.545  12.053   5.316 -0.9569 -0.0214 -0.0341
   63MOL0     C 8399   6.675  12.075   5.243 -0.2892  0.3369 -0.5018
   63MOL0     O 8400   6.730  11.969   5.170  0.4538  0.1680 -0.4703
   63MOL0     C 8401   6.842  11.998   5.105 -0.6310 -0.1498 -1.3609
   63MOL0     C 8402   6.966  12.022   5.166 -0.0665  0.3916 -0.4286
   63MOL0     C 8403   7.081  12.053   5.099  0.1079  0.2892 -0.5587
   63MOL0     C 8404   7.089  12.050   4.961  0.3479 -0.6564 -0.1909
   63MOL0     O 8405   7.203  12.074   4.889  0.2375  0.4135  0.9041
   63MOL0     C 8406   7.231  12.010   4.766  0.4434  0.2728  0.9403
   63MOL0     C 8407   7.379  12.025   4.733  0.4682 -0.5880 -0.4460
   63MOL0     C 8408   7.402  12.003   4.579 -0.3914  0.0824  0.1797
   63MOL0     C 8409   7.329  12.120   4.506  0.3351  0.3604 -0.2231
   63MOL0     C 8410   7.420  12.159   4.383  0.6507  0.5399  0.4667
   63MOL0     C 8411   7.557  12.215   4.418 -0.7050 -0.9333  0.6656
   63MOL0     C 8412   7.660  12.195   4.301  0.8416  0.0549  0.4054
   63MOL0     C 8413   7.801  12.215   4.337 -0.3644 -0.2022  0.3873
   63MOL0    Cl 8414   7.856  12.382   4.348  0.1190 -0.3080 -0.1027
   63MOL0     C 8415   6.960  12.032   4.899 -0.6364 -0.1305 -0.1552
   63MOL0     C 8416   6.845  11.997   4.971 -0.2478  0.4526 -0.7828
   63MOL0     O 8417   6.718  12.191   5.254 -0.3092 -0.4922  0.1583
   63MOL0     C 8418   6.512  12.119   5.430 -0.3753 -0.1780 -0.6693
   63MOL0     C 8419   6.407  12.079   5.503 -0.5393 -1.1818 -0.3026
   63MOL0     N 8420   5.693  11.617   5.711 -0.7591  0.2224 -0.2838
   63MOL0     N 8421   5.740  11.539   5.811  0.2415 -0.4561 -0.2291
   63MOL0     C 8422   5.897  10.792   5.545 -0.2805  0.6664 -0.3413
   63MOL0     C 8423   5.815  10.694   5.482 -0.6620  0.3528  0.3405
   63MOL0     C 8424   5.610  10.517   5.083 -0.4501 -0.2332 -1.4188
   63MOL0     C 8425   5.609  10.385   5.136  0.2853 -0.4093  0.3129
   63MOL0     C 8426   5.546  10.281   5.067 -0.3348  0.1093  0.4709
   63MOL0     C 8427   5.472  10.309   4.949  0.5263 -0.2442  0.1303
   63MOL0     O 8428   5.398  10.215   4.888 -0.1638 -0.0249  0.0091
   63MOL0     C 8429   5.308  10.135   4.968 -0.1334 -0.8371  0.0525
   63MOL0     C 8430   5.313   9.987   4.943 -0.5097 -0.1157 -0.6103
   63MOL0     C 8431   5.274   9.926   4.807 -0.2272 -0.5822  0.8529
   63MOL0     C 8432   5.312  10.020   4.692  0.4724 -0.0285 -0.1782
   63MOL0     C 8433   5.282   9.951   4.573 -0.5134  0.7588  0.7533
   63MOL0     C 8434   5.244   9.903   4.466  0.4495  0.5086  0.3172
   63MOL0     C 8435   5.487  10.436   4.888 -0.1570  0.3485 -0.2266
   63MOL0     C 8436   5.558  10.534   4.956  0.5360 -0.9103  0.4307
   63MOL0     C 8437   5.556  10.661   4.878 -0.2197 -0.0799  0.7325
   63MOL0     H 8438   5.946  10.704   5.177 -0.2280  0.2304  0.4274
   63MOL0     H 8439   6.111  10.845   5.290  1.9539  1.0787  4.0270
   63MOL0     H 8440   6.003  11.089   5.622 -0.4521  0.4767  1.4165
   63MOL0     H 8441   6.082  10.971   5.728  3.0311 -1.7940 -0.3466
   63MOL0     H 8442   6.228  11.183   5.559  1.8587 -0.3531  0.0316
   63MOL0     H 8443   6.298  11.042   5.649 -1.1014 -0.3529  1.3522
   63MOL0     H 8444   6.329  11.243   5.781  0.4921 -0.9822  1.8543
   63MOL0     H 8445   6.273  11.113   5.863 -0.1986 -0.6781 -0.8240
   63MOL0     H 8446   6.091  11.335   5.763 -4.8929 -0.6139  0.2629
   63MOL0     H 8447   6.029  11.198   5.837  0.8446  1.0424 -0.0950
   63MOL0     H 8448   6.062  11.288   6.044 -3.4141  2.4653 -3.0516
   63MOL0     H 8449   6.237  11.255   6.013 -1.2409 -1.0638  0.1061
   63MOL0     H 8450   6.171  11.478   6.107  0.4950  2.7910  0.2183
   63MOL0     H 8451   6.271  11.494   5.964 -0.9994  1.7106  0.2883
   63MOL0     H 8452   6.078  11.526   5.832 -0.7647  0.7697 -0.0029
   63MOL0     H 8453   6.101  11.665   5.947 -2.4182  1.1029  1.6257
   63MOL0     H 8454   5.902  11.446   5.993 -1.8176  0.7390 -2.3889
   63MOL0     H 8455   5.909  11.600   6.077 -0.4415 -0.7523 -0.9653
   63MOL0     H 8456   5.904  11.811   5.877 -1.6835 -0.4479  3.8508
   63MOL0     H 8457   5.647  11.842   5.575 -0.1577 -0.8996  0.3582
   63MOL0     H 8458   5.741  11.941   5.689  2.4274  1.5036 -1.0143
   63MOL0     H 8459   5.858  11.734   5.490  1.4302  0.3968 -2.3369
   63MOL0     H 8460   5.849  11.905   5.455  0.0979 -0.5126  0.4162
   63MOL0     H 8461   6.029  11.804   5.677  3.0249  1.6335  0.6686
   63MOL0     H 8462   5.982  11.971   5.645  0.1941 -0.0241  1.2930
   63MOL0     H 8463   6.061  11.906   5.397  2.1603 -1.1260  0.4511
   63MOL0     H 8464   6.145  11.783   5.469 -0.4155 -0.2057  2.5387
   63MOL0     H 8465   6.257  11.854   5.291  1.7607 -1.8571  0.3717
   63MOL0     H 8466   6.477  11.900   5.178 -2.3702 -0.2097  0.4305
   63MOL0     H 8467   6.973  12.025   5.275  3.8017 -1.0047 -0.4504
   63MOL0     H 8468   7.175  12.079   5.146  1.1231 -3.0134 -0.5871
   63MOL0     H 8469   7.209  11.903   4.766  3.6320 -0.5058 -0.3118
   63MOL0     H 8470   7.161  12.047   4.691 -1.4218 -2.3229  1.2707
   63MOL0     H 8471   7.409  12.124   4.769 -0.0778 -0.8515  0.7883
   63MOL0     H 8472   7.435  11.948   4.787 -2.3083 -3.1377 -0.9255
   63MOL0     H 8473   7.506  12.005   4.547 -0.1743  1.6228  0.8980
   63MOL0     H 8474   7.361  11.903   4.564  1.1120 -1.1837  3.5341
   63MOL0     H 8475   7.313  12.201   4.577  3.4591  1.0302 -0.1316
   63MOL0     H 8476   7.230  12.091   4.470  1.2944 -3.4308 -0.2679
   63MOL0     H 8477   7.361  12.224   4.318 -0.0434  2.3228  2.7290
   63MOL0     H 8478   7.434  12.063   4.332  1.4321  1.1513 -0.5148
   63MOL0     H 8479   7.543  12.323   4.422  3.3549  0.1969 -4.2879
   63MOL0     H 8480   7.610  12.179   4.506  2.1980 -0.5311 -0.7963
   63MOL0     H 8481   7.622  12.242   4.210 -1.9466  0.5359  1.7339
   63MOL0     H 8482   7.651  12.087   4.290 -1.5846  0.3422 -1.1949
   63MOL0     H 8483   7.823  12.169   4.434  4.2951  3.5910  1.5067
   63MOL0     H 8484   7.872  12.166   4.270 -0.9446 -0.5038 -0.0108
   63MOL0     H 8485   6.954  12.034   4.791  2.0727  2.9334 -0.4027
   63MOL0     H 8486   6.744  11.984   4.932 -0.7151 -1.7080  0.9612
   63MOL0     H 8487   6.588  12.187   5.468  0.2669 -1.4498  0.3892
   63MOL0     H 8488   6.403  12.120   5.603  0.3670 -0.2139 -0.6468
   63MOL0     H 8489   5.891  10.827   5.648 -0.7516 -3.0145  1.0077
   63MOL0     H 8490   5.735  10.639   5.530  1.0008 -1.8996  0.7162
   63MOL0     H 8491   5.669  10.368   5.224  2.4779  0.7335 -0.8676
   63MOL0     H 8492   5.552  10.184   5.116  1.2758 -0.5236 -0.8898
   63MOL0     H 8493   5.203  10.163   4.973  0.7274  2.7678  0.9782
   63MOL0     H 8494   5.334  10.140   5.074 -2.6319 -4.6397  1.0110
   63MOL0     H 8495   5.258   9.928   5.017 -2.2421 -1.8807 -3.1337
   63MOL0     H 8496   5.410   9.955   4.983 -1.2548 -1.2692  0.3399
   63MOL0     H 8497   5.167   9.905   4.807  0.2500 -3.7303 -1.3261
   63MOL0     H 8498   5.322   9.829   4.793 -0.0500 -0.3916  0.0814
   63MOL0     H 8499   5.242  10.104   4.681  0.8170  0.3015  0.1078
   63MOL0     H 8500   5.414  10.059   4.683  0.3864  1.0353  2.5899
   63MOL0     H 8501   5.222   9.850   4.376  2.3112 -0.9916  0.6922
   63MOL0     H 8502   5.432  10.465   4.799  1.5185  1.2042 -1.0511
   63MOL0     H 8503   5.489  10.657   4.792  1.0103 -0.8197 -0.2367
   63MOL0     H 8504   5.511  10.740   4.938  2.9963 -0.6261  4.2069
   63MOL0     H 8505   5.646  10.700   4.830 -2.1167  3.2753 -0.3891
   64MOL0     O 8506   4.637   2.894   9.689 -0.1280  0.6427  0.4957
   64MOL0     C 8507   4.752   2.881   9.718  0.2689 -0.0002  0.2014
   64MOL0     O 8508   4.833   2.986   9.732  0.7921 -0.8129 -0.4442
   64MOL0     C 8509   4.795   3.121   9.712  0.9881 -0.0662  0.2159
   64MOL0     C 8510   4.750   3.169   9.591  0.2490  0.1958  0.2743
   64MOL0     C 8511   4.716   3.304   9.583 -0.7591  1.0175  0.2407
   64MOL0     C 8512   4.718   3.385   9.694  0.1290 -1.0278 -0.2658
   64MOL0     O 8513   4.666   3.513   9.678  0.3405 -0.2523 -0.4869
   64MOL0     C 8514   4.691   3.616   9.774  1.1992 -0.6739 -0.1631
   64MOL0     C 8515   4.833   3.672   9.763  0.9782 -0.0788 -0.7122
   64MOL0     C 8516   4.864   3.727   9.626 -0.2125 -0.2203 -0.9054
   64MOL0     C 8517   5.016   3.701   9.607 -0.1565  0.1723  0.5878
   64MOL0     C 8518   5.073   3.783   9.491  0.1749 -0.6527 -0.1192
   64MOL0     C 8519   5.221   3.775   9.483 -0.4780  0.7384  0.3983
   64MOL0     C 8520   5.304   3.830   9.599  0.1357 -0.4645  0.0681
   64MOL0     C 8521   5.276   3.969   9.660 -1.4313 -0.3401  0.3570
   64MOL0     N 8522   5.350   4.008   9.784 -0.0209 -0.4276 -0.6039
   64MOL0     C 8523   5.486   4.038   9.778 -0.1888 -0.1227  0.3268
   64MOL0     C 8524   5.507   4.133   9.873 -0.7497 -1.0430  0.0084
   64MOL0     C 8525   5.639   4.195   9.900 -0.0769 -0.3284 -1.2556
   64MOL0     C 8526   5.692   4.277   9.780  0.6096 -0.8641  1.1075
   64MOL0     C 8527   5.810   4.370   9.816  0.9271  1.2154 -0.1915
   64MOL0     C 8528   5.802   4.508   9.753 -0.0698 -0.2952  0.5827
   64MOL0     O 8529   5.911   4.582   9.806 -0.0308 -0.3326 -0.0428
   64MOL0     C 8530   5.914   4.721   9.830 -0.4381  1.1587 -0.9116
   64MOL0     C 8531   5.827   4.810   9.770  0.1738  0.3029  0.1932
   64MOL0     C 8532   5.839   4.946   9.792  0.2316 -0.1181  0.0261
   64MOL0     C 8533   5.942   4.987   9.880  0.4215  0.0921 -0.0733
   64MOL0     C 8534   5.951   5.138   9.918  0.9556 -0.0700  0.0714
   64MOL0     O 8535   6.059   5.177   9.988  0.1642  0.2757 -0.3535
   64MOL0     C 8536   6.099   5.306  10.017  0.2152 -0.4946  0.6754
   64MOL0     C 8537   6.161   5.325  10.132  0.1721 -0.3191  0.0425
   64MOL0     C 8538   6.235   5.442  10.164 -0.3383 -0.4877  0.3594
   64MOL0     C 8539   6.227   5.550  10.077  0.2179 -0.1272  0.4719
   64MOL0     O 8540   6.305   5.660  10.112 -0.0226 -0.8803  0.0657
   64MOL0     C 8541   6.252   5.788  10.071 -0.5047  0.1576 -0.0961
   64MOL0     C 8542   6.306   5.897  10.158 -0.0275 -0.2743  0.3565
   64MOL0     C 8543   6.307   5.848  10.308  0.3181 -0.3307 -0.3258
   64MOL0     C 8544   6.236   5.954  10.399  1.1972  0.0333 -0.2386
   64MOL0     C 8545   6.175   5.889  10.526  0.7726  0.1226  0.8618
   64MOL0     C 8546   6.081   5.983  10.598  0.1437 -0.8119  1.7951
   64MOL0     C 8547   5.942   5.985  10.526  0.3591  0.3201  0.6249
   64MOL0     C 8548   5.823   6.054  10.596  0.9122  1.0563 -0.8856
   64MOL0    Cl 8549   5.849   6.222  10.662  0.0044 -0.2483 -0.2381
   64MOL0     C 8550   6.162   5.537   9.959 -0.3683  0.7154  0.1010
   64MOL0     C 8551   6.099   5.415   9.931  0.7810  0.0992  0.3927
   64MOL0     O 8552   5.854   5.213   9.882  0.1081 -0.2287  0.6383
   64MOL0     C 8553   6.037   4.897   9.940  0.7585 -0.4354 -0.2459
   64MOL0     C 8554   6.022   4.768   9.904 -0.8467 -0.7599 -0.0317
   64MOL0     N 8555   5.393   4.143   9.952  0.6058  0.3437 -0.8811
   64MOL0     N 8556   5.304   4.065   9.906  0.8115  0.5333 -0.3388
   64MOL0     C 8557   4.753   3.338   9.821 -0.6467  0.5105  0.3744
   64MOL0     C 8558   4.799   3.211   9.817 -0.5774  1.4615 -0.8789
   64MOL0     C 8559   4.816   2.744   9.735 -0.6330  0.8799 -0.2950
   64MOL0     C 8560   4.738   2.619   9.730 -0.6742  0.0804  0.8363
   64MOL0     C 8561   4.802   2.493   9.744  0.8287 -0.0849 -1.0522
   64MOL0     C 8562   4.926   2.473   9.788 -0.3722 -0.1031  0.0822
   64MOL0     O 8563   4.968   2.344   9.793 -0.5370  1.2722 -0.3919
   64MOL0     C 8564   5.094   2.295   9.811 -0.0546  0.0021  1.0803
   64MOL0     C 8565   5.158   2.304   9.951  0.5878  0.1866  0.5826
   64MOL0     C 8566   5.063   2.330  10.073  0.4262 -0.3704 -0.1021
   64MOL0     C 8567   4.971   2.210  10.111  0.2457 -0.9534 -0.2775
   64MOL0     C 8568   4.912   2.233  10.236  0.2154 -0.1337 -0.1484
   64MOL0     C 8569   4.887   2.244  10.357 -0.3616 -0.3245  0.2128
   64MOL0     C 8570   5.001   2.586   9.805 -0.1347 -0.4448  0.0073
   64MOL0     C 8571   4.950   2.722   9.780  0.9071  0.0195  0.0651
   64MOL0     C 8572   5.060   2.824   9.789  0.1295  0.1171  0.1780
   64MOL0     H 8573   4.724   3.112   9.502  0.1652 -0.1556  0.5185
   64MOL0     H 8574   4.668   3.332   9.489  0.6668 -0.9536 -1.1541
   64MOL0     H 8575   4.628   3.701   9.746  1.6671 -0.0446  0.6715
   64MOL0     H 8576   4.667   3.585   9.876  1.2247 -1.1356 -0.2969
   64MOL0     H 8577   4.895   3.589   9.797  2.5051  1.7228  1.2308
   64MOL0     H 8578   4.844   3.758   9.831 -0.5779  0.0502 -0.6041
   64MOL0     H 8579   4.852   3.836   9.618  2.9773  0.1042 -3.2984
   64MOL0     H 8580   4.809   3.681   9.544  2.2913 -0.6361 -2.4622
   64MOL0     H 8581   5.072   3.708   9.701  1.7100 -0.1416 -0.4641
   64MOL0     H 8582   5.021   3.595   9.581 -0.5060  0.2399  0.2359
   64MOL0     H 8583   5.032   3.763   9.392  1.8585 -4.5197 -0.1977
   64MOL0     H 8584   5.052   3.888   9.516 -0.0246 -0.8340  0.4893
   64MOL0     H 8585   5.244   3.670   9.465  0.6092  1.4105 -2.9318
   64MOL0     H 8586   5.260   3.820   9.391  0.8506 -0.0655  0.5457
   64MOL0     H 8587   5.405   3.823   9.558 -0.6117 -0.7627 -1.8134
   64MOL0     H 8588   5.312   3.761   9.684  1.4202 -2.0025 -1.2439
   64MOL0     H 8589   5.289   4.043   9.581 -0.9700 -1.5518 -0.7331
   64MOL0     H 8590   5.169   3.969   9.681 -1.2422  2.4881  1.8996
   64MOL0     H 8591   5.555   4.003   9.702  0.1560 -0.9789  1.0126
   64MOL0     H 8592   5.629   4.272   9.978  2.2900  1.2441 -2.4067
   64MOL0     H 8593   5.702   4.115   9.940 -0.0228 -0.3110 -1.3066
   64MOL0     H 8594   5.725   4.203   9.706  3.2200  0.4217  0.8606
   64MOL0     H 8595   5.617   4.340   9.732  1.9280  0.2008  0.3838
   64MOL0     H 8596   5.895   4.316   9.774 -0.8241  0.7798 -3.5680
   64MOL0     H 8597   5.813   4.377   9.925  0.5358 -0.4694 -0.0502
   64MOL0     H 8598   5.704   4.553   9.773  0.2733  0.8900 -0.2571
   64MOL0     H 8599   5.816   4.505   9.644  0.5664  0.4748  0.6326
   64MOL0     H 8600   5.749   4.773   9.704 -2.1013  3.2967  1.0409
   64MOL0     H 8601   5.783   5.023   9.740  0.5668  1.9758  2.5348
   64MOL0     H 8602   6.167   5.239  10.197 -1.4764 -0.8598 -0.4637
   64MOL0     H 8603   6.300   5.443  10.251 -0.2289 -2.0538  0.3380
   64MOL0     H 8604   6.280   5.800   9.966 -2.2908 -4.3454 -1.3374
   64MOL0     H 8605   6.144   5.780  10.085 -0.0842  0.0263  5.8760
   64MOL0     H 8606   6.409   5.917  10.126 -0.3908  2.9909  0.9065
   64MOL0     H 8607   6.246   5.988  10.153  0.2906  0.1680  2.9284
   64MOL0     H 8608   6.265   5.750  10.332  0.7196 -0.2997  0.5587
   64MOL0     H 8609   6.414   5.844  10.331  0.5245  3.0645 -0.1323
   64MOL0     H 8610   6.142   5.986  10.352  1.0800 -0.6077 -0.4524
   64MOL0     H 8611   6.294   6.044  10.423 -1.2944  1.2906  1.5066
   64MOL0     H 8612   6.250   5.863  10.601  0.5296  3.4511  2.4174
   64MOL0     H 8613   6.115   5.804  10.491 -3.1014  2.7870  0.4335
   64MOL0     H 8614   6.065   5.938  10.697 -1.1697  0.7660  2.3493
   64MOL0     H 8615   6.118   6.083  10.621  0.6172 -0.4863 -0.2115
   64MOL0     H 8616   5.923   5.878  10.514 -4.0064  0.9909  0.2116
   64MOL0     H 8617   5.953   6.028  10.426  0.6555 -1.8988 -0.3671
   64MOL0     H 8618   5.740   6.044  10.526 -1.4945 -2.2471  2.0825
   64MOL0     H 8619   5.791   5.989  10.678  0.3268  2.9028  0.4399
   64MOL0     H 8620   6.159   5.618   9.886  5.5327  2.1648  0.9331
   64MOL0     H 8621   6.057   5.410   9.831  1.3622 -2.7077  0.2156
   64MOL0     H 8622   6.122   4.927   9.999  1.7657  0.4101 -2.0323
   64MOL0     H 8623   6.081   4.689   9.949 -1.2016  0.3029  2.4859
   64MOL0     H 8624   4.753   3.393   9.915  0.9240  1.6339 -0.2352
   64MOL0     H 8625   4.846   3.174   9.907  1.8262 -0.7285 -2.8602
   64MOL0     H 8626   4.633   2.615   9.703  0.1294  0.0157 -2.6735
   64MOL0     H 8627   4.749   2.399   9.726 -0.1926 -0.1548  1.8725
   64MOL0     H 8628   5.159   2.350   9.742  1.4853 -0.5166  2.0534
   64MOL0     H 8629   5.095   2.193   9.772 -2.0267  0.5927 -0.6586
   64MOL0     H 8630   5.223   2.392   9.957  0.6348  0.1032  1.4404
   64MOL0     H 8631   5.209   2.210   9.971 -0.5722 -0.8300 -0.9499
   64MOL0     H 8632   5.001   2.416  10.049 -0.4381 -1.2010 -0.9757
   64MOL0     H 8633   5.122   2.357  10.161  1.5341 -4.0230  0.4771
   64MOL0     H 8634   4.898   2.194  10.031 -0.3424 -3.8746  0.7121
   64MOL0     H 8635   5.026   2.116  10.123 -1.5835 -1.7679  2.8016
   64MOL0     H 8636   4.883   2.270  10.461 -1.0086  1.5545 -0.2349
   64MOL0     H 8637   5.103   2.568   9.836  0.6074 -1.6587 -2.8609
   64MOL0     H 8638   5.049   2.890   9.702 -0.9973  1.6399  1.3987
   64MOL0     H 8639   5.059   2.879   9.884 -1.6534 -3.5918  2.5473
   64MOL0     H 8640   5.157   2.774   9.792  2.4964  3.9529 -2.7487
   65MOL0     O 8641   1.477   2.258   6.604  0.3511 -0.3556  0.3564
   65MOL0     C 8642   1.556   2.336   6.545  0.0162 -0.1874  0.2182
   65MOL0     O 8643   1.532   2.384   6.415 -0.1291  0.1233  0.3436
   65MOL0     C 8644   1.411   2.351   6.355 -0.0638  0.0662 -0.0020
   65MOL0     C 8645   1.415   2.313   6.220 -0.0440 -0.2325 -0.8296
   65MOL0     C 8646   1.299   2.289   6.153 -0.3069 -0.1699 -0.7107
   65MOL0     C 8647   1.176   2.296   6.220 -0.1088 -0.0198 -0.1348
   65MOL0     O 8648   1.050   2.286   6.167  0.1152  0.0511  0.1088
   65MOL0     C 8649   1.015   2.178   6.079  0.2695 -0.1722  0.1680
   65MOL0     C 8650   0.965   2.236   5.944 -0.0654  0.2717  0.5881
   65MOL0     C 8651   0.938   2.121   5.842 -0.1033  0.4574  0.5626
   65MOL0     C 8652   0.799   2.095   5.828 -0.0991 -0.0803  0.3387
   65MOL0     C 8653   0.778   1.959   5.759  0.6434  0.7846  0.2817
   65MOL0     C 8654   0.631   1.917   5.725 -0.2962 -0.5675 -0.0574
   65MOL0     C 8655   0.590   1.973   5.586  0.2511  0.8955  0.7801
   65MOL0     C 8656   0.628   1.861   5.490  1.1517  0.1853 -0.3444
   65MOL0     N 8657   0.590   1.888   5.350  0.3783  0.2981 -0.0426
   65MOL0     C 8658   0.492   1.821   5.280 -0.0609  0.5778  0.2643
   65MOL0     C 8659   0.483   1.885   5.166 -0.2546  0.4652  0.3324
   65MOL0     C 8660   0.413   1.826   5.043 -0.3077 -0.6729 -0.4641
   65MOL0     C 8661   0.315   1.939   5.006  0.5301  0.8941  0.6555
   65MOL0     C 8662   0.368   2.060   4.915  0.7097 -0.7215  0.3596
   65MOL0     C 8663   0.252   2.160   4.867 -1.3339  0.0112  0.4149
   65MOL0     O 8664   0.209   2.256   4.961  0.2213 -0.5715 -0.4892
   65MOL0     C 8665   0.076   2.289   4.952 -0.4713  0.2477 -0.1737
   65MOL0     C 8666   0.003   2.268   5.070  0.5327  0.4930  0.1972
   65MOL0     C 8667  -0.136   2.292   5.061  0.5680 -0.0739  0.1680
   65MOL0     C 8668  -0.208   2.342   4.948  1.3350 -0.4078  0.5337
   65MOL0     C 8669  -0.364   2.359   4.952 -0.1459  0.3085  0.3566
   65MOL0     O 8670  -0.402   2.388   5.077  0.4493 -0.1782  0.5339
   65MOL0     C 8671  -0.529   2.419   5.108  0.9148 -0.0087 -0.7297
   65MOL0     C 8672  -0.619   2.498   5.041  0.5021 -0.2335 -1.0569
   65MOL0     C 8673  -0.745   2.534   5.080 -0.2891  0.5579 -0.7648
   65MOL0     C 8674  -0.784   2.501   5.208  0.4758  0.0462 -0.1464
   65MOL0     O 8675  -0.910   2.532   5.258  0.4067 -0.2180 -0.5738
   65MOL0     C 8676  -0.934   2.634   5.353  0.1081 -0.0202  0.4406
   65MOL0     C 8677  -1.089   2.625   5.400  0.4960 -0.6084  0.3246
   65MOL0     C 8678  -1.122   2.736   5.501  0.0633 -0.0103 -0.0613
   65MOL0     C 8679  -1.263   2.702   5.562  0.5171 -0.9487 -0.2823
   65MOL0     C 8680  -1.308   2.819   5.646  0.3387 -1.4121  0.6728
   65MOL0     C 8681  -1.464   2.817   5.686  1.0517  0.6393 -0.3127
   65MOL0     C 8682  -1.516   2.681   5.743 -0.6803 -0.3402 -0.4190
   65MOL0     C 8683  -1.649   2.678   5.815  0.8159  0.5918  0.0319
   65MOL0    Cl 8684  -1.778   2.715   5.704  0.3801 -0.1026  0.0170
   65MOL0     C 8685  -0.702   2.414   5.279  0.3339  0.4276  0.0089
   65MOL0     C 8686  -0.575   2.380   5.232  0.2068  0.5213 -0.6918
   65MOL0     O 8687  -0.435   2.361   4.852  0.2663 -0.2872  0.9519
   65MOL0     C 8688  -0.128   2.359   4.835 -0.6690  0.1052 -0.3074
   65MOL0     C 8689   0.011   2.332   4.836 -0.4210 -0.9986  0.0380
   65MOL0     N 8690   0.561   1.995   5.172 -0.5238 -0.1888  0.3185
   65MOL0     N 8691   0.622   1.998   5.276  0.0249  0.0369 -0.5186
   65MOL0     C 8692   1.173   2.338   6.350 -0.3692 -1.0459 -0.4274
   65MOL0     C 8693   1.286   2.365   6.423 -1.1447  0.2343 -0.5653
   65MOL0     C 8694   1.689   2.371   6.610  0.5625 -0.1325 -0.1740
   65MOL0     C 8695   1.811   2.388   6.532  0.1297  0.6511 -0.3733
   65MOL0     C 8696   1.932   2.429   6.580  0.0781  1.2378 -0.3003
   65MOL0     C 8697   1.939   2.470   6.710 -0.2363 -0.2924 -0.0285
   65MOL0     O 8698   2.059   2.526   6.750 -0.1845  0.0096  0.0607
   65MOL0     C 8699   2.065   2.661   6.801 -0.1493  1.0190 -0.2697
   65MOL0     C 8700   2.177   2.739   6.738  0.4461  0.9242  0.2152
   65MOL0     C 8701   2.308   2.657   6.736  0.6176 -0.5545  0.3842
   65MOL0     C 8702   2.420   2.742   6.693 -0.6727  0.0649 -0.2245
   65MOL0     C 8703   2.547   2.654   6.682 -0.4476 -0.2150  0.1690
   65MOL0     C 8704   2.651   2.586   6.698  0.1901  0.5028 -0.1163
   65MOL0     C 8705   1.831   2.451   6.796  0.4750  0.4759  0.4959
   65MOL0     C 8706   1.702   2.399   6.747  0.3169  0.9625  0.2854
   65MOL0     C 8707   1.588   2.401   6.842  0.0987  0.0044  0.1947
   65MOL0     H 8708   1.512   2.309   6.172  0.5552 -1.0338  0.4007
   65MOL0     H 8709   1.283   2.251   6.052  1.2002  2.4954 -2.0842
   65MOL0     H 8710   1.100   2.116   6.048 -2.5304 -2.7311 -3.2026
   65MOL0     H 8711   0.952   2.099   6.121  0.5461  0.1620  1.2613
   65MOL0     H 8712   1.031   2.311   5.899 -2.8372  1.8552 -1.1278
   65MOL0     H 8713   0.870   2.290   5.953  0.5465  1.1706  1.9507
   65MOL0     H 8714   0.993   2.031   5.871  0.8251  0.6003 -0.6736
   65MOL0     H 8715   0.967   2.149   5.740 -0.2164  0.2659  0.4770
   65MOL0     H 8716   0.760   2.083   5.930  3.4510  1.6435  2.0828
   65MOL0     H 8717   0.749   2.182   5.785  1.6172  0.5928 -0.3786
   65MOL0     H 8718   0.823   1.953   5.660 -0.8984  1.1958 -0.4728
   65MOL0     H 8719   0.823   1.887   5.827  2.7705  1.8214  0.0456
   65MOL0     H 8720   0.626   1.808   5.730  3.1959 -0.8876 -1.0248
   65MOL0     H 8721   0.559   1.967   5.791  1.1221 -0.5882  1.5694
   65MOL0     H 8722   0.633   2.069   5.557 -1.4891  1.9643  1.5376
   65MOL0     H 8723   0.480   1.976   5.588 -0.1588 -2.8675 -3.0237
   65MOL0     H 8724   0.735   1.839   5.500  1.7606  2.8996 -0.0602
   65MOL0     H 8725   0.574   1.777   5.536 -0.9547  2.6930  2.1228
   65MOL0     H 8726   0.449   1.723   5.300 -2.0539  1.3958  0.2847
   65MOL0     H 8727   0.493   1.820   4.968 -0.2585  2.5798 -0.8079
   65MOL0     H 8728   0.366   1.729   5.058 -1.8550 -0.5900 -3.8133
   65MOL0     H 8729   0.237   1.895   4.942  0.6812  2.2374 -0.5180
   65MOL0     H 8730   0.268   1.973   5.098 -0.7856 -2.7821  1.5090
   65MOL0     H 8731   0.426   2.021   4.831 -1.3098  0.0796 -1.4584
   65MOL0     H 8732   0.434   2.124   4.975  0.9198  1.3563 -1.9753
   65MOL0     H 8733   0.168   2.094   4.843  0.3681 -1.6254 -1.3849
   65MOL0     H 8734   0.277   2.209   4.772 -0.8286 -2.6381 -0.9165
   65MOL0     H 8735   0.045   2.233   5.163  0.2606  0.3436  0.2655
   65MOL0     H 8736  -0.188   2.275   5.155  2.3717 -0.6658  1.1070
   65MOL0     H 8737  -0.610   2.537   4.941 -0.5947  0.9421 -0.7237
   65MOL0     H 8738  -0.813   2.581   5.010 -2.0071 -0.4150  0.1621
   65MOL0     H 8739  -0.858   2.626   5.431  0.3392  0.8294  0.3149
   65MOL0     H 8740  -0.932   2.729   5.299  0.8960 -0.4008 -0.2138
   65MOL0     H 8741  -1.151   2.646   5.312 -0.4416 -2.9577  0.3577
   65MOL0     H 8742  -1.120   2.531   5.445  1.3444 -0.8494  0.4310
   65MOL0     H 8743  -1.040   2.740   5.574  1.5190  0.3075 -1.6510
   65MOL0     H 8744  -1.126   2.830   5.445  0.5859 -0.7311 -1.3512
   65MOL0     H 8745  -1.250   2.610   5.620  1.0772 -2.7988 -3.1134
   65MOL0     H 8746  -1.329   2.686   5.477  1.4590  3.6925 -2.2023
   65MOL0     H 8747  -1.299   2.908   5.582 -0.9739 -0.2584  2.0008
   65MOL0     H 8748  -1.237   2.832   5.728 -1.4446  0.3826  2.0491
   65MOL0     H 8749  -1.494   2.890   5.763  2.3974 -0.1999  1.0695
   65MOL0     H 8750  -1.521   2.840   5.595 -0.6689  1.3761  0.8693
   65MOL0     H 8751  -1.439   2.643   5.811 -0.1294  0.5086 -0.5519
   65MOL0     H 8752  -1.504   2.605   5.665  1.0902 -0.6179  0.0800
   65MOL0     H 8753  -1.644   2.571   5.839  1.0940  0.3647 -0.9747
   65MOL0     H 8754  -1.662   2.747   5.898 -2.5575 -0.1991  0.3025
   65MOL0     H 8755  -0.740   2.370   5.371  3.5982  2.3367  2.4754
   65MOL0     H 8756  -0.513   2.316   5.296  1.7649  3.2791  0.7386
   65MOL0     H 8757  -0.173   2.403   4.747 -0.2684  1.0699 -0.0464
   65MOL0     H 8758   0.064   2.337   4.741 -0.6566 -0.4011 -0.0651
   65MOL0     H 8759   1.079   2.342   6.405 -0.3756 -3.4783 -0.1700
   65MOL0     H 8760   1.277   2.388   6.528  0.7548 -0.9075 -0.1032
   65MOL0     H 8761   1.811   2.385   6.424  1.4463  0.1666 -0.3697
   65MOL0     H 8762   2.023   2.421   6.522  1.4697 -0.1430  1.9145
   65MOL0     H 8763   2.076   2.651   6.910 -1.4386 -2.0137 -0.3152
   65MOL0     H 8764   1.972   2.719   6.798 -1.6509 -1.2338  0.4315
   65MOL0     H 8765   2.200   2.836   6.783  4.8100 -0.1143  0.6576
   65MOL0     H 8766   2.133   2.767   6.642 -2.9092  0.8691  1.6200
   65MOL0     H 8767   2.293   2.575   6.666  0.9943  0.1568 -0.5504
   65MOL0     H 8768   2.325   2.606   6.832  0.5254 -1.5986 -0.1438
   65MOL0     H 8769   2.397   2.790   6.597 -0.8088  0.2267 -0.1124
   65MOL0     H 8770   2.443   2.818   6.769  0.3937 -1.7765  1.3637
   65MOL0     H 8771   2.727   2.514   6.722 -1.5812 -2.2806 -2.3378
   65MOL0     H 8772   1.849   2.475   6.900 -1.2761 -0.9119  1.1661
   65MOL0     H 8773   1.504   2.456   6.798  0.5300 -1.6155 -3.0238
   65MOL0     H 8774   1.547   2.301   6.854 -0.9970  0.3153 -0.7624
   65MOL0     H 8775   1.624   2.436   6.939  1.3668  1.1590 -0.6587
   66MOL0     O 8776   9.533   4.101   1.360 -0.0209  0.2241  1.1203
   66MOL0     C 8777   9.600   4.002   1.369 -0.4620  0.1338  0.0912
   66MOL0     O 8778   9.595   3.891   1.277 -0.2516 -0.2082 -0.1753
   66MOL0     C 8779   9.475   3.891   1.209 -0.3108  0.0512  0.1770
   66MOL0     C 8780   9.372   3.815   1.266  0.4142  0.1050  0.8170
   66MOL0     C 8781   9.257   3.793   1.190  0.2555  0.6155  0.8324
   66MOL0     C 8782   9.234   3.869   1.071  0.8586  0.0396 -0.4076
   66MOL0     O 8783   9.116   3.849   0.996  0.4037  0.5799 -0.5480
   66MOL0     C 8784   9.046   3.962   0.954  0.2326 -0.9027 -0.3460
   66MOL0     C 8785   8.898   3.924   0.949  0.6673 -0.2024  0.1753
   66MOL0     C 8786   8.821   4.057   0.924  0.4474 -0.5339  0.5991
   66MOL0     C 8787   8.664   4.050   0.923  0.4842  0.2248 -0.1973
   66MOL0     C 8788   8.605   4.194   0.920  0.4352  0.1577  0.7759
   66MOL0     C 8789   8.454   4.185   0.910  1.0876  0.1518 -0.1250
   66MOL0     C 8790   8.404   4.324   0.914  0.8859 -0.8506  0.5374
   66MOL0     C 8791   8.274   4.312   0.838  0.2789 -0.6595  0.1913
   66MOL0     N 8792   8.188   4.435   0.837 -0.1430  1.0193  0.3641
   66MOL0     C 8793   8.082   4.450   0.927  0.0802  0.3174  0.3225
   66MOL0     C 8794   8.022   4.573   0.898 -0.1459  0.0384 -0.1853
   66MOL0     C 8795   7.942   4.661   0.994 -0.5984 -0.0164  0.1353
   66MOL0     C 8796   7.791   4.661   0.979  0.5700 -0.2882 -0.6064
   66MOL0     C 8797   7.721   4.734   1.090 -0.5376 -0.7393 -0.2944
   66MOL0     C 8798   7.577   4.766   1.052  0.1662 -0.0421  0.2538
   66MOL0     O 8799   7.521   4.865   1.148 -0.1537 -0.0473  0.2608
   66MOL0     C 8800   7.384   4.870   1.169 -0.0675 -0.4560  0.8489
   66MOL0     C 8801   7.282   4.792   1.122  1.1740  0.4584  0.4246
   66MOL0     C 8802   7.141   4.827   1.131  0.2575  0.4274  0.1197
   66MOL0     C 8803   7.109   4.926   1.226  0.1460 -0.1646  0.2933
   66MOL0     C 8804   6.966   4.960   1.262  0.5011  0.3843 -0.0588
   66MOL0     O 8805   6.863   4.875   1.223  0.1012  0.4841 -0.4926
   66MOL0     C 8806   6.735   4.902   1.270 -0.5650 -0.1554  0.1184
   66MOL0     C 8807   6.718   4.922   1.407  0.6455 -0.0276  0.4183
   66MOL0     C 8808   6.592   4.977   1.456 -0.4467 -0.2347  0.2647
   66MOL0     C 8809   6.481   4.985   1.370  0.0928 -0.0792 -0.0099
   66MOL0     O 8810   6.350   5.017   1.411  0.6966  0.3794 -0.1008
   66MOL0     C 8811   6.317   5.049   1.548 -0.1235  1.7671 -0.2532
   66MOL0     C 8812   6.175   5.081   1.581  0.6303  0.6827 -0.6783
   66MOL0     C 8813   6.070   5.047   1.484  0.7261  0.0003  0.3000
   66MOL0     C 8814   5.928   5.099   1.506  0.1744 -0.0463 -0.2938
   66MOL0     C 8815   5.864   5.005   1.599  0.5018 -0.2445  0.6437
   66MOL0     C 8816   5.722   5.048   1.632 -0.4159  0.0443  0.6334
   66MOL0     C 8817   5.710   5.178   1.719  0.1255  0.0381 -0.0098
   66MOL0     C 8818   5.576   5.208   1.767  0.2879 -1.1967  0.6842
   66MOL0    Cl 8819   5.601   5.363   1.854  0.2678  0.0767  0.0937
   66MOL0     C 8820   6.495   4.940   1.237 -0.0747  0.4527  0.3616
   66MOL0     C 8821   6.624   4.909   1.175 -0.4949  0.1790 -1.0251
   66MOL0     O 8822   6.947   5.062   1.326 -0.2444  0.4379 -0.1288
   66MOL0     C 8823   7.218   4.998   1.278  0.7932  0.5201 -0.5754
   66MOL0     C 8824   7.348   4.975   1.248 -0.0797 -0.3768  0.2705
   66MOL0     N 8825   8.102   4.619   0.790  0.2472  0.1528 -0.5433
   66MOL0     N 8826   8.201   4.543   0.757  0.3249  0.6124  0.5909
   66MOL0     C 8827   9.339   3.950   1.028 -0.8423 -0.2109 -0.4134
   66MOL0     C 8828   9.463   3.956   1.093  0.2149  0.7390  1.0790
   66MOL0     C 8829   9.715   3.994   1.468 -0.2130 -0.0890  1.2437
   66MOL0     C 8830   9.729   4.104   1.553  0.3565 -0.0775  1.2166
   66MOL0     C 8831   9.830   4.118   1.648  0.1878 -0.0189 -0.3856
   66MOL0     C 8832   9.925   4.019   1.657  0.6221 -0.2399 -0.2800
   66MOL0     O 8833  10.033   4.040   1.739 -0.0632 -0.0664 -0.4094
   66MOL0     C 8834  10.129   3.928   1.757  0.7225  0.2556  0.6652
   66MOL0     C 8835  10.215   3.949   1.871 -0.5107 -0.5692 -0.4760
   66MOL0     C 8836  10.302   4.074   1.862 -0.7687 -0.3430 -0.6411
   66MOL0     C 8837  10.407   4.071   1.975  0.9165  1.0012  0.1441
   66MOL0     C 8838  10.464   4.193   2.028  0.6559 -0.0110 -0.2907
   66MOL0     C 8839  10.522   4.285   2.073  0.1723 -0.0395  0.0847
   66MOL0     C 8840   9.908   3.903   1.587  0.5319 -0.6105  0.0679
   66MOL0     C 8841   9.803   3.880   1.489 -0.0897 -0.3680  0.0997
   66MOL0     C 8842   9.798   3.745   1.425 -0.0289 -0.0449  0.6792
   66MOL0     H 8843   9.374   3.768   1.363 -3.9742  2.0561  2.0896
   66MOL0     H 8844   9.172   3.731   1.215 -0.4645  1.7638  1.3121
   66MOL0     H 8845   9.056   4.044   1.026 -1.0012 -0.1208 -1.0280
   66MOL0     H 8846   9.077   3.992   0.854 -3.0254 -1.7346 -1.7574
   66MOL0     H 8847   8.876   3.876   1.045 -2.6381  2.1972  0.7729
   66MOL0     H 8848   8.881   3.845   0.875  0.0977 -3.2433  3.2568
   66MOL0     H 8849   8.837   4.101   0.825 -2.2118  0.1087  0.3800
   66MOL0     H 8850   8.846   4.133   0.998 -1.0797 -1.4250  2.1128
   66MOL0     H 8851   8.634   3.988   0.838 -3.0053 -0.3659  1.3318
   66MOL0     H 8852   8.630   3.995   1.010  0.8680 -3.7564 -2.3285
   66MOL0     H 8853   8.636   4.246   1.011 -0.6385  1.0097  0.6766
   66MOL0     H 8854   8.643   4.250   0.833  1.9777 -0.2455  1.1734
   66MOL0     H 8855   8.437   4.113   0.830  0.4569 -2.6367  2.3229
   66MOL0     H 8856   8.406   4.130   0.992 -0.8722 -2.7572 -2.9952
   66MOL0     H 8857   8.468   4.387   0.853 -2.5979  0.4280 -2.0790
   66MOL0     H 8858   8.387   4.355   1.018  1.4707 -3.7149  1.5944
   66MOL0     H 8859   8.298   4.276   0.738 -0.1753  2.1732 -1.0393
   66MOL0     H 8860   8.218   4.232   0.888  2.6386 -2.3717  0.2519
   66MOL0     H 8861   8.078   4.391   1.018  0.6726  2.0228  1.5134
   66MOL0     H 8862   7.964   4.638   1.098  2.2719  0.9081 -0.1700
   66MOL0     H 8863   7.977   4.765   0.991 -0.8757  0.0650 -2.1993
   66MOL0     H 8864   7.772   4.706   0.881  0.3388 -0.5770 -0.6938
   66MOL0     H 8865   7.750   4.560   0.978 -0.6324  0.1751 -0.2664
   66MOL0     H 8866   7.772   4.826   1.117  1.0445 -2.0640  1.5625
   66MOL0     H 8867   7.721   4.674   1.182  2.2816  0.6719  0.7151
   66MOL0     H 8868   7.522   4.671   1.054 -1.4257  0.8257  2.5475
   66MOL0     H 8869   7.578   4.807   0.951 -3.1668  1.6486  0.7734
   66MOL0     H 8870   7.315   4.705   1.066  1.0911  1.1091 -0.6577
   66MOL0     H 8871   7.070   4.767   1.075  2.3761  0.5139 -2.8917
   66MOL0     H 8872   6.801   4.900   1.473  0.8829 -1.8267 -0.4152
   66MOL0     H 8873   6.592   5.016   1.557 -1.7088  0.0461  0.1703
   66MOL0     H 8874   6.336   4.957   1.604 -0.5517  0.7643 -1.7043
   66MOL0     H 8875   6.393   5.120   1.582 -0.7350  1.3070  2.2869
   66MOL0     H 8876   6.136   5.030   1.670 -1.0846 -1.1486 -2.3705
   66MOL0     H 8877   6.185   5.187   1.605  0.6459  0.6909 -0.7197
   66MOL0     H 8878   6.110   5.087   1.391  0.2570  2.1153  0.9377
   66MOL0     H 8879   6.072   4.938   1.475  2.7768  0.0569 -0.4475
   66MOL0     H 8880   5.889   5.115   1.405  1.0436  2.3647 -0.3075
   66MOL0     H 8881   5.941   5.190   1.565  1.4552 -2.2279  3.1187
   66MOL0     H 8882   5.914   4.993   1.695  0.6521 -1.5845  0.4178
   66MOL0     H 8883   5.868   4.905   1.555  4.6380  0.1108 -0.1734
   66MOL0     H 8884   5.672   5.063   1.536 -0.0748 -1.3719  0.2088
   66MOL0     H 8885   5.678   4.956   1.672 -1.7151 -0.1375 -1.0835
   66MOL0     H 8886   5.750   5.268   1.672 -1.0489  0.7797  0.3782
   66MOL0     H 8887   5.774   5.154   1.805 -0.1812 -2.6054 -0.4239
   66MOL0     H 8888   5.510   5.230   1.683  0.2388  1.3095  1.2953
   66MOL0     H 8889   5.531   5.130   1.829 -3.6368  1.8572  2.0436
   66MOL0     H 8890   6.409   4.945   1.171  0.4455  1.6204 -0.2529
   66MOL0     H 8891   6.637   4.890   1.069  0.9037 -0.9391 -0.6733
   66MOL0     H 8892   7.205   5.079   1.349  1.4140  2.0470 -2.1385
   66MOL0     H 8893   7.424   5.042   1.287  0.1709 -0.2161 -0.4616
   66MOL0     H 8894   9.316   4.012   0.942  4.1517  0.7267 -1.3409
   66MOL0     H 8895   9.533   4.030   1.056 -1.9042  1.6595 -1.4127
   66MOL0     H 8896   9.660   4.189   1.553  0.5831  0.1882 -1.3900
   66MOL0     H 8897   9.843   4.202   1.715 -2.0125 -0.9706  1.3849
   66MOL0     H 8898  10.189   3.907   1.668 -3.4058 -3.0026 -1.6536
   66MOL0     H 8899  10.072   3.839   1.783 -0.5671  0.5894 -0.8776
   66MOL0     H 8900  10.274   3.857   1.876  0.1614 -0.0967  0.7701
   66MOL0     H 8901  10.160   3.958   1.965 -0.6064  0.8558 -0.6410
   66MOL0     H 8902  10.252   4.171   1.859  2.9964  2.0536  3.2301
   66MOL0     H 8903  10.361   4.060   1.771  3.8108 -2.8316  2.2918
   66MOL0     H 8904  10.370   4.010   2.057  1.4959 -1.0406 -1.0508
   66MOL0     H 8905  10.484   4.002   1.942 -0.9932  0.0822 -2.8160
   66MOL0     H 8906  10.567   4.378   2.103  0.6489 -0.2915  0.1575
   66MOL0     H 8907   9.974   3.817   1.595  0.1409 -0.7284  3.0719
   66MOL0     H 8908   9.869   3.670   1.462 -0.5109 -1.0344 -0.3754
   66MOL0     H 8909   9.696   3.706   1.426 -0.7267  1.6635  2.3085
   66MOL0     H 8910   9.823   3.754   1.319 -0.8119  0.1318  0.5069
   67MOL0     O 8911   7.219   7.215   5.340 -0.6603  0.7190  1.0126
   67MOL0     C 8912   7.247   7.300   5.423  0.2382  0.3734 -0.0277
   67MOL0     O 8913   7.157   7.368   5.500 -0.8369  0.2753 -0.4279
   67MOL0     C 8914   7.016   7.371   5.469 -0.8066 -0.2515  0.5304
   67MOL0     C 8915   6.978   7.438   5.351  0.6853  0.8364 -0.1964
   67MOL0     C 8916   6.844   7.477   5.338 -0.5302 -0.2092 -1.0230
   67MOL0     C 8917   6.746   7.436   5.434 -0.1045  0.2836  0.0376
   67MOL0     O 8918   6.611   7.460   5.427  0.1027 -0.3609 -0.1124
   67MOL0     C 8919   6.565   7.567   5.335  0.2483  0.6243  0.3778
   67MOL0     C 8920   6.412   7.556   5.333  0.1485  0.2892 -0.5259
   67MOL0     C 8921   6.347   7.632   5.221  0.0002  0.2873 -0.4232
   67MOL0     C 8922   6.188   7.622   5.229 -0.6637  0.2440  0.5557
   67MOL0     C 8923   6.112   7.720   5.134  0.3644 -0.4617 -0.4434
   67MOL0     C 8924   6.155   7.867   5.134  0.0881 -0.9702  0.1391
   67MOL0     C 8925   6.158   7.949   5.268 -0.3809  0.0152  0.4151
   67MOL0     C 8926   6.226   8.084   5.252 -0.4413  0.2586 -0.2698
   67MOL0     N 8927   6.369   8.062   5.215 -0.0091 -0.6026 -0.5410
   67MOL0     C 8928   6.424   8.053   5.092 -0.1662  0.3362  0.5215
   67MOL0     C 8929   6.561   8.033   5.115 -0.1615  0.1866 -0.0686
   67MOL0     C 8930   6.663   7.980   5.019  0.0256 -0.0416  0.5981
   67MOL0     C 8931   6.647   7.830   5.002 -0.0620  0.3587 -0.2855
   67MOL0     C 8932   6.722   7.766   4.892  0.4766 -0.2483  0.1613
   67MOL0     C 8933   6.660   7.806   4.754 -0.0322  0.0249 -0.0732
   67MOL0     O 8934   6.705   7.718   4.643  0.0994 -0.2692 -0.3075
   67MOL0     C 8935   6.822   7.749   4.579  0.0891  0.6797 -0.2941
   67MOL0     C 8936   6.838   7.681   4.456 -0.4754  0.0299  0.5047
   67MOL0     C 8937   6.945   7.709   4.367 -0.1506 -0.8047 -0.5826
   67MOL0     C 8938   7.039   7.808   4.398 -1.0512  0.0037  0.3898
   67MOL0     C 8939   7.139   7.831   4.299  0.2650  1.1260  0.5069
   67MOL0     O 8940   7.136   7.749   4.185 -0.7079 -0.0144  0.1893
   67MOL0     C 8941   7.239   7.755   4.100  0.5029 -0.5065  0.3650
   67MOL0     C 8942   7.246   7.842   3.993  0.4542 -0.5811 -0.2269
   67MOL0     C 8943   7.351   7.841   3.909  0.3995 -0.0245 -0.3535
   67MOL0     C 8944   7.446   7.739   3.918  0.1150  0.5334  0.8229
   67MOL0     O 8945   7.544   7.744   3.823  0.9834  0.6654 -0.4182
   67MOL0     C 8946   7.650   7.644   3.831 -0.2125 -0.6961  0.4824
   67MOL0     C 8947   7.603   7.509   3.770  0.2910 -0.8356 -0.0937
   67MOL0     C 8948   7.577   7.516   3.614 -0.2241 -0.3236  0.0311
   67MOL0     C 8949   7.706   7.561   3.535  0.2328  0.2374  0.3289
   67MOL0     C 8950   7.676   7.542   3.381  0.5502  0.1538 -0.3034
   67MOL0     C 8951   7.788   7.611   3.304 -0.3032  0.2728  0.7696
   67MOL0     C 8952   7.751   7.627   3.159  0.0202 -0.7442 -0.0903
   67MOL0     C 8953   7.836   7.735   3.100 -0.5094  0.3140  0.2666
   67MOL0    Cl 8954   8.009   7.693   3.087  0.2839 -0.2208 -0.1849
   67MOL0     C 8955   7.436   7.642   4.019  0.4282 -0.1878 -0.8260
   67MOL0     C 8956   7.333   7.660   4.110 -0.5393 -0.1165 -0.7169
   67MOL0     O 8957   7.217   7.920   4.318 -0.4594 -0.3826 -0.3590
   67MOL0     C 8958   7.025   7.871   4.518 -0.1734 -0.4450  0.5009
   67MOL0     C 8959   6.925   7.835   4.611  0.7810 -1.2682  0.1568
   67MOL0     N 8960   6.583   8.044   5.253 -0.4907  0.0750  0.0043
   67MOL0     N 8961   6.471   8.051   5.311  0.0844  0.3247  0.3962
   67MOL0     C 8962   6.782   7.349   5.535 -0.8947 -0.2600 -0.3412
   67MOL0     C 8963   6.921   7.317   5.550 -0.1833  0.5296 -0.3521
   67MOL0     C 8964   7.392   7.305   5.448 -0.1248 -0.7673  0.1095
   67MOL0     C 8965   7.462   7.363   5.339 -0.7198  0.0896 -0.4731
   67MOL0     C 8966   7.605   7.400   5.351  2.1689 -0.7667 -0.6633
   67MOL0     C 8967   7.671   7.363   5.479  0.0493  0.6053  0.0084
   67MOL0     O 8968   7.798   7.420   5.489  0.3823 -0.8410 -0.0223
   67MOL0     C 8969   7.895   7.389   5.589 -0.9686 -0.2443 -0.3862
   67MOL0     C 8970   8.018   7.475   5.551 -0.4371  0.6850 -0.3984
   67MOL0     C 8971   8.104   7.403   5.446  1.0693  0.8344 -0.5736
   67MOL0     C 8972   8.202   7.315   5.524  0.1394  0.7540  0.2465
   67MOL0     C 8973   8.311   7.385   5.585 -0.0779 -0.2503  0.6517
   67MOL0     C 8974   8.382   7.467   5.641  0.0071 -1.0059  0.1795
   67MOL0     C 8975   7.599   7.300   5.583  0.1950  1.1266 -0.3456
   67MOL0     C 8976   7.462   7.283   5.570  0.0207  0.0058 -0.0683
   67MOL0     C 8977   7.384   7.204   5.673 -0.0815  0.0123 -0.0964
   67MOL0     H 8978   7.054   7.463   5.278 -0.4652 -1.2178 -2.2143
   67MOL0     H 8979   6.813   7.537   5.253  1.3130 -0.6221 -2.0447
   67MOL0     H 8980   6.609   7.659   5.376 -0.3555  1.8364 -1.5905
   67MOL0     H 8981   6.603   7.559   5.233  0.6358  3.8837  0.1762
   67MOL0     H 8982   6.377   7.591   5.430  0.2952  0.9447 -0.7034
   67MOL0     H 8983   6.382   7.451   5.331 -0.3281  0.4271 -0.7898
   67MOL0     H 8984   6.366   7.599   5.118 -0.4079  2.2206 -1.1654
   67MOL0     H 8985   6.376   7.737   5.225  0.5475  0.0900  1.9020
   67MOL0     H 8986   6.159   7.521   5.199  1.9203 -0.6172  0.7500
   67MOL0     H 8987   6.160   7.639   5.334  0.6365  1.4730  0.7360
   67MOL0     H 8988   6.128   7.695   5.029  1.2689  4.1016 -1.6219
   67MOL0     H 8989   6.003   7.719   5.141  0.4223  1.6251  2.1385
   67MOL0     H 8990   6.258   7.851   5.100  0.2025 -0.8252  0.4160
   67MOL0     H 8991   6.104   7.919   5.052  1.8721  0.2101 -0.2914
   67MOL0     H 8992   6.216   7.893   5.342  2.4114  2.5123  0.3216
   67MOL0     H 8993   6.054   7.959   5.301 -0.6774  3.0137 -1.0751
   67MOL0     H 8994   6.170   8.147   5.182  1.0508  3.7698  1.4242
   67MOL0     H 8995   6.221   8.139   5.347  0.2727 -0.6020  0.2905
   67MOL0     H 8996   6.373   8.041   4.997 -0.5073  0.4902  0.6851
   67MOL0     H 8997   6.673   8.027   4.920  1.1045 -2.2739 -0.4331
   67MOL0     H 8998   6.761   8.008   5.057  0.6769  2.9594 -2.6869
   67MOL0     H 8999   6.673   7.775   5.093  3.5715 -0.2829 -1.5633
   67MOL0     H 9000   6.538   7.817   4.998 -0.2796  1.8219  0.2115
   67MOL0     H 9001   6.734   7.658   4.903 -0.5809 -0.2837  1.1137
   67MOL0     H 9002   6.825   7.803   4.897  1.0604 -1.6840 -0.6153
   67MOL0     H 9003   6.681   7.908   4.719 -3.5820  0.2069 -2.1134
   67MOL0     H 9004   6.551   7.801   4.756 -0.0287 -0.3157 -0.4818
   67MOL0     H 9005   6.773   7.601   4.422  0.3594 -0.3878 -0.1512
   67MOL0     H 9006   6.946   7.651   4.275  1.7474  0.2647 -1.2866
   67MOL0     H 9007   7.183   7.930   4.000 -0.5650 -1.3409  0.5517
   67MOL0     H 9008   7.347   7.909   3.825  1.4203 -3.2186 -3.1980
   67MOL0     H 9009   7.738   7.682   3.778  0.5125 -0.4597  1.8158
   67MOL0     H 9010   7.671   7.638   3.938  1.4920 -1.1258  0.1539
   67MOL0     H 9011   7.680   7.435   3.790  2.6375  1.6025  0.4798
   67MOL0     H 9012   7.513   7.472   3.820 -3.2303 -0.5893 -5.3663
   67MOL0     H 9013   7.541   7.424   3.568  0.6475 -0.3372 -0.6576
   67MOL0     H 9014   7.507   7.598   3.596  0.0943 -0.2494 -0.8974
   67MOL0     H 9015   7.794   7.503   3.562  1.8006  1.2049 -2.3434
   67MOL0     H 9016   7.713   7.667   3.559  2.3547  0.4880 -1.1225
   67MOL0     H 9017   7.584   7.593   3.349  0.7213 -1.5902 -4.0985
   67MOL0     H 9018   7.666   7.438   3.350 -1.0053  1.0799 -3.4100
   67MOL0     H 9019   7.816   7.706   3.352 -0.0014  0.4284  0.2906
   67MOL0     H 9020   7.879   7.550   3.301 -1.3116 -1.2296 -0.3662
   67MOL0     H 9021   7.647   7.662   3.152 -0.5407 -1.9212  1.6155
   67MOL0     H 9022   7.762   7.535   3.101 -1.1022 -0.6036 -0.5645
   67MOL0     H 9023   7.807   7.750   2.996  2.7803  5.0953 -0.2627
   67MOL0     H 9024   7.835   7.831   3.152  0.0517  2.3098 -3.1391
   67MOL0     H 9025   7.507   7.562   4.038 -0.3602 -0.9733 -1.1186
   67MOL0     H 9026   7.319   7.586   4.188 -1.1882 -1.2902 -1.9150
   67MOL0     H 9027   7.097   7.946   4.549 -2.2764  1.2175  1.6415
   67MOL0     H 9028   6.916   7.879   4.709  1.5745 -1.2914  0.2480
   67MOL0     H 9029   6.705   7.318   5.606 -2.8086 -1.8507 -2.9309
   67MOL0     H 9030   6.949   7.264   5.641 -0.6273  0.6839 -0.1240
   67MOL0     H 9031   7.411   7.394   5.248 -2.3898  1.9549  0.9855
   67MOL0     H 9032   7.660   7.441   5.268  1.7386  1.9663  0.3110
   67MOL0     H 9033   7.910   7.281   5.592  2.2846 -0.1218  6.2767
   67MOL0     H 9034   7.854   7.421   5.685  2.3499  0.8719  0.7973
   67MOL0     H 9035   8.073   7.501   5.642  0.0684 -0.4947 -0.3485
   67MOL0     H 9036   7.985   7.571   5.509 -2.4672 -0.0258 -0.4979
   67MOL0     H 9037   8.155   7.475   5.381 -3.2677  1.4925 -3.7332
   67MOL0     H 9038   8.043   7.344   5.378  2.3467 -1.1518 -0.0617
   67MOL0     H 9039   8.152   7.256   5.601 -1.6209  0.7569 -0.8459
   67MOL0     H 9040   8.237   7.244   5.448 -4.4437 -0.9937 -0.5392
   67MOL0     H 9041   8.442   7.537   5.696 -0.8648 -1.8362  2.2872
   67MOL0     H 9042   7.640   7.274   5.680 -0.7953 -0.4611 -0.3156
   67MOL0     H 9043   7.416   7.220   5.777 -2.8225 -0.4881  0.9130
   67MOL0     H 9044   7.277   7.219   5.657  0.0618  0.9502 -0.2700
   67MOL0     H 9045   7.396   7.098   5.652 -0.8563 -0.2817  0.8765
   68MOL0     O 9046   2.022   7.492   9.419  0.8722 -0.2257  0.9548
   68MOL0     C 9047   2.101   7.478   9.322  0.1903  0.4565 -0.5284
   68MOL0     O 9048   2.235   7.489   9.327 -0.5237  0.9196 -1.2719
   68MOL0     C 9049   2.314   7.526   9.441  0.3552 -0.5744  0.1475
   68MOL0     C 9050   2.314   7.650   9.501 -0.2588 -0.5342  0.7286
   68MOL0     C 9051   2.395   7.671   9.621  0.0301 -0.7476  0.5789
   68MOL0     C 9052   2.461   7.562   9.679  0.1669 -0.3235 -0.2467
   68MOL0     O 9053   2.535   7.571   9.793 -0.1202 -0.2226 -0.0755
   68MOL0     C 9054   2.493   7.481   9.899 -0.1809 -0.2435  0.9238
   68MOL0     C 9055   2.612   7.401   9.952  0.2679 -0.5057  0.3482
   68MOL0     C 9056   2.572   7.290  10.048  0.0132 -0.8336  0.3447
   68MOL0     C 9057   2.492   7.326  10.170  0.6925  0.0449 -0.3667
   68MOL0     C 9058   2.474   7.197  10.259  0.8870  0.1714 -1.0297
   68MOL0     C 9059   2.574   7.198  10.374  0.2716 -0.0589  0.2065
   68MOL0     C 9060   2.545   7.075  10.470 -0.3494 -0.5038 -0.1013
   68MOL0     C 9061   2.505   6.942  10.405 -0.1378  0.5985 -0.2544
   68MOL0     N 9062   2.612   6.882  10.327 -0.0400  0.1227  1.0211
   68MOL0     C 9063   2.728   6.830  10.384  0.2722 -0.3419  0.7565
   68MOL0     C 9064   2.816   6.807  10.285 -0.2329 -0.6875  0.2842
   68MOL0     C 9065   2.944   6.734  10.298 -0.5459 -0.8170  0.0639
   68MOL0     C 9066   2.945   6.605  10.224  0.4128 -0.6202 -0.7515
   68MOL0     C 9067   2.841   6.509  10.287  0.8688 -0.5763  0.6166
   68MOL0     C 9068   2.845   6.376  10.210 -0.4010  0.3400 -0.3318
   68MOL0     O 9069   2.756   6.285  10.284 -0.3877 -0.8449 -0.4268
   68MOL0     C 9070   2.731   6.154  10.252 -0.3022 -0.0284  0.3841
   68MOL0     C 9071   2.659   6.083  10.349 -0.1576 -0.6506  0.9106
   68MOL0     C 9072   2.628   5.953  10.321  0.4847  0.6661  0.6419
   68MOL0     C 9073   2.678   5.891  10.202  0.2247 -0.5967  0.1480
   68MOL0     C 9074   2.660   5.756  10.170 -0.6434  0.8341  0.1143
   68MOL0     O 9075   2.722   5.703  10.061  0.0416 -0.3013  0.4184
   68MOL0     C 9076   2.712   5.569  10.046 -0.3652  0.3684 -0.7271
   68MOL0     C 9077   2.608   5.510   9.979  0.5704  0.2156  0.4116
   68MOL0     C 9078   2.599   5.372   9.970  0.2492 -0.3851  0.0751
   68MOL0     C 9079   2.675   5.288  10.049  0.0582  0.0049  0.3267
   68MOL0     O 9080   2.645   5.155  10.058 -0.0039 -0.3510  0.2756
   68MOL0     C 9081   2.743   5.062  10.103 -0.6222  0.0769 -0.1996
   68MOL0     C 9082   2.704   4.935  10.037  0.0163  0.0354  0.1382
   68MOL0     C 9083   2.776   4.810  10.096  0.0091  0.0090 -0.4416
   68MOL0     C 9084   2.924   4.822  10.106 -0.4605  0.6187 -0.2414
   68MOL0     C 9085   2.975   4.693  10.180 -0.1656 -0.6678  0.9777
   68MOL0     C 9086   2.978   4.563  10.090  0.2049 -0.2543 -0.3180
   68MOL0     C 9087   3.089   4.528   9.993 -0.0349  0.1156  0.2946
   68MOL0     C 9088   3.069   4.390   9.923 -0.6120  0.3067  0.7050
   68MOL0    Cl 9089   3.211   4.357   9.814  0.3144 -0.2299  0.0592
   68MOL0     C 9090   2.776   5.352  10.119  0.7973  0.7504  0.2610
   68MOL0     C 9091   2.805   5.490  10.113 -0.1552 -0.5809 -0.1478
   68MOL0     O 9092   2.604   5.690  10.256 -0.2246  0.1108  0.4617
   68MOL0     C 9093   2.738   5.972  10.101 -0.0678  0.5786 -0.0073
   68MOL0     C 9094   2.759   6.106  10.131  0.4672 -0.0608  0.4762
   68MOL0     N 9095   2.752   6.831  10.163 -0.2491 -1.1312 -0.3157
   68MOL0     N 9096   2.633   6.879  10.187  0.6995  0.8064 -1.0004
   68MOL0     C 9097   2.462   7.437   9.621 -0.5714  0.6516  0.6123
   68MOL0     C 9098   2.385   7.418   9.501 -0.7935 -0.2659 -0.7026
   68MOL0     C 9099   2.050   7.396   9.206 -0.0358  0.1523  0.2478
   68MOL0     C 9100   2.139   7.295   9.157  1.4630 -0.2934 -0.1766
   68MOL0     C 9101   2.093   7.214   9.050 -1.0286 -0.1417  0.6485
   68MOL0     C 9102   1.964   7.221   9.003 -0.0685 -1.7719 -0.6561
   68MOL0     O 9103   1.927   7.150   8.898  1.0406  0.8877 -0.2757
   68MOL0     C 9104   1.793   7.084   8.888  0.4321 -0.9786  0.3488
   68MOL0     C 9105   1.799   6.937   8.836  0.6671 -0.9718  0.3314
   68MOL0     C 9106   1.895   6.861   8.922 -0.7713  0.7334  0.0440
   68MOL0     C 9107   1.901   6.716   8.902  0.8382  1.1504  1.1287
   68MOL0     C 9108   1.771   6.650   8.920 -0.1624 -1.1065 -0.4530
   68MOL0     C 9109   1.664   6.600   8.928  0.0613  0.3301  0.2985
   68MOL0     C 9110   1.875   7.327   9.052 -0.2605  0.0744  0.2502
   68MOL0     C 9111   1.923   7.418   9.143  0.8851 -0.7913 -0.6339
   68MOL0     C 9112   1.846   7.545   9.185 -0.0023  0.8722 -0.6793
   68MOL0     H 9113   2.247   7.726   9.463 -1.0686 -1.6885 -0.2610
   68MOL0     H 9114   2.397   7.776   9.647 -3.0793 -0.7911  1.3868
   68MOL0     H 9115   2.459   7.541   9.983 -4.0737 -1.9294  0.7810
   68MOL0     H 9116   2.408   7.419   9.868 -0.1893  0.7966 -1.3636
   68MOL0     H 9117   2.684   7.472   9.992 -1.2250  1.3426 -0.0908
   68MOL0     H 9118   2.651   7.349   9.864  0.8180 -0.3911  0.5257
   68MOL0     H 9119   2.665   7.248  10.088  0.9755 -0.8905 -1.8396
   68MOL0     H 9120   2.519   7.211   9.995 -3.1616  1.0664  0.4377
   68MOL0     H 9121   2.525   7.418  10.221 -2.0134  1.9337 -1.7961
   68MOL0     H 9122   2.389   7.340  10.137 -0.5471 -1.8711  2.3521
   68MOL0     H 9123   2.375   7.197  10.306  2.0343 -5.2098  2.3148
   68MOL0     H 9124   2.478   7.102  10.205 -0.2243 -3.6479  4.6790
   68MOL0     H 9125   2.678   7.186  10.345 -0.3354  0.0186 -2.1632
   68MOL0     H 9126   2.564   7.291  10.432 -0.0564 -0.6083  1.0458
   68MOL0     H 9127   2.466   7.108  10.537 -1.0471  0.6829 -1.4347
   68MOL0     H 9128   2.638   7.055  10.524 -2.0772  0.2491  3.4468
   68MOL0     H 9129   2.469   6.877  10.485 -2.8774 -0.9640 -2.5442
   68MOL0     H 9130   2.420   6.950  10.337 -0.3738 -2.4871 -0.4389
   68MOL0     H 9131   2.746   6.811  10.489 -2.5292 -0.1120  1.3647
   68MOL0     H 9132   3.025   6.797  10.261 -1.6132  1.9166  2.0576
   68MOL0     H 9133   2.969   6.717  10.403 -1.6578 -0.6824  0.3603
   68MOL0     H 9134   2.931   6.614  10.116  1.9893 -1.5805 -1.0576
   68MOL0     H 9135   3.049   6.573  10.232  0.5935 -0.2308 -1.4169
   68MOL0     H 9136   2.742   6.543  10.256  1.2926 -2.7401 -3.9128
   68MOL0     H 9137   2.856   6.492  10.394  4.4762  0.6571  0.4186
   68MOL0     H 9138   2.946   6.337  10.196 -1.1516 -1.3375 -1.3259
   68MOL0     H 9139   2.810   6.400  10.109  0.3689  2.0292 -0.2182
   68MOL0     H 9140   2.646   6.127  10.448 -0.2227  0.9721  0.2125
   68MOL0     H 9141   2.568   5.896  10.392  1.4614 -0.2208  0.7847
   68MOL0     H 9142   2.534   5.565   9.922  0.7274  0.7154  0.6779
   68MOL0     H 9143   2.529   5.330   9.899  1.4711 -3.0035  0.3236
   68MOL0     H 9144   2.837   5.108  10.071 -0.4493  0.9118  1.3889
   68MOL0     H 9145   2.728   5.054  10.211  2.3161  0.0684  0.2753
   68MOL0     H 9146   2.600   4.904  10.042  0.1753 -0.3935  1.1431
   68MOL0     H 9147   2.738   4.949   9.934  0.7960  0.4336  0.4402
   68MOL0     H 9148   2.730   4.804  10.195  1.1123  0.1697  0.0930
   68MOL0     H 9149   2.747   4.726  10.031  0.0706 -0.2585 -0.1243
   68MOL0     H 9150   2.940   4.908  10.172  0.0602 -0.0874  0.5653
   68MOL0     H 9151   2.986   4.840  10.017  0.5719 -1.0781  0.0828
   68MOL0     H 9152   2.926   4.671  10.275  0.8747 -1.9012  1.2631
   68MOL0     H 9153   3.081   4.703  10.204  0.2069 -2.5517  0.2861
   68MOL0     H 9154   2.988   4.483  10.164  1.0583  0.9004  0.8826
   68MOL0     H 9155   2.880   4.553  10.043  0.3557  0.1922 -0.7368
   68MOL0     H 9156   3.183   4.528  10.049  0.4838  3.7514 -0.3342
   68MOL0     H 9157   3.082   4.607   9.918  0.7172  1.3991  1.5195
   68MOL0     H 9158   3.068   4.303   9.990  1.6453  0.1815  0.6584
   68MOL0     H 9159   2.979   4.395   9.860 -0.7572 -0.1949  0.8658
   68MOL0     H 9160   2.835   5.305  10.197 -0.7750 -0.7485  0.5899
   68MOL0     H 9161   2.885   5.533  10.172  1.0057 -2.6658 -0.1272
   68MOL0     H 9162   2.762   5.932  10.003  4.5376  3.6793 -0.4528
   68MOL0     H 9163   2.805   6.170  10.055 -0.5414 -1.6595 -1.5826
   68MOL0     H 9164   2.524   7.354   9.653  1.1595  1.9038  0.6441
   68MOL0     H 9165   2.375   7.328   9.441 -0.0780 -0.5504 -0.4035
   68MOL0     H 9166   2.241   7.281   9.191  0.4414 -1.9200  2.5411
   68MOL0     H 9167   2.164   7.144   9.009  2.1193  3.0315  0.2270
   68MOL0     H 9168   1.728   7.130   8.813  0.7460 -1.2148 -0.0781
   68MOL0     H 9169   1.751   7.082   8.989  0.7579  3.3353  0.7191
   68MOL0     H 9170   1.837   6.942   8.733 -0.0986  1.5829  0.0944
   68MOL0     H 9171   1.696   6.898   8.838 -1.3132  3.5903  1.3956
   68MOL0     H 9172   1.857   6.867   9.025  0.0317  1.3045  0.3224
   68MOL0     H 9173   1.997   6.900   8.915  0.3391 -1.9353  0.1882
   68MOL0     H 9174   1.918   6.698   8.795 -0.6901  2.2010  0.6720
   68MOL0     H 9175   1.976   6.672   8.968  0.4268  0.0619  0.8963
   68MOL0     H 9176   1.567   6.557   8.937  1.4064 -3.0594  0.0896
   68MOL0     H 9177   1.775   7.335   9.010 -1.2232 -3.1474  1.6284
   68MOL0     H 9178   1.761   7.571   9.121 -0.6701 -0.3399 -0.3397
   68MOL0     H 9179   1.802   7.526   9.284 -1.0674 -0.0048 -1.2966
   68MOL0     H 9180   1.926   7.619   9.188  2.7772 -1.9206 -0.1868
   69MOL0     O 9181   4.678  10.393   8.866  0.9339  0.5164 -0.7112
   69MOL0     C 9182   4.689  10.391   8.986 -0.3894 -0.1776 -0.6669
   69MOL0     O 9183   4.623  10.303   9.078  0.7893 -0.6522  0.6630
   69MOL0     C 9184   4.519  10.214   9.032  0.3996  0.1295  0.4377
   69MOL0     C 9185   4.478  10.185   8.898  0.4653  0.6511 -0.1056
   69MOL0     C 9186   4.374  10.098   8.881 -0.6066  0.1576  0.2598
   69MOL0     C 9187   4.315  10.023   8.982 -0.0679 -0.5866 -0.2953
   69MOL0     O 9188   4.219   9.928   8.936  0.4313 -0.1762 -0.2414
   69MOL0     C 9189   4.097   9.936   9.015 -1.0001 -0.5539  0.8729
   69MOL0     C 9190   3.984   9.852   8.957  0.3625  0.1016 -0.0763
   69MOL0     C 9191   4.026   9.701   8.981 -1.3486  0.3496  0.7967
   69MOL0     C 9192   3.926   9.589   8.989 -0.1735  0.1027  0.0959
   69MOL0     C 9193   3.865   9.550   8.852 -0.8125 -0.1422  0.0493
   69MOL0     C 9194   3.774   9.421   8.869  0.2689  0.0135  0.3418
   69MOL0     C 9195   3.731   9.355   8.737 -0.3849 -0.1405 -0.2971
   69MOL0     C 9196   3.672   9.220   8.745  0.4868  0.4084  0.6429
   69MOL0     N 9197   3.773   9.113   8.737 -0.0309 -0.1262  0.6273
   69MOL0     C 9198   3.760   9.012   8.647  1.1313 -0.7007  0.0721
   69MOL0     C 9199   3.873   8.936   8.668  0.0496  0.1573  0.6821
   69MOL0     C 9200   3.889   8.789   8.629  1.2644 -0.2648 -0.1185
   69MOL0     C 9201   3.795   8.738   8.518  0.5367  0.3811 -0.1562
   69MOL0     C 9202   3.828   8.796   8.381  0.2083 -0.1384 -0.6787
   69MOL0     C 9203   3.804   8.690   8.261 -0.3513 -1.0403 -0.4577
   69MOL0     O 9204   3.924   8.614   8.266 -0.4447 -0.0537  0.0400
   69MOL0     C 9205   3.909   8.487   8.215 -0.4213 -0.5171  0.0434
   69MOL0     C 9206   3.978   8.383   8.273 -0.1872 -0.0215  0.2866
   69MOL0     C 9207   3.983   8.255   8.224 -0.1652  0.2170 -0.8334
   69MOL0     C 9208   3.914   8.224   8.109  0.4855 -0.1047  0.0856
   69MOL0     C 9209   3.904   8.085   8.070 -0.2201  0.6130  0.6441
   69MOL0     O 9210   3.855   8.068   7.943  0.0571  0.1357 -0.3260
   69MOL0     C 9211   3.852   7.944   7.888  0.3332 -0.0138 -0.7904
   69MOL0     C 9212   3.720   7.918   7.838 -1.2399  0.7407 -0.9217
   69MOL0     C 9213   3.697   7.794   7.774 -0.0368  0.6663 -0.4031
   69MOL0     C 9214   3.802   7.705   7.753 -1.0236  0.1119 -1.1481
   69MOL0     O 9215   3.792   7.596   7.670  0.5232 -0.4173  0.2984
   69MOL0     C 9216   3.791   7.472   7.740  0.3171  0.0350 -0.8791
   69MOL0     C 9217   3.654   7.442   7.814 -0.0932  0.0431  0.4189
   69MOL0     C 9218   3.539   7.435   7.713  0.6665 -0.0571 -0.0484
   69MOL0     C 9219   3.411   7.381   7.781  0.5840 -0.5040 -1.1515
   69MOL0     C 9220   3.311   7.343   7.672  0.9481 -0.8113 -0.1420
   69MOL0     C 9221   3.207   7.235   7.717 -0.2989  0.1654 -0.4071
   69MOL0     C 9222   3.254   7.096   7.731 -0.2172  0.2298  0.2628
   69MOL0     C 9223   3.349   7.047   7.626  0.1201 -0.4194  0.0831
   69MOL0    Cl 9224   3.400   6.875   7.666  0.1411  0.0785  0.2649
   69MOL0     C 9225   3.925   7.736   7.815 -0.2752  0.7202  1.2198
   69MOL0     C 9226   3.950   7.844   7.887  1.4286  0.4184  0.8153
   69MOL0     O 9227   3.934   7.995   8.147 -0.6030 -0.2993  0.0048
   69MOL0     C 9228   3.850   8.328   8.037  0.5785 -0.5253  0.2309
   69MOL0     C 9229   3.840   8.462   8.094 -0.0052 -1.0891  0.6347
   69MOL0     N 9230   3.956   9.005   8.755 -0.2666  0.1766  0.3600
   69MOL0     N 9231   3.898   9.110   8.790 -0.9559  0.1326  0.4824
   69MOL0     C 9232   4.356  10.044   9.110 -0.4311 -0.6468 -0.5398
   69MOL0     C 9233   4.459  10.137   9.136  0.2588  0.2403  0.2233
   69MOL0     C 9234   4.764  10.503   9.045 -1.2490 -0.1961  0.5964
   69MOL0     C 9235   4.769  10.501   9.185  0.0003 -0.3564  0.3285
   69MOL0     C 9236   4.847  10.599   9.252  1.2380  0.5891  0.6682
   69MOL0     C 9237   4.915  10.698   9.187 -0.4305  0.0052  0.8682
   69MOL0     O 9238   4.981  10.787   9.272  0.4793  0.0062 -0.5004
   69MOL0     C 9239   4.997  10.921   9.239 -0.7984  0.7053 -0.4636
   69MOL0     C 9240   5.118  10.982   9.306  0.1301  0.4904 -0.1819
   69MOL0     C 9241   5.131  11.130   9.290 -0.8881 -0.8190 -0.1485
   69MOL0     C 9242   5.100  11.168   9.141  0.1075 -0.0633 -0.0102
   69MOL0     C 9243   5.149  11.304   9.113 -0.2834 -0.1281 -0.0167
   69MOL0     C 9244   5.181  11.412   9.085  0.5970 -0.2878 -0.7429
   69MOL0     C 9245   4.910  10.702   9.046 -1.2981  0.0528 -0.1588
   69MOL0     C 9246   4.837  10.606   8.970 -0.9452 -0.9082  0.4316
   69MOL0     C 9247   4.836  10.620   8.820 -0.8013 -0.2389  0.1288
   69MOL0     H 9248   4.517  10.231   8.808 -0.1161  2.6154  0.5884
   69MOL0     H 9249   4.349  10.076   8.777  1.7172 -2.4684  0.1473
   69MOL0     H 9250   4.120   9.910   9.118  0.2262 -1.5228  0.3868
   69MOL0     H 9251   4.062  10.039   9.020 -0.7038 -0.3036 -1.0816
   69MOL0     H 9252   3.966   9.876   8.852 -2.6053  3.5698  1.0264
   69MOL0     H 9253   3.898   9.885   9.016 -0.6069  2.1767 -2.4725
   69MOL0     H 9254   4.083   9.702   9.075 -1.2013 -1.2465  0.7370
   69MOL0     H 9255   4.099   9.681   8.903 -1.8931 -0.8764  0.5817
   69MOL0     H 9256   3.965   9.491   9.014  0.6423  0.1411 -0.9602
   69MOL0     H 9257   3.857   9.630   9.064  1.7439  0.9284  1.4782
   69MOL0     H 9258   3.810   9.637   8.815  0.1435  0.2338 -0.5364
   69MOL0     H 9259   3.953   9.536   8.789  1.2131  2.7567  2.0097
   69MOL0     H 9260   3.830   9.351   8.932 -0.2927 -0.8863 -0.1317
   69MOL0     H 9261   3.686   9.452   8.927  0.3067 -1.2690  1.1184
   69MOL0     H 9262   3.828   9.348   8.687 -1.1126 -0.3159 -1.7301
   69MOL0     H 9263   3.661   9.419   8.683 -1.0018  0.5730  1.2807
   69MOL0     H 9264   3.608   9.214   8.833  0.8141 -1.5443  0.7928
   69MOL0     H 9265   3.606   9.201   8.660  2.5631 -1.0110 -0.7462
   69MOL0     H 9266   3.669   8.996   8.590 -0.3878  2.1226  1.5018
   69MOL0     H 9267   3.992   8.767   8.599  2.2993  2.8672  0.7511
   69MOL0     H 9268   3.866   8.728   8.717  1.5434  0.0578  0.1809
   69MOL0     H 9269   3.824   8.632   8.510 -2.3911 -0.6290  1.3087
   69MOL0     H 9270   3.690   8.742   8.546  1.1431  0.2630  2.3933
   69MOL0     H 9271   3.929   8.836   8.387 -0.0432  0.2327  3.1219
   69MOL0     H 9272   3.762   8.882   8.369  1.9547  1.5904  1.3690
   69MOL0     H 9273   3.798   8.740   8.164  1.3809  0.8841  0.3621
   69MOL0     H 9274   3.720   8.624   8.284  0.2180 -1.5189  0.3122
   69MOL0     H 9275   4.026   8.398   8.369  1.9388  0.3244 -0.7802
   69MOL0     H 9276   4.020   8.170   8.281 -1.6455 -0.5168 -0.9227
   69MOL0     H 9277   3.665   8.008   7.863  0.9894  1.1820  3.1286
   69MOL0     H 9278   3.606   7.753   7.733 -0.3548 -0.9200  1.7120
   69MOL0     H 9279   3.820   7.401   7.662  1.7177  0.3046 -0.6434
   69MOL0     H 9280   3.876   7.467   7.809 -0.4010 -1.4547 -0.0548
   69MOL0     H 9281   3.662   7.351   7.874 -4.9299 -0.1668  1.2133
   69MOL0     H 9282   3.631   7.523   7.883 -2.5300 -0.2643  0.0701
   69MOL0     H 9283   3.518   7.526   7.657  1.8199  1.2700  1.5660
   69MOL0     H 9284   3.582   7.362   7.645  0.6373 -0.0327 -0.0930
   69MOL0     H 9285   3.368   7.459   7.844  0.1890 -0.6081 -1.2914
   69MOL0     H 9286   3.437   7.293   7.841  0.2322 -0.7155 -1.3067
   69MOL0     H 9287   3.354   7.318   7.574 -0.7832 -2.6303 -0.4990
   69MOL0     H 9288   3.261   7.435   7.642 -0.2471 -1.8139 -1.3840
   69MOL0     H 9289   3.167   7.279   7.809 -0.7466  1.8786 -1.3749
   69MOL0     H 9290   3.123   7.240   7.648 -2.5575 -1.6262  2.0067
   69MOL0     H 9291   3.167   7.030   7.734 -0.7096  0.8923  0.8251
   69MOL0     H 9292   3.302   7.084   7.829  0.7821 -0.1841 -0.2635
   69MOL0     H 9293   3.319   7.059   7.522  0.1112 -0.7237  0.0510
   69MOL0     H 9294   3.430   7.120   7.637 -1.1546  0.7229  3.2371
   69MOL0     H 9295   3.997   7.655   7.805 -2.6407 -1.4525  0.6359
   69MOL0     H 9296   4.051   7.865   7.922  2.1366 -1.5240  0.0750
   69MOL0     H 9297   3.819   8.309   7.935 -0.3933  3.1095 -0.2671
   69MOL0     H 9298   3.794   8.537   8.031 -0.6562 -1.0260  1.1635
   69MOL0     H 9299   4.310   9.988   9.191  2.6982 -0.5953  1.3969
   69MOL0     H 9300   4.490  10.149   9.239  1.5156 -1.4195  0.0812
   69MOL0     H 9301   4.721  10.432   9.253  1.9312 -3.2193 -0.9607
   69MOL0     H 9302   4.864  10.599   9.360 -0.3770 -0.5158  0.9644
   69MOL0     H 9303   4.906  10.972   9.272 -0.8846 -0.6428  1.5849
   69MOL0     H 9304   5.022  10.924   9.133  0.0529  2.2532 -0.2349
   69MOL0     H 9305   5.216  10.939   9.282 -0.5800  0.8886 -4.5684
   69MOL0     H 9306   5.102  10.975   9.414 -0.7411 -1.0269 -0.3785
   69MOL0     H 9307   5.230  11.165   9.322 -1.1944 -0.9585  0.9989
   69MOL0     H 9308   5.059  11.187   9.350  0.3697  0.8819 -0.1706
   69MOL0     H 9309   5.158  11.096   9.083  1.5963  3.2061 -2.9212
   69MOL0     H 9310   4.992  11.165   9.124  0.4929 -0.3880 -2.9343
   69MOL0     H 9311   5.234  11.502   9.063  0.9530 -0.3714 -0.2541
   69MOL0     H 9312   4.960  10.774   8.984 -1.1075 -1.2032 -1.5230
   69MOL0     H 9313   4.737  10.609   8.775  0.3565 -3.8548 -2.0038
   69MOL0     H 9314   4.890  10.707   8.782  2.6126 -2.8073 -1.4408
   69MOL0     H 9315   4.896  10.541   8.775  2.0731  1.4139  0.8227
   70MOL0     O 9316   0.057   0.616   3.257  0.7524 -0.0839  1.1572
   70MOL0     C 9317   0.073   0.646   3.378 -0.2686  0.1070  0.0559
   70MOL0     O 9318   0.047   0.553   3.476 -0.4278 -0.8121 -0.7867
   70MOL0     C 9319   0.019   0.423   3.454 -0.1404  0.7177 -0.7103
   70MOL0     C 9320  -0.074   0.360   3.533  1.0438  0.1621  0.4271
   70MOL0     C 9321  -0.094   0.226   3.530  0.6389 -0.2644 -0.8309
   70MOL0     C 9322  -0.039   0.151   3.423  0.1095 -0.0843  0.2348
   70MOL0     O 9323  -0.072   0.019   3.429  0.6581  0.1248 -0.8717
   70MOL0     C 9324  -0.051  -0.072   3.325 -0.8200  0.3461 -0.0754
   70MOL0     C 9325  -0.057  -0.216   3.369 -0.4277  0.2821  0.2176
   70MOL0     C 9326  -0.194  -0.257   3.414  0.1326  0.3092 -0.5026
   70MOL0     C 9327  -0.170  -0.377   3.505  0.3986 -0.0197  0.3022
   70MOL0     C 9328  -0.296  -0.443   3.557 -0.2882  0.1275  0.1908
   70MOL0     C 9329  -0.383  -0.333   3.626  0.0190  0.2123 -0.4269
   70MOL0     C 9330  -0.317  -0.285   3.754  0.5518 -1.2966 -0.5653
   70MOL0     C 9331  -0.410  -0.199   3.834 -0.6048  0.0335 -0.4200
   70MOL0     N 9332  -0.447  -0.066   3.778 -0.0673 -0.9627  0.0208
   70MOL0     C 9333  -0.568  -0.020   3.797  0.4361  0.3658 -0.1946
   70MOL0     C 9334  -0.569   0.112   3.751 -0.4209  0.0308 -0.1247
   70MOL0     C 9335  -0.681   0.209   3.755 -0.8879 -0.8017  0.4740
   70MOL0     C 9336  -0.807   0.161   3.687  0.6377  0.0321 -0.5688
   70MOL0     C 9337  -0.791   0.159   3.536  0.0104  0.3805  0.7324
   70MOL0     C 9338  -0.897   0.068   3.465 -0.1114 -0.5020  0.2844
   70MOL0     O 9339  -0.888  -0.071   3.503 -0.2602  0.3532  0.1748
   70MOL0     C 9340  -0.956  -0.173   3.432  0.4083 -0.0739  0.3460
   70MOL0     C 9341  -0.928  -0.310   3.455 -0.7041 -0.5874  0.4269
   70MOL0     C 9342  -1.010  -0.412   3.396  0.7154 -0.2749 -0.9796
   70MOL0     C 9343  -1.115  -0.380   3.315  0.0292 -0.2215  0.5886
   70MOL0     C 9344  -1.211  -0.480   3.262  0.1806  0.3839 -0.5609
   70MOL0     O 9345  -1.195  -0.610   3.309 -0.2923 -0.4286 -0.1102
   70MOL0     C 9346  -1.251  -0.715   3.236 -0.6709 -0.4279 -0.7258
   70MOL0     C 9347  -1.161  -0.797   3.163  0.1515  0.7032  0.5022
   70MOL0     C 9348  -1.214  -0.898   3.074  0.4462 -0.5781 -0.9879
   70MOL0     C 9349  -1.347  -0.911   3.065  0.3203  0.0979 -0.2074
   70MOL0     O 9350  -1.399  -0.991   2.968  0.1850  0.5304 -1.0995
   70MOL0     C 9351  -1.542  -0.983   2.940 -0.8666  0.9789  0.3523
   70MOL0     C 9352  -1.590  -1.090   2.833  0.2253 -0.1882  0.3004
   70MOL0     C 9353  -1.583  -1.224   2.898 -0.1198  0.5510 -0.1345
   70MOL0     C 9354  -1.439  -1.281   2.904  0.7775 -0.1706 -0.4260
   70MOL0     C 9355  -1.457  -1.428   2.929  0.3341 -0.6257 -0.3899
   70MOL0     C 9356  -1.316  -1.503   2.925 -0.3758 -0.4142 -0.7070
   70MOL0     C 9357  -1.313  -1.648   2.965 -1.3770 -0.4627 -0.2863
   70MOL0     C 9358  -1.367  -1.735   2.848 -0.6500 -0.6560 -0.1220
   70MOL0    Cl 9359  -1.379  -1.902   2.875 -0.3738 -0.1216 -0.3344
   70MOL0     C 9360  -1.436  -0.829   3.139 -0.3867  0.8409 -0.2175
   70MOL0     C 9361  -1.381  -0.736   3.229 -0.1845  0.6479 -0.2435
   70MOL0     O 9362  -1.288  -0.445   3.172  1.0937 -0.2127  0.7719
   70MOL0     C 9363  -1.125  -0.250   3.274  0.1519 -0.2235  0.7176
   70MOL0     C 9364  -1.056  -0.144   3.338 -1.4283  0.1729 -0.0984
   70MOL0     N 9365  -0.439   0.149   3.711  0.5359  0.6476 -0.9279
   70MOL0     N 9366  -0.374   0.034   3.717 -0.1525 -0.3828  0.4141
   70MOL0     C 9367   0.049   0.211   3.327 -0.1590 -0.1438  0.0206
   70MOL0     C 9368   0.078   0.348   3.355  0.5424 -0.8871  1.2418
   70MOL0     C 9369   0.138   0.781   3.407 -0.0118  0.3322  0.0826
   70MOL0     C 9370   0.130   0.824   3.539  0.0376  0.1512  0.8025
   70MOL0     C 9371   0.165   0.954   3.586  0.5664 -0.3701  0.0474
   70MOL0     C 9372   0.219   1.044   3.493  0.2570 -0.1382 -0.3897
   70MOL0     O 9373   0.282   1.162   3.526 -0.1782 -0.5430  0.0450
   70MOL0     C 9374   0.240   1.226   3.640 -0.1821  0.5816 -0.3188
   70MOL0     C 9375   0.291   1.375   3.654 -0.7561  0.1705 -0.0313
   70MOL0     C 9376   0.232   1.416   3.790 -0.3948 -0.2004  0.3684
   70MOL0     C 9377   0.298   1.528   3.854  0.1230 -0.4628 -0.0529
   70MOL0     C 9378   0.322   1.650   3.773  0.4299  0.8789 -0.5612
   70MOL0     C 9379   0.345   1.751   3.714 -0.8851  1.0198 -0.4933
   70MOL0     C 9380   0.238   0.988   3.356  0.7333 -0.5638  0.8178
   70MOL0     C 9381   0.199   0.864   3.317  0.9285 -0.2632  0.2142
   70MOL0     C 9382   0.231   0.836   3.174 -0.3609  0.8869  0.5931
   70MOL0     H 9383  -0.115   0.409   3.621  2.8803  1.0456  0.8307
   70MOL0     H 9384  -0.159   0.179   3.603  1.7441 -0.4296  0.0682
   70MOL0     H 9385  -0.130  -0.053   3.251 -2.5225  2.2650  2.0938
   70MOL0     H 9386   0.051  -0.064   3.288 -1.2476 -0.8922 -1.6511
   70MOL0     H 9387   0.017  -0.232   3.448 -0.3233 -1.6064 -0.2271
   70MOL0     H 9388  -0.018  -0.285   3.294  1.4271  0.5394  0.8849
   70MOL0     H 9389  -0.271  -0.272   3.338  1.3351 -2.5334 -1.3039
   70MOL0     H 9390  -0.236  -0.181   3.480 -1.0478  1.2968 -2.2967
   70MOL0     H 9391  -0.117  -0.456   3.450  0.9442  0.0729  0.6852
   70MOL0     H 9392  -0.109  -0.353   3.592  0.9000 -1.1028  0.2646
   70MOL0     H 9393  -0.367  -0.481   3.483 -3.7645  1.8411  2.3686
   70MOL0     H 9394  -0.259  -0.526   3.617  1.4753  0.9201  0.2688
   70MOL0     H 9395  -0.412  -0.250   3.561 -0.2526  2.1067  1.9659
   70MOL0     H 9396  -0.473  -0.387   3.655  0.3472  0.1138  0.4622
   70MOL0     H 9397  -0.221  -0.235   3.740 -0.3804  0.7357 -0.1779
   70MOL0     H 9398  -0.281  -0.376   3.802  0.9017 -0.3726  0.9731
   70MOL0     H 9399  -0.496  -0.265   3.851  1.0871 -2.0073  0.8287
   70MOL0     H 9400  -0.348  -0.173   3.920 -0.0927 -0.1699 -0.7231
   70MOL0     H 9401  -0.655  -0.074   3.834  0.2997  0.9467  0.3443
   70MOL0     H 9402  -0.709   0.235   3.857  0.2250  3.9312 -0.1977
   70MOL0     H 9403  -0.651   0.305   3.712 -2.4685 -0.2181  0.6181
   70MOL0     H 9404  -0.844   0.065   3.725 -0.6245  1.7607  2.9513
   70MOL0     H 9405  -0.886   0.235   3.703 -1.6529 -1.1941 -4.6369
   70MOL0     H 9406  -0.693   0.124   3.500 -1.0793  0.9522 -3.2221
   70MOL0     H 9407  -0.788   0.257   3.487  0.3733 -0.9655 -2.1335
   70MOL0     H 9408  -0.870   0.069   3.359  0.7594 -2.7131  0.4280
   70MOL0     H 9409  -0.992   0.110   3.499  1.0435  1.9110  0.8098
   70MOL0     H 9410  -0.852  -0.328   3.530  1.0872  2.5420 -0.4632
   70MOL0     H 9411  -1.002  -0.512   3.437 -0.2509  0.7438  1.8850
   70MOL0     H 9412  -1.054  -0.781   3.161  0.0980  0.9910 -0.9021
   70MOL0     H 9413  -1.150  -0.958   3.010 -1.8961 -2.7324 -1.4833
   70MOL0     H 9414  -1.605  -1.006   3.026 -3.0927 -0.7702 -1.5953
   70MOL0     H 9415  -1.563  -0.880   2.910  1.0243  1.0935 -0.7264
   70MOL0     H 9416  -1.692  -1.064   2.804  0.2917 -1.0575 -0.7541
   70MOL0     H 9417  -1.516  -1.086   2.753 -1.6625  0.8374 -1.4920
   70MOL0     H 9418  -1.642  -1.227   2.990 -0.1030  1.9794 -0.0530
   70MOL0     H 9419  -1.626  -1.290   2.823  0.6658  0.3412 -0.4167
   70MOL0     H 9420  -1.380  -1.228   2.979 -0.6616  0.5057  0.2705
   70MOL0     H 9421  -1.399  -1.274   2.802  0.8436  2.7174 -0.2855
   70MOL0     H 9422  -1.511  -1.466   2.842 -2.0893  2.1970 -0.2649
   70MOL0     H 9423  -1.518  -1.453   3.017  1.5907  0.9346  1.0076
   70MOL0     H 9424  -1.264  -1.479   2.832 -0.7125 -1.1958 -1.1011
   70MOL0     H 9425  -1.260  -1.450   3.002  0.4188 -1.2977 -0.6565
   70MOL0     H 9426  -1.362  -1.666   3.061 -3.0958  0.5750 -0.9032
   70MOL0     H 9427  -1.215  -1.685   2.996 -2.4716 -1.0333  2.8410
   70MOL0     H 9428  -1.468  -1.696   2.836  0.3761  1.8470 -1.2032
   70MOL0     H 9429  -1.308  -1.718   2.757  0.7861 -0.5596  0.8034
   70MOL0     H 9430  -1.544  -0.829   3.141 -0.4472  0.6972  3.2711
   70MOL0     H 9431  -1.441  -0.664   3.284 -0.5612 -0.5718  0.9752
   70MOL0     H 9432  -1.193  -0.214   3.196  1.7930 -0.6067 -0.9557
   70MOL0     H 9433  -1.079  -0.044   3.303 -2.1233 -0.5491 -1.7857
   70MOL0     H 9434   0.084   0.157   3.239 -3.0216  0.0951 -1.3840
   70MOL0     H 9435   0.152   0.395   3.291 -1.1683  1.0817  0.5995
   70MOL0     H 9436   0.068   0.762   3.604  2.5381 -1.3225  1.9534
   70MOL0     H 9437   0.138   0.975   3.689  1.5261 -0.0492  0.2470
   70MOL0     H 9438   0.277   1.173   3.727  2.9307 -1.0914 -2.4858
   70MOL0     H 9439   0.132   1.244   3.650 -0.0470  0.7269  1.1279
   70MOL0     H 9440   0.257   1.439   3.572  0.3775 -1.6033 -2.0072
   70MOL0     H 9441   0.400   1.371   3.655 -0.7503 -2.6014 -0.9558
   70MOL0     H 9442   0.248   1.334   3.860  0.1023 -0.8088 -0.4461
   70MOL0     H 9443   0.127   1.445   3.779  0.3825  3.4000  1.1191
   70MOL0     H 9444   0.259   1.566   3.949 -2.7355  0.4792 -1.5084
   70MOL0     H 9445   0.397   1.493   3.884  2.6902  2.2232 -4.3620
   70MOL0     H 9446   0.372   1.845   3.670 -2.3706 -0.3659 -4.8992
   70MOL0     H 9447   0.286   1.066   3.298 -1.8835  3.1458  3.1817
   70MOL0     H 9448   0.141   0.848   3.112 -2.2673  0.1590  3.0599
   70MOL0     H 9449   0.314   0.897   3.137  0.3270 -0.3873 -0.0359
   70MOL0     H 9450   0.273   0.736   3.157 -0.4968  0.5845  1.9273
   71MOL0     O 9451   7.623   5.954   5.862  0.2375  0.5636 -0.7086
   71MOL0     C 9452   7.720   5.972   5.800  0.0190  0.7152 -0.9573
   71MOL0     O 9453   7.734   5.932   5.676 -0.1312 -0.0496  1.0404
   71MOL0     C 9454   7.670   5.817   5.635 -0.6029 -1.0222  0.1027
   71MOL0     C 9455   7.731   5.702   5.594 -0.2620  0.0075  1.1745
   71MOL0     C 9456   7.655   5.592   5.543 -0.7349 -0.0817 -0.3971
   71MOL0     C 9457   7.518   5.600   5.531 -0.2135 -0.2959 -0.8301
   71MOL0     O 9458   7.451   5.493   5.487 -0.4604 -0.1985  0.2791
   71MOL0     C 9459   7.362   5.518   5.375 -0.3015  0.0605 -0.5929
   71MOL0     C 9460   7.356   5.384   5.303  1.0092 -0.0363 -0.2479
   71MOL0     C 9461   7.438   5.383   5.176 -0.4003  0.1281 -0.3875
   71MOL0     C 9462   7.592   5.378   5.197  1.6723  0.5270 -0.5973
   71MOL0     C 9463   7.659   5.410   5.061 -1.3759  0.0740  0.2456
   71MOL0     C 9464   7.639   5.550   5.001 -0.1481  0.1523  0.7957
   71MOL0     C 9465   7.728   5.556   4.871  0.0080  0.5234  1.1260
   71MOL0     C 9466   7.745   5.691   4.816 -0.8765 -0.8938  0.4420
   71MOL0     N 9467   7.839   5.780   4.880  0.5864 -0.1004 -0.0214
   71MOL0     C 9468   7.970   5.778   4.877  0.1952 -0.4393  0.4575
   71MOL0     C 9469   8.004   5.897   4.937  0.0874 -0.3222 -0.3369
   71MOL0     C 9470   8.132   5.962   4.945 -0.5008 -1.1255 -0.3171
   71MOL0     C 9471   8.141   6.077   4.836  0.5592 -0.4772 -0.0747
   71MOL0     C 9472   8.258   6.164   4.859 -0.2268  0.7266  0.0070
   71MOL0     C 9473   8.397   6.085   4.858 -0.4134 -0.4478 -0.6530
   71MOL0     O 9474   8.500   6.178   4.902 -0.1943 -0.2203  0.7310
   71MOL0     C 9475   8.572   6.160   5.014 -1.6477 -0.0147  0.4496
   71MOL0     C 9476   8.537   6.086   5.129 -0.2861 -0.3563 -0.2520
   71MOL0     C 9477   8.630   6.069   5.237 -0.3613 -0.6442  0.1453
   71MOL0     C 9478   8.761   6.124   5.224  0.1438 -0.2977  0.3027
   71MOL0     C 9479   8.860   6.120   5.326  1.3920  0.1140 -0.2638
   71MOL0     O 9480   8.811   6.062   5.444 -0.3181 -0.0671  0.0020
   71MOL0     C 9481   8.889   6.013   5.547 -0.0728 -0.1971  0.6108
   71MOL0     C 9482   9.030   5.996   5.550  0.2980 -0.5947 -0.2831
   71MOL0     C 9483   9.098   5.950   5.657  0.6608  0.7703 -0.5007
   71MOL0     C 9484   9.027   5.916   5.776 -0.2156 -0.3673 -0.9023
   71MOL0     O 9485   9.094   5.858   5.875  0.1298  0.1457  0.2304
   71MOL0     C 9486   9.078   5.929   6.006 -0.3119 -0.9793 -0.4248
   71MOL0     C 9487   9.169   5.863   6.105 -0.1324 -0.4180  0.5668
   71MOL0     C 9488   9.134   5.718   6.130 -0.5271 -0.7185 -0.3225
   71MOL0     C 9489   9.204   5.654   6.253 -0.8574 -0.1114 -0.9368
   71MOL0     C 9490   9.358   5.631   6.230  0.2734  0.7297 -0.4364
   71MOL0     C 9491   9.434   5.577   6.346  0.0378 -0.5571 -0.1342
   71MOL0     C 9492   9.586   5.565   6.306  0.5242  0.6551 -1.0117
   71MOL0     C 9493   9.660   5.548   6.437  0.1365 -0.2928  0.4011
   71MOL0    Cl 9494   9.641   5.700   6.536  0.1196  0.0370 -0.5063
   71MOL0     C 9495   8.889   5.928   5.780 -0.5470 -0.6221  0.1519
   71MOL0     C 9496   8.817   5.968   5.659 -0.3706  0.5139 -0.4733
   71MOL0     O 9497   8.972   6.166   5.304  0.6550 -0.5350 -0.5339
   71MOL0     C 9498   8.789   6.199   5.108 -0.0870  0.2725  0.1156
   71MOL0     C 9499   8.699   6.225   5.004 -0.3805  0.9733  0.1674
   71MOL0     N 9500   7.893   5.970   4.966  0.5662  0.4834 -0.9096
   71MOL0     N 9501   7.791   5.899   4.929 -0.2784 -0.1272  0.1702
   71MOL0     C 9502   7.452   5.723   5.560 -0.9760  0.3192 -0.2601
   71MOL0     C 9503   7.533   5.831   5.612  0.3643  0.5751 -0.1254
   71MOL0     C 9504   7.822   6.058   5.850 -0.5235 -0.8119 -0.2408
   71MOL0     C 9505   7.774   6.169   5.931 -0.6471 -0.8710  0.2663
   71MOL0     C 9506   7.865   6.259   5.987  0.5622  0.0205  0.0621
   71MOL0     C 9507   7.999   6.245   5.974  0.4302  0.6596 -0.4643
   71MOL0     O 9508   8.090   6.324   6.023 -0.0268  0.0153 -0.0282
   71MOL0     C 9509   8.069   6.454   6.075 -0.5396 -0.3625 -0.7798
   71MOL0     C 9510   8.196   6.544   6.080 -0.3041  0.2934 -0.5562
   71MOL0     C 9511   8.169   6.679   6.146 -0.4308  0.2818 -1.3271
   71MOL0     C 9512   8.269   6.794   6.117 -0.1783  0.6772  0.0852
   71MOL0     C 9513   8.401   6.764   6.172  0.5772 -0.7270  0.1909
   71MOL0     C 9514   8.507   6.743   6.223  1.3013  0.2635 -0.2358
   71MOL0     C 9515   8.048   6.132   5.909 -1.0809 -0.5273 -0.4194
   71MOL0     C 9516   7.967   6.044   5.844 -0.0376 -0.3478  0.9066
   71MOL0     C 9517   8.037   5.923   5.780 -0.0786 -0.5037  0.1062
   71MOL0     H 9518   7.838   5.695   5.605  0.0041  0.3923 -0.8926
   71MOL0     H 9519   7.697   5.492   5.532  2.0546  0.9961 -0.4387
   71MOL0     H 9520   7.264   5.554   5.409 -0.2746 -1.1271  0.8888
   71MOL0     H 9521   7.413   5.594   5.315  1.6706 -1.1581 -0.5476
   71MOL0     H 9522   7.252   5.360   5.281  0.3148 -0.3241  2.9914
   71MOL0     H 9523   7.382   5.302   5.371 -1.1858 -2.8421 -2.5555
   71MOL0     H 9524   7.411   5.475   5.122  2.1919  0.6222 -0.9548
   71MOL0     H 9525   7.420   5.302   5.104  0.6539 -0.0612 -0.4451
   71MOL0     H 9526   7.620   5.449   5.275  1.7537 -0.1774  0.0275
   71MOL0     H 9527   7.624   5.277   5.224 -1.5983 -0.0988  1.5805
   71MOL0     H 9528   7.762   5.383   5.083 -1.7657 -0.0414  2.1569
   71MOL0     H 9529   7.628   5.334   4.989 -1.5660 -1.1167  1.5304
   71MOL0     H 9530   7.533   5.567   4.981 -1.4919 -3.1087  4.0397
   71MOL0     H 9531   7.673   5.607   5.088  0.4076  2.8932 -1.0952
   71MOL0     H 9532   7.689   5.488   4.795  2.7006 -0.7059  0.7137
   71MOL0     H 9533   7.827   5.524   4.904  0.1325 -0.0460  0.2277
   71MOL0     H 9534   7.783   5.666   4.716 -0.6448  0.7738  0.0746
   71MOL0     H 9535   7.646   5.737   4.818  0.2868  2.0162 -1.1194
   71MOL0     H 9536   8.041   5.704   4.841  1.8542  0.3545  1.9207
   71MOL0     H 9537   8.135   6.016   5.040 -1.2684 -0.8633 -0.4401
   71MOL0     H 9538   8.207   5.882   4.952 -1.9018 -2.3387  3.0896
   71MOL0     H 9539   8.150   6.044   4.732  1.4232  2.7366 -1.1212
   71MOL0     H 9540   8.045   6.129   4.841  0.1843 -1.0839 -0.7661
   71MOL0     H 9541   8.227   6.206   4.955 -0.4634 -2.1060  1.2777
   71MOL0     H 9542   8.261   6.250   4.791  0.4720  2.2317  1.8559
   71MOL0     H 9543   8.407   6.058   4.753 -3.1601  1.0252 -1.4020
   71MOL0     H 9544   8.398   5.997   4.924 -2.2062 -0.8394 -1.0825
   71MOL0     H 9545   8.435   6.048   5.133 -0.1968 -0.5743 -0.0079
   71MOL0     H 9546   8.611   6.022   5.332 -0.9444 -0.2248  0.2353
   71MOL0     H 9547   9.093   6.033   5.470 -0.3593  1.3228  0.0375
   71MOL0     H 9548   9.206   5.945   5.663  0.5417 -1.2129  2.0804
   71MOL0     H 9549   9.108   6.034   5.999  1.8872 -1.1520  3.4246
   71MOL0     H 9550   8.975   5.919   6.040  0.0972  0.6888  1.4900
   71MOL0     H 9551   9.272   5.862   6.068 -1.0339 -2.2869 -2.2546
   71MOL0     H 9552   9.156   5.932   6.189 -0.5566  3.2849 -2.2567
   71MOL0     H 9553   9.027   5.726   6.149 -0.3646  1.0271 -0.0366
   71MOL0     H 9554   9.150   5.654   6.043  1.0635  0.1335 -0.6953
   71MOL0     H 9555   9.160   5.558   6.281  1.8016 -0.3645  3.0791
   71MOL0     H 9556   9.203   5.728   6.334 -0.5415 -0.6171 -0.4714
   71MOL0     H 9557   9.398   5.730   6.204  0.9904 -0.2257 -3.3350
   71MOL0     H 9558   9.381   5.572   6.141 -1.6404  2.3936 -2.1539
   71MOL0     H 9559   9.417   5.636   6.437 -0.7711 -0.3311 -0.4188
   71MOL0     H 9560   9.384   5.481   6.362 -4.7804  1.3208 -2.0882
   71MOL0     H 9561   9.614   5.660   6.261 -2.5650  2.5215  0.6907
   71MOL0     H 9562   9.616   5.492   6.229 -0.1867 -1.5318  0.6766
   71MOL0     H 9563   9.612   5.463   6.486 -0.9792 -0.0594 -0.2480
   71MOL0     H 9564   9.766   5.534   6.417 -0.6683 -5.0608 -1.9374
   71MOL0     H 9565   8.830   5.886   5.860 -0.8360 -1.8519 -0.6749
   71MOL0     H 9566   8.709   5.962   5.664 -0.3514  0.9033  1.7394
   71MOL0     H 9567   8.885   6.249   5.100 -1.2597  2.3517 -3.6072
   71MOL0     H 9568   8.727   6.282   4.916  1.5207 -1.5115 -0.9618
   71MOL0     H 9569   7.344   5.721   5.551 -1.3577 -0.5710  3.0871
   71MOL0     H 9570   7.482   5.919   5.650  0.6598  1.8659 -2.5162
   71MOL0     H 9571   7.667   6.187   5.942 -1.2493 -2.1113 -2.5160
   71MOL0     H 9572   7.823   6.342   6.043  1.0151 -2.1101  3.8483
   71MOL0     H 9573   8.027   6.448   6.176 -2.2858 -2.2766 -1.5585
   71MOL0     H 9574   7.985   6.503   6.025  0.8659  0.5158 -2.3769
   71MOL0     H 9575   8.236   6.565   5.980 -1.2478 -0.3034 -1.0746
   71MOL0     H 9576   8.269   6.491   6.142 -0.1194  3.6337  2.3986
   71MOL0     H 9577   8.169   6.667   6.254 -0.9547 -2.2148 -1.5427
   71MOL0     H 9578   8.073   6.721   6.115 -0.3036  1.7816  0.1621
   71MOL0     H 9579   8.286   6.802   6.009 -1.8686 -3.2169 -0.6411
   71MOL0     H 9580   8.223   6.886   6.154 -0.2909  0.8672 -0.5068
   71MOL0     H 9581   8.601   6.709   6.261  1.6994 -0.2499 -1.6392
   71MOL0     H 9582   8.154   6.117   5.891 -1.2595 -1.4749 -0.7643
   71MOL0     H 9583   8.098   5.949   5.693  2.3218  1.6472  2.2442
   71MOL0     H 9584   8.099   5.871   5.853  1.1353 -0.1039 -0.6094
   71MOL0     H 9585   7.971   5.842   5.746 -0.2079 -0.2917 -0.1559
   72MOL0     O 9586   4.826   4.715  10.417  0.0402 -0.2552 -0.2163
   72MOL0     C 9587   4.854   4.803  10.500  0.4564  0.2049 -0.2755
   72MOL0     O 9588   4.819   4.797  10.631 -0.1022  0.0788  0.7895
   72MOL0     C 9589   4.689   4.782  10.660  0.0875  0.3257 -0.3692
   72MOL0     C 9590   4.585   4.834  10.575  0.8146 -0.6191 -1.5506
   72MOL0     C 9591   4.452   4.829  10.612 -0.0262  0.5843  0.8868
   72MOL0     C 9592   4.429   4.774  10.736 -0.0307  0.4372 -0.1531
   72MOL0     O 9593   4.297   4.766  10.776 -0.1083 -0.1481  0.1051
   72MOL0     C 9594   4.252   4.647  10.843  0.1926 -0.7822 -0.4782
   72MOL0     C 9595   4.103   4.648  10.866 -0.3569  0.5581  0.0107
   72MOL0     C 9596   4.043   4.711  10.986  0.6739 -0.7348 -0.6492
   72MOL0     C 9597   4.088   4.863  11.000 -0.4929  0.1764  0.0970
   72MOL0     C 9598   4.021   4.916  11.123  0.3791  1.4151 -0.2867
   72MOL0     C 9599   4.077   5.056  11.164  0.7487  0.7065 -0.4955
   72MOL0     C 9600   4.042   5.152  11.062  0.7470 -0.6036 -0.1438
   72MOL0     C 9601   4.039   5.297  11.100  0.6769 -0.2974 -0.1827
   72MOL0     N 9602   4.162   5.347  11.156 -0.5627 -0.2417  0.0458
   72MOL0     C 9603   4.218   5.324  11.281 -0.9897  0.6091 -0.3166
   72MOL0     C 9604   4.336   5.394  11.282  0.5495 -0.5228  0.7143
   72MOL0     C 9605   4.444   5.385  11.379 -0.5050 -0.3285 -0.0026
   72MOL0     C 9606   4.422   5.460  11.503  0.5168 -0.4851 -0.7316
   72MOL0     C 9607   4.439   5.616  11.482 -0.1849 -0.9282  0.1042
   72MOL0     C 9608   4.346   5.707  11.571 -0.5575 -0.1689 -0.0204
   72MOL0     O 9609   4.399   5.774  11.684  0.3158 -0.3951  0.1847
   72MOL0     C 9610   4.439   5.679  11.776  0.2771  0.1358  0.7682
   72MOL0     C 9611   4.574   5.631  11.791 -0.0698 -0.2020  0.1309
   72MOL0     C 9612   4.613   5.564  11.906 -0.1642 -0.3682  0.7503
   72MOL0     C 9613   4.518   5.541  12.011  0.3162  0.5553  0.1466
   72MOL0     C 9614   4.550   5.452  12.125  0.1740 -1.1922 -0.5834
   72MOL0     O 9615   4.465   5.467  12.227 -0.6992  0.3492 -0.4805
   72MOL0     C 9616   4.489   5.401  12.346  0.0329 -0.1867  0.1559
   72MOL0     C 9617   4.582   5.296  12.380 -0.6474  0.9270 -0.5979
   72MOL0     C 9618   4.596   5.242  12.512  0.3713 -0.4733 -0.4567
   72MOL0     C 9619   4.517   5.293  12.618  0.6216 -0.5044  0.6456
   72MOL0     O 9620   4.510   5.251  12.751 -0.7291  0.2785 -0.2162
   72MOL0     C 9621   4.637   5.206  12.805 -0.2669  0.0225 -1.0027
   72MOL0     C 9622   4.592   5.140  12.941  0.0084 -0.8313  0.3755
   72MOL0     C 9623   4.716   5.094  13.019  0.7037 -0.0580 -0.6948
   72MOL0     C 9624   4.696   5.014  13.147  0.5799  0.2729 -0.3731
   72MOL0     C 9625   4.831   4.968  13.212  0.1396  0.5269 -0.2222
   72MOL0     C 9626   4.908   5.091  13.281 -0.6950  0.3509  0.7172
   72MOL0     C 9627   5.027   5.058  13.357  0.4649  0.7114  0.2998
   72MOL0     C 9628   5.143   5.006  13.281  0.0369 -0.5156  0.1958
   72MOL0    Cl 9629   5.296   5.035  13.365  0.5072 -0.7486 -0.1146
   72MOL0     C 9630   4.428   5.396  12.582 -0.5044 -0.3184  0.5177
   72MOL0     C 9631   4.410   5.442  12.452  0.1237  0.4507 -0.1454
   72MOL0     O 9632   4.650   5.380  12.124 -0.2673  0.0736  0.4791
   72MOL0     C 9633   4.390   5.593  11.994 -0.3578  0.2849  0.1053
   72MOL0     C 9634   4.359   5.668  11.887  0.9734  0.2374 -0.3152
   72MOL0     N 9635   4.346   5.461  11.159  0.7704 -0.0741 -0.1058
   72MOL0     N 9636   4.257   5.411  11.079  1.0188  0.0895  0.6981
   72MOL0     C 9637   4.519   4.739  10.833 -0.6450  0.4949  0.4365
   72MOL0     C 9638   4.656   4.751  10.790 -0.1081 -0.4901  0.0898
   72MOL0     C 9639   4.936   4.913  10.458  0.1682  0.6430 -1.1426
   72MOL0     C 9640   4.929   5.026  10.541 -0.8933  0.2269  0.4830
   72MOL0     C 9641   5.021   5.132  10.525  1.1274  0.2449 -0.4475
   72MOL0     C 9642   5.107   5.134  10.424 -0.7088  0.3415 -0.3724
   72MOL0     O 9643   5.182   5.255  10.413  0.2970 -0.0492  0.2723
   72MOL0     C 9644   5.321   5.240  10.416 -0.5975 -0.1235 -0.0973
   72MOL0     C 9645   5.384   5.187  10.540 -0.1163  0.3116 -1.4296
   72MOL0     C 9646   5.533   5.173  10.513  0.5995  0.1993 -0.2119
   72MOL0     C 9647   5.602   5.094  10.626 -0.0638  0.4660 -0.3150
   72MOL0     C 9648   5.750   5.116  10.643 -0.2342 -0.3223  0.9391
   72MOL0     C 9649   5.865   5.155  10.683  0.3155  0.4927  0.8601
   72MOL0     C 9650   5.117   5.022  10.332  0.2303 -0.6026 -0.3373
   72MOL0     C 9651   5.030   4.918  10.355 -1.4217 -0.2952 -0.1248
   72MOL0     C 9652   5.052   4.808  10.259 -0.4379  0.5073  0.4241
   72MOL0     H 9653   4.603   4.881  10.479  0.0994 -1.5859 -2.1674
   72MOL0     H 9654   4.368   4.851  10.546 -0.5941  1.0338  1.7443
   72MOL0     H 9655   4.293   4.571  10.775 -0.6288  0.5727 -2.5793
   72MOL0     H 9656   4.281   4.655  10.948 -0.3952  3.0307 -0.4644
   72MOL0     H 9657   4.090   4.539  10.871  1.5319  0.3471  2.3065
   72MOL0     H 9658   4.055   4.677  10.772 -0.8462 -2.0978 -0.6447
   72MOL0     H 9659   4.079   4.648  11.068  2.6033  1.1926  0.0661
   72MOL0     H 9660   3.934   4.698  10.982  0.6754 -1.5740  0.9755
   72MOL0     H 9661   4.195   4.884  11.011 -0.2334 -0.0547 -1.7025
   72MOL0     H 9662   4.045   4.917  10.915 -3.9485 -0.6694  1.1328
   72MOL0     H 9663   3.913   4.928  11.115  0.1291 -0.2544  0.1911
   72MOL0     H 9664   4.030   4.854  11.213  2.3165  1.0150 -0.7003
   72MOL0     H 9665   4.043   5.090  11.262 -0.3790  2.0441 -1.3098
   72MOL0     H 9666   4.186   5.052  11.162  0.9760  4.3994 -1.1560
   72MOL0     H 9667   3.943   5.130  11.020  1.0038 -0.5700 -0.7839
   72MOL0     H 9668   4.114   5.147  10.980 -2.0627 -7.1627 -2.8444
   72MOL0     H 9669   4.021   5.354  11.008  4.5017 -1.8812 -2.1313
   72MOL0     H 9670   3.953   5.320  11.164  0.5710 -1.3871  0.0698
   72MOL0     H 9671   4.182   5.256  11.357 -0.1742  1.3915  0.8022
   72MOL0     H 9672   4.465   5.285  11.418 -1.7838 -0.2789  0.8662
   72MOL0     H 9673   4.536   5.424  11.334  0.3280  0.5409  2.3161
   72MOL0     H 9674   4.331   5.437  11.559  1.5524  0.9584  1.7489
   72MOL0     H 9675   4.493   5.429  11.581 -1.1979  1.3929  1.7353
   72MOL0     H 9676   4.424   5.638  11.376  0.9030 -0.9637 -0.0678
   72MOL0     H 9677   4.539   5.654  11.508 -1.5518  0.7806  3.5312
   72MOL0     H 9678   4.258   5.652  11.605 -0.1097 -1.1525 -0.4361
   72MOL0     H 9679   4.311   5.790  11.507  0.5217 -0.5294 -1.1243
   72MOL0     H 9680   4.638   5.628  11.704 -1.6547 -1.4760 -1.0332
   72MOL0     H 9681   4.716   5.531  11.913 -0.1670 -0.6681 -0.3585
   72MOL0     H 9682   4.650   5.245  12.313 -2.4435  1.7372 -3.2036
   72MOL0     H 9683   4.663   5.157  12.517 -0.7124 -1.3133  0.6133
   72MOL0     H 9684   4.678   5.124  12.746  1.6217  0.2203 -0.0464
   72MOL0     H 9685   4.717   5.280  12.814 -1.4476  1.1211  1.8749
   72MOL0     H 9686   4.536   5.218  12.994  0.4063 -0.4704  0.2687
   72MOL0     H 9687   4.532   5.049  12.932 -1.6290  0.3346 -1.3016
   72MOL0     H 9688   4.784   5.042  12.951 -0.0421 -0.8284 -0.8693
   72MOL0     H 9689   4.768   5.188  13.039  2.8286 -0.7766 -2.3858
   72MOL0     H 9690   4.633   4.928  13.122 -0.1597  0.9390 -0.8536
   72MOL0     H 9691   4.644   5.059  13.231 -3.3512 -3.4636 -0.5011
   72MOL0     H 9692   4.896   4.912  13.144 -0.1354  1.1998 -1.0640
   72MOL0     H 9693   4.804   4.908  13.300  0.0843 -0.5760 -0.9644
   72MOL0     H 9694   4.941   5.168  13.211  0.8591 -0.1359  0.8777
   72MOL0     H 9695   4.850   5.147  13.355  1.2389  2.2846  0.8746
   72MOL0     H 9696   4.989   4.982  13.426  0.2919  1.3154  0.8791
   72MOL0     H 9697   5.059   5.143  13.417  0.2845  0.8349  0.2234
   72MOL0     H 9698   5.143   4.900  13.253  3.4108 -0.7293  0.6639
   72MOL0     H 9699   5.145   5.070  13.193  0.2018  0.0158  0.5802
   72MOL0     H 9700   4.378   5.448  12.664  1.6922  0.4307  1.4662
   72MOL0     H 9701   4.344   5.527  12.447 -0.9007 -0.3860 -3.5259
   72MOL0     H 9702   4.315   5.592  12.073 -0.1020  2.6083  0.4389
   72MOL0     H 9703   4.261   5.713  11.885  1.2950  1.0974  1.6371
   72MOL0     H 9704   4.491   4.710  10.933  1.7882 -1.9461  0.5354
   72MOL0     H 9705   4.739   4.736  10.859  0.5734  3.2968  0.3204
   72MOL0     H 9706   4.853   5.029  10.618 -1.1546 -0.8294  0.2832
   72MOL0     H 9707   5.028   5.214  10.595  0.3294  1.2749 -1.5418
   72MOL0     H 9708   5.375   5.332  10.395  0.6389 -0.5498  1.1049
   72MOL0     H 9709   5.330   5.168  10.334 -0.9576 -0.4957  0.1826
   72MOL0     H 9710   5.348   5.091  10.578 -0.5539 -0.3529 -3.4077
   72MOL0     H 9711   5.366   5.265  10.615  0.5145  0.3022 -1.2667
   72MOL0     H 9712   5.566   5.274  10.489  0.2138  0.6158  0.9640
   72MOL0     H 9713   5.547   5.114  10.422 -1.5649  1.2448 -1.2809
   72MOL0     H 9714   5.541   5.114  10.714 -0.3682  3.8898 -1.1914
   72MOL0     H 9715   5.596   4.989  10.594  2.2597  0.7880 -2.0751
   72MOL0     H 9716   5.964   5.188  10.705  1.3096 -1.2712 -0.7833
   72MOL0     H 9717   5.185   5.027  10.247  2.8272  1.3693  1.6797
   72MOL0     H 9718   5.130   4.831  10.186  0.0879  2.4338  1.5151
   72MOL0     H 9719   5.090   4.715  10.303 -1.3202  0.6213  1.4599
   72MOL0     H 9720   4.956   4.788  10.213  1.3201 -0.4699 -3.1514
   73MOL0     O 9721   4.039   3.004   6.486  0.0745 -0.1995  0.7500
   73MOL0     C 9722   4.042   2.885   6.442  0.3358 -0.3906  0.0628
   73MOL0     O 9723   3.961   2.840   6.336 -0.1616 -0.1438 -0.4156
   73MOL0     C 9724   3.874   2.928   6.277 -0.6376  0.5345 -0.8161
   73MOL0     C 9725   3.750   2.952   6.347 -0.9748 -1.0544 -0.2180
   73MOL0     C 9726   3.663   3.052   6.303  0.2693 -0.1895  0.1774
   73MOL0     C 9727   3.675   3.111   6.176 -0.4978 -0.4484 -0.0557
   73MOL0     O 9728   3.583   3.206   6.118 -0.1995  0.0343 -0.5041
   73MOL0     C 9729   3.467   3.258   6.189 -0.8843 -0.4308 -0.0158
   73MOL0     C 9730   3.504   3.352   6.302 -0.6201  0.3465 -0.0633
   73MOL0     C 9731   3.546   3.498   6.243  0.0633 -0.2861 -0.0983
   73MOL0     C 9732   3.568   3.590   6.349 -1.1704 -0.8169 -0.2453
   73MOL0     C 9733   3.540   3.734   6.309  0.0131 -0.3172 -0.3249
   73MOL0     C 9734   3.611   3.835   6.411  0.4372 -0.6353 -0.2211
   73MOL0     C 9735   3.575   3.984   6.397  0.3639  0.5908  0.1954
   73MOL0     C 9736   3.677   4.068   6.324 -0.1034 -0.1850  0.0302
   73MOL0     N 9737   3.818   4.038   6.360  0.3166  0.2201  0.1622
   73MOL0     C 9738   3.867   4.068   6.487  0.1451  0.4708  0.6502
   73MOL0     C 9739   3.989   4.018   6.486  0.6268 -0.8419  0.0838
   73MOL0     C 9740   4.089   4.033   6.595 -0.0348 -0.1378  0.1471
   73MOL0     C 9741   4.076   3.930   6.701  0.1742 -0.0870 -0.0774
   73MOL0     C 9742   4.136   3.793   6.666  0.0793  0.4415  0.1521
   73MOL0     C 9743   4.094   3.695   6.778 -1.2296 -0.1182 -0.4447
   73MOL0     O 9744   4.191   3.684   6.892  0.3842  0.3164  0.1031
   73MOL0     C 9745   4.175   3.579   6.982  0.1363  0.3479 -0.7323
   73MOL0     C 9746   4.086   3.473   6.963  0.3746 -0.2216  0.4354
   73MOL0     C 9747   4.069   3.368   7.055  0.2378  0.6832  0.5276
   73MOL0     C 9748   4.155   3.357   7.164 -0.3852  0.2377  1.2024
   73MOL0     C 9749   4.145   3.238   7.262  0.4695 -1.0362  0.1492
   73MOL0     O 9750   4.042   3.154   7.246  0.6080 -0.7799  0.1110
   73MOL0     C 9751   4.035   3.053   7.331  0.9167 -0.0576  0.2618
   73MOL0     C 9752   4.043   2.919   7.283  0.5451 -0.5313  0.0579
   73MOL0     C 9753   4.029   2.805   7.366  0.0420  0.2123  0.1108
   73MOL0     C 9754   3.996   2.822   7.503  0.4908  0.6461 -0.2294
   73MOL0     O 9755   3.976   2.729   7.603 -0.2017 -0.1695  0.7836
   73MOL0     C 9756   4.012   2.598   7.573  0.4273 -0.0247 -0.0040
   73MOL0     C 9757   3.973   2.510   7.695  0.4195 -0.2220  0.1890
   73MOL0     C 9758   3.965   2.363   7.661 -0.2370  0.5861  0.3712
   73MOL0     C 9759   3.841   2.317   7.581  0.4080 -0.1407  0.3501
   73MOL0     C 9760   3.833   2.159   7.590 -0.3810  0.5323  0.8152
   73MOL0     C 9761   3.950   2.075   7.527  0.1137 -0.6797  0.3673
   73MOL0     C 9762   3.954   1.919   7.550  0.3816  0.3457  0.3403
   73MOL0     C 9763   4.090   1.854   7.517  0.3471  0.0157  0.3307
   73MOL0    Cl 9764   4.215   1.921   7.617 -0.0517  0.1745 -0.3308
   73MOL0     C 9765   3.980   2.965   7.552 -0.3752  0.4622  0.4414
   73MOL0     C 9766   3.998   3.067   7.467 -0.1512  0.1353 -0.3386
   73MOL0     O 9767   4.242   3.228   7.342 -0.9242 -0.3927  0.4352
   73MOL0     C 9768   4.246   3.464   7.184 -0.5309  0.5413  0.9413
   73MOL0     C 9769   4.252   3.571   7.098  0.4268 -0.0910 -0.3092
   73MOL0     N 9770   4.012   3.948   6.370  0.1534  0.1643 -0.4517
   73MOL0     N 9771   3.913   3.963   6.292  0.8495 -0.0156 -0.1134
   73MOL0     C 9772   3.788   3.076   6.098 -0.6648  0.1221  0.0454
   73MOL0     C 9773   3.888   2.990   6.148 -0.1274  0.1264 -0.0028
   73MOL0     C 9774   4.120   2.783   6.517  0.4165 -0.3530  0.8377
   73MOL0     C 9775   4.065   2.653   6.547 -0.3191 -0.5445 -0.1281
   73MOL0     C 9776   4.141   2.552   6.611 -0.5940 -0.7555 -0.2335
   73MOL0     C 9777   4.275   2.573   6.640 -0.1188  0.0948  0.3863
   73MOL0     O 9778   4.360   2.483   6.708 -0.0984 -0.4509  0.1765
   73MOL0     C 9779   4.313   2.354   6.728  0.8345 -0.7969 -0.2377
   73MOL0     C 9780   4.426   2.254   6.752 -0.6191 -0.6675 -0.2485
   73MOL0     C 9781   4.528   2.295   6.859 -0.0453 -0.3341  0.0435
   73MOL0     C 9782   4.651   2.374   6.812  0.1101  0.2321  0.9295
   73MOL0     C 9783   4.759   2.363   6.914 -0.0107  0.3506  0.9904
   73MOL0     C 9784   4.858   2.355   6.986 -0.1858 -0.5764  0.5225
   73MOL0     C 9785   4.336   2.700   6.613 -0.0759  0.8575  0.0768
   73MOL0     C 9786   4.259   2.803   6.547 -0.7428 -0.0185  0.5750
   73MOL0     C 9787   4.329   2.939   6.544 -1.1646  0.4825  0.1280
   73MOL0     H 9788   3.725   2.906   6.442 -1.0929 -0.4115  0.0704
   73MOL0     H 9789   3.582   3.086   6.367  0.3339  3.0996 -1.2481
   73MOL0     H 9790   3.400   3.314   6.123 -1.4103  1.9128  2.3350
   73MOL0     H 9791   3.405   3.183   6.239 -1.3382 -1.0487 -1.4606
   73MOL0     H 9792   3.589   3.315   6.359 -0.4994 -0.7933 -0.9374
   73MOL0     H 9793   3.412   3.351   6.362  0.4255 -1.4182  1.6402
   73MOL0     H 9794   3.470   3.536   6.175  2.3780  3.0359 -1.1370
   73MOL0     H 9795   3.640   3.494   6.187  1.2865  2.3809  1.5458
   73MOL0     H 9796   3.500   3.566   6.431  0.7735 -1.8007  1.1848
   73MOL0     H 9797   3.675   3.572   6.366 -0.5275  0.1141 -2.8765
   73MOL0     H 9798   3.595   3.762   6.218 -2.3717  2.4055 -1.0726
   73MOL0     H 9799   3.433   3.750   6.292 -0.2312 -3.2395 -2.2736
   73MOL0     H 9800   3.595   3.793   6.511  1.5320  0.5788  0.4924
   73MOL0     H 9801   3.714   3.809   6.385  0.5277  0.3329 -0.8788
   73MOL0     H 9802   3.557   4.019   6.499  1.5002 -1.5927  1.2292
   73MOL0     H 9803   3.479   3.988   6.345 -0.0335 -1.7608  0.6103
   73MOL0     H 9804   3.662   4.073   6.216  0.5952  2.4735 -0.0058
   73MOL0     H 9805   3.649   4.168   6.359 -1.9902  0.1161 -2.0844
   73MOL0     H 9806   3.815   4.123   6.565 -2.0086  0.3292 -0.6343
   73MOL0     H 9807   4.190   4.026   6.553 -0.0013  1.3123 -0.0716
   73MOL0     H 9808   4.070   4.131   6.640 -1.9395 -1.0201  1.3873
   73MOL0     H 9809   4.118   3.962   6.797 -0.0674  1.4596 -0.4672
   73MOL0     H 9810   3.971   3.915   6.731  0.1552 -3.6575 -1.3705
   73MOL0     H 9811   4.245   3.785   6.663  0.0746 -0.2586  1.3815
   73MOL0     H 9812   4.106   3.763   6.564  0.9995 -1.3187  0.3603
   73MOL0     H 9813   4.112   3.599   6.729  1.9683  0.5962 -0.8995
   73MOL0     H 9814   3.996   3.713   6.822 -0.8133  3.2985 -0.6461
   73MOL0     H 9815   4.033   3.462   6.869  0.1601  1.5738  0.3037
   73MOL0     H 9816   4.013   3.278   7.028  2.2227 -0.8200  1.1739
   73MOL0     H 9817   4.090   2.908   7.186  0.0722 -3.0911  0.0374
   73MOL0     H 9818   4.040   2.703   7.330  2.9612  0.8969 -1.2195
   73MOL0     H 9819   3.973   2.564   7.477  4.5131  1.4370 -2.4645
   73MOL0     H 9820   4.121   2.593   7.565  0.5821  2.4136 -0.3860
   73MOL0     H 9821   4.046   2.520   7.776 -0.6429 -0.5003  1.1950
   73MOL0     H 9822   3.878   2.542   7.738 -0.0633  0.3854 -1.2960
   73MOL0     H 9823   4.051   2.332   7.602 -0.4219 -0.4488  0.6262
   73MOL0     H 9824   3.975   2.299   7.750 -0.9095 -1.0577 -0.6953
   73MOL0     H 9825   3.835   2.354   7.479 -3.2425  1.0989  0.8593
   73MOL0     H 9826   3.753   2.357   7.633  0.9231  1.7536 -0.1617
   73MOL0     H 9827   3.750   2.120   7.530  0.4415 -0.3717  0.2432
   73MOL0     H 9828   3.821   2.136   7.697 -2.3432 -0.8304  0.3564
   73MOL0     H 9829   3.956   2.079   7.417 -1.8387 -0.0198  0.2439
   73MOL0     H 9830   4.040   2.113   7.576 -1.4084  1.9156  1.3865
   73MOL0     H 9831   3.882   1.880   7.477 -1.1375  0.6210  1.6352
   73MOL0     H 9832   3.920   1.884   7.647 -4.1230  1.6084 -0.5516
   73MOL0     H 9833   4.096   1.747   7.539  0.1226  0.3648  2.2046
   73MOL0     H 9834   4.118   1.865   7.412  1.4388  0.4591  0.6538
   73MOL0     H 9835   3.948   2.980   7.654  0.4791  0.7178  0.6807
   73MOL0     H 9836   3.979   3.167   7.503 -2.1703 -0.0952 -0.6530
   73MOL0     H 9837   4.312   3.468   7.270 -0.7882 -0.4725  1.1958
   73MOL0     H 9838   4.331   3.642   7.122 -0.5762  0.5234  1.3772
   73MOL0     H 9839   3.808   3.120   6.001 -0.5348  4.9983  2.0005
   73MOL0     H 9840   3.976   2.973   6.086  0.3865  0.2502  0.6779
   73MOL0     H 9841   3.960   2.632   6.530 -0.5829 -1.0144  1.7906
   73MOL0     H 9842   4.102   2.452   6.625 -1.3064 -0.3010  1.1956
   73MOL0     H 9843   4.261   2.312   6.641 -2.8888  0.3200  1.2447
   73MOL0     H 9844   4.245   2.356   6.814  0.3165  0.3378 -0.6519
   73MOL0     H 9845   4.486   2.237   6.662  0.6214 -0.2326  0.4780
   73MOL0     H 9846   4.370   2.169   6.793  0.5411 -0.6690  1.4346
   73MOL0     H 9847   4.568   2.196   6.883  1.6294 -0.2653 -2.1491
   73MOL0     H 9848   4.473   2.342   6.940 -0.5517  0.9140 -0.9977
   73MOL0     H 9849   4.683   2.334   6.716  0.7656  3.2801 -0.2148
   73MOL0     H 9850   4.634   2.481   6.800 -1.4819  0.0540  1.3454
   73MOL0     H 9851   4.936   2.347   7.059  1.4852  0.4942 -1.0446
   73MOL0     H 9852   4.437   2.710   6.649  0.9886 -2.4172 -1.5738
   73MOL0     H 9853   4.353   2.970   6.646  1.3635 -1.0785  0.0909
   73MOL0     H 9854   4.417   2.930   6.481  0.2203  5.0582  1.0010
   73MOL0     H 9855   4.280   3.021   6.490  1.6059  0.6335 -2.4306
   74MOL0     O 9856   3.046   5.112   9.761 -0.8166 -0.3751 -1.6419
   74MOL0     C 9857   3.050   5.090   9.642  0.6408  0.2485  0.4938
   74MOL0     O 9858   3.128   4.996   9.583 -0.7616 -0.7459 -0.3672
   74MOL0     C 9859   3.226   4.937   9.647 -0.1343 -0.2355  0.7646
   74MOL0     C 9860   3.205   4.818   9.713 -0.1944 -0.1304 -0.1920
   74MOL0     C 9861   3.312   4.757   9.787 -0.0425  0.8626  0.0676
   74MOL0     C 9862   3.440   4.814   9.787  0.5306 -0.6067 -0.0524
   74MOL0     O 9863   3.561   4.763   9.837  0.2478 -0.3380  0.4646
   74MOL0     C 9864   3.565   4.626   9.882  1.1775 -0.3335 -0.1350
   74MOL0     C 9865   3.688   4.602   9.975  0.4381 -0.7771  0.0391
   74MOL0     C 9866   3.709   4.457  10.004 -0.1563  0.3566  0.5140
   74MOL0     C 9867   3.848   4.443  10.075  0.2265 -0.0086 -0.2900
   74MOL0     C 9868   3.839   4.349  10.202 -0.2334 -0.1889  0.3329
   74MOL0     C 9869   3.875   4.440  10.319  0.6666  0.5841  0.5216
   74MOL0     C 9870   3.874   4.364  10.450 -1.0093  0.1087 -0.0798
   74MOL0     C 9871   3.909   4.464  10.561  0.9746  0.0672  0.5459
   74MOL0     N 9872   3.912   4.394  10.686 -0.2574 -1.4025 -0.7184
   74MOL0     C 9873   3.983   4.284  10.727 -0.7254 -0.5827 -0.2742
   74MOL0     C 9874   3.944   4.261  10.853 -0.4405 -0.2429 -0.4242
   74MOL0     C 9875   3.987   4.153  10.941  0.2471  0.5994 -0.1676
   74MOL0     C 9876   3.892   4.029  10.955  0.8781 -0.1669 -0.5096
   74MOL0     C 9877   3.741   4.060  11.001 -0.0077 -0.1557  0.1512
   74MOL0     C 9878   3.645   3.936  10.980  0.5663  0.2270 -0.0565
   74MOL0     O 9879   3.509   3.965  11.005 -0.4817 -0.4513 -0.1444
   74MOL0     C 9880   3.436   3.996  10.896  0.5224 -0.8693 -0.6841
   74MOL0     C 9881   3.301   3.967  10.921  0.5201  0.7932  1.0793
   74MOL0     C 9882   3.206   3.982  10.812 -0.0607  0.5105 -0.8974
   74MOL0     C 9883   3.249   4.024  10.686 -0.1881  0.7207  0.4751
   74MOL0     C 9884   3.148   4.046  10.586  0.6732  1.3778  0.3894
   74MOL0     O 9885   3.135   4.173  10.539 -0.4901  0.7394 -0.4293
   74MOL0     C 9886   3.026   4.209  10.475  0.4497  0.2019 -0.2384
   74MOL0     C 9887   2.930   4.296  10.533  0.1857  0.4646  0.3012
   74MOL0     C 9888   2.818   4.330  10.455  0.0172 -0.5079 -1.0765
   74MOL0     C 9889   2.804   4.282  10.327  0.1250  0.2134 -0.5263
   74MOL0     O 9890   2.689   4.305  10.251 -0.2154  0.9381 -0.3997
   74MOL0     C 9891   2.615   4.428  10.262  0.1361  0.9351  0.0549
   74MOL0     C 9892   2.485   4.433  10.188 -0.0665 -0.8763  0.3611
   74MOL0     C 9893   2.408   4.566  10.217 -0.0954  0.1366  0.0527
   74MOL0     C 9894   2.278   4.578  10.136 -0.7233 -0.2450  1.3045
   74MOL0     C 9895   2.196   4.711  10.172 -0.9102  1.1436 -0.4305
   74MOL0     C 9896   2.108   4.696  10.303  0.2575 -0.5570  0.9777
   74MOL0     C 9897   2.025   4.816  10.349  0.0385  0.3272 -0.4195
   74MOL0     C 9898   1.947   4.779  10.477  0.1572 -0.6094 -0.6448
   74MOL0    Cl 9899   2.049   4.775  10.638  0.0396  0.1803  0.0960
   74MOL0     C 9900   2.903   4.207  10.266  0.7963  0.0218  0.0823
   74MOL0     C 9901   3.012   4.170  10.337  0.3899 -0.3550 -0.3162
   74MOL0     O 9902   3.078   3.947  10.564 -0.7935 -0.2648 -0.0931
   74MOL0     C 9903   3.388   4.053  10.667  0.2700 -0.2998 -0.6915
   74MOL0     C 9904   3.477   4.045  10.769  0.2513 -0.7900 -0.5659
   74MOL0     N 9905   3.862   4.365  10.901  0.4142 -0.7435  0.0617
   74MOL0     N 9906   3.842   4.434  10.795  1.0196  0.2468 -0.4751
   74MOL0     C 9907   3.448   4.946   9.722  0.1408 -0.7179  0.0631
   74MOL0     C 9908   3.340   4.999   9.653  0.1463 -0.4790  0.8176
   74MOL0     C 9909   2.966   5.176   9.553  1.0233 -0.8186 -0.1760
   74MOL0     C 9910   2.991   5.171   9.411 -0.2405 -0.4645  0.2656
   74MOL0     C 9911   2.917   5.248   9.315  0.5713 -0.7318 -0.2402
   74MOL0     C 9912   2.813   5.333   9.366 -0.1413  0.9426  1.0072
   74MOL0     O 9913   2.767   5.439   9.292  0.3733 -0.0099  0.4991
   74MOL0     C 9914   2.778   5.448   9.149 -0.0136  0.0377  0.1070
   74MOL0     C 9915   2.662   5.355   9.103  0.3448 -0.2464  0.4771
   74MOL0     C 9916   2.521   5.394   9.155  0.1147 -1.6109 -0.1157
   74MOL0     C 9917   2.413   5.328   9.073 -0.3947  0.4586  0.0387
   74MOL0     C 9918   2.289   5.330   9.144  0.7021 -0.0613  0.1413
   74MOL0     C 9919   2.178   5.323   9.202 -0.6504 -0.5124  0.4334
   74MOL0     C 9920   2.776   5.322   9.497  0.5098  0.1872 -0.7014
   74MOL0     C 9921   2.850   5.246   9.596  0.0323 -0.5883 -0.3740
   74MOL0     C 9922   2.806   5.258   9.741 -0.9108 -0.3195  0.2980
   74MOL0     H 9923   3.105   4.779   9.725  0.6438 -1.8387  1.7736
   74MOL0     H 9924   3.296   4.662   9.835 -1.1696  1.0684  0.1114
   74MOL0     H 9925   3.477   4.586   9.933  1.3393 -0.3357  0.1448
   74MOL0     H 9926   3.570   4.562   9.794  2.9624 -1.0813  0.4525
   74MOL0     H 9927   3.685   4.654  10.071  0.4280 -0.7985  0.0496
   74MOL0     H 9928   3.776   4.645   9.926  2.1034 -2.2163  1.6119
   74MOL0     H 9929   3.712   4.400   9.911 -2.6281  3.1257 -1.4826
   74MOL0     H 9930   3.632   4.423  10.074  1.0754  0.4007  1.9478
   74MOL0     H 9931   3.925   4.393  10.016  2.3077  1.4587  1.0467
   74MOL0     H 9932   3.883   4.538  10.116  2.5979 -1.5707  1.5274
   74MOL0     H 9933   3.734   4.322  10.217  0.7029 -3.7533  1.5580
   74MOL0     H 9934   3.900   4.260  10.183  2.1027  1.3287  0.3210
   74MOL0     H 9935   3.976   4.482  10.316  0.8373  0.5246  2.9601
   74MOL0     H 9936   3.792   4.510  10.328 -3.4077 -3.6922 -0.1767
   74MOL0     H 9937   3.954   4.289  10.447  0.4978  1.5974  1.0087
   74MOL0     H 9938   3.784   4.304  10.461 -0.5906 -0.6305 -0.6147
   74MOL0     H 9939   4.006   4.515  10.560  2.2919 -2.2878  1.6214
   74MOL0     H 9940   3.834   4.543  10.550 -0.1048 -1.2148 -2.0464
   74MOL0     H 9941   4.050   4.223  10.666 -0.2634 -0.3271 -0.0268
   74MOL0     H 9942   4.090   4.121  10.922  0.1386 -0.4920  0.9661
   74MOL0     H 9943   3.998   4.182  11.046  1.7786  1.3489 -0.5172
   74MOL0     H 9944   3.887   3.982  10.856 -2.4098 -0.1867 -0.4683
   74MOL0     H 9945   3.938   3.950  11.013 -0.3430 -1.7278 -1.5726
   74MOL0     H 9946   3.699   4.140  10.938 -1.5120 -0.1321  1.1221
   74MOL0     H 9947   3.732   4.098  11.103 -2.8725  2.4337 -0.8761
   74MOL0     H 9948   3.678   3.859  11.051 -0.1445 -0.3779 -0.3653
   74MOL0     H 9949   3.647   3.891  10.880 -0.1800  1.1526 -0.4997
   74MOL0     H 9950   3.269   3.950  11.023 -2.6334 -2.9832 -0.3115
   74MOL0     H 9951   3.099   3.974  10.827  0.2359  3.2227  5.9667
   74MOL0     H 9952   2.947   4.336  10.632  2.8691 -1.3677  0.6987
   74MOL0     H 9953   2.747   4.400  10.497  0.1754 -0.4811 -0.8500
   74MOL0     H 9954   2.606   4.452  10.369  0.7451 -0.7080  0.5008
   74MOL0     H 9955   2.676   4.507  10.218 -1.0564  1.5721 -0.5230
   74MOL0     H 9956   2.508   4.426  10.082 -2.9799  1.4497 -0.5640
   74MOL0     H 9957   2.418   4.349  10.210 -2.1677  0.4545 -0.6077
   74MOL0     H 9958   2.381   4.564  10.323  0.2038  1.3654  0.1701
   74MOL0     H 9959   2.476   4.648  10.191 -2.2298  1.4642 -1.6450
   74MOL0     H 9960   2.223   4.484  10.147 -0.1937 -0.8742 -0.8553
   74MOL0     H 9961   2.306   4.575  10.030 -0.8658  4.1136  0.9572
   74MOL0     H 9962   2.139   4.742  10.083 -0.6751  2.4335 -0.1492
   74MOL0     H 9963   2.249   4.805  10.193 -2.8400  1.9066  1.3990
   74MOL0     H 9964   2.037   4.616  10.277 -1.7570  1.7534 -1.1466
   74MOL0     H 9965   2.166   4.679  10.394  1.5024  1.6283  0.6429
   74MOL0     H 9966   1.956   4.840  10.268 -2.2090 -2.8158  0.3402
   74MOL0     H 9967   2.089   4.898  10.380  1.7305 -1.8855  2.4474
   74MOL0     H 9968   1.865   4.850  10.492 -0.4834 -1.9893  4.4124
   74MOL0     H 9969   1.901   4.680  10.468  3.1080 -1.9717 -1.9057
   74MOL0     H 9970   2.897   4.169  10.165  1.5716 -0.5589  0.2536
   74MOL0     H 9971   3.072   4.106  10.272  0.9162 -0.8205  0.6079
   74MOL0     H 9972   3.426   4.087  10.572 -0.3251  1.1105 -0.4517
   74MOL0     H 9973   3.581   4.067  10.744  0.2817 -0.2198  0.0242
   74MOL0     H 9974   3.538   5.005   9.707 -0.8034  1.0371  0.9670
   74MOL0     H 9975   3.342   5.090   9.594  0.6463 -0.4923  0.8145
   74MOL0     H 9976   3.078   5.119   9.373  0.7062  0.3967  1.2150
   74MOL0     H 9977   2.951   5.239   9.212 -0.7723 -0.1139 -0.7508
   74MOL0     H 9978   2.879   5.416   9.122  0.9844  1.2625  2.1896
   74MOL0     H 9979   2.759   5.551   9.117  1.7638  0.1926 -0.5812
   74MOL0     H 9980   2.692   5.250   9.115 -1.2299 -0.8491 -0.5604
   74MOL0     H 9981   2.646   5.379   8.998 -4.8003  2.0916  1.4847
   74MOL0     H 9982   2.502   5.501   9.144 -1.0865 -1.5739  1.8036
   74MOL0     H 9983   2.506   5.374   9.262 -1.8313  1.1792  0.2492
   74MOL0     H 9984   2.395   5.371   8.975 -0.1090 -0.4325 -0.4163
   74MOL0     H 9985   2.453   5.227   9.058  0.2529  0.8680 -1.0502
   74MOL0     H 9986   2.081   5.331   9.245 -0.5956 -0.3035  0.5212
   74MOL0     H 9987   2.690   5.382   9.525  1.7149  1.0747  1.3536
   74MOL0     H 9988   2.780   5.159   9.777 -1.6303 -0.0275  0.6059
   74MOL0     H 9989   2.883   5.301   9.805 -0.4626 -0.6715 -0.0004
   74MOL0     H 9990   2.724   5.331   9.744  1.9229  3.2108 -0.7529
   75MOL0     O 9991   0.598  10.695   9.776  0.5725  0.4825  0.1240
   75MOL0     C 9992   0.666  10.602   9.821  0.2702  0.0817 -0.4976
   75MOL0     O 9993   0.621  10.514   9.911 -0.2896 -0.0467  0.1657
   75MOL0     C 9994   0.482  10.501   9.914  0.4488 -0.7793  0.5147
   75MOL0     C 9995   0.415  10.471  10.035  0.5139 -0.1547 -0.1795
   75MOL0     C 9996   0.275  10.442  10.025  0.7318 -0.1737  1.4177
   75MOL0     C 9997   0.194  10.465   9.908  0.7057 -0.1177  0.0598
   75MOL0     O 9998   0.052  10.446   9.895 -0.1139  0.0768  0.2621
   75MOL0     C 9999  -0.016  10.371  10.005 -0.7904  0.7869  0.4775
   75MOL0     C10000  -0.165  10.375   9.990 -0.3400 -0.1737 -0.6517
   75MOL0     C10001  -0.229  10.257  10.060  0.2869  0.2070 -0.4574
   75MOL0     C10002  -0.383  10.251  10.029 -0.3983 -0.2375  0.9856
   75MOL0     C10003  -0.453  10.140  10.111  0.4700  0.4674 -0.7728
   75MOL0     C10004  -0.422   9.999  10.061 -0.0650 -0.2608  0.2550
   75MOL0     C10005  -0.484   9.870  10.129 -0.3308 -0.1804  0.3230
   75MOL0     C10006  -0.408   9.820  10.254  0.1589  0.0481  0.2016
   75MOL0     N10007  -0.367   9.921  10.352 -0.2063  0.5665 -0.1977
   75MOL0     C10008  -0.416   9.944  10.476  0.3215 -0.2114  0.5516
   75MOL0     C10009  -0.317   9.985  10.553 -0.7623  0.0858  0.5314
   75MOL0     C10010  -0.331  10.003  10.695  0.5112 -0.5207 -1.0821
   75MOL0     C10011  -0.270  10.143  10.739  0.7347  0.2583 -0.7499
   75MOL0     C10012  -0.289  10.158  10.895  0.1677  0.4710  0.3335
   75MOL0     C10013  -0.276  10.307  10.942 -0.5355  0.3355 -0.2479
   75MOL0     O10014  -0.139  10.326  10.974  0.1365  0.7784 -0.7062
   75MOL0     C10015  -0.099  10.304  11.105 -0.2578 -0.1636 -0.3148
   75MOL0     C10016  -0.026  10.193  11.140  0.4401  0.4149 -1.0061
   75MOL0     C10017   0.015  10.178  11.275 -0.4699  0.5208 -0.2900
   75MOL0     C10018   0.001  10.278  11.369 -0.0600 -0.0390  0.5745
   75MOL0     C10019   0.064  10.264  11.503 -1.1343 -0.1445  0.1902
   75MOL0     O10020   0.140  10.158  11.530 -0.1401 -0.5970 -0.6771
   75MOL0     C10021   0.187  10.166  11.659 -0.2154 -0.4131 -0.4898
   75MOL0     C10022   0.116  10.172  11.783  0.0535  0.5965 -0.5225
   75MOL0     C10023   0.189  10.166  11.906 -0.4670 -0.4982 -0.5700
   75MOL0     C10024   0.334  10.161  11.911 -0.7439  1.0197 -0.5133
   75MOL0     O10025   0.399  10.156  12.035 -0.2481 -0.4539  0.6694
   75MOL0     C10026   0.527  10.097  12.042 -0.9255  0.1613  0.2331
   75MOL0     C10027   0.623  10.193  12.123 -0.1975 -0.0360  0.0801
   75MOL0     C10028   0.561  10.228  12.259  0.1619 -0.0249 -0.6594
   75MOL0     C10029   0.559  10.382  12.290 -0.6552  0.2868  0.5006
   75MOL0     C10030   0.468  10.455  12.195  0.3607  0.0290  0.8777
   75MOL0     C10031   0.448  10.601  12.229 -0.4102  0.6750 -1.0521
   75MOL0     C10032   0.399  10.684  12.121  0.7128 -0.2215 -0.0273
   75MOL0     C10033   0.368  10.828  12.160  0.6608  0.2468 -0.4872
   75MOL0    Cl10034   0.236  10.854  12.282 -0.0112  0.0787 -0.2661
   75MOL0     C10035   0.402  10.167  11.789  0.0037 -0.5376  0.1220
   75MOL0     C10036   0.330  10.170  11.669 -0.1610 -0.1465 -0.9669
   75MOL0     O10037   0.048  10.364  11.569  0.0947 -0.8330  0.0916
   75MOL0     C10038  -0.082  10.390  11.335 -0.0880 -0.4398 -0.9274
   75MOL0     C10039  -0.124  10.402  11.207  0.2396 -0.2018  0.1589
   75MOL0     N10040  -0.198   9.981  10.469  0.0500  0.6302 -0.2893
   75MOL0     N10041  -0.230   9.947  10.349 -0.3911 -0.0145 -1.4615
   75MOL0     C10042   0.267  10.490   9.790 -0.0846  0.2931 -0.3362
   75MOL0     C10043   0.411  10.489   9.787 -0.4063 -0.3811  0.3315
   75MOL0     C10044   0.807  10.605   9.775 -1.0456  0.3911 -0.4365
   75MOL0     C10045   0.861  10.733   9.739 -1.0565 -0.1359  0.3464
   75MOL0     C10046   1.000  10.740   9.717  0.5284 -0.3547 -0.5593
   75MOL0     C10047   1.078  10.633   9.720 -0.9292  0.3928  0.3039
   75MOL0     O10048   1.212  10.644   9.688  0.5735  0.6986  0.2085
   75MOL0     C10049   1.288  10.524   9.673  0.9339  1.2293 -1.0148
   75MOL0     C10050   1.422  10.535   9.598  0.7323 -0.1607 -0.4280
   75MOL0     C10051   1.525  10.629   9.665  0.7804 -0.1996 -0.2223
   75MOL0     C10052   1.577  10.569   9.791  0.3988 -0.2851 -0.1463
   75MOL0     C10053   1.693  10.655   9.839  0.0290 -0.2885 -0.1711
   75MOL0     C10054   1.801  10.703   9.881 -0.3793 -0.1746  0.1788
   75MOL0     C10055   1.017  10.510   9.754 -0.4204 -0.4562  0.4137
   75MOL0     C10056   0.882  10.492   9.790  0.1435 -0.0708  0.5535
   75MOL0     C10057   0.840  10.353   9.833 -0.6750 -0.3625  0.1788
   75MOL0     H10058   0.472  10.451  10.125 -0.7573  0.0830  0.7112
   75MOL0     H10059   0.242  10.404  10.121  0.2731 -0.4046  1.1669
   75MOL0     H10060   0.027  10.271  10.002  3.2642  2.3380 -0.2522
   75MOL0     H10061   0.002  10.400  10.109 -0.1331 -2.0386  1.2253
   75MOL0     H10062  -0.209  10.372   9.890 -0.3393  0.4267 -0.6743
   75MOL0     H10063  -0.204  10.467  10.035  1.1268 -1.0883  2.8065
   75MOL0     H10064  -0.226  10.274  10.168 -1.1082 -1.3517 -0.1359
   75MOL0     H10065  -0.170  10.166  10.049 -0.1924 -0.1547 -0.0473
   75MOL0     H10066  -0.421  10.346  10.066 -1.9980 -0.3754 -0.2172
   75MOL0     H10067  -0.408  10.238   9.923 -0.0792 -1.3373  1.0302
   75MOL0     H10068  -0.434  10.139  10.219  0.9894 -3.9146 -0.7066
   75MOL0     H10069  -0.561  10.147  10.093  0.4830  1.8493 -0.4175
   75MOL0     H10070  -0.454   9.999   9.956 -2.1209  0.4806  0.8193
   75MOL0     H10071  -0.314   9.981  10.058  0.0243  0.2229 -3.0546
   75MOL0     H10072  -0.473   9.797  10.048 -2.0499  0.6781 -0.7604
   75MOL0     H10073  -0.592   9.875  10.148 -0.3815  1.0155 -0.1644
   75MOL0     H10074  -0.463   9.742  10.309  1.7934 -0.7607  0.7713
   75MOL0     H10075  -0.325   9.759  10.218 -0.6238 -1.4207  0.7762
   75MOL0     H10076  -0.515   9.931  10.518 -0.7037 -0.9819 -1.9183
   75MOL0     H10077  -0.439  10.004  10.715  0.8394 -1.1224  0.8874
   75MOL0     H10078  -0.280   9.925  10.752  0.2205 -2.4601 -3.3296
   75MOL0     H10079  -0.166  10.136  10.707  1.7212  2.4792  1.6937
   75MOL0     H10080  -0.331  10.217  10.687 -1.3255 -1.2118 -0.5708
   75MOL0     H10081  -0.231  10.086  10.953  0.5693  1.1368  0.7563
   75MOL0     H10082  -0.393  10.124  10.902  0.2277  0.2365  0.1357
   75MOL0     H10083  -0.344  10.341  11.021 -2.4179 -0.4934 -1.4536
   75MOL0     H10084  -0.304  10.360  10.851  1.5113 -0.4458 -1.3854
   75MOL0     H10085   0.001  10.108  11.077  2.3130  2.0856 -2.6074
   75MOL0     H10086   0.059  10.083  11.303  1.9818  1.8330  0.5946
   75MOL0     H10087   0.008  10.166  11.781  0.0508 -2.2536  1.7337
   75MOL0     H10088   0.132  10.171  11.998  0.5431  0.3154  0.0422
   75MOL0     H10089   0.526  10.000  12.094  1.8647 -1.7175 -2.7706
   75MOL0     H10090   0.565  10.065  11.945 -0.8097  1.4660 -0.1596
   75MOL0     H10091   0.714  10.133  12.129  0.0607  0.0112 -2.4813
   75MOL0     H10092   0.652  10.284  12.069 -2.9996  1.1942  0.4618
   75MOL0     H10093   0.456  10.197  12.258 -0.1214  0.8858 -0.4761
   75MOL0     H10094   0.616  10.177  12.339 -0.8517  0.8964  0.6643
   75MOL0     H10095   0.658  10.426  12.283 -1.6684  2.8239  1.0920
   75MOL0     H10096   0.516  10.390  12.390  1.2795  0.9259  1.3286
   75MOL0     H10097   0.373  10.401  12.180  0.1365  0.9725 -1.6274
   75MOL0     H10098   0.513  10.448  12.096 -2.3543 -6.2588 -0.3877
   75MOL0     H10099   0.376  10.598  12.310  1.2996  0.3544  0.5155
   75MOL0     H10100   0.550  10.621  12.262 -0.1468 -2.4858  0.3631
   75MOL0     H10101   0.301  10.657  12.081 -0.6545  2.6815  1.0373
   75MOL0     H10102   0.475  10.678  12.042  0.0075 -1.3936 -0.6409
   75MOL0     H10103   0.452  10.863  12.221  0.0840  0.7242  0.0431
   75MOL0     H10104   0.339  10.882  12.070 -4.1626 -3.2511 -1.4371
   75MOL0     H10105   0.510  10.173  11.777 -0.0617 -0.2641 -0.3351
   75MOL0     H10106   0.385  10.148  11.578  1.9480  0.4597  0.1046
   75MOL0     H10107  -0.101  10.470  11.405 -3.0183 -1.1894 -0.7474
   75MOL0     H10108  -0.185  10.489  11.183  1.7567  0.4823 -1.4046
   75MOL0     H10109   0.202  10.488   9.703 -0.0687  1.2612 -0.3802
   75MOL0     H10110   0.463  10.481   9.692 -0.2968 -4.7008  0.5498
   75MOL0     H10111   0.798  10.821   9.731 -1.8057 -0.7113 -0.2727
   75MOL0     H10112   1.037  10.839   9.693 -0.5461  0.3472  0.5512
   75MOL0     H10113   1.237  10.456   9.604 -1.9814  3.7570 -1.5233
   75MOL0     H10114   1.309  10.479   9.771 -1.1069  1.6888 -0.3314
   75MOL0     H10115   1.398  10.570   9.497  0.7013  0.7605 -0.1066
   75MOL0     H10116   1.463  10.435   9.586  0.0068 -0.2212 -3.1892
   75MOL0     H10117   1.486  10.728   9.691  2.9494  0.3192  1.3990
   75MOL0     H10118   1.598  10.651   9.586 -0.4793  0.4668 -1.2296
   75MOL0     H10119   1.507  10.563   9.875  1.9844  3.3086  1.6431
   75MOL0     H10120   1.607  10.467   9.764  3.2485  0.0944  1.2584
   75MOL0     H10121   1.897  10.728   9.921  0.2153  1.5260 -2.0720
   75MOL0     H10122   1.068  10.415   9.757  0.2145 -0.5241 -4.4893
   75MOL0     H10123   0.910  10.270   9.823  0.2212  0.5165 -1.1139
   75MOL0     H10124   0.807  10.355   9.938 -1.4724 -2.8142  0.0470
   75MOL0     H10125   0.757  10.312   9.775 -0.2191 -1.9355  0.5986
   76MOL0     O10126   9.094  11.166   5.150 -0.2885 -0.9769 -0.8380
   76MOL0     C10127   9.089  11.140   5.036  0.9282  1.1638  0.3321
   76MOL0     O10128   8.968  11.122   4.959 -0.4277 -0.3523  0.0357
   76MOL0     C10129   8.846  11.097   5.019 -0.2385 -0.2316  0.6777
   76MOL0     C10130   8.811  11.105   5.154 -0.9216  0.1380 -0.0189
   76MOL0     C10131   8.680  11.109   5.200  0.0733 -0.0538  0.0343
   76MOL0     C10132   8.571  11.097   5.113  0.3512 -0.6221 -0.0730
   76MOL0     O10133   8.445  11.092   5.163 -0.0040 -0.7128 -0.5497
   76MOL0     C10134   8.354  11.001   5.106 -0.1770 -0.1280  0.1421
   76MOL0     C10135   8.396  10.858   5.144  0.3711 -0.1939  0.9068
   76MOL0     C10136   8.284  10.755   5.169 -0.8930 -0.7616  0.7354
   76MOL0     C10137   8.169  10.758   5.071 -0.3746  0.4395 -0.3165
   76MOL0     C10138   8.053  10.682   5.119  0.2659  0.1895  0.5780
   76MOL0     C10139   8.009  10.711   5.266  0.1575  0.0415 -0.9722
   76MOL0     C10140   7.860  10.687   5.290 -1.0141 -0.4703  0.0203
   76MOL0     C10141   7.771  10.801   5.245 -0.1792  0.2096 -0.2153
   76MOL0     N10142   7.797  10.919   5.331  0.1272  0.5835 -0.2433
   76MOL0     C10143   7.731  10.940   5.446 -0.4772 -0.4537  0.3801
   76MOL0     C10144   7.763  11.063   5.485  0.4158  0.6050  0.1893
   76MOL0     C10145   7.720  11.136   5.601 -0.1566 -1.1022  0.0331
   76MOL0     C10146   7.564  11.138   5.623 -0.1198 -0.6635 -0.4869
   76MOL0     C10147   7.543  11.170   5.762 -0.6947 -0.0239  0.7938
   76MOL0     C10148   7.400  11.177   5.806 -0.0066 -0.4860  0.3283
   76MOL0     O10149   7.323  11.275   5.738 -0.9362  0.0505 -0.2685
   76MOL0     C10150   7.229  11.225   5.653  0.5794  0.4313 -0.1411
   76MOL0     C10151   7.228  11.271   5.522 -0.0755  0.8509 -0.6441
   76MOL0     C10152   7.133  11.236   5.429 -0.2073 -0.6297 -0.2966
   76MOL0     C10153   7.015  11.165   5.467 -0.8720  0.6589 -0.5202
   76MOL0     C10154   6.913  11.120   5.376  1.2076  0.3783 -0.2565
   76MOL0     O10155   6.888  10.984   5.374  0.1245  0.2592  0.0454
   76MOL0     C10156   6.848  10.909   5.264 -0.0192 -0.9635 -0.3457
   76MOL0     C10157   6.822  10.961   5.135  0.0715 -0.1910 -0.4019
   76MOL0     C10158   6.777  10.871   5.037 -0.3122  0.8252 -1.2138
   76MOL0     C10159   6.752  10.724   5.064 -0.3217  0.3151  0.1165
   76MOL0     O10160   6.712  10.639   4.964 -0.9508  0.1578  0.2127
   76MOL0     C10161   6.754  10.659   4.827 -0.0917  0.3934  0.0342
   76MOL0     C10162   6.727  10.538   4.753  0.6705 -0.8462 -0.7126
   76MOL0     C10163   6.581  10.509   4.745  0.6959  0.1671  0.0135
   76MOL0     C10164   6.569  10.375   4.665  0.5533  0.1200  0.1692
   76MOL0     C10165   6.435  10.304   4.664  0.2822 -0.2334 -0.1219
   76MOL0     C10166   6.337  10.381   4.566 -0.0671 -0.1126 -0.6917
   76MOL0     C10167   6.205  10.294   4.538 -0.3260  0.3842  0.1182
   76MOL0     C10168   6.222  10.173   4.442  0.2681  0.2042 -0.1936
   76MOL0    Cl10169   6.072  10.080   4.468  0.2820  0.1631 -0.0702
   76MOL0     C10170   6.798  10.671   5.185  0.1565 -0.6829  0.2669
   76MOL0     C10171   6.839  10.765   5.282  0.3779  0.7384  0.1239
   76MOL0     O10172   6.866  11.208   5.301  0.3773 -0.2117 -0.3692
   76MOL0     C10173   7.023  11.112   5.599  0.5041  0.5694  0.3638
   76MOL0     C10174   7.119  11.149   5.695  0.4766 -0.4687 -0.3527
   76MOL0     N10175   7.852  11.114   5.401 -0.1804  0.1392  0.4950
   76MOL0     N10176   7.872  11.027   5.302  0.4398 -0.4504  0.3537
   76MOL0     C10177   8.606  11.085   4.975 -0.6806 -0.9734  0.1808
   76MOL0     C10178   8.739  11.088   4.930  1.0370  1.1857 -0.1562
   76MOL0     C10179   9.215  11.090   4.974 -0.2177 -0.5706 -0.5645
   76MOL0     C10180   9.209  11.011   4.858  0.5160 -0.5583  0.6589
   76MOL0     C10181   9.316  10.956   4.794 -0.2797 -0.0918 -0.5208
   76MOL0     C10182   9.454  10.977   4.852  0.5296  0.3259  0.2941
   76MOL0     O10183   9.569  10.930   4.803  0.3926 -0.4395 -0.2659
   76MOL0     C10184   9.565  10.839   4.689  1.1892 -0.2251 -0.3077
   76MOL0     C10185   9.683  10.739   4.695 -0.5732 -0.1199  0.2439
   76MOL0     C10186   9.692  10.653   4.564  0.8520 -0.2995 -0.7780
   76MOL0     C10187   9.803  10.547   4.575 -1.3852 -0.2439  0.2413
   76MOL0     C10188   9.917  10.589   4.665 -0.9351  0.0807  0.1905
   76MOL0     C10189  10.010  10.624   4.737 -0.7160 -0.0025  0.4247
   76MOL0     C10190   9.464  11.069   4.949  0.7186 -0.2857 -0.4636
   76MOL0     C10191   9.346  11.115   5.020 -0.8041 -0.1976  1.1122
   76MOL0     C10192   9.380  11.201   5.130  0.0883  0.5238  0.1926
   76MOL0     H10193   8.884  11.121   5.232 -1.1491  0.7611  0.0694
   76MOL0     H10194   8.677  11.129   5.307  2.5512 -1.8266  0.5434
   76MOL0     H10195   8.250  11.027   5.130  0.1562  2.3103 -0.7621
   76MOL0     H10196   8.352  11.030   5.000 -2.5785  0.4691  0.2953
   76MOL0     H10197   8.449  10.878   5.237  3.0516  0.1639 -0.5884
   76MOL0     H10198   8.470  10.825   5.070 -2.2275 -1.5905 -1.2761
   76MOL0     H10199   8.253  10.768   5.273 -0.5263  0.4092  0.7127
   76MOL0     H10200   8.331  10.657   5.151  3.0047  1.3320 -2.0469
   76MOL0     H10201   8.126  10.858   5.058  0.5526  0.6507 -2.0024
   76MOL0     H10202   8.198  10.733   4.969  0.4269  1.3719 -0.3347
   76MOL0     H10203   7.967  10.694   5.053  1.5768  2.2605 -0.8567
   76MOL0     H10204   8.068  10.574   5.110  0.2488  0.3420 -2.7608
   76MOL0     H10205   8.066  10.656   5.342  0.5360  1.7578  0.0398
   76MOL0     H10206   8.035  10.815   5.288  2.5320 -0.8691  1.1077
   76MOL0     H10207   7.841  10.660   5.394  1.3179  1.8600  1.1603
   76MOL0     H10208   7.839  10.599   5.228 -5.1654 -1.9736  3.1046
   76MOL0     H10209   7.787  10.822   5.139  1.7179 -1.4858 -0.3293
   76MOL0     H10210   7.666  10.773   5.259  0.4016 -2.1704 -0.3022
   76MOL0     H10211   7.646  10.886   5.486 -1.9692  0.2073 -1.7282
   76MOL0     H10212   7.773  11.097   5.689  2.2179 -0.7081 -1.1479
   76MOL0     H10213   7.747  11.242   5.598  1.8446 -1.4103  2.7703
   76MOL0     H10214   7.518  11.221   5.568 -1.1092 -1.0850 -0.3115
   76MOL0     H10215   7.507  11.049   5.595 -2.2557  0.6558 -0.5596
   76MOL0     H10216   7.599  11.256   5.800  1.1137 -0.7689 -0.0906
   76MOL0     H10217   7.589  11.084   5.812  2.7900 -0.2875 -2.4387
   76MOL0     H10218   7.407  11.187   5.915  1.8072 -0.2424  0.2204
   76MOL0     H10219   7.366  11.075   5.785  0.6988 -0.3155 -1.9246
   76MOL0     H10220   7.320  11.321   5.492  2.0200 -0.4976  2.8495
   76MOL0     H10221   7.162  11.281   5.335  1.6555  4.0750  2.1756
   76MOL0     H10222   6.821  11.069   5.124  0.7613  0.1756  2.3336
   76MOL0     H10223   6.757  10.923   4.944 -0.5401  2.1055 -0.4848
   76MOL0     H10224   6.701  10.738   4.774  2.1670  0.4878 -2.2688
   76MOL0     H10225   6.862  10.677   4.820  0.3506 -1.9328 -0.1100
   76MOL0     H10226   6.772  10.552   4.654  3.8642 -2.2252  0.3974
   76MOL0     H10227   6.773  10.450   4.800 -0.8057 -1.9460 -1.2489
   76MOL0     H10228   6.542  10.506   4.847  2.2321  2.0811  0.7256
   76MOL0     H10229   6.526  10.586   4.690  0.7185  0.5249  0.4794
   76MOL0     H10230   6.639  10.298   4.696  1.3683  0.0746 -1.6386
   76MOL0     H10231   6.601  10.380   4.560  0.4906  0.1016  0.1483
   76MOL0     H10232   6.393  10.291   4.764 -1.8837 -3.1359 -1.2426
   76MOL0     H10233   6.460  10.203   4.629  0.6549  0.1673 -1.0659
   76MOL0     H10234   6.301  10.470   4.618  2.1245  0.7965 -0.5931
   76MOL0     H10235   6.376  10.432   4.477  1.5096  0.6774  0.3944
   76MOL0     H10236   6.136  10.358   4.482  1.1145  0.5678 -1.5609
   76MOL0     H10237   6.161  10.248   4.627  2.0207  0.4249  1.3608
   76MOL0     H10238   6.227  10.197   4.335 -2.8722 -0.2953 -0.5396
   76MOL0     H10239   6.311  10.112   4.462  1.0033  0.4020 -2.5872
   76MOL0     H10240   6.811  10.567   5.215  2.0218 -0.1446  1.4768
   76MOL0     H10241   6.853  10.735   5.386 -1.0725 -0.0829  0.1112
   76MOL0     H10242   6.940  11.056   5.640 -0.1316  1.2650  0.0420
   76MOL0     H10243   7.105  11.129   5.801 -0.4888  1.1696 -0.1250
   76MOL0     H10244   8.533  11.058   4.899 -1.0406 -2.7353  1.0912
   76MOL0     H10245   8.750  11.068   4.824 -2.0547  0.6570 -0.4946
   76MOL0     H10246   9.110  10.992   4.818 -1.1904 -0.3691  4.3887
   76MOL0     H10247   9.300  10.897   4.704 -0.5131  3.4129 -2.9826
   76MOL0     H10248   9.576  10.887   4.591 -2.1446  1.1179 -0.1537
   76MOL0     H10249   9.472  10.783   4.681 -0.2024  1.4758  2.3562
   76MOL0     H10250   9.668  10.668   4.777 -0.1401  2.1365  2.3757
   76MOL0     H10251   9.771  10.802   4.711 -1.9658  1.3440  2.6036
   76MOL0     H10252   9.717  10.723   4.484  1.7976 -1.2896 -1.3695
   76MOL0     H10253   9.598  10.603   4.536  0.4005 -0.0358  0.2451
   76MOL0     H10254   9.761  10.456   4.619  1.2890 -2.3406 -1.2297
   76MOL0     H10255   9.844  10.506   4.482 -0.1096  1.2705  0.0957
   76MOL0     H10256  10.102  10.641   4.790 -0.3875 -2.2935  0.6813
   76MOL0     H10257   9.565  11.089   4.983 -0.1115  1.9677  0.8503
   76MOL0     H10258   9.309  11.285   5.131 -1.8445 -1.0207  1.8327
   76MOL0     H10259   9.369  11.155   5.228  1.1800  0.8950  0.5016
   76MOL0     H10260   9.480  11.240   5.108  0.4118  0.0330  0.7806
   77MOL0     O10261   5.745   5.542   3.636 -0.5787 -0.0917  0.1703
   77MOL0     C10262   5.638   5.590   3.675  0.0838 -0.1958  0.9017
   77MOL0     O10263   5.569   5.693   3.612  0.4851 -0.1881  0.5825
   77MOL0     C10264   5.625   5.751   3.490  0.5483 -0.0993 -1.2722
   77MOL0     C10265   5.543   5.779   3.379  0.7629 -0.7956 -1.0119
   77MOL0     C10266   5.587   5.840   3.257  0.9624  0.4479  0.5259
   77MOL0     C10267   5.720   5.875   3.261  0.4737  0.6214  0.2176
   77MOL0     O10268   5.791   5.928   3.159 -0.0885 -0.1544 -0.3631
   77MOL0     C10269   5.737   5.879   3.030 -0.4285 -0.8918  0.0312
   77MOL0     C10270   5.846   5.894   2.932  0.3635  0.0639  0.7449
   77MOL0     C10271   5.860   6.043   2.901 -0.3726  0.8190  0.7376
   77MOL0     C10272   5.751   6.099   2.798  1.0170  0.3178  0.5159
   77MOL0     C10273   5.802   6.226   2.729 -0.2208 -0.1018 -1.3769
   77MOL0     C10274   5.693   6.296   2.648  0.2259  0.5547  0.0994
   77MOL0     C10275   5.746   6.418   2.561  0.2453  0.5428 -0.8595
   77MOL0     C10276   5.771   6.550   2.641 -0.3483 -0.0020 -0.3495
   77MOL0     N10277   5.826   6.657   2.558 -0.1360  0.0514  1.0110
   77MOL0     C10278   5.766   6.721   2.453 -0.4633 -0.3594 -0.1456
   77MOL0     C10279   5.867   6.793   2.393 -0.6690 -0.9394  0.2379
   77MOL0     C10280   5.842   6.876   2.273 -0.3572 -0.0391  1.0762
   77MOL0     C10281   5.943   6.993   2.264 -0.8406  0.6110  1.1294
   77MOL0     C10282   5.903   7.081   2.143 -0.2421  0.2977 -0.6021
   77MOL0     C10283   5.938   7.015   2.010  0.3577 -0.5645 -0.4704
   77MOL0     O10284   5.931   7.115   1.906 -0.3977 -0.1492 -0.2275
   77MOL0     C10285   5.942   7.060   1.777 -0.3067  0.3313 -0.1209
   77MOL0     C10286   6.052   7.087   1.691  0.2051 -0.0020 -0.7028
   77MOL0     C10287   6.061   7.040   1.568 -0.0836  0.6443 -0.1143
   77MOL0     C10288   5.964   6.964   1.512 -0.5012 -0.7295  0.1937
   77MOL0     C10289   5.984   6.906   1.378 -0.8163  0.0745 -0.5584
   77MOL0     O10290   6.104   6.926   1.317 -0.5625 -0.3380 -0.6901
   77MOL0     C10291   6.127   6.868   1.200 -0.5229  0.0939  0.1005
   77MOL0     C10292   6.123   6.732   1.193 -0.0263 -0.1257  0.0754
   77MOL0     C10293   6.149   6.677   1.071  0.7265  0.2853 -0.4603
   77MOL0     C10294   6.155   6.752   0.955 -0.1843 -0.6380  0.8775
   77MOL0     O10295   6.168   6.694   0.826 -0.3124 -0.1919 -0.5043
   77MOL0     C10296   6.202   6.788   0.712 -0.0226  1.0279  0.3433
   77MOL0     C10297   6.264   6.693   0.607  0.5793  0.5459 -0.4282
   77MOL0     C10298   6.302   6.744   0.468  0.4717 -0.6462 -0.1335
   77MOL0     C10299   6.369   6.640   0.381 -0.0466  0.1553  0.2591
   77MOL0     C10300   6.354   6.662   0.229 -0.4792  0.0787 -0.5260
   77MOL0     C10301   6.389   6.799   0.194 -0.1337 -0.3148 -0.0104
   77MOL0     C10302   6.371   6.822   0.042 -0.2884  1.0377 -0.4364
   77MOL0     C10303   6.395   6.958  -0.014 -0.2298  0.3911 -0.1588
   77MOL0    Cl10304   6.393   6.955  -0.193 -0.5269 -0.1791  0.1604
   77MOL0     C10305   6.142   6.892   0.958  0.3774 -0.3926  0.5525
   77MOL0     C10306   6.139   6.953   1.083 -0.2973 -0.0052  0.5779
   77MOL0     O10307   5.891   6.846   1.325  0.6174  0.1991 -0.6701
   77MOL0     C10308   5.843   6.936   1.591  0.9659 -0.6679  0.4476
   77MOL0     C10309   5.836   6.982   1.725 -0.3429 -0.4943  1.2199
   77MOL0     N10310   5.987   6.767   2.465  0.0781 -0.5721  0.5281
   77MOL0     N10311   5.954   6.704   2.569 -1.6382 -0.7451 -0.2095
   77MOL0     C10312   5.804   5.859   3.377 -0.2073  0.9468  0.0080
   77MOL0     C10313   5.754   5.784   3.484 -0.0061 -0.8175  0.4737
   77MOL0     C10314   5.571   5.536   3.796  0.0042 -0.5340 -0.2662
   77MOL0     C10315   5.460   5.614   3.841  1.2062 -0.4158 -0.8091
   77MOL0     C10316   5.380   5.566   3.938  1.3048  0.4356  0.0298
   77MOL0     C10317   5.406   5.441   4.004 -0.0346 -0.2799  1.0321
   77MOL0     O10318   5.330   5.400   4.107 -0.2657  0.4862  0.2966
   77MOL0     C10319   5.185   5.417   4.106  1.0085 -1.1301  0.0318
   77MOL0     C10320   5.138   5.511   4.220  0.6487 -1.2519  0.2761
   77MOL0     C10321   4.984   5.516   4.227  0.5192  0.3179  0.6689
   77MOL0     C10322   4.922   5.582   4.351  0.3776 -0.6671 -0.2858
   77MOL0     C10323   4.964   5.724   4.350 -0.0163  0.6043  0.8652
   77MOL0     C10324   5.000   5.843   4.367 -0.3638  0.6509 -0.3711
   77MOL0     C10325   5.521   5.370   3.960 -0.4219  1.3209 -0.4662
   77MOL0     C10326   5.593   5.405   3.847 -0.4351  0.2784 -1.2916
   77MOL0     C10327   5.703   5.325   3.795 -0.3773  0.4710 -0.0795
   77MOL0     H10328   5.436   5.771   3.397  1.0188 -3.0552 -0.2702
   77MOL0     H10329   5.518   5.863   3.177  0.5458  0.9026  1.0126
   77MOL0     H10330   5.706   5.775   3.044 -1.5216 -0.7084 -0.8519
   77MOL0     H10331   5.648   5.937   3.003 -0.4307 -0.9272 -0.0358
   77MOL0     H10332   5.817   5.846   2.838 -2.1932  3.9281 -0.6654
   77MOL0     H10333   5.938   5.858   2.979 -0.2759  1.3974  3.2014
   77MOL0     H10334   5.958   6.058   2.856 -1.6340  2.2406 -1.7578
   77MOL0     H10335   5.856   6.107   2.990  0.4727  0.2701  1.1912
   77MOL0     H10336   5.710   6.031   2.723 -0.0732  0.3572  1.0541
   77MOL0     H10337   5.665   6.138   2.854 -0.5894  1.5837 -2.6402
   77MOL0     H10338   5.838   6.301   2.801 -0.3438  2.6133 -3.9119
   77MOL0     H10339   5.885   6.197   2.663  0.1046 -1.5839 -0.3490
   77MOL0     H10340   5.660   6.230   2.567  0.8395  0.5724 -0.1697
   77MOL0     H10341   5.599   6.315   2.701 -0.7364 -1.2151 -0.8715
   77MOL0     H10342   5.674   6.448   2.484  0.4404 -1.5275 -1.9257
   77MOL0     H10343   5.842   6.393   2.515 -0.3440 -1.7651 -0.9341
   77MOL0     H10344   5.673   6.572   2.685  0.9379  0.7935  2.2838
   77MOL0     H10345   5.840   6.529   2.723 -0.2087  1.2932 -0.1235
   77MOL0     H10346   5.668   6.706   2.410  0.2625 -0.9039 -1.7113
   77MOL0     H10347   5.855   6.814   2.184  1.8890 -0.2607  1.4904
   77MOL0     H10348   5.742   6.920   2.282 -0.3083  0.5740 -1.0339
   77MOL0     H10349   5.949   7.055   2.354 -1.2326  0.1723  1.4650
   77MOL0     H10350   6.047   6.960   2.256 -0.7826  0.2670  3.0356
   77MOL0     H10351   5.953   7.178   2.149 -1.2859  0.8667 -0.8191
   77MOL0     H10352   5.795   7.101   2.138 -0.0680  1.5718  0.1214
   77MOL0     H10353   5.868   6.933   1.993  1.0287 -0.8163 -2.2117
   77MOL0     H10354   6.041   6.978   2.019 -0.4231 -2.4401  1.5376
   77MOL0     H10355   6.123   7.162   1.724 -0.8835 -0.0966  2.1613
   77MOL0     H10356   6.139   7.077   1.503 -0.5781 -0.8348 -1.6014
   77MOL0     H10357   6.110   6.663   1.275  2.7719 -1.0748 -0.1567
   77MOL0     H10358   6.144   6.571   1.049  0.1735  0.3164 -0.5027
   77MOL0     H10359   6.111   6.831   0.668 -0.7964 -1.1701 -0.3461
   77MOL0     H10360   6.279   6.858   0.744  1.7091 -0.9424  0.6709
   77MOL0     H10361   6.361   6.664   0.649  0.9196  1.3459 -0.6402
   77MOL0     H10362   6.195   6.609   0.597  0.0761  0.8885  0.0937
   77MOL0     H10363   6.207   6.764   0.417 -2.4275 -1.5774  4.3107
   77MOL0     H10364   6.346   6.844   0.467  2.0542 -1.3012 -2.1416
   77MOL0     H10365   6.327   6.539   0.391  0.5205 -0.2553 -1.1583
   77MOL0     H10366   6.475   6.635   0.408 -0.5355 -0.6812  2.1942
   77MOL0     H10367   6.251   6.634   0.206 -0.4756  0.3014 -0.8218
   77MOL0     H10368   6.425   6.604   0.169  2.6195  0.8304  2.1518
   77MOL0     H10369   6.331   6.877   0.244  1.9043  2.1908 -1.3173
   77MOL0     H10370   6.495   6.824   0.209 -0.4368  0.2763  1.3298
   77MOL0     H10371   6.270   6.802   0.005 -0.3501 -1.3187  0.8041
   77MOL0     H10372   6.453   6.766  -0.005  0.5826  3.2384 -1.6815
   77MOL0     H10373   6.325   7.032   0.024 -1.3035 -0.3431 -0.6426
   77MOL0     H10374   6.494   6.997   0.011  0.8179 -1.0614 -1.8014
   77MOL0     H10375   6.144   6.955   0.869 -0.7955 -2.3123 -0.9249
   77MOL0     H10376   6.136   7.061   1.092  0.6296 -0.1040  2.3923
   77MOL0     H10377   5.756   6.891   1.545  0.7443  2.0091 -2.0017
   77MOL0     H10378   5.744   6.970   1.780  1.1382 -1.2176  3.6647
   77MOL0     H10379   5.909   5.884   3.368  0.2150 -0.0047  1.8231
   77MOL0     H10380   5.822   5.759   3.565  0.0348 -0.0677  0.6826
   77MOL0     H10381   5.435   5.712   3.802 -2.1816  0.1470  2.2772
   77MOL0     H10382   5.306   5.641   3.963  0.8357  0.5099 -1.4739
   77MOL0     H10383   5.134   5.321   4.120 -0.9167 -0.6049 -2.5610
   77MOL0     H10384   5.142   5.452   4.012  2.7997  0.1987 -0.3305
   77MOL0     H10385   5.162   5.614   4.190  4.0613 -1.2775  2.3546
   77MOL0     H10386   5.181   5.492   4.319 -1.7313  1.2068  1.9193
   77MOL0     H10387   4.954   5.411   4.224 -0.1519  0.5012  0.7599
   77MOL0     H10388   4.935   5.558   4.139  0.4997  0.1201  0.5868
   77MOL0     H10389   4.813   5.574   4.359  0.0951 -0.1575 -2.7941
   77MOL0     H10390   4.972   5.537   4.437  4.5502 -0.2105 -2.2184
   77MOL0     H10391   5.048   5.937   4.385 -0.2818  0.6739 -0.7045
   77MOL0     H10392   5.548   5.281   4.015  0.6385  2.0652  0.2327
   77MOL0     H10393   5.691   5.221   3.827 -1.0678  0.7657  0.6502
   77MOL0     H10394   5.700   5.322   3.686 -0.2399  1.1213 -0.1045
   77MOL0     H10395   5.799   5.357   3.837 -1.1493  0.5881  1.7188
   78MOL0     O10396   4.901   7.692  10.439 -0.1570 -0.2294 -0.5417
   78MOL0     C10397   5.018   7.714  10.415  0.8773  0.0292  0.2889
   78MOL0     O10398   5.100   7.784  10.497 -0.5332  0.3384 -0.3419
   78MOL0     C10399   5.063   7.831  10.626 -0.9465  1.2802 -0.4585
   78MOL0     C10400   5.155   7.789  10.736  0.4613 -0.2186  0.7641
   78MOL0     C10401   5.143   7.849  10.861  0.1916 -0.6049  0.2578
   78MOL0     C10402   5.034   7.932  10.888  0.3061  0.8130  0.4248
   78MOL0     O10403   5.019   7.999  11.008 -0.6329  0.6700 -1.1425
   78MOL0     C10404   4.966   8.131  11.011 -1.1264  0.1699  0.2496
   78MOL0     C10405   5.059   8.235  10.946  0.5086 -0.3195  1.0797
   78MOL0     C10406   5.003   8.370  10.968 -0.4951 -0.7285  0.2848
   78MOL0     C10407   5.071   8.484  10.879 -0.7471  0.2747  0.1886
   78MOL0     C10408   5.014   8.618  10.917  0.4113 -0.2507 -0.6744
   78MOL0     C10409   5.094   8.728  10.853 -0.2728  0.0300  0.3259
   78MOL0     C10410   5.020   8.864  10.868 -0.0111  0.8481  0.0484
   78MOL0     C10411   5.094   8.945  10.973 -0.5128 -0.1437 -0.3487
   78MOL0     N10412   5.015   9.063  10.992 -0.2912 -0.0569 -0.5605
   78MOL0     C10413   5.010   9.172  10.906 -0.3632  0.6130 -0.5022
   78MOL0     C10414   4.973   9.280  10.972 -0.4393  0.7155  0.5108
   78MOL0     C10415   4.959   9.417  10.910  0.6483 -0.3621 -0.3878
   78MOL0     C10416   5.073   9.499  10.948  0.1502 -0.2627 -0.3427
   78MOL0     C10417   5.099   9.616  10.858  0.1115  1.0665  0.4552
   78MOL0     C10418   5.010   9.743  10.893  0.5147  0.4564  0.1537
   78MOL0     O10419   4.874   9.703  10.865  0.4484  0.1257 -0.3905
   78MOL0     C10420   4.825   9.714  10.741 -0.6089 -0.3337 -0.0588
   78MOL0     C10421   4.705   9.642  10.729 -0.1954 -0.7037 -1.5484
   78MOL0     C10422   4.649   9.615  10.602 -0.7542  0.3477 -0.0123
   78MOL0     C10423   4.704   9.676  10.490 -0.7405 -0.1534 -0.0844
   78MOL0     C10424   4.638   9.676  10.359 -0.1714  0.6524 -0.0252
   78MOL0     O10425   4.531   9.588  10.337  0.2555 -0.1770 -0.0733
   78MOL0     C10426   4.454   9.592  10.232  0.3857  0.7626 -0.0317
   78MOL0     C10427   4.418   9.711  10.167  0.5325  0.6838  0.6861
   78MOL0     C10428   4.334   9.720  10.059  0.6913 -0.3751 -0.3073
   78MOL0     C10429   4.271   9.604  10.016  0.0257  0.4764 -0.4105
   78MOL0     O10430   4.178   9.599   9.919  0.2838 -0.1097 -0.2322
   78MOL0     C10431   4.130   9.716   9.853  0.7275 -1.1887 -0.1153
   78MOL0     C10432   4.006   9.680   9.771 -0.3527 -0.0144  0.7117
   78MOL0     C10433   3.893   9.616   9.864 -0.2377  1.0576 -0.2320
   78MOL0     C10434   3.875   9.469   9.841 -0.6067  0.1984 -0.1237
   78MOL0     C10435   3.757   9.419   9.926  1.2683 -0.2114 -0.3039
   78MOL0     C10436   3.618   9.479   9.895 -0.0618  0.8033 -0.4259
   78MOL0     C10437   3.521   9.475  10.013 -0.3686 -0.1309 -0.0953
   78MOL0     C10438   3.390   9.533   9.971  0.6537 -0.6684 -0.7325
   78MOL0    Cl10439   3.406   9.701   9.929 -0.2140  0.2272 -0.0318
   78MOL0     C10440   4.304   9.480  10.077 -0.4502 -0.5885  1.0684
   78MOL0     C10441   4.387   9.470  10.190 -0.9103  0.0783 -0.9383
   78MOL0     O10442   4.686   9.750  10.277 -0.2324  0.0503 -0.7382
   78MOL0     C10443   4.823   9.750  10.499 -0.3235 -0.1931 -0.2610
   78MOL0     C10444   4.884   9.764  10.626 -0.0267 -0.5888 -0.9598
   78MOL0     N10445   4.939   9.242  11.106  0.2618 -0.7510  0.3629
   78MOL0     N10446   4.966   9.116  11.113  0.4185  0.0373  0.4836
   78MOL0     C10447   4.938   7.962  10.784 -0.7550  0.0110 -0.2390
   78MOL0     C10448   4.959   7.916  10.655  1.3866  0.8759 -0.0717
   78MOL0     C10449   5.072   7.683  10.280 -0.3071 -0.0888  0.2145
   78MOL0     C10450   5.129   7.795  10.222 -1.0358 -0.3810  0.3134
   78MOL0     C10451   5.189   7.785  10.095  1.0900 -0.1654 -0.0390
   78MOL0     C10452   5.200   7.666  10.034  0.6243  0.2731  0.3027
   78MOL0     O10453   5.284   7.651   9.931 -0.3297  0.2044 -0.4325
   78MOL0     C10454   5.300   7.519   9.861  0.7812 -0.5223  0.1996
   78MOL0     C10455   5.334   7.540   9.720 -0.1506  0.1078  0.3373
   78MOL0     C10456   5.387   7.408   9.649 -0.1674 -0.3925 -0.4889
   78MOL0     C10457   5.367   7.423   9.500  0.3655  0.2600 -0.2891
   78MOL0     C10458   5.443   7.319   9.431  1.1829  0.5707 -0.5172
   78MOL0     C10459   5.510   7.219   9.407  0.1112 -0.5216  1.3429
   78MOL0     C10460   5.134   7.554  10.098  0.2172 -1.0223  0.3435
   78MOL0     C10461   5.064   7.562  10.214  0.3272 -0.3189  0.0800
   78MOL0     C10462   4.968   7.454  10.246 -0.0517 -0.9745  0.3028
   78MOL0     H10463   5.240   7.723  10.719 -0.1305 -1.3720  1.9951
   78MOL0     H10464   5.217   7.843  10.941  0.2190  0.6953  0.3466
   78MOL0     H10465   4.861   8.122  10.981 -1.1314 -0.2098  0.3760
   78MOL0     H10466   4.963   8.150  11.118 -1.9881 -2.2488  0.7094
   78MOL0     H10467   5.063   8.222  10.838 -1.3608  2.8412  0.5034
   78MOL0     H10468   5.160   8.228  10.989 -0.1272  1.5989  3.1043
   78MOL0     H10469   5.023   8.381  11.075 -0.0023 -0.8745  0.2089
   78MOL0     H10470   4.894   8.371  10.963 -0.4616 -1.2936 -0.9546
   78MOL0     H10471   5.179   8.481  10.897 -0.7899  1.8345  0.8750
   78MOL0     H10472   5.058   8.464  10.772  1.9640  1.3577 -0.4370
   78MOL0     H10473   4.907   8.614  10.892  0.9390  0.8379 -3.4138
   78MOL0     H10474   5.024   8.636  11.025 -2.3101  0.9048 -0.5099
   78MOL0     H10475   5.194   8.736  10.897 -1.5514  3.8249  3.1233
   78MOL0     H10476   5.109   8.721  10.745 -1.4272  2.5468 -0.0599
   78MOL0     H10477   4.916   8.845  10.897  0.4447 -1.0500  0.5746
   78MOL0     H10478   5.009   8.914  10.771 -2.3967 -0.8650 -0.6653
   78MOL0     H10479   5.092   8.895  11.071  2.1857  1.5967  0.7316
   78MOL0     H10480   5.199   8.961  10.946 -0.2791  0.6654  0.9516
   78MOL0     H10481   5.034   9.165  10.800 -1.1014 -1.3697 -0.5783
   78MOL0     H10482   4.952   9.415  10.800 -0.7370  2.6717 -0.4727
   78MOL0     H10483   4.863   9.461  10.938  0.5948 -0.8120  0.1240
   78MOL0     H10484   5.053   9.545  11.045  1.3175 -0.6839  0.1061
   78MOL0     H10485   5.165   9.440  10.943  1.8620  2.2550 -0.1760
   78MOL0     H10486   5.096   9.582  10.754  1.4918  1.5438  0.2340
   78MOL0     H10487   5.197   9.664  10.869 -0.6197  3.2753 -1.7237
   78MOL0     H10488   5.024   9.831  10.829 -1.9213  2.2670  1.9234
   78MOL0     H10489   5.022   9.775  10.997 -0.2630  1.4396 -0.0485
   78MOL0     H10490   4.665   9.588  10.814  0.9997  1.4551  0.5044
   78MOL0     H10491   4.555   9.562  10.592 -0.3940 -0.5300  1.0292
   78MOL0     H10492   4.460   9.803  10.208 -1.4035  2.2672 -0.6832
   78MOL0     H10493   4.298   9.813  10.018  0.2557  0.7275  2.3929
   78MOL0     H10494   4.106   9.798   9.921  2.0598 -0.9527  0.0857
   78MOL0     H10495   4.207   9.766   9.795  1.8061  0.8519  2.8429
   78MOL0     H10496   3.949   9.762   9.727 -3.0244 -2.2749 -0.3966
   78MOL0     H10497   4.032   9.628   9.678 -0.4749 -2.1977  1.8285
   78MOL0     H10498   3.906   9.625   9.972 -3.3316 -0.9073  0.4090
   78MOL0     H10499   3.806   9.672   9.829 -0.4139  1.0077  0.1298
   78MOL0     H10500   3.956   9.408   9.882 -1.9957 -1.2242  0.6124
   78MOL0     H10501   3.853   9.438   9.739 -0.2574 -2.1385  0.4582
   78MOL0     H10502   3.782   9.444  10.029  0.1806  0.8555 -0.2872
   78MOL0     H10503   3.749   9.310   9.927 -1.9510 -0.0797 -1.3525
   78MOL0     H10504   3.632   9.576   9.847  4.6071  0.2412 -0.6856
   78MOL0     H10505   3.580   9.419   9.812  1.4198  1.6037 -1.7285
   78MOL0     H10506   3.558   9.538  10.095 -1.9810  1.8521 -0.7980
   78MOL0     H10507   3.501   9.376  10.054  0.1602 -0.4971 -0.7034
   78MOL0     H10508   3.350   9.474   9.888  2.2779 -2.3710 -0.3798
   78MOL0     H10509   3.333   9.513  10.063  1.1174 -4.4319 -1.0943
   78MOL0     H10510   4.258   9.386  10.048 -0.1862 -0.2034 -0.6902
   78MOL0     H10511   4.398   9.378  10.247 -2.7943  0.1910 -0.3248
   78MOL0     H10512   4.860   9.814  10.419  0.5516  0.2842  0.5185
   78MOL0     H10513   4.976   9.820  10.634 -0.4510 -0.0052  0.0734
   78MOL0     H10514   4.854   8.028  10.801 -2.4626 -2.8303  3.5303
   78MOL0     H10515   4.892   7.945  10.575  0.1023  1.4881  1.1732
   78MOL0     H10516   5.130   7.891  10.273 -2.3479  0.6565 -1.4704
   78MOL0     H10517   5.244   7.874  10.065 -2.7321  3.5097  2.6874
   78MOL0     H10518   5.214   7.452   9.867  0.2153  0.1257 -0.4985
   78MOL0     H10519   5.384   7.465   9.906  2.1073  1.1533 -0.1670
   78MOL0     H10520   5.413   7.615   9.727  2.3989 -2.3506 -0.4432
   78MOL0     H10521   5.258   7.589   9.658  1.8694  1.8843 -0.8801
   78MOL0     H10522   5.329   7.324   9.687  0.7901 -0.8419  0.0116
   78MOL0     H10523   5.492   7.381   9.662  0.1736  0.1255 -1.9043
   78MOL0     H10524   5.261   7.412   9.473  0.8960 -4.6752 -1.3083
   78MOL0     H10525   5.398   7.526   9.480 -2.5276  1.1338 -0.7976
   78MOL0     H10526   5.572   7.136   9.381 -0.3811 -0.2614 -0.8559
   78MOL0     H10527   5.119   7.458  10.050  1.0922 -1.5006  1.0091
   78MOL0     H10528   4.875   7.494  10.289  2.2010  2.4077  2.5502
   78MOL0     H10529   4.942   7.411  10.148 -3.2269  2.8903 -0.8364
   78MOL0     H10530   5.009   7.377  10.312 -1.2671  0.9055  3.4722
   79MOL0     O10531   0.973   9.843  10.102 -0.2677 -0.0822  0.0789
   79MOL0     C10532   0.897   9.853  10.194  0.0523  0.2388 -0.4170
   79MOL0     O10533   0.767   9.833  10.178  0.1403  0.4730 -0.1090
   79MOL0     C10534   0.729   9.796  10.050  0.4394  0.2721  0.1834
   79MOL0     C10535   0.721   9.663  10.006 -0.3227 -0.0599 -0.2359
   79MOL0     C10536   0.681   9.635   9.877 -0.1589  0.2310  0.7284
   79MOL0     C10537   0.639   9.728   9.776 -0.2967  0.2142 -0.7489
   79MOL0     O10538   0.614   9.703   9.645 -0.0721 -0.3691 -0.0263
   79MOL0     C10539   0.607   9.559   9.609 -0.7512 -0.1459 -1.8672
   79MOL0     C10540   0.546   9.536   9.478 -0.6103  0.4762  0.4282
   79MOL0     C10541   0.631   9.589   9.362 -0.3640  0.0564  0.4804
   79MOL0     C10542   0.606   9.535   9.221 -0.0193  0.1058  0.1896
   79MOL0     C10543   0.679   9.417   9.179  0.4879  0.8311 -0.1402
   79MOL0     C10544   0.678   9.397   9.026 -0.5894  0.3457 -0.0576
   79MOL0     C10545   0.738   9.264   8.975  0.6016 -1.3330 -0.3943
   79MOL0     C10546   0.884   9.281   8.923  0.5642  0.8304 -0.1364
   79MOL0     N10547   0.974   9.311   9.026 -0.4618  0.2531  0.4101
   79MOL0     C10548   1.017   9.434   9.061 -0.2185 -0.5748 -0.5045
   79MOL0     C10549   1.076   9.417   9.177 -0.0788  0.8055  1.1687
   79MOL0     C10550   1.126   9.534   9.260 -0.4446 -0.3678 -0.3801
   79MOL0     C10551   1.023   9.645   9.291  0.6440  1.4974 -0.3827
   79MOL0     C10552   1.078   9.782   9.243  0.0575  0.2187 -0.1909
   79MOL0     C10553   0.990   9.913   9.260  0.7386  0.0965 -0.9813
   79MOL0     O10554   0.943   9.916   9.396  0.3042 -0.5403  0.1649
   79MOL0     C10555   1.022   9.973   9.493  0.2022 -0.7359 -0.4557
   79MOL0     C10556   1.145  10.035   9.483 -0.9595 -0.1262  1.2468
   79MOL0     C10557   1.213  10.094   9.589  0.6742  0.2989 -0.9202
   79MOL0     C10558   1.154  10.094   9.719 -0.0312  0.5830  0.5570
   79MOL0     C10559   1.220  10.159   9.836  0.1297  0.2603  0.2977
   79MOL0     O10560   1.165  10.146   9.964 -0.0311  0.1971 -1.0011
   79MOL0     C10561   1.215  10.198  10.089 -0.2940 -0.0802  0.5298
   79MOL0     C10562   1.326  10.282  10.107  0.3661 -0.4745  0.6107
   79MOL0     C10563   1.357  10.336  10.230 -1.2839  0.8221  0.1228
   79MOL0     C10564   1.298  10.291  10.346  0.1146  0.1730 -0.5408
   79MOL0     O10565   1.344  10.353  10.461 -0.2036 -0.3038 -0.3027
   79MOL0     C10566   1.238  10.408  10.540 -0.7907  0.7088  0.0556
   79MOL0     C10567   1.289  10.541  10.599 -0.2707 -0.0275  0.4164
   79MOL0     C10568   1.280  10.659  10.500 -0.3812  0.0086  0.0792
   79MOL0     C10569   1.167  10.747  10.544  0.1246  0.8477  0.1871
   79MOL0     C10570   1.131  10.858  10.450  1.7287 -0.2020  0.9573
   79MOL0     C10571   1.220  10.989  10.425 -0.5706  0.0108 -0.2054
   79MOL0     C10572   1.226  11.076  10.549 -1.1378 -0.3752 -0.0348
   79MOL0     C10573   1.357  11.151  10.534  0.6907  0.5169  0.1975
   79MOL0    Cl10574   1.376  11.224  10.698 -0.0788 -0.3036 -0.4089
   79MOL0     C10575   1.184  10.207  10.336  0.5090 -1.3226 -0.5798
   79MOL0     C10576   1.137  10.168  10.201  0.3109  1.1275 -1.0092
   79MOL0     O10577   1.324  10.225   9.818  0.4565 -0.3280  1.0742
   79MOL0     C10578   1.033  10.025   9.731 -0.8349 -0.3607  0.6524
   79MOL0     C10579   0.965   9.973   9.617  0.4956 -0.5415  0.0465
   79MOL0     N10580   1.075   9.283   9.200 -0.2144  0.2467 -0.2503
   79MOL0     N10581   1.006   9.219   9.109  0.0551  0.8850  0.0238
   79MOL0     C10582   0.647   9.860   9.816 -0.3565 -0.2115 -0.0665
   79MOL0     C10583   0.684   9.894   9.956  0.2701  0.2806 -1.4833
   79MOL0     C10584   0.940   9.881  10.339  0.0836  0.1464 -0.7160
   79MOL0     C10585   0.834   9.908  10.432 -0.8161 -0.4581 -0.0815
   79MOL0     C10586   0.867   9.919  10.567  0.6709  0.2985  0.3205
   79MOL0     C10587   0.996   9.899  10.623  0.0318  0.3933 -0.5677
   79MOL0     O10588   1.029   9.913  10.760  0.3507  0.4216  0.9446
   79MOL0     C10589   1.078  10.037  10.804  0.0111 -0.5753  0.1000
   79MOL0     C10590   0.973  10.158  10.803 -0.1462  0.1003  0.3890
   79MOL0     C10591   1.014  10.299  10.850 -0.7948  0.6105  0.9490
   79MOL0     C10592   0.905  10.364  10.934 -0.4294  0.5592  0.0749
   79MOL0     C10593   0.909  10.299  11.068 -0.0061  0.2412  0.3597
   79MOL0     C10594   0.886  10.240  11.169  0.8686 -0.3289  0.1646
   79MOL0     C10595   1.094   9.875  10.528 -0.0169 -0.8983 -0.0481
   79MOL0     C10596   1.071   9.853  10.390  0.8472 -0.4929  1.1142
   79MOL0     C10597   1.179   9.803  10.305  0.2682 -0.5607  0.3929
   79MOL0     H10598   0.747   9.580  10.071  2.5657 -0.5076 -1.7755
   79MOL0     H10599   0.710   9.534   9.848 -0.5822  0.6141 -1.1360
   79MOL0     H10600   0.706   9.516   9.627 -0.2678  1.1831 -1.2275
   79MOL0     H10601   0.549   9.501   9.681  0.3900 -2.2413 -2.5556
   79MOL0     H10602   0.443   9.574   9.472 -1.7986 -2.4080  1.1821
   79MOL0     H10603   0.540   9.431   9.451  1.0357  0.7447 -1.1546
   79MOL0     H10604   0.739   9.584   9.379 -0.1659 -1.5517 -1.0265
   79MOL0     H10605   0.606   9.695   9.346 -1.2500 -0.4984 -2.1686
   79MOL0     H10606   0.499   9.517   9.216  0.0581 -0.4066  0.2981
   79MOL0     H10607   0.618   9.620   9.153 -2.6037  1.0640  0.8273
   79MOL0     H10608   0.787   9.416   9.199  0.4613  2.6193  0.2229
   79MOL0     H10609   0.636   9.330   9.230  0.7302  0.3280 -0.7807
   79MOL0     H10610   0.572   9.393   8.999 -1.3523 -1.3612  2.8027
   79MOL0     H10611   0.725   9.481   8.972  0.0459 -0.1999 -0.3718
   79MOL0     H10612   0.685   9.228   8.887  5.2763 -2.6311 -2.9973
   79MOL0     H10613   0.748   9.189   9.054  1.0299  1.4658  2.4166
   79MOL0     H10614   0.916   9.189   8.875  1.2249 -0.4904  2.6141
   79MOL0     H10615   0.883   9.364   8.852 -1.0753  2.0319  1.1919
   79MOL0     H10616   1.009   9.524   9.001  0.9534 -1.0448 -1.4111
   79MOL0     H10617   1.142   9.490   9.359  0.7416  2.0173  0.5535
   79MOL0     H10618   1.218   9.583   9.229 -1.2095  0.5436 -1.2824
   79MOL0     H10619   0.925   9.619   9.249  0.5959 -1.5490  1.2638
   79MOL0     H10620   1.018   9.650   9.400 -1.4960 -0.7670 -0.2628
   79MOL0     H10621   1.112   9.770   9.140  0.9787  0.6792  0.0455
   79MOL0     H10622   1.169   9.793   9.303 -1.1503  2.1943  1.4238
   79MOL0     H10623   0.903   9.911   9.193 -0.0087  0.6360 -0.0516
   79MOL0     H10624   1.038  10.008   9.233  0.0448  0.6188 -0.4233
   79MOL0     H10625   1.190  10.027   9.384  1.1992 -1.3008  2.2502
   79MOL0     H10626   1.306  10.149   9.576  3.1789 -2.8305  1.7834
   79MOL0     H10627   1.382  10.324  10.024  1.5492 -1.6781  0.7813
   79MOL0     H10628   1.432  10.414  10.237 -2.1463  1.6215  0.5649
   79MOL0     H10629   1.151  10.428  10.477  0.7085  1.9358 -1.7622
   79MOL0     H10630   1.210  10.346  10.625  2.0197  0.5583  0.9838
   79MOL0     H10631   1.232  10.560  10.690 -2.7583 -1.3339 -0.7670
   79MOL0     H10632   1.395  10.536  10.627 -0.2879 -2.9114  0.2910
   79MOL0     H10633   1.376  10.710  10.491  0.2969 -1.3590 -0.6962
   79MOL0     H10634   1.255  10.631  10.397 -2.8841  2.2799 -0.0417
   79MOL0     H10635   1.194  10.793  10.639 -0.0758  0.5525  0.3883
   79MOL0     H10636   1.082  10.678  10.555  1.7044 -1.7558 -2.3509
   79MOL0     H10637   1.036  10.899  10.486  0.9196 -0.6427 -0.6003
   79MOL0     H10638   1.113  10.812  10.352 -2.4847 -1.6704  2.2168
   79MOL0     H10639   1.310  10.947  10.379 -2.0161  0.8238 -4.1055
   79MOL0     H10640   1.168  11.047  10.349  0.8776  2.2752  0.4578
   79MOL0     H10641   1.238  11.009  10.635  2.1228 -0.9132 -0.7544
   79MOL0     H10642   1.141  11.143  10.562 -0.4567  0.9058 -1.8198
   79MOL0     H10643   1.433  11.075  10.515  0.9272 -0.4044  3.9919
   79MOL0     H10644   1.352  11.225  10.454  0.2953 -0.1206 -0.3784
   79MOL0     H10645   1.121  10.192  10.424  1.1723  3.2715  0.9739
   79MOL0     H10646   1.037  10.126  10.191 -0.1509  1.8692  0.2355
   79MOL0     H10647   0.982  10.017   9.826 -2.3549 -1.5727 -0.2224
   79MOL0     H10648   0.866   9.931   9.624  0.2842 -0.2361 -0.9746
   79MOL0     H10649   0.648   9.948   9.752 -3.0567 -0.2205 -0.2745
   79MOL0     H10650   0.668   9.994   9.994 -5.0458  0.4824 -3.3936
   79MOL0     H10651   0.739   9.940  10.391 -0.3549  1.0354 -0.0282
   79MOL0     H10652   0.800   9.945  10.649  1.7367  1.0512  0.9780
   79MOL0     H10653   1.172  10.069  10.757  0.6990  1.7507  2.8126
   79MOL0     H10654   1.097  10.023  10.911  0.0398  0.7882  0.2917
   79MOL0     H10655   0.885  10.131  10.864 -0.8053  2.5528  0.6068
   79MOL0     H10656   0.930  10.169  10.703 -2.4803 -2.5989  0.9321
   79MOL0     H10657   1.039  10.358  10.761 -0.0535 -3.0771 -1.5390
   79MOL0     H10658   1.108  10.291  10.906 -1.0662  2.2469  1.6946
   79MOL0     H10659   0.937  10.468  10.939  0.6898  0.3869 -2.1591
   79MOL0     H10660   0.803  10.356  10.896 -2.3371  2.3345  4.1851
   79MOL0     H10661   0.879  10.173  11.252  0.3698 -0.6965 -0.1755
   79MOL0     H10662   1.198   9.878  10.561 -0.0257 -2.6138  0.2286
   79MOL0     H10663   1.216   9.874  10.231  0.2577 -2.6075 -1.7087
   79MOL0     H10664   1.260   9.756  10.362 -0.4738 -2.5436 -0.0980
   79MOL0     H10665   1.157   9.720  10.237 -2.5334  1.5878 -1.5625
   80MOL0     O10666   4.476   9.429   5.207 -0.0121 -0.3207  0.0089
   80MOL0     C10667   4.498   9.485   5.100  0.7362 -0.2900 -1.2717
   80MOL0     O10668   4.403   9.540   5.019 -0.3696  0.5827 -0.2591
   80MOL0     C10669   4.276   9.525   5.065 -1.6143  0.4104  0.1536
   80MOL0     C10670   4.190   9.433   5.008  0.3258  0.0138 -0.1117
   80MOL0     C10671   4.059   9.425   5.062 -0.8905  0.4628  0.8453
   80MOL0     C10672   4.011   9.518   5.151  0.7494 -0.4191  0.0070
   80MOL0     O10673   3.876   9.509   5.157  0.2380  0.8806 -0.0377
   80MOL0     C10674   3.806   9.612   5.235 -0.1581  0.7549 -0.1853
   80MOL0     C10675   3.652   9.600   5.209  0.1524  0.1031 -0.0646
   80MOL0     C10676   3.574   9.724   5.266  0.0233 -0.7105 -0.2976
   80MOL0     C10677   3.604   9.740   5.421  0.9740  0.0530  0.4297
   80MOL0     C10678   3.537   9.870   5.470  0.5548  0.0397 -1.4317
   80MOL0     C10679   3.412   9.833   5.555  0.0760  0.1193 -0.1761
   80MOL0     C10680   3.321   9.947   5.581 -0.8319 -0.3001  0.4506
   80MOL0     C10681   3.210   9.926   5.680 -0.6818 -0.7734  0.4752
   80MOL0     N10682   3.274   9.913   5.814 -0.2593  0.2088 -0.4798
   80MOL0     C10683   3.323  10.012   5.894  0.0145 -0.8948  0.1007
   80MOL0     C10684   3.361   9.944   6.008  0.7559 -0.3888 -0.1406
   80MOL0     C10685   3.419  10.008   6.131  0.0237 -0.1207  0.1729
   80MOL0     C10686   3.566  10.043   6.109  0.1983 -0.0867  0.1692
   80MOL0     C10687   3.608  10.127   6.225  0.5027  0.6914  0.2516
   80MOL0     C10688   3.759  10.147   6.209  0.8983 -0.1196  0.1053
   80MOL0     O10689   3.828  10.021   6.196  0.3315  0.4730 -0.6062
   80MOL0     C10690   3.962  10.021   6.198 -1.0866 -0.4251 -0.7498
   80MOL0     C10691   4.038   9.935   6.286  0.2043 -0.7305 -0.0308
   80MOL0     C10692   4.172   9.940   6.302 -0.1342  0.7177 -0.9736
   80MOL0     C10693   4.240  10.040   6.226  0.7796  0.3210 -0.9179
   80MOL0     C10694   4.395  10.042   6.233  0.3782  0.8142  0.2070
   80MOL0     O10695   4.445  10.004   6.358 -1.1865 -0.3772 -0.3338
   80MOL0     C10696   4.584  10.022   6.376 -0.1517 -0.3516  0.0153
   80MOL0     C10697   4.673   9.917   6.390  0.3731  0.3412  0.7484
   80MOL0     C10698   4.807   9.937   6.417  0.4433  0.3042 -0.2582
   80MOL0     C10699   4.852  10.070   6.436 -0.3035 -0.6064 -0.7045
   80MOL0     O10700   4.977  10.103   6.495  0.6125 -0.3731 -0.0010
   80MOL0     C10701   5.054  10.005   6.566 -0.0916  0.6269 -0.8160
   80MOL0     C10702   5.178   9.947   6.494 -0.7521  0.0358 -0.6524
   80MOL0     C10703   5.263   9.864   6.588 -0.2313 -0.3839 -0.7926
   80MOL0     C10704   5.336   9.734   6.528  0.7483 -0.7838  0.5848
   80MOL0     C10705   5.457   9.682   6.601 -0.7432  0.3362 -0.0768
   80MOL0     C10706   5.485   9.536   6.583  0.1193  1.0351  0.4329
   80MOL0     C10707   5.603   9.486   6.662 -0.7779 -1.2407 -0.2657
   80MOL0     C10708   5.623   9.335   6.655  0.3340  0.5912 -0.4377
   80MOL0    Cl10709   5.770   9.297   6.750 -0.2526 -0.2145 -0.2752
   80MOL0     C10710   4.759  10.170   6.428 -0.3523  0.1394  0.3763
   80MOL0     C10711   4.630  10.149   6.407 -0.4675 -0.2960 -0.3755
   80MOL0     O10712   4.447  10.106   6.149  0.9508  0.1054 -0.1841
   80MOL0     C10713   4.166  10.112   6.124  0.9792  0.2458  0.1453
   80MOL0     C10714   4.033  10.109   6.114  0.9144  0.2962  0.1721
   80MOL0     N10715   3.338   9.808   5.984 -0.5394  0.4657  0.3006
   80MOL0     N10716   3.267   9.797   5.867  0.2103  0.1362 -0.0337
   80MOL0     C10717   4.098   9.612   5.210 -0.9016  0.2883  0.1406
   80MOL0     C10718   4.229   9.615   5.159 -0.7345 -0.2676  0.3930
   80MOL0     C10719   4.638   9.500   5.053  0.0997  1.3824 -0.9110
   80MOL0     C10720   4.659   9.479   4.914  0.3011  1.6563 -0.4421
   80MOL0     C10721   4.782   9.487   4.855  0.2666  0.3995  0.0767
   80MOL0     C10722   4.889   9.497   4.937  0.0716 -0.4764 -0.0831
   80MOL0     O10723   5.016   9.482   4.883  0.4438 -0.8623  0.2220
   80MOL0     C10724   5.067   9.607   4.833  0.0943  0.1130  0.4600
   80MOL0     C10725   5.146   9.590   4.709  0.4291 -0.1889 -0.1348
   80MOL0     C10726   5.270   9.513   4.754  0.9591  0.0214  0.4460
   80MOL0     C10727   5.392   9.535   4.665  0.3623  0.0903  0.8663
   80MOL0     C10728   5.452   9.409   4.625 -0.2011 -0.8698  0.8486
   80MOL0     C10729   5.502   9.306   4.580 -0.0675  0.2313 -1.1922
   80MOL0     C10730   4.880   9.509   5.068  0.4714 -0.9281  0.2632
   80MOL0     C10731   4.753   9.520   5.130 -0.0501 -0.1790 -0.0370
   80MOL0     C10732   4.753   9.560   5.276 -0.5742  0.6202  0.2739
   80MOL0     H10733   4.215   9.375   4.919 -0.9437  0.3722 -0.7356
   80MOL0     H10734   3.992   9.355   5.013 -0.6957  1.2305 -0.5831
   80MOL0     H10735   3.825   9.594   5.342 -3.2191 -1.2970  0.1566
   80MOL0     H10736   3.846   9.709   5.204 -0.2049  0.5618 -0.8627
   80MOL0     H10737   3.606   9.502   5.227 -1.9121  0.8313 -0.9952
   80MOL0     H10738   3.636   9.613   5.102  2.1402 -0.7239 -0.5088
   80MOL0     H10739   3.468   9.712   5.245 -0.3673  0.8877  0.6888
   80MOL0     H10740   3.606   9.812   5.209 -0.0882 -0.1594  0.4875
   80MOL0     H10741   3.573   9.664   5.493  1.6064  1.7800  2.6465
   80MOL0     H10742   3.710   9.754   5.442  0.4638  0.2238  3.2815
   80MOL0     H10743   3.596   9.925   5.543 -1.0783 -0.2611  0.1775
   80MOL0     H10744   3.492   9.930   5.390 -1.2792  0.7168  0.0270
   80MOL0     H10745   3.360   9.756   5.497 -1.4318  0.0886  1.1596
   80MOL0     H10746   3.435   9.787   5.651 -2.5547 -1.1744 -0.0971
   80MOL0     H10747   3.293   9.981   5.481  1.0892 -1.6951 -0.6272
   80MOL0     H10748   3.383  10.031   5.615 -0.9599  0.6344 -1.5182
   80MOL0     H10749   3.156  10.021   5.679  0.7960  0.1987 -2.6382
   80MOL0     H10750   3.151   9.837   5.658  0.1310 -0.9000 -1.3791
   80MOL0     H10751   3.329  10.119   5.883 -0.3820 -0.6897  1.6660
   80MOL0     H10752   3.362  10.099   6.155  0.1957  1.2288 -3.7583
   80MOL0     H10753   3.398   9.938   6.212 -3.6129 -1.4534 -1.6796
   80MOL0     H10754   3.629   9.956   6.091 -0.9389 -1.0426  0.6886
   80MOL0     H10755   3.555  10.103   6.017 -2.6891 -2.9198 -1.5359
   80MOL0     H10756   3.593  10.061   6.312  2.7191 -0.5208 -0.2104
   80MOL0     H10757   3.554  10.221   6.234 -2.7781 -1.1073  1.0819
   80MOL0     H10758   3.810  10.197   6.292  1.7923 -1.2317  0.2629
   80MOL0     H10759   3.773  10.198   6.113 -2.1736  0.9186  0.1037
   80MOL0     H10760   3.977   9.865   6.341  0.3144  1.0129  2.4738
   80MOL0     H10761   4.227   9.885   6.377  3.5331  1.3670 -2.9574
   80MOL0     H10762   4.635   9.820   6.359 -3.5050  1.1115  2.5249
   80MOL0     H10763   4.875   9.853   6.429 -0.8476 -0.8164 -0.5205
   80MOL0     H10764   5.097  10.040   6.660  2.6086  0.8785 -2.0372
   80MOL0     H10765   4.986   9.923   6.591  0.4215  0.3192 -0.3904
   80MOL0     H10766   5.152   9.897   6.400  0.9183  2.0460 -2.3050
   80MOL0     H10767   5.244  10.034   6.481 -0.5063  0.4619  2.5701
   80MOL0     H10768   5.339   9.919   6.644  0.6629 -2.0941 -0.2467
   80MOL0     H10769   5.189   9.838   6.664 -0.0181  1.3666  0.0620
   80MOL0     H10770   5.359   9.764   6.426  1.6294  1.3960  1.3673
   80MOL0     H10771   5.266   9.650   6.523 -1.6727  1.1934 -0.0897
   80MOL0     H10772   5.439   9.705   6.706 -1.0242  0.9040 -0.2461
   80MOL0     H10773   5.548   9.733   6.567  0.3120 -1.6273 -0.3319
   80MOL0     H10774   5.400   9.477   6.621  1.7047 -3.1039 -1.8421
   80MOL0     H10775   5.507   9.523   6.477 -0.1082 -0.9680  0.5925
   80MOL0     H10776   5.590   9.517   6.766 -1.0685 -2.1191 -0.0273
   80MOL0     H10777   5.689   9.542   6.625 -2.8534  2.5293  0.1876
   80MOL0     H10778   5.536   9.278   6.690  0.8791 -0.4213 -0.7095
   80MOL0     H10779   5.656   9.301   6.557  4.1006 -0.1134  0.9057
   80MOL0     H10780   4.799  10.265   6.460  2.0190 -1.4482  2.4803
   80MOL0     H10781   4.566  10.236   6.416 -1.1354 -0.5874 -1.9128
   80MOL0     H10782   4.226  10.180   6.064  2.3914 -0.7609  0.3645
   80MOL0     H10783   3.977  10.176   6.050  0.3222 -1.4552 -1.2215
   80MOL0     H10784   4.053   9.684   5.277 -2.1228 -0.1963 -0.1283
   80MOL0     H10785   4.298   9.686   5.203 -0.7947 -0.3471  0.6119
   80MOL0     H10786   4.572   9.458   4.853 -1.0372 -1.3047  2.1923
   80MOL0     H10787   4.796   9.479   4.748 -1.6161 -1.1588 -0.1130
   80MOL0     H10788   5.132   9.642   4.913 -0.2428  0.2583  0.6755
   80MOL0     H10789   4.993   9.684   4.808  1.3219  0.3469 -3.0045
   80MOL0     H10790   5.162   9.687   4.662 -2.2393  0.7924  0.7749
   80MOL0     H10791   5.106   9.515   4.640 -1.5421 -2.4993  3.1776
   80MOL0     H10792   5.254   9.407   4.774 -0.8377  0.4691  1.6714
   80MOL0     H10793   5.300   9.562   4.848  0.7660 -0.9760  1.0410
   80MOL0     H10794   5.358   9.602   4.586 -0.0570  0.5285  1.4054
   80MOL0     H10795   5.467   9.586   4.727  0.9433 -0.6411  0.7780
   80MOL0     H10796   5.556   9.218   4.550  1.7328  0.2493  1.6520
   80MOL0     H10797   4.967   9.526   5.130  1.1233  0.4708 -0.9720
   80MOL0     H10798   4.730   9.666   5.288 -2.1274  0.2229  1.0344
   80MOL0     H10799   4.680   9.512   5.342 -1.3855  1.7801  0.2406
   80MOL0     H10800   4.850   9.545   5.325  0.0732  1.5197 -0.6903
   81MOL0     O10801   0.889   8.467   6.784  0.2923 -0.1252 -0.0552
   81MOL0     C10802   0.822   8.419   6.693  0.1468 -0.4807  0.4112
   81MOL0     O10803   0.712   8.334   6.707  0.1066  0.0108 -0.1482
   81MOL0     C10804   0.662   8.314   6.833 -0.1254 -0.5394 -0.7453
   81MOL0     C10805   0.531   8.367   6.860 -1.0197  0.3796 -1.1155
   81MOL0     C10806   0.469   8.357   6.985  0.5355  0.0481  0.5906
   81MOL0     C10807   0.543   8.311   7.093  0.4253 -0.7523  0.5163
   81MOL0     O10808   0.484   8.313   7.219  0.1734  0.3383 -0.5977
   81MOL0     C10809   0.562   8.385   7.324  0.3109  0.0653 -1.6560
   81MOL0     C10810   0.544   8.323   7.474  0.0043  0.4739  0.1015
   81MOL0     C10811   0.626   8.187   7.496  0.4615 -0.3960  0.2606
   81MOL0     C10812   0.640   8.161   7.645  0.2810  0.0607  0.1909
   81MOL0     C10813   0.734   8.039   7.672  0.1634 -0.1993 -1.5499
   81MOL0     C10814   0.879   8.090   7.649  0.2349  0.0023 -0.4802
   81MOL0     C10815   0.960   7.984   7.718  0.9908 -0.7562  0.5034
   81MOL0     C10816   1.114   7.993   7.685 -0.4883 -0.0013  0.2719
   81MOL0     N10817   1.169   8.126   7.742  0.9585 -0.0271  0.0897
   81MOL0     C10818   1.151   8.253   7.684 -0.6536 -0.3172 -0.1098
   81MOL0     C10819   1.235   8.333   7.760 -0.5675  0.5684 -0.3433
   81MOL0     C10820   1.264   8.475   7.734 -0.2558 -0.0054  0.2004
   81MOL0     C10821   1.145   8.538   7.806  0.0957  0.0393  0.1230
   81MOL0     C10822   1.156   8.688   7.810 -0.5702 -0.8690 -0.3512
   81MOL0     C10823   1.019   8.760   7.828 -1.4068  0.9863 -0.4005
   81MOL0     O10824   1.040   8.903   7.810 -0.7493  0.7383 -0.5165
   81MOL0     C10825   0.926   8.979   7.825 -0.8337 -1.3307 -0.5875
   81MOL0     C10826   0.928   9.064   7.928  0.3154  0.3540 -0.6536
   81MOL0     C10827   0.810   9.130   7.957 -0.1244 -1.1702  0.1688
   81MOL0     C10828   0.694   9.123   7.884  0.6013  0.0975 -0.2369
   81MOL0     C10829   0.574   9.182   7.935  0.1560 -0.2911 -0.0072
   81MOL0     O10830   0.461   9.152   7.870  0.5440  0.7601 -0.4224
   81MOL0     C10831   0.341   9.183   7.932  0.5750  0.5946  1.3888
   81MOL0     C10832   0.238   9.189   7.838 -1.3172 -0.2246 -0.3075
   81MOL0     C10833   0.108   9.223   7.880  0.1293 -0.3478 -0.2587
   81MOL0     C10834   0.081   9.246   8.018 -0.2380  0.6931  0.4291
   81MOL0     O10835  -0.047   9.281   8.056 -0.4930 -0.4185 -0.8299
   81MOL0     C10836  -0.083   9.425   8.055 -0.3059 -0.5818 -0.8355
   81MOL0     C10837  -0.132   9.479   8.194 -0.3022  0.5691  0.2349
   81MOL0     C10838  -0.240   9.389   8.248 -0.2123 -0.0924  0.9071
   81MOL0     C10839  -0.292   9.455   8.381  0.7698  1.0323 -0.4356
   81MOL0     C10840  -0.334   9.344   8.483 -1.3652  0.4248 -0.1551
   81MOL0     C10841  -0.373   9.405   8.614 -0.0344 -0.7971  0.2161
   81MOL0     C10842  -0.517   9.468   8.615 -0.7661  0.0595  0.0213
   81MOL0     C10843  -0.567   9.502   8.757 -0.5526  0.1794  0.1919
   81MOL0    Cl10844  -0.483   9.638   8.831 -0.5832  0.1802 -0.2692
   81MOL0     C10845   0.185   9.234   8.116  0.4062  0.7252  0.1051
   81MOL0     C10846   0.313   9.193   8.068  0.1226 -0.0076  0.1142
   81MOL0     O10847   0.583   9.270   8.023  0.6736  0.2830 -0.4262
   81MOL0     C10848   0.696   9.039   7.767  0.0518  0.7326 -0.0154
   81MOL0     C10849   0.821   8.980   7.733  0.1906  0.3327  0.1984
   81MOL0     N10850   1.291   8.247   7.858 -0.2122 -0.2925  0.2917
   81MOL0     N10851   1.254   8.133   7.848 -0.6550 -0.5758  0.0704
   81MOL0     C10852   0.664   8.246   7.077 -0.3115  0.6477 -0.6654
   81MOL0     C10853   0.725   8.258   6.943 -0.2291  1.0154  0.3062
   81MOL0     C10854   0.869   8.432   6.549 -0.8568  0.5251  0.9963
   81MOL0     C10855   0.969   8.524   6.524 -0.6813  0.8300  0.0441
   81MOL0     C10856   1.038   8.530   6.406 -0.1977  0.5475  0.1886
   81MOL0     C10857   1.003   8.459   6.293  0.0799 -0.2782  0.2993
   81MOL0     O10858   1.071   8.487   6.180 -0.0375 -0.2560  0.6219
   81MOL0     C10859   1.014   8.445   6.053  0.5947  0.0765  0.2176
   81MOL0     C10860   1.043   8.311   5.990  0.6079 -0.5746 -0.4873
   81MOL0     C10861   1.184   8.270   5.987 -0.6251  1.0122 -0.1167
   81MOL0     C10862   1.196   8.144   5.909 -0.3171  0.0922  0.5927
   81MOL0     C10863   1.181   8.149   5.767  0.4524 -0.4672 -0.5994
   81MOL0     C10864   1.170   8.152   5.651 -0.5190 -1.4441 -0.5990
   81MOL0     C10865   0.890   8.375   6.310 -0.5993  0.5979  0.0319
   81MOL0     C10866   0.824   8.358   6.436 -0.6248  0.1770  0.5473
   81MOL0     C10867   0.717   8.260   6.436  0.4575 -0.4109  0.3698
   81MOL0     H10868   0.477   8.427   6.788 -2.3996 -0.0359 -0.4551
   81MOL0     H10869   0.373   8.401   7.006  0.5757  0.0034  0.8721
   81MOL0     H10870   0.669   8.377   7.299  0.9455 -2.5543  1.3058
   81MOL0     H10871   0.549   8.493   7.332  1.8852  0.2239 -0.9019
   81MOL0     H10872   0.441   8.297   7.501  0.2869  0.5971  1.3545
   81MOL0     H10873   0.582   8.396   7.546 -2.2367 -1.2749  3.3187
   81MOL0     H10874   0.726   8.189   7.451  0.5034  2.6086  0.2709
   81MOL0     H10875   0.573   8.101   7.452  2.3280 -1.4436 -0.0442
   81MOL0     H10876   0.681   8.250   7.694  0.6430  0.6278 -1.1028
   81MOL0     H10877   0.538   8.134   7.675 -1.0070  3.6787 -0.4205
   81MOL0     H10878   0.716   8.013   7.777  0.4330  0.4004 -1.3465
   81MOL0     H10879   0.710   7.956   7.605 -2.0338  0.1433 -1.2399
   81MOL0     H10880   0.896   8.099   7.542  0.5892  0.8245 -0.3590
   81MOL0     H10881   0.906   8.187   7.692  1.1829  0.0259 -1.0750
   81MOL0     H10882   0.923   7.889   7.678 -3.1420  1.9510 -2.8435
   81MOL0     H10883   0.957   7.989   7.827  2.6833 -1.2771  0.6060
   81MOL0     H10884   1.160   7.908   7.735 -0.5676 -0.4799 -0.4572
   81MOL0     H10885   1.126   7.985   7.576  3.6896  0.4989  0.5666
   81MOL0     H10886   1.102   8.293   7.596 -2.5804  1.4767  1.6681
   81MOL0     H10887   1.363   8.510   7.765 -0.2936  1.0959 -0.8308
   81MOL0     H10888   1.246   8.494   7.628 -2.9160  0.0331  0.5850
   81MOL0     H10889   1.047   8.507   7.767  0.7904 -2.0098 -0.1351
   81MOL0     H10890   1.153   8.503   7.909  2.1453  0.7941  0.2572
   81MOL0     H10891   1.184   8.729   7.713 -1.8121  1.4554  0.1933
   81MOL0     H10892   1.238   8.722   7.875 -3.3000  3.1987  1.3865
   81MOL0     H10893   0.957   8.733   7.915  1.0487  2.8070  2.1161
   81MOL0     H10894   0.971   8.721   7.738 -0.8181  2.0151 -1.1749
   81MOL0     H10895   1.011   9.077   7.996 -0.6757  1.3087  0.4386
   81MOL0     H10896   0.802   9.203   8.037 -4.3115  2.2365 -2.8438
   81MOL0     H10897   0.257   9.169   7.733 -3.6660  0.0567 -0.8354
   81MOL0     H10898   0.032   9.241   7.804  1.6012  1.0647 -1.4848
   81MOL0     H10899   0.006   9.486   8.033 -0.3867  0.1432  0.6906
   81MOL0     H10900  -0.158   9.443   7.978  0.0586 -0.2726 -1.1241
   81MOL0     H10901  -0.040   9.467   8.252 -0.3938  2.3410  0.8085
   81MOL0     H10902  -0.165   9.583   8.197 -0.8884  0.3892  0.1115
   81MOL0     H10903  -0.324   9.385   8.178  0.7126  1.5024 -0.3644
   81MOL0     H10904  -0.193   9.291   8.256  1.2259 -0.1433 -4.2919
   81MOL0     H10905  -0.370   9.531   8.372  0.3466  0.8893  1.4913
   81MOL0     H10906  -0.209   9.510   8.427  2.8402 -1.6165 -0.7690
   81MOL0     H10907  -0.253   9.274   8.508 -2.5947 -0.6164  1.1024
   81MOL0     H10908  -0.413   9.283   8.440 -0.7431 -1.5839  1.3749
   81MOL0     H10909  -0.373   9.339   8.701 -1.7370  2.7256  3.1342
   81MOL0     H10910  -0.290   9.471   8.639 -0.9263 -0.3955  2.3049
   81MOL0     H10911  -0.585   9.390   8.580 -0.2081 -0.9763  1.1431
   81MOL0     H10912  -0.510   9.560   8.556 -0.3164 -0.4008 -0.6607
   81MOL0     H10913  -0.668   9.543   8.755 -0.2248  1.1112  1.4867
   81MOL0     H10914  -0.556   9.413   8.821  1.7272 -0.3164 -0.7762
   81MOL0     H10915   0.166   9.244   8.222  0.1994  0.4184  0.0985
   81MOL0     H10916   0.385   9.179   8.148 -0.7502 -0.1480  0.9032
   81MOL0     H10917   0.604   9.024   7.710  0.6218 -0.4704 -0.6483
   81MOL0     H10918   0.817   8.923   7.641 -0.6521  0.9392 -0.1546
   81MOL0     H10919   0.718   8.211   7.164 -1.3496 -1.0038 -0.6337
   81MOL0     H10920   0.824   8.222   6.917 -0.3659  1.5263 -1.0412
   81MOL0     H10921   1.007   8.590   6.601  2.2592 -1.1092  0.4330
   81MOL0     H10922   1.110   8.610   6.393 -0.9290  1.4553  1.5460
   81MOL0     H10923   1.057   8.516   5.981  4.6660 -1.3777  0.9328
   81MOL0     H10924   0.905   8.451   6.046  0.2910 -2.4095  1.6325
   81MOL0     H10925   0.999   8.326   5.891  0.4097  1.5371 -0.1111
   81MOL0     H10926   0.985   8.236   6.045 -0.5934 -0.4460 -1.5064
   81MOL0     H10927   1.218   8.249   6.089  2.4564 -1.5359 -1.4711
   81MOL0     H10928   1.248   8.351   5.950  0.3077  0.4210  0.1515
   81MOL0     H10929   1.292   8.098   5.937  0.8610  1.4123 -1.0694
   81MOL0     H10930   1.116   8.077   5.940  0.0250 -1.4175 -1.5943
   81MOL0     H10931   1.143   8.143   5.548 -0.8400 -1.5569 -0.5078
   81MOL0     H10932   0.868   8.306   6.229  5.1741 -0.0034 -1.4409
   81MOL0     H10933   0.688   8.200   6.349 -2.7210 -1.1226  1.7866
   81MOL0     H10934   0.734   8.184   6.512 -0.3877 -0.7252  0.2622
   81MOL0     H10935   0.628   8.317   6.466  2.2039  3.0558 -0.4648
   82MOL0     O10936   0.170   3.333   2.580 -0.3755  0.3518  0.2127
   82MOL0     C10937   0.115   3.408   2.656 -0.6163  0.1806 -0.3554
   82MOL0     O10938   0.139   3.540   2.665  0.2287 -0.2788  0.2555
   82MOL0     C10939   0.244   3.616   2.620  0.4742 -0.3169  0.4029
   82MOL0     C10940   0.357   3.567   2.556 -1.2244  0.2886 -0.3295
   82MOL0     C10941   0.458   3.647   2.514  0.1728  0.1214  0.2567
   82MOL0     C10942   0.453   3.788   2.543  0.2173 -0.4092  0.2159
   82MOL0     O10943   0.558   3.873   2.518 -0.1474  0.5368  0.2029
   82MOL0     C10944   0.625   3.857   2.396 -1.0479  0.7486 -0.1472
   82MOL0     C10945   0.704   3.983   2.351 -0.8456  0.5973 -0.3395
   82MOL0     C10946   0.611   4.107   2.376  0.1171 -0.6414 -0.5124
   82MOL0     C10947   0.482   4.130   2.304 -0.2629  1.0105 -0.2765
   82MOL0     C10948   0.430   4.263   2.311  0.7883 -0.6778  0.4459
   82MOL0     C10949   0.291   4.277   2.237  0.2680 -0.1066 -0.2099
   82MOL0     C10950   0.211   4.404   2.262 -0.7373 -0.2037 -0.2216
   82MOL0     C10951   0.146   4.402   2.400 -0.0391  1.2111 -0.1688
   82MOL0     N10952   0.036   4.314   2.406  0.3547  0.2330 -0.6787
   82MOL0     C10953   0.049   4.190   2.456  0.3671  0.2564  0.2962
   82MOL0     C10954  -0.071   4.135   2.419 -0.3217 -0.1827 -0.2099
   82MOL0     C10955  -0.108   3.991   2.462  0.3323  0.3572 -0.9824
   82MOL0     C10956  -0.210   3.926   2.370  0.2484  0.1690 -0.8300
   82MOL0     C10957  -0.253   3.778   2.407 -0.2819 -0.4364 -0.3609
   82MOL0     C10958  -0.382   3.722   2.359  0.0159  0.3345 -0.8055
   82MOL0     O10959  -0.389   3.581   2.351 -0.7163  0.2771 -0.1496
   82MOL0     C10960  -0.511   3.522   2.320 -0.1773 -0.3810 -0.1259
   82MOL0     C10961  -0.615   3.565   2.236 -0.3450 -0.3583  0.2795
   82MOL0     C10962  -0.738   3.503   2.221 -1.0308  0.4384 -1.5942
   82MOL0     C10963  -0.764   3.382   2.288 -0.0228  0.7192  0.4169
   82MOL0     C10964  -0.900   3.337   2.312  0.7716 -0.1791 -0.2699
   82MOL0     O10965  -0.984   3.356   2.204 -0.0171 -0.0298 -1.0634
   82MOL0     C10966  -1.114   3.334   2.234  0.3085 -0.2254  0.2304
   82MOL0     C10967  -1.184   3.244   2.153  0.2757 -0.3030  0.1824
   82MOL0     C10968  -1.319   3.215   2.178 -0.3314 -0.3332  0.8313
   82MOL0     C10969  -1.375   3.270   2.287 -0.1746 -0.1740 -0.6091
   82MOL0     O10970  -1.499   3.216   2.336 -0.2602  0.0588 -0.2622
   82MOL0     C10971  -1.525   3.066   2.326  0.3000 -0.3469 -0.5945
   82MOL0     C10972  -1.448   2.997   2.441  0.0650 -0.3635  0.6338
   82MOL0     C10973  -1.480   3.036   2.585 -0.3444  0.0672  1.8752
   82MOL0     C10974  -1.623   3.007   2.627  0.1642 -0.7132  0.7082
   82MOL0     C10975  -1.643   2.863   2.652  0.8462  0.0912 -0.9386
   82MOL0     C10976  -1.786   2.821   2.715 -0.0430  0.3252  0.2336
   82MOL0     C10977  -1.786   2.771   2.859  0.8442  0.5748 -1.2405
   82MOL0     C10978  -1.926   2.715   2.894 -0.1367  0.1979 -0.0874
   82MOL0    Cl10979  -1.945   2.545   2.831  0.2199 -0.2021  0.6217
   82MOL0     C10980  -1.317   3.362   2.370 -0.3827  0.7625 -0.8273
   82MOL0     C10981  -1.185   3.390   2.340 -0.4373 -0.4966  0.1930
   82MOL0     O10982  -0.931   3.285   2.423 -0.5736  0.5302  0.8630
   82MOL0     C10983  -0.667   3.341   2.378  0.0309 -0.6225  1.5166
   82MOL0     C10984  -0.541   3.409   2.394  0.6707  0.4333  0.0716
   82MOL0     N10985  -0.150   4.224   2.359 -0.2229  0.5181  0.2058
   82MOL0     N10986  -0.078   4.326   2.336 -0.4774  0.6804  0.3651
   82MOL0     C10987   0.339   3.840   2.609  1.1460  0.1952 -1.3706
   82MOL0     C10988   0.231   3.754   2.641 -0.1320 -0.6360 -0.2120
   82MOL0     C10989   0.012   3.355   2.754 -0.1482 -0.0770 -0.5406
   82MOL0     C10990  -0.087   3.449   2.804  1.0833  0.1373  0.2335
   82MOL0     C10991  -0.182   3.406   2.891 -0.7789  0.4672  0.3262
   82MOL0     C10992  -0.197   3.274   2.925  0.1558  0.6949 -0.5005
   82MOL0     O10993  -0.304   3.244   3.008  0.1872  0.1138  0.4853
   82MOL0     C10994  -0.303   3.129   3.094  0.1519 -0.3496 -0.1598
   82MOL0     C10995  -0.412   3.123   3.194  0.0440  0.0671  0.0053
   82MOL0     C10996  -0.405   3.262   3.265  0.1913 -0.0411 -1.2839
   82MOL0     C10997  -0.475   3.244   3.398 -0.6188  0.1146 -0.7787
   82MOL0     C10998  -0.378   3.203   3.509 -1.2682  0.1255 -0.5722
   82MOL0     C10999  -0.304   3.177   3.601  0.4744 -0.2662 -0.1678
   82MOL0     C11000  -0.100   3.185   2.874 -0.9166 -0.6261  0.2332
   82MOL0     C11001   0.004   3.224   2.794 -0.5055  0.1174 -0.2392
   82MOL0     C11002   0.097   3.114   2.746  0.2537 -0.5384 -0.4399
   82MOL0     H11003   0.381   3.461   2.564  3.4060  1.2526  5.0347
   82MOL0     H11004   0.543   3.607   2.460  0.0894 -1.4398  1.2028
   82MOL0     H11005   0.704   3.782   2.407 -2.2509 -0.3050  2.0955
   82MOL0     H11006   0.569   3.837   2.305  1.5768 -1.6349 -1.3785
   82MOL0     H11007   0.741   3.963   2.250 -1.0156 -0.2299 -0.2466
   82MOL0     H11008   0.784   3.998   2.424 -2.2502  2.8587  0.8569
   82MOL0     H11009   0.672   4.196   2.356  1.9435 -1.5302  0.7702
   82MOL0     H11010   0.601   4.121   2.485  3.6561 -1.3231  0.0201
   82MOL0     H11011   0.491   4.116   2.196 -1.4435  1.5547 -0.4558
   82MOL0     H11012   0.417   4.050   2.342  1.2518 -0.0973  0.1229
   82MOL0     H11013   0.427   4.295   2.415  0.7237 -0.3729  0.3535
   82MOL0     H11014   0.506   4.330   2.269 -1.3804 -0.2523 -3.2539
   82MOL0     H11015   0.307   4.270   2.129  2.7641 -1.9795  0.1892
   82MOL0     H11016   0.226   4.192   2.264  1.7699 -1.0773  0.4911
   82MOL0     H11017   0.131   4.410   2.188  2.0369  3.4129 -3.3556
   82MOL0     H11018   0.274   4.493   2.253 -1.9215  0.6257 -0.5301
   82MOL0     H11019   0.196   4.376   2.494 -3.9566 -1.4255  1.4898
   82MOL0     H11020   0.110   4.505   2.406 -2.6313  0.3056  4.4630
   82MOL0     H11021   0.132   4.156   2.517  2.6692  0.4444 -2.5034
   82MOL0     H11022  -0.017   3.931   2.451 -1.5528 -2.1829 -6.2023
   82MOL0     H11023  -0.143   3.979   2.564 -0.3871 -0.7314 -1.3465
   82MOL0     H11024  -0.301   3.987   2.373 -0.2619 -0.6172  0.3756
   82MOL0     H11025  -0.195   3.936   2.263  1.1726 -3.0570 -1.0960
   82MOL0     H11026  -0.251   3.768   2.516  0.0313 -1.6008 -0.4559
   82MOL0     H11027  -0.173   3.708   2.381  0.5375  0.1455  0.5277
   82MOL0     H11028  -0.393   3.751   2.254  2.1731  0.9646 -0.8979
   82MOL0     H11029  -0.463   3.760   2.422 -2.5082 -3.6051 -1.3080
   82MOL0     H11030  -0.609   3.655   2.175  0.0828 -0.8117 -0.3634
   82MOL0     H11031  -0.813   3.563   2.171 -1.1520  1.8219  0.1578
   82MOL0     H11032  -1.149   3.209   2.057 -2.5634  2.9424 -2.2779
   82MOL0     H11033  -1.373   3.144   2.116  0.7579 -2.0757  1.7905
   82MOL0     H11034  -1.632   3.046   2.339  0.6319 -1.9616 -0.1794
   82MOL0     H11035  -1.502   3.030   2.226 -1.3325  1.1124 -1.5675
   82MOL0     H11036  -1.447   2.888   2.432  0.3592 -0.1890 -3.5464
   82MOL0     H11037  -1.344   3.026   2.427  0.0710  1.4127  3.5282
   82MOL0     H11038  -1.413   2.976   2.647 -1.4365 -3.5672 -0.1754
   82MOL0     H11039  -1.468   3.143   2.603 -2.9454  0.2325  3.1748
   82MOL0     H11040  -1.686   3.050   2.548  0.1873  0.0167  1.0811
   82MOL0     H11041  -1.650   3.067   2.714  0.9558  3.0230 -1.4163
   82MOL0     H11042  -1.571   2.833   2.729 -0.5704  2.4166  1.4281
   82MOL0     H11043  -1.634   2.809   2.557  2.1344  2.5889 -2.3118
   82MOL0     H11044  -1.862   2.899   2.708 -0.7721 -0.2883  1.0855
   82MOL0     H11045  -1.828   2.745   2.647 -2.9740  3.0784 -1.2889
   82MOL0     H11046  -1.752   2.854   2.922  2.3839 -1.4668  0.7750
   82MOL0     H11047  -1.700   2.706   2.872  1.6058  0.5891 -5.1605
   82MOL0     H11048  -1.934   2.713   3.003  0.3685  3.4999  0.1118
   82MOL0     H11049  -2.002   2.782   2.851 -1.5264 -2.0257 -1.2769
   82MOL0     H11050  -1.370   3.426   2.439 -0.3307  0.0640 -0.1289
   82MOL0     H11051  -1.141   3.474   2.392  0.6414  0.0487 -1.5021
   82MOL0     H11052  -0.693   3.255   2.439 -2.8721 -1.8358 -1.1625
   82MOL0     H11053  -0.475   3.371   2.472 -1.4492  1.4968  2.5406
   82MOL0     H11054   0.343   3.945   2.638 -0.6469  0.0860 -0.5583
   82MOL0     H11055   0.144   3.793   2.693  1.0486  1.8538  0.0590
   82MOL0     H11056  -0.094   3.553   2.776 -3.2822  0.3853  1.4233
   82MOL0     H11057  -0.271   3.465   2.908 -1.4005 -0.5317  0.6127
   82MOL0     H11058  -0.210   3.127   3.151 -1.5692  0.6866  2.9296
   82MOL0     H11059  -0.313   3.047   3.023 -1.1457 -1.2451  1.0081
   82MOL0     H11060  -0.412   3.044   3.270  0.5686 -1.2808 -1.3397
   82MOL0     H11061  -0.512   3.120   3.151 -1.4127  1.8778  2.9395
   82MOL0     H11062  -0.444   3.353   3.218  1.9889  2.6368  1.9853
   82MOL0     H11063  -0.302   3.286   3.290  0.1184 -2.5365  2.1800
   82MOL0     H11064  -0.526   3.335   3.430 -0.2274 -0.5795  2.0925
   82MOL0     H11065  -0.545   3.162   3.376  1.5607 -1.3497 -2.7008
   82MOL0     H11066  -0.234   3.153   3.678 -0.2691  0.2438  0.6778
   82MOL0     H11067  -0.099   3.080   2.904  3.2526 -1.3341 -1.5885
   82MOL0     H11068   0.192   3.129   2.798 -0.6958 -0.5514  1.3889
   82MOL0     H11069   0.053   3.017   2.772  0.5153 -0.0377  2.1621
   82MOL0     H11070   0.116   3.124   2.639  0.0231  0.3460 -0.4032
   83MOL0     O11071   9.200   5.315   6.576  0.7096 -0.2569  0.0467
   83MOL0     C11072   9.099   5.242   6.578 -0.6803  1.4064 -0.6976
   83MOL0     O11073   9.042   5.185   6.464  0.3998  0.1036 -0.2443
   83MOL0     C11074   9.116   5.179   6.353 -0.3871  1.3052  0.8280
   83MOL0     C11075   9.103   5.268   6.253 -0.2712 -1.5622  0.4370
   83MOL0     C11076   9.192   5.270   6.138  0.1620 -0.2301  0.1401
   83MOL0     C11077   9.283   5.158   6.119 -0.2897 -0.0771  0.8536
   83MOL0     O11078   9.364   5.128   6.015  0.7871 -1.1543  0.6631
   83MOL0     C11079   9.312   5.179   5.888 -1.7749 -0.3660 -0.0536
   83MOL0     C11080   9.392   5.305   5.877  0.2883 -0.1253 -0.8420
   83MOL0     C11081   9.545   5.283   5.839 -0.4227 -0.5253 -0.5617
   83MOL0     C11082   9.641   5.238   5.951 -0.6988 -0.2401 -0.4600
   83MOL0     C11083   9.785   5.264   5.921 -0.5579  1.0849 -0.6387
   83MOL0     C11084   9.870   5.248   6.049 -0.4549 -0.0384 -0.2055
   83MOL0     C11085  10.023   5.272   6.046  0.8681  0.2028  0.0540
   83MOL0     C11086  10.052   5.418   6.010  0.4530  0.0560 -0.3019
   83MOL0     N11087  10.039   5.514   6.118 -0.7283  0.1517  0.6236
   83MOL0     C11088  10.152   5.577   6.176  0.9885  0.4923  0.3012
   83MOL0     C11089  10.097   5.682   6.240 -0.2728  0.3885  0.1479
   83MOL0     C11090  10.183   5.772   6.321  0.2658  0.7248  0.3305
   83MOL0     C11091  10.170   5.740   6.468 -0.4453  0.6732 -0.5466
   83MOL0     C11092  10.251   5.837   6.552 -0.5892  0.1813  0.5113
   83MOL0     C11093  10.188   5.841   6.694  0.3248 -0.8048  0.4340
   83MOL0     O11094  10.147   5.711   6.735 -0.2409 -0.0772  0.1187
   83MOL0     C11095  10.239   5.623   6.787 -1.2776 -0.1567  0.4012
   83MOL0     C11096  10.210   5.509   6.861  0.6486  0.2209 -0.0722
   83MOL0     C11097  10.299   5.426   6.926 -0.0816  0.5573 -0.1204
   83MOL0     C11098  10.438   5.447   6.899  0.4040  0.4530 -0.7337
   83MOL0     C11099  10.540   5.341   6.935 -0.1796 -0.3815 -0.4576
   83MOL0     O11100  10.658   5.365   6.881 -0.5143 -1.1183 -0.3155
   83MOL0     C11101  10.777   5.313   6.914  0.0577 -0.1215  0.5191
   83MOL0     C11102  10.897   5.388   6.878  0.1589 -0.4025 -0.1507
   83MOL0     C11103  11.024   5.338   6.899  0.7746  0.0108  0.4069
   83MOL0     C11104  11.028   5.201   6.940 -0.6770  0.3751  0.1713
   83MOL0     O11105  11.158   5.144   6.963 -0.2566 -0.3032 -0.3403
   83MOL0     C11106  11.187   5.095   7.099  0.4530 -0.3151 -0.2256
   83MOL0     C11107  11.348   5.081   7.116  0.0452 -0.5044  0.5517
   83MOL0     C11108  11.417   5.214   7.155  0.6727  0.2012  1.0397
   83MOL0     C11109  11.562   5.188   7.143 -0.6073 -0.1340 -0.6509
   83MOL0     C11110  11.636   5.326   7.134 -0.2367  0.6753  0.2900
   83MOL0     C11111  11.779   5.308   7.082  0.5074  1.1100  0.4312
   83MOL0     C11112  11.870   5.433   7.097  0.0982  0.5613  0.1602
   83MOL0     C11113  12.013   5.393   7.051 -0.3285 -0.8741  0.2225
   83MOL0    Cl11114  12.016   5.352   6.879  0.2316  0.5677 -0.2633
   83MOL0     C11115  10.918   5.120   6.961 -0.0842 -0.6997  0.8261
   83MOL0     C11116  10.791   5.179   6.951 -0.4959  1.0284 -0.5475
   83MOL0     O11117  10.518   5.256   7.021 -0.5530  0.1353 -1.0705
   83MOL0     C11118  10.475   5.552   6.819 -0.2394 -0.4060 -0.1399
   83MOL0     C11119  10.379   5.641   6.771 -0.0925 -0.8870  0.1438
   83MOL0     N11120   9.954   5.690   6.221 -0.4824 -0.3327 -0.0476
   83MOL0     N11121   9.931   5.594   6.146  0.4373 -0.3725  0.1949
   83MOL0     C11122   9.292   5.077   6.228  0.1549  0.4342  0.1507
   83MOL0     C11123   9.215   5.079   6.341 -0.2462  0.4701 -0.1803
   83MOL0     C11124   9.019   5.240   6.708  0.3056 -0.1062  0.4727
   83MOL0     C11125   8.888   5.179   6.704  1.0737  0.2963  0.1822
   83MOL0     C11126   8.798   5.186   6.816 -0.7084 -0.1352  0.5536
   83MOL0     C11127   8.844   5.252   6.932  0.4644  0.0101 -0.4906
   83MOL0     O11128   8.774   5.270   7.049  0.5570 -0.4767 -0.2201
   83MOL0     C11129   8.639   5.227   7.067 -0.0434  0.2189  0.3195
   83MOL0     C11130   8.543   5.335   7.001  0.5242 -0.0761 -0.4338
   83MOL0     C11131   8.398   5.308   7.050 -0.1303 -0.5710 -0.3555
   83MOL0     C11132   8.306   5.436   7.040 -0.3167 -0.7322 -1.1815
   83MOL0     C11133   8.160   5.412   7.061 -0.7752 -0.5414  0.0016
   83MOL0     C11134   8.045   5.388   7.059  0.1605  0.2383  0.3824
   83MOL0     C11135   8.973   5.300   6.935  1.1004 -0.3372 -0.4022
   83MOL0     C11136   9.060   5.296   6.826 -0.7084 -0.2578  0.0450
   83MOL0     C11137   9.198   5.360   6.846  0.3477 -0.1816 -0.2967
   83MOL0     H11138   9.030   5.347   6.265 -0.0833 -1.0281 -1.5235
   83MOL0     H11139   9.185   5.359   6.077 -1.0503 -0.8774 -0.6992
   83MOL0     H11140   9.312   5.113   5.800 -0.4875  0.8563 -1.0114
   83MOL0     H11141   9.207   5.210   5.893 -1.4001  0.7280  3.5998
   83MOL0     H11142   9.385   5.363   5.970  1.0173 -2.5195  0.7943
   83MOL0     H11143   9.342   5.356   5.794 -0.3880 -0.3029 -0.5505
   83MOL0     H11144   9.576   5.383   5.805 -1.2545  0.3184  1.0353
   83MOL0     H11145   9.549   5.213   5.755 -0.7531 -0.1194 -0.9252
   83MOL0     H11146   9.612   5.293   6.041 -0.7642 -0.5592 -0.2846
   83MOL0     H11147   9.636   5.128   5.951  2.4321 -0.5787  2.4155
   83MOL0     H11148   9.821   5.202   5.838  2.6100  3.6780 -1.4201
   83MOL0     H11149   9.777   5.367   5.886 -1.3533  1.7447  1.3248
   83MOL0     H11150   9.831   5.318   6.123  1.2282 -1.0335  1.7269
   83MOL0     H11151   9.834   5.155   6.095 -0.6336  0.1720  0.0807
   83MOL0     H11152  10.061   5.205   5.968  3.2299  0.3204  1.0349
   83MOL0     H11153  10.075   5.243   6.137  0.6280 -2.7371 -0.6369
   83MOL0     H11154  10.159   5.417   5.983  0.2363 -1.3547 -1.2296
   83MOL0     H11155   9.990   5.445   5.924  0.6028 -1.3314 -0.8821
   83MOL0     H11156  10.258   5.552   6.166  0.8445 -0.8429  1.7074
   83MOL0     H11157  10.283   5.752   6.281 -0.8599 -0.6442 -1.9914
   83MOL0     H11158  10.143   5.872   6.301 -1.6457  0.1769  1.1528
   83MOL0     H11159  10.064   5.737   6.496 -0.1874  0.6062  0.4793
   83MOL0     H11160  10.222   5.645   6.483  0.5656  1.1162 -1.1162
   83MOL0     H11161  10.232   5.932   6.501 -2.1800 -0.8633 -0.9534
   83MOL0     H11162  10.356   5.806   6.559 -0.7477 -0.3742  0.4369
   83MOL0     H11163  10.102   5.909   6.692  0.6016 -0.4572 -1.6948
   83MOL0     H11164  10.261   5.888   6.761 -0.3744 -0.0292  0.6674
   83MOL0     H11165  10.105   5.485   6.871  0.1164  2.1986 -0.4073
   83MOL0     H11166  10.260   5.343   6.984 -2.6098  0.7474 -1.4080
   83MOL0     H11167  10.881   5.483   6.827 -1.1955  0.4411  1.7278
   83MOL0     H11168  11.116   5.389   6.871  0.8811 -0.1498  0.4628
   83MOL0     H11169  11.143   5.162   7.173 -0.3395  0.2647 -1.2030
   83MOL0     H11170  11.129   5.003   7.109 -0.8340  0.5621  0.6148
   83MOL0     H11171  11.354   5.010   7.199  0.5255 -2.1621 -0.8664
   83MOL0     H11172  11.399   5.030   7.035  3.4944  3.6619 -0.2864
   83MOL0     H11173  11.378   5.290   7.086  0.2761  0.2478  1.3101
   83MOL0     H11174  11.389   5.244   7.256  2.7426 -3.5498  2.9696
   83MOL0     H11175  11.576   5.137   7.047 -1.3138  1.5124 -1.6697
   83MOL0     H11176  11.596   5.122   7.223 -0.8984  0.1013 -0.3296
   83MOL0     H11177  11.636   5.365   7.236  0.5606 -0.3387  0.7095
   83MOL0     H11178  11.573   5.386   7.068 -1.9000 -2.7360 -1.4917
   83MOL0     H11179  11.816   5.221   7.135  0.4876 -0.1184 -1.4722
   83MOL0     H11180  11.771   5.285   6.975  1.2583  2.9658 -0.0766
   83MOL0     H11181  11.876   5.463   7.202  0.7046 -1.1686  0.6660
   83MOL0     H11182  11.827   5.509   7.032 -1.9608 -2.1018 -1.8524
   83MOL0     H11183  12.079   5.477   7.075 -0.8922  0.2018 -1.7504
   83MOL0     H11184  12.048   5.307   7.109  0.8430  1.7276  3.6837
   83MOL0     H11185  10.924   5.014   6.982  1.7355 -0.4739  1.6806
   83MOL0     H11186  10.706   5.119   6.981  1.2607  0.2716  3.6126
   83MOL0     H11187  10.579   5.568   6.793 -0.7157 -1.4052 -2.9289
   83MOL0     H11188  10.422   5.728   6.722 -1.7869  0.2166  0.5062
   83MOL0     H11189   9.366   5.001   6.206 -0.4350  0.1192 -0.8100
   83MOL0     H11190   9.233   5.009   6.422 -1.8415 -0.8529 -0.8939
   83MOL0     H11191   8.839   5.142   6.614 -0.1293  2.6015 -0.1932
   83MOL0     H11192   8.700   5.141   6.803 -1.3338  0.4965  2.7455
   83MOL0     H11193   8.616   5.238   7.174 -0.4860  1.2508  0.1233
   83MOL0     H11194   8.624   5.125   7.030  2.4650 -0.4243  0.9105
   83MOL0     H11195   8.549   5.331   6.892 -0.0852 -0.8487 -0.4562
   83MOL0     H11196   8.568   5.434   7.040 -1.5031 -0.0192  0.8918
   83MOL0     H11197   8.395   5.271   7.153  0.8646 -2.6031 -0.9997
   83MOL0     H11198   8.342   5.225   7.007 -1.9102 -1.8182  3.8657
   83MOL0     H11199   8.345   5.508   7.112  0.6202 -3.5922  1.3639
   83MOL0     H11200   8.327   5.479   6.941  0.4524 -0.6717 -1.0001
   83MOL0     H11201   7.941   5.363   7.063  0.5762 -2.3996 -1.7682
   83MOL0     H11202   9.009   5.353   7.023 -1.2721  2.1814 -0.8326
   83MOL0     H11203   9.215   5.388   6.951  2.1027 -0.9816 -0.3329
   83MOL0     H11204   9.271   5.288   6.807 -1.0053 -1.3563 -0.7529
   83MOL0     H11205   9.202   5.450   6.785  0.0110 -1.2111 -1.8991
   84MOL0     O11206   3.162   5.654   3.201  0.0263 -0.3111  0.5773
   84MOL0     C11207   3.261   5.581   3.168  0.4945 -0.1998  0.4570
   84MOL0     O11208   3.252   5.488   3.076 -0.7537  0.5849 -0.6699
   84MOL0     C11209   3.133   5.455   3.032  0.9675  0.5078  0.5189
   84MOL0     C11210   3.103   5.490   2.895  0.4547  0.1656  0.0481
   84MOL0     C11211   2.975   5.456   2.847  0.7044 -1.1974 -0.2182
   84MOL0     C11212   2.867   5.411   2.923 -0.1520 -0.4932  0.6693
   84MOL0     O11213   2.739   5.381   2.882  0.0573 -0.0769 -0.4074
   84MOL0     C11214   2.695   5.476   2.778 -0.0962  0.8590 -0.0473
   84MOL0     C11215   2.547   5.449   2.748 -0.3892 -0.7746 -0.6669
   84MOL0     C11216   2.456   5.455   2.880 -0.6495  0.0351  0.4256
   84MOL0     C11217   2.304   5.441   2.850 -0.0275 -0.1283 -0.5798
   84MOL0     C11218   2.219   5.523   2.952 -0.1520 -0.4225  1.0094
   84MOL0     C11219   2.160   5.434   3.067  0.6299  0.2922  0.6001
   84MOL0     C11220   2.092   5.500   3.183  1.2022 -0.1929 -0.5883
   84MOL0     C11221   2.008   5.632   3.148  0.0287 -0.5209 -0.1142
   84MOL0     N11222   1.952   5.692   3.273 -0.8722 -0.0121 -0.1998
   84MOL0     C11223   2.036   5.709   3.382  0.7559  0.2298 -0.6582
   84MOL0     C11224   1.948   5.757   3.481  0.6386  0.0441 -0.3490
   84MOL0     C11225   1.987   5.757   3.624  0.2348 -0.3486 -0.2593
   84MOL0     C11226   1.956   5.631   3.695 -0.8613  0.2515  0.5128
   84MOL0     C11227   1.821   5.627   3.769 -0.3054 -0.2788 -0.7400
   84MOL0     C11228   1.828   5.516   3.874  1.3170  0.0058  0.8832
   84MOL0     O11229   1.829   5.383   3.816 -0.7201  0.3447 -0.1895
   84MOL0     C11230   1.837   5.278   3.897 -0.3128 -0.6169  0.0440
   84MOL0     C11231   1.886   5.279   4.031 -0.2359 -0.9996  0.1713
   84MOL0     C11232   1.893   5.167   4.115  0.1225  0.0329 -0.4455
   84MOL0     C11233   1.838   5.045   4.060 -0.1621  0.2934  0.5754
   84MOL0     C11234   1.823   4.925   4.142 -1.1085  0.5507 -0.1730
   84MOL0     O11235   1.771   4.935   4.264  0.1783  0.2428 -0.3854
   84MOL0     C11236   1.772   4.827   4.350  0.7154  0.1089  0.7724
   84MOL0     C11237   1.890   4.748   4.372 -0.0659 -0.5870 -0.5379
   84MOL0     C11238   1.876   4.644   4.459  0.2684  1.7406 -0.5855
   84MOL0     C11239   1.753   4.613   4.533 -0.4461  0.9423  0.9617
   84MOL0     O11240   1.753   4.500   4.615  0.4277 -0.6424  0.1634
   84MOL0     C11241   1.679   4.514   4.740  0.3934  0.4127  0.2910
   84MOL0     C11242   1.773   4.599   4.832 -1.2200  0.1789 -0.4753
   84MOL0     C11243   1.883   4.503   4.878  0.0751  0.0006 -0.7414
   84MOL0     C11244   1.947   4.552   5.010  0.7208 -0.2785 -0.7746
   84MOL0     C11245   2.040   4.447   5.067 -0.3811  0.6417  1.3991
   84MOL0     C11246   1.991   4.301   5.092 -0.7575 -0.2667 -0.0071
   84MOL0     C11247   2.101   4.215   5.142 -0.3241  1.1712  0.0271
   84MOL0     C11248   2.066   4.079   5.208  0.1767  0.4500 -0.2304
   84MOL0    Cl11249   1.981   4.104   5.362  0.2774 -0.2172  0.4625
   84MOL0     C11250   1.640   4.693   4.509 -0.4809  0.3670  0.7818
   84MOL0     C11251   1.657   4.800   4.420  0.3039  0.3927  0.3358
   84MOL0     O11252   1.869   4.823   4.097 -0.7347  0.3103 -0.0833
   84MOL0     C11253   1.794   5.042   3.925  0.7105  0.6305  0.0286
   84MOL0     C11254   1.805   5.153   3.841  0.4566  0.7919 -1.5462
   84MOL0     N11255   1.827   5.778   3.426 -0.9024  0.1625  0.4452
   84MOL0     N11256   1.832   5.738   3.300  1.7881 -0.1689 -0.7322
   84MOL0     C11257   2.892   5.371   3.050 -0.4323  0.7143  0.7325
   84MOL0     C11258   3.022   5.393   3.099  0.2578 -0.0587 -0.3507
   84MOL0     C11259   3.378   5.630   3.242 -0.0901  1.0811  0.2777
   84MOL0     C11260   3.406   5.590   3.380  0.5603 -1.1088  0.0636
   84MOL0     C11261   3.526   5.600   3.436 -0.5916 -0.1673  0.1224
   84MOL0     C11262   3.633   5.659   3.356  0.0098  0.0059  0.7693
   84MOL0     O11263   3.753   5.699   3.408  0.3182 -0.5947 -0.3528
   84MOL0     C11264   3.794   5.646   3.533 -0.6052 -0.2270 -0.5039
   84MOL0     C11265   3.935   5.705   3.542 -0.2547  0.3677  1.2086
   84MOL0     C11266   4.012   5.677   3.673 -0.7635 -0.3360 -0.8560
   84MOL0     C11267   4.141   5.759   3.688  0.2863 -0.5449 -0.1739
   84MOL0     C11268   4.209   5.794   3.556 -0.3308 -0.3336 -0.7457
   84MOL0     C11269   4.289   5.805   3.470 -0.2126 -0.8063 -0.0099
   84MOL0     C11270   3.612   5.690   3.222 -0.4963 -0.0450  0.5817
   84MOL0     C11271   3.489   5.683   3.164  0.1950  0.2952  0.4861
   84MOL0     C11272   3.474   5.719   3.014  0.6959  0.3638 -0.5307
   84MOL0     H11273   3.182   5.544   2.844 -2.0686  1.7207 -2.4326
   84MOL0     H11274   2.953   5.486   2.745 -3.3313 -3.3731 -0.1833
   84MOL0     H11275   2.714   5.580   2.807 -0.5360  1.0551 -0.4550
   84MOL0     H11276   2.756   5.448   2.691 -3.4598 -2.1259 -1.6859
   84MOL0     H11277   2.545   5.348   2.706 -2.8332 -1.2233  0.3547
   84MOL0     H11278   2.511   5.525   2.678 -0.1722 -1.3857 -1.4496
   84MOL0     H11279   2.479   5.549   2.930  0.9597  1.9947 -3.6136
   84MOL0     H11280   2.482   5.376   2.952 -4.6375 -1.0511  0.8973
   84MOL0     H11281   2.282   5.501   2.762 -3.5587  1.6860  1.3321
   84MOL0     H11282   2.288   5.333   2.836  2.0323 -0.7969  1.5248
   84MOL0     H11283   2.263   5.612   2.998  1.7679  0.3781 -2.0614
   84MOL0     H11284   2.134   5.559   2.893 -0.5059 -3.2060 -0.3483
   84MOL0     H11285   2.101   5.355   3.019  3.4042  1.1498 -5.1633
   84MOL0     H11286   2.240   5.384   3.123  2.4584  0.7054 -1.4847
   84MOL0     H11287   2.173   5.528   3.251  1.3820  2.9009 -1.9533
   84MOL0     H11288   2.029   5.423   3.228 -0.1713  0.9817 -0.4290
   84MOL0     H11289   2.072   5.707   3.102  0.0548  0.0720  0.8549
   84MOL0     H11290   1.930   5.604   3.077 -2.0214  0.4103  1.6641
   84MOL0     H11291   2.142   5.689   3.396  0.9590  2.5769  2.0675
   84MOL0     H11292   2.091   5.779   3.648  0.0416 -2.1863  2.8966
   84MOL0     H11293   1.933   5.841   3.669 -3.2391 -2.9526  0.9054
   84MOL0     H11294   1.950   5.551   3.621 -0.0580  0.9942 -0.3831
   84MOL0     H11295   2.041   5.615   3.762  0.3865  0.5754 -0.9366
   84MOL0     H11296   1.747   5.619   3.689  0.1280  1.5846 -1.3923
   84MOL0     H11297   1.796   5.717   3.826 -1.1675 -0.2871 -1.0873
   84MOL0     H11298   1.739   5.534   3.936 -1.2106  5.9697 -3.5141
   84MOL0     H11299   1.915   5.540   3.936  1.7384  2.9096 -0.6637
   84MOL0     H11300   1.922   5.375   4.068  0.9245 -1.9246  1.5880
   84MOL0     H11301   1.924   5.179   4.218 -0.0468  2.0164 -0.5859
   84MOL0     H11302   1.989   4.754   4.327  2.3401 -3.2040  3.7003
   84MOL0     H11303   1.965   4.588   4.487 -2.2377 -1.8143  1.0111
   84MOL0     H11304   1.584   4.569   4.736  0.6928  0.9180 -0.0326
   84MOL0     H11305   1.662   4.409   4.766  0.2307  0.1232 -0.9455
   84MOL0     H11306   1.813   4.687   4.780 -0.6668  0.0974 -0.1984
   84MOL0     H11307   1.724   4.629   4.926 -0.8393 -1.8468  0.4111
   84MOL0     H11308   1.836   4.407   4.900  1.6800 -0.7943 -0.6530
   84MOL0     H11309   1.964   4.486   4.807 -0.0981  0.7702 -1.1322
   84MOL0     H11310   1.875   4.563   5.092  1.7420  0.2991  0.0731
   84MOL0     H11311   1.995   4.650   4.997  0.0334 -0.0933 -2.0844
   84MOL0     H11312   2.087   4.493   5.154  0.7087  2.3038 -0.0070
   84MOL0     H11313   2.111   4.444   4.984  0.4049 -0.0529  2.0840
   84MOL0     H11314   1.911   4.302   5.166 -0.4936 -1.8887  0.3312
   84MOL0     H11315   1.950   4.261   4.999 -0.6584 -0.5310  0.0612
   84MOL0     H11316   2.166   4.271   5.209 -0.3169  1.6452 -0.3729
   84MOL0     H11317   2.159   4.184   5.054 -0.4918 -0.3879  0.4300
   84MOL0     H11318   1.995   4.026   5.144  1.0782 -1.3790  0.2188
   84MOL0     H11319   2.150   4.010   5.222 -0.4581  0.2374  3.7422
   84MOL0     H11320   1.544   4.672   4.555 -0.4702 -1.4633  0.0442
   84MOL0     H11321   1.573   4.866   4.405 -1.3799 -1.9332 -1.0423
   84MOL0     H11322   1.757   4.948   3.886 -2.0801  1.6077  0.0903
   84MOL0     H11323   1.788   5.148   3.734  0.8228 -1.3518 -1.5603
   84MOL0     H11324   2.821   5.317   3.112  0.1684 -3.8909 -2.1613
   84MOL0     H11325   3.050   5.373   3.203 -0.3867  0.4145 -0.0818
   84MOL0     H11326   3.324   5.558   3.443 -1.0398  1.5140 -0.5025
   84MOL0     H11327   3.533   5.563   3.538 -0.3443  0.5657  0.3812
   84MOL0     H11328   3.792   5.539   3.555  1.1446  0.1741  1.9351
   84MOL0     H11329   3.743   5.694   3.617 -0.1541 -1.6290  0.6119
   84MOL0     H11330   3.939   5.810   3.511 -0.2814  0.3552  1.1626
   84MOL0     H11331   4.000   5.639   3.484  0.7934  0.3467  2.3505
   84MOL0     H11332   4.033   5.571   3.688 -1.3646 -0.6378 -2.0551
   84MOL0     H11333   3.946   5.714   3.752  1.8317  4.1491 -0.4402
   84MOL0     H11334   4.115   5.850   3.743 -3.3980 -2.1778  1.1802
   84MOL0     H11335   4.212   5.704   3.751  0.3971  0.7119  0.8256
   84MOL0     H11336   4.361   5.817   3.391  2.5365  0.9152  2.5419
   84MOL0     H11337   3.694   5.734   3.166 -0.9795  3.1730  2.1345
   84MOL0     H11338   3.514   5.819   2.996 -0.1161  1.4565  2.8750
   84MOL0     H11339   3.529   5.642   2.959  1.5566 -0.4486  1.3729
   84MOL0     H11340   3.372   5.740   2.981  1.1791 -0.3435 -2.5992
   85MOL0     O11341   5.020   2.950  10.715 -0.3213 -0.3130 -0.0162
   85MOL0     C11342   5.087   3.048  10.685 -1.0538  0.2848  0.0523
   85MOL0     O11343   5.082   3.112  10.565 -0.2778 -0.2626  0.0700
   85MOL0     C11344   4.984   3.085  10.478 -0.2364  0.0444 -0.1916
   85MOL0     C11345   4.844   3.082  10.530 -0.4722  0.4377 -0.6299
   85MOL0     C11346   4.729   3.056  10.451 -0.0455  0.4475  0.2224
   85MOL0     C11347   4.752   3.022  10.318 -0.2032 -0.4037 -0.4968
   85MOL0     O11348   4.639   2.996  10.241  0.1972 -0.1693 -0.0989
   85MOL0     C11349   4.634   2.945  10.099  0.4881 -0.5523  0.5613
   85MOL0     C11350   4.689   2.800  10.084  0.0391 -0.0707  0.7605
   85MOL0     C11351   4.604   2.704  10.173 -1.6935  0.0027  0.3874
   85MOL0     C11352   4.634   2.556  10.146  0.6174 -0.9514  0.1726
   85MOL0     C11353   4.551   2.500  10.030 -0.3677  0.6675  0.8454
   85MOL0     C11354   4.551   2.349  10.038 -0.2760  0.4188 -0.0375
   85MOL0     C11355   4.488   2.288   9.916 -1.2216  0.1630 -0.4966
   85MOL0     C11356   4.477   2.132   9.930 -1.1297 -0.2756  0.2684
   85MOL0     N11357   4.602   2.051   9.941  0.8498  0.1632 -0.0345
   85MOL0     C11358   4.665   2.028  10.055 -0.3715 -0.8897 -1.2719
   85MOL0     C11359   4.751   1.930  10.022 -0.2232  0.1933  0.3410
   85MOL0     C11360   4.833   1.850  10.117 -0.6429 -0.0307 -0.3779
   85MOL0     C11361   4.782   1.711  10.175  0.1212  0.9340  0.1146
   85MOL0     C11362   4.765   1.617  10.049 -0.1634  0.4144 -0.6799
   85MOL0     C11363   4.754   1.471  10.092  0.1303 -0.3310 -0.0548
   85MOL0     O11364   4.678   1.464  10.216 -0.5521 -0.2226  0.1928
   85MOL0     C11365   4.591   1.367  10.235  0.2587  0.2920 -0.6712
   85MOL0     C11366   4.580   1.238  10.174 -0.1429  0.0493 -0.2862
   85MOL0     C11367   4.479   1.147  10.200 -0.2057 -0.3080 -0.1379
   85MOL0     C11368   4.387   1.184  10.307 -0.4626  0.6887 -0.2811
   85MOL0     C11369   4.282   1.088  10.344  0.0996 -0.6499  0.8761
   85MOL0     O11370   4.295   0.945  10.320 -0.1800 -0.3029 -0.0655
   85MOL0     C11371   4.222   0.843  10.381 -0.4487  1.1826  0.2446
   85MOL0     C11372   4.289   0.733  10.439 -0.3777  0.7400  1.1187
   85MOL0     C11373   4.220   0.627  10.502  0.8066  0.2467 -0.3207
   85MOL0     C11374   4.086   0.629  10.525  0.3442  0.0613 -0.5742
   85MOL0     O11375   4.038   0.535  10.619  0.0338  0.0444  0.0560
   85MOL0     C11376   3.896   0.530  10.640  0.1106 -0.0831 -0.1335
   85MOL0     C11377   3.849   0.406  10.718  0.7101  0.0208  0.7543
   85MOL0     C11378   3.918   0.401  10.859 -0.5226  0.2302  0.9518
   85MOL0     C11379   4.057   0.332  10.854 -1.3042  0.4403 -0.1827
   85MOL0     C11380   4.123   0.301  10.993  0.3730  0.2156 -0.6403
   85MOL0     C11381   4.193   0.162  10.990  0.2445  0.3322 -0.5061
   85MOL0     C11382   4.303   0.150  10.882  0.2148 -0.2514 -0.1819
   85MOL0     C11383   4.430   0.067  10.930 -0.1395 -0.6142  0.8773
   85MOL0    Cl11384   4.575   0.135  10.853  0.0060  0.3402 -0.0599
   85MOL0     C11385   4.016   0.733  10.467  0.8235 -0.7999  0.1944
   85MOL0     C11386   4.087   0.839  10.389  0.1305  0.3807 -0.6055
   85MOL0     O11387   4.181   1.144  10.389 -0.2590 -0.2797  0.4334
   85MOL0     C11388   4.412   1.296  10.383 -0.2532  0.4340 -0.3294
   85MOL0     C11389   4.504   1.391  10.340 -0.4690  0.6125  0.4302
   85MOL0     N11390   4.766   1.923   9.887  0.2928 -0.1707  0.5868
   85MOL0     N11391   4.681   2.007   9.841  0.0075 -1.1681  0.4991
   85MOL0     C11392   4.881   3.023  10.256  0.0406  0.7661 -0.4707
   85MOL0     C11393   4.992   3.058  10.338  0.2986 -0.1030 -0.4213
   85MOL0     C11394   5.203   3.101  10.771 -0.1692  0.8582  0.5234
   85MOL0     C11395   5.299   3.188  10.701 -0.1623 -0.6992  0.0584
   85MOL0     C11396   5.387   3.265  10.775 -0.7069  0.0271 -0.2261
   85MOL0     C11397   5.391   3.249  10.916  0.6960  0.1580 -0.3983
   85MOL0     O11398   5.465   3.325  11.005  0.7443 -0.0692  1.0913
   85MOL0     C11399   5.583   3.389  10.946  0.0788 -0.2954  0.5629
   85MOL0     C11400   5.687   3.427  11.050  0.5335  0.7095 -0.3391
   85MOL0     C11401   5.633   3.521  11.162 -0.2905  0.2039  0.3159
   85MOL0     C11402   5.567   3.647  11.112  0.1166  0.5856  0.4833
   85MOL0     C11403   5.632   3.716  10.999  0.8359 -0.2880 -0.5515
   85MOL0     C11404   5.698   3.748  10.897 -0.0130 -0.4483 -0.8903
   85MOL0     C11405   5.308   3.152  10.976 -0.1695  0.2858 -0.1822
   85MOL0     C11406   5.210   3.087  10.908  0.5019  0.7043  0.1580
   85MOL0     C11407   5.105   3.008  10.992  0.3973 -0.3062 -0.4559
   85MOL0     H11408   4.813   3.103  10.631  0.4205 -1.6058  0.1280
   85MOL0     H11409   4.641   3.051  10.514 -1.0396  0.9580 -1.0867
   85MOL0     H11410   4.528   2.944  10.072  0.2907  0.4407  1.2186
   85MOL0     H11411   4.679   3.014  10.028 -1.5505  1.7673  1.3769
   85MOL0     H11412   4.798   2.796  10.091  0.3552  2.0744 -1.7514
   85MOL0     H11413   4.668   2.780   9.979  1.7039  2.0367 -0.0499
   85MOL0     H11414   4.496   2.722  10.164 -1.2502  2.2142 -1.2105
   85MOL0     H11415   4.643   2.732  10.271  2.2627 -0.0917 -0.9876
   85MOL0     H11416   4.742   2.550  10.132  0.4207 -0.1951 -1.9742
   85MOL0     H11417   4.619   2.493  10.234  2.2658 -4.5783 -1.9238
   85MOL0     H11418   4.454   2.550  10.043 -0.3178  1.0028 -0.0162
   85MOL0     H11419   4.590   2.535   9.934 -0.6121 -1.0371  0.0851
   85MOL0     H11420   4.649   2.306  10.058 -0.0283 -0.0876 -2.1142
   85MOL0     H11421   4.486   2.310  10.117 -0.1853 -1.6502 -0.9406
   85MOL0     H11422   4.548   2.308   9.827 -1.1333 -1.9430 -0.9441
   85MOL0     H11423   4.390   2.336   9.902 -2.2694 -2.1378 -1.4743
   85MOL0     H11424   4.410   2.099  10.010 -0.8035  0.5008  0.8763
   85MOL0     H11425   4.437   2.098   9.834  0.2345  1.8850 -1.1339
   85MOL0     H11426   4.638   2.048  10.158  0.1557  1.6443 -1.5757
   85MOL0     H11427   4.934   1.843  10.074 -0.4309  3.0906 -0.6768
   85MOL0     H11428   4.871   1.906  10.204  0.2105 -1.6939  0.3809
   85MOL0     H11429   4.863   1.677  10.241  1.4767  1.2561 -1.3004
   85MOL0     H11430   4.695   1.734  10.236  1.4853  0.7871  2.2391
   85MOL0     H11431   4.855   1.611   9.987 -0.4704 -1.1869 -0.9981
   85MOL0     H11432   4.680   1.650   9.989 -1.1293  0.2599  0.5478
   85MOL0     H11433   4.849   1.423  10.120 -0.7805 -3.9377 -2.4118
   85MOL0     H11434   4.710   1.414  10.009  0.8765 -0.6523 -0.2395
   85MOL0     H11435   4.649   1.218  10.093  1.3374  0.0250  0.9295
   85MOL0     H11436   4.461   1.064  10.132 -2.3706  2.2647 -2.9575
   85MOL0     H11437   4.396   0.724  10.421  0.6523 -0.3378  6.2217
   85MOL0     H11438   4.271   0.542  10.546 -0.0553 -1.0779 -1.7756
   85MOL0     H11439   3.860   0.614  10.699 -1.2367  1.3657 -2.8111
   85MOL0     H11440   3.842   0.529  10.545  0.2500 -0.2289 -0.2134
   85MOL0     H11441   3.743   0.426  10.738  1.3087  1.1488  3.2614
   85MOL0     H11442   3.861   0.312  10.663 -0.6624 -0.3487  1.0488
   85MOL0     H11443   3.922   0.495  10.915  0.4590  1.7945 -1.5611
   85MOL0     H11444   3.863   0.334  10.926  0.7775 -2.4140 -0.4499
   85MOL0     H11445   4.125   0.387  10.789  1.5534 -0.4091  1.9089
   85MOL0     H11446   4.044   0.241  10.793  1.6897 -1.6119  1.9964
   85MOL0     H11447   4.053   0.298  11.076  2.1466  1.5811  0.9951
   85MOL0     H11448   4.201   0.375  11.013 -2.6490  3.8469 -1.1918
   85MOL0     H11449   4.228   0.140  11.091 -2.5203 -0.3323  0.3908
   85MOL0     H11450   4.121   0.083  10.967 -1.2216  1.5473 -0.1892
   85MOL0     H11451   4.329   0.251  10.850  0.5388 -0.3147 -0.1166
   85MOL0     H11452   4.256   0.104  10.794 -1.2564 -1.2258  1.0373
   85MOL0     H11453   4.431   0.074  11.039 -0.8629 -1.8192  0.9700
   85MOL0     H11454   4.420  -0.039  10.905  3.7746 -0.3992 -2.9450
   85MOL0     H11455   3.912   0.762  10.482  1.4132  3.9553 -3.0647
   85MOL0     H11456   4.039   0.921  10.336 -0.2716 -0.3183 -1.3546
   85MOL0     H11457   4.356   1.336  10.466 -2.3842 -0.0259 -1.4689
   85MOL0     H11458   4.527   1.478  10.400  4.2603  1.6631 -2.3593
   85MOL0     H11459   4.886   3.022  10.147  1.9886  4.5716 -0.5625
   85MOL0     H11460   5.088   3.054  10.288  1.1294 -0.6034  1.1246
   85MOL0     H11461   5.282   3.212  10.597 -1.4364 -1.5862  0.0330
   85MOL0     H11462   5.441   3.341  10.719 -2.4163 -0.3973 -2.5770
   85MOL0     H11463   5.545   3.473  10.887 -0.4492 -0.2169  1.0001
   85MOL0     H11464   5.632   3.323  10.875  1.7552  0.3745  1.0492
   85MOL0     H11465   5.776   3.478  11.010  3.0351 -0.9659  2.5708
   85MOL0     H11466   5.721   3.331  11.089 -0.6719 -0.3488 -1.8315
   85MOL0     H11467   5.723   3.541  11.221  0.2121 -0.5439 -0.1823
   85MOL0     H11468   5.565   3.477  11.236 -0.0376 -0.2992  0.2518
   85MOL0     H11469   5.464   3.624  11.083 -0.2710  1.9915  0.6432
   85MOL0     H11470   5.563   3.720  11.193  0.4194 -1.2008  2.1642
   85MOL0     H11471   5.752   3.760  10.806 -0.1932  0.3687 -0.8943
   85MOL0     H11472   5.322   3.150  11.084  0.7340  2.4215 -0.2129
   85MOL0     H11473   5.141   2.906  11.000  2.2341  0.2462 -1.1784
   85MOL0     H11474   5.101   3.052  11.093  0.5156  1.0745 -1.0249
   85MOL0     H11475   5.011   3.013  10.937  0.2662  0.9729 -0.1662
   86MOL0     O11476   4.387   6.088   5.182 -0.3334  0.1420 -0.0085
   86MOL0     C11477   4.291   6.102   5.110  1.2635 -0.4155 -0.2168
   86MOL0     O11478   4.286   6.175   4.993 -0.1561 -0.2173 -0.6225
   86MOL0     C11479   4.400   6.185   4.918 -0.0315 -0.1867 -0.2114
   86MOL0     C11480   4.453   6.076   4.844 -0.4281  0.0982 -0.0231
   86MOL0     C11481   4.573   6.096   4.774  0.1074  0.5600 -0.3040
   86MOL0     C11482   4.652   6.211   4.774 -0.7778  0.4185 -0.6985
   86MOL0     O11483   4.768   6.225   4.705 -0.0757  0.6737  0.3443
   86MOL0     C11484   4.864   6.120   4.685 -0.4889  0.7244 -0.4065
   86MOL0     C11485   4.982   6.172   4.618 -0.9921  0.2655 -0.0777
   86MOL0     C11486   4.951   6.222   4.485  0.1650 -0.3485 -0.5807
   86MOL0     C11487   5.091   6.242   4.419  0.4019  0.0418 -0.0964
   86MOL0     C11488   5.082   6.261   4.269  0.2374  0.1484 -0.2044
   86MOL0     C11489   5.220   6.314   4.218 -0.3022 -0.3660 -0.0893
   86MOL0     C11490   5.227   6.337   4.069 -0.0332  0.2633  0.5946
   86MOL0     C11491   5.164   6.224   3.983 -0.0232 -0.5202 -0.1903
   86MOL0     N11492   5.185   6.250   3.842  0.2235 -0.7908 -0.3788
   86MOL0     C11493   5.300   6.240   3.769  0.1269  0.1867 -0.2994
   86MOL0     C11494   5.270   6.276   3.644 -0.1304 -0.8607 -0.2202
   86MOL0     C11495   5.361   6.276   3.524  0.0008  0.2297  0.3573
   86MOL0     C11496   5.375   6.133   3.473 -0.1780  1.1962  0.2107
   86MOL0     C11497   5.260   6.064   3.402 -0.6950  0.6806 -0.0515
   86MOL0     C11498   5.212   6.128   3.266  0.2315  0.9052 -0.1803
   86MOL0     O11499   5.305   6.123   3.161  0.1377 -0.3029 -0.5057
   86MOL0     C11500   5.278   6.187   3.044 -0.3258  0.5382 -0.6592
   86MOL0     C11501   5.366   6.163   2.933  0.1238 -0.8657 -0.2192
   86MOL0     C11502   5.345   6.231   2.810  0.5131  1.4839  0.9521
   86MOL0     C11503   5.252   6.334   2.800  1.4936 -0.1780  0.3520
   86MOL0     C11504   5.229   6.418   2.667 -1.0751 -1.2034 -0.7816
   86MOL0     O11505   5.332   6.421   2.578  0.2787 -0.0736 -0.0407
   86MOL0     C11506   5.302   6.496   2.468 -0.8597 -0.1061  0.0516
   86MOL0     C11507   5.337   6.630   2.458  0.1361 -0.1232  0.0767
   86MOL0     C11508   5.323   6.702   2.339  0.2142  0.0424  0.2760
   86MOL0     C11509   5.248   6.659   2.242 -0.2946  0.3172  0.1753
   86MOL0     O11510   5.216   6.745   2.144  0.2440 -1.0139  0.0719
   86MOL0     C11511   5.117   6.712   2.037 -0.2628 -0.1734 -1.2977
   86MOL0     C11512   5.093   6.859   1.978 -0.4770 -0.9764 -0.6964
   86MOL0     C11513   5.008   6.847   1.850  0.3856  0.8038 -0.4779
   86MOL0     C11514   5.030   6.983   1.780  0.1165  0.8557 -0.1154
   86MOL0     C11515   5.156   6.986   1.683 -0.6207 -0.0893 -1.2671
   86MOL0     C11516   5.199   7.127   1.655 -0.7850 -0.4427  0.7429
   86MOL0     C11517   5.309   7.131   1.549  0.3054  0.2047 -0.0768
   86MOL0     C11518   5.446   7.101   1.613  0.3886  0.6592 -0.3170
   86MOL0    Cl11519   5.475   6.918   1.625  0.3596 -0.1042  0.0398
   86MOL0     C11520   5.200   6.536   2.253 -0.5370  0.9720 -0.4006
   86MOL0     C11521   5.228   6.446   2.367  0.8183 -1.0724  0.1696
   86MOL0     O11522   5.124   6.474   2.651  0.0465 -0.3024 -0.7394
   86MOL0     C11523   5.152   6.342   2.898 -0.2070 -0.6861  0.5825
   86MOL0     C11524   5.164   6.261   3.014 -0.0211 -0.1688 -0.4209
   86MOL0     N11525   5.134   6.309   3.630 -0.3714  0.1370  0.2592
   86MOL0     N11526   5.089   6.303   3.753 -0.5170 -0.2905 -0.9304
   86MOL0     C11527   4.595   6.317   4.840 -0.3077 -0.1749 -0.3061
   86MOL0     C11528   4.470   6.305   4.903  0.2700 -0.6447  0.6008
   86MOL0     C11529   4.151   6.082   5.165 -0.1113  0.2014 -0.9982
   86MOL0     C11530   4.131   6.084   5.309 -0.5882 -0.1227 -0.0632
   86MOL0     C11531   4.002   6.065   5.366 -0.4371 -0.4326 -1.3155
   86MOL0     C11532   3.883   6.047   5.286 -0.4313  0.5814  0.5344
   86MOL0     O11533   3.749   6.025   5.337  0.3514  0.6416 -0.0913
   86MOL0     C11534   3.720   6.087   5.467 -0.0210  0.9074  0.3836
   86MOL0     C11535   3.571   6.072   5.510 -0.6123  0.0259 -0.1404
   86MOL0     C11536   3.552   6.144   5.646 -0.0627 -0.0187 -0.8476
   86MOL0     C11537   3.405   6.148   5.694  0.1397  0.0004  0.6836
   86MOL0     C11538   3.326   6.212   5.587  1.2434  0.2690  0.8393
   86MOL0     C11539   3.250   6.241   5.494 -0.0043  0.1402 -0.1813
   86MOL0     C11540   3.904   6.052   5.146 -0.0828 -0.3087 -0.4694
   86MOL0     C11541   4.038   6.060   5.089  0.1320 -0.1202 -0.3957
   86MOL0     C11542   4.035   6.048   4.939 -0.6011  0.6780  0.3639
   86MOL0     H11543   4.410   5.976   4.849 -1.3252  0.1895 -3.5580
   86MOL0     H11544   4.618   6.014   4.717 -0.9123 -0.2452  0.0122
   86MOL0     H11545   4.893   6.076   4.781 -1.7171 -1.9614 -1.1665
   86MOL0     H11546   4.813   6.038   4.634 -0.7798 -0.2614  1.3902
   86MOL0     H11547   5.043   6.081   4.620  1.1234  1.4061 -3.4712
   86MOL0     H11548   5.030   6.251   4.678  1.8678 -0.8524 -0.7258
   86MOL0     H11549   4.897   6.316   4.501 -1.4117 -0.9157 -2.1998
   86MOL0     H11550   4.889   6.151   4.430 -1.7000 -0.0306  1.0023
   86MOL0     H11551   5.141   6.324   4.472  0.3595 -0.0749  0.1258
   86MOL0     H11552   5.154   6.156   4.445 -1.0431 -1.0846 -0.1599
   86MOL0     H11553   5.057   6.165   4.224 -0.9020  1.3387 -2.2802
   86MOL0     H11554   4.997   6.326   4.246 -1.4235 -1.2009  1.8276
   86MOL0     H11555   5.240   6.407   4.272 -1.6622  0.8303 -1.5438
   86MOL0     H11556   5.299   6.243   4.242 -0.4398 -0.2452  0.7693
   86MOL0     H11557   5.330   6.353   4.039 -0.0485 -0.9549 -0.1554
   86MOL0     H11558   5.177   6.432   4.046  0.2530 -0.3688 -3.2040
   86MOL0     H11559   5.221   6.132   3.996  0.3742 -0.6761 -2.5869
   86MOL0     H11560   5.056   6.208   3.996 -0.5116  2.7534  0.5393
   86MOL0     H11561   5.393   6.198   3.807 -0.7752 -0.8556  0.8593
   86MOL0     H11562   5.313   6.345   3.454 -1.0525  0.2086  1.0370
   86MOL0     H11563   5.458   6.314   3.556  0.2031 -0.3636  0.4606
   86MOL0     H11564   5.472   6.131   3.422 -0.2148  0.4071  0.1537
   86MOL0     H11565   5.398   6.073   3.562  0.6407  2.1275  0.6567
   86MOL0     H11566   5.175   6.057   3.471  0.0942 -0.0453  0.8729
   86MOL0     H11567   5.300   5.969   3.365 -1.9849 -0.2958  0.9658
   86MOL0     H11568   5.186   6.229   3.299 -1.9241  1.0687 -2.1223
   86MOL0     H11569   5.119   6.079   3.238  1.4980 -1.3165 -0.7151
   86MOL0     H11570   5.457   6.105   2.946  0.0415 -0.6844  1.2576
   86MOL0     H11571   5.417   6.212   2.732  0.6744  0.6156  1.3055
   86MOL0     H11572   5.409   6.666   2.531  2.2187  0.9188 -2.3294
   86MOL0     H11573   5.377   6.795   2.329 -1.2586  1.1677  2.1961
   86MOL0     H11574   5.160   6.641   1.966  0.3903 -1.5470  0.3865
   86MOL0     H11575   5.029   6.668   2.084 -0.4816  0.5877 -0.9678
   86MOL0     H11576   5.037   6.922   2.049  1.1878 -0.1096 -0.1021
   86MOL0     H11577   5.187   6.911   1.960 -0.8513 -0.5857 -1.5545
   86MOL0     H11578   5.030   6.761   1.786 -3.4451 -0.5666 -0.2440
   86MOL0     H11579   4.902   6.834   1.875  0.8721 -1.9276  0.4726
   86MOL0     H11580   5.048   7.062   1.854 -0.8727  1.9788 -1.0279
   86MOL0     H11581   4.940   7.005   1.722  0.0611  0.8728 -0.0227
   86MOL0     H11582   5.142   6.939   1.586  1.9427 -0.7848 -1.3741
   86MOL0     H11583   5.243   6.943   1.734 -0.9446 -0.7085 -1.2207
   86MOL0     H11584   5.114   7.181   1.614  0.8854 -0.1963 -2.7374
   86MOL0     H11585   5.241   7.171   1.746 -0.5293 -1.5971  1.2103
   86MOL0     H11586   5.307   7.232   1.508  0.7334  0.8442  1.4194
   86MOL0     H11587   5.286   7.055   1.474 -0.8499 -0.9695  1.3890
   86MOL0     H11588   5.525   7.147   1.553  0.9777  1.8359  1.3051
   86MOL0     H11589   5.453   7.150   1.710  5.1846  2.0570 -1.1145
   86MOL0     H11590   5.137   6.501   2.172  2.6773 -3.0864 -1.4564
   86MOL0     H11591   5.183   6.350   2.388 -0.5752 -0.3298  0.7129
   86MOL0     H11592   5.057   6.390   2.874  0.1905  1.3172  2.6255
   86MOL0     H11593   5.088   6.264   3.092 -0.4061  0.0912 -0.8017
   86MOL0     H11594   4.633   6.418   4.855 -1.2400  0.3720 -1.4435
   86MOL0     H11595   4.435   6.392   4.956 -0.3029 -0.4721 -0.0399
   86MOL0     H11596   4.211   6.118   5.374 -0.1797 -0.1708 -0.5274
   86MOL0     H11597   3.992   6.077   5.474 -0.3821  2.2237 -1.5449
   86MOL0     H11598   3.751   6.192   5.470 -1.4648  1.5084 -2.7192
   86MOL0     H11599   3.781   6.036   5.543  2.6049 -1.5956 -3.0845
   86MOL0     H11600   3.557   5.964   5.524  2.9515 -0.2689  3.0995
   86MOL0     H11601   3.504   6.121   5.438 -0.6660  2.6913  1.5794
   86MOL0     H11602   3.590   6.247   5.649 -0.1160 -0.0343  0.6423
   86MOL0     H11603   3.598   6.099   5.734 -1.6973 -0.3104 -0.1236
   86MOL0     H11604   3.373   6.045   5.712  0.7090 -0.1648  0.7586
   86MOL0     H11605   3.403   6.209   5.785 -2.1259 -0.2001  0.8229
   86MOL0     H11606   3.188   6.255   5.407 -0.9863 -1.4017  0.2258
   86MOL0     H11607   3.818   6.032   5.083 -2.9107  4.1078  1.5007
   86MOL0     H11608   3.942   6.000   4.904  0.0906 -1.9273  1.8495
   86MOL0     H11609   4.042   6.147   4.893  0.3618 -0.4102 -1.9948
   86MOL0     H11610   4.119   5.995   4.894 -0.0175  1.1357  0.9072
   87MOL0     O11611  10.631   5.206   1.714  0.2649 -0.8842  0.9745
   87MOL0     C11612  10.540   5.230   1.792 -0.3620  0.3835  0.5504
   87MOL0     O11613  10.441   5.319   1.776  0.5966  0.0289  0.5564
   87MOL0     C11614  10.458   5.415   1.672  0.3161 -0.4608 -0.3289
   87MOL0     C11615  10.524   5.531   1.709 -0.6677  0.2917 -0.2913
   87MOL0     C11616  10.536   5.624   1.603  0.1493 -0.2377 -0.0745
   87MOL0     C11617  10.497   5.598   1.472 -0.7095  0.7874  0.2784
   87MOL0     O11618  10.511   5.708   1.382  0.7137 -0.1279  0.2123
   87MOL0     C11619  10.587   5.666   1.267 -0.3915 -0.1680  0.4491
   87MOL0     C11620  10.571   5.774   1.155  0.2580  0.4937 -0.9928
   87MOL0     C11621  10.434   5.756   1.085 -0.0868  0.3020  0.5981
   87MOL0     C11622  10.454   5.651   0.974 -0.0814 -0.0916  1.2096
   87MOL0     C11623  10.327   5.629   0.892  1.0455 -0.1607  0.7787
   87MOL0     C11624  10.294   5.747   0.801 -0.3051 -0.3596 -1.0950
   87MOL0     C11625  10.179   5.705   0.707  0.6078  0.1058  0.8776
   87MOL0     C11626  10.116   5.836   0.637  0.2353  0.9759 -0.5577
   87MOL0     N11627  10.220   5.907   0.562  0.0549  0.3472  0.8436
   87MOL0     C11628  10.240   5.868   0.431 -0.9837 -0.1014  0.1536
   87MOL0     C11629  10.353   5.929   0.397 -0.8636 -0.3240 -0.4842
   87MOL0     C11630  10.449   5.892   0.282  0.6306 -0.5258  0.2809
   87MOL0     C11631  10.452   5.992   0.167  0.4686  0.8082  1.0997
   87MOL0     C11632  10.483   5.924   0.027 -0.5404 -0.3389  0.2017
   87MOL0     C11633  10.606   5.833   0.029  0.4409  0.1392 -0.0447
   87MOL0     O11634  10.622   5.759  -0.097 -0.3538  0.7148 -0.3476
   87MOL0     C11635  10.528   5.664  -0.130  0.3838  0.0795  0.4910
   87MOL0     C11636  10.502   5.651  -0.269 -0.3452  0.9995  0.0280
   87MOL0     C11637  10.406   5.565  -0.318 -0.2521 -0.1271 -0.7436
   87MOL0     C11638  10.327   5.484  -0.231  0.1304  0.3749  0.9278
   87MOL0     C11639  10.233   5.386  -0.277 -0.0181  0.7195  0.4420
   87MOL0     O11640  10.243   5.351  -0.404  0.8177 -0.2236  0.8806
   87MOL0     C11641  10.171   5.247  -0.450  0.2592 -0.2568 -0.0604
   87MOL0     C11642  10.241   5.139  -0.488  0.2012  0.6557 -0.2261
   87MOL0     C11643  10.178   5.032  -0.562 -0.0502 -0.0642  0.0949
   87MOL0     C11644  10.041   5.037  -0.591 -0.6896 -0.2911 -0.6363
   87MOL0     O11645   9.968   4.932  -0.638  0.4608 -0.5453  0.0633
   87MOL0     C11646  10.024   4.800  -0.612  0.2243 -0.4144 -0.4470
   87MOL0     C11647   9.921   4.681  -0.617  0.6815  0.1171  0.0206
   87MOL0     C11648   9.848   4.669  -0.746  0.9128 -0.1944 -0.0350
   87MOL0     C11649   9.944   4.588  -0.837  0.1851 -0.3425  0.4698
   87MOL0     C11650   9.894   4.568  -0.989  0.2749  0.7514 -0.1761
   87MOL0     C11651   9.750   4.504  -1.003 -0.8276 -0.3881  0.1530
   87MOL0     C11652   9.735   4.360  -0.963 -0.7101  0.5640 -0.1737
   87MOL0     C11653   9.665   4.295  -1.080 -0.0653  0.9783  0.2135
   87MOL0    Cl11654   9.668   4.126  -1.022  0.0929  0.1220 -0.4451
   87MOL0     C11655   9.970   5.149  -0.529  0.4825  0.9174 -0.1563
   87MOL0     C11656  10.034   5.247  -0.457  0.1270  0.0915 -0.4491
   87MOL0     O11657  10.161   5.331  -0.199  0.8635  0.6894 -0.3924
   87MOL0     C11658  10.337   5.517  -0.096 -0.6816 -0.3924  0.5074
   87MOL0     C11659  10.432   5.601  -0.044  0.2060 -0.8850 -0.6023
   87MOL0     N11660  10.393   6.020   0.499 -0.2795  0.6771  0.3176
   87MOL0     N11661  10.314   5.997   0.603  0.1012 -1.2890  0.5282
   87MOL0     C11662  10.429   5.484   1.439  0.9848  0.6127  0.5366
   87MOL0     C11663  10.415   5.396   1.543  0.0754  0.1967  0.9997
   87MOL0     C11664  10.560   5.171   1.929  0.6693 -1.2858  0.2977
   87MOL0     C11665  10.520   5.251   2.027 -0.7798 -1.0871  0.1330
   87MOL0     C11666  10.527   5.221   2.165 -0.8065  0.2664  0.5654
   87MOL0     C11667  10.598   5.106   2.204 -1.4080 -0.4572  0.4233
   87MOL0     O11668  10.625   5.047   2.325 -0.4048  0.2151  0.2719
   87MOL0     C11669  10.573   5.122   2.437 -0.0834 -0.0038 -0.1958
   87MOL0     C11670  10.592   5.048   2.568  0.0612 -0.0343  0.5131
   87MOL0     C11671  10.740   5.055   2.605 -0.0363  0.9503 -0.4623
   87MOL0     C11672  10.818   4.944   2.532 -0.9008  0.4626 -0.0467
   87MOL0     C11673  10.955   4.917   2.587 -0.0602 -1.4753 -0.1516
   87MOL0     C11674  11.062   4.889   2.632 -0.4040 -0.3822 -0.2406
   87MOL0     C11675  10.641   5.018   2.097 -0.5008 -0.1192 -0.0131
   87MOL0     C11676  10.627   5.050   1.961 -0.1137 -0.3446  0.2321
   87MOL0     C11677  10.674   4.945   1.857  0.6533 -0.2713  0.4150
   87MOL0     H11678  10.557   5.556   1.809  0.1679 -2.4651  0.2075
   87MOL0     H11679  10.565   5.722   1.638 -1.9622  0.6343 -0.6305
   87MOL0     H11680  10.691   5.664   1.299 -0.3387  2.3422  0.6360
   87MOL0     H11681  10.558   5.565   1.234 -1.8107 -0.0721  1.3264
   87MOL0     H11682  10.650   5.750   1.084  1.0704  1.0084 -0.2774
   87MOL0     H11683  10.588   5.875   1.192 -2.4709  0.3443  0.9585
   87MOL0     H11684  10.401   5.850   1.039 -0.6356 -2.3752 -5.4619
   87MOL0     H11685  10.360   5.717   1.154 -2.0843  1.5751 -0.7169
   87MOL0     H11686  10.524   5.693   0.901  1.0772 -0.7639  1.8845
   87MOL0     H11687  10.492   5.556   1.012 -0.2387 -0.6440  0.0446
   87MOL0     H11688  10.343   5.539   0.833  0.0849 -0.6737  1.2802
   87MOL0     H11689  10.241   5.617   0.959  0.1807  4.9584  0.9824
   87MOL0     H11690  10.275   5.841   0.854 -0.4308 -0.1674 -1.4772
   87MOL0     H11691  10.380   5.767   0.736 -0.3430  2.3586 -0.4292
   87MOL0     H11692  10.095   5.656   0.756  0.7552  0.4955  1.5311
   87MOL0     H11693  10.225   5.640   0.633 -0.1212  0.7293 -0.1572
   87MOL0     H11694  10.038   5.808   0.565  0.4031 -2.1404  0.3145
   87MOL0     H11695  10.075   5.897   0.718 -1.7154  0.6649 -1.2546
   87MOL0     H11696  10.209   5.779   0.378 -2.6363 -0.6114  1.8933
   87MOL0     H11697  10.548   5.880   0.328  1.4233  0.2832 -1.1564
   87MOL0     H11698  10.425   5.793   0.242  1.9854 -1.1095  0.8208
   87MOL0     H11699  10.347   6.021   0.162  0.5641  0.9753 -1.4104
   87MOL0     H11700  10.529   6.067   0.189 -1.0068  3.0724 -0.9303
   87MOL0     H11701  10.492   6.005  -0.045  2.1902 -1.1034 -0.4085
   87MOL0     H11702  10.389   5.875   0.000 -0.7052 -0.1282  0.3955
   87MOL0     H11703  10.588   5.753   0.101  2.8534  0.1516  0.6603
   87MOL0     H11704  10.695   5.884   0.066  1.7312 -1.8626 -0.2676
   87MOL0     H11705  10.563   5.702  -0.342  0.3456 -0.3482 -0.3740
   87MOL0     H11706  10.409   5.540  -0.424 -0.4889 -3.4230 -0.0851
   87MOL0     H11707  10.344   5.126  -0.456 -0.4649 -2.3620  1.1310
   87MOL0     H11708  10.230   4.941  -0.589 -0.4375 -0.6679  1.3305
   87MOL0     H11709  10.111   4.781  -0.676  0.8989  2.9549 -0.6930
   87MOL0     H11710  10.069   4.800  -0.512  2.5938 -0.7065 -1.4535
   87MOL0     H11711   9.978   4.591  -0.596  0.5120 -0.0865 -0.3999
   87MOL0     H11712   9.847   4.695  -0.537  0.8753  2.8631 -0.1741
   87MOL0     H11713   9.760   4.607  -0.727  0.8927  0.3427  1.8989
   87MOL0     H11714   9.816   4.763  -0.791 -2.6704 -1.8716 -1.4220
   87MOL0     H11715   9.940   4.486  -0.797 -3.4724 -0.3732  0.3809
   87MOL0     H11716  10.048   4.621  -0.842 -0.1242  1.2066  2.7071
   87MOL0     H11717   9.967   4.509  -1.044  2.8686  2.7023  0.9507
   87MOL0     H11718   9.896   4.671  -1.026  0.5098  0.8481  0.0951
   87MOL0     H11719   9.670   4.556  -0.948 -1.0581 -1.1437  0.5483
   87MOL0     H11720   9.718   4.528  -1.105 -0.9250  1.2026  0.5379
   87MOL0     H11721   9.685   4.346  -0.867  1.1742  0.9272  0.9022
   87MOL0     H11722   9.830   4.309  -0.947 -1.0688 -1.1116 -2.6675
   87MOL0     H11723   9.562   4.329  -1.095 -0.3236  1.6063  2.8675
   87MOL0     H11724   9.718   4.301  -1.176 -2.2551 -4.0335 -1.6293
   87MOL0     H11725   9.864   5.139  -0.549  0.9897 -4.1308 -1.8488
   87MOL0     H11726   9.977   5.333  -0.425 -0.5204 -0.2568 -0.6510
   87MOL0     H11727  10.292   5.456  -0.018  2.9525 -0.7732  2.4951
   87MOL0     H11728  10.425   5.629   0.060 -0.2952  0.6945 -1.0280
   87MOL0     H11729  10.387   5.460   1.342  1.7971  2.2603 -0.2682
   87MOL0     H11730  10.366   5.302   1.518  2.1156 -0.7575  0.3365
   87MOL0     H11731  10.481   5.348   1.999  1.0420 -0.1460  0.6375
   87MOL0     H11732  10.486   5.293   2.235  2.7994  0.7039  2.4581
   87MOL0     H11733  10.466   5.138   2.422 -0.2019  2.5431  2.4026
   87MOL0     H11734  10.617   5.219   2.463 -0.3505 -0.9659  4.8943
   87MOL0     H11735  10.556   4.945   2.563 -0.2973  0.0399  1.4177
   87MOL0     H11736  10.528   5.082   2.649 -2.2920 -1.6204 -0.5451
   87MOL0     H11737  10.749   5.034   2.712 -0.5975 -2.0941 -0.9270
   87MOL0     H11738  10.784   5.153   2.589 -1.6488  2.1379  1.8085
   87MOL0     H11739  10.768   4.848   2.547  0.4342 -0.2059  0.3130
   87MOL0     H11740  10.829   4.962   2.425  2.3493 -0.9777 -0.0767
   87MOL0     H11741  11.150   4.872   2.690 -0.7042 -0.7558  0.1099
   87MOL0     H11742  10.678   4.918   2.116  0.5106  0.3637  0.6407
   87MOL0     H11743  10.691   4.850   1.908  2.1276 -0.1056  0.2867
   87MOL0     H11744  10.599   4.919   1.783  1.0252  2.2416 -0.9627
   87MOL0     H11745  10.770   4.960   1.806  1.8695 -1.7252  2.1348
   88MOL0     O11746   7.195   7.429   2.962  0.8157  0.6183  0.2977
   88MOL0     C11747   7.110   7.368   3.017  0.7865 -0.9760  0.1320
   88MOL0     O11748   7.039   7.410   3.131 -1.1460 -0.5068  0.1307
   88MOL0     C11749   7.079   7.526   3.182  0.5363 -0.4379  0.4100
   88MOL0     C11750   7.038   7.648   3.122 -0.1990 -0.7043 -0.2498
   88MOL0     C11751   7.058   7.770   3.197  0.6667  0.8507 -0.3174
   88MOL0     C11752   7.138   7.766   3.309  0.4028  0.3564  0.4028
   88MOL0     O11753   7.184   7.874   3.380  0.1786 -0.2796  0.2680
   88MOL0     C11754   7.138   8.002   3.361  0.5386 -0.5155 -1.0080
   88MOL0     C11755   7.183   8.067   3.230  0.2387 -0.0601 -0.3766
   88MOL0     C11756   7.095   8.175   3.178  0.7070  0.6922 -0.3749
   88MOL0     C11757   7.118   8.306   3.251  0.1295 -0.3214  0.2192
   88MOL0     C11758   7.019   8.417   3.216 -0.4123  0.2204 -0.2562
   88MOL0     C11759   7.039   8.504   3.089 -0.7220  0.1735  0.0915
   88MOL0     C11760   6.927   8.602   3.062  0.4682  0.4780 -0.0828
   88MOL0     C11761   6.937   8.667   2.927  0.4627 -0.5343 -0.3131
   88MOL0     N11762   6.818   8.750   2.895 -0.2329 -0.3176 -0.8944
   88MOL0     C11763   6.787   8.865   2.964  0.0036  0.5129 -0.0908
   88MOL0     C11764   6.677   8.914   2.900 -0.0881  0.6408  0.1808
   88MOL0     C11765   6.591   9.026   2.957  0.1869 -0.2583 -0.3332
   88MOL0     C11766   6.573   9.131   2.843 -0.2683 -0.9587 -0.0197
   88MOL0     C11767   6.499   9.247   2.907  0.0460 -0.3226  0.5442
   88MOL0     C11768   6.356   9.235   2.958 -0.0095  0.0372  0.0838
   88MOL0     O11769   6.318   9.357   3.027  0.2187  0.2706 -0.4074
   88MOL0     C11770   6.181   9.378   3.048 -0.0086  0.3297  0.3989
   88MOL0     C11771   6.073   9.303   2.997 -0.1691  0.2805  1.3755
   88MOL0     C11772   5.953   9.323   3.043  0.7646 -0.6743  0.1814
   88MOL0     C11773   5.916   9.417   3.141  0.2586  1.0037 -0.0719
   88MOL0     C11774   5.768   9.445   3.172 -0.2571 -0.2060 -0.6121
   88MOL0     O11775   5.685   9.340   3.154 -0.7393  0.2566 -0.1806
   88MOL0     C11776   5.559   9.363   3.176  0.2998 -0.3402 -0.2813
   88MOL0     C11777   5.495   9.274   3.275  0.3142 -0.2221  0.4614
   88MOL0     C11778   5.359   9.277   3.289  0.1340 -0.7782  0.1602
   88MOL0     C11779   5.279   9.356   3.208  0.7037  0.5661 -0.0319
   88MOL0     O11780   5.143   9.351   3.231 -0.2487  0.1437  0.0484
   88MOL0     C11781   5.055   9.369   3.121 -0.0084  0.3106  0.1665
   88MOL0     C11782   4.935   9.435   3.186  1.1599 -0.0313  0.8834
   88MOL0     C11783   4.835   9.509   3.085 -0.4607 -0.0617 -0.2956
   88MOL0     C11784   4.764   9.639   3.142 -0.2647  0.3845 -0.1896
   88MOL0     C11785   4.606   9.637   3.133  0.7971  0.0315 -0.6885
   88MOL0     C11786   4.538   9.779   3.149 -0.1420 -0.1583 -0.1520
   88MOL0     C11787   4.391   9.764   3.137 -0.2491  0.5666 -0.4804
   88MOL0     C11788   4.325   9.902   3.143  0.8420 -0.1755 -0.3412
   88MOL0    Cl11789   4.168   9.899   3.224 -0.1098 -0.1616 -0.2125
   88MOL0     C11790   5.348   9.437   3.107  0.2594 -0.5970  0.2389
   88MOL0     C11791   5.485   9.443   3.091  0.4385 -0.6622  0.2245
   88MOL0     O11792   5.743   9.562   3.214 -0.0745  0.6275  0.3531
   88MOL0     C11793   6.019   9.498   3.190  0.0728 -0.9134  0.4107
   88MOL0     C11794   6.152   9.473   3.161  0.2208 -0.2387  0.2658
   88MOL0     N11795   6.650   8.837   2.789 -0.3499 -0.0203 -0.8679
   88MOL0     N11796   6.744   8.750   2.779 -0.4244 -0.2083  0.6232
   88MOL0     C11797   7.178   7.647   3.364  0.7705  0.3627 -0.0124
   88MOL0     C11798   7.149   7.523   3.305  0.0510 -0.9354  0.7550
   88MOL0     C11799   7.049   7.244   2.958 -0.7585 -0.7856  0.4947
   88MOL0     C11800   7.041   7.126   3.025 -1.0285  1.6274  0.5725
   88MOL0     C11801   6.990   7.013   2.966 -0.0053 -0.2846  0.1614
   88MOL0     C11802   6.945   7.014   2.833  1.0196  0.2961 -0.2924
   88MOL0     O11803   6.917   6.902   2.753 -1.2527 -0.5054 -1.2282
   88MOL0     C11804   6.913   6.769   2.807  0.6740 -1.2108 -0.6511
   88MOL0     C11805   7.051   6.708   2.812  0.7272 -0.3047 -0.1301
   88MOL0     C11806   7.052   6.591   2.904 -0.2481  0.6144 -0.3147
   88MOL0     C11807   7.179   6.513   2.919 -0.7337 -0.7825  0.4686
   88MOL0     C11808   7.158   6.417   3.026  1.0782 -0.0994  0.1212
   88MOL0     C11809   7.152   6.359   3.134 -0.0254  0.4220 -0.4449
   88MOL0     C11810   6.947   7.135   2.770  0.7068 -0.3819 -0.2688
   88MOL0     C11811   7.001   7.250   2.827  0.5100 -0.0875 -0.6997
   88MOL0     C11812   7.009   7.371   2.739 -0.0232 -0.7484 -0.4143
   88MOL0     H11813   6.967   7.660   3.041 -1.8828 -2.1985  0.8989
   88MOL0     H11814   7.020   7.866   3.162 -1.0425  0.5579  0.6324
   88MOL0     H11815   7.029   8.006   3.367  0.5840 -1.2907  2.4814
   88MOL0     H11816   7.153   8.071   3.445 -1.4858 -1.5955  0.3199
   88MOL0     H11817   7.202   7.995   3.149 -0.8745  0.5873 -1.2410
   88MOL0     H11818   7.281   8.110   3.255  0.1184 -0.1129  0.1788
   88MOL0     H11819   6.991   8.146   3.194  1.0278 -0.7454 -0.7615
   88MOL0     H11820   7.106   8.193   3.070  1.2711 -1.7977 -0.7820
   88MOL0     H11821   7.099   8.284   3.357  1.9811 -2.7293  0.1265
   88MOL0     H11822   7.220   8.344   3.241  0.2033 -0.5809 -0.0021
   88MOL0     H11823   6.919   8.375   3.199  0.3570 -1.1583 -1.7472
   88MOL0     H11824   7.027   8.494   3.293  4.8296  0.2111 -0.4222
   88MOL0     H11825   7.133   8.560   3.092  0.7450 -2.1504  2.5866
   88MOL0     H11826   7.043   8.431   3.008 -0.1886  1.0556 -0.6976
   88MOL0     H11827   6.930   8.675   3.144  0.5016 -1.1608  1.4447
   88MOL0     H11828   6.832   8.549   3.075  1.8121 -1.9333  0.4731
   88MOL0     H11829   7.013   8.746   2.938 -0.7782  0.7451 -0.5946
   88MOL0     H11830   6.961   8.608   2.839  1.9577 -1.3670  0.6163
   88MOL0     H11831   6.836   8.899   3.054  1.5944 -0.0686 -0.6943
   88MOL0     H11832   6.493   9.004   2.999  1.0349  1.4742  2.8798
   88MOL0     H11833   6.644   9.071   3.042 -2.1542 -0.2005  1.1664
   88MOL0     H11834   6.667   9.161   2.798 -1.2932  1.3177 -0.7865
   88MOL0     H11835   6.521   9.102   2.751  3.3658 -1.5277 -2.0733
   88MOL0     H11836   6.497   9.323   2.828  0.6654 -0.5076  0.3418
   88MOL0     H11837   6.559   9.301   2.981  1.4289  2.6430 -2.4566
   88MOL0     H11838   6.336   9.154   3.028 -3.6099  2.6518  2.4354
   88MOL0     H11839   6.290   9.221   2.872 -0.6036 -0.1472  0.5673
   88MOL0     H11840   6.101   9.251   2.906  0.2902  1.2534  0.9473
   88MOL0     H11841   5.870   9.266   3.002 -0.6007  1.7331 -0.5537
   88MOL0     H11842   5.554   9.197   3.323 -1.6698 -1.8545  0.3823
   88MOL0     H11843   5.317   9.204   3.358  0.8807 -1.2389  0.1320
   88MOL0     H11844   5.088   9.431   3.037  1.0617  0.0870  0.4090
   88MOL0     H11845   5.043   9.267   3.081  0.7064  1.0297 -2.0604
   88MOL0     H11846   4.872   9.361   3.237 -1.3229 -0.6869 -2.6924
   88MOL0     H11847   4.964   9.507   3.262 -0.8594 -1.5990  3.2886
   88MOL0     H11848   4.895   9.538   2.998  2.6649 -1.8634  1.0684
   88MOL0     H11849   4.752   9.440   3.070  1.7418 -3.3154  1.1132
   88MOL0     H11850   4.809   9.726   3.093  0.5888 -0.8458 -1.6748
   88MOL0     H11851   4.788   9.650   3.248 -0.2141  1.5767 -0.3152
   88MOL0     H11852   4.570   9.575   3.216 -1.7099  2.2484  0.0180
   88MOL0     H11853   4.582   9.589   3.038  0.2445 -0.5742 -0.2498
   88MOL0     H11854   4.563   9.822   3.247 -1.8266  0.7144 -0.0530
   88MOL0     H11855   4.569   9.847   3.070 -2.1412 -0.2997 -1.1262
   88MOL0     H11856   4.345   9.723   3.228 -1.4372 -1.5435 -1.9571
   88MOL0     H11857   4.357   9.703   3.053  0.1135 -0.8566  0.3703
   88MOL0     H11858   4.383   9.973   3.202 -1.4665  2.7277 -1.3049
   88MOL0     H11859   4.327   9.938   3.039  1.5286  0.4641 -0.1198
   88MOL0     H11860   5.295   9.499   3.035  2.1439  0.5522 -0.2462
   88MOL0     H11861   5.530   9.496   3.008 -1.0713 -0.8070 -0.7262
   88MOL0     H11862   5.984   9.566   3.266  0.4141 -0.8628  0.5258
   88MOL0     H11863   6.233   9.530   3.207 -0.7269  0.1282  1.5459
   88MOL0     H11864   7.233   7.643   3.457  2.1153  3.0610 -0.5736
   88MOL0     H11865   7.167   7.429   3.357  0.5428 -0.3417  1.6884
   88MOL0     H11866   7.105   7.095   3.107  2.9246 -0.8385 -3.0477
   88MOL0     H11867   6.999   6.914   3.008  4.1037 -0.8753 -1.6306
   88MOL0     H11868   6.845   6.710   2.745 -0.1038 -1.5332  0.4693
   88MOL0     H11869   6.863   6.778   2.904  0.7069  0.0346 -0.7371
   88MOL0     H11870   7.115   6.789   2.848 -0.6628 -0.1188  2.1785
   88MOL0     H11871   7.081   6.689   2.709  0.0064  0.2596 -0.4532
   88MOL0     H11872   6.984   6.513   2.869  2.1043 -1.3342 -0.8103
   88MOL0     H11873   7.023   6.625   3.004 -2.8063  1.1013 -1.1594
   88MOL0     H11874   7.201   6.463   2.824 -2.0965 -1.2739  0.3847
   88MOL0     H11875   7.261   6.571   2.961 -0.5838 -1.5017  1.1892
   88MOL0     H11876   7.138   6.318   3.232  1.5325  1.4572  0.2521
   88MOL0     H11877   6.895   7.137   2.674 -1.4079 -1.2724  0.8096
   88MOL0     H11878   7.105   7.384   2.688 -0.1436 -2.6469 -1.2149
   88MOL0     H11879   6.925   7.363   2.670 -1.8124 -2.4541  1.7735
   88MOL0     H11880   7.000   7.464   2.796 -0.1933  1.1594 -3.3784
   89MOL0     O11881   3.898   0.486   2.495  0.5759  0.0213 -0.0319
   89MOL0     C11882   3.846   0.430   2.399 -0.1428  0.3404 -0.7059
   89MOL0     O11883   3.774   0.494   2.304 -0.2368  0.5104  0.0508
   89MOL0     C11884   3.754   0.624   2.330  0.8168  0.8314  0.0681
   89MOL0     C11885   3.830   0.718   2.263 -0.0298 -0.6924 -0.7614
   89MOL0     C11886   3.803   0.860   2.279 -0.7850 -0.1203  0.0761
   89MOL0     C11887   3.703   0.892   2.369 -0.1633 -0.3045 -0.5641
   89MOL0     O11888   3.662   1.015   2.397 -0.0105 -0.1121  0.4147
   89MOL0     C11889   3.640   1.104   2.283 -0.6895  0.1496  0.0035
   89MOL0     C11890   3.581   1.236   2.332  0.4712 -0.1595  0.7988
   89MOL0     C11891   3.425   1.235   2.357  0.6639  0.4442 -0.1540
   89MOL0     C11892   3.352   1.239   2.225  0.1918 -0.3319  1.3052
   89MOL0     C11893   3.196   1.253   2.226 -0.6312  0.8675  0.3971
   89MOL0     C11894   3.116   1.153   2.300 -0.4316  0.5160 -0.2639
   89MOL0     C11895   2.960   1.165   2.294 -0.5894  1.4112 -0.2467
   89MOL0     C11896   2.904   1.126   2.429 -0.2372  0.6084  0.4002
   89MOL0     N11897   2.777   1.178   2.472  0.7541  0.1551  0.5555
   89MOL0     C11898   2.654   1.131   2.423  0.4016 -0.0216 -1.0921
   89MOL0     C11899   2.564   1.227   2.464 -0.0066  0.4652  0.5473
   89MOL0     C11900   2.414   1.226   2.448  0.9365 -0.7931 -0.3275
   89MOL0     C11901   2.351   1.097   2.395 -0.9508 -0.7948  0.5436
   89MOL0     C11902   2.202   1.103   2.412 -0.0513 -0.8343 -0.1894
   89MOL0     C11903   2.136   0.964   2.369  0.9951 -0.1352  0.1380
   89MOL0     O11904   2.180   0.894   2.247  0.4556 -0.7638 -0.1521
   89MOL0     C11905   2.167   0.960   2.129  1.0024  0.3137  0.5041
   89MOL0     C11906   2.280   0.948   2.043 -0.1468  0.0914  0.5152
   89MOL0     C11907   2.262   0.997   1.909 -0.3648  0.2412 -0.6728
   89MOL0     C11908   2.147   1.070   1.875  0.3021  0.5071  0.2080
   89MOL0     C11909   2.131   1.132   1.740 -0.2034  0.1847  0.7454
   89MOL0     O11910   2.252   1.137   1.662  0.0671  0.3475  0.6119
   89MOL0     C11911   2.273   1.218   1.551  0.6657  0.1679 -0.8137
   89MOL0     C11912   2.384   1.191   1.480 -0.1128  0.0395  0.3933
   89MOL0     C11913   2.420   1.275   1.370  0.0697  0.1876  0.6158
   89MOL0     C11914   2.330   1.382   1.327  0.0018 -0.2903  0.0386
   89MOL0     O11915   2.338   1.459   1.211 -0.2634  0.6182 -0.0265
   89MOL0     C11916   2.423   1.412   1.101  1.0118  0.4203 -0.5947
   89MOL0     C11917   2.352   1.435   0.969  0.1585  0.7329 -0.4136
   89MOL0     C11918   2.342   1.586   0.940  0.1818  0.6198 -0.4444
   89MOL0     C11919   2.289   1.619   0.804 -1.4149 -0.6341  0.1537
   89MOL0     C11920   2.291   1.770   0.782  0.7569 -0.4681 -0.3561
   89MOL0     C11921   2.345   1.798   0.645 -0.4665  1.2569  0.1561
   89MOL0     C11922   2.265   1.749   0.521 -0.4458 -0.4327  0.0316
   89MOL0     C11923   2.200   1.851   0.428 -0.0589 -1.0414  0.8365
   89MOL0    Cl11924   2.121   1.978   0.539 -0.4507  0.1354  0.1948
   89MOL0     C11925   2.228   1.421   1.419  0.0022 -0.4483 -0.3978
   89MOL0     C11926   2.199   1.341   1.531 -0.7007 -0.2239  0.4520
   89MOL0     O11927   2.019   1.184   1.707 -0.5820 -0.2106 -0.4674
   89MOL0     C11928   2.042   1.094   1.967 -0.6972 -0.3980 -0.4098
   89MOL0     C11929   2.053   1.038   2.087  0.3483  0.0535  0.2803
   89MOL0     N11930   2.634   1.331   2.523 -0.0945 -0.6856 -0.0412
   89MOL0     N11931   2.759   1.308   2.531 -0.3462  0.4768 -0.2949
   89MOL0     C11932   3.629   0.792   2.434 -0.5477 -0.2316  0.7380
   89MOL0     C11933   3.658   0.660   2.418  0.2548  0.1813  0.2367
   89MOL0     C11934   3.866   0.288   2.397 -0.0288 -0.0407 -0.6407
   89MOL0     C11935   3.831   0.229   2.277 -0.1840  0.6462  0.0045
   89MOL0     C11936   3.837   0.088   2.254 -0.4810 -0.4911  0.7971
   89MOL0     C11937   3.884  -0.006   2.349  1.1353 -0.3201 -0.0133
   89MOL0     O11938   3.878  -0.139   2.324  0.1995 -0.5453  0.6224
   89MOL0     C11939   3.801  -0.218   2.419  0.5148  1.8036 -0.7637
   89MOL0     C11940   3.653  -0.183   2.426 -0.6253 -1.3236  0.5542
   89MOL0     C11941   3.564  -0.283   2.492  0.1222 -0.0637  1.0899
   89MOL0     C11942   3.414  -0.251   2.483 -0.5345 -0.0795 -0.6666
   89MOL0     C11943   3.392  -0.138   2.582 -0.8177 -0.1002  0.2577
   89MOL0     C11944   3.373  -0.043   2.654  0.0185  0.0105 -0.4980
   89MOL0     C11945   3.905   0.055   2.476 -0.5453 -0.0402  0.2715
   89MOL0     C11946   3.888   0.195   2.503  0.0306 -0.0979  0.0281
   89MOL0     C11947   3.869   0.232   2.648 -0.6287  0.6801 -1.0558
   89MOL0     H11948   3.914   0.686   2.202 -0.2258 -0.4581 -1.1558
   89MOL0     H11949   3.851   0.935   2.216  0.0034 -0.6397  0.0427
   89MOL0     H11950   3.735   1.113   2.229 -0.3592  0.0926  0.5713
   89MOL0     H11951   3.560   1.063   2.220 -0.4845 -1.9258  0.9956
   89MOL0     H11952   3.596   1.309   2.252 -3.2578 -1.1367 -1.0186
   89MOL0     H11953   3.631   1.268   2.424 -0.4300 -1.7485  1.8841
   89MOL0     H11954   3.394   1.317   2.423 -2.2948  0.5883 -1.5865
   89MOL0     H11955   3.395   1.136   2.391  1.6034 -0.3624 -1.5931
   89MOL0     H11956   3.392   1.329   2.177  0.6616 -1.2403 -0.0609
   89MOL0     H11957   3.378   1.161   2.154  0.4337  0.2749  0.7200
   89MOL0     H11958   3.168   1.355   2.252  1.2440  1.0290  2.0561
   89MOL0     H11959   3.158   1.232   2.125  1.3305 -3.0615  0.2750
   89MOL0     H11960   3.145   1.050   2.278 -3.3394 -0.5289  0.3822
   89MOL0     H11961   3.156   1.165   2.402  2.5812 -1.0894 -1.1328
   89MOL0     H11962   2.914   1.095   2.223 -0.1272 -0.8943  1.5931
   89MOL0     H11963   2.928   1.266   2.267 -1.2888  0.5147 -3.1630
   89MOL0     H11964   2.895   1.017   2.437  0.0105  0.5546 -0.0128
   89MOL0     H11965   2.979   1.148   2.506 -0.1188 -2.4010  1.2717
   89MOL0     H11966   2.636   1.055   2.348 -2.6803 -1.5640  0.9958
   89MOL0     H11967   2.367   1.241   2.546 -2.4470 -0.7056 -1.8462
   89MOL0     H11968   2.382   1.310   2.386 -0.4171 -1.7246 -0.9335
   89MOL0     H11969   2.363   1.087   2.287 -0.5036 -3.9146  0.7974
   89MOL0     H11970   2.382   1.003   2.442  1.1682 -1.9728 -2.8571
   89MOL0     H11971   2.164   1.182   2.345  0.4405 -3.1213 -3.4064
   89MOL0     H11972   2.196   1.125   2.519  0.1871  2.1902 -0.7061
   89MOL0     H11973   2.028   0.971   2.353  1.2485 -1.9672 -3.4849
   89MOL0     H11974   2.141   0.888   2.448 -1.6897  0.4312  0.9488
   89MOL0     H11975   2.369   0.896   2.076  1.6646  3.3028  1.1731
   89MOL0     H11976   2.329   0.961   1.831  0.0175 -2.6025  0.8064
   89MOL0     H11977   2.441   1.100   1.497  2.3780  0.1182 -5.3267
   89MOL0     H11978   2.511   1.249   1.317 -0.1027 -0.8275  0.7947
   89MOL0     H11979   2.523   1.455   1.097  1.7695 -1.2810 -0.3942
   89MOL0     H11980   2.429   1.303   1.107 -2.3093  0.0929 -1.0222
   89MOL0     H11981   2.404   1.377   0.892  2.4363  1.5330  0.4445
   89MOL0     H11982   2.250   1.394   0.974  0.2512  0.5758  0.3639
   89MOL0     H11983   2.273   1.621   1.017 -0.0605 -0.0637 -0.3424
   89MOL0     H11984   2.440   1.632   0.955  1.1652 -0.0556 -3.9042
   89MOL0     H11985   2.187   1.581   0.797 -1.4159 -0.7958  0.8983
   89MOL0     H11986   2.347   1.562   0.731  2.2855  0.8972  1.6433
   89MOL0     H11987   2.351   1.830   0.851 -1.7153  0.1696  1.4089
   89MOL0     H11988   2.191   1.815   0.786  0.8318 -0.3801  1.4592
   89MOL0     H11989   2.363   1.906   0.644  0.3954  1.1099 -0.4795
   89MOL0     H11990   2.439   1.743   0.640 -1.5641 -0.7221  0.0480
   89MOL0     H11991   2.178   1.690   0.552  0.1243 -2.2450 -1.6136
   89MOL0     H11992   2.328   1.676   0.468  2.8665  1.6901  0.7086
   89MOL0     H11993   2.277   1.905   0.372 -1.5576  1.4197  1.0067
   89MOL0     H11994   2.138   1.795   0.358  1.0219  0.7143 -1.6619
   89MOL0     H11995   2.164   1.502   1.385  0.6237  0.7927  1.2377
   89MOL0     H11996   2.121   1.375   1.599 -2.4550 -2.0789 -0.5578
   89MOL0     H11997   1.952   1.148   1.941  0.2968  0.4524 -2.2845
   89MOL0     H11998   1.972   1.048   2.159 -2.5134  1.3799 -2.8513
   89MOL0     H11999   3.560   0.819   2.514 -2.7002  2.2894 -1.7791
   89MOL0     H12000   3.601   0.581   2.465 -1.8458  0.3905 -1.7628
   89MOL0     H12001   3.772   0.280   2.202  1.5664  2.2996 -0.3315
   89MOL0     H12002   3.805   0.052   2.156 -0.5820  0.0585  0.6255
   89MOL0     H12003   3.845  -0.207   2.519 -1.0410  0.4747  0.1398
   89MOL0     H12004   3.802  -0.324   2.390  0.8592  0.9041  2.1692
   89MOL0     H12005   3.634  -0.192   2.319  0.2649 -1.9277  0.4350
   89MOL0     H12006   3.650  -0.079   2.459  0.3372 -0.5213 -1.6672
   89MOL0     H12007   3.593  -0.283   2.598  3.8438  6.2634  0.5806
   89MOL0     H12008   3.585  -0.376   2.439 -3.0598 -0.6424  0.6607
   89MOL0     H12009   3.385  -0.209   2.386  0.5834  2.0875 -0.1394
   89MOL0     H12010   3.352  -0.339   2.501  0.4016 -0.3880  1.2478
   89MOL0     H12011   3.363   0.043   2.717 -0.0676 -0.7912  0.5910
   89MOL0     H12012   3.942  -0.019   2.546  4.0492  0.9733 -0.7278
   89MOL0     H12013   3.798   0.160   2.691  0.6095 -0.2934 -0.5739
   89MOL0     H12014   3.954   0.203   2.710 -1.2879 -0.8146 -0.7870
   89MOL0     H12015   3.839   0.336   2.664  0.5213  0.7216  1.1502
   90MOL0     O12016   0.096   9.807   3.916  0.5606 -0.0360 -0.2183
   90MOL0     C12017   0.139   9.812   4.033 -0.0706 -0.0572  0.7737
   90MOL0     O12018   0.189   9.928   4.092  1.0159  0.0269  0.6325
   90MOL0     C12019   0.232  10.034   4.015  1.0706 -0.6276 -0.0359
   90MOL0     C12020   0.147  10.096   3.914  0.5625 -0.3735 -0.1161
   90MOL0     C12021   0.203  10.204   3.843  0.4914 -0.1136  0.2375
   90MOL0     C12022   0.313  10.267   3.885 -0.1458 -1.2820  0.3019
   90MOL0     O12023   0.377  10.368   3.817  0.9248 -0.1118  0.3229
   90MOL0     C12024   0.295  10.465   3.745 -0.2176  0.7921  0.0793
   90MOL0     C12025   0.310  10.441   3.597  0.1114 -0.1120 -0.0648
   90MOL0     C12026   0.454  10.437   3.546 -0.5663  0.1968  0.6824
   90MOL0     C12027   0.465  10.445   3.388 -0.6627  0.5559 -0.2111
   90MOL0     C12028   0.602  10.406   3.317 -0.2342 -0.4755 -0.0483
   90MOL0     C12029   0.641  10.260   3.347 -0.2411  0.5872  0.4978
   90MOL0     C12030   0.737  10.193   3.235 -0.2235 -0.0955  0.0586
   90MOL0     C12031   0.669  10.173   3.103 -0.3168 -0.0237  0.4021
   90MOL0     N12032   0.746  10.089   3.003  0.7424  0.5862  0.0866
   90MOL0     C12033   0.703  10.064   2.876  0.3591  0.6839 -0.5594
   90MOL0     C12034   0.794   9.967   2.829 -0.2383  0.6612 -0.4466
   90MOL0     C12035   0.797   9.904   2.693 -0.6993  0.1160  0.9453
   90MOL0     C12036   0.899   9.976   2.595 -0.4074  0.0216 -0.0016
   90MOL0     C12037   0.900   9.899   2.458  0.7890 -0.1568  0.2130
   90MOL0     C12038   0.989   9.948   2.344  0.7604  0.0965 -0.6190
   90MOL0     O12039   0.960  10.086   2.313  0.0239 -0.0501 -0.7527
   90MOL0     C12040   1.043  10.136   2.212  0.1949 -0.8434  0.6199
   90MOL0     C12041   0.994  10.252   2.146 -0.3664  0.0096 -0.5437
   90MOL0     C12042   1.066  10.321   2.053  0.0161 -0.9804 -0.3452
   90MOL0     C12043   1.183  10.259   2.003  0.7628  1.5477 -0.5440
   90MOL0     C12044   1.245  10.303   1.879  0.0061 -0.5006  0.2706
   90MOL0     O12045   1.331  10.214   1.818  0.4633  0.2064 -0.4506
   90MOL0     C12046   1.410  10.268   1.718 -0.7552 -1.6300  0.8250
   90MOL0     C12047   1.380  10.247   1.586  0.7295  1.0418  0.3287
   90MOL0     C12048   1.464  10.267   1.481 -0.7010  1.6077 -0.9762
   90MOL0     C12049   1.581  10.332   1.506 -0.0674  0.1399  0.4604
   90MOL0     O12050   1.646  10.365   1.392  0.8049  0.5500  0.0473
   90MOL0     C12051   1.686  10.500   1.372 -0.0222  0.0659  1.3733
   90MOL0     C12052   1.822  10.503   1.287  1.2115 -0.2923  0.0614
   90MOL0     C12053   1.793  10.456   1.148 -0.8631  0.4715  0.3537
   90MOL0     C12054   1.834  10.308   1.120 -0.3715  0.7309 -0.1344
   90MOL0     C12055   1.788  10.280   0.977  1.1150  0.0030 -0.9308
   90MOL0     C12056   1.872  10.163   0.928 -0.0510 -0.3500  0.4253
   90MOL0     C12057   1.814  10.094   0.789 -0.3348 -0.5093 -0.3962
   90MOL0     C12058   1.925  10.094   0.677 -0.0986 -0.8584  0.3693
   90MOL0    Cl12059   1.961  10.274   0.640  0.2944  0.1883 -0.2531
   90MOL0     C12060   1.614  10.372   1.631 -0.4935  1.1251  0.0535
   90MOL0     C12061   1.532  10.340   1.740  0.1326 -0.0152  0.0234
   90MOL0     O12062   1.223  10.418   1.840 -0.3391 -0.4062  0.5088
   90MOL0     C12063   1.234  10.140   2.072  0.1227 -0.6489  0.2773
   90MOL0     C12064   1.169  10.084   2.181  0.0869 -0.6433  0.1529
   90MOL0     N12065   0.893   9.940   2.921  0.3482  0.7759  0.1414
   90MOL0     N12066   0.865  10.023   3.025  0.1225 -0.3778 -0.3560
   90MOL0     C12067   0.386  10.217   3.989 -0.1982 -0.1446 -0.2521
   90MOL0     C12068   0.349  10.101   4.051  0.0907  0.7009  0.9703
   90MOL0     C12069   0.117   9.691   4.120  0.0893  0.6131 -0.9200
   90MOL0     C12070   0.139   9.710   4.260 -0.0591  0.3233  0.5180
   90MOL0     C12071   0.092   9.602   4.349 -0.6570 -0.5711  0.9498
   90MOL0     C12072   0.034   9.488   4.302 -0.2261  0.7125 -0.1190
   90MOL0     O12073  -0.021   9.405   4.400 -0.3766  0.2358  0.3274
   90MOL0     C12074  -0.135   9.337   4.372  0.1182 -0.5390 -0.2632
   90MOL0     C12075  -0.253   9.427   4.351  0.1758  0.7522 -0.0553
   90MOL0     C12076  -0.368   9.353   4.281  0.1621  0.4220  0.1918
   90MOL0     C12077  -0.356   9.345   4.130  0.2486 -0.4039  0.8661
   90MOL0     C12078  -0.340   9.462   4.040  0.6279 -0.3522 -0.3099
   90MOL0     C12079  -0.336   9.545   3.954 -0.1193  0.1752  0.8825
   90MOL0     C12080   0.020   9.472   4.165 -1.0443  1.3287  0.6257
   90MOL0     C12081   0.060   9.567   4.073 -0.3597 -0.1754  0.2874
   90MOL0     C12082   0.048   9.541   3.925 -0.6572 -0.5135 -0.2517
   90MOL0     H12083   0.057  10.049   3.874  0.5666  1.0433 -1.9770
   90MOL0     H12084   0.140  10.246   3.765 -0.0045  0.9466  1.1726
   90MOL0     H12085   0.189  10.449   3.766 -0.0022  1.6859  2.2063
   90MOL0     H12086   0.329  10.565   3.774  1.8499  0.3223 -0.5084
   90MOL0     H12087   0.244  10.518   3.555 -1.4858 -2.2985 -1.7389
   90MOL0     H12088   0.262  10.352   3.557 -0.8839  0.0587  0.7147
   90MOL0     H12089   0.505  10.345   3.573 -0.8862 -0.6968 -1.5410
   90MOL0     H12090   0.500  10.533   3.574  1.0527 -0.6771  1.1197
   90MOL0     H12091   0.389  10.381   3.342 -0.6954  0.4248  0.0240
   90MOL0     H12092   0.442  10.545   3.351  2.0256  0.5399 -2.2390
   90MOL0     H12093   0.595  10.437   3.213 -3.4404  1.8293  0.6933
   90MOL0     H12094   0.683  10.463   3.364  0.0878  0.7718 -2.0164
   90MOL0     H12095   0.695  10.259   3.442 -0.2661 -1.8233  0.5484
   90MOL0     H12096   0.554  10.193   3.353 -0.1861 -0.0210 -3.1908
   90MOL0     H12097   0.778  10.099   3.272 -3.4052 -1.5267  0.2665
   90MOL0     H12098   0.824  10.257   3.217 -0.6544  0.3563 -0.4358
   90MOL0     H12099   0.568  10.133   3.107 -0.5801 -0.5494 -4.6390
   90MOL0     H12100   0.658  10.270   3.053 -1.2813 -0.9524 -1.2484
   90MOL0     H12101   0.614  10.077   2.815  0.5084 -2.3322 -1.6205
   90MOL0     H12102   0.830   9.801   2.709  0.5892  0.5533  1.1451
   90MOL0     H12103   0.695   9.895   2.654  0.1893 -1.9333 -1.1106
   90MOL0     H12104   0.885  10.084   2.587  2.6233  0.5395  0.2638
   90MOL0     H12105   0.991   9.955   2.650 -0.3474 -2.6649 -0.9849
   90MOL0     H12106   0.801   9.910   2.415  1.8763 -0.5476 -2.5600
   90MOL0     H12107   0.925   9.793   2.470  1.8428  0.0683  0.0805
   90MOL0     H12108   0.968   9.884   2.258 -0.9734 -0.4833  0.1918
   90MOL0     H12109   1.088   9.928   2.385  0.0912 -1.4139  0.3218
   90MOL0     H12110   0.897  10.295   2.171  0.3133  3.9270 -3.5914
   90MOL0     H12111   1.015  10.409   2.016  0.5327 -0.0679  1.0175
   90MOL0     H12112   1.296  10.182   1.561  0.0204  1.5915  1.2181
   90MOL0     H12113   1.427  10.244   1.381  3.3648 -0.1202 -2.2959
   90MOL0     H12114   1.614  10.550   1.307  0.5257 -0.2397  0.5097
   90MOL0     H12115   1.685  10.563   1.462  0.1973 -0.0384  1.4506
   90MOL0     H12116   1.874  10.599   1.284  2.8324 -1.1078  0.9630
   90MOL0     H12117   1.891  10.432   1.333  0.9540 -1.7911 -1.7601
   90MOL0     H12118   1.685  10.458   1.130 -0.8435 -0.7663 -0.0047
   90MOL0     H12119   1.829  10.533   1.080  2.0375  0.1661  1.4312
   90MOL0     H12120   1.788  10.246   1.197 -2.3193  1.5031 -0.6333
   90MOL0     H12121   1.943  10.301   1.131 -0.0119  1.4280 -2.5890
   90MOL0     H12122   1.802  10.363   0.908 -0.1941  2.5308  1.6180
   90MOL0     H12123   1.681  10.259   0.990  1.5253 -1.6320  0.0760
   90MOL0     H12124   1.977  10.190   0.921  0.0338 -0.2543  1.7570
   90MOL0     H12125   1.864  10.083   1.003 -0.6817  0.3762  1.1553
   90MOL0     H12126   1.732  10.153   0.747 -0.1425  1.0336  1.2447
   90MOL0     H12127   1.771   9.994   0.800 -1.2297 -0.4874 -2.9189
   90MOL0     H12128   2.015  10.051   0.720  0.6768  1.6546  1.4223
   90MOL0     H12129   1.900  10.039   0.586 -0.2583 -3.4146  1.8835
   90MOL0     H12130   1.712  10.417   1.640  0.5522  0.0944 -4.3013
   90MOL0     H12131   1.561  10.361   1.843  3.2951 -4.4510  0.3001
   90MOL0     H12132   1.328  10.103   2.034  0.8391  1.9535 -0.7012
   90MOL0     H12133   1.202   9.993   2.230 -1.5939  0.3441  3.3554
   90MOL0     H12134   0.470  10.274   4.026  0.1673 -2.3237  2.5654
   90MOL0     H12135   0.405  10.047   4.127 -3.1217 -1.6602  1.8798
   90MOL0     H12136   0.184   9.801   4.299 -0.8053  1.2053 -0.5904
   90MOL0     H12137   0.105   9.631   4.453 -0.5777  0.6745  0.6065
   90MOL0     H12138  -0.146   9.277   4.462  3.0459 -0.4918  0.2471
   90MOL0     H12139  -0.114   9.264   4.294  0.0908  0.1802 -0.9602
   90MOL0     H12140  -0.240   9.521   4.296 -2.4185  1.0875 -0.2260
   90MOL0     H12141  -0.274   9.461   4.453  1.5491 -0.7284  0.7697
   90MOL0     H12142  -0.462   9.392   4.319  0.0667 -2.0412  2.8638
   90MOL0     H12143  -0.369   9.250   4.317 -1.4435  0.3430 -0.0253
   90MOL0     H12144  -0.280   9.271   4.102 -0.3012 -0.7850  0.3686
   90MOL0     H12145  -0.451   9.305   4.094  0.4371 -0.5108  0.4817
   90MOL0     H12146  -0.331   9.606   3.867 -5.4185 -1.7651 -1.2262
   90MOL0     H12147  -0.028   9.387   4.118  1.7305  0.2736 -0.4964
   90MOL0     H12148   0.004   9.443   3.908 -1.3558 -0.6078  1.8713
   90MOL0     H12149  -0.026   9.613   3.887 -1.7094 -0.9047  0.9876
   90MOL0     H12150   0.143   9.549   3.871  1.0340 -1.1798  2.4209
   91MOL0     O12151   0.676   0.155   0.662  0.0540 -0.1608  0.1112
   91MOL0     C12152   0.562   0.168   0.619  0.0525  0.4900 -0.3045
   91MOL0     O12153   0.501   0.081   0.525 -0.1312  0.7305 -0.1479
   91MOL0     C12154   0.527  -0.052   0.538  0.5682 -0.6671 -0.2048
   91MOL0     C12155   0.521  -0.131   0.426 -0.1693 -0.1294  0.0461
   91MOL0     C12156   0.549  -0.269   0.427 -0.6951  0.4230 -0.2990
   91MOL0     C12157   0.589  -0.338   0.550  0.7558 -0.5439  0.0131
   91MOL0     O12158   0.610  -0.473   0.528 -0.4384 -0.4109  0.1438
   91MOL0     C12159   0.714  -0.523   0.603 -0.1651  0.0992 -0.5554
   91MOL0     C12160   0.837  -0.540   0.514 -0.5968 -0.5266  0.7668
   91MOL0     C12161   0.920  -0.406   0.492 -0.0519 -0.2478  0.6156
   91MOL0     C12162   1.023  -0.420   0.380 -0.9133 -0.4821 -0.5168
   91MOL0     C12163   1.129  -0.304   0.393  0.7369  0.2491  0.6040
   91MOL0     C12164   1.211  -0.282   0.260  0.6056  0.2423 -1.0779
   91MOL0     C12165   1.319  -0.176   0.266  0.6953  0.1936  0.1669
   91MOL0     C12166   1.399  -0.181   0.132  0.7152 -0.3815 -0.0474
   91MOL0     N12167   1.486  -0.060   0.125 -1.3812 -0.0619  0.1589
   91MOL0     C12168   1.577  -0.022   0.219 -0.9105 -1.0214  0.0733
   91MOL0     C12169   1.670   0.063   0.167 -0.2081 -0.5422  0.5406
   91MOL0     C12170   1.784   0.140   0.225 -0.3629 -0.0230 -0.3772
   91MOL0     C12171   1.853   0.044   0.326 -0.9040  0.1001 -0.1105
   91MOL0     C12172   1.940  -0.064   0.266  0.3305  0.2101  1.1449
   91MOL0     C12173   1.980  -0.177   0.362 -0.1909 -0.1409 -0.0042
   91MOL0     O12174   1.881  -0.214   0.463 -0.1828  0.3173  0.2472
   91MOL0     C12175   1.774  -0.290   0.420  1.1069 -0.7983 -0.4180
   91MOL0     C12176   1.764  -0.383   0.315  0.7710 -0.5725  0.8619
   91MOL0     C12177   1.646  -0.457   0.295 -0.2160 -1.0937  0.0313
   91MOL0     C12178   1.541  -0.463   0.385 -0.8598  0.0970 -0.4994
   91MOL0     C12179   1.424  -0.553   0.377  0.1596  0.7548  0.2917
   91MOL0     O12180   1.423  -0.642   0.277  0.5074  0.4273  0.3578
   91MOL0     C12181   1.307  -0.715   0.264 -0.8311  0.0319 -0.4257
   91MOL0     C12182   1.215  -0.671   0.169  0.0847 -0.6917 -0.1038
   91MOL0     C12183   1.091  -0.721   0.146 -0.0866  0.7819 -0.2159
   91MOL0     C12184   1.056  -0.826   0.222  0.4016  0.4530 -0.2040
   91MOL0     O12185   0.944  -0.890   0.182  0.0438  0.2945  0.4898
   91MOL0     C12186   0.893  -0.993   0.261 -0.0604 -0.3028 -0.4764
   91MOL0     C12187   0.743  -1.017   0.215 -0.0898  0.5331  0.6477
   91MOL0     C12188   0.651  -0.898   0.244  1.2439 -0.3251 -0.1300
   91MOL0     C12189   0.508  -0.945   0.278 -0.2093 -0.2327 -0.3418
   91MOL0     C12190   0.404  -0.831   0.283 -0.5218  0.4712  0.6314
   91MOL0     C12191   0.263  -0.885   0.336 -0.7351  0.3410  0.1424
   91MOL0     C12192   0.168  -0.766   0.350 -0.0550  0.6480 -0.1329
   91MOL0     C12193   0.030  -0.828   0.379 -0.2822  0.3082 -0.0025
   91MOL0    Cl12194   0.018  -0.934   0.525  0.4395 -0.0767 -0.5574
   91MOL0     C12195   1.139  -0.875   0.320  0.0961  0.1577 -1.0127
   91MOL0     C12196   1.267  -0.829   0.334  1.1166 -0.0561 -0.2400
   91MOL0     O12197   1.343  -0.554   0.466  1.2041  0.0320  0.3350
   91MOL0     C12198   1.558  -0.385   0.507  0.4023  0.0603  0.9371
   91MOL0     C12199   1.661  -0.290   0.510  0.7041 -0.4009  0.8839
   91MOL0     N12200   1.638   0.082   0.037 -0.3018  0.6606  0.3055
   91MOL0     N12201   1.540   0.008   0.013  0.2701 -0.1864 -0.1428
   91MOL0     C12202   0.588  -0.258   0.665  1.3023  0.5887  0.4857
   91MOL0     C12203   0.562  -0.119   0.659 -0.1951 -0.2629  0.3149
   91MOL0     C12204   0.482   0.282   0.666 -0.5666 -0.0259 -2.1203
   91MOL0     C12205   0.559   0.409   0.676  0.5242 -0.2534  0.8945
   91MOL0     C12206   0.497   0.536   0.690  0.1118 -0.0498  0.5872
   91MOL0     C12207   0.364   0.540   0.739  0.0429 -0.3996  0.2156
   91MOL0     O12208   0.310   0.669   0.759  1.1628 -0.3815 -0.0189
   91MOL0     C12209   0.171   0.677   0.804  0.6089  0.5856  0.3106
   91MOL0     C12210   0.125   0.822   0.797 -0.3576 -0.2431 -0.5142
   91MOL0     C12211   0.149   0.899   0.664  0.1262  0.6557 -0.2320
   91MOL0     C12212   0.080   1.031   0.666 -0.0757 -0.3415  0.8334
   91MOL0     C12213   0.086   1.110   0.786 -0.5651 -1.1519  0.7675
   91MOL0     C12214   0.095   1.189   0.885  0.0819  0.6394 -0.2243
   91MOL0     C12215   0.291   0.419   0.732 -0.7464 -0.0656 -0.0450
   91MOL0     C12216   0.344   0.291   0.699 -0.2806  0.2003  1.1365
   91MOL0     C12217   0.254   0.173   0.683  0.1913  0.2608 -0.4704
   91MOL0     H12218   0.488  -0.076   0.338  0.3743  1.9660  1.0819
   91MOL0     H12219   0.536  -0.319   0.331  0.4332 -1.3364  0.4148
   91MOL0     H12220   0.733  -0.470   0.697 -1.9169 -0.5525  0.1957
   91MOL0     H12221   0.679  -0.617   0.648  0.4161  1.9344  4.4391
   91MOL0     H12222   0.807  -0.574   0.414 -0.2694 -2.1715  1.1908
   91MOL0     H12223   0.907  -0.609   0.561 -0.0195  0.8490  1.9983
   91MOL0     H12224   0.971  -0.373   0.582  0.3441  4.4092 -1.0540
   91MOL0     H12225   0.856  -0.322   0.464  1.0861 -0.2095 -2.1970
   91MOL0     H12226   1.066  -0.520   0.374  0.9417  0.1776  0.5265
   91MOL0     H12227   0.960  -0.402   0.293 -0.4996 -0.0661 -0.7396
   91MOL0     H12228   1.073  -0.212   0.416  0.8452  0.5191 -0.1770
   91MOL0     H12229   1.200  -0.332   0.470  1.3090  2.0707  0.7834
   91MOL0     H12230   1.260  -0.379   0.249  1.0391  0.5584 -2.0710
   91MOL0     H12231   1.149  -0.259   0.172 -1.7060  0.4875  0.5361
   91MOL0     H12232   1.373  -0.186   0.361 -0.7468 -3.3233  0.7552
   91MOL0     H12233   1.272  -0.077   0.270  2.1929  0.8963  2.0570
   91MOL0     H12234   1.456  -0.272   0.109 -0.9021 -1.6505  0.7662
   91MOL0     H12235   1.332  -0.172   0.047  0.9998  0.1080 -0.2259
   91MOL0     H12236   1.584  -0.050   0.324 -1.3757  0.7055  0.6043
   91MOL0     H12237   1.847   0.185   0.148 -0.9821  1.4992 -0.0368
   91MOL0     H12238   1.727   0.218   0.277 -3.4502  0.2790 -3.8491
   91MOL0     H12239   1.914   0.114   0.385 -1.9524  0.2954  0.7795
   91MOL0     H12240   1.781  -0.003   0.393  0.6956 -0.1991  1.4805
   91MOL0     H12241   2.027  -0.020   0.217 -0.1002  0.1860  0.3521
   91MOL0     H12242   1.880  -0.115   0.190  2.9145  0.8082 -1.4991
   91MOL0     H12243   2.067  -0.140   0.418 -1.0557 -0.1785  1.4189
   91MOL0     H12244   2.018  -0.259   0.300  0.1732  0.8949 -1.1952
   91MOL0     H12245   1.833  -0.390   0.231  1.3319 -1.1371  1.3686
   91MOL0     H12246   1.649  -0.518   0.205  0.8986 -1.2710  0.1750
   91MOL0     H12247   1.230  -0.585   0.105 -2.7497 -0.2026 -0.2268
   91MOL0     H12248   1.027  -0.675   0.072 -0.7628  0.8406  0.3970
   91MOL0     H12249   0.945  -1.087   0.242 -4.1358 -3.1873  1.1535
   91MOL0     H12250   0.897  -0.970   0.368 -0.2260 -1.8564 -0.1072
   91MOL0     H12251   0.735  -1.033   0.107 -3.0533  0.7357  0.7499
   91MOL0     H12252   0.708  -1.104   0.272 -2.4509  2.2410  2.0190
   91MOL0     H12253   0.695  -0.832   0.320 -2.7458  1.6847  0.7395
   91MOL0     H12254   0.647  -0.830   0.159  1.1185  1.1860  1.0324
   91MOL0     H12255   0.500  -1.002   0.370 -3.6172  0.1701 -0.2456
   91MOL0     H12256   0.476  -1.011   0.197 -2.5539 -0.3179  0.5894
   91MOL0     H12257   0.403  -0.792   0.180  1.7251  2.7044  1.3568
   91MOL0     H12258   0.444  -0.749   0.344  0.2856  0.1626  0.5209
   91MOL0     H12259   0.223  -0.952   0.259  0.7115  1.4163 -1.6108
   91MOL0     H12260   0.271  -0.941   0.430  2.0150  0.7713  0.2648
   91MOL0     H12261   0.163  -0.720   0.251 -1.7806  0.5464 -0.1158
   91MOL0     H12262   0.203  -0.704   0.433  1.6169 -1.6429  1.0013
   91MOL0     H12263  -0.033  -0.739   0.379 -1.0511 -0.2282  0.5792
   91MOL0     H12264   0.005  -0.898   0.299  1.4117 -0.7215  0.3224
   91MOL0     H12265   1.110  -0.958   0.384 -3.1403  0.3433 -2.0621
   91MOL0     H12266   1.342  -0.867   0.402  1.5728 -0.0492 -0.7377
   91MOL0     H12267   1.491  -0.403   0.590 -0.6625 -0.2579  0.0251
   91MOL0     H12268   1.665  -0.231   0.601 -0.0808 -0.6340  1.0772
   91MOL0     H12269   0.611  -0.300   0.762  1.7152  2.1707  1.1197
   91MOL0     H12270   0.558  -0.068   0.755  0.4414  2.8543 -1.1824
   91MOL0     H12271   0.667   0.406   0.665  0.4310  2.2159 -1.5464
   91MOL0     H12272   0.539   0.635   0.677 -0.6356  0.3441  1.1397
   91MOL0     H12273   0.152   0.634   0.903  1.3621 -0.8939 -0.1650
   91MOL0     H12274   0.111   0.614   0.737  2.2146 -1.1551  0.4315
   91MOL0     H12275   0.180   0.877   0.875 -3.7357  0.5133  1.5762
   91MOL0     H12276   0.023   0.822   0.838  0.0599 -1.8893  0.6523
   91MOL0     H12277   0.113   0.847   0.574  1.8942 -1.2246  0.0831
   91MOL0     H12278   0.255   0.918   0.643  0.6581 -0.5524  1.1768
   91MOL0     H12279   0.129   1.097   0.593 -0.9878 -1.3041 -0.7151
   91MOL0     H12280  -0.023   1.026   0.631  0.1053  0.7560  0.0555
   91MOL0     H12281   0.096   1.249   0.973  1.7064  1.1749 -0.5701
   91MOL0     H12282   0.183   0.432   0.737 -0.6798  0.2978  0.4770
   91MOL0     H12283   0.310   0.082   0.705  0.6075 -0.0468 -2.5198
   91MOL0     H12284   0.176   0.170   0.759  0.9789  0.3693  0.3570
   91MOL0     H12285   0.214   0.157   0.582 -1.0496 -1.3931  0.2391
   92MOL0     O12286   4.161   9.824   6.682  0.8145 -0.0511 -1.0379
   92MOL0     C12287   4.048   9.775   6.653  0.3507  0.1445  0.3912
   92MOL0     O12288   3.922   9.830   6.679 -0.1648 -0.5248 -0.4427
   92MOL0     C12289   3.902   9.962   6.713 -0.4691  0.0205 -0.0631
   92MOL0     C12290   3.952  10.012   6.828 -0.3016 -0.3530  0.9097
   92MOL0     C12291   3.910  10.136   6.873 -0.7173  1.1574  0.0830
   92MOL0     C12292   3.815  10.210   6.801 -1.0656  0.4245 -0.2777
   92MOL0     O12293   3.782  10.341   6.847 -0.7954 -0.1669 -0.2488
   92MOL0     C12294   3.732  10.436   6.750 -0.5833 -0.7063  0.4523
   92MOL0     C12295   3.737  10.578   6.811  0.0130 -0.8006  0.1418
   92MOL0     C12296   3.607  10.624   6.859  0.2673 -0.1172 -1.0378
   92MOL0     C12297   3.625  10.755   6.929 -0.4985  0.3632  0.9757
   92MOL0     C12298   3.500  10.796   7.014  0.2253  0.3349  0.2718
   92MOL0     C12299   3.506  10.940   7.058  0.0797 -0.3114 -0.0596
   92MOL0     C12300   3.616  10.963   7.159  0.7133 -0.4759  0.2863
   92MOL0     C12301   3.594  11.097   7.237 -0.1159 -0.2644  0.0384
   92MOL0     N12302   3.587  11.218   7.153 -1.0029 -0.5978 -0.3650
   92MOL0     C12303   3.698  11.254   7.077  0.2624 -0.1590 -0.0066
   92MOL0     C12304   3.639  11.359   7.013  0.3699 -0.7083 -0.2335
   92MOL0     C12305   3.700  11.452   6.915  0.6821 -0.1431 -0.8709
   92MOL0     C12306   3.796  11.568   6.965  0.5661  0.5119  1.2696
   92MOL0     C12307   3.830  11.670   6.860 -0.4275 -0.4963  0.2114
   92MOL0     C12308   3.921  11.798   6.901 -0.9100  0.1403 -0.6910
   92MOL0     O12309   4.040  11.757   6.969  0.0224  0.6532 -0.7508
   92MOL0     C12310   4.069  11.787   7.091 -0.3639 -0.7545  0.0495
   92MOL0     C12311   4.193  11.769   7.124  0.4922  0.6954 -0.2637
   92MOL0     C12312   4.249  11.801   7.242 -0.2330 -0.1309 -0.6501
   92MOL0     C12313   4.184  11.874   7.344  0.7860  0.4137 -0.5471
   92MOL0     C12314   4.254  11.933   7.455  0.4642 -0.0325 -0.5623
   92MOL0     O12315   4.168  11.978   7.557  0.4263  0.6344  0.4855
   92MOL0     C12316   4.229  12.037   7.666  0.5360  0.8063  0.3688
   92MOL0     C12317   4.290  12.161   7.658  0.0963 -0.1784 -0.6472
   92MOL0     C12318   4.320  12.227   7.778 -0.2662 -0.4269  0.5673
   92MOL0     C12319   4.264  12.182   7.897 -0.5249 -0.8929 -0.3859
   92MOL0     O12320   4.286  12.236   8.023  0.0770 -0.8445 -0.0411
   92MOL0     C12321   4.316  12.377   8.038  0.0842 -0.3291  0.0418
   92MOL0     C12322   4.204  12.469   7.978 -0.4297  0.4753 -0.7598
   92MOL0     C12323   4.242  12.617   7.957 -0.3839 -0.0798 -0.3861
   92MOL0     C12324   4.276  12.692   8.085  0.3236 -0.0805 -0.0165
   92MOL0     C12325   4.267  12.845   8.060 -0.8158  0.1426 -0.7485
   92MOL0     C12326   4.393  12.902   8.129  0.9269  0.6299  0.3883
   92MOL0     C12327   4.403  13.054   8.110  0.9144 -0.2133 -0.1375
   92MOL0     C12328   4.540  13.122   8.123 -1.0610 -0.2349 -0.1563
   92MOL0    Cl12329   4.599  13.094   8.282  0.3915  0.4276 -0.3167
   92MOL0     C12330   4.204  12.062   7.901 -0.0647 -0.1138  0.7555
   92MOL0     C12331   4.188  11.985   7.787 -0.7213 -0.5838 -0.5354
   92MOL0     O12332   4.375  11.929   7.462  0.6006 -0.3006  0.3153
   92MOL0     C12333   4.047  11.893   7.309 -0.7526  0.1570 -0.3524
   92MOL0     C12334   3.994  11.849   7.182  0.0100 -1.2652 -0.4421
   92MOL0     N12335   3.505  11.375   7.046 -0.7131  0.7196  0.0271
   92MOL0     N12336   3.473  11.290   7.124  0.2964  0.3048  0.1205
   92MOL0     C12337   3.760  10.158   6.688  0.5428  0.0942  1.4801
   92MOL0     C12338   3.806  10.031   6.642  0.2270 -0.2030  1.2180
   92MOL0     C12339   4.055   9.647   6.580 -0.3835 -0.3846  0.5236
   92MOL0     C12340   4.181   9.588   6.558 -0.2383 -0.4091  0.3609
   92MOL0     C12341   4.196   9.457   6.514 -0.0602 -0.3985  0.5644
   92MOL0     C12342   4.079   9.377   6.492 -0.4271  0.2418  0.2925
   92MOL0     O12343   4.071   9.255   6.453  0.4462  0.1342 -0.2898
   92MOL0     C12344   4.181   9.165   6.443  0.8908 -0.5915  0.3128
   92MOL0     C12345   4.235   9.131   6.586 -0.0475  0.8748  1.1169
   92MOL0     C12346   4.354   9.022   6.563  0.4480 -0.2264  0.7354
   92MOL0     C12347   4.471   9.051   6.651 -0.5482  0.4819 -0.2028
   92MOL0     C12348   4.436   9.079   6.789 -0.7285 -0.5507  0.0709
   92MOL0     C12349   4.395   9.097   6.897 -1.2618  0.3455  1.0091
   92MOL0     C12350   3.954   9.443   6.505 -0.4653  0.9126  0.0532
   92MOL0     C12351   3.936   9.573   6.549 -0.4917 -0.3017  0.3083
   92MOL0     C12352   3.796   9.628   6.556 -0.4087 -0.0949 -0.1953
   92MOL0     H12353   4.025   9.948   6.876 -0.2695  0.4371  1.9370
   92MOL0     H12354   3.945  10.181   6.965  1.3260  1.7356 -0.9064
   92MOL0     H12355   3.795  10.429   6.661  1.9149 -3.5670  2.2315
   92MOL0     H12356   3.628  10.417   6.724 -0.2569 -0.1514 -1.3602
   92MOL0     H12357   3.782  10.644   6.735 -0.6228 -2.0285 -1.3491
   92MOL0     H12358   3.805  10.580   6.897  0.5542  0.4335 -0.2749
   92MOL0     H12359   3.562  10.545   6.920  1.0869  1.5328  1.8829
   92MOL0     H12360   3.542  10.659   6.779  0.6389 -0.0320 -1.3078
   92MOL0     H12361   3.712  10.756   6.996 -0.8648 -0.3149  1.4736
   92MOL0     H12362   3.647  10.832   6.854 -0.9093 -1.9033 -1.6326
   92MOL0     H12363   3.409  10.781   6.956  1.0516 -0.9152 -0.7392
   92MOL0     H12364   3.477  10.732   7.100 -3.6331  1.3488  0.1765
   92MOL0     H12365   3.529  10.995   6.967  3.3290 -1.8175 -0.3028
   92MOL0     H12366   3.411  10.973   7.100 -0.5915 -2.1185 -0.0923
   92MOL0     H12367   3.712  10.961   7.105  2.0700  3.0179  2.2658
   92MOL0     H12368   3.624  10.880   7.231 -0.8088 -1.2442 -0.4007
   92MOL0     H12369   3.492  11.083   7.272 -0.7260  0.8835 -1.1903
   92MOL0     H12370   3.664  11.109   7.320 -0.3426 -0.2706  0.2285
   92MOL0     H12371   3.797  11.209   7.067  1.7738  2.6598  1.0735
   92MOL0     H12372   3.766  11.385   6.859  2.8165  0.5941  0.6577
   92MOL0     H12373   3.619  11.504   6.862  1.9781  2.3316 -0.6123
   92MOL0     H12374   3.751  11.627   7.046 -0.5527  0.7634  0.4928
   92MOL0     H12375   3.883  11.523   7.013  1.1670  0.7548  0.4419
   92MOL0     H12376   3.737  11.706   6.817 -0.0683  0.4504  0.2043
   92MOL0     H12377   3.885  11.625   6.776 -2.5178  1.0699 -2.1251
   92MOL0     H12378   3.869  11.852   6.980  2.2642 -0.2927  1.9469
   92MOL0     H12379   3.951  11.855   6.812 -0.9885 -1.9343 -2.1224
   92MOL0     H12380   4.262  11.718   7.057  1.7625 -2.5072  3.1171
   92MOL0     H12381   4.346  11.765   7.275 -0.3294 -1.5916 -1.8897
   92MOL0     H12382   4.317  12.208   7.564 -1.5230 -0.4174 -1.2698
   92MOL0     H12383   4.372  12.322   7.777  2.4566 -1.8295 -0.9405
   92MOL0     H12384   4.328  12.397   8.144 -1.3068 -0.8003  0.3127
   92MOL0     H12385   4.415  12.386   7.992  0.0151  0.1975 -0.0078
   92MOL0     H12386   4.162  12.420   7.891  3.4575 -4.4663 -0.2977
   92MOL0     H12387   4.126  12.465   8.055 -0.2498 -2.9210 -0.6060
   92MOL0     H12388   4.315  12.646   7.881 -1.3406  0.0675 -1.2743
   92MOL0     H12389   4.160  12.661   7.900 -1.7163  0.0331  1.5387
   92MOL0     H12390   4.373  12.658   8.122  0.3465  1.5882  1.5203
   92MOL0     H12391   4.200  12.669   8.161  1.4512 -0.6271  0.9652
   92MOL0     H12392   4.173  12.880   8.103 -0.4915 -1.2012  1.2046
   92MOL0     H12393   4.283  12.867   7.954  3.0464  0.9530 -0.1549
   92MOL0     H12394   4.399  12.886   8.237  3.8556  1.5969  0.4431
   92MOL0     H12395   4.478  12.852   8.082  1.4934  1.2730  0.7240
   92MOL0     H12396   4.334  13.100   8.181  0.7140 -3.6060  2.1320
   92MOL0     H12397   4.387  13.078   8.005  2.1271 -0.0527 -0.2996
   92MOL0     H12398   4.602  13.081   8.043  0.2856 -1.7390  1.5700
   92MOL0     H12399   4.536  13.231   8.116 -2.8083 -0.2274  0.4073
   92MOL0     H12400   4.186  12.005   7.992  3.2179 -1.2472  0.8217
   92MOL0     H12401   4.135  11.892   7.798 -1.7027  0.2093  2.1995
   92MOL0     H12402   3.975  11.936   7.377 -0.9180  0.3848 -0.6678
   92MOL0     H12403   3.886  11.844   7.178 -0.3140 -0.2819  3.2457
   92MOL0     H12404   3.671  10.206   6.649 -0.3138  0.2705  3.5742
   92MOL0     H12405   3.763   9.975   6.560 -0.3725 -0.0242  1.3982
   92MOL0     H12406   4.277   9.629   6.591  1.2197 -2.4140 -1.1249
   92MOL0     H12407   4.293   9.408   6.502  1.2119  2.1704 -0.3276
   92MOL0     H12408   4.264   9.204   6.383 -0.9317 -0.6538 -2.4086
   92MOL0     H12409   4.151   9.068   6.402  1.4887 -1.0088  0.8399
   92MOL0     H12410   4.155   9.091   6.649 -3.1433  1.6859 -1.9789
   92MOL0     H12411   4.285   9.216   6.634 -0.4382  1.7258  0.0658
   92MOL0     H12412   4.394   9.019   6.461  0.3811 -3.0086  0.7225
   92MOL0     H12413   4.323   8.919   6.584  1.8410 -0.9028 -0.3636
   92MOL0     H12414   4.543   8.969   6.652 -1.2173 -0.1182 -1.0715
   92MOL0     H12415   4.510   9.140   6.600 -0.4973 -0.1462 -1.2680
   92MOL0     H12416   4.351   9.122   6.992 -1.1936 -0.4780  1.2633
   92MOL0     H12417   3.859   9.392   6.494 -0.4008  0.7014  0.4531
   92MOL0     H12418   3.799   9.724   6.505  3.5072 -0.1431 -0.3833
   92MOL0     H12419   3.722   9.563   6.508  1.0370 -0.1345 -2.5675
   92MOL0     H12420   3.766   9.644   6.659  1.4796  2.4463  0.0438
   93MOL0     O12421   5.146   7.209   3.205  0.9914 -0.4138  0.2090
   93MOL0     C12422   5.263   7.246   3.223  0.1611  0.2788 -0.5740
   93MOL0     O12423   5.349   7.182   3.310  0.3257  0.1788 -0.3051
   93MOL0     C12424   5.313   7.145   3.440 -0.2759 -0.4487 -0.2133
   93MOL0     C12425   5.182   7.172   3.491 -0.4455  0.1655 -0.3555
   93MOL0     C12426   5.148   7.134   3.621  0.1160  0.5748  1.3121
   93MOL0     C12427   5.238   7.066   3.698  0.3861  0.5736  0.0233
   93MOL0     O12428   5.211   7.015   3.816  0.7110 -0.0248  0.3949
   93MOL0     C12429   5.114   6.906   3.812  0.5799 -0.2430 -0.6980
   93MOL0     C12430   5.136   6.803   3.921 -0.3690 -1.4748  0.3386
   93MOL0     C12431   5.277   6.766   3.940 -0.4377 -0.9557  0.2962
   93MOL0     C12432   5.336   6.661   3.847  1.4207 -0.1808 -0.3529
   93MOL0     C12433   5.491   6.663   3.860  0.0596  0.1916  0.2320
   93MOL0     C12434   5.555   6.535   3.803 -1.1551  0.2035 -0.6048
   93MOL0     C12435   5.713   6.548   3.807  0.7621 -0.6529 -0.2101
   93MOL0     C12436   5.781   6.511   3.936 -0.2344 -0.1132 -0.4397
   93MOL0     N12437   5.924   6.502   3.924  0.6163  0.6862  0.0678
   93MOL0     C12438   6.010   6.609   3.930  0.5679  0.3327 -0.6375
   93MOL0     C12439   6.130   6.558   3.899 -0.9944 -0.1245 -0.3195
   93MOL0     C12440   6.260   6.638   3.918  0.6808 -0.6431 -0.9378
   93MOL0     C12441   6.364   6.646   3.803 -0.0764 -0.4759  0.3119
   93MOL0     C12442   6.430   6.507   3.809 -1.3750  0.7401  0.4618
   93MOL0     C12443   6.545   6.489   3.701  0.3299 -0.8461  0.0292
   93MOL0     O12444   6.657   6.570   3.725 -1.1167  0.1306  0.6049
   93MOL0     C12445   6.741   6.628   3.630  0.1917  0.0112 -0.9293
   93MOL0     C12446   6.849   6.703   3.672  1.5032 -0.2210  1.3685
   93MOL0     C12447   6.941   6.752   3.582 -0.1003  0.8703 -0.0692
   93MOL0     C12448   6.925   6.726   3.446  0.0399  0.2484 -0.0520
   93MOL0     C12449   7.022   6.791   3.348 -0.3220 -0.3769 -0.1621
   93MOL0     O12450   7.125   6.863   3.398  0.6497 -0.3238  0.2823
   93MOL0     C12451   7.212   6.919   3.312  1.0552  0.8034  0.4805
   93MOL0     C12452   7.246   7.053   3.343  0.9956  0.2392 -0.4680
   93MOL0     C12453   7.333   7.125   3.266 -0.8231 -0.7542  0.3224
   93MOL0     C12454   7.402   7.069   3.163  0.3919  1.0238  0.4503
   93MOL0     O12455   7.497   7.121   3.088  0.0497  0.5293 -0.2757
   93MOL0     C12456   7.471   7.260   3.066 -0.6991  0.7615  0.7440
   93MOL0     C12457   7.556   7.296   2.947 -0.2216 -0.8008 -0.5111
   93MOL0     C12458   7.550   7.444   2.910  0.7066 -1.3709 -0.7487
   93MOL0     C12459   7.652   7.470   2.806 -1.0439  0.6466 -0.4141
   93MOL0     C12460   7.638   7.607   2.733  0.3045  1.1773 -0.3654
   93MOL0     C12461   7.779   7.628   2.687  0.1055 -0.4894 -0.2867
   93MOL0     C12462   7.776   7.738   2.576 -0.8109  1.3279 -0.4842
   93MOL0     C12463   7.714   7.869   2.607  0.2446 -0.5965 -0.0672
   93MOL0    Cl12464   7.795   7.943   2.747  0.4907 -0.6855  0.3958
   93MOL0     C12465   7.375   6.927   3.131  0.2767 -1.2040 -0.1431
   93MOL0     C12466   7.283   6.856   3.213  0.7161 -0.5132  0.0508
   93MOL0     O12467   7.005   6.761   3.228 -0.6508 -0.4282 -0.0217
   93MOL0     C12468   6.805   6.673   3.404 -0.1186 -0.2972  0.1173
   93MOL0     C12469   6.711   6.631   3.493 -0.1564  0.3118 -0.6145
   93MOL0     N12470   6.117   6.425   3.873  0.3154  0.4170  0.2146
   93MOL0     N12471   5.993   6.397   3.884 -0.6596 -0.1016 -0.5345
   93MOL0     C12472   5.369   7.038   3.654 -0.4549  0.5641  0.5672
   93MOL0     C12473   5.402   7.092   3.527 -0.0713  0.1304 -0.4226
   93MOL0     C12474   5.329   7.350   3.141  1.1719 -0.9999 -0.6115
   93MOL0     C12475   5.318   7.345   2.999  0.4257 -0.7095  0.2575
   93MOL0     C12476   5.381   7.445   2.921  0.0468  0.7614  0.0297
   93MOL0     C12477   5.454   7.545   2.992 -0.5250  0.7403 -0.1957
   93MOL0     O12478   5.509   7.659   2.943 -0.5893  0.4570 -0.9740
   93MOL0     C12479   5.604   7.640   2.834 -0.0841 -0.6387  1.1103
   93MOL0     C12480   5.705   7.750   2.855 -0.1081  0.2725  0.3136
   93MOL0     C12481   5.808   7.740   2.733 -0.4114  0.3614  0.2667
   93MOL0     C12482   5.917   7.848   2.751  0.9564 -0.1114  0.6502
   93MOL0     C12483   5.967   7.889   2.614 -0.3205 -0.8385  0.3553
   93MOL0     C12484   6.011   7.928   2.503 -0.0771  0.6142 -0.4038
   93MOL0     C12485   5.456   7.546   3.129  0.0762 -0.0653  0.7412
   93MOL0     C12486   5.396   7.452   3.210  0.4495 -0.4511  0.1620
   93MOL0     C12487   5.424   7.461   3.367 -0.0538  0.9717  0.0203
   93MOL0     H12488   5.104   7.217   3.431 -2.3833 -1.3569  0.9228
   93MOL0     H12489   5.044   7.151   3.647 -0.4639  2.7329 -1.8535
   93MOL0     H12490   5.013   6.947   3.819 -0.6260 -3.1555  0.9415
   93MOL0     H12491   5.118   6.859   3.714  0.8969 -1.0815 -0.2892
   93MOL0     H12492   5.066   6.718   3.917 -0.9473 -1.0575  1.1416
   93MOL0     H12493   5.110   6.864   4.008 -0.8904 -0.3098 -0.5997
   93MOL0     H12494   5.299   6.734   4.042  1.9037 -2.6076 -0.6366
   93MOL0     H12495   5.348   6.848   3.930  1.7612 -2.7761  0.0576
   93MOL0     H12496   5.288   6.564   3.863  1.5342 -0.8871 -3.5743
   93MOL0     H12497   5.303   6.692   3.747  1.1749 -0.8982 -0.4955
   93MOL0     H12498   5.538   6.749   3.812  0.5757 -0.0623  0.2760
   93MOL0     H12499   5.516   6.676   3.966  1.4788 -1.5611  0.1725
   93MOL0     H12500   5.521   6.452   3.865 -0.6225 -1.1784 -2.1039
   93MOL0     H12501   5.532   6.517   3.698 -2.1211 -0.0517 -0.3596
   93MOL0     H12502   5.746   6.646   3.771  0.6882 -1.7538 -3.5851
   93MOL0     H12503   5.742   6.472   3.734 -0.0647 -1.8357  0.6531
   93MOL0     H12504   5.749   6.576   4.017 -0.4356 -0.5536 -0.1623
   93MOL0     H12505   5.728   6.421   3.969  0.2735 -1.1240 -2.2031
   93MOL0     H12506   5.986   6.712   3.955  0.3146  0.3603 -0.9936
   93MOL0     H12507   6.228   6.740   3.941  0.3208 -0.5087 -2.0149
   93MOL0     H12508   6.313   6.601   4.006 -1.0058 -1.2048 -0.1148
   93MOL0     H12509   6.312   6.670   3.710 -1.2416  1.9927  1.5013
   93MOL0     H12510   6.437   6.726   3.817  1.2454 -1.8577  1.7582
   93MOL0     H12511   6.350   6.434   3.794  0.6546 -2.0047  2.0594
   93MOL0     H12512   6.497   6.481   3.892  2.8994 -0.9208 -3.1188
   93MOL0     H12513   6.492   6.514   3.609 -1.7003  0.3965  1.4601
   93MOL0     H12514   6.581   6.385   3.702 -1.6034 -1.5658  1.5520
   93MOL0     H12515   6.862   6.710   3.779  1.5691  1.0885  1.2911
   93MOL0     H12516   7.027   6.804   3.624  0.7469 -1.0777  0.6773
   93MOL0     H12517   7.202   7.106   3.427 -0.0640 -0.7434 -0.3897
   93MOL0     H12518   7.346   7.229   3.297  1.1969 -1.0323  0.5583
   93MOL0     H12519   7.369   7.270   3.027  1.1683  1.4663 -4.9969
   93MOL0     H12520   7.504   7.320   3.151  1.8057  0.7878 -0.1831
   93MOL0     H12521   7.656   7.254   2.965  0.8842  0.5170 -3.1193
   93MOL0     H12522   7.523   7.244   2.856 -0.8817  1.7584 -1.8261
   93MOL0     H12523   7.448   7.468   2.878 -1.0931 -1.8139  3.9033
   93MOL0     H12524   7.582   7.498   2.999 -0.4847  0.6635 -1.4777
   93MOL0     H12525   7.655   7.378   2.746  0.7992  0.1897  0.2963
   93MOL0     H12526   7.753   7.470   2.848  0.1996  0.5274 -3.1633
   93MOL0     H12527   7.613   7.681   2.809  1.1893 -1.6585  2.9515
   93MOL0     H12528   7.569   7.603   2.649 -0.6685  0.9000  0.4241
   93MOL0     H12529   7.844   7.649   2.772  0.8723  0.4127 -1.0732
   93MOL0     H12530   7.835   7.540   2.657  1.5061 -0.2657  1.5131
   93MOL0     H12531   7.728   7.694   2.487  1.8665  0.8195 -1.8013
   93MOL0     H12532   7.879   7.756   2.546  0.1163 -1.8794  0.3492
   93MOL0     H12533   7.733   7.940   2.526 -0.2640 -1.2003 -0.7309
   93MOL0     H12534   7.608   7.864   2.632  0.0269  3.6349  0.4645
   93MOL0     H12535   7.430   6.872   3.056 -0.2748  0.5653 -1.9215
   93MOL0     H12536   7.261   6.751   3.198  2.5263 -1.5432  3.4301
   93MOL0     H12537   6.781   6.649   3.301  1.9548 -4.0473  0.2916
   93MOL0     H12538   6.624   6.576   3.460 -0.4013  0.2929  0.0466
   93MOL0     H12539   5.448   6.982   3.703  0.1281 -1.6766 -2.5784
   93MOL0     H12540   5.509   7.075   3.512 -0.0536 -0.5689  0.4318
   93MOL0     H12541   5.272   7.259   2.951  0.6416  0.4616 -2.2078
   93MOL0     H12542   5.351   7.462   2.818 -1.6297 -0.1381  0.3260
   93MOL0     H12543   5.549   7.660   2.742 -3.6268 -1.9402  2.7439
   93MOL0     H12544   5.640   7.537   2.825 -0.7450 -0.7390 -0.7719
   93MOL0     H12545   5.749   7.748   2.955 -0.8829 -2.5144  0.6859
   93MOL0     H12546   5.650   7.843   2.838 -0.0860  0.4675  1.2472
   93MOL0     H12547   5.749   7.756   2.642 -0.8768 -0.6592  0.3713
   93MOL0     H12548   5.859   7.643   2.725  1.1329  0.9574  2.1027
   93MOL0     H12549   5.891   7.942   2.801  1.6139 -0.8446  2.4693
   93MOL0     H12550   6.004   7.812   2.806 -0.1450 -1.2321  1.7186
   93MOL0     H12551   6.042   7.969   2.409 -1.2600  0.9517 -0.6647
   93MOL0     H12552   5.501   7.636   3.169 -0.5086  2.1148 -3.0340
   93MOL0     H12553   5.335   7.457   3.430 -0.6293 -0.2282 -0.8199
   93MOL0     H12554   5.483   7.372   3.391 -0.2036  0.4648 -1.3844
   93MOL0     H12555   5.474   7.555   3.394  0.6795  0.5742  0.0716
   94MOL0     O12556   9.972   4.677   0.320 -0.6881 -0.3089 -0.1007
   94MOL0     C12557   9.906   4.598   0.249 -0.2139 -0.7970 -1.1463
   94MOL0     O12558   9.777   4.624   0.203  0.1269  0.0897  0.5498
   94MOL0     C12559   9.693   4.722   0.248  0.0775  0.6055 -0.5801
   94MOL0     C12560   9.707   4.769   0.378  0.0867 -0.1119 -0.7077
   94MOL0     C12561   9.620   4.861   0.425  0.3064  0.3001  0.5638
   94MOL0     C12562   9.516   4.911   0.352  1.1692 -1.2691  0.3429
   94MOL0     O12563   9.429   5.003   0.408  0.8535  0.6911 -0.5060
   94MOL0     C12564   9.490   5.133   0.432 -0.4128 -1.4014  0.4010
   94MOL0     C12565   9.511   5.206   0.299 -0.3735  0.2636 -0.5011
   94MOL0     C12566   9.593   5.332   0.318 -0.2256  0.5747  0.1703
   94MOL0     C12567   9.554   5.427   0.428 -0.0204  0.6769 -0.3918
   94MOL0     C12568   9.418   5.488   0.396 -1.2705 -0.3461 -0.5244
   94MOL0     C12569   9.371   5.595   0.496  1.7534 -0.5440  0.3500
   94MOL0     C12570   9.469   5.703   0.525  0.3687 -0.2455 -0.0415
   94MOL0     C12571   9.410   5.808   0.614  0.5385 -0.4644 -0.8398
   94MOL0     N12572   9.324   5.908   0.550 -0.2710  0.1716 -0.2777
   94MOL0     C12573   9.358   5.993   0.443  0.3315  0.7785 -0.4125
   94MOL0     C12574   9.241   6.065   0.433  0.2733 -0.1037 -0.1180
   94MOL0     C12575   9.226   6.187   0.345  0.5924 -0.3693 -0.8526
   94MOL0     C12576   9.110   6.281   0.402  0.2290  0.3735 -0.2057
   94MOL0     C12577   9.118   6.422   0.344  0.0120  0.0058 -0.2850
   94MOL0     C12578   9.003   6.503   0.375 -0.1123 -0.1575  0.3267
   94MOL0     O12579   9.011   6.640   0.325 -1.3088  0.2963  0.1961
   94MOL0     C12580   9.110   6.721   0.371  0.0619 -0.3503 -0.6949
   94MOL0     C12581   9.153   6.828   0.296 -1.1141  0.4633 -1.3033
   94MOL0     C12582   9.249   6.915   0.353 -0.1133  0.3483  0.8583
   94MOL0     C12583   9.303   6.906   0.484 -0.0844  0.7232  0.0641
   94MOL0     C12584   9.401   6.999   0.542 -0.2664  1.1990  0.0384
   94MOL0     O12585   9.440   6.982   0.678  0.2899 -0.0042  0.0975
   94MOL0     C12586   9.525   7.075   0.738 -0.0865 -0.3808  0.0426
   94MOL0     C12587   9.647   7.046   0.797 -1.8983  0.2053  0.8510
   94MOL0     C12588   9.707   7.140   0.874 -0.4859 -0.6792  0.6112
   94MOL0     C12589   9.645   7.265   0.901 -0.2630  0.3752 -0.5871
   94MOL0     O12590   9.703   7.353   0.985  0.7106  0.4432 -0.2097
   94MOL0     C12591   9.651   7.477   1.017 -0.1377 -0.5967 -0.1458
   94MOL0     C12592   9.598   7.471   1.156  0.3547 -0.1988  1.3149
   94MOL0     C12593   9.485   7.371   1.180  0.5619 -0.7991  0.3825
   94MOL0     C12594   9.455   7.365   1.328 -0.3744  0.3739 -0.0788
   94MOL0     C12595   9.560   7.289   1.408  0.3720  0.4248  1.4961
   94MOL0     C12596   9.494   7.204   1.511 -0.2413  0.7684 -0.1787
   94MOL0     C12597   9.437   7.074   1.458 -0.3284 -0.5264 -0.3617
   94MOL0     C12598   9.415   6.966   1.570  0.6364 -0.4600 -0.1295
   94MOL0    Cl12599   9.313   7.039   1.694  0.0923  0.3332  0.2858
   94MOL0     C12600   9.531   7.288   0.845  0.3972  0.6469  0.5413
   94MOL0     C12601   9.467   7.199   0.759  0.1770  0.9471  0.5330
   94MOL0     O12602   9.431   7.098   0.476  0.1196 -0.5547 -1.0525
   94MOL0     C12603   9.267   6.791   0.555 -0.2560 -0.6395  0.0506
   94MOL0     C12604   9.170   6.698   0.504  0.8886 -0.8218  0.7040
   94MOL0     N12605   9.154   6.024   0.538  0.5652 -0.2323  0.5290
   94MOL0     N12606   9.202   5.931   0.598 -0.1401 -1.1621 -0.1478
   94MOL0     C12607   9.506   4.859   0.220  0.1969 -0.1359 -0.3913
   94MOL0     C12608   9.587   4.766   0.168  0.2315  0.1033  0.2228
   94MOL0     C12609   9.962   4.470   0.215 -0.3734 -0.0786 -0.5000
   94MOL0     C12610   9.877   4.388   0.142 -0.3646  0.5519  0.5091
   94MOL0     C12611   9.916   4.266   0.100 -0.5165  0.5346 -0.1619
   94MOL0     C12612  10.042   4.228   0.124  0.2740  1.0856  0.1406
   94MOL0     O12613  10.078   4.096   0.097  1.4990  0.8306  0.5436
   94MOL0     C12614  10.027   4.028  -0.016  0.6398 -0.1121 -0.1467
   94MOL0     C12615  10.102   3.895  -0.032 -0.8135  0.2779  0.3238
   94MOL0     C12616  10.200   3.903  -0.145 -0.2805 -0.2654 -0.7919
   94MOL0     C12617  10.240   3.758  -0.182 -0.2442  0.0978  0.2496
   94MOL0     C12618  10.344   3.692  -0.090 -0.6864  0.6089  0.3688
   94MOL0     C12619  10.444   3.653  -0.030  1.0820 -0.2399  0.1788
   94MOL0     C12620  10.138   4.305   0.185 -0.5316 -0.7009 -0.7432
   94MOL0     C12621  10.105   4.438   0.240  0.4090 -0.1192  0.9979
   94MOL0     C12622  10.215   4.519   0.299  0.1532  0.0161  0.3498
   94MOL0     H12623   9.797   4.759   0.437 -1.4162 -2.7701  1.3492
   94MOL0     H12624   9.640   4.897   0.525  1.4527 -4.0636  2.1169
   94MOL0     H12625   9.428   5.193   0.499  0.3441 -2.2251  1.8901
   94MOL0     H12626   9.589   5.119   0.477  0.1310 -2.9318 -1.1444
   94MOL0     H12627   9.411   5.234   0.266 -1.5158 -2.7141  0.0728
   94MOL0     H12628   9.557   5.137   0.227  1.6835 -0.5107  1.4318
   94MOL0     H12629   9.611   5.382   0.223  1.2574  1.8884  1.0967
   94MOL0     H12630   9.694   5.303   0.347  1.6249  1.6836 -4.4320
   94MOL0     H12631   9.553   5.377   0.526  1.2370  1.1081 -0.1430
   94MOL0     H12632   9.643   5.490   0.426 -0.7345  1.7403  0.4343
   94MOL0     H12633   9.418   5.536   0.298 -1.0924  3.2555  1.0453
   94MOL0     H12634   9.341   5.411   0.394 -0.9696 -0.6269 -2.6903
   94MOL0     H12635   9.272   5.630   0.464  0.2501 -1.8540  3.1858
   94MOL0     H12636   9.345   5.542   0.588  2.6697 -0.2016  0.8206
   94MOL0     H12637   9.505   5.738   0.428  2.3508 -2.1031 -0.0619
   94MOL0     H12638   9.555   5.662   0.579 -1.4311 -1.0538  2.3968
   94MOL0     H12639   9.347   5.761   0.689 -0.4097  1.1052 -0.6114
   94MOL0     H12640   9.487   5.861   0.670 -2.0429  3.1306 -0.3097
   94MOL0     H12641   9.450   6.003   0.387  2.5535  2.0515  3.1431
   94MOL0     H12642   9.315   6.251   0.345  0.6207 -0.2617  2.0746
   94MOL0     H12643   9.198   6.152   0.246  1.4911 -1.7300 -0.6530
   94MOL0     H12644   9.010   6.241   0.385 -0.3867  1.7189  0.1896
   94MOL0     H12645   9.126   6.288   0.510 -0.6718  0.2525 -0.0597
   94MOL0     H12646   9.130   6.418   0.235  5.2718 -1.5019  0.0513
   94MOL0     H12647   9.217   6.463   0.368  1.2727 -1.7972 -1.9967
   94MOL0     H12648   8.998   6.499   0.485 -4.1026  0.5149  0.3265
   94MOL0     H12649   8.914   6.460   0.329  0.6650  0.6956 -2.1192
   94MOL0     H12650   9.100   6.856   0.206 -0.3026 -0.1454 -1.9868
   94MOL0     H12651   9.287   7.003   0.302  1.5962 -0.3328  0.9197
   94MOL0     H12652   9.690   6.949   0.777 -2.1876  0.1029  0.7118
   94MOL0     H12653   9.798   7.108   0.925  1.4090 -1.6749 -3.0071
   94MOL0     H12654   9.732   7.551   1.015 -0.1610 -0.5747 -2.1735
   94MOL0     H12655   9.589   7.526   0.942  1.0417  1.6060  0.2111
   94MOL0     H12656   9.680   7.461   1.228  1.1555 -0.1131  0.4291
   94MOL0     H12657   9.563   7.569   1.190  0.8903 -0.6386  3.2603
   94MOL0     H12658   9.401   7.404   1.117  0.5012 -0.5210  0.6037
   94MOL0     H12659   9.499   7.269   1.143 -2.6121 -0.4094 -2.3720
   94MOL0     H12660   9.358   7.317   1.344 -1.3616  2.4264  0.4044
   94MOL0     H12661   9.455   7.467   1.366 -2.0315  0.5191 -0.4168
   94MOL0     H12662   9.619   7.364   1.461  0.5625  0.5872  1.0586
   94MOL0     H12663   9.607   7.213   1.345 -4.7033 -1.5204 -0.5027
   94MOL0     H12664   9.556   7.175   1.596 -0.6707 -1.3132 -0.5354
   94MOL0     H12665   9.405   7.256   1.549 -1.7462 -1.0554 -1.0196
   94MOL0     H12666   9.494   7.032   1.375  0.9297  1.1006 -0.3646
   94MOL0     H12667   9.337   7.105   1.426 -0.4966 -0.6553  0.0435
   94MOL0     H12668   9.361   6.882   1.525 -3.3213  3.2306 -3.0754
   94MOL0     H12669   9.508   6.931   1.616  0.5841  0.9308  1.0915
   94MOL0     H12670   9.468   7.375   0.860 -0.5023  0.3200 -1.0946
   94MOL0     H12671   9.370   7.225   0.717  1.2578  1.6379 -1.6813
   94MOL0     H12672   9.322   6.770   0.646 -0.6382  0.4359  0.5507
   94MOL0     H12673   9.147   6.609   0.562  0.3622 -0.4786  1.0334
   94MOL0     H12674   9.423   4.880   0.152  1.4869  1.9374 -1.4138
   94MOL0     H12675   9.580   4.714   0.073  0.4965 -1.7519  1.1763
   94MOL0     H12676   9.775   4.417   0.122 -0.4741  1.3070  1.9893
   94MOL0     H12677   9.852   4.201   0.042  1.1108 -0.3493 -1.0232
   94MOL0     H12678  10.028   4.092  -0.105  1.7981  3.9145  2.4945
   94MOL0     H12679   9.925   4.004   0.013  0.2682  2.0535  0.5439
   94MOL0     H12680  10.029   3.815  -0.048  1.5135 -1.9974  0.4525
   94MOL0     H12681  10.155   3.887   0.063 -2.4800  1.9821  1.4667
   94MOL0     H12682  10.274   3.979  -0.120 -2.2076  1.1216  1.1797
   94MOL0     H12683  10.157   3.940  -0.238 -2.7679 -0.4492  0.1987
   94MOL0     H12684  10.146   3.705  -0.200 -0.3645  0.2652  0.3809
   94MOL0     H12685  10.293   3.771  -0.277  1.6858 -0.3833  1.2042
   94MOL0     H12686  10.540   3.611  -0.007  1.6461 -1.4994 -3.7965
   94MOL0     H12687  10.231   4.268   0.228  0.0178  1.5430  0.1674
   94MOL0     H12688  10.222   4.614   0.246  1.3952  2.1454  3.9601
   94MOL0     H12689  10.200   4.546   0.404 -1.6339  2.0572 -0.3444
   94MOL0     H12690  10.313   4.474   0.286  0.6384  0.8552  0.9699
   95MOL0     O12691   3.725   4.410   0.276 -0.7596 -0.3746 -0.0329
   95MOL0     C12692   3.729   4.292   0.241  0.4671  0.2850 -0.2793
   95MOL0     O12693   3.711   4.244   0.114 -0.9327 -0.2677 -0.4366
   95MOL0     C12694   3.679   4.319   0.008  0.8481 -0.1276  0.3422
   95MOL0     C12695   3.583   4.425   0.025  0.4955  0.1467  0.0162
   95MOL0     C12696   3.545   4.512  -0.087 -0.0597  0.5653 -0.4089
   95MOL0     C12697   3.588   4.482  -0.215 -0.1737 -0.5649 -0.1198
   95MOL0     O12698   3.547   4.570  -0.318 -0.2947 -0.3317  0.3189
   95MOL0     C12699   3.602   4.547  -0.444 -1.3361  0.2811 -0.8188
   95MOL0     C12700   3.548   4.646  -0.542  0.8323 -0.3789  0.4042
   95MOL0     C12701   3.658   4.731  -0.603  0.0858 -0.2344  0.9144
   95MOL0     C12702   3.632   4.775  -0.750  0.6672 -0.4177 -0.0403
   95MOL0     C12703   3.743   4.868  -0.799  0.6308  0.1969  0.0990
   95MOL0     C12704   3.729   5.016  -0.749 -0.3346  0.7996  0.5493
   95MOL0     C12705   3.605   5.088  -0.819  1.3710  0.1093  0.4874
   95MOL0     C12706   3.542   5.203  -0.732 -0.9475  0.1712  0.0941
   95MOL0     N12707   3.642   5.292  -0.685  0.3061 -0.3568 -0.1926
   95MOL0     C12708   3.617   5.352  -0.560  0.2842  0.3565  0.6474
   95MOL0     C12709   3.706   5.454  -0.551 -0.0543  0.3305 -0.7948
   95MOL0     C12710   3.700   5.534  -0.430  0.1036  0.3786 -0.1397
   95MOL0     C12711   3.658   5.684  -0.443 -0.3325 -0.3848  0.3294
   95MOL0     C12712   3.672   5.769  -0.316  0.0511  0.6220 -0.0216
   95MOL0     C12713   3.556   5.860  -0.286  0.1757 -0.5369  0.3714
   95MOL0     O12714   3.429   5.788  -0.271 -0.9203  0.4494 -0.2083
   95MOL0     C12715   3.312   5.847  -0.232 -0.2619 -0.0305 -0.9339
   95MOL0     C12716   3.194   5.770  -0.225  0.4158 -0.3463  0.6036
   95MOL0     C12717   3.070   5.824  -0.178 -0.1874 -0.3521 -0.0442
   95MOL0     C12718   3.065   5.961  -0.132  0.4000  0.5746 -0.2538
   95MOL0     C12719   2.943   6.015  -0.074  0.2299  0.1497  0.6444
   95MOL0     O12720   2.965   6.125   0.017  0.2553  0.1701 -0.3269
   95MOL0     C12721   2.861   6.156   0.102  0.5356  0.5298 -0.0124
   95MOL0     C12722   2.770   6.257   0.056  0.1880  0.7199 -0.7229
   95MOL0     C12723   2.659   6.295   0.130  0.0841 -0.2706 -0.1076
   95MOL0     C12724   2.636   6.235   0.251  0.7179  0.0943 -0.2277
   95MOL0     O12725   2.531   6.256   0.335 -0.1490 -0.1645  0.1035
   95MOL0     C12726   2.408   6.223   0.263 -0.5595 -0.0869 -0.4050
   95MOL0     C12727   2.283   6.235   0.368 -0.7076  0.0612  0.3335
   95MOL0     C12728   2.160   6.147   0.327  0.6536 -1.0213 -0.2512
   95MOL0     C12729   2.033   6.185   0.407 -0.0924  0.5955 -0.3081
   95MOL0     C12730   1.930   6.073   0.394 -0.2589  0.1980  0.0839
   95MOL0     C12731   1.886   6.057   0.245 -0.0053 -0.7088  0.1254
   95MOL0     C12732   1.745   5.999   0.232  0.6681 -0.4596  0.3969
   95MOL0     C12733   1.738   5.855   0.280  0.6436  1.2110  0.9854
   95MOL0    Cl12734   1.562   5.826   0.295 -0.2153  0.7379 -0.0993
   95MOL0     C12735   2.728   6.148   0.300 -0.3770  0.9039 -0.2187
   95MOL0     C12736   2.847   6.107   0.232  0.6774 -0.5177 -0.0584
   95MOL0     O12737   2.836   5.962  -0.092 -0.2602  0.6649  0.3820
   95MOL0     C12738   3.180   6.044  -0.137  0.2694 -0.1912  0.0566
   95MOL0     C12739   3.300   5.983  -0.185  0.0800 -0.4227 -0.7805
   95MOL0     N12740   3.779   5.462  -0.673  0.0814 -0.7139  0.1840
   95MOL0     N12741   3.733   5.371  -0.751  0.5743 -0.6242  0.6268
   95MOL0     C12742   3.674   4.369  -0.228 -0.6321 -0.1871 -0.8541
   95MOL0     C12743   3.723   4.293  -0.125  0.7370 -0.0169 -0.1340
   95MOL0     C12744   3.752   4.191   0.350  0.3164  0.8237  0.0758
   95MOL0     C12745   3.746   4.057   0.323  0.0489  0.3215  0.3009
   95MOL0     C12746   3.791   3.964   0.423 -0.6536  1.5024  0.1578
   95MOL0     C12747   3.839   4.002   0.547  0.3508  0.3534  0.0138
   95MOL0     O12748   3.871   3.896   0.632 -0.6698 -0.0194  0.0511
   95MOL0     C12749   3.965   3.913   0.740 -0.0357  0.2893  0.0764
   95MOL0     C12750   3.913   3.945   0.879 -0.4852  0.6399  0.8764
   95MOL0     C12751   3.876   3.807   0.952  0.0029 -0.5265 -0.2857
   95MOL0     C12752   3.771   3.826   1.067 -0.9106  0.2887 -0.4756
   95MOL0     C12753   3.780   3.703   1.149 -0.4915 -0.3947 -0.5518
   95MOL0     C12754   3.769   3.603   1.223  0.1698  1.0282  0.3049
   95MOL0     C12755   3.827   4.136   0.583 -0.3974  0.7556 -0.0205
   95MOL0     C12756   3.782   4.233   0.492  0.5896 -0.6917  0.5939
   95MOL0     C12757   3.772   4.372   0.546 -0.1977 -0.6424 -0.3397
   95MOL0     H12758   3.545   4.433   0.127  1.1927 -0.7625  0.3618
   95MOL0     H12759   3.479   4.595  -0.064  4.4351  4.7158 -0.8788
   95MOL0     H12760   3.711   4.555  -0.439 -1.4750  2.8243 -0.3560
   95MOL0     H12761   3.553   4.453  -0.473 -2.3218 -0.1292  1.9205
   95MOL0     H12762   3.482   4.715  -0.489  0.9335  0.2734 -0.3065
   95MOL0     H12763   3.510   4.605  -0.636 -0.4326  2.8529 -0.6430
   95MOL0     H12764   3.756   4.682  -0.602 -0.5271 -1.5233  0.0257
   95MOL0     H12765   3.680   4.823  -0.548  1.2610  0.5719 -0.8057
   95MOL0     H12766   3.630   4.680  -0.804 -1.3290  0.6798 -2.0759
   95MOL0     H12767   3.534   4.818  -0.774  0.6949 -0.0674  0.4569
   95MOL0     H12768   3.833   4.814  -0.768 -1.5472 -4.0766 -0.3493
   95MOL0     H12769   3.742   4.873  -0.908  0.6162  1.9040  0.1381
   95MOL0     H12770   3.727   5.026  -0.640  1.5125 -1.1500  0.8203
   95MOL0     H12771   3.827   5.054  -0.779  0.2901 -1.3398 -0.3075
   95MOL0     H12772   3.524   5.024  -0.854  2.3509 -0.5146 -0.7164
   95MOL0     H12773   3.655   5.126  -0.908  0.8664 -0.8051 -0.2006
   95MOL0     H12774   3.467   5.261  -0.786  0.8591  2.1002 -0.4702
   95MOL0     H12775   3.495   5.150  -0.648 -2.7368  1.2830 -0.1571
   95MOL0     H12776   3.551   5.314  -0.483  0.4305  3.0073  2.2046
   95MOL0     H12777   3.638   5.479  -0.358  1.6300  0.6577  1.4570
   95MOL0     H12778   3.802   5.534  -0.393  0.2651  1.0224 -0.5796
   95MOL0     H12779   3.729   5.729  -0.512 -1.8194  0.5908 -0.6285
   95MOL0     H12780   3.559   5.704  -0.486 -1.4427  0.5578  3.0792
   95MOL0     H12781   3.764   5.827  -0.316  0.4644  0.0801 -2.8646
   95MOL0     H12782   3.667   5.712  -0.223 -1.8614 -0.6446 -0.8305
   95MOL0     H12783   3.544   5.937  -0.363 -2.0121  1.4090  2.4923
   95MOL0     H12784   3.587   5.909  -0.193 -1.9707 -0.0295  0.8821
   95MOL0     H12785   3.198   5.665  -0.254 -2.5714 -0.1207 -0.9702
   95MOL0     H12786   2.978   5.767  -0.176 -0.0916 -0.5091 -0.0761
   95MOL0     H12787   2.781   6.284  -0.049  1.0723 -0.8334 -1.0677
   95MOL0     H12788   2.589   6.365   0.086 -1.2828 -0.5740  1.5259
   95MOL0     H12789   2.381   6.273   0.170 -0.9731 -0.6390 -0.5861
   95MOL0     H12790   2.419   6.120   0.229 -1.9060 -0.7699  1.0924
   95MOL0     H12791   2.307   6.206   0.471 -2.2192  2.4342  1.4395
   95MOL0     H12792   2.258   6.341   0.378  1.8066  0.5281  3.0429
   95MOL0     H12793   2.128   6.144   0.222 -0.1035 -1.1826 -0.0192
   95MOL0     H12794   2.206   6.052   0.353  1.6244 -1.1406 -2.1790
   95MOL0     H12795   1.990   6.279   0.371 -0.6980 -0.0406 -1.2978
   95MOL0     H12796   2.053   6.205   0.513 -2.4973  3.9064 -0.3090
   95MOL0     H12797   1.844   6.104   0.454  0.4516  0.4641  0.9980
   95MOL0     H12798   1.952   5.978   0.444 -1.9571  0.6875  1.9225
   95MOL0     H12799   1.872   6.149   0.187 -2.1054  1.0525  3.1108
   95MOL0     H12800   1.952   5.998   0.180  1.8454 -0.8347  2.0169
   95MOL0     H12801   1.702   6.007   0.132  0.7578 -0.5247  0.3516
   95MOL0     H12802   1.662   6.051   0.282 -2.9711 -2.2583 -3.1456
   95MOL0     H12803   1.781   5.775   0.219  0.2013  0.6615  1.3887
   95MOL0     H12804   1.782   5.848   0.379 -1.4656  1.0103  1.9622
   95MOL0     H12805   2.706   6.101   0.395 -0.1630 -1.3508 -1.2195
   95MOL0     H12806   2.899   6.022   0.275 -1.0454 -0.7683  1.6771
   95MOL0     H12807   3.184   6.148  -0.105  3.6533  1.0943 -3.6140
   95MOL0     H12808   3.394   6.036  -0.191  1.1193 -1.9931  0.8391
   95MOL0     H12809   3.708   4.341  -0.327  1.7417  0.2919 -0.2379
   95MOL0     H12810   3.786   4.207  -0.144 -0.5056 -1.7118  2.8096
   95MOL0     H12811   3.731   4.007   0.228 -0.6394 -1.4177  1.2791
   95MOL0     H12812   3.808   3.864   0.386  3.2593  2.4399 -1.1093
   95MOL0     H12813   4.056   3.972   0.722  1.0300 -1.9199 -2.6026
   95MOL0     H12814   4.008   3.813   0.756  0.5778  0.7364  1.3762
   95MOL0     H12815   3.826   4.009   0.858  0.5692  2.2862  1.3733
   95MOL0     H12816   3.992   4.000   0.931  0.7276 -0.2740  0.0526
   95MOL0     H12817   3.965   3.762   0.997 -0.3638 -0.3990  0.5935
   95MOL0     H12818   3.835   3.742   0.875 -3.0393  2.1696 -1.1800
   95MOL0     H12819   3.798   3.904   1.139  1.0621 -0.8842  0.1243
   95MOL0     H12820   3.668   3.845   1.034 -1.1377 -0.4071 -0.1749
   95MOL0     H12821   3.761   3.514   1.281  2.1911  1.7137  1.7505
   95MOL0     H12822   3.855   4.163   0.684 -2.0319 -1.2778  1.0445
   95MOL0     H12823   3.772   4.379   0.655 -0.8865  1.9185 -0.4396
   95MOL0     H12824   3.844   4.439   0.498  1.7108 -1.4196  1.3135
   95MOL0     H12825   3.682   4.427   0.518  0.9113  1.8075  0.6792
   96MOL0     O12826   6.173   0.898   1.184  0.4574 -0.0760 -1.2705
   96MOL0     C12827   6.273   0.850   1.236 -0.8028 -0.2615  0.7370
   96MOL0     O12828   6.409   0.865   1.185  0.5121 -0.8878  0.8306
   96MOL0     C12829   6.433   0.947   1.070 -0.9760  0.1111 -0.5915
   96MOL0     C12830   6.365   1.069   1.036 -0.4952  0.8894  1.1647
   96MOL0     C12831   6.390   1.132   0.919  0.1894 -0.3303 -0.6086
   96MOL0     C12832   6.486   1.085   0.833  0.2500 -1.8511  0.4902
   96MOL0     O12833   6.492   1.155   0.712 -1.4880 -0.0631 -0.0022
   96MOL0     C12834   6.597   1.142   0.616  1.3805 -0.0935 -0.2153
   96MOL0     C12835   6.562   1.229   0.495 -0.7071  0.1122 -0.8389
   96MOL0     C12836   6.666   1.234   0.380  0.3556 -0.5091 -0.0070
   96MOL0     C12837   6.594   1.240   0.245 -0.4015 -0.2405  0.3354
   96MOL0     C12838   6.696   1.278   0.131 -0.2080 -0.1211 -0.1080
   96MOL0     C12839   6.618   1.334   0.012  0.4158 -0.2664 -0.6871
   96MOL0     C12840   6.701   1.361  -0.107 -0.6921  0.5659 -0.8539
   96MOL0     C12841   6.662   1.471  -0.210 -0.0438  0.4267 -0.1158
   96MOL0     N12842   6.747   1.459  -0.321  0.1333  0.5369 -0.3530
   96MOL0     C12843   6.874   1.507  -0.350 -1.4974 -0.7663 -0.6620
   96MOL0     C12844   6.888   1.498  -0.485  0.0805  0.1524  0.4637
   96MOL0     C12845   7.008   1.550  -0.564 -1.5424  0.0823 -0.1590
   96MOL0     C12846   7.119   1.629  -0.492  0.2542 -0.4834 -0.2973
   96MOL0     C12847   7.088   1.775  -0.498 -0.3798 -0.8705 -0.0321
   96MOL0     C12848   7.120   1.838  -0.639 -0.4626  0.3944 -0.3352
   96MOL0     O12849   7.260   1.821  -0.663 -0.8201 -0.1131 -0.1664
   96MOL0     C12850   7.312   1.816  -0.792  0.4910  1.1239  0.4379
   96MOL0     C12851   7.231   1.814  -0.908 -0.5247 -0.1066 -0.2964
   96MOL0     C12852   7.283   1.816  -1.044  0.9518 -0.0751 -0.1099
   96MOL0     C12853   7.421   1.821  -1.067 -0.6428 -0.1440  0.2988
   96MOL0     C12854   7.470   1.808  -1.214  0.7120 -0.8857 -0.0509
   96MOL0     O12855   7.603   1.779  -1.225  0.2243  0.5745  0.0590
   96MOL0     C12856   7.667   1.741  -1.344 -0.8717  0.0797 -0.8434
   96MOL0     C12857   7.806   1.716  -1.319  0.8860  0.2147 -0.2500
   96MOL0     C12858   7.880   1.652  -1.418 -0.2405 -0.2446  0.0492
   96MOL0     C12859   7.830   1.616  -1.546 -0.4406 -0.2910 -0.4978
   96MOL0     O12860   7.883   1.543  -1.651 -0.9205 -0.5399  0.5076
   96MOL0     C12861   8.024   1.524  -1.649 -0.9212 -0.3550 -0.3600
   96MOL0     C12862   8.058   1.388  -1.595  0.3847 -1.1165  0.0106
   96MOL0     C12863   8.000   1.280  -1.685 -0.5098 -0.6949  1.3831
   96MOL0     C12864   7.846   1.248  -1.667  0.0768  0.5053  0.2414
   96MOL0     C12865   7.792   1.127  -1.737  0.1001 -0.9418 -0.5783
   96MOL0     C12866   7.657   1.111  -1.682  0.1361 -0.1242  0.2040
   96MOL0     C12867   7.579   1.013  -1.772 -0.5763 -0.5764  0.3847
   96MOL0     C12868   7.434   0.992  -1.720 -0.4868 -0.2571 -0.4139
   96MOL0    Cl12869   7.345   1.140  -1.680 -0.5452  0.0068 -0.7165
   96MOL0     C12870   7.696   1.654  -1.576  0.5527  0.3084 -0.6457
   96MOL0     C12871   7.616   1.714  -1.470 -0.2142  0.9372  0.4914
   96MOL0     O12872   7.397   1.831  -1.311 -0.3070  0.0724  0.5480
   96MOL0     C12873   7.502   1.829  -0.955 -0.7928 -0.7040  0.3270
   96MOL0     C12874   7.446   1.817  -0.823 -0.0946 -0.4029  0.8763
   96MOL0     N12875   6.777   1.427  -0.531  0.7703 -0.7751  0.7327
   96MOL0     N12876   6.698   1.400  -0.434 -0.0257  0.4103  0.3477
   96MOL0     C12877   6.548   0.964   0.860  0.1899 -0.3268  0.5958
   96MOL0     C12878   6.530   0.900   0.982 -0.5375 -0.4429  0.1186
   96MOL0     C12879   6.259   0.782   1.365  0.1636 -0.2671 -0.2266
   96MOL0     C12880   6.161   0.834   1.454  1.1011 -0.0031 -0.2013
   96MOL0     C12881   6.145   0.776   1.578  0.5015  0.3157  0.2588
   96MOL0     C12882   6.223   0.671   1.626  0.8343  0.3368  0.5289
   96MOL0     O12883   6.177   0.612   1.741 -0.3388 -0.3585  0.5006
   96MOL0     C12884   6.272   0.593   1.845  0.1924 -0.2845  0.1101
   96MOL0     C12885   6.223   0.640   1.985  0.8729 -0.0066  0.2961
   96MOL0     C12886   6.161   0.785   1.983  1.1967  0.0505 -0.0909
   96MOL0     C12887   6.139   0.828   2.139  0.3348 -0.4900 -0.1778
   96MOL0     C12888   6.062   0.948   2.147 -0.5316 -0.6240  0.1808
   96MOL0     C12889   6.005   1.055   2.137  0.3469 -0.1238 -0.1958
   96MOL0     C12890   6.328   0.619   1.549  0.2172  0.3114  0.3585
   96MOL0     C12891   6.343   0.673   1.420  0.1741 -0.8955  0.0681
   96MOL0     C12892   6.451   0.608   1.337 -0.0926 -0.4584 -0.2583
   96MOL0     H12893   6.281   1.109   1.091 -2.8233 -1.1369 -0.6527
   96MOL0     H12894   6.333   1.221   0.897 -1.0005 -1.1814 -1.1022
   96MOL0     H12895   6.689   1.182   0.658  1.9776 -1.6601  0.0356
   96MOL0     H12896   6.599   1.040   0.577 -0.7608 -1.1242  2.0888
   96MOL0     H12897   6.557   1.326   0.545  1.0045  1.2294 -2.7048
   96MOL0     H12898   6.458   1.216   0.463 -0.6919  0.3136 -0.9693
   96MOL0     H12899   6.716   1.137   0.384  1.5356  0.0147 -1.1842
   96MOL0     H12900   6.748   1.305   0.395 -0.9178  0.7051  1.4801
   96MOL0     H12901   6.548   1.144   0.218 -0.9271  0.1972 -0.3850
   96MOL0     H12902   6.515   1.316   0.252  2.0154  2.2169  4.3835
   96MOL0     H12903   6.777   1.348   0.154  1.7335 -1.4746 -2.3845
   96MOL0     H12904   6.742   1.187   0.093  1.1521  0.6890 -0.4940
   96MOL0     H12905   6.543   1.258  -0.011  0.0900  0.1465 -1.0204
   96MOL0     H12906   6.558   1.414   0.056  1.5475  0.0556  0.3305
   96MOL0     H12907   6.707   1.266  -0.161 -1.3302  0.0563 -0.0578
   96MOL0     H12908   6.803   1.390  -0.078 -0.0138  1.7122 -4.0369
   96MOL0     H12909   6.559   1.450  -0.240 -0.7960  2.4745  0.8012
   96MOL0     H12910   6.668   1.567  -0.158 -1.1644 -1.9896  5.1870
   96MOL0     H12911   6.950   1.547  -0.283 -2.4220 -0.4346  0.2046
   96MOL0     H12912   7.056   1.456  -0.593 -3.4496 -1.2459  0.8361
   96MOL0     H12913   6.973   1.610  -0.648 -1.8303  1.3815  0.8563
   96MOL0     H12914   7.125   1.603  -0.386  1.4046  3.2493  0.7097
   96MOL0     H12915   7.221   1.599  -0.521  1.2369 -3.8519  5.0678
   96MOL0     H12916   7.155   1.815  -0.422  0.7094 -2.6001 -0.0074
   96MOL0     H12917   6.984   1.783  -0.466  0.4939 -1.6399  3.3732
   96MOL0     H12918   7.101   1.945  -0.631 -1.7155  0.1664 -0.0770
   96MOL0     H12919   7.052   1.802  -0.717  0.8147 -1.0065 -0.8810
   96MOL0     H12920   7.123   1.808  -0.918 -0.3710 -1.4776 -1.4615
   96MOL0     H12921   7.205   1.810  -1.120  0.7880 -0.0330  0.0516
   96MOL0     H12922   7.847   1.739  -1.222  2.8114 -1.2528 -0.6485
   96MOL0     H12923   7.980   1.618  -1.393 -0.1840  0.4627  0.8327
   96MOL0     H12924   8.075   1.539  -1.744  0.7713  1.9834  0.8136
   96MOL0     H12925   8.073   1.594  -1.580 -1.1117 -1.7165  1.2241
   96MOL0     H12926   8.166   1.372  -1.588  0.1203 -2.2885  2.5670
   96MOL0     H12927   8.022   1.373  -1.492 -0.6455 -4.1865 -0.6812
   96MOL0     H12928   8.030   1.295  -1.789 -0.0794 -3.0438  1.0906
   96MOL0     H12929   8.059   1.195  -1.648  1.2005 -0.3196 -0.2908
   96MOL0     H12930   7.784   1.329  -1.707  0.5507  1.0408  0.5781
   96MOL0     H12931   7.821   1.250  -1.560  2.1577  1.4731  0.7580
   96MOL0     H12932   7.857   1.039  -1.726 -0.1743 -1.2843 -1.5384
   96MOL0     H12933   7.790   1.138  -1.846  6.7984 -1.2556 -1.1844
   96MOL0     H12934   7.646   1.071  -1.580 -1.8090 -0.2124  0.0117
   96MOL0     H12935   7.609   1.210  -1.682  2.4501  1.1120  1.9377
   96MOL0     H12936   7.632   0.921  -1.796 -0.9894 -0.4014 -1.3253
   96MOL0     H12937   7.572   1.061  -1.870 -0.6769  1.3807  1.3114
   96MOL0     H12938   7.378   0.923  -1.783  1.8764 -3.0240  0.3147
   96MOL0     H12939   7.445   0.946  -1.621  3.4496 -1.8452 -1.3976
   96MOL0     H12940   7.646   1.641  -1.671 -0.9200 -0.0258  0.1440
   96MOL0     H12941   7.510   1.728  -1.489 -0.0400  0.7808 -0.6669
   96MOL0     H12942   7.607   1.804  -0.959 -0.1625  1.9005 -2.4394
   96MOL0     H12943   7.519   1.831  -0.744  0.5816  3.3375 -0.2221
   96MOL0     H12944   6.629   0.940   0.793 -1.3934 -0.8492 -1.2246
   96MOL0     H12945   6.591   0.816   1.015 -0.8893  0.3271  2.9545
   96MOL0     H12946   6.098   0.920   1.431  1.2903 -0.5889 -3.3922
   96MOL0     H12947   6.064   0.805   1.645 -0.6098 -1.1439 -0.3967
   96MOL0     H12948   6.351   0.664   1.820  1.1419 -1.7712 -1.3773
   96MOL0     H12949   6.328   0.499   1.839 -0.7251 -0.8956  0.8501
   96MOL0     H12950   6.295   0.617   2.064 -0.8081 -1.2410  1.5604
   96MOL0     H12951   6.140   0.569   1.993 -0.1009  0.9609 -0.8822
   96MOL0     H12952   6.066   0.786   1.930  0.9155 -2.7624  0.2202
   96MOL0     H12953   6.228   0.853   1.930  1.9476  0.6731  1.5781
   96MOL0     H12954   6.076   0.750   2.181 -0.0447 -0.2744 -0.3462
   96MOL0     H12955   6.231   0.845   2.197 -0.6631 -0.7460  1.5542
   96MOL0     H12956   5.949   1.145   2.124 -0.5563 -0.6360  0.0890
   96MOL0     H12957   6.392   0.539   1.583  1.4410  0.0578 -2.3012
   96MOL0     H12958   6.501   0.521   1.380 -0.0891  0.5940  2.0325
   96MOL0     H12959   6.404   0.589   1.241  0.4877  1.3291 -0.9356
   96MOL0     H12960   6.536   0.676   1.323 -1.5182  0.7445 -4.2735
   97MOL0     O12961   8.042   4.290  10.843  0.3367 -0.2755 -0.2379
   97MOL0     C12962   8.122   4.323  10.931  0.8186 -0.1483  0.5029
   97MOL0     O12963   8.132   4.426  11.011  0.2355  0.2547  0.4326
   97MOL0     C12964   8.022   4.515  11.009 -0.7188 -0.3018 -0.9257
   97MOL0     C12965   8.015   4.616  10.910  0.0385  0.4085  0.5042
   97MOL0     C12966   7.913   4.709  10.912 -0.7194  0.4405  0.1005
   97MOL0     C12967   7.807   4.693  10.997 -0.3839 -0.1730  0.1227
   97MOL0     O12968   7.689   4.775  10.992 -0.5931  0.3467 -0.8921
   97MOL0     C12969   7.676   4.866  10.871  0.9481  0.4261  0.1576
   97MOL0     C12970   7.546   4.930  10.895  0.3010 -0.5255  0.1777
   97MOL0     C12971   7.502   5.023  10.782 -1.1795  0.1585  0.7263
   97MOL0     C12972   7.429   4.941  10.682 -0.0201  0.2188 -0.7674
   97MOL0     C12973   7.424   5.030  10.555 -0.3442 -0.6481 -0.0696
   97MOL0     C12974   7.319   4.980  10.443 -1.2253 -0.0235 -0.6144
   97MOL0     C12975   7.371   4.855  10.362  0.1227  0.0556 -0.5645
   97MOL0     C12976   7.296   4.830  10.236 -0.3559  0.2261 -0.2260
   97MOL0     N12977   7.377   4.738  10.149  0.4755  0.1402 -0.1121
   97MOL0     C12978   7.419   4.784  10.029  0.0924 -0.5724  0.4015
   97MOL0     C12979   7.483   4.671   9.977 -0.1407  0.8573 -0.8354
   97MOL0     C12980   7.573   4.661   9.854  0.4494 -0.1316 -0.1317
   97MOL0     C12981   7.722   4.706   9.886  0.4833  0.0050  0.3574
   97MOL0     C12982   7.805   4.592   9.937  1.0414 -0.2545 -0.2428
   97MOL0     C12983   7.953   4.636   9.945 -0.4894 -0.0256 -0.2978
   97MOL0     O12984   8.030   4.676   9.821  0.8663  0.2537  0.1169
   97MOL0     C12985   8.069   4.574   9.740  0.0219 -0.1640  0.9752
   97MOL0     C12986   8.069   4.439   9.762 -0.1875 -0.1858  0.1709
   97MOL0     C12987   8.114   4.348   9.667 -1.0740  0.2690  0.3864
   97MOL0     C12988   8.185   4.391   9.545 -0.3182 -0.0538 -1.0710
   97MOL0     C12989   8.224   4.291   9.444 -0.4115  0.3485  0.0994
   97MOL0     O12990   8.279   4.343   9.329  0.3509 -0.2599 -0.1827
   97MOL0     C12991   8.286   4.277   9.207  0.6445 -0.1567 -0.7668
   97MOL0     C12992   8.303   4.362   9.101 -0.4146  0.4414  0.7169
   97MOL0     C12993   8.329   4.309   8.977 -0.9062  0.1323  0.3504
   97MOL0     C12994   8.338   4.170   8.950 -0.5113  1.2537  0.2504
   97MOL0     O12995   8.358   4.131   8.821  0.3420 -0.3159 -0.3205
   97MOL0     C12996   8.401   3.995   8.785  0.5793 -0.0133  0.1718
   97MOL0     C12997   8.434   3.986   8.635  0.3472 -0.1975  0.1615
   97MOL0     C12998   8.538   4.082   8.582 -0.5020 -1.7150  0.1476
   97MOL0     C12999   8.567   4.052   8.438 -0.6094 -1.2529  0.5969
   97MOL0     C13000   8.660   3.932   8.427 -0.6204  0.3301 -0.3865
   97MOL0     C13001   8.718   3.905   8.290 -0.1531 -0.6131  0.5512
   97MOL0     C13002   8.776   3.769   8.276  0.2694  0.6480 -0.4476
   97MOL0     C13003   8.886   3.760   8.168 -0.1367  0.2938  0.0665
   97MOL0    Cl13004   9.040   3.786   8.261  0.0904  0.2203 -0.6770
   97MOL0     C13005   8.314   4.081   9.056  0.6533 -0.5063 -0.4102
   97MOL0     C13006   8.285   4.139   9.186  0.5537  0.1663  0.8975
   97MOL0     O13007   8.201   4.172   9.458  0.1997 -0.3731  0.1283
   97MOL0     C13008   8.204   4.530   9.533  0.6026  0.2808  0.2313
   97MOL0     C13009   8.144   4.616   9.630 -0.5914 -0.3672  0.3290
   97MOL0     N13010   7.452   4.561  10.060 -0.5045  0.1244  0.3383
   97MOL0     N13011   7.396   4.607  10.160 -0.1733  0.0983 -0.1997
   97MOL0     C13012   7.803   4.593  11.095 -0.5224  0.3744 -0.4650
   97MOL0     C13013   7.918   4.503  11.104 -0.5072  0.2008 -0.4189
   97MOL0     C13014   8.224   4.221  10.963 -0.2642 -0.1382 -0.0378
   97MOL0     C13015   8.357   4.262  10.985  0.1531  0.3742 -1.0737
   97MOL0     C13016   8.456   4.165  11.009  0.4436 -1.1143 -0.1303
   97MOL0     C13017   8.427   4.021  11.021 -0.7024 -0.5190 -0.3011
   97MOL0     O13018   8.534   3.944  11.051 -0.1743 -0.2617 -0.7294
   97MOL0     C13019   8.527   3.797  11.067  0.0611 -0.3307  0.7917
   97MOL0     C13020   8.662   3.743  11.119 -0.4365  0.4878  0.0014
   97MOL0     C13021   8.732   3.666  11.019  1.4886 -0.9039  0.6508
   97MOL0     C13022   8.842   3.571  11.068 -0.2549  0.8471  1.0421
   97MOL0     C13023   8.934   3.533  10.953 -0.2282 -0.4993 -0.2631
   97MOL0     C13024   9.015   3.490  10.875  0.1564  0.0326  0.1137
   97MOL0     C13025   8.296   3.984  11.006  0.7642 -0.7115 -0.1854
   97MOL0     C13026   8.194   4.078  10.975  1.1190 -0.3475 -0.0341
   97MOL0     C13027   8.048   4.022  10.988 -0.4663 -0.3738 -0.3200
   97MOL0     H13028   8.091   4.633  10.834 -1.3953  3.8319 -0.3672
   97MOL0     H13029   7.911   4.788  10.837 -2.8319 -1.2674 -1.7760
   97MOL0     H13030   7.758   4.937  10.855  0.5255  0.5562 -1.6413
   97MOL0     H13031   7.671   4.804  10.781 -1.7649  1.2806 -0.3680
   97MOL0     H13032   7.548   4.982  10.990 -3.4111  1.1145 -0.4470
   97MOL0     H13033   7.461   4.861  10.898 -0.0283 -0.0679  2.1472
   97MOL0     H13034   7.588   5.074  10.738 -0.4572 -1.1513  0.5677
   97MOL0     H13035   7.436   5.099  10.823 -4.3122 -2.3316  0.6882
   97MOL0     H13036   7.488   4.851  10.665  1.2796  1.1010 -1.1521
   97MOL0     H13037   7.329   4.918  10.718  0.4229 -1.4167 -0.5160
   97MOL0     H13038   7.391   5.129  10.587  1.7101  0.0277  0.1262
   97MOL0     H13039   7.524   5.051  10.515 -0.4206 -2.2860 -1.2240
   97MOL0     H13040   7.224   4.951  10.491 -0.0664 -0.5405  1.4747
   97MOL0     H13041   7.299   5.059  10.370  0.1127  1.0865  0.1848
   97MOL0     H13042   7.378   4.757  10.410  0.0037  0.4842  0.3283
   97MOL0     H13043   7.474   4.877  10.333  0.6340  1.1158  1.8101
   97MOL0     H13044   7.200   4.781  10.255 -0.9428  0.6294 -2.0213
   97MOL0     H13045   7.273   4.922  10.182 -0.5789  1.1465  1.3562
   97MOL0     H13046   7.422   4.887   9.996 -1.5244 -0.7728 -0.4342
   97MOL0     H13047   7.568   4.560   9.812  0.5713 -0.9441  1.7260
   97MOL0     H13048   7.535   4.735   9.783 -0.3328 -1.7028 -1.4331
   97MOL0     H13049   7.759   4.741   9.789 -0.3623 -2.4786 -0.9449
   97MOL0     H13050   7.720   4.791   9.954 -1.8225  1.4808 -1.4101
   97MOL0     H13051   7.816   4.508   9.867  2.5076 -1.4955  1.3898
   97MOL0     H13052   7.765   4.549  10.030 -0.7283  0.2613 -0.7263
   97MOL0     H13053   8.005   4.566  10.011  1.6954  3.1718  1.7063
   97MOL0     H13054   7.938   4.731   9.998 -0.8854  0.5656 -1.4361
   97MOL0     H13055   8.019   4.393   9.847 -1.2014 -0.8551 -0.7706
   97MOL0     H13056   8.106   4.242   9.689 -2.1329 -0.1473 -1.7144
   97MOL0     H13057   8.310   4.469   9.118  0.2288  0.2064  2.1197
   97MOL0     H13058   8.342   4.380   8.895  0.7716  0.4095  0.8105
   97MOL0     H13059   8.487   3.979   8.851 -1.1940 -1.1430  2.3415
   97MOL0     H13060   8.330   3.914   8.801  1.4131 -0.7081  0.3966
   97MOL0     H13061   8.470   3.883   8.627  2.9591  0.7418 -1.6198
   97MOL0     H13062   8.336   3.991   8.587  0.2462  1.8250  0.4963
   97MOL0     H13063   8.504   4.186   8.584  3.4503 -0.2273 -1.0204
   97MOL0     H13064   8.630   4.086   8.641 -1.4244 -3.6465  1.8445
   97MOL0     H13065   8.624   4.126   8.382  0.8903 -3.3965 -0.8890
   97MOL0     H13066   8.468   4.024   8.401 -2.6835  3.3539  1.9598
   97MOL0     H13067   8.606   3.842   8.460 -0.1313  0.2727  0.2766
   97MOL0     H13068   8.746   3.945   8.494  0.4603 -2.3959 -1.1222
   97MOL0     H13069   8.644   3.928   8.212  1.5679  0.1590 -0.9411
   97MOL0     H13070   8.798   3.979   8.284 -1.9738  1.5162  0.9392
   97MOL0     H13071   8.693   3.703   8.251  0.8751 -0.1241 -0.4435
   97MOL0     H13072   8.807   3.730   8.373  1.4007  2.5221  0.0010
   97MOL0     H13073   8.881   3.662   8.119  2.7710  0.5044 -0.8974
   97MOL0     H13074   8.866   3.836   8.091 -1.6243  0.3374  0.4739
   97MOL0     H13075   8.313   3.973   9.046 -1.0791 -0.5611  0.1056
   97MOL0     H13076   8.282   4.072   9.272  1.3530  0.5224  1.2180
   97MOL0     H13077   8.256   4.568   9.446 -1.8534  1.9899 -0.6132
   97MOL0     H13078   8.172   4.720   9.612 -0.1545 -0.7896 -1.6923
   97MOL0     H13079   7.721   4.577  11.163 -1.0251  1.0698 -0.8964
   97MOL0     H13080   7.921   4.427  11.182  3.0809  1.5268  0.9314
   97MOL0     H13081   8.389   4.366  10.988 -1.4186  0.9014  2.0518
   97MOL0     H13082   8.556   4.202  11.029 -0.6035  1.4705  0.7422
   97MOL0     H13083   8.496   3.751  10.973 -1.9595  0.7215  0.9093
   97MOL0     H13084   8.446   3.763  11.131 -0.6953 -2.0606 -0.9923
   97MOL0     H13085   8.652   3.683  11.210 -2.4785  1.6176  0.5887
   97MOL0     H13086   8.735   3.822  11.140 -2.0755  1.8947  0.7223
   97MOL0     H13087   8.787   3.740  10.960  0.8253  0.2643  1.4525
   97MOL0     H13088   8.658   3.620  10.953  3.1720 -1.2347 -1.0977
   97MOL0     H13089   8.900   3.629  11.141 -0.4205  1.0370  1.0238
   97MOL0     H13090   8.799   3.478  11.108 -1.0636  1.0207  0.5886
   97MOL0     H13091   9.093   3.444  10.817  0.6970  0.0425  0.8232
   97MOL0     H13092   8.284   3.877  11.021  0.3474 -0.3507  2.7585
   97MOL0     H13093   7.986   4.095  11.042  1.4920  0.9030  0.3050
   97MOL0     H13094   8.014   3.993  10.888  0.9858 -0.6984 -0.7469
   97MOL0     H13095   8.054   3.932  11.050 -2.4150 -1.7296 -1.9564
   98MOL0     O13096   2.836   8.486   8.984 -0.2024 -0.3485  0.0856
   98MOL0     C13097   2.785   8.485   9.097  0.0821 -0.4627  0.0889
   98MOL0     O13098   2.764   8.380   9.182 -0.5029 -0.3270  0.5306
   98MOL0     C13099   2.831   8.257   9.166  0.2921  0.4155 -0.1800
   98MOL0     C13100   2.867   8.190   9.281 -0.1810 -0.6355 -0.0758
   98MOL0     C13101   2.940   8.072   9.271  0.2188 -0.2610  0.0088
   98MOL0     C13102   2.955   8.009   9.141 -0.3130 -0.6077 -1.0938
   98MOL0     O13103   3.023   7.895   9.120  0.0305  0.4643  0.1584
   98MOL0     C13104   3.082   7.829   9.231  0.2153 -0.4159 -0.6779
   98MOL0     C13105   3.154   7.699   9.183 -0.6144  0.1374 -0.0770
   98MOL0     C13106   3.254   7.646   9.297  0.1162  0.4725 -0.2344
   98MOL0     C13107   3.283   7.488   9.283 -0.0436 -0.8696 -0.2212
   98MOL0     C13108   3.388   7.435   9.373  0.2385 -1.4600 -1.6129
   98MOL0     C13109   3.411   7.282   9.359  0.0051  0.4390 -0.0075
   98MOL0     C13110   3.525   7.260   9.268  1.0933 -0.8118 -1.0266
   98MOL0     C13111   3.534   7.116   9.217 -0.1456 -1.0295  0.5389
   98MOL0     N13112   3.532   7.100   9.067 -0.4719 -0.8187 -0.2326
   98MOL0     C13113   3.640   7.092   8.995 -1.3961  0.6743  0.0630
   98MOL0     C13114   3.602   7.091   8.867 -0.3734 -1.2789 -0.6793
   98MOL0     C13115   3.692   7.054   8.756  0.1600  1.1046 -0.1197
   98MOL0     C13116   3.805   6.974   8.814 -0.3579 -0.5001  1.0050
   98MOL0     C13117   3.892   6.899   8.699 -0.8152  0.8640 -0.2680
   98MOL0     C13118   3.962   6.774   8.749  0.7188 -0.8494  1.0530
   98MOL0     O13119   4.079   6.802   8.829 -0.0618  0.0134  0.1175
   98MOL0     C13120   4.085   6.714   8.938  0.0606  0.2534 -0.2292
   98MOL0     C13121   3.993   6.724   9.035  0.0874  0.6051 -0.0472
   98MOL0     C13122   3.984   6.628   9.147  0.2305  0.4480 -0.6461
   98MOL0     C13123   4.064   6.516   9.145 -0.1170 -0.8874  0.1667
   98MOL0     C13124   4.074   6.429   9.253  0.4939  0.1690  0.3536
   98MOL0     O13125   4.029   6.486   9.374  0.2571  0.4349  0.3286
   98MOL0     C13126   4.014   6.397   9.471 -0.0714  0.5379  0.2183
   98MOL0     C13127   4.127   6.331   9.515 -0.7141  0.4247  0.5801
   98MOL0     C13128   4.111   6.237   9.623 -0.6422 -0.0530  0.9256
   98MOL0     C13129   3.992   6.207   9.680 -0.4131 -0.2965  0.3084
   98MOL0     O13130   4.003   6.119   9.788  0.3404 -1.0919  0.4240
   98MOL0     C13131   3.872   6.072   9.844 -0.1589  0.4621  0.5374
   98MOL0     C13132   3.887   5.961   9.950  0.2568 -0.6482 -0.5008
   98MOL0     C13133   3.754   5.880   9.962  0.5807  0.3707  0.5812
   98MOL0     C13134   3.771   5.765  10.066 -0.0861 -0.0632  0.6711
   98MOL0     C13135   3.659   5.677  10.075  0.7678  1.4318 -0.7136
   98MOL0     C13136   3.676   5.595  10.210  0.0101 -0.1562  0.1917
   98MOL0     C13137   3.550   5.510  10.226  0.5872  0.6454  0.3750
   98MOL0     C13138   3.549   5.427  10.357  0.2905 -0.4135  0.4119
   98MOL0    Cl13139   3.534   5.540  10.503 -0.4384 -0.2690  0.5034
   98MOL0     C13140   3.884   6.290   9.636  0.7631  0.5066  0.3363
   98MOL0     C13141   3.889   6.376   9.528  0.5524 -0.1222 -0.5388
   98MOL0     O13142   4.117   6.314   9.240  0.1859  0.0733  0.2680
   98MOL0     C13143   4.153   6.496   9.038  0.3706 -0.2112 -0.3465
   98MOL0     C13144   4.168   6.601   8.942  0.7261  0.6844 -0.5175
   98MOL0     N13145   3.466   7.107   8.869 -0.0666  0.6618 -0.5853
   98MOL0     N13146   3.423   7.122   8.987 -0.3548  1.2282 -0.5753
   98MOL0     C13147   2.899   8.069   9.037  0.0974  0.5130 -0.6231
   98MOL0     C13148   2.842   8.192   9.044  0.5072 -1.4037 -0.2120
   98MOL0     C13149   2.726   8.619   9.147 -0.0194  0.5381  0.6218
   98MOL0     C13150   2.611   8.616   9.222 -0.7456 -0.0559  0.0739
   98MOL0     C13151   2.544   8.729   9.254  0.3730  0.0441  0.0871
   98MOL0     C13152   2.589   8.851   9.215 -0.2124 -0.5219 -0.8450
   98MOL0     O13153   2.508   8.961   9.246 -0.5440  0.1231  0.0713
   98MOL0     C13154   2.456   9.039   9.136  0.6064  1.1884 -0.3947
   98MOL0     C13155   2.362   8.969   9.030 -0.2389  0.0910  0.9140
   98MOL0     C13156   2.317   9.063   8.913 -0.1651 -0.2072 -0.6881
   98MOL0     C13157   2.234   8.983   8.817  0.3833  0.1024 -0.4650
   98MOL0     C13158   2.277   9.007   8.682 -0.9014  0.5621 -0.1008
   98MOL0     C13159   2.319   9.049   8.576  1.3078  0.6222  0.3646
   98MOL0     C13160   2.708   8.862   9.148 -0.6553  0.0879 -0.3662
   98MOL0     C13161   2.782   8.745   9.112 -0.3043 -0.1380 -0.0012
   98MOL0     C13162   2.908   8.772   9.031 -0.1866 -0.5405 -0.0715
   98MOL0     H13163   2.857   8.245   9.374 -3.0029 -1.0272 -0.0840
   98MOL0     H13164   2.978   8.025   9.361  0.5950 -2.0200 -1.0196
   98MOL0     H13165   3.154   7.897   9.278 -0.3149 -1.7884  2.4240
   98MOL0     H13166   3.013   7.795   9.309  2.7028  0.7867  2.2774
   98MOL0     H13167   3.208   7.717   9.090  2.2874 -0.2052  1.4226
   98MOL0     H13168   3.078   7.624   9.160 -1.3704  0.8797 -0.0458
   98MOL0     H13169   3.228   7.667   9.402  0.1041 -0.1517 -0.1059
   98MOL0     H13170   3.353   7.688   9.278  0.7244 -2.1618 -3.8513
   98MOL0     H13171   3.190   7.436   9.307 -0.6269  0.0234 -0.4875
   98MOL0     H13172   3.309   7.473   9.178 -1.4239  5.2921 -1.8530
   98MOL0     H13173   3.481   7.491   9.361  0.5950 -2.0300 -1.5855
   98MOL0     H13174   3.353   7.470   9.470  0.5559  2.2466 -2.7132
   98MOL0     H13175   3.444   7.241   9.454 -0.0197  0.9739  0.2350
   98MOL0     H13176   3.322   7.228   9.323 -1.5870  3.9347 -1.9080
   98MOL0     H13177   3.620   7.291   9.312 -0.9388  2.0872  1.8070
   98MOL0     H13178   3.515   7.312   9.172  0.8332 -2.0528 -1.6838
   98MOL0     H13179   3.624   7.078   9.266 -2.0986 -0.5337  4.9555
   98MOL0     H13180   3.455   7.053   9.259  0.1113 -1.7136  0.0175
   98MOL0     H13181   3.745   7.087   9.023 -0.6533  0.7661 -2.4960
   98MOL0     H13182   3.629   6.990   8.694  0.4785 -0.0730  0.7307
   98MOL0     H13183   3.713   7.145   8.699 -1.6994  1.1649 -0.7674
   98MOL0     H13184   3.876   7.025   8.880  1.0938  1.2578 -1.7264
   98MOL0     H13185   3.763   6.885   8.863  2.6290 -3.3791 -1.1567
   98MOL0     H13186   3.971   6.966   8.665  0.3996  0.2106  1.1638
   98MOL0     H13187   3.826   6.869   8.616 -1.7561  1.0778  0.3835
   98MOL0     H13188   3.981   6.716   8.658 -1.9946 -0.0606 -0.1006
   98MOL0     H13189   3.897   6.697   8.791 -2.2746  0.8578 -0.1649
   98MOL0     H13190   3.932   6.814   9.030 -2.6102 -1.1818 -2.2295
   98MOL0     H13191   3.911   6.653   9.224 -1.2747  1.1563 -2.2433
   98MOL0     H13192   4.226   6.336   9.471 -0.4138 -3.4842  0.5103
   98MOL0     H13193   4.194   6.175   9.656  0.4708  0.2542 -1.1000
   98MOL0     H13194   3.815   6.151   9.895 -0.7116 -0.6938  1.7957
   98MOL0     H13195   3.809   6.037   9.762 -0.7489  3.1995 -0.2856
   98MOL0     H13196   3.972   5.895   9.933  0.2954 -1.3791  2.0422
   98MOL0     H13197   3.909   6.014  10.044 -1.0818  0.9143 -1.0234
   98MOL0     H13198   3.664   5.942   9.973 -0.4427 -0.5520 -1.8728
   98MOL0     H13199   3.740   5.839   9.862  3.7652  0.4091  0.0291
   98MOL0     H13200   3.801   5.811  10.161  0.1237 -0.6179  0.8789
   98MOL0     H13201   3.857   5.709  10.027  3.2215  4.9284 -0.1242
   98MOL0     H13202   3.646   5.614   9.987 -0.8915  2.5169 -1.2890
   98MOL0     H13203   3.566   5.733  10.086  0.9817  1.5365  0.9132
   98MOL0     H13204   3.765   5.532  10.207  0.3057  0.0723  2.6927
   98MOL0     H13205   3.693   5.661  10.295  0.8707 -1.2684  0.9057
   98MOL0     H13206   3.550   5.444  10.139  2.7766 -0.3835  1.0882
   98MOL0     H13207   3.466   5.580  10.224  0.1577  0.1176 -0.1444
   98MOL0     H13208   3.455   5.371  10.355 -0.8447  1.0443  4.1598
   98MOL0     H13209   3.634   5.359  10.347  0.1217 -1.1025  3.0252
   98MOL0     H13210   3.787   6.253   9.665  0.5713  1.6914  1.2900
   98MOL0     H13211   3.798   6.428   9.499  2.1675  1.2637 -3.5568
   98MOL0     H13212   4.220   6.411   9.030  1.4424  0.5318  0.4564
   98MOL0     H13213   4.244   6.581   8.867  2.1576  0.1927  1.0033
   98MOL0     H13214   2.915   8.019   8.942 -1.3683 -1.1607 -0.0504
   98MOL0     H13215   2.813   8.236   8.949  1.3538 -2.8583 -1.1747
   98MOL0     H13216   2.566   8.522   9.254 -1.7860  0.8733  1.4540
   98MOL0     H13217   2.448   8.708   9.300 -0.8662  1.4330 -1.7312
   98MOL0     H13218   2.545   9.072   9.082 -0.1069  3.7492 -0.0924
   98MOL0     H13219   2.411   9.125   9.185  2.4286  2.0949 -0.2479
   98MOL0     H13220   2.265   8.948   9.076 -0.4339  0.5569  0.7144
   98MOL0     H13221   2.413   8.885   8.982  0.1595 -0.3870  2.1248
   98MOL0     H13222   2.399   9.110   8.858  1.9685 -3.2158 -0.3498
   98MOL0     H13223   2.257   9.146   8.952 -1.1009 -0.4441 -1.5932
   98MOL0     H13224   2.258   8.877   8.831 -3.0890 -0.7929 -0.1684
   98MOL0     H13225   2.130   9.006   8.843 -0.0812 -2.4883  0.2616
   98MOL0     H13226   2.360   9.093   8.487  1.2682 -3.2519 -1.8020
   98MOL0     H13227   2.742   8.959   9.113 -0.7763  1.2945  2.5927
   98MOL0     H13228   2.943   8.875   9.038  2.8693 -1.5095  0.3388
   98MOL0     H13229   2.994   8.710   9.059  0.7898  1.0588  0.5820
   98MOL0     H13230   2.890   8.745   8.927 -0.8932  1.0222 -0.3777
   99MOL0     O13231   5.307   2.321   6.892  1.3001  0.5531  0.1195
   99MOL0     C13232   5.397   2.242   6.856  0.7093 -0.5593  0.0948
   99MOL0     O13233   5.529   2.247   6.896  0.0123  0.2005 -0.1038
   99MOL0     C13234   5.564   2.345   6.979 -0.5206  0.7265 -0.1044
   99MOL0     C13235   5.574   2.321   7.106 -0.0027  0.4070 -0.1468
   99MOL0     C13236   5.600   2.420   7.200 -0.3425  1.3001 -0.3249
   99MOL0     C13237   5.614   2.555   7.161 -0.6576 -0.9996  0.2415
   99MOL0     O13238   5.594   2.654   7.254 -0.4863 -0.5405  0.1126
   99MOL0     C13239   5.473   2.665   7.329 -0.2632  0.4333  0.3775
   99MOL0     C13240   5.346   2.594   7.265  0.2735 -0.6124  1.0051
   99MOL0     C13241   5.220   2.615   7.361  1.2965  0.0809  0.1800
   99MOL0     C13242   5.096   2.553   7.302  0.3655 -0.4332  0.3945
   99MOL0     C13243   4.965   2.606   7.361  0.9903  0.0539 -0.5415
   99MOL0     C13244   4.957   2.619   7.511  0.2983 -0.1345  0.3332
   99MOL0     C13245   4.942   2.479   7.567 -0.4345 -0.2559 -1.5095
   99MOL0     C13246   4.912   2.504   7.719  0.2095  0.7145 -0.8026
   99MOL0     N13247   5.028   2.518   7.805  0.1012  0.8292 -0.5912
   99MOL0     C13248   5.123   2.419   7.836 -0.6619  0.4875  0.1267
   99MOL0     C13249   5.234   2.484   7.872 -0.3159 -0.1988 -0.5809
   99MOL0     C13250   5.372   2.452   7.928  0.3930 -0.3555 -0.4599
   99MOL0     C13251   5.430   2.347   7.836 -0.0856 -0.1626 -0.0947
   99MOL0     C13252   5.584   2.313   7.876 -0.2453 -0.6753 -0.0256
   99MOL0     C13253   5.672   2.261   7.756  0.3188  0.2519 -0.2124
   99MOL0     O13254   5.619   2.135   7.713  0.2209  0.8349 -0.4754
   99MOL0     C13255   5.625   2.085   7.580  0.3407 -0.2547 -0.6672
   99MOL0     C13256   5.704   2.126   7.466  0.2266 -0.5518 -0.1757
   99MOL0     C13257   5.684   2.068   7.340 -0.0881  0.6558 -0.2457
   99MOL0     C13258   5.597   1.959   7.324  0.1658 -0.3145 -0.2588
   99MOL0     C13259   5.587   1.898   7.197  0.1931 -0.3382 -0.2712
   99MOL0     O13260   5.709   1.842   7.147  0.0469 -0.4158 -0.8576
   99MOL0     C13261   5.738   1.859   7.019 -0.1712  0.4683 -0.6010
   99MOL0     C13262   5.685   1.969   6.959  0.8024 -0.4385  0.5911
   99MOL0     C13263   5.703   1.981   6.818  0.5765 -0.2309  0.5090
   99MOL0     C13264   5.791   1.900   6.748 -1.1597  0.4644  0.8424
   99MOL0     O13265   5.813   1.925   6.616 -0.2705  0.5464 -0.8296
   99MOL0     C13266   5.705   1.975   6.529 -0.0598  0.6355  0.0726
   99MOL0     C13267   5.707   1.904   6.391 -0.0995  0.0467 -0.7302
   99MOL0     C13268   5.843   1.908   6.319 -0.5430 -0.1185 -0.5786
   99MOL0     C13269   5.878   2.041   6.258  0.1964 -0.5990 -0.0431
   99MOL0     C13270   5.964   2.040   6.131  0.6042 -0.0768  0.1094
   99MOL0     C13271   6.021   2.179   6.091  0.3569  0.3756  0.3931
   99MOL0     C13272   5.925   2.286   6.038  0.8771  0.0758 -0.2163
   99MOL0     C13273   5.877   2.261   5.897 -0.6140 -0.3918  0.4650
   99MOL0    Cl13274   5.745   2.133   5.916  0.0888  0.0678  0.0049
   99MOL0     C13275   5.870   1.814   6.826  0.1401  0.3497  0.3976
   99MOL0     C13276   5.835   1.781   6.959  0.2336 -0.1652  0.5416
   99MOL0     O13277   5.475   1.895   7.143 -0.3068  0.3835  0.4137
   99MOL0     C13278   5.509   1.922   7.432 -0.9573  0.0414  0.5716
   99MOL0     C13279   5.533   1.977   7.562  0.0280 -0.2151  1.0644
   99MOL0     N13280   5.205   2.621   7.874 -0.7597 -0.5414 -0.1461
   99MOL0     N13281   5.084   2.638   7.835  0.0790 -0.4092 -0.5104
   99MOL0     C13282   5.619   2.577   7.022 -0.2150  0.9164  0.3317
   99MOL0     C13283   5.605   2.472   6.934 -0.4311  0.4947  0.5107
   99MOL0     C13284   5.340   2.126   6.785 -0.6037  1.0968  0.7342
   99MOL0     C13285   5.314   2.009   6.857 -1.0359  0.2816  0.2922
   99MOL0     C13286   5.260   1.896   6.799  0.0808 -0.2615  0.1967
   99MOL0     C13287   5.231   1.889   6.667  0.3520  0.3314 -0.7614
   99MOL0     O13288   5.188   1.768   6.616 -0.0439  0.2253 -0.4524
   99MOL0     C13289   5.150   1.743   6.480  0.0721  0.8745 -0.0646
   99MOL0     C13290   5.267   1.736   6.381  0.0635 -0.9466  0.8413
   99MOL0     C13291   5.247   1.741   6.231  0.0956  0.0827  0.4836
   99MOL0     C13292   5.177   1.627   6.163  0.2286  0.5551 -0.9070
   99MOL0     C13293   5.215   1.498   6.215  0.9870 -0.6805 -0.0426
   99MOL0     C13294   5.230   1.391   6.267  0.4784  0.1238 -0.0779
   99MOL0     C13295   5.254   2.009   6.581  0.4624  0.0689  0.0586
   99MOL0     C13296   5.304   2.126   6.647 -0.6569 -0.6976 -0.4456
   99MOL0     C13297   5.348   2.239   6.551  0.2678 -0.1513 -0.1339
   99MOL0     H13298   5.554   2.220   7.140  2.4277 -0.6373 -1.5817
   99MOL0     H13299   5.605   2.405   7.307 -1.3436  1.8087 -0.1944
   99MOL0     H13300   5.492   2.627   7.430 -1.2497  0.7647  0.6976
   99MOL0     H13301   5.453   2.773   7.337  2.2087  1.0279 -0.5685
   99MOL0     H13302   5.360   2.491   7.233  3.4162  0.2593 -0.8280
   99MOL0     H13303   5.309   2.648   7.178  0.6792  0.5039  1.5061
   99MOL0     H13304   5.224   2.721   7.385 -0.3081  0.1368  0.2815
   99MOL0     H13305   5.237   2.559   7.453 -0.5940  0.9569  1.1201
   99MOL0     H13306   5.096   2.568   7.194 -0.4147  1.3625  0.6217
   99MOL0     H13307   5.093   2.445   7.322  1.1631 -0.3636  0.9334
   99MOL0     H13308   4.926   2.704   7.332  0.4159  0.8486  2.5926
   99MOL0     H13309   4.889   2.541   7.316  0.5521 -0.2531  0.6188
   99MOL0     H13310   5.046   2.675   7.542  1.0213 -1.0673  0.0133
   99MOL0     H13311   4.870   2.682   7.531  0.8885  0.2671  1.7561
   99MOL0     H13312   5.035   2.425   7.550 -1.8847 -2.6928 -2.1641
   99MOL0     H13313   4.865   2.418   7.519 -0.8607 -0.9422  0.0026
   99MOL0     H13314   4.841   2.586   7.730  0.5098  1.1069 -1.7140
   99MOL0     H13315   4.856   2.422   7.765  0.4228  1.6342  1.1934
   99MOL0     H13316   5.102   2.313   7.841 -0.3474  0.4765  2.0090
   99MOL0     H13317   5.444   2.533   7.940  0.1896 -0.0159 -1.4705
   99MOL0     H13318   5.359   2.414   8.030 -0.5467  3.3665  0.9874
   99MOL0     H13319   5.373   2.255   7.856 -0.7661  0.6381  1.8999
   99MOL0     H13320   5.418   2.386   7.735  1.8580  1.0179  0.0838
   99MOL0     H13321   5.575   2.235   7.951  0.1392  2.3670  3.4883
   99MOL0     H13322   5.627   2.402   7.922 -2.2894  0.1877  0.3182
   99MOL0     H13323   5.772   2.240   7.795 -0.0645 -0.9766  0.1566
   99MOL0     H13324   5.693   2.330   7.674  2.1890 -0.9728 -0.8325
   99MOL0     H13325   5.779   2.202   7.483 -0.0578 -0.3232  0.0872
   99MOL0     H13326   5.745   2.082   7.251 -0.3972 -2.4806 -1.0624
   99MOL0     H13327   5.626   2.048   7.005  0.2827 -0.4251 -0.0721
   99MOL0     H13328   5.634   2.053   6.775 -1.1985  0.1235  3.6284
   99MOL0     H13329   5.604   1.979   6.571 -0.3341  4.5538 -0.5611
   99MOL0     H13330   5.722   2.080   6.501 -1.5860  1.0280  0.5288
   99MOL0     H13331   5.669   1.803   6.407  0.0773 -0.0288 -0.7863
   99MOL0     H13332   5.628   1.947   6.329 -0.2145  2.2343  0.8368
   99MOL0     H13333   5.923   1.877   6.386  1.4608  3.0408 -1.2473
   99MOL0     H13334   5.842   1.825   6.247 -4.3377 -1.3505  0.6577
   99MOL0     H13335   5.935   2.101   6.330 -1.7073  1.4121 -0.0935
   99MOL0     H13336   5.790   2.101   6.233  0.8103  0.0139 -0.8031
   99MOL0     H13337   5.904   1.990   6.054  1.4205  0.2436 -0.7678
   99MOL0     H13338   6.043   1.967   6.150  1.3990  0.4436 -1.0517
   99MOL0     H13339   6.078   2.228   6.171  0.8148 -1.0868  1.0055
   99MOL0     H13340   6.113   2.167   6.032  1.1485 -1.3479  1.8855
   99MOL0     H13341   5.979   2.381   6.044  1.1949 -0.1600  0.9014
   99MOL0     H13342   5.835   2.308   6.096  1.5483  0.5878  0.6452
   99MOL0     H13343   5.831   2.351   5.858 -2.3890 -0.6292  1.8755
   99MOL0     H13344   5.958   2.230   5.830  0.4948  2.2032  0.5169
   99MOL0     H13345   5.949   1.763   6.772  0.7876  3.3657 -1.7966
   99MOL0     H13346   5.888   1.702   7.011  2.2811  0.8281  0.0560
   99MOL0     H13347   5.444   1.835   7.426 -0.8870  0.0832 -1.5707
   99MOL0     H13348   5.462   1.946   7.637 -3.0372 -3.3978 -2.6773
   99MOL0     H13349   5.644   2.675   6.983 -0.2863  0.7311 -0.1874
   99MOL0     H13350   5.617   2.482   6.827 -0.3296 -1.1368  0.3399
   99MOL0     H13351   5.333   2.004   6.964 -0.8150 -0.1491  0.2351
   99MOL0     H13352   5.241   1.813   6.867  0.3297  0.1828  0.8173
   99MOL0     H13353   5.077   1.820   6.453 -2.8716 -0.8226  2.3978
   99MOL0     H13354   5.087   1.653   6.473  0.2218  0.8085 -0.5465
   99MOL0     H13355   5.324   1.645   6.404  0.8478 -1.0301 -1.1819
   99MOL0     H13356   5.333   1.822   6.393 -1.2258  0.2033  0.0180
   99MOL0     H13357   5.347   1.759   6.190  0.2352 -1.6935 -0.0294
   99MOL0     H13358   5.183   1.829   6.224 -2.5452 -1.6310  1.6138
   99MOL0     H13359   5.072   1.627   6.194  0.5186  2.7948  0.3265
   99MOL0     H13360   5.190   1.635   6.055 -0.2641  1.0723 -0.9349
   99MOL0     H13361   5.246   1.315   6.341 -1.2312  1.2091  1.4743
   99MOL0     H13362   5.229   2.012   6.475 -3.2014  2.2059  0.8464
   99MOL0     H13363   5.376   2.322   6.616 -0.2988 -0.9117  1.1192
   99MOL0     H13364   5.443   2.218   6.502  0.8998  0.3896  0.8241
   99MOL0     H13365   5.277   2.265   6.471 -0.7788  1.7101  1.3035
  100MOL0     O13366  11.220   2.117   8.265 -0.4969  1.1217 -0.1637
  100MOL0     C13367  11.134   2.194   8.292 -0.2574 -0.3026 -0.4479
  100MOL0     O13368  11.114   2.271   8.412 -0.2407  0.7259 -0.0151
  100MOL0     C13369  11.207   2.258   8.512 -0.0776 -0.3435 -0.4534
  100MOL0     C13370  11.259   2.133   8.552  0.5176  0.3016 -0.4166
  100MOL0     C13371  11.329   2.116   8.667 -0.4441 -0.3006  0.7543
  100MOL0     C13372  11.373   2.231   8.744 -0.0022 -0.3602  0.6979
  100MOL0     O13373  11.441   2.231   8.860  0.5207  0.5296  0.0742
  100MOL0     C13374  11.507   2.104   8.887  0.0315 -0.1235 -0.3110
  100MOL0     C13375  11.617   2.131   8.991 -0.0903  0.1624 -0.6686
  100MOL0     C13376  11.633   2.011   9.081  0.8455 -0.0653  0.6175
  100MOL0     C13377  11.752   2.037   9.172 -0.3184 -0.1597 -0.5762
  100MOL0     C13378  11.757   1.928   9.291 -0.2321 -0.5839  0.1621
  100MOL0     C13379  11.799   1.790   9.225  0.1401 -0.6386  0.6670
  100MOL0     C13380  11.817   1.686   9.329 -0.0823 -0.2506  0.4277
  100MOL0     C13381  11.838   1.544   9.274  0.1191 -0.1740  0.5637
  100MOL0     N13382  11.959   1.541   9.187  0.7434  0.0793  0.3901
  100MOL0     C13383  12.097   1.513   9.228  0.8060 -0.8302 -0.7812
  100MOL0     C13384  12.167   1.502   9.114 -0.0495 -0.1371 -0.3458
  100MOL0     C13385  12.305   1.451   9.104  0.0594 -0.2619  0.1053
  100MOL0     C13386  12.313   1.290   9.075  0.1657  0.3144 -0.6011
  100MOL0     C13387  12.257   1.246   8.938 -0.5874  0.8599 -0.0192
  100MOL0     C13388  12.376   1.250   8.836  0.9147  0.1272  0.6887
  100MOL0     O13389  12.475   1.143   8.856  0.0575  0.0324  0.3051
  100MOL0     C13390  12.565   1.126   8.754 -0.0842 -0.0875  0.8287
  100MOL0     C13391  12.658   1.026   8.786  1.0029  0.0968  0.3517
  100MOL0     C13392  12.766   0.989   8.700  0.0744 -1.4340  0.2913
  100MOL0     C13393  12.769   1.050   8.572 -0.2997  0.2080 -0.1206
  100MOL0     C13394  12.877   1.004   8.477 -0.2290 -0.2638 -0.0653
  100MOL0     O13395  12.873   1.059   8.356  0.2738 -0.5766 -0.4199
  100MOL0     C13396  12.958   1.018   8.260  0.2887 -0.0272  0.7073
  100MOL0     C13397  13.017   1.109   8.163  0.4839 -0.0902  0.1098
  100MOL0     C13398  13.120   1.063   8.075  1.2556 -0.2192  1.2360
  100MOL0     C13399  13.161   0.927   8.075  1.4804  0.1109  0.5971
  100MOL0     O13400  13.255   0.873   7.991 -0.0821 -0.4610 -0.1076
  100MOL0     C13401  13.361   0.963   7.950 -0.2405  0.3598 -0.2427
  100MOL0     C13402  13.474   0.877   7.903  0.7595  0.6551  0.2116
  100MOL0     C13403  13.577   0.960   7.846  0.4891 -0.5352 -0.2477
  100MOL0     C13404  13.694   0.867   7.803 -0.7506 -0.4762  0.3035
  100MOL0     C13405  13.819   0.951   7.755 -0.4041  0.3258  0.1411
  100MOL0     C13406  13.950   0.877   7.714  0.3418  0.1585  0.2557
  100MOL0     C13407  14.059   0.986   7.687  0.6825 -0.5549  0.8051
  100MOL0     C13408  14.185   0.935   7.639 -0.1686  0.5287  0.2507
  100MOL0    Cl13409  14.299   1.070   7.598 -0.4521 -0.2116  0.2071
  100MOL0     C13410  13.086   0.834   8.150  0.2444 -0.4932 -0.4592
  100MOL0     C13411  12.994   0.879   8.248  0.1772  0.6332  0.9343
  100MOL0     O13412  12.974   0.940   8.520  0.0215 -1.1244 -0.1462
  100MOL0     C13413  12.679   1.150   8.537  0.2704  0.5156  0.3201
  100MOL0     C13414  12.570   1.180   8.624 -0.2795  0.3164  0.1796
  100MOL0     N13415  12.085   1.531   9.005  0.0360 -0.1333  0.4490
  100MOL0     N13416  11.965   1.557   9.052  0.1524  0.2063 -0.5097
  100MOL0     C13417  11.333   2.360   8.700  0.3896  0.1144 -0.0833
  100MOL0     C13418  11.249   2.375   8.584 -0.1284  0.6031 -0.4530
  100MOL0     C13419  11.019   2.206   8.196 -0.6923  0.2591 -0.1523
  100MOL0     C13420  10.948   2.324   8.201 -0.3597 -0.8658 -0.3674
  100MOL0     C13421  10.843   2.354   8.120 -0.4708 -0.5607  0.3686
  100MOL0     C13422  10.798   2.265   8.025  0.3580  0.6762 -0.7027
  100MOL0     O13423  10.682   2.312   7.960  0.1625  0.4789  0.9286
  100MOL0     C13424  10.640   2.237   7.843 -0.5626 -0.4461  0.5004
  100MOL0     C13425  10.729   2.270   7.731  0.1114  0.5473 -0.4569
  100MOL0     C13426  10.663   2.387   7.662  0.5588 -0.5711 -0.1478
  100MOL0     C13427  10.759   2.450   7.550  0.4398  1.6036  0.0753
  100MOL0     C13428  10.844   2.547   7.612 -0.9898  0.3919 -0.6178
  100MOL0     C13429  10.922   2.606   7.684 -0.2954  0.4952  0.5642
  100MOL0     C13430  10.882   2.156   7.999  0.4159  0.4667  0.0890
  100MOL0     C13431  10.983   2.114   8.083 -1.0521 -0.0089  0.0602
  100MOL0     C13432  11.047   1.976   8.071  0.4621 -0.3107 -0.5620
  100MOL0     H13433  11.239   2.044   8.493 -0.1219  1.0994 -1.4360
  100MOL0     H13434  11.361   2.016   8.691 -0.5664 -0.6974 -0.6360
  100MOL0     H13435  11.448   2.026   8.937  4.0271 -3.1733  0.2400
  100MOL0     H13436  11.548   2.064   8.794  2.7937 -1.2904  1.2576
  100MOL0     H13437  11.594   2.215   9.057  0.7225 -0.5678  0.5986
  100MOL0     H13438  11.709   2.134   8.931  1.3318 -0.7584  1.3410
  100MOL0     H13439  11.644   1.919   9.024 -2.3688 -1.9015  2.6200
  100MOL0     H13440  11.541   2.008   9.141  2.2302  3.0259  3.2349
  100MOL0     H13441  11.845   2.036   9.115 -1.2586 -0.6357 -2.1680
  100MOL0     H13442  11.742   2.127   9.234  1.6025 -0.1158 -0.2872
  100MOL0     H13443  11.843   1.947   9.356 -1.8396  1.4781  1.8270
  100MOL0     H13444  11.667   1.919   9.353 -0.6972 -0.1124 -0.4290
  100MOL0     H13445  11.726   1.750   9.153 -1.4635 -1.4218  2.6427
  100MOL0     H13446  11.889   1.802   9.164 -0.2437 -3.3852 -0.5832
  100MOL0     H13447  11.729   1.694   9.394 -0.2702 -1.1421  0.2973
  100MOL0     H13448  11.905   1.702   9.391 -0.1063 -2.0859  1.0033
  100MOL0     H13449  11.846   1.468   9.353  1.6152 -0.8475 -0.1906
  100MOL0     H13450  11.748   1.519   9.215  0.8294  0.1636 -0.7000
  100MOL0     H13451  12.127   1.488   9.329 -0.0811  0.6164 -0.1368
  100MOL0     H13452  12.359   1.497   9.020  0.5924 -2.3417 -0.7614
  100MOL0     H13453  12.352   1.482   9.198 -2.1954 -0.1492  1.2553
  100MOL0     H13454  12.411   1.246   9.092  0.0229  0.3525  0.4170
  100MOL0     H13455  12.260   1.238   9.155  0.3421 -0.4140 -0.9561
  100MOL0     H13456  12.179   1.317   8.908  0.5643  2.1851  0.0006
  100MOL0     H13457  12.225   1.142   8.947 -2.1794  1.4090  1.2126
  100MOL0     H13458  12.436   1.342   8.833 -1.0008  1.5493  2.5460
  100MOL0     H13459  12.338   1.233   8.735  0.9392 -0.0921  0.7170
  100MOL0     H13460  12.643   0.987   8.887 -3.0080 -0.4119 -0.2985
  100MOL0     H13461  12.837   0.914   8.734 -0.0417 -1.3785  0.6703
  100MOL0     H13462  12.985   1.212   8.151 -4.7783 -1.5169 -0.6391
  100MOL0     H13463  13.143   1.128   7.990  1.4701  1.6738  2.6750
  100MOL0     H13464  13.318   1.008   7.860 -4.0389 -2.5088 -0.0976
  100MOL0     H13465  13.392   1.032   8.029 -0.6341  0.2546  0.0061
  100MOL0     H13466  13.516   0.831   7.994 -2.8792  2.1707  2.9276
  100MOL0     H13467  13.442   0.795   7.838  2.2490  0.0881  0.1526
  100MOL0     H13468  13.542   1.009   7.755 -1.2750  3.6167  2.3810
  100MOL0     H13469  13.602   1.048   7.905 -1.6259  1.7947 -2.5491
  100MOL0     H13470  13.645   0.815   7.720 -1.4669  1.0314 -0.2564
  100MOL0     H13471  13.727   0.805   7.886  1.5709 -0.1345 -0.2946
  100MOL0     H13472  13.847   1.023   7.832  0.3657 -0.7345  0.8787
  100MOL0     H13473  13.789   1.016   7.673 -0.7075  1.3576  1.0581
  100MOL0     H13474  13.976   0.817   7.802 -0.9825  0.8225  1.1273
  100MOL0     H13475  13.937   0.805   7.633 -0.1528  0.2103  0.2897
  100MOL0     H13476  14.071   1.039   7.782 -3.6976 -1.4703  2.1209
  100MOL0     H13477  14.017   1.052   7.610  0.8543 -0.2887  0.9385
  100MOL0     H13478  14.233   0.880   7.720 -1.3681 -2.3540 -0.8759
  100MOL0     H13479  14.171   0.859   7.562  0.5751  0.2906  0.3470
  100MOL0     H13480  13.103   0.728   8.133 -0.0411 -0.0043 -5.1599
  100MOL0     H13481  12.952   0.799   8.308 -1.7571  0.0323 -1.0888
  100MOL0     H13482  12.675   1.210   8.447 -2.5092 -1.3520 -0.9361
  100MOL0     H13483  12.504   1.261   8.592 -3.6161 -2.7354 -1.4430
  100MOL0     H13484  11.354   2.444   8.767 -0.2735 -0.6558  1.1260
  100MOL0     H13485  11.211   2.476   8.574  0.6763  1.1457  1.4863
  100MOL0     H13486  10.983   2.401   8.269 -1.7550 -0.2161 -0.3492
  100MOL0     H13487  10.786   2.446   8.128  1.1184  0.5203 -0.2156
  100MOL0     H13488  10.535   2.260   7.822  0.2642  3.6632 -0.1208
  100MOL0     H13489  10.641   2.128   7.854  1.2732 -0.6523 -1.1822
  100MOL0     H13490  10.756   2.192   7.659  1.5638  0.8250 -0.2503
  100MOL0     H13491  10.827   2.295   7.774 -0.4488 -0.5123  1.5387
  100MOL0     H13492  10.639   2.467   7.732  0.6515 -1.8897  1.4570
  100MOL0     H13493  10.576   2.358   7.601  1.1748  0.5909 -1.6549
  100MOL0     H13494  10.818   2.366   7.514 -2.3969 -0.7038  0.4405
  100MOL0     H13495  10.700   2.498   7.471  1.4298  1.4395 -0.7873
  100MOL0     H13496  10.990   2.657   7.749  1.9552  2.1086 -2.7269
  100MOL0     H13497  10.842   2.088   7.924  1.5278  2.4833 -2.4809
  100MOL0     H13498  10.979   1.920   8.006  0.8974  1.1117 -2.3010
  100MOL0     H13499  11.145   1.970   8.023  0.5121 -2.6591 -0.3154
  100MOL0     H13500  11.057   1.928   8.169 -1.4960  3.0137  1.4716
  101MOL0     O13501   2.319   8.416   0.599  0.9072  0.3674  0.1809
  101MOL0     C13502   2.235   8.394   0.504 -0.1994  1.4288  0.0306
  101MOL0     O13503   2.187   8.266   0.469  0.9681  0.0225 -0.4414
  101MOL0     C13504   2.274   8.164   0.491 -0.1016 -1.1221 -1.2418
  101MOL0     C13505   2.267   8.090   0.614  0.1612  0.1312 -0.3993
  101MOL0     C13506   2.365   7.997   0.639 -0.4766  0.0366 -0.4064
  101MOL0     C13507   2.466   7.967   0.545  0.2998  1.1477 -0.6653
  101MOL0     O13508   2.577   7.884   0.572  0.1104 -0.0731 -0.4211
  101MOL0     C13509   2.547   7.755   0.623 -0.1444  0.5609 -0.4762
  101MOL0     C13510   2.673   7.666   0.594  0.1942 -0.6292 -0.0415
  101MOL0     C13511   2.770   7.702   0.709  1.4154 -0.2180  0.0358
  101MOL0     C13512   2.918   7.660   0.686 -0.0721 -0.3849  0.3085
  101MOL0     C13513   3.008   7.775   0.639  0.1708  0.9332  0.5669
  101MOL0     C13514   2.956   7.856   0.519  0.3803 -0.7418  0.7726
  101MOL0     C13515   3.061   7.955   0.454 -0.3871  0.0914  0.4098
  101MOL0     C13516   3.014   8.014   0.325  0.5201 -0.4912 -0.1503
  101MOL0     N13517   3.098   8.128   0.298 -0.5131 -0.8267  0.3973
  101MOL0     C13518   3.045   8.241   0.234  1.1806  0.3787 -0.6788
  101MOL0     C13519   3.153   8.314   0.210 -0.5971 -0.6030 -0.4690
  101MOL0     C13520   3.124   8.452   0.132 -0.5083 -0.1863 -0.7302
  101MOL0     C13521   3.083   8.568   0.216  0.3197 -0.5687 -0.3974
  101MOL0     C13522   3.196   8.639   0.298 -0.1374  0.4173 -0.1038
  101MOL0     C13523   3.177   8.793   0.311 -0.0405 -0.5116 -0.0209
  101MOL0     O13524   3.070   8.836   0.387 -0.9454  0.6992  0.4562
  101MOL0     C13525   3.035   8.971   0.386 -0.7993  0.0848 -0.5791
  101MOL0     C13526   2.927   9.003   0.468  0.1564  1.4149  0.1144
  101MOL0     C13527   2.896   9.135   0.494  0.2241  0.4645 -0.6518
  101MOL0     C13528   2.952   9.236   0.416  0.3313  0.7733 -0.6270
  101MOL0     C13529   2.896   9.381   0.414 -0.4703  0.2669  0.8092
  101MOL0     O13530   2.799   9.399   0.494 -0.0629 -0.8073 -0.7010
  101MOL0     C13531   2.730   9.522   0.508  0.0719 -0.8458  0.3362
  101MOL0     C13532   2.661   9.535   0.631 -0.5657  0.3539  0.7426
  101MOL0     C13533   2.594   9.652   0.661 -0.8341 -0.3123 -0.6341
  101MOL0     C13534   2.589   9.760   0.571  0.4598  0.6640 -0.2046
  101MOL0     O13535   2.509   9.866   0.612 -0.4169  0.3445 -0.6483
  101MOL0     C13536   2.521   9.996   0.558 -0.1303  0.1631 -0.2093
  101MOL0     C13537   2.434  10.084   0.637  0.0771 -0.6938 -0.7674
  101MOL0     C13538   2.450  10.237   0.606 -0.1993  0.2823  0.0403
  101MOL0     C13539   2.316  10.316   0.621 -0.4767 -0.9784 -0.9126
  101MOL0     C13540   2.334  10.457   0.555 -0.2966  0.2716 -0.5864
  101MOL0     C13541   2.446  10.552   0.604  1.0093  0.9687  0.0233
  101MOL0     C13542   2.433  10.600   0.749 -0.8851 -0.0561 -0.4284
  101MOL0     C13543   2.548  10.566   0.838  0.3564 -0.3031 -0.3318
  101MOL0    Cl13544   2.519  10.664   0.979 -0.0894  0.9691 -0.0812
  101MOL0     C13545   2.645   9.752   0.441  0.1468 -0.2671  0.3438
  101MOL0     C13546   2.714   9.635   0.410 -0.5057  0.3854  0.2024
  101MOL0     O13547   2.954   9.463   0.341  0.2172 -0.4031 -0.1627
  101MOL0     C13548   3.062   9.200   0.341 -1.3880 -0.1156  0.9020
  101MOL0     C13549   3.111   9.070   0.326  0.2210 -0.4626 -0.0833
  101MOL0     N13550   3.262   8.257   0.271 -0.0394  0.6966  0.6896
  101MOL0     N13551   3.230   8.149   0.326  0.2764 -0.7457 -0.8556
  101MOL0     C13552   2.462   8.021   0.420  0.3369 -0.1998  0.4591
  101MOL0     C13553   2.369   8.131   0.396 -0.8434 -0.5836 -0.6533
  101MOL0     C13554   2.199   8.502   0.412 -0.2785  1.4738 -0.2881
  101MOL0     C13555   2.203   8.480   0.274 -0.2676 -0.1620 -0.2567
  101MOL0     C13556   2.179   8.593   0.185  1.0672  0.0733 -0.5727
  101MOL0     C13557   2.146   8.720   0.241 -0.2078 -0.4908 -0.2698
  101MOL0     O13558   2.132   8.827   0.154  0.0182 -0.0849 -0.0100
  101MOL0     C13559   2.258   8.908   0.152  0.7638 -0.2263 -0.1394
  101MOL0     C13560   2.346   8.855   0.035  0.0992  0.2852  0.0046
  101MOL0     C13561   2.271   8.875  -0.092  0.0719 -0.9698 -0.1425
  101MOL0     C13562   2.350   8.884  -0.220  0.1542  0.6136  0.1604
  101MOL0     C13563   2.439   8.776  -0.240 -0.6408  0.3269  0.0801
  101MOL0     C13564   2.512   8.685  -0.272  0.3824  0.2637 -0.5694
  101MOL0     C13565   2.141   8.733   0.380 -0.2511  0.6281  0.7696
  101MOL0     C13566   2.165   8.625   0.464  0.5576  0.2782  0.5577
  101MOL0     C13567   2.161   8.665   0.612 -0.9425  0.1673 -0.2101
  101MOL0     H13568   2.186   8.123   0.679 -1.6119 -0.5749 -2.1606
  101MOL0     H13569   2.381   7.941   0.731  0.3372 -1.0618 -1.1881
  101MOL0     H13570   2.529   7.760   0.731  0.6413 -1.7546 -0.1961
  101MOL0     H13571   2.455   7.719   0.575 -0.7154  0.5244  0.6202
  101MOL0     H13572   2.717   7.699   0.499  0.1685  0.4150  0.3000
  101MOL0     H13573   2.633   7.564   0.595 -0.4545 -0.3966 -1.0672
  101MOL0     H13574   2.733   7.639   0.790 -0.5188  0.0976 -0.5361
  101MOL0     H13575   2.762   7.804   0.747  1.9977 -0.4740  0.8529
  101MOL0     H13576   2.954   7.605   0.774 -1.4379 -0.3017  0.9411
  101MOL0     H13577   2.911   7.583   0.608 -0.5289  0.6243 -0.6716
  101MOL0     H13578   3.042   7.838   0.723  0.3517  1.1280  0.3486
  101MOL0     H13579   3.095   7.716   0.609 -2.5070 -1.4295 -3.5647
  101MOL0     H13580   2.941   7.791   0.433 -0.1206 -1.9672  1.7480
  101MOL0     H13581   2.871   7.915   0.554  1.3779  1.0363  0.2982
  101MOL0     H13582   3.145   7.889   0.429 -2.8261 -2.9762 -0.2879
  101MOL0     H13583   3.108   8.033   0.515  3.0264 -0.4184 -1.3043
  101MOL0     H13584   3.040   7.958   0.235  1.4880  1.4119 -1.1121
  101MOL0     H13585   2.905   8.024   0.327  0.0019 -3.9620 -2.3318
  101MOL0     H13586   2.940   8.248   0.208  0.9512  0.6670  0.2818
  101MOL0     H13587   3.213   8.481   0.075  2.1100 -0.2816  2.9579
  101MOL0     H13588   3.051   8.425   0.056 -0.5938  1.1593 -1.1586
  101MOL0     H13589   3.049   8.640   0.140  0.8290 -1.1008 -1.1445
  101MOL0     H13590   3.000   8.544   0.282  0.4354  0.2188  0.0475
  101MOL0     H13591   3.295   8.603   0.268 -1.1117  0.0568 -3.2317
  101MOL0     H13592   3.191   8.604   0.402 -2.1621 -0.7429 -0.5539
  101MOL0     H13593   3.163   8.832   0.209 -0.3940  0.1377  0.2729
  101MOL0     H13594   3.271   8.834   0.346  0.9891 -1.9268 -0.9953
  101MOL0     H13595   2.867   8.931   0.523  0.6289 -0.2883 -1.4859
  101MOL0     H13596   2.824   9.164   0.569 -0.1450 -1.5994 -0.1410
  101MOL0     H13597   2.664   9.455   0.703 -0.2802  0.1563  0.5108
  101MOL0     H13598   2.554   9.647   0.762  0.8709 -0.9283  0.0619
  101MOL0     H13599   2.626  10.019   0.543 -0.3220 -0.6348 -3.4721
  101MOL0     H13600   2.476  10.007   0.459  0.5293 -1.6848 -0.7582
  101MOL0     H13601   2.329  10.057   0.628 -0.8456  2.8746 -2.5870
  101MOL0     H13602   2.472  10.065   0.738 -2.4454 -2.6386 -0.0992
  101MOL0     H13603   2.520  10.288   0.672  0.3866  3.3087 -2.6986
  101MOL0     H13604   2.490  10.249   0.505  0.5471 -0.8373  0.1756
  101MOL0     H13605   2.285  10.326   0.725  0.1673 -2.3379 -0.5758
  101MOL0     H13606   2.234  10.260   0.575 -1.1555  0.3692 -1.4264
  101MOL0     H13607   2.246  10.519   0.574 -2.1158 -2.4329  0.5224
  101MOL0     H13608   2.335  10.448   0.446  1.6903 -1.5184 -0.4815
  101MOL0     H13609   2.545  10.513   0.581 -0.4227 -1.6348 -2.4773
  101MOL0     H13610   2.431  10.636   0.535  3.6645  2.0773  0.6784
  101MOL0     H13611   2.342  10.561   0.797 -1.3171 -0.9951 -1.9312
  101MOL0     H13612   2.431  10.709   0.740 -0.9316 -0.2345 -3.6818
  101MOL0     H13613   2.560  10.462   0.870 -0.5214 -0.3028  0.0287
  101MOL0     H13614   2.645  10.607   0.806  0.8885  0.9519  2.4859
  101MOL0     H13615   2.636   9.826   0.362 -1.7916 -1.0971 -0.2648
  101MOL0     H13616   2.748   9.619   0.308 -1.5757 -0.0485 -0.1047
  101MOL0     H13617   3.126   9.279   0.304 -2.1599  1.4835  2.8300
  101MOL0     H13618   3.201   9.042   0.273  1.4916 -1.8002  2.5595
  101MOL0     H13619   2.535   8.006   0.340  1.1292 -0.2874  1.1822
  101MOL0     H13620   2.374   8.167   0.294 -0.4969 -1.2379 -0.8730
  101MOL0     H13621   2.228   8.382   0.234 -0.2064 -0.7790  1.2510
  101MOL0     H13622   2.181   8.574   0.078 -0.2478 -3.4529 -0.0929
  101MOL0     H13623   2.312   8.905   0.248 -0.6571  0.4385  0.7191
  101MOL0     H13624   2.228   9.014   0.146  1.4925 -0.0145 -0.1201
  101MOL0     H13625   2.397   8.758   0.043  0.8329  0.6797  0.2339
  101MOL0     H13626   2.426   8.929   0.047 -2.3384  3.1987 -0.3498
  101MOL0     H13627   2.218   8.971  -0.095 -0.8788 -1.4940 -0.5626
  101MOL0     H13628   2.192   8.805  -0.120  0.0064  0.0831 -2.9184
  101MOL0     H13629   2.280   8.888  -0.304 -3.0225  0.4139  2.5816
  101MOL0     H13630   2.396   8.983  -0.213 -0.8941  1.2693 -1.6316
  101MOL0     H13631   2.588   8.611  -0.289  1.2186  0.2507  2.6627
  101MOL0     H13632   2.115   8.827   0.428 -3.3129 -1.3897  3.5462
  101MOL0     H13633   2.083   8.743   0.611 -2.3744 -1.0423 -4.1926
  101MOL0     H13634   2.141   8.579   0.676  2.4401 -1.8295 -1.6178
  101MOL0     H13635   2.263   8.699   0.631 -0.9982  0.5992 -0.6550
  102MOL0     O13636   0.910  11.195   8.564  0.2115 -0.2962  0.0805
  102MOL0     C13637   1.028  11.172   8.565 -0.1095  0.8972 -0.7310
  102MOL0     O13638   1.100  11.162   8.683  0.1795  0.8022 -1.0228
  102MOL0     C13639   1.035  11.177   8.809  0.2314  0.7108 -0.6877
  102MOL0     C13640   1.041  11.291   8.882  0.4522  0.7707 -0.9109
  102MOL0     C13641   0.956  11.314   8.994  0.4525 -0.2675  0.6456
  102MOL0     C13642   0.876  11.207   9.035  0.7458  0.1537 -0.0981
  102MOL0     O13643   0.806  11.223   9.153 -0.7810  0.2017  0.0951
  102MOL0     C13644   0.710  11.119   9.182  1.3716  0.2271  0.5410
  102MOL0     C13645   0.579  11.133   9.090 -0.5230  0.6235 -1.3197
  102MOL0     C13646   0.493  11.252   9.128 -0.0701 -0.0174  0.4718
  102MOL0     C13647   0.355  11.241   9.063 -0.1138  0.2088 -0.5549
  102MOL0     C13648   0.270  11.368   9.054 -0.4242 -0.0326  0.1795
  102MOL0     C13649   0.241  11.424   9.197 -0.2179 -0.1756  0.3279
  102MOL0     C13650   0.129  11.528   9.198  0.8471  0.0597  0.9156
  102MOL0     C13651   0.073  11.534   9.339  0.7959  0.2377 -0.7085
  102MOL0     N13652  -0.038  11.633   9.357 -0.3181 -0.4785  0.2527
  102MOL0     C13653  -0.173  11.595   9.372 -0.9246 -0.6553  0.2456
  102MOL0     C13654  -0.247  11.706   9.324  0.0934  0.0660  0.1810
  102MOL0     C13655  -0.398  11.730   9.316 -0.0554  0.1416 -0.0304
  102MOL0     C13656  -0.438  11.819   9.207  0.8281 -1.1469 -0.8259
  102MOL0     C13657  -0.474  11.740   9.082 -0.2417 -0.3564 -0.1182
  102MOL0     C13658  -0.388  11.614   9.044  0.3376 -0.2544 -0.3280
  102MOL0     O13659  -0.429  11.567   8.915 -0.5004  1.0429  0.1493
  102MOL0     C13660  -0.331  11.504   8.840 -0.6915 -0.0247 -0.9991
  102MOL0     C13661  -0.340  11.532   8.702 -0.1994  0.3147  0.1585
  102MOL0     C13662  -0.237  11.493   8.617  1.5615 -0.4776  0.0848
  102MOL0     C13663  -0.132  11.419   8.666 -0.2332  0.0390  0.6534
  102MOL0     C13664  -0.016  11.385   8.574 -0.3596  0.5736 -1.3138
  102MOL0     O13665  -0.018  11.419   8.442  0.5946 -1.1514  0.0255
  102MOL0     C13666   0.101  11.463   8.393  0.1714 -0.7549  0.4536
  102MOL0     C13667   0.101  11.462   8.245  0.1524  0.4557 -0.1395
  102MOL0     C13668   0.211  11.504   8.178  0.1461  0.1018 -0.1443
  102MOL0     C13669   0.321  11.553   8.248  0.6003 -1.0324  0.0857
  102MOL0     O13670   0.437  11.603   8.181 -0.0190  1.0231 -0.4997
  102MOL0     C13671   0.466  11.564   8.044  0.6374  0.2923  1.1375
  102MOL0     C13672   0.618  11.530   8.027  0.2006 -0.2204  0.3538
  102MOL0     C13673   0.667  11.515   7.882 -0.2766 -0.1969 -0.2008
  102MOL0     C13674   0.663  11.647   7.790  0.5189  0.5427 -0.3705
  102MOL0     C13675   0.725  11.616   7.661  0.1040  0.4518 -0.5862
  102MOL0     C13676   0.678  11.715   7.561  0.3195  0.5503  0.2047
  102MOL0     C13677   0.752  11.691   7.429  0.0758  0.6472 -0.1998
  102MOL0     C13678   0.695  11.744   7.299  1.0633 -0.6762  1.0236
  102MOL0    Cl13679   0.570  11.649   7.218  0.2946  0.3377  0.2661
  102MOL0     C13680   0.327  11.547   8.383 -0.0673  0.3807  0.6780
  102MOL0     C13681   0.218  11.514   8.459  0.5725  0.7173  0.0440
  102MOL0     O13682   0.079  11.322   8.630  0.1069  0.6637  0.9826
  102MOL0     C13683  -0.123  11.390   8.800  0.4386  0.1662 -0.1484
  102MOL0     C13684  -0.218  11.435   8.891  0.2771  0.0847  0.9119
  102MOL0     N13685  -0.157  11.801   9.286 -1.0477  0.5495 -0.3761
  102MOL0     N13686  -0.031  11.760   9.304  0.0666 -0.8014 -0.4474
  102MOL0     C13687   0.876  11.083   8.966  0.5861 -0.8311  0.0725
  102MOL0     C13688   0.957  11.070   8.853 -0.2744  1.0493 -0.0285
  102MOL0     C13689   1.095  11.139   8.435  0.5199 -0.1785  0.2792
  102MOL0     C13690   1.200  11.049   8.445 -0.2680 -0.7750 -0.0472
  102MOL0     C13691   1.262  11.010   8.334 -0.0916  0.3855  0.3127
  102MOL0     C13692   1.215  11.035   8.208  0.5228 -0.0431 -0.1057
  102MOL0     O13693   1.279  10.992   8.089 -0.3438 -0.2587  0.4703
  102MOL0     C13694   1.418  10.946   8.087  0.2413  0.0408 -0.2614
  102MOL0     C13695   1.529  11.050   8.091  1.0064 -0.2972  0.7360
  102MOL0     C13696   1.502  11.164   8.003  0.2852 -0.7076  0.3334
  102MOL0     C13697   1.490  11.117   7.853  0.1283  0.5647 -0.9599
  102MOL0     C13698   1.538  11.222   7.766  0.6937 -0.4258 -1.0962
  102MOL0     C13699   1.584  11.306   7.690 -1.6471 -0.0823 -0.0083
  102MOL0     C13700   1.104  11.117   8.191  0.3653 -0.8506 -0.7666
  102MOL0     C13701   1.052  11.182   8.304 -0.1239  0.6114 -0.6945
  102MOL0     C13702   0.931  11.267   8.279 -0.1270  0.7635 -0.6776
  102MOL0     H13703   1.100  11.379   8.861 -2.3528  3.3688  1.1411
  102MOL0     H13704   0.963  11.397   9.063  2.2822 -0.4822  0.7488
  102MOL0     H13705   0.756  11.020   9.190  2.6715  0.8237  0.5670
  102MOL0     H13706   0.682  11.153   9.282  1.3516 -3.3880  1.9043
  102MOL0     H13707   0.516  11.045   9.104  0.1537 -0.2989 -3.6108
  102MOL0     H13708   0.600  11.132   8.983  2.0526  0.9992 -0.8843
  102MOL0     H13709   0.548  11.338   9.087  0.1889  1.0346  2.8487
  102MOL0     H13710   0.499  11.263   9.237  0.7613  1.5995  0.3013
  102MOL0     H13711   0.370  11.196   8.964 -2.2579 -0.4751 -0.6218
  102MOL0     H13712   0.292  11.181   9.129  0.1997 -1.6714 -1.8970
  102MOL0     H13713   0.322  11.448   8.999 -1.0692  2.1660  2.5924
  102MOL0     H13714   0.175  11.347   9.004 -0.2570  1.7629 -1.0055
  102MOL0     H13715   0.211  11.340   9.260  1.3060 -1.0903 -0.1043
  102MOL0     H13716   0.337  11.462   9.233  0.6099 -1.3257 -0.5918
  102MOL0     H13717   0.044  11.500   9.135  2.6069 -0.8789 -1.1644
  102MOL0     H13718   0.169  11.623   9.159  0.5634 -0.5130 -0.8544
  102MOL0     H13719   0.049  11.440   9.391  0.6097  0.7950  0.2439
  102MOL0     H13720   0.151  11.573   9.405 -1.3634  2.5606  0.6439
  102MOL0     H13721  -0.210  11.501   9.412 -1.0026 -0.4559  0.6456
  102MOL0     H13722  -0.444  11.631   9.309  1.3075 -0.9737  3.9506
  102MOL0     H13723  -0.436  11.771   9.409  0.1057 -1.3086  0.7098
  102MOL0     H13724  -0.523  11.878   9.242  1.1113 -2.0405  1.5519
  102MOL0     H13725  -0.362  11.895   9.183  0.3128  0.3050  1.7915
  102MOL0     H13726  -0.471  11.813   9.000 -1.2919  0.1615  0.2964
  102MOL0     H13727  -0.579  11.717   9.099  0.1199 -0.3997  2.4073
  102MOL0     H13728  -0.395  11.542   9.127 -1.7788  2.5803  2.1639
  102MOL0     H13729  -0.285  11.649   9.031  0.1365 -0.2392 -2.1178
  102MOL0     H13730  -0.413  11.605   8.669  1.8141  2.7654  0.8685
  102MOL0     H13731  -0.242  11.532   8.515  0.8418  1.8621  0.9576
  102MOL0     H13732   0.007  11.431   8.200  0.0055  0.1124  0.3897
  102MOL0     H13733   0.200  11.486   8.072 -0.9777 -0.0413 -0.0244
  102MOL0     H13734   0.403  11.478   8.021  0.9694  0.0021  1.2980
  102MOL0     H13735   0.437  11.641   7.972  0.1037 -0.0059  1.0236
  102MOL0     H13736   0.676  11.612   8.071  1.8230 -0.5580 -1.0231
  102MOL0     H13737   0.635  11.438   8.084  1.0222 -0.3121 -0.0128
  102MOL0     H13738   0.759  11.458   7.865 -0.4308 -0.9512  1.3462
  102MOL0     H13739   0.594  11.445   7.840 -1.1256 -1.0819  2.5618
  102MOL0     H13740   0.712  11.726   7.848  1.7009  0.9390 -1.8628
  102MOL0     H13741   0.559  11.673   7.769  0.0133 -1.2612 -0.2745
  102MOL0     H13742   0.695  11.518   7.624 -0.2497  0.4486 -0.2899
  102MOL0     H13743   0.835  11.616   7.662  0.1411 -0.4140 -1.8863
  102MOL0     H13744   0.572  11.703   7.538  0.7072 -2.9413 -0.3827
  102MOL0     H13745   0.701  11.814   7.599  1.9587  1.2380 -2.2949
  102MOL0     H13746   0.766  11.584   7.412 -3.7808  0.2493 -1.8123
  102MOL0     H13747   0.845  11.747   7.443  0.5161  0.2144 -1.2848
  102MOL0     H13748   0.645  11.838   7.319  0.9711 -0.2795 -0.8692
  102MOL0     H13749   0.780  11.773   7.236  0.8985  0.4155  1.2888
  102MOL0     H13750   0.421  11.583   8.424 -0.9290  0.7424  2.4205
  102MOL0     H13751   0.226  11.514   8.567  1.6515  0.6252 -0.0222
  102MOL0     H13752  -0.033  11.345   8.839  0.3382  0.5929  0.5912
  102MOL0     H13753  -0.228  11.420   8.998 -1.9886  3.2448  1.2879
  102MOL0     H13754   0.822  10.992   8.993  1.7119 -1.4572  0.2617
  102MOL0     H13755   0.970  10.975   8.801  0.2554  1.8502 -1.4032
  102MOL0     H13756   1.239  11.013   8.539  1.8274  0.8435 -0.2338
  102MOL0     H13757   1.350  10.947   8.342 -0.4465 -0.0924  0.5158
  102MOL0     H13758   1.424  10.896   7.990  0.1706 -1.0627  0.2873
  102MOL0     H13759   1.434  10.876   8.170 -1.1942 -0.1767 -0.1384
  102MOL0     H13760   1.630  11.015   8.069  0.5151  0.1446 -2.7092
  102MOL0     H13761   1.525  11.096   8.190 -1.3125  0.7358  0.2321
  102MOL0     H13762   1.588  11.231   8.010 -0.6582  1.4275 -4.3588
  102MOL0     H13763   1.410  11.218   8.027  0.8957  0.4449  0.1356
  102MOL0     H13764   1.550  11.032   7.820 -1.3027  0.3182 -3.0839
  102MOL0     H13765   1.385  11.089   7.843  0.7430 -1.1993 -3.0698
  102MOL0     H13766   1.628  11.367   7.614  1.1634 -1.0280  0.7296
  102MOL0     H13767   1.045  11.114   8.100 -3.4411 -1.0293  1.4699
  102MOL0     H13768   0.929  11.342   8.359  2.0579  2.8675 -2.4280
  102MOL0     H13769   0.933  11.314   8.180 -0.4859  0.3636 -0.8808
  102MOL0     H13770   0.848  11.197   8.293  1.3059 -0.3549  4.0294
  103MOL0     O13771   6.687  10.841   8.766  0.2898 -0.4144 -0.9834
  103MOL0     C13772   6.729  10.735   8.729  0.2897  0.8402  0.7992
  103MOL0     O13773   6.853  10.688   8.766  0.8609  0.0793 -0.2392
  103MOL0     C13774   6.922  10.770   8.857 -0.4538  0.6676  0.9775
  103MOL0     C13775   6.892  10.791   8.996  0.2746  0.3689  0.0361
  103MOL0     C13776   6.983  10.853   9.085 -0.5215  0.3840  0.9906
  103MOL0     C13777   7.103  10.898   9.025 -0.3300 -0.5201  0.0089
  103MOL0     O13778   7.171  10.981   9.113  0.0924  0.0763  0.1783
  103MOL0     C13779   7.243  11.091   9.050  0.3509 -0.0290  0.0988
  103MOL0     C13780   7.387  11.101   9.102  0.1610  0.1245  0.1608
  103MOL0     C13781   7.450  11.235   9.069 -0.2711  0.8314  0.0347
  103MOL0     C13782   7.389  11.358   9.144  0.0102  0.5773  0.3891
  103MOL0     C13783   7.491  11.479   9.135 -0.2118 -0.2793 -0.4304
  103MOL0     C13784   7.447  11.596   9.231  0.1094  0.2832  0.1994
  103MOL0     C13785   7.519  11.606   9.365  0.3312 -0.6269  0.3740
  103MOL0     C13786   7.663  11.648   9.348 -0.1349  0.0848  0.4009
  103MOL0     N13787   7.712  11.683   9.483  0.2998  0.0172  0.3260
  103MOL0     C13788   7.748  11.591   9.590 -0.5765  0.0458 -0.1552
  103MOL0     C13789   7.818  11.682   9.673 -0.0145  0.3110 -0.7657
  103MOL0     C13790   7.869  11.665   9.817 -0.3597  0.0060  0.3695
  103MOL0     C13791   7.764  11.593   9.903  0.3727 -0.1041 -0.6381
  103MOL0     C13792   7.823  11.553  10.042 -0.0394  0.3524 -0.4094
  103MOL0     C13793   7.720  11.471  10.127 -0.8692  0.1402  0.8824
  103MOL0     O13794   7.774  11.387  10.227 -0.5010 -0.1104 -0.3120
  103MOL0     C13795   7.850  11.436  10.333 -0.4418  0.2660 -0.6432
  103MOL0     C13796   7.818  11.559  10.395  0.3965 -0.6391  0.3083
  103MOL0     C13797   7.916  11.611  10.476 -0.2767 -0.3301 -0.5677
  103MOL0     C13798   8.033  11.538  10.511 -1.4449 -0.1639 -0.0899
  103MOL0     C13799   8.134  11.605  10.600 -0.0454  0.7436 -0.1698
  103MOL0     O13800   8.245  11.525  10.622 -0.5356  0.2648 -0.1738
  103MOL0     C13801   8.362  11.594  10.649  0.2081 -0.3118  0.3609
  103MOL0     C13802   8.429  11.659  10.543 -0.0404  0.4115 -0.8646
  103MOL0     C13803   8.547  11.724  10.567 -0.2521 -0.4454  0.3394
  103MOL0     C13804   8.595  11.740  10.706  0.9406 -0.9485  0.8398
  103MOL0     O13805   8.702  11.821  10.720  0.3328  0.0222  0.6436
  103MOL0     C13806   8.764  11.832  10.846 -0.2751  0.3503 -0.2212
  103MOL0     C13807   8.855  11.957  10.857 -0.7962  0.0959 -0.0814
  103MOL0     C13808   8.922  11.968  10.992 -0.2579 -0.0001 -0.1501
  103MOL0     C13809   9.012  12.097  11.014  0.3231  0.9566 -0.0545
  103MOL0     C13810   9.039  12.114  11.162  0.5822  0.1688  0.2718
  103MOL0     C13811   9.143  12.014  11.216  0.7251 -0.0386  0.4174
  103MOL0     C13812   9.186  12.068  11.354  0.0403  0.0766 -0.0336
  103MOL0     C13813   9.296  11.977  11.402 -0.3769  0.2372 -0.5238
  103MOL0    Cl13814   9.242  11.814  11.460  0.3265 -0.1167  0.1612
  103MOL0     C13815   8.523  11.675  10.809 -0.0333 -0.6455 -0.1948
  103MOL0     C13816   8.412  11.589  10.778 -1.0674  0.0961  0.2981
  103MOL0     O13817   8.110  11.716  10.641  0.0619  0.0815  0.7143
  103MOL0     C13818   8.052  11.413  10.460 -0.0250 -0.8587  0.6415
  103MOL0     C13819   7.962  11.364  10.367  0.6928 -0.2562  0.3570
  103MOL0     N13820   7.831  11.808   9.622 -0.2658  0.3592  1.8075
  103MOL0     N13821   7.754  11.807   9.515 -0.1039  1.2065 -0.2957
  103MOL0     C13822   7.141  10.864   8.898 -0.3629 -0.2443 -0.4693
  103MOL0     C13823   7.052  10.795   8.823  0.8913 -0.6381  0.0747
  103MOL0     C13824   6.652  10.662   8.623  0.7551  0.3503 -0.0328
  103MOL0     C13825   6.717  10.580   8.534 -0.3801 -0.9356 -1.1710
  103MOL0     C13826   6.664  10.514   8.430  0.0316  0.1113 -0.5501
  103MOL0     C13827   6.527  10.526   8.404 -0.1567  0.3360  0.2685
  103MOL0     O13828   6.462  10.459   8.301  0.1400  0.4222 -0.9808
  103MOL0     C13829   6.400  10.330   8.344 -0.0065  0.1216  0.0457
  103MOL0     C13830   6.498  10.214   8.342  0.3710 -0.6679  0.6927
  103MOL0     C13831   6.433  10.082   8.391 -0.2357  1.1719  0.7279
  103MOL0     C13832   6.523   9.955   8.413  0.6724 -1.1512  0.9791
  103MOL0     C13833   6.465   9.862   8.505  1.0702  0.2756  0.2423
  103MOL0     C13834   6.414   9.767   8.560  0.4272 -0.4966  0.0971
  103MOL0     C13835   6.449  10.602   8.487 -0.1945 -0.1079 -0.8002
  103MOL0     C13836   6.513  10.676   8.592  0.4657  0.2568  0.5656
  103MOL0     C13837   6.423  10.780   8.662  0.1631 -0.9065  0.0910
  103MOL0     H13838   6.796  10.754   9.033  0.1095  0.2030 -0.5487
  103MOL0     H13839   6.953  10.873   9.187  0.9881  0.6891  1.3982
  103MOL0     H13840   7.234  11.087   8.941 -3.4721 -3.4326  0.3082
  103MOL0     H13841   7.198  11.186   9.081 -1.4717 -0.0133 -2.2775
  103MOL0     H13842   7.446  11.015   9.069  2.1460  2.0955 -1.7741
  103MOL0     H13843   7.376  11.093   9.210  0.7610  0.4085  0.2487
  103MOL0     H13844   7.428  11.251   8.963 -1.7692  2.0579  0.4924
  103MOL0     H13845   7.554  11.216   9.099 -1.2912 -1.7741  2.2731
  103MOL0     H13846   7.293  11.392   9.104  0.1289 -3.3128 -4.0743
  103MOL0     H13847   7.380  11.337   9.251 -2.7360  1.3664  0.3934
  103MOL0     H13848   7.591  11.447   9.167 -0.5525  1.3709  2.7076
  103MOL0     H13849   7.495  11.508   9.030 -4.4343  0.9640 -0.4086
  103MOL0     H13850   7.436  11.695   9.187 -2.5734  0.1996  0.5432
  103MOL0     H13851   7.341  11.580   9.249 -1.7162  3.1986 -5.6002
  103MOL0     H13852   7.510  11.512   9.420  2.3812 -0.4004  1.1973
  103MOL0     H13853   7.465  11.681   9.424 -0.3970 -0.7377 -0.1435
  103MOL0     H13854   7.716  11.559   9.314 -0.9817 -0.5561  0.7303
  103MOL0     H13855   7.678  11.722   9.268 -2.0744  1.7056  1.4367
  103MOL0     H13856   7.713  11.489   9.594 -3.3792  0.6676 -3.8498
  103MOL0     H13857   7.960  11.607   9.802 -1.3325 -1.6854  0.7553
  103MOL0     H13858   7.896  11.761   9.861  0.6138 -0.6287  1.1922
  103MOL0     H13859   7.668  11.643   9.912  0.7217  0.3877  0.6384
  103MOL0     H13860   7.733  11.501   9.853 -2.9834  0.5302  0.0814
  103MOL0     H13861   7.842  11.637  10.110  2.5875 -1.8509  1.8202
  103MOL0     H13862   7.913  11.494  10.020  1.9674  1.8051  2.9635
  103MOL0     H13863   7.666  11.401  10.063 -1.2676  0.0272  1.3338
  103MOL0     H13864   7.653  11.547  10.170 -0.3569  2.0636 -1.4878
  103MOL0     H13865   7.724  11.613  10.389  0.4063 -0.2508  2.6748
  103MOL0     H13866   7.901  11.707  10.523 -0.6254  0.4755 -2.2859
  103MOL0     H13867   8.385  11.662  10.443 -0.5558  0.6507 -0.6312
  103MOL0     H13868   8.606  11.777  10.494 -2.7189 -0.2093 -1.5756
  103MOL0     H13869   8.683  11.832  10.920  0.0749 -4.4808  0.4972
  103MOL0     H13870   8.825  11.742  10.858  0.2163  0.6214 -0.6422
  103MOL0     H13871   8.939  11.936  10.791  0.3258 -2.9012  2.0759
  103MOL0     H13872   8.793  12.044  10.833 -1.3430  0.1643  1.4482
  103MOL0     H13873   8.838  11.966  11.063 -0.7435 -0.8972 -0.7272
  103MOL0     H13874   8.991  11.884  11.002  2.2617  1.9496 -0.2551
  103MOL0     H13875   8.955  12.185  10.984 -0.4390  0.8978  1.1682
  103MOL0     H13876   9.105  12.084  10.958  0.8970  1.9919  0.6412
  103MOL0     H13877   8.940  12.101  11.207  0.2819  0.1806 -0.3700
  103MOL0     H13878   9.060  12.217  11.192  0.7706 -0.2737  1.7253
  103MOL0     H13879   9.100  11.914  11.207 -0.8352  0.6673 -0.3380
  103MOL0     H13880   9.227  12.028  11.148 -0.8219 -0.7552 -1.7562
  103MOL0     H13881   9.108  12.063  11.430 -0.9785  2.1121 -0.8632
  103MOL0     H13882   9.220  12.172  11.352  2.5543 -0.6835 -1.6697
  103MOL0     H13883   9.355  11.961  11.311 -1.1860 -0.7820 -0.8813
  103MOL0     H13884   9.353  12.031  11.479 -0.8461  1.2404 -0.8643
  103MOL0     H13885   8.563  11.673  10.910 -2.6362  0.0092  0.9421
  103MOL0     H13886   8.367  11.520  10.849 -1.0498 -0.2427 -0.0186
  103MOL0     H13887   8.132  11.344  10.481  0.7385 -0.2476 -0.2018
  103MOL0     H13888   7.977  11.281  10.298  0.7963  1.1418 -1.4096
  103MOL0     H13889   7.233  10.903   8.854  0.5115 -0.9486  0.6946
  103MOL0     H13890   7.069  10.766   8.720 -1.8291 -0.8050 -0.3806
  103MOL0     H13891   6.825  10.571   8.544 -0.2804  1.2824  0.7680
  103MOL0     H13892   6.727  10.453   8.366  0.2947 -4.5086  3.5378
  103MOL0     H13893   6.326  10.315   8.264 -1.1585  1.0136  0.9069
  103MOL0     H13894   6.334  10.345   8.430  1.3907  1.1487  0.9838
  103MOL0     H13895   6.581  10.226   8.412 -1.0125  0.1194  2.2544
  103MOL0     H13896   6.541  10.208   8.241 -0.7088  0.8141  0.1092
  103MOL0     H13897   6.365  10.043   8.314  0.4643  1.3898 -0.0148
  103MOL0     H13898   6.380  10.113   8.482 -0.9159  0.9185  0.4230
  103MOL0     H13899   6.534   9.902   8.317 -2.5613 -0.9123  0.3402
  103MOL0     H13900   6.628   9.979   8.430  0.9388 -1.4838 -0.0588
  103MOL0     H13901   6.359   9.682   8.595 -0.6820  0.0629 -0.2447
  103MOL0     H13902   6.346  10.622   8.462 -0.2896 -1.1037 -1.2552
  103MOL0     H13903   6.450  10.786   8.768  0.7202  2.4638 -0.1403
  103MOL0     H13904   6.432  10.882   8.624 -4.5587  1.2284  3.6487
  103MOL0     H13905   6.318  10.753   8.648  0.4146 -2.0910  0.4178
  104MOL0     O13906   3.296   5.259   9.249 -0.2999 -0.7959  0.4278
  104MOL0     C13907   3.338   5.149   9.211 -1.2436  0.2249 -0.8734
  104MOL0     O13908   3.288   5.079   9.108  0.3795 -0.2543 -0.0578
  104MOL0     C13909   3.175   5.131   9.043 -0.1159 -0.1548 -0.1389
  104MOL0     C13910   3.072   5.049   9.017 -0.9351 -0.7941 -1.0399
  104MOL0     C13911   2.968   5.099   8.944  0.2795 -0.4798  0.5722
  104MOL0     C13912   2.967   5.236   8.894  0.5633 -0.2733  0.5574
  104MOL0     O13913   2.857   5.277   8.822  0.0592 -0.1714 -0.0876
  104MOL0     C13914   2.842   5.407   8.761 -0.2377  0.8909  0.0640
  104MOL0     C13915   2.701   5.409   8.703  0.5408  0.3773  0.2283
  104MOL0     C13916   2.659   5.545   8.675 -0.4107 -0.1762  0.8508
  104MOL0     C13917   2.738   5.614   8.561 -0.0115  0.5987  0.6598
  104MOL0     C13918   2.703   5.567   8.418  0.6385 -0.3924 -0.8112
  104MOL0     C13919   2.760   5.676   8.334 -0.1961  0.3758 -0.1702
  104MOL0     C13920   2.759   5.628   8.186  0.8260  0.4779 -0.3880
  104MOL0     C13921   2.619   5.607   8.124 -0.3765  1.1240 -0.6050
  104MOL0     N13922   2.605   5.587   7.983  0.0330  0.4007  0.4041
  104MOL0     C13923   2.657   5.485   7.908  0.0431 -0.4451  0.7996
  104MOL0     C13924   2.598   5.484   7.785 -0.5490 -0.6488 -0.2820
  104MOL0     C13925   2.605   5.366   7.689 -0.2016  0.0087 -0.0955
  104MOL0     C13926   2.525   5.390   7.553 -0.2064 -0.3043 -0.2706
  104MOL0     C13927   2.547   5.271   7.469  0.8695  0.2899  1.3325
  104MOL0     C13928   2.447   5.252   7.356  0.2786 -0.2459  0.9033
  104MOL0     O13929   2.454   5.108   7.308  0.4397 -0.1073 -0.8844
  104MOL0     C13930   2.342   5.027   7.329 -0.0320 -0.8170 -0.0761
  104MOL0     C13931   2.302   4.949   7.217 -0.2936 -0.5811  0.7667
  104MOL0     C13932   2.185   4.862   7.224  0.2044  0.1085 -0.4732
  104MOL0     C13933   2.115   4.862   7.347  0.3594 -0.9300 -0.8734
  104MOL0     C13934   2.006   4.759   7.370  0.3021 -0.0819 -0.0174
  104MOL0     O13935   1.956   4.685   7.266 -0.4729  0.2034 -0.4900
  104MOL0     C13936   1.881   4.579   7.299 -0.4150 -0.0159 -0.4898
  104MOL0     C13937   1.767   4.556   7.217  0.5141  0.0174 -0.4509
  104MOL0     C13938   1.685   4.444   7.236  0.5597  0.4047 -0.1922
  104MOL0     C13939   1.714   4.353   7.329 -0.0540 -0.9009 -0.3425
  104MOL0     O13940   1.626   4.252   7.355  1.4136  0.4044 -0.2848
  104MOL0     C13941   1.567   4.261   7.490  0.0474 -0.4471 -0.4226
  104MOL0     C13942   1.457   4.160   7.482 -0.1947 -0.4516 -1.0232
  104MOL0     C13943   1.345   4.187   7.372  0.4536  0.1935 -0.4750
  104MOL0     C13944   1.224   4.086   7.382  0.3502 -0.3932 -0.9371
  104MOL0     C13945   1.152   4.077   7.515 -0.8289  0.5180  0.2596
  104MOL0     C13946   1.020   4.010   7.503  0.2425 -0.1942 -0.1533
  104MOL0     C13947   0.952   4.004   7.638  0.3722 -0.0994 -0.5577
  104MOL0     C13948   0.825   3.926   7.625  0.4860  0.2753  0.0507
  104MOL0    Cl13949   0.709   4.009   7.521  0.0476  0.7301  0.0210
  104MOL0     C13950   1.840   4.369   7.397  0.5028  0.4211  0.0515
  104MOL0     C13951   1.919   4.478   7.386  0.5203  0.3075 -0.0458
  104MOL0     O13952   1.956   4.755   7.484  1.1447 -0.1910  0.1284
  104MOL0     C13953   2.143   4.959   7.444  0.0799  0.4775 -0.0153
  104MOL0     C13954   2.264   5.028   7.441 -0.9497 -0.1542 -0.7832
  104MOL0     N13955   2.522   5.602   7.789  0.4670  0.2522  0.2907
  104MOL0     N13956   2.522   5.658   7.901  0.6939  0.2561 -0.3766
  104MOL0     C13957   3.068   5.322   8.923 -0.6453 -0.6956 -0.1252
  104MOL0     C13958   3.177   5.266   8.989 -0.8349  0.4009 -1.2739
  104MOL0     C13959   3.446   5.093   9.302 -0.3045  0.1854  1.2798
  104MOL0     C13960   3.475   4.953   9.298 -0.2218 -0.1846  0.1734
  104MOL0     C13961   3.577   4.898   9.379  0.7376 -0.4774  0.4522
  104MOL0     C13962   3.658   4.971   9.458 -0.7738  1.2301 -0.1426
  104MOL0     O13963   3.756   4.899   9.532  0.0598  0.2265  0.0003
  104MOL0     C13964   3.845   4.946   9.635  0.0719  0.2773 -0.6553
  104MOL0     C13965   3.895   4.841   9.731  0.1253  0.8592  0.9483
  104MOL0     C13966   4.023   4.895   9.793  0.1912 -0.3320 -0.1480
  104MOL0     C13967   4.050   4.828   9.928  0.0495  0.5565  0.4518
  104MOL0     C13968   4.071   4.683   9.910 -0.0493 -0.6162 -0.4886
  104MOL0     C13969   4.110   4.588   9.853 -0.3618  0.2548 -0.3151
  104MOL0     C13970   3.635   5.108   9.459  0.6632  0.0831 -0.8088
  104MOL0     C13971   3.527   5.167   9.391  0.7158  0.4991 -1.0805
  104MOL0     C13972   3.513   5.318   9.421 -0.2804 -0.5154  0.8030
  104MOL0     H13973   3.062   4.948   9.055 -1.4772 -0.0191  0.9771
  104MOL0     H13974   2.883   5.035   8.924 -0.6224 -0.5082  3.9864
  104MOL0     H13975   2.854   5.486   8.836 -1.2402 -1.3329  2.7530
  104MOL0     H13976   2.907   5.423   8.675  2.0711  1.0389  1.7686
  104MOL0     H13977   2.638   5.364   8.781 -2.2471  4.1054  0.4438
  104MOL0     H13978   2.689   5.357   8.608 -1.1777  1.0939  0.0031
  104MOL0     H13979   2.671   5.608   8.764  0.6297 -0.4432  0.9189
  104MOL0     H13980   2.551   5.543   8.658 -0.3976  0.9743  0.5554
  104MOL0     H13981   2.704   5.718   8.563  2.1346  1.3438  0.8011
  104MOL0     H13982   2.844   5.623   8.588  0.8862 -3.8262 -0.5912
  104MOL0     H13983   2.741   5.467   8.400  2.6792 -0.0906  1.3062
  104MOL0     H13984   2.594   5.567   8.421  0.5826  2.4395  0.3942
  104MOL0     H13985   2.694   5.762   8.345  0.8076  1.0003  1.3012
  104MOL0     H13986   2.863   5.704   8.356 -0.4411  1.7243 -0.6455
  104MOL0     H13987   2.815   5.537   8.161 -1.0334 -0.4713 -1.3571
  104MOL0     H13988   2.819   5.698   8.128  2.7065  0.1471  1.0726
  104MOL0     H13989   2.579   5.522   8.180  1.2489  1.7961  1.7110
  104MOL0     H13990   2.560   5.692   8.159  1.1300  1.9607 -0.0315
  104MOL0     H13991   2.725   5.410   7.947 -1.6598 -1.7830  1.3040
  104MOL0     H13992   2.712   5.351   7.670 -0.1552 -1.7308  1.3015
  104MOL0     H13993   2.571   5.276   7.740  4.8580 -2.0051  0.3294
  104MOL0     H13994   2.418   5.390   7.577  0.2218 -0.9396  1.8703
  104MOL0     H13995   2.564   5.479   7.502  1.2650 -1.6248 -1.5352
  104MOL0     H13996   2.554   5.187   7.538 -2.0906  0.2021  1.6318
  104MOL0     H13997   2.648   5.291   7.430 -0.2839  0.3494 -1.8706
  104MOL0     H13998   2.457   5.327   7.277 -3.5347  1.9936  2.2661
  104MOL0     H13999   2.346   5.267   7.394 -0.5591  0.2132 -1.3623
  104MOL0     H14000   2.361   4.947   7.126  0.4938 -0.8596  1.2747
  104MOL0     H14001   2.162   4.788   7.149  2.0556 -1.7871  0.7046
  104MOL0     H14002   1.743   4.630   7.142 -0.8189  0.9821  0.8689
  104MOL0     H14003   1.590   4.431   7.187 -1.1214 -1.0307  3.1483
  104MOL0     H14004   1.646   4.229   7.560  2.0773 -0.8920 -2.7851
  104MOL0     H14005   1.544   4.367   7.498  3.3665  0.6227 -2.9769
  104MOL0     H14006   1.498   4.061   7.458 -1.3874 -1.6920  1.7068
  104MOL0     H14007   1.412   4.149   7.581  2.8452  1.7273  0.7893
  104MOL0     H14008   1.293   4.281   7.394 -0.5474 -0.9149  2.2986
  104MOL0     H14009   1.390   4.198   7.273 -0.3995  0.1720 -0.8719
  104MOL0     H14010   1.276   3.991   7.363  2.2694  0.2049  0.8555
  104MOL0     H14011   1.149   4.116   7.309 -0.3989  4.8254  1.5110
  104MOL0     H14012   1.149   4.178   7.556 -0.0702  1.9644 -2.9246
  104MOL0     H14013   1.212   4.030   7.594  0.5655 -0.2580 -1.1975
  104MOL0     H14014   0.966   4.081   7.440  0.8863 -1.1521 -1.8420
  104MOL0     H14015   1.027   3.911   7.459  0.9780  0.1853 -0.9137
  104MOL0     H14016   0.932   4.102   7.681 -0.6918 -0.1305 -0.9663
  104MOL0     H14017   1.001   3.937   7.710 -0.6306 -1.8832 -1.4735
  104MOL0     H14018   0.851   3.828   7.584  2.1614  1.1966 -1.2524
  104MOL0     H14019   0.788   3.919   7.728  2.3266 -2.1761  0.6377
  104MOL0     H14020   1.874   4.291   7.465 -3.1417 -0.4605  1.0640
  104MOL0     H14021   2.007   4.487   7.449 -0.0137 -1.1163  0.9610
  104MOL0     H14022   2.086   4.962   7.537  1.5641 -0.6480  0.9798
  104MOL0     H14023   2.274   5.085   7.533  0.1939  0.5975 -1.3544
  104MOL0     H14024   3.083   5.425   8.894  0.6348 -1.2656 -1.6232
  104MOL0     H14025   3.265   5.325   9.015 -0.8201 -0.3862  0.6784
  104MOL0     H14026   3.410   4.897   9.232 -1.1182  0.3154  0.6100
  104MOL0     H14027   3.594   4.793   9.363  3.6513  0.1477 -1.2014
  104MOL0     H14028   3.789   5.015   9.697  0.3234  0.2891 -0.4423
  104MOL0     H14029   3.928   5.002   9.590  0.2209  1.4248  0.9860
  104MOL0     H14030   3.924   4.750   9.677  3.3221  2.1977  0.2009
  104MOL0     H14031   3.816   4.834   9.806 -0.9742  1.3721 -0.1358
  104MOL0     H14032   4.016   5.004   9.804 -1.2702 -0.6404  3.0454
  104MOL0     H14033   4.109   4.867   9.730  1.8704 -0.9931  2.3121
  104MOL0     H14034   4.136   4.871   9.979 -0.4783  3.2791 -0.8078
  104MOL0     H14035   3.967   4.828  10.000  0.3557 -1.3821  0.8691
  104MOL0     H14036   4.153   4.501   9.808 -0.9566 -0.3671  0.3071
  104MOL0     H14037   3.706   5.162   9.520 -3.0226  0.6689  3.4743
  104MOL0     H14038   3.596   5.360   9.478 -2.2178  2.6423  1.5800
  104MOL0     H14039   3.503   5.371   9.326 -1.6420  0.2006  1.3110
  104MOL0     H14040   3.413   5.334   9.462 -0.5664 -1.4460  0.4904
  105MOL0     O14041   5.744  10.964   6.764 -0.8665 -0.0319 -1.0105
  105MOL0     C14042   5.710  11.047   6.683  0.3157 -0.2721  1.2301
  105MOL0     O14043   5.587  11.084   6.660 -0.5205 -0.0063  0.0918
  105MOL0     C14044   5.475  11.019   6.698  0.3326  0.3261 -1.1467
  105MOL0     C14045   5.360  11.098   6.683 -0.1592  0.5215 -0.0988
  105MOL0     C14046   5.230  11.047   6.698  0.4029  0.3312  1.2135
  105MOL0     C14047   5.221  10.918   6.760 -0.4797  0.6077  0.6161
  105MOL0     O14048   5.096  10.877   6.798 -0.5340 -0.0959 -0.3434
  105MOL0     C14049   5.084  10.827   6.932 -1.1080 -0.0383  0.0590
  105MOL0     C14050   4.949  10.854   6.998  0.6894  0.3444  0.9465
  105MOL0     C14051   4.856  10.747   6.941  0.2041  0.8584  0.1611
  105MOL0     C14052   4.721  10.730   7.012  0.3118 -0.1153  0.2260
  105MOL0     C14053   4.626  10.662   6.909 -1.0745  0.3097 -0.0261
  105MOL0     C14054   4.490  10.633   6.963  0.2534  0.1966  0.1377
  105MOL0     C14055   4.400  10.575   6.848 -0.0408  0.0775 -0.5679
  105MOL0     C14056   4.255  10.565   6.897 -0.8646  0.1788 -0.0507
  105MOL0     N14057   4.240  10.448   6.977  0.0396 -0.1687 -1.0607
  105MOL0     C14058   4.229  10.314   6.949  0.4097  0.0594  0.1161
  105MOL0     C14059   4.226  10.257   7.075  0.2696  0.1382 -0.5882
  105MOL0     C14060   4.198  10.109   7.111  0.8118 -0.2826 -0.5620
  105MOL0     C14061   4.308  10.015   7.050 -0.2538  0.8559 -0.0965
  105MOL0     C14062   4.250   9.873   7.062  0.1392 -0.1608  0.4324
  105MOL0     C14063   4.338   9.768   6.986  0.7608  0.6691  0.5645
  105MOL0     O14064   4.329   9.635   7.033 -0.9547  0.4679  0.5967
  105MOL0     C14065   4.208   9.583   7.003 -0.2267  0.3885  0.1520
  105MOL0     C14066   4.077   9.629   7.048  0.0924  0.3621  0.5969
  105MOL0     C14067   3.965   9.574   6.997  0.3083 -0.0132 -0.5186
  105MOL0     C14068   3.974   9.456   6.922  1.0098 -0.2010 -0.8771
  105MOL0     C14069   3.849   9.374   6.890 -0.2889 -0.8941  0.3138
  105MOL0     O14070   3.858   9.282   6.792 -0.0698 -0.0153  0.2034
  105MOL0     C14071   3.749   9.207   6.754 -0.7664  0.4851  0.4900
  105MOL0     C14072   3.718   9.086   6.807  0.1170  0.3012  0.9330
  105MOL0     C14073   3.616   9.000   6.752 -0.1844 -0.7887  0.9277
  105MOL0     C14074   3.533   9.050   6.645 -0.2395 -0.4798 -0.2036
  105MOL0     O14075   3.417   8.982   6.603  0.0022 -0.6356  0.3538
  105MOL0     C14076   3.379   8.848   6.647  0.1607 -0.2934  0.3997
  105MOL0     C14077   3.247   8.842   6.727 -0.3847  0.3140 -0.3230
  105MOL0     C14078   3.254   8.924   6.857  0.8047  0.1510 -0.1228
  105MOL0     C14079   3.119   8.950   6.906  1.1760  0.2611 -0.4029
  105MOL0     C14080   3.132   9.009   7.047  0.6459 -0.7196  0.5974
  105MOL0     C14081   2.998   9.044   7.115 -0.2849  0.9521  0.3581
  105MOL0     C14082   2.934   9.176   7.078 -0.2590  0.3513  0.2595
  105MOL0     C14083   2.808   9.186   7.165 -1.0405 -0.3392  1.3794
  105MOL0    Cl14084   2.667   9.102   7.089 -0.3682 -0.2660  0.2419
  105MOL0     C14085   3.564   9.173   6.589  0.4854  0.4731 -0.4970
  105MOL0     C14086   3.675   9.249   6.644  0.2610 -0.5709 -0.0537
  105MOL0     O14087   3.747   9.395   6.955 -0.0325  0.6517 -0.1740
  105MOL0     C14088   4.107   9.407   6.886  0.4407  0.6750 -0.4460
  105MOL0     C14089   4.221   9.463   6.924 -0.1527 -0.3499 -0.3086
  105MOL0     N14090   4.236  10.353   7.177  0.3752  0.3384  0.3272
  105MOL0     N14091   4.236  10.470   7.115  0.0403  0.2577  0.0449
  105MOL0     C14092   5.332  10.833   6.777 -0.0043  0.1270  0.5686
  105MOL0     C14093   5.463  10.884   6.741  0.2079  0.2567  0.5947
  105MOL0     C14094   5.832  11.116   6.611  0.0541  0.7734 -0.5657
  105MOL0     C14095   5.966  11.090   6.657  0.3700 -0.2639  0.6583
  105MOL0     C14096   6.084  11.150   6.604 -0.5597  0.0681 -0.3522
  105MOL0     C14097   6.067  11.252   6.509 -0.5609  0.1503  0.7566
  105MOL0     O14098   6.180  11.320   6.458  0.3755  0.1265  0.1225
  105MOL0     C14099   6.229  11.434   6.531  0.5708 -0.1486  0.6419
  105MOL0     C14100   6.267  11.540   6.423  0.5093 -0.2041 -0.2986
  105MOL0     C14101   6.145  11.632   6.401 -0.2495 -0.4042 -0.3922
  105MOL0     C14102   6.189  11.754   6.321 -0.7932 -0.5068 -0.0152
  105MOL0     C14103   6.087  11.853   6.288 -0.5475 -0.6640 -0.9098
  105MOL0     C14104   6.004  11.938   6.279 -0.9873 -0.4074 -0.1545
  105MOL0     C14105   5.938  11.281   6.457 -0.1595  0.1349 -0.0652
  105MOL0     C14106   5.820  11.219   6.508  0.1725  0.5176 -1.1902
  105MOL0     C14107   5.689  11.272   6.461  0.1899  0.6527 -0.5240
  105MOL0     H14108   5.383  11.200   6.651 -1.7705  1.2077  0.8343
  105MOL0     H14109   5.143  11.109   6.682  0.1901 -0.2422  0.0716
  105MOL0     H14110   5.110  10.721   6.933  1.1731  0.4026 -1.8869
  105MOL0     H14111   5.154  10.887   6.990 -3.0913  1.4205  1.0526
  105MOL0     H14112   4.923  10.956   6.971  1.6533 -0.1692 -2.4657
  105MOL0     H14113   4.965  10.847   7.106 -2.1909  0.3122  1.4492
  105MOL0     H14114   4.911  10.653   6.931  0.3443  1.1831 -3.7300
  105MOL0     H14115   4.837  10.777   6.837  3.0764 -0.7515 -0.9561
  105MOL0     H14116   4.730  10.669   7.102 -1.1587  1.4555  1.5239
  105MOL0     H14117   4.679  10.821   7.058 -0.8072 -0.4867 -0.0270
  105MOL0     H14118   4.608  10.727   6.824 -1.4580  0.1069 -0.0994
  105MOL0     H14119   4.677  10.573   6.869  2.8675  1.9066  0.9320
  105MOL0     H14120   4.494  10.557   7.041  1.7611 -2.0707 -2.0080
  105MOL0     H14121   4.441  10.722   7.003 -0.4175  0.2825 -0.8402
  105MOL0     H14122   4.431  10.476   6.815  2.1479  0.4706  0.1203
  105MOL0     H14123   4.397  10.643   6.762 -0.8039 -1.0751 -1.4819
  105MOL0     H14124   4.230  10.652   6.958  2.8466  0.3493  1.4867
  105MOL0     H14125   4.193  10.580   6.808 -0.1646  4.4014 -0.0309
  105MOL0     H14126   4.214  10.264   6.854  0.4547  2.1341 -1.0220
  105MOL0     H14127   4.193  10.093   7.219 -1.0740  1.4080 -0.3261
  105MOL0     H14128   4.098  10.084   7.075  0.2854 -0.5945  1.0100
  105MOL0     H14129   4.312  10.036   6.943 -2.3715  1.6399 -0.0863
  105MOL0     H14130   4.402  10.028   7.104  0.3460 -1.8031 -0.3647
  105MOL0     H14131   4.150   9.880   7.017  0.1354 -0.7658  0.3434
  105MOL0     H14132   4.234   9.853   7.168 -4.5699  2.0632  0.3826
  105MOL0     H14133   4.445   9.788   6.999  1.6196 -2.2420 -0.9650
  105MOL0     H14134   4.324   9.772   6.878 -1.3352 -1.2890  0.6992
  105MOL0     H14135   4.063   9.707   7.123 -0.0215  2.0595 -1.1084
  105MOL0     H14136   3.864   9.610   7.015  1.0670  2.1890 -0.3500
  105MOL0     H14137   3.771   9.051   6.895  1.0068  0.4339  0.4701
  105MOL0     H14138   3.595   8.905   6.799 -0.0993 -1.6161 -0.6551
  105MOL0     H14139   3.370   8.795   6.552  4.3924 -1.1387  0.2438
  105MOL0     H14140   3.464   8.800   6.697  1.6689 -1.5912 -3.0975
  105MOL0     H14141   3.167   8.891   6.671 -2.3624  1.5497  3.2674
  105MOL0     H14142   3.220   8.737   6.740  1.0724 -0.4056 -2.5737
  105MOL0     H14143   3.322   8.885   6.934  0.1116  0.2972  0.5845
  105MOL0     H14144   3.291   9.025   6.835 -1.6411  1.4485  1.2107
  105MOL0     H14145   3.057   8.860   6.915  3.4310 -1.3461 -0.0578
  105MOL0     H14146   3.062   9.023   6.848 -0.0088 -0.3990 -0.1234
  105MOL0     H14147   3.195   9.096   7.029  0.3907 -1.2211 -3.6331
  105MOL0     H14148   3.189   8.943   7.114 -1.5578 -3.4244 -0.0011
  105MOL0     H14149   2.918   8.970   7.108 -0.5554  0.7046  4.0947
  105MOL0     H14150   3.024   9.035   7.221  0.9205 -0.7117 -0.0404
  105MOL0     H14151   2.905   9.183   6.972 -0.7257  1.0186  0.4288
  105MOL0     H14152   3.005   9.256   7.099 -0.1061  0.1200  0.6274
  105MOL0     H14153   2.822   9.135   7.261 -2.1802 -1.6588  0.8836
  105MOL0     H14154   2.799   9.294   7.174  2.9817  0.6041 -2.6643
  105MOL0     H14155   3.488   9.211   6.522  1.2836  0.6862 -1.2969
  105MOL0     H14156   3.686   9.346   6.595  0.6810 -0.7271 -0.2739
  105MOL0     H14157   4.111   9.314   6.831  0.7982  0.1974  0.3832
  105MOL0     H14158   4.316   9.423   6.890 -1.7621 -3.2529 -1.7704
  105MOL0     H14159   5.319  10.729   6.805  0.6602 -1.0138 -2.9575
  105MOL0     H14160   5.546  10.814   6.737 -1.2403 -1.5089  0.0843
  105MOL0     H14161   5.989  11.018   6.735  0.3848 -1.4296 -0.3934
  105MOL0     H14162   6.186  11.122   6.626  0.1430 -2.7430 -5.4385
  105MOL0     H14163   6.317  11.413   6.592 -1.0120 -2.0817  2.3842
  105MOL0     H14164   6.150  11.474   6.594 -1.1295 -0.6704 -1.0682
  105MOL0     H14165   6.301  11.495   6.329 -1.2347 -1.1862 -0.4936
  105MOL0     H14166   6.347  11.603   6.463  1.0724  0.7294 -2.7133
  105MOL0     H14167   6.098  11.645   6.499 -0.8491 -1.1349 -0.5749
  105MOL0     H14168   6.065  11.581   6.347  1.5973 -3.1491 -0.6974
  105MOL0     H14169   6.271  11.806   6.373  0.2785 -0.5122 -1.6246
  105MOL0     H14170   6.230  11.712   6.229 -3.6068 -2.0538 -0.6732
  105MOL0     H14171   5.938  12.022   6.275 -0.7567  0.0129  2.9725
  105MOL0     H14172   5.938  11.361   6.384 -3.4681  2.3623  2.0833
  105MOL0     H14173   5.696  11.368   6.410 -0.1322 -0.5473 -3.0085
  105MOL0     H14174   5.651  11.202   6.385 -0.5407  0.7411 -0.2431
  105MOL0     H14175   5.619  11.287   6.543  1.3470  0.1355  0.5924
  106MOL0     O14176   1.324   2.482   1.580 -0.2368  0.3582 -0.0516
  106MOL0     C14177   1.227   2.548   1.627 -0.6127 -0.1623 -0.6525
  106MOL0     O14178   1.231   2.635   1.736  0.2413 -0.3084  0.7110
  106MOL0     C14179   1.353   2.688   1.780 -0.3258  0.1754 -0.0826
  106MOL0     C14180   1.366   2.702   1.920  0.1175  0.3845 -0.2076
  106MOL0     C14181   1.490   2.738   1.975  0.3667 -0.6015 -0.6126
  106MOL0     C14182   1.607   2.761   1.895 -0.4859 -0.1093 -0.0404
  106MOL0     O14183   1.723   2.802   1.953 -0.8844 -0.0747  0.0553
  106MOL0     C14184   1.713   2.910   2.051 -0.0608  0.1789  0.8162
  106MOL0     C14185   1.835   3.009   2.027 -0.0188 -0.0975 -0.1545
  106MOL0     C14186   1.867   3.055   1.876 -0.3212 -0.4786 -1.0066
  106MOL0     C14187   1.828   3.200   1.847 -0.1442 -0.4683  0.9179
  106MOL0     C14188   1.915   3.297   1.925 -0.0507  0.6361 -0.2397
  106MOL0     C14189   2.058   3.303   1.892 -0.9169 -0.0840  0.1421
  106MOL0     C14190   2.084   3.319   1.738  0.4293 -0.5232 -0.1544
  106MOL0     C14191   2.206   3.412   1.699 -0.5007 -0.1293  0.9217
  106MOL0     N14192   2.199   3.422   1.557 -0.2500  0.5938 -0.2137
  106MOL0     C14193   2.262   3.322   1.484 -0.7180  0.2097 -0.0987
  106MOL0     C14194   2.302   3.382   1.367  0.2231  0.3735 -0.0851
  106MOL0     C14195   2.376   3.312   1.249  0.4346 -0.5865 -0.3279
  106MOL0     C14196   2.449   3.422   1.163 -0.0107 -0.1782  0.0895
  106MOL0     C14197   2.562   3.489   1.231  0.1173  0.0385  0.2321
  106MOL0     C14198   2.619   3.594   1.150  0.4713  0.3955  0.0831
  106MOL0     O14199   2.723   3.671   1.220  0.3270  0.3156  0.1252
  106MOL0     C14200   2.744   3.795   1.179 -0.2171 -0.1880 -0.9364
  106MOL0     C14201   2.819   3.871   1.268  0.1356  0.0462  0.2764
  106MOL0     C14202   2.865   3.990   1.244  0.5001  0.2052  0.2595
  106MOL0     C14203   2.839   4.056   1.120 -1.0560  0.7598  0.0822
  106MOL0     C14204   2.898   4.193   1.087  0.5901  0.6900 -0.2448
  106MOL0     O14205   2.840   4.245   0.976 -0.1638  0.3371  0.4341
  106MOL0     C14206   2.883   4.376   0.953 -0.4072 -0.1402  0.2954
  106MOL0     C14207   2.797   4.476   0.998 -0.1073 -0.7208 -0.0991
  106MOL0     C14208   2.838   4.607   0.984  0.0652 -0.7065 -0.7272
  106MOL0     C14209   2.952   4.646   0.913  0.4019  0.2602  0.5173
  106MOL0     O14210   2.983   4.782   0.907 -0.8608  0.0855 -0.4925
  106MOL0     C14211   3.040   4.839   0.784  0.3030  0.8330 -0.5579
  106MOL0     C14212   3.001   4.993   0.793  0.1382  0.0233  0.0115
  106MOL0     C14213   3.030   5.075   0.659  1.0195  0.0632 -0.6545
  106MOL0     C14214   3.165   5.131   0.661 -0.8624 -0.0775  0.3158
  106MOL0     C14215   3.194   5.190   0.513  0.4896  0.2653 -0.5331
  106MOL0     C14216   3.325   5.251   0.499  0.9127  0.5074 -0.2377
  106MOL0     C14217   3.326   5.321   0.364 -0.8381  0.1638  0.1408
  106MOL0     C14218   3.472   5.321   0.312  0.4337  0.6016  0.7838
  106MOL0    Cl14219   3.593   5.398   0.421 -0.3054  0.0422  0.1894
  106MOL0     C14220   3.024   4.546   0.853 -0.6753  0.4320 -0.3538
  106MOL0     C14221   2.987   4.414   0.870  0.0742 -0.4921  0.0791
  106MOL0     O14222   2.990   4.243   1.156  0.0906 -0.3932 -0.9455
  106MOL0     C14223   2.760   3.982   1.025 -0.1999 -0.2063 -0.1776
  106MOL0     C14224   2.709   3.856   1.055 -0.4535  0.8024 -0.4314
  106MOL0     N14225   2.246   3.506   1.369  0.4351 -0.0179 -0.1581
  106MOL0     N14226   2.204   3.538   1.487  0.0914  0.3024  0.7161
  106MOL0     C14227   1.598   2.741   1.764  0.1279 -0.1363 -0.0756
  106MOL0     C14228   1.472   2.707   1.705  0.4468 -0.1827 -0.1444
  106MOL0     C14229   1.091   2.512   1.573 -0.8812 -0.0771  0.4985
  106MOL0     C14230   1.075   2.402   1.483 -0.6491  0.0844  0.5722
  106MOL0     C14231   0.946   2.362   1.414 -0.6129  0.1370  0.4457
  106MOL0     C14232   0.838   2.444   1.438  0.0980  0.3672 -0.2799
  106MOL0     O14233   0.710   2.413   1.405 -0.3641  0.5268  0.3752
  106MOL0     C14234   0.678   2.288   1.351 -0.2160  0.1906  0.4743
  106MOL0     C14235   0.522   2.284   1.321  0.2440 -0.1984  0.4418
  106MOL0     C14236   0.497   2.136   1.300 -0.3011  0.9970 -1.0169
  106MOL0     C14237   0.379   2.088   1.216  0.9214 -0.4131 -0.1289
  106MOL0     C14238   0.251   2.144   1.272 -0.2062 -0.4867  0.8550
  106MOL0     C14239   0.154   2.194   1.332  0.2655  0.4212  0.5782
  106MOL0     C14240   0.859   2.563   1.517  0.1885 -0.1581  0.3539
  106MOL0     C14241   0.976   2.603   1.586  0.5868 -0.5332 -0.3335
  106MOL0     C14242   0.975   2.730   1.662 -0.0780  0.4956 -0.0707
  106MOL0     H14243   1.277   2.677   1.977  1.0953  0.3238  1.3603
  106MOL0     H14244   1.492   2.772   2.078 -1.4956 -2.4456  0.1266
  106MOL0     H14245   1.626   2.976   2.046  0.0691  0.3621  0.9707
  106MOL0     H14246   1.716   2.866   2.151  4.1640  0.0966  0.7958
  106MOL0     H14247   1.926   2.973   2.077 -0.1633  1.0893  1.0395
  106MOL0     H14248   1.811   3.098   2.087  3.8561 -0.8857  3.0144
  106MOL0     H14249   1.818   2.985   1.807  0.7991 -0.5177 -1.7988
  106MOL0     H14250   1.971   3.045   1.844  0.9348  3.4870  1.2038
  106MOL0     H14251   1.830   3.221   1.740 -4.6832 -0.9464  0.5206
  106MOL0     H14252   1.724   3.217   1.880 -1.1174 -2.0332 -1.1416
  106MOL0     H14253   1.879   3.400   1.923  2.1532  1.5272  1.2443
  106MOL0     H14254   1.909   3.265   2.030  0.0564 -0.4364 -0.5513
  106MOL0     H14255   2.095   3.396   1.937  3.9086 -1.8950  0.5208
  106MOL0     H14256   2.113   3.212   1.920  2.0536  1.1959 -1.1038
  106MOL0     H14257   1.991   3.359   1.697 -0.7397 -1.3121  1.5977
  106MOL0     H14258   2.110   3.217   1.706  2.2208 -0.5014  1.0518
  106MOL0     H14259   2.194   3.517   1.727  2.0479  0.0821  1.4391
  106MOL0     H14260   2.306   3.379   1.730  0.1768 -0.3712 -1.3625
  106MOL0     H14261   2.284   3.220   1.516  2.3131  1.2453  1.5219
  106MOL0     H14262   2.451   3.241   1.285  1.8672 -0.1288 -2.2588
  106MOL0     H14263   2.302   3.256   1.192 -1.3035  2.7393 -1.6030
  106MOL0     H14264   2.473   3.388   1.062 -1.5525  1.3332 -0.8506
  106MOL0     H14265   2.376   3.503   1.150 -0.0073  0.3413  2.8267
  106MOL0     H14266   2.644   3.419   1.252  2.0715  2.0830 -0.2057
  106MOL0     H14267   2.526   3.526   1.328 -1.6443  1.1982 -0.8059
  106MOL0     H14268   2.536   3.661   1.129 -1.7537 -2.4886 -0.9547
  106MOL0     H14269   2.671   3.550   1.064  1.8765  1.6355  0.2587
  106MOL0     H14270   2.832   3.832   1.369 -3.3272  1.8085  1.5929
  106MOL0     H14271   2.927   4.042   1.315  2.4305 -1.5954 -0.0160
  106MOL0     H14272   2.707   4.455   1.055 -1.0720  1.3799 -0.7484
  106MOL0     H14273   2.777   4.683   1.031  0.9411  0.4213 -1.3469
  106MOL0     H14274   3.147   4.819   0.779  0.7514  3.0734 -1.1723
  106MOL0     H14275   2.975   4.796   0.707 -0.8355  2.2174 -0.4135
  106MOL0     H14276   2.896   5.009   0.818  0.1447  1.1644 -0.6033
  106MOL0     H14277   3.056   5.042   0.874  0.7601  0.9739 -0.9554
  106MOL0     H14278   3.026   5.008   0.573 -2.9261  0.4862 -0.9889
  106MOL0     H14279   2.943   5.140   0.645 -0.8620 -1.0507  3.9419
  106MOL0     H14280   3.224   5.039   0.667 -1.2406 -0.4955 -1.6505
  106MOL0     H14281   3.189   5.206   0.738 -4.1681  0.1339  1.2894
  106MOL0     H14282   3.114   5.263   0.494  0.3864  0.0627 -0.8847
  106MOL0     H14283   3.189   5.106   0.443  2.8357 -0.1016 -0.3408
  106MOL0     H14284   3.348   5.322   0.579 -0.4445 -1.6698  2.2478
  106MOL0     H14285   3.400   5.172   0.493 -0.3335 -0.7071 -0.4574
  106MOL0     H14286   3.283   5.420   0.377  1.8029  1.1379  2.3661
  106MOL0     H14287   3.276   5.252   0.295 -2.1450  1.4571 -0.2549
  106MOL0     H14288   3.500   5.217   0.292 -3.5225 -0.3186 -0.9926
  106MOL0     H14289   3.476   5.369   0.214 -1.9317 -0.8070 -0.0874
  106MOL0     H14290   3.103   4.584   0.789 -2.4227  2.7070 -1.3241
  106MOL0     H14291   3.046   4.332   0.829  1.2856  1.3582 -2.0754
  106MOL0     H14292   2.753   4.030   0.928  0.7778 -1.6631 -1.0115
  106MOL0     H14293   2.668   3.796   0.974 -1.4115 -0.3578  0.8766
  106MOL0     H14294   1.686   2.753   1.701 -1.9925  0.1420 -3.2099
  106MOL0     H14295   1.453   2.684   1.600  0.8732  1.6058 -0.6435
  106MOL0     H14296   1.160   2.337   1.464 -1.5207 -0.5543 -1.3107
  106MOL0     H14297   0.937   2.270   1.358 -0.0861  0.4805 -0.2141
  106MOL0     H14298   0.705   2.211   1.425 -1.7154  0.8015  1.7074
  106MOL0     H14299   0.734   2.261   1.261 -0.0656 -0.8915  0.8816
  106MOL0     H14300   0.486   2.346   1.239 -3.0487 -2.3765  0.0543
  106MOL0     H14301   0.471   2.309   1.415 -0.7205 -0.5085  0.0146
  106MOL0     H14302   0.476   2.090   1.397 -0.1653 -1.3149 -2.0435
  106MOL0     H14303   0.587   2.094   1.255 -1.0100 -1.1018 -0.5683
  106MOL0     H14304   0.397   2.124   1.114  2.3203 -0.2018  0.1838
  106MOL0     H14305   0.368   1.979   1.209  3.1089 -0.5670 -3.3603
  106MOL0     H14306   0.064   2.238   1.368 -0.5387  0.6203 -1.5002
  106MOL0     H14307   0.766   2.619   1.521 -0.4466 -1.1834  0.2657
  106MOL0     H14308   0.896   2.795   1.621 -1.3658  0.3868  2.0986
  106MOL0     H14309   0.959   2.717   1.769 -3.1844 -1.9264 -0.7097
  106MOL0     H14310   1.067   2.785   1.637 -0.4457  0.3223 -1.9685
  107MOL0     O14311   5.361   3.365   0.150 -0.0291 -0.5252 -0.0737
  107MOL0     C14312   5.457   3.298   0.193 -0.2406  0.8945 -0.1884
  107MOL0     O14313   5.474   3.263   0.327 -0.8156 -0.4499  0.1268
  107MOL0     C14314   5.400   3.338   0.417 -1.0681  0.4320 -0.3612
  107MOL0     C14315   5.410   3.483   0.429  0.0506  0.8418  0.8098
  107MOL0     C14316   5.339   3.544   0.535  0.3210  0.4343 -0.3851
  107MOL0     C14317   5.264   3.467   0.623  0.1060 -0.0899  0.0962
  107MOL0     O14318   5.196   3.539   0.716 -0.7084 -0.0402  0.1039
  107MOL0     C14319   5.161   3.476   0.840 -0.0283 -0.2024 -0.5144
  107MOL0     C14320   5.020   3.402   0.852 -0.3102 -0.2028  0.3567
  107MOL0     C14321   4.983   3.370   1.002 -0.3658 -0.2528 -0.1604
  107MOL0     C14322   5.042   3.239   1.033  0.1803  0.5619 -0.3427
  107MOL0     C14323   5.011   3.201   1.186 -0.4416  0.7830  0.3793
  107MOL0     C14324   5.129   3.119   1.242 -0.0456 -0.4477 -0.0019
  107MOL0     C14325   5.144   2.987   1.154  0.0695  0.4618 -0.1048
  107MOL0     C14326   5.187   2.860   1.236  0.4085 -0.1266 -0.6204
  107MOL0     N14327   5.329   2.871   1.265 -0.5105 -0.4125  0.8450
  107MOL0     C14328   5.417   2.828   1.170  0.1372  0.9186  0.1779
  107MOL0     C14329   5.538   2.871   1.213  0.3013  0.2025  0.3614
  107MOL0     C14330   5.666   2.844   1.133  0.5282  0.6948 -0.2139
  107MOL0     C14331   5.764   2.955   1.187 -0.8819 -0.1102  0.1333
  107MOL0     C14332   5.889   2.937   1.110  0.6842  0.4499 -0.1454
  107MOL0     C14333   5.978   3.043   1.157 -0.2931 -0.1398  0.3767
  107MOL0     O14334   6.102   3.034   1.082  0.5300 -0.4868  0.6014
  107MOL0     C14335   6.211   2.960   1.121 -0.4448 -0.2722  0.2274
  107MOL0     C14336   6.215   2.865   1.216  0.6280  0.5140  0.0305
  107MOL0     C14337   6.336   2.800   1.249 -0.6366  0.8856 -0.4036
  107MOL0     C14338   6.462   2.839   1.183  0.8620  0.3159  0.2416
  107MOL0     C14339   6.596   2.787   1.230 -1.4521 -0.1643 -0.1496
  107MOL0     O14340   6.706   2.842   1.171  0.8659  0.0450  0.3275
  107MOL0     C14341   6.836   2.806   1.187  1.0049  0.4574 -0.1025
  107MOL0     C14342   6.885   2.722   1.288 -0.3165  0.8020  0.0020
  107MOL0     C14343   7.009   2.687   1.289  0.5682  0.0600  1.0765
  107MOL0     C14344   7.102   2.741   1.194 -0.4670  1.4523  0.3366
  107MOL0     O14345   7.235   2.696   1.191  0.2663  0.0450 -0.1987
  107MOL0     C14346   7.329   2.786   1.122  0.3701  0.1099  0.8098
  107MOL0     C14347   7.478   2.743   1.155 -0.3080 -1.2126  0.7114
  107MOL0     C14348   7.520   2.761   1.300 -0.3285 -0.5183  0.7253
  107MOL0     C14349   7.663   2.700   1.311  0.5221 -0.0701  0.1761
  107MOL0     C14350   7.724   2.691   1.457  1.3635  0.1969 -0.5010
  107MOL0     C14351   7.657   2.580   1.540 -0.4353  0.4817  0.6633
  107MOL0     C14352   7.721   2.582   1.680 -0.2008  0.1921  0.5976
  107MOL0     C14353   7.639   2.485   1.763  0.7677 -0.2832  0.2129
  107MOL0    Cl14354   7.682   2.322   1.721  0.0263  0.2902  0.2031
  107MOL0     C14355   7.060   2.849   1.110 -0.6036 -0.1893 -0.6015
  107MOL0     C14356   6.920   2.868   1.093 -0.6286  0.0520 -0.0677
  107MOL0     O14357   6.595   2.705   1.326  0.2577  0.4011  0.1966
  107MOL0     C14358   6.452   2.928   1.082  0.9339 -0.0830 -0.3861
  107MOL0     C14359   6.328   2.991   1.055 -0.1832  0.6895 -0.5916
  107MOL0     N14360   5.513   2.926   1.339  0.5877  0.0357 -0.0612
  107MOL0     N14361   5.382   2.936   1.367 -0.1989 -0.6222  0.3106
  107MOL0     C14362   5.263   3.318   0.611 -0.0451 -0.7058 -0.5672
  107MOL0     C14363   5.327   3.254   0.501  0.5978  0.2123 -0.2478
  107MOL0     C14364   5.563   3.258   0.103 -0.0249  1.4019 -0.3597
  107MOL0     C14365   5.528   3.186  -0.015 -0.2906  0.2487  0.0423
  107MOL0     C14366   5.631   3.150  -0.104  0.3029  0.6528  1.2646
  107MOL0     C14367   5.765   3.160  -0.081  0.2989  0.6095 -0.5702
  107MOL0     O14368   5.853   3.096  -0.164  0.2450  0.4075 -0.3766
  107MOL0     C14369   5.987   3.084  -0.121  0.4650 -0.0509  0.6563
  107MOL0     C14370   6.078   3.186  -0.183  1.3878 -0.0653 -0.2008
  107MOL0     C14371   6.224   3.173  -0.156 -0.0732  0.8202 -0.0669
  107MOL0     C14372   6.265   3.183  -0.007  0.7177 -0.5523  0.2219
  107MOL0     C14373   6.206   3.291   0.068 -0.5602  0.3341  0.0227
  107MOL0     C14374   6.170   3.382   0.135  0.4311 -0.1828 -0.4590
  107MOL0     C14375   5.797   3.242   0.027  0.1544 -0.4997 -0.2003
  107MOL0     C14376   5.701   3.280   0.125  0.1028  0.2740  0.0705
  107MOL0     C14377   5.737   3.361   0.254  0.1430  0.0683  0.6611
  107MOL0     H14378   5.457   3.541   0.352  0.2961  0.0993  0.3885
  107MOL0     H14379   5.337   3.652   0.546 -2.8049  0.3601  0.7246
  107MOL0     H14380   5.247   3.415   0.867  0.5144  0.8764  0.2671
  107MOL0     H14381   5.154   3.562   0.908 -0.1645  0.2155 -1.0487
  107MOL0     H14382   5.029   3.312   0.790 -1.9342  0.2145 -0.5423
  107MOL0     H14383   4.936   3.460   0.812  1.2653  2.7471  1.0365
  107MOL0     H14384   4.875   3.369   1.015 -0.4462 -2.6042 -0.5389
  107MOL0     H14385   5.029   3.447   1.064 -2.1936  1.3863 -0.7555
  107MOL0     H14386   4.993   3.163   0.970  0.2090 -0.4477  0.8191
  107MOL0     H14387   5.146   3.248   1.002 -0.2192  0.3886 -1.8382
  107MOL0     H14388   4.999   3.296   1.239  0.7715  2.0253 -1.4365
  107MOL0     H14389   4.918   3.144   1.197 -0.9572  0.5327 -3.7659
  107MOL0     H14390   5.223   3.174   1.244 -0.8326  0.9310  0.2073
  107MOL0     H14391   5.114   3.093   1.347 -3.5235 -1.8967 -0.7208
  107MOL0     H14392   5.216   3.001   1.072  1.4026 -1.8084  0.5943
  107MOL0     H14393   5.054   2.949   1.105  2.9823 -3.9192 -2.7609
  107MOL0     H14394   5.130   2.855   1.330 -0.3172  0.8343 -0.9996
  107MOL0     H14395   5.170   2.775   1.170 -1.9114  0.7671 -1.2468
  107MOL0     H14396   5.405   2.774   1.077  4.4860  1.4018 -0.8615
  107MOL0     H14397   5.708   2.749   1.169 -0.6120  0.6889  1.2131
  107MOL0     H14398   5.658   2.838   1.025  0.4827  2.0807 -0.3024
  107MOL0     H14399   5.731   3.056   1.161  0.8528  0.1755 -1.1071
  107MOL0     H14400   5.785   2.942   1.294  1.1533 -0.8793 -0.3220
  107MOL0     H14401   5.871   2.955   1.003  2.7505  0.5337 -0.5348
  107MOL0     H14402   5.948   2.845   1.118  1.9390  1.3256  1.0663
  107MOL0     H14403   5.991   3.023   1.264 -0.5182 -0.2253  0.3887
  107MOL0     H14404   5.929   3.141   1.149  2.1894  1.1476 -0.1168
  107MOL0     H14405   6.126   2.844   1.274 -2.5236 -0.7234 -4.6200
  107MOL0     H14406   6.337   2.731   1.332 -0.8586  1.7162  0.3017
  107MOL0     H14407   6.828   2.676   1.369 -0.7558  0.0150 -0.7281
  107MOL0     H14408   7.047   2.614   1.360 -0.5109 -0.1027  1.5097
  107MOL0     H14409   7.309   2.787   1.015 -0.4695  4.7194  0.8102
  107MOL0     H14410   7.307   2.887   1.158 -0.2873  0.8036 -1.4090
  107MOL0     H14411   7.504   2.645   1.112 -0.2953 -0.3862 -1.3077
  107MOL0     H14412   7.530   2.816   1.092 -3.5673  0.5899 -0.1573
  107MOL0     H14413   7.517   2.868   1.326 -3.0822 -0.1056 -0.8884
  107MOL0     H14414   7.445   2.717   1.366  0.8134 -0.7005  1.9479
  107MOL0     H14415   7.741   2.762   1.267 -1.3673  1.1112 -1.7143
  107MOL0     H14416   7.664   2.601   1.264 -1.1931 -0.1537  0.2579
  107MOL0     H14417   7.707   2.789   1.503 -2.6442 -0.6909  0.2964
  107MOL0     H14418   7.833   2.676   1.457  1.3991  0.4530 -1.1037
  107MOL0     H14419   7.550   2.602   1.541 -0.6939 -0.3655 -1.6396
  107MOL0     H14420   7.683   2.487   1.489  0.1775  0.8353  0.3132
  107MOL0     H14421   7.725   2.681   1.727 -0.6399 -0.8073  2.8704
  107MOL0     H14422   7.824   2.544   1.677 -1.5884 -4.0166 -0.8752
  107MOL0     H14423   7.648   2.490   1.871 -3.5885 -1.6114  0.8305
  107MOL0     H14424   7.536   2.510   1.733  1.2333 -1.4267 -2.6357
  107MOL0     H14425   7.127   2.903   1.043 -1.5317  1.9539  0.1090
  107MOL0     H14426   6.881   2.950   1.034 -0.4117 -0.6598 -1.2401
  107MOL0     H14427   6.544   2.963   1.036  1.6381 -3.5431 -1.9039
  107MOL0     H14428   6.337   3.069   0.980 -2.3082  0.6982 -0.9229
  107MOL0     H14429   5.207   3.253   0.678 -1.1357  0.4135 -0.3551
  107MOL0     H14430   5.322   3.147   0.488  0.9440  0.1265  0.2873
  107MOL0     H14431   5.421   3.167  -0.020 -0.5728  1.9022 -0.8683
  107MOL0     H14432   5.602   3.090  -0.190 -0.9691 -0.2353  2.2792
  107MOL0     H14433   6.034   2.985  -0.132  1.4303  0.1255  2.6546
  107MOL0     H14434   6.002   3.098  -0.013 -0.1804 -1.0129  0.8879
  107MOL0     H14435   6.035   3.284  -0.159  1.9068  0.8905 -2.9140
  107MOL0     H14436   6.057   3.170  -0.289 -0.4572 -0.5817  0.2084
  107MOL0     H14437   6.272   3.253  -0.213 -0.7783  1.6712  0.5072
  107MOL0     H14438   6.253   3.077  -0.201 -2.0795 -0.4607  1.2057
  107MOL0     H14439   6.233   3.089   0.040 -0.0753 -0.6965 -0.5921
  107MOL0     H14440   6.373   3.190  -0.025  0.8815 -0.2075  1.2389
  107MOL0     H14441   6.139   3.472   0.184 -0.3800  1.7586 -4.1883
  107MOL0     H14442   5.897   3.280   0.043 -0.5480  1.0768  0.6301
  107MOL0     H14443   5.725   3.295   0.340  0.1360 -1.9363 -0.8028
  107MOL0     H14444   5.838   3.401   0.240 -0.1258  0.2121 -1.0853
  107MOL0     H14445   5.666   3.444   0.253 -0.1803 -0.0985 -3.0489
  108MOL0     O14446   6.282   6.356   5.112  0.6767 -0.1799  0.3596
  108MOL0     C14447   6.182   6.396   5.174  0.5246  0.6168  0.8543
  108MOL0     O14448   6.091   6.486   5.129 -0.0180 -0.6435 -0.9851
  108MOL0     C14449   6.150   6.572   5.037 -0.7645 -0.9215 -0.2693
  108MOL0     C14450   6.263   6.656   5.074 -0.4136 -0.0105 -0.8975
  108MOL0     C14451   6.314   6.746   4.981 -0.1452 -0.0087  0.0572
  108MOL0     C14452   6.250   6.751   4.856 -0.4075 -0.1738 -0.0128
  108MOL0     O14453   6.289   6.845   4.763  0.7289 -0.2730 -0.1730
  108MOL0     C14454   6.331   6.972   4.794  0.5627 -0.9788  0.8997
  108MOL0     C14455   6.348   7.049   4.664  0.5953 -0.0433  0.6994
  108MOL0     C14456   6.228   7.025   4.571  0.0576 -0.2986  0.4569
  108MOL0     C14457   6.220   7.157   4.471 -0.0125  0.2897 -1.0764
  108MOL0     C14458   6.352   7.194   4.392 -0.2009 -0.2378  0.6442
  108MOL0     C14459   6.335   7.302   4.282  0.2945  0.0780  0.3739
  108MOL0     C14460   6.459   7.356   4.214 -0.0671  0.1975 -0.5980
  108MOL0     C14461   6.536   7.261   4.119  0.7469 -0.2538 -0.7784
  108MOL0     N14462   6.677   7.284   4.110  0.0544  0.0215  0.0570
  108MOL0     C14463   6.790   7.210   4.146  0.6030  0.0789  0.2022
  108MOL0     C14464   6.900   7.292   4.128  0.1134 -0.9149 -0.6030
  108MOL0     C14465   7.042   7.258   4.142  0.8528  0.2649 -0.8978
  108MOL0     C14466   7.102   7.354   4.248 -0.4847  0.3872 -0.1638
  108MOL0     C14467   7.050   7.326   4.396 -0.3094  0.6161 -0.1464
  108MOL0     C14468   7.135   7.395   4.491 -0.1558 -0.4035 -1.4256
  108MOL0     O14469   7.088   7.383   4.625 -0.0837 -0.3464  0.5770
  108MOL0     C14470   7.127   7.474   4.715  0.4562  0.3785  1.2647
  108MOL0     C14471   7.191   7.596   4.700 -0.0445  1.0465 -0.4575
  108MOL0     C14472   7.218   7.670   4.815 -0.7515  0.3283 -0.9513
  108MOL0     C14473   7.205   7.621   4.942  0.0570  0.5366 -0.3269
  108MOL0     C14474   7.261   7.690   5.060  0.0370 -0.6758  0.8124
  108MOL0     O14475   7.281   7.613   5.174 -0.2195 -0.1622  0.5936
  108MOL0     C14476   7.354   7.674   5.280  0.4352  0.5338 -0.5901
  108MOL0     C14477   7.473   7.746   5.258 -1.0892  0.4256 -0.3269
  108MOL0     C14478   7.539   7.805   5.361  0.0219  0.4171  0.0135
  108MOL0     C14479   7.502   7.781   5.498  0.0448 -0.4619 -0.8241
  108MOL0     O14480   7.566   7.863   5.591 -0.1404  0.2923 -0.7647
  108MOL0     C14481   7.659   7.792   5.668 -0.5171  0.9454 -0.6793
  108MOL0     C14482   7.792   7.864   5.677  0.4469  0.3691 -0.2198
  108MOL0     C14483   7.888   7.785   5.768  0.5769 -0.1844 -0.1970
  108MOL0     C14484   8.033   7.816   5.718 -0.0341 -0.1243  0.3508
  108MOL0     C14485   8.123   7.777   5.827  0.0711 -0.9893  0.4667
  108MOL0     C14486   8.275   7.788   5.794  0.4356 -0.7654 -1.1954
  108MOL0     C14487   8.306   7.932   5.737 -0.1713  0.6020 -0.6272
  108MOL0     C14488   8.452   7.959   5.718 -0.3599  0.1618  0.7834
  108MOL0    Cl14489   8.532   7.836   5.601 -0.6610  0.1202  0.1222
  108MOL0     C14490   7.404   7.691   5.525 -0.2865  1.3311 -0.2049
  108MOL0     C14491   7.325   7.647   5.418  1.0720  0.1779 -0.7691
  108MOL0     O14492   7.280   7.812   5.052 -0.5488  0.2976  0.2692
  108MOL0     C14493   7.163   7.485   4.952  0.0513 -0.1714 -0.0234
  108MOL0     C14494   7.121   7.418   4.840 -0.5181  0.6522  1.1523
  108MOL0     N14495   6.852   7.413   4.092 -0.4633 -0.6414  0.1488
  108MOL0     N14496   6.728   7.403   4.065  0.0754 -0.4657  0.2390
  108MOL0     C14497   6.151   6.656   4.821  0.1594 -0.2661  0.8924
  108MOL0     C14498   6.091   6.575   4.915  0.3713  0.5064  0.0791
  108MOL0     C14499   6.168   6.349   5.318 -0.0074 -0.5403  1.2711
  108MOL0     C14500   6.096   6.430   5.405  0.2881 -0.4870  1.1165
  108MOL0     C14501   6.071   6.406   5.536  0.0382 -0.7787  0.0724
  108MOL0     C14502   6.121   6.286   5.589 -0.4036 -1.0472 -0.2370
  108MOL0     O14503   6.115   6.257   5.728 -0.3593 -0.2741  0.4331
  108MOL0     C14504   6.026   6.329   5.809 -0.1097  0.4345 -0.1169
  108MOL0     C14505   6.049   6.282   5.956  0.6561  0.1062 -0.3783
  108MOL0     C14506   6.062   6.126   5.973  0.2514 -1.1291  0.3576
  108MOL0     C14507   6.025   6.076   6.115  0.0298 -0.8986  0.1368
  108MOL0     C14508   6.127   6.108   6.205  0.0089 -0.1612 -0.6460
  108MOL0     C14509   6.223   6.141   6.274  0.5525 -0.4930 -0.5124
  108MOL0     C14510   6.203   6.207   5.514  0.7462 -0.6600  0.4296
  108MOL0     C14511   6.234   6.231   5.375  0.1829 -0.1307  0.0485
  108MOL0     C14512   6.299   6.123   5.282  0.6293 -0.5081 -0.3681
  108MOL0     H14513   6.293   6.658   5.178 -1.4750  1.6791 -0.5690
  108MOL0     H14514   6.384   6.824   5.005 -0.0651  0.8419 -2.5841
  108MOL0     H14515   6.258   7.026   4.856  0.1104 -0.1263 -0.3327
  108MOL0     H14516   6.425   6.969   4.849 -0.2556  1.3105  2.5922
  108MOL0     H14517   6.438   7.010   4.616  1.3944  2.3542  0.1081
  108MOL0     H14518   6.360   7.158   4.670 -1.3940  0.1504  1.8241
  108MOL0     H14519   6.137   7.021   4.632  1.0320 -3.2538  1.9470
  108MOL0     H14520   6.256   6.938   4.509  3.1717  1.7291 -1.2517
  108MOL0     H14521   6.146   7.141   4.392  2.6007  1.6029 -3.9983
  108MOL0     H14522   6.172   7.245   4.516 -2.2141 -1.3913  0.1128
  108MOL0     H14523   6.426   7.236   4.461 -0.6155 -1.3720  1.8059
  108MOL0     H14524   6.401   7.101   4.361 -1.9054 -1.3867  1.2546
  108MOL0     H14525   6.255   7.277   4.211 -1.9159 -0.4197  2.8706
  108MOL0     H14526   6.291   7.393   4.323  0.9900  0.8893 -0.6467
  108MOL0     H14527   6.522   7.396   4.293  0.2764 -1.4108 -0.0199
  108MOL0     H14528   6.429   7.445   4.158  0.9872  0.5647 -0.5899
  108MOL0     H14529   6.520   7.159   4.156 -0.2254  1.3660  3.9202
  108MOL0     H14530   6.489   7.273   4.021  2.8410  2.8776 -1.5321
  108MOL0     H14531   6.795   7.116   4.201  2.7314 -0.6733 -1.1680
  108MOL0     H14532   7.050   7.157   4.184  4.5311 -0.0893 -2.0624
  108MOL0     H14533   7.084   7.258   4.041  0.1986  1.1256 -1.1794
  108MOL0     H14534   7.210   7.341   4.251 -0.6110 -0.8493 -0.3538
  108MOL0     H14535   7.068   7.456   4.226 -1.3150 -0.1358 -1.3967
  108MOL0     H14536   7.055   7.222   4.429 -0.0704  0.8482  0.5633
  108MOL0     H14537   6.945   7.357   4.399 -0.4089  0.5059 -1.7942
  108MOL0     H14538   7.155   7.498   4.459  0.0864 -0.4360 -1.3800
  108MOL0     H14539   7.234   7.349   4.490  0.4917  0.9053 -0.6513
  108MOL0     H14540   7.225   7.630   4.603  2.9822  1.1091  0.5186
  108MOL0     H14541   7.273   7.763   4.798  0.9506 -0.4115  0.2468
  108MOL0     H14542   7.509   7.767   5.157 -0.7211  2.0792  0.1216
  108MOL0     H14543   7.600   7.888   5.330  1.2996 -1.3770 -2.7013
  108MOL0     H14544   7.625   7.779   5.771  1.9575 -1.7551 -0.0580
  108MOL0     H14545   7.679   7.691   5.631 -2.8760 -0.1593  0.8200
  108MOL0     H14546   7.830   7.880   5.576  0.9279 -0.3916 -0.1682
  108MOL0     H14547   7.773   7.962   5.722  0.9235  0.2070  0.3436
  108MOL0     H14548   7.867   7.806   5.874  1.8424 -0.8028  0.1923
  108MOL0     H14549   7.866   7.681   5.743 -2.1474  0.0963  0.6373
  108MOL0     H14550   8.044   7.924   5.703 -2.6520  0.1113 -0.4964
  108MOL0     H14551   8.047   7.762   5.624 -1.1216 -1.0986  0.7326
  108MOL0     H14552   8.101   7.674   5.856 -3.7342  0.2435  2.7290
  108MOL0     H14553   8.111   7.842   5.915  1.8839 -1.4832  1.1295
  108MOL0     H14554   8.343   7.772   5.878 -1.4819 -1.4261  0.2936
  108MOL0     H14555   8.298   7.716   5.715 -1.8196 -0.2121 -2.4383
  108MOL0     H14556   8.260   8.005   5.804  1.8505 -0.4827  2.1704
  108MOL0     H14557   8.258   7.931   5.639  0.2252 -2.4967 -0.9059
  108MOL0     H14558   8.454   8.064   5.686  1.2348  1.3247  4.1982
  108MOL0     H14559   8.502   7.963   5.816 -0.9389 -0.2900  1.1060
  108MOL0     H14560   7.364   7.669   5.624 -1.7200  1.5427 -0.7078
  108MOL0     H14561   7.238   7.593   5.453  1.5118  2.0267  4.0828
  108MOL0     H14562   7.155   7.436   5.048 -0.3109  1.2070  0.6753
  108MOL0     H14563   7.083   7.318   4.855 -0.8921  0.7159  0.6382
  108MOL0     H14564   6.104   6.672   4.725 -0.6190  1.9317  1.5757
  108MOL0     H14565   6.011   6.506   4.891  0.7498 -0.0003  0.2437
  108MOL0     H14566   6.062   6.525   5.365 -0.2098 -1.3696 -0.6592
  108MOL0     H14567   6.011   6.476   5.593  0.6242  0.9159 -1.3052
  108MOL0     H14568   5.928   6.307   5.765  1.1980 -2.8746 -1.7152
  108MOL0     H14569   6.037   6.438   5.809 -4.2905  1.0438 -2.0624
  108MOL0     H14570   5.962   6.318   6.012  0.2391 -2.4615  0.7706
  108MOL0     H14571   6.130   6.343   5.996  0.1041 -0.9070  2.5697
  108MOL0     H14572   6.161   6.090   5.943  0.2931 -1.5866  1.0079
  108MOL0     H14573   5.984   6.083   5.910  0.8590  0.3147 -1.4379
  108MOL0     H14574   5.934   6.130   6.144 -1.0238 -0.7450 -3.0690
  108MOL0     H14575   6.016   5.967   6.109 -1.0401 -0.8179  0.0397
  108MOL0     H14576   6.306   6.146   6.342  2.3311 -0.7399 -2.5393
  108MOL0     H14577   6.279   6.147   5.563  2.6069  2.1438  1.1996
  108MOL0     H14578   6.323   6.035   5.342 -0.9095  1.0716  2.7669
  108MOL0     H14579   6.225   6.104   5.203  0.5308  2.2138 -1.0276
  108MOL0     H14580   6.394   6.159   5.241 -1.3371  1.6212 -3.4855
  109MOL0     O14581   2.905   0.907   1.359  0.4484  0.5597 -0.3612
  109MOL0     C14582   2.862   0.980   1.448  0.3483  1.0553 -0.1942
  109MOL0     O14583   2.818   0.931   1.568  0.1644  0.5996  0.0336
  109MOL0     C14584   2.827   0.794   1.599 -0.1207  1.2540 -0.7054
  109MOL0     C14585   2.717   0.754   1.670  0.8177  0.5462  0.9691
  109MOL0     C14586   2.726   0.622   1.715  0.0117 -0.8425 -0.4143
  109MOL0     C14587   2.834   0.530   1.693  0.4021  0.9925 -0.1705
  109MOL0     O14588   2.820   0.404   1.742  0.0498  0.3553  0.8948
  109MOL0     C14589   2.823   0.406   1.883  0.5544 -0.0393 -0.3332
  109MOL0     C14590   2.969   0.399   1.927  0.3139 -0.4433 -0.2036
  109MOL0     C14591   3.020   0.258   1.933 -0.3499 -0.6678  0.6235
  109MOL0     C14592   2.965   0.163   2.046 -0.2495  0.4212 -0.0549
  109MOL0     C14593   3.002   0.014   2.018 -0.1442 -0.1278  0.1501
  109MOL0     C14594   3.011  -0.046   2.154 -1.0205 -0.4234  0.7709
  109MOL0     C14595   3.081  -0.181   2.149  0.4890  1.0883 -0.5692
  109MOL0     C14596   3.080  -0.251   2.287 -0.5305  1.3463  0.9639
  109MOL0     N14597   3.074  -0.395   2.270  0.6897 -0.2536  0.8738
  109MOL0     C14598   2.954  -0.466   2.247  0.2739 -0.2029 -0.1853
  109MOL0     C14599   3.006  -0.597   2.252  0.1786 -0.4107 -0.6514
  109MOL0     C14600   2.930  -0.719   2.255 -0.1039  0.9346 -0.2283
  109MOL0     C14601   2.841  -0.732   2.379 -0.5385 -0.2915  0.9845
  109MOL0     C14602   2.737  -0.832   2.350 -0.6478 -0.2416 -1.2245
  109MOL0     C14603   2.609  -0.823   2.440 -0.2063 -0.4407 -0.0946
  109MOL0     O14604   2.564  -0.687   2.444  0.4064 -0.1055 -0.1903
  109MOL0     C14605   2.454  -0.640   2.521 -0.6755  0.3752  0.3014
  109MOL0     C14606   2.467  -0.504   2.558 -0.5093  1.1470 -0.1122
  109MOL0     C14607   2.367  -0.446   2.630 -0.2763 -1.1167 -0.5172
  109MOL0     C14608   2.238  -0.508   2.661  0.4768 -0.1372 -0.4216
  109MOL0     C14609   2.139  -0.436   2.742 -0.2097 -0.3248 -0.0912
  109MOL0     O14610   2.037  -0.501   2.803 -0.8856  0.9696 -0.1465
  109MOL0     C14611   1.926  -0.426   2.833 -0.7023  0.1241 -0.8814
  109MOL0     C14612   1.814  -0.430   2.749  0.5303 -0.3277 -0.5804
  109MOL0     C14613   1.699  -0.360   2.788  0.8484 -0.0889  0.6806
  109MOL0     C14614   1.697  -0.292   2.907 -0.0963 -0.3986  0.1074
  109MOL0     O14615   1.585  -0.234   2.948  0.0374 -0.3304  0.0568
  109MOL0     C14616   1.559  -0.083   2.959 -1.1992  0.2664 -1.1477
  109MOL0     C14617   1.536   0.000   2.828 -0.3483 -0.7071  0.4279
  109MOL0     C14618   1.673   0.032   2.761  0.2548  0.2309  0.4815
  109MOL0     C14619   1.658   0.098   2.616  0.9264  1.1128 -0.3266
  109MOL0     C14620   1.798   0.160   2.563 -0.8068 -0.0524  1.8055
  109MOL0     C14621   1.872   0.058   2.469  0.6598 -0.1851 -0.1872
  109MOL0     C14622   1.883  -0.087   2.526  0.7268 -0.1585 -0.1242
  109MOL0     C14623   1.991  -0.174   2.458  0.0001  0.2580 -0.2813
  109MOL0    Cl14624   2.158  -0.091   2.468 -0.3036  0.4871 -0.3014
  109MOL0     C14625   1.817  -0.276   2.983 -0.8670  0.3111 -0.3431
  109MOL0     C14626   1.939  -0.342   2.946  1.2916  0.3960 -0.4417
  109MOL0     O14627   2.145  -0.313   2.729  0.3646  0.3960  0.5116
  109MOL0     C14628   2.229  -0.641   2.621 -0.1278  0.1376 -0.3027
  109MOL0     C14629   2.339  -0.705   2.560  0.3017 -0.0882  0.7255
  109MOL0     N14630   3.144  -0.600   2.262  0.6705 -0.3056 -0.1448
  109MOL0     N14631   3.184  -0.474   2.267 -1.0526  0.5968  0.2174
  109MOL0     C14632   2.940   0.582   1.617  0.6643 -0.3540  0.9613
  109MOL0     C14633   2.937   0.712   1.565  0.8924  0.8108  0.6944
  109MOL0     C14634   2.840   1.124   1.418 -0.3485  0.0422  0.7667
  109MOL0     C14635   2.832   1.167   1.283 -0.4941  0.2280  0.4809
  109MOL0     C14636   2.828   1.297   1.247 -0.3210  0.1191 -0.9412
  109MOL0     C14637   2.811   1.395   1.348 -0.6192  0.5131 -0.1167
  109MOL0     O14638   2.810   1.531   1.307 -0.0546  0.7222 -0.3904
  109MOL0     C14639   2.693   1.603   1.347 -0.3379  0.7490  0.7242
  109MOL0     C14640   2.692   1.743   1.281  0.2207  0.1832 -0.1987
  109MOL0     C14641   2.637   1.726   1.134  0.8369  1.4671 -0.3259
  109MOL0     C14642   2.662   1.845   1.046 -0.9070 -0.1806  0.0068
  109MOL0     C14643   2.658   1.823   0.900  1.3491  0.2320  0.3338
  109MOL0     C14644   2.666   1.819   0.785 -0.6140 -0.4751  0.9617
  109MOL0     C14645   2.803   1.356   1.482 -0.4650  0.3885  0.0073
  109MOL0     C14646   2.818   1.224   1.520 -1.2258  0.5609 -0.4010
  109MOL0     C14647   2.826   1.186   1.669 -0.4987  0.4382 -0.1538
  109MOL0     H14648   2.628   0.814   1.682 -1.7036 -0.7147 -6.2918
  109MOL0     H14649   2.643   0.585   1.774 -0.1916 -0.0117 -0.1544
  109MOL0     H14650   2.782   0.498   1.928 -0.0417 -1.0835  1.3502
  109MOL0     H14651   2.759   0.327   1.923  1.0746  0.1040  0.8457
  109MOL0     H14652   2.990   0.450   2.021 -0.4986  1.3863 -0.9608
  109MOL0     H14653   3.020   0.476   1.869  2.1913  0.4350  2.4043
  109MOL0     H14654   3.129   0.270   1.940 -0.5478  1.2238  1.2881
  109MOL0     H14655   3.004   0.219   1.832  0.8712  4.1308 -1.7472
  109MOL0     H14656   2.997   0.198   2.144  2.4398 -2.6374  0.3304
  109MOL0     H14657   2.856   0.171   2.040 -0.3493 -0.8248 -0.3312
  109MOL0     H14658   2.942  -0.043   1.947  0.7170  0.3259 -0.9780
  109MOL0     H14659   3.104   0.011   1.978  0.0075  0.4655  0.4907
  109MOL0     H14660   3.067   0.011   2.228 -3.7175  2.2313  0.9401
  109MOL0     H14661   2.911  -0.054   2.198 -1.6537 -1.0706 -0.7381
  109MOL0     H14662   3.184  -0.163   2.117  0.3563  1.4521 -0.7973
  109MOL0     H14663   3.042  -0.250   2.074  1.9951 -2.8378  1.9484
  109MOL0     H14664   3.172  -0.224   2.339 -0.3776  2.5305  0.1196
  109MOL0     H14665   2.988  -0.222   2.339 -3.0972 -1.9199 -1.3239
  109MOL0     H14666   2.849  -0.439   2.246 -0.0058 -1.1153  1.4469
  109MOL0     H14667   2.880  -0.724   2.158  0.8348 -3.7457 -0.6971
  109MOL0     H14668   3.002  -0.802   2.257  1.4142  2.2147  0.4677
  109MOL0     H14669   2.896  -0.761   2.469 -0.0803  0.6772  1.0219
  109MOL0     H14670   2.796  -0.636   2.407  0.3184 -0.2503  2.3039
  109MOL0     H14671   2.788  -0.928   2.354 -1.5801 -0.9131 -3.5798
  109MOL0     H14672   2.702  -0.805   2.249  1.6006  0.8370 -1.7864
  109MOL0     H14673   2.646  -0.853   2.539  1.2828  2.6116  0.4006
  109MOL0     H14674   2.532  -0.895   2.411 -0.5333 -1.3118  2.6415
  109MOL0     H14675   2.564  -0.462   2.535  1.5033 -3.3563 -1.0103
  109MOL0     H14676   2.387  -0.344   2.661 -0.9839 -1.5229  1.4012
  109MOL0     H14677   1.813  -0.500   2.666 -0.5159  1.0353 -1.7686
  109MOL0     H14678   1.609  -0.367   2.729  0.8873 -0.8982  0.7086
  109MOL0     H14679   1.464  -0.077   3.012 -0.8265 -1.1949 -0.2666
  109MOL0     H14680   1.643  -0.039   3.014 -0.3627 -0.9243 -1.4314
  109MOL0     H14681   1.468  -0.048   2.757 -2.5732  0.3968  1.7025
  109MOL0     H14682   1.486   0.093   2.856  3.2165  1.2051  1.1652
  109MOL0     H14683   1.733   0.092   2.829  1.4755  0.3679 -0.6697
  109MOL0     H14684   1.723  -0.065   2.754  0.3211  0.2078  1.2256
  109MOL0     H14685   1.577   0.172   2.612 -0.1701 -0.0996 -1.0632
  109MOL0     H14686   1.614   0.023   2.550 -0.8006 -1.2122  3.1595
  109MOL0     H14687   1.869   0.198   2.637 -0.2294  0.3677  1.0514
  109MOL0     H14688   1.766   0.247   2.505  0.6973 -0.4560  0.3027
  109MOL0     H14689   1.803   0.047   2.384 -0.0684  2.2117  0.0070
  109MOL0     H14690   1.974   0.081   2.437  0.8854 -0.8415  0.0446
  109MOL0     H14691   1.787  -0.135   2.507  1.3680 -1.8378  0.6849
  109MOL0     H14692   1.904  -0.095   2.633  0.8404  2.9715  0.1622
  109MOL0     H14693   1.991  -0.279   2.491 -1.5741 -0.2712 -1.7423
  109MOL0     H14694   1.982  -0.174   2.349  1.3575  4.1403 -0.5202
  109MOL0     H14695   1.822  -0.207   3.067  0.7803 -3.5405  3.0823
  109MOL0     H14696   2.030  -0.343   3.005  0.7693 -2.4914  0.4856
  109MOL0     H14697   2.132  -0.689   2.626 -0.9877  1.7494 -0.5756
  109MOL0     H14698   2.323  -0.807   2.526  0.1451  0.5605 -1.2673
  109MOL0     H14699   3.034   0.532   1.594 -0.8513 -1.8889 -2.6097
  109MOL0     H14700   3.019   0.745   1.502 -1.8708  0.6843 -3.3186
  109MOL0     H14701   2.859   1.095   1.206  0.6406  0.7574  0.3614
  109MOL0     H14702   2.840   1.329   1.144 -2.1227 -2.6961 -2.1460
  109MOL0     H14703   2.717   1.606   1.454 -0.2501 -3.5307  0.9805
  109MOL0     H14704   2.599   1.549   1.333  0.8735 -0.8617 -1.8269
  109MOL0     H14705   2.791   1.790   1.280  0.5277 -0.4176 -2.2730
  109MOL0     H14706   2.617   1.802   1.336 -0.5829 -2.1427  1.3494
  109MOL0     H14707   2.532   1.701   1.147  0.9089  1.5007  0.3205
  109MOL0     H14708   2.696   1.653   1.078  0.0085 -0.1987  0.8844
  109MOL0     H14709   2.586   1.918   1.073  0.3779  1.2680 -0.1562
  109MOL0     H14710   2.764   1.881   1.066 -0.5834 -0.5498 -0.9020
  109MOL0     H14711   2.674   1.794   0.681 -1.8698  1.6882  0.2877
  109MOL0     H14712   2.781   1.426   1.562 -0.8872  2.4180 -1.7776
  109MOL0     H14713   2.841   1.272   1.735 -0.1174  1.3540 -1.3981
  109MOL0     H14714   2.736   1.134   1.703 -0.6519 -1.8907 -3.6267
  109MOL0     H14715   2.905   1.113   1.692 -2.0915 -0.6578  2.1965
  110MOL0     O14716   0.826   2.201   2.401 -0.1055  0.5157 -0.4274
  110MOL0     C14717   0.737   2.226   2.486  0.8259  0.6219 -0.1320
  110MOL0     O14718   0.620   2.156   2.495  0.0695  0.6874 -0.3123
  110MOL0     C14719   0.591   2.057   2.401 -0.8009  0.8435 -1.1086
  110MOL0     C14720   0.483   2.091   2.308  0.2972 -0.4126  0.5395
  110MOL0     C14721   0.433   1.996   2.218 -0.3247  0.0685 -0.0229
  110MOL0     C14722   0.488   1.869   2.228  0.6787 -0.1855  0.7121
  110MOL0     O14723   0.418   1.772   2.151  0.4808  0.4118 -0.8011
  110MOL0     C14724   0.402   1.636   2.201 -0.3761 -0.1882 -0.5345
  110MOL0     C14725   0.343   1.558   2.081 -0.8899 -0.2632 -0.1450
  110MOL0     C14726   0.190   1.584   2.062  0.4427  0.6829  0.8088
  110MOL0     C14727   0.136   1.489   1.953 -0.0871 -0.2228 -0.4856
  110MOL0     C14728  -0.017   1.475   1.954 -0.0278 -0.0810 -0.4192
  110MOL0     C14729  -0.104   1.598   2.011 -0.0575  0.5438  0.5713
  110MOL0     C14730  -0.244   1.592   1.948  0.2665  0.6735 -0.7684
  110MOL0     C14731  -0.317   1.467   2.000  0.1324 -0.1686  0.4220
  110MOL0     N14732  -0.462   1.484   1.983  0.5264 -0.2339  0.0340
  110MOL0     C14733  -0.540   1.382   1.921 -0.3789  0.5483 -0.2611
  110MOL0     C14734  -0.668   1.418   1.961  1.4477 -0.2292 -0.8861
  110MOL0     C14735  -0.799   1.365   1.906  0.7893 -0.3828 -0.3912
  110MOL0     C14736  -0.811   1.405   1.765 -0.1745 -0.2344  0.6224
  110MOL0     C14737  -0.943   1.378   1.699  0.4387  0.4736 -0.9492
  110MOL0     C14738  -0.932   1.376   1.545 -0.2084  0.2957 -0.0547
  110MOL0     O14739  -0.843   1.279   1.489  0.5452  0.2402  0.5119
  110MOL0     C14740  -0.858   1.148   1.509 -0.3963 -0.3884  0.9976
  110MOL0     C14741  -0.972   1.075   1.547 -0.0091  0.1066 -0.6434
  110MOL0     C14742  -0.956   0.939   1.576  0.5670  0.3426 -0.0840
  110MOL0     C14743  -0.841   0.860   1.539  0.3824 -0.2792  0.3103
  110MOL0     C14744  -0.833   0.711   1.535 -0.0084  0.7098 -0.0555
  110MOL0     O14745  -0.945   0.640   1.564  0.1585 -0.6535  0.1553
  110MOL0     C14746  -0.934   0.509   1.616  0.1506  0.3644 -0.2506
  110MOL0     C14747  -0.924   0.486   1.754 -1.4944 -0.4592 -0.7031
  110MOL0     C14748  -0.916   0.351   1.804  0.1564 -0.1448 -0.1532
  110MOL0     C14749  -0.938   0.235   1.719  0.1108 -0.7411 -0.0301
  110MOL0     O14750  -0.940   0.115   1.786  1.3581  0.5888  0.4085
  110MOL0     C14751  -0.921  -0.006   1.714 -0.2950  0.8681  0.0602
  110MOL0     C14752  -0.848  -0.098   1.806 -0.8013  1.0528 -0.7402
  110MOL0     C14753  -0.702  -0.077   1.822 -0.1683 -0.6469  0.3243
  110MOL0     C14754  -0.652  -0.060   1.972 -0.2720 -0.6753  0.2320
  110MOL0     C14755  -0.500  -0.081   1.986 -0.6273  0.1104 -0.2218
  110MOL0     C14756  -0.457  -0.228   2.008  0.2551 -0.3575  0.8166
  110MOL0     C14757  -0.378  -0.247   2.142 -0.3039  0.7870 -0.6003
  110MOL0     C14758  -0.243  -0.177   2.141 -0.6337  0.5906  0.0245
  110MOL0    Cl14759  -0.130  -0.236   2.011  0.5378 -0.0823  0.2882
  110MOL0     C14760  -0.948   0.262   1.580 -1.3199 -0.0017  0.5959
  110MOL0     C14761  -0.943   0.398   1.532  1.3062  0.1340 -0.4261
  110MOL0     O14762  -0.725   0.658   1.518 -0.2659 -0.6388 -0.6000
  110MOL0     C14763  -0.730   0.940   1.497  0.2896  0.6025 -0.6084
  110MOL0     C14764  -0.742   1.075   1.472 -0.0613 -0.4418 -0.4393
  110MOL0     N14765  -0.668   1.521   2.055 -0.8675  0.3323 -0.1573
  110MOL0     N14766  -0.549   1.571   2.051  0.1608  0.4257 -0.1958
  110MOL0     C14767   0.595   1.840   2.323  1.3592  0.6048  0.7712
  110MOL0     C14768   0.646   1.929   2.413 -0.2022 -0.5940  0.4895
  110MOL0     C14769   0.750   2.333   2.587  0.0686 -0.0896 -0.8280
  110MOL0     C14770   0.635   2.396   2.629  0.9592 -0.7083  0.1201
  110MOL0     C14771   0.645   2.515   2.706 -0.0476  0.4413 -0.3445
  110MOL0     C14772   0.761   2.572   2.731 -0.2824  0.6800 -0.0434
  110MOL0     O14773   0.739   2.697   2.790  0.1153 -0.2376 -0.6968
  110MOL0     C14774   0.852   2.785   2.820 -0.0215 -0.1430  0.1396
  110MOL0     C14775   0.834   2.811   2.973 -0.5366 -0.1009 -0.1463
  110MOL0     C14776   0.954   2.889   3.024 -0.0331  0.6567  0.7648
  110MOL0     C14777   0.958   2.882   3.182 -0.5380  0.0644 -0.3205
  110MOL0     C14778   1.099   2.923   3.215 -0.5625 -0.3369  0.3407
  110MOL0     C14779   1.214   2.947   3.252 -0.4772 -0.2182  0.4418
  110MOL0     C14780   0.886   2.508   2.693  0.7515  1.2589 -0.1077
  110MOL0     C14781   0.877   2.393   2.617  0.8845  0.0197 -0.0688
  110MOL0     C14782   1.006   2.345   2.555 -0.0023  0.6214 -0.5551
  110MOL0     H14783   0.460   2.197   2.302  1.3413 -0.2644 -1.4691
  110MOL0     H14784   0.362   2.033   2.145 -2.0199  2.3701  2.5896
  110MOL0     H14785   0.502   1.597   2.224 -0.7152 -0.5342  0.4148
  110MOL0     H14786   0.339   1.632   2.291 -2.5834  1.4100 -1.9037
  110MOL0     H14787   0.369   1.457   2.114  0.9030  0.2777  0.2022
  110MOL0     H14788   0.380   1.574   1.979 -0.7971  3.0754  0.3148
  110MOL0     H14789   0.170   1.690   2.045  1.6058  0.6467 -1.1844
  110MOL0     H14790   0.143   1.554   2.156  0.5910  1.7959  1.2516
  110MOL0     H14791   0.163   1.529   1.855 -0.9640 -0.4883 -0.8393
  110MOL0     H14792   0.186   1.393   1.972  3.1606  1.6325  1.2299
  110MOL0     H14793  -0.046   1.455   1.850  0.8976 -0.6524 -0.5770
  110MOL0     H14794  -0.034   1.387   2.016  1.2911  1.5407  2.4121
  110MOL0     H14795  -0.110   1.602   2.121 -3.0189  2.3300  0.4539
  110MOL0     H14796  -0.066   1.697   1.984 -2.3328  1.9954  2.3019
  110MOL0     H14797  -0.232   1.596   1.839  3.9395  0.5513 -0.4954
  110MOL0     H14798  -0.304   1.681   1.967 -2.3963 -0.4399 -3.2183
  110MOL0     H14799  -0.273   1.387   1.939  4.4833 -0.8421  3.9357
  110MOL0     H14800  -0.289   1.451   2.104  6.5983 -4.3030 -1.3502
  110MOL0     H14801  -0.506   1.308   1.849  0.2938  0.6998 -0.1021
  110MOL0     H14802  -0.813   1.257   1.907  0.9068 -0.3990 -0.4602
  110MOL0     H14803  -0.873   1.410   1.973  2.4357 -0.9955  1.9835
  110MOL0     H14804  -0.774   1.508   1.757  0.2507 -0.1901  2.6428
  110MOL0     H14805  -0.740   1.341   1.711  1.3950  0.5351  1.6828
  110MOL0     H14806  -1.021   1.446   1.733  0.1318  0.6014 -1.8815
  110MOL0     H14807  -0.973   1.278   1.733 -0.0969 -0.1586 -3.1235
  110MOL0     H14808  -0.900   1.473   1.504  0.8514 -1.4121 -3.6324
  110MOL0     H14809  -1.032   1.363   1.504  0.4226  0.2393 -1.6638
  110MOL0     H14810  -1.061   1.133   1.569  1.3070  0.9763  3.2330
  110MOL0     H14811  -1.048   0.893   1.609 -0.1854  2.3633  0.7804
  110MOL0     H14812  -0.897   0.565   1.824 -1.3250 -2.8810  2.1521
  110MOL0     H14813  -0.904   0.319   1.907 -0.6390  0.5135  0.1522
  110MOL0     H14814  -1.019  -0.048   1.693  1.8324 -6.0073  1.3737
  110MOL0     H14815  -0.866   0.016   1.622 -1.8681 -0.9075 -1.3678
  110MOL0     H14816  -0.898  -0.090   1.903  0.2077  1.8304 -0.2657
  110MOL0     H14817  -0.864  -0.195   1.757 -0.9145  0.6332  0.1156
  110MOL0     H14818  -0.649  -0.161   1.777 -0.7349 -0.9437  0.1903
  110MOL0     H14819  -0.674   0.015   1.771 -2.3411  0.4298  0.9373
  110MOL0     H14820  -0.711  -0.119   2.043 -2.0722 -0.3996 -0.9751
  110MOL0     H14821  -0.668   0.047   1.984  3.1153 -0.0268 -0.1076
  110MOL0     H14822  -0.451  -0.019   2.061 -1.2354  1.3861 -0.8558
  110MOL0     H14823  -0.458  -0.047   1.891 -0.3195  0.2319 -0.0435
  110MOL0     H14824  -0.539  -0.301   2.007 -0.3775  0.3418 -0.0351
  110MOL0     H14825  -0.385  -0.240   1.927  1.3367  4.0847  0.8506
  110MOL0     H14826  -0.367  -0.354   2.156  2.2679  1.4402  4.4331
  110MOL0     H14827  -0.438  -0.209   2.225  0.1724 -0.0623  0.1510
  110MOL0     H14828  -0.257  -0.071   2.115 -1.1248  0.6894  0.6691
  110MOL0     H14829  -0.190  -0.188   2.236  0.8274  0.3824 -0.7919
  110MOL0     H14830  -0.947   0.173   1.518  1.4535  0.9999 -1.0143
  110MOL0     H14831  -0.944   0.422   1.426  0.9239 -1.9905 -0.9544
  110MOL0     H14832  -0.638   0.886   1.477  0.5922  1.8426 -2.9923
  110MOL0     H14833  -0.655   1.136   1.450 -0.5538  0.9546  1.2427
  110MOL0     H14834   0.630   1.737   2.329  0.1120  0.1083 -0.0266
  110MOL0     H14835   0.717   1.897   2.488 -0.5438 -0.3489  0.9193
  110MOL0     H14836   0.534   2.364   2.608  0.4394  0.9772 -0.0995
  110MOL0     H14837   0.544   2.554   2.715 -0.1927  0.2238 -1.0539
  110MOL0     H14838   0.849   2.879   2.764  2.5008  1.0290  1.8295
  110MOL0     H14839   0.949   2.738   2.807  0.9935  0.8876  3.1763
  110MOL0     H14840   0.825   2.715   3.023  0.9390 -1.0157 -1.5276
  110MOL0     H14841   0.739   2.861   2.996  0.4927  2.4465 -1.0273
  110MOL0     H14842   0.959   2.988   2.976  3.5618  0.4665  0.4626
  110MOL0     H14843   1.043   2.844   2.979 -0.8579  0.6535 -0.9757
  110MOL0     H14844   0.877   2.937   3.229 -1.9059  0.3992 -2.8711
  110MOL0     H14845   0.939   2.780   3.219 -0.0003 -0.1877 -0.7250
  110MOL0     H14846   1.317   2.968   3.268 -0.3623 -0.2486 -0.2376
  110MOL0     H14847   0.979   2.559   2.715  1.7726 -1.6447  3.1528
  110MOL0     H14848   1.005   2.343   2.445 -0.6022  3.4160 -0.6880
  110MOL0     H14849   1.093   2.407   2.580  2.4486 -3.8396  3.6456
  110MOL0     H14850   1.043   2.250   2.594  1.2202  1.1173 -0.4375
  111MOL0     O14851   8.710   2.973   6.985 -0.2171 -0.5641  0.1656
  111MOL0     C14852   8.696   3.001   7.103 -0.5244 -0.7658  0.1294
  111MOL0     O14853   8.797   3.047   7.186 -0.1105  0.5248 -0.2855
  111MOL0     C14854   8.909   3.112   7.142  0.5358 -0.1703  0.5984
  111MOL0     C14855   9.012   3.132   7.241 -0.0689  0.8144 -0.6341
  111MOL0     C14856   9.110   3.226   7.215  0.7289 -0.3288 -0.3921
  111MOL0     C14857   9.121   3.294   7.093  0.5059 -0.1074 -0.8391
  111MOL0     O14858   9.219   3.391   7.067 -0.4999  0.8019  0.2711
  111MOL0     C14859   9.335   3.362   7.135  0.5951  0.0249 -0.2436
  111MOL0     C14860   9.448   3.457   7.093 -1.3285 -1.3520 -1.0078
  111MOL0     C14861   9.462   3.421   6.940  0.9623  0.6294 -0.2257
  111MOL0     C14862   9.577   3.490   6.875 -0.0803  0.2396  1.1343
  111MOL0     C14863   9.607   3.462   6.723 -0.8091 -0.1573 -0.2063
  111MOL0     C14864   9.753   3.522   6.685  0.4092 -0.0461  0.6438
  111MOL0     C14865   9.774   3.534   6.529 -0.1782  0.0749  0.0488
  111MOL0     C14866   9.911   3.597   6.500 -0.4163  0.5394 -0.2832
  111MOL0     N14867   9.919   3.586   6.358  0.5054  0.5544  0.5260
  111MOL0     C14868   9.961   3.477   6.288  0.1883  0.0984  0.0070
  111MOL0     C14869   9.927   3.502   6.155 -0.2059  0.0178 -0.9528
  111MOL0     C14870   9.969   3.415   6.035 -0.4564  0.2210 -1.0186
  111MOL0     C14871  10.123   3.399   6.019 -0.4649 -0.3654 -0.3354
  111MOL0     C14872  10.149   3.344   5.877 -0.2664 -0.4270 -0.3961
  111MOL0     C14873  10.138   3.195   5.883  0.1328 -0.0069  0.3338
  111MOL0     O14874  10.184   3.137   5.757 -0.4934 -0.1118  0.1071
  111MOL0     C14875  10.316   3.111   5.755 -0.4363  0.3858  0.0314
  111MOL0     C14876  10.396   3.041   5.856  0.1863 -0.0407  0.3270
  111MOL0     C14877  10.527   3.005   5.821 -0.4226  0.8742  1.0458
  111MOL0     C14878  10.571   3.015   5.690  0.0875 -0.1029  0.2052
  111MOL0     C14879  10.710   2.965   5.648  0.5973 -0.6515 -0.3944
  111MOL0     O14880  10.743   2.950   5.516  0.2064 -0.1858  0.3050
  111MOL0     C14881  10.868   2.912   5.478  0.1978  0.0122 -0.8790
  111MOL0     C14882  10.884   2.820   5.380  0.1795 -0.6737  0.6191
  111MOL0     C14883  11.013   2.784   5.335 -0.7833  0.0999  0.1519
  111MOL0     C14884  11.129   2.844   5.398  1.2428 -0.0638  0.3202
  111MOL0     O14885  11.256   2.803   5.364 -0.4293 -0.9930  0.5281
  111MOL0     C14886  11.285   2.732   5.241 -0.6657 -0.6301  0.3176
  111MOL0     C14887  11.279   2.587   5.260 -0.4596  0.8824  0.1853
  111MOL0     C14888  11.395   2.531   5.337 -0.2921 -0.9616 -0.1051
  111MOL0     C14889  11.396   2.553   5.491 -0.3480  0.2161 -0.2847
  111MOL0     C14890  11.497   2.472   5.558  0.1547  0.2129 -0.3814
  111MOL0     C14891  11.487   2.492   5.710  0.4346  0.3279  0.4007
  111MOL0     C14892  11.588   2.590   5.764 -0.2985 -0.1599 -0.9214
  111MOL0     C14893  11.562   2.616   5.913  0.1677 -0.4350 -0.8004
  111MOL0    Cl14894  11.639   2.484   6.001 -0.0166 -0.7411 -0.2561
  111MOL0     C14895  11.106   2.936   5.496 -0.0529  0.0392 -0.0542
  111MOL0     C14896  10.978   2.974   5.536 -0.0954  0.2909  0.2511
  111MOL0     O14897  10.785   2.953   5.743  0.1272 -0.1403  0.3818
  111MOL0     C14898  10.496   3.072   5.595  0.2222 -0.4822  0.5675
  111MOL0     C14899  10.375   3.125   5.636 -0.0267  0.2398 -1.5632
  111MOL0     N14900   9.849   3.615   6.153 -0.0523  0.2370 -0.6797
  111MOL0     N14901   9.846   3.660   6.272 -0.2018 -0.6584  0.1695
  111MOL0     C14902   9.020   3.273   7.003 -0.1378  0.3104  0.6421
  111MOL0     C14903   8.923   3.180   7.016 -0.2451 -0.2185 -0.9773
  111MOL0     C14904   8.589   2.939   7.175  0.4787  0.7325 -1.2178
  111MOL0     C14905   8.614   2.871   7.297 -0.7326  0.1967 -1.0427
  111MOL0     C14906   8.505   2.810   7.373 -0.2055 -0.3719  0.5469
  111MOL0     C14907   8.374   2.827   7.326  0.6199 -0.1696 -1.0022
  111MOL0     O14908   8.268   2.789   7.401 -1.6086 -0.3860 -0.3128
  111MOL0     C14909   8.279   2.694   7.503 -0.2846 -0.5946  0.2365
  111MOL0     C14910   8.341   2.560   7.453 -0.0201  0.5988  0.8718
  111MOL0     C14911   8.275   2.512   7.329 -0.5286  0.5746  0.4631
  111MOL0     C14912   8.335   2.383   7.280  0.1102  0.5595  0.0986
  111MOL0     C14913   8.288   2.337   7.147 -0.3554 -0.7282 -0.8673
  111MOL0     C14914   8.249   2.300   7.046  0.7826  0.6678 -0.6843
  111MOL0     C14915   8.352   2.905   7.216 -0.0157  0.3198  0.6609
  111MOL0     C14916   8.452   2.956   7.136  0.3524  0.5913  0.0897
  111MOL0     C14917   8.402   3.042   7.015 -0.7824 -0.1001  0.1661
  111MOL0     H14918   9.011   3.072   7.331  2.9125  2.0188  0.3297
  111MOL0     H14919   9.184   3.235   7.293  1.2146  1.5066 -1.0286
  111MOL0     H14920   9.322   3.389   7.240 -1.2932  1.1548 -0.7197
  111MOL0     H14921   9.365   3.257   7.128 -3.2304 -1.3756  1.3979
  111MOL0     H14922   9.543   3.440   7.144 -1.9500  0.6373  0.9752
  111MOL0     H14923   9.419   3.562   7.100  2.1230 -0.1929 -2.1739
  111MOL0     H14924   9.371   3.442   6.882  1.8355  0.9679 -1.4992
  111MOL0     H14925   9.482   3.313   6.937 -0.2381  0.2958  1.7912
  111MOL0     H14926   9.558   3.596   6.890  1.6980  0.8665 -0.6956
  111MOL0     H14927   9.671   3.475   6.928 -0.0337 -1.1054  0.7207
  111MOL0     H14928   9.588   3.360   6.687  2.5630 -0.9909 -0.0040
  111MOL0     H14929   9.528   3.519   6.673  0.5755  1.3028 -0.8096
  111MOL0     H14930   9.768   3.608   6.751 -3.4834 -1.5529  3.9581
  111MOL0     H14931   9.824   3.453   6.731  1.5518  1.0579  0.5759
  111MOL0     H14932   9.693   3.587   6.479  1.4801  0.9207 -1.8676
  111MOL0     H14933   9.751   3.437   6.484 -2.0233 -0.1491  1.3897
  111MOL0     H14934   9.919   3.700   6.537 -2.3797  1.3954 -2.0372
  111MOL0     H14935   9.992   3.535   6.540 -0.6135 -1.4008 -2.6853
  111MOL0     H14936  10.024   3.400   6.330 -0.2788  0.3764  1.2633
  111MOL0     H14937   9.922   3.317   6.027  0.5042 -0.5426  1.7064
  111MOL0     H14938   9.936   3.464   5.942 -0.4486 -0.2084 -1.2501
  111MOL0     H14939  10.172   3.496   6.030 -4.5893  1.7911  1.1516
  111MOL0     H14940  10.162   3.339   6.102 -0.1031 -2.2209 -1.7596
  111MOL0     H14941  10.253   3.373   5.862 -0.1693  1.2602  2.6592
  111MOL0     H14942  10.092   3.387   5.793  3.6513  0.4051 -2.8935
  111MOL0     H14943  10.034   3.170   5.907  0.1387  0.6862  1.1476
  111MOL0     H14944  10.203   3.158   5.963  0.4890 -1.7315 -0.7056
  111MOL0     H14945  10.365   3.013   5.956 -1.1500  4.0916  1.2393
  111MOL0     H14946  10.597   2.948   5.880 -0.6475 -1.4504 -0.7674
  111MOL0     H14947  10.794   2.784   5.330  0.6779 -2.1982  0.7484
  111MOL0     H14948  11.014   2.712   5.254 -2.8355  2.1177 -1.8144
  111MOL0     H14949  11.225   2.764   5.155  0.7598  2.3031  0.2986
  111MOL0     H14950  11.386   2.763   5.213 -1.5950  2.7332  0.1527
  111MOL0     H14951  11.193   2.555   5.319  1.2944  0.0552  2.4520
  111MOL0     H14952  11.270   2.531   5.166 -0.3222  1.4104 -0.1450
  111MOL0     H14953  11.397   2.422   5.336  0.9092 -0.9697  0.8821
  111MOL0     H14954  11.494   2.561   5.302 -0.5959 -0.3702 -0.4848
  111MOL0     H14955  11.298   2.523   5.530  0.6345 -0.4625  1.8166
  111MOL0     H14956  11.417   2.657   5.517  0.3351  0.5949 -2.1914
  111MOL0     H14957  11.599   2.488   5.522  1.3711 -2.6247  1.4587
  111MOL0     H14958  11.474   2.366   5.546  1.2518  0.0309 -0.9429
  111MOL0     H14959  11.387   2.528   5.734  0.3955  1.4891 -1.3779
  111MOL0     H14960  11.490   2.395   5.762 -0.5552  0.5357  0.8604
  111MOL0     H14961  11.571   2.684   5.710 -2.2794  2.0190  3.0215
  111MOL0     H14962  11.693   2.561   5.754  0.2113  0.0686  2.3946
  111MOL0     H14963  11.599   2.714   5.944  1.7496 -1.8699  2.4430
  111MOL0     H14964  11.454   2.605   5.923  0.3123 -1.3334  0.0133
  111MOL0     H14965  11.183   2.959   5.568  0.0150 -1.2797  0.3199
  111MOL0     H14966  10.973   3.060   5.603 -0.5945 -0.1757  0.8279
  111MOL0     H14967  10.523   3.088   5.491  0.9239 -1.7145  0.5409
  111MOL0     H14968  10.324   3.183   5.560 -1.2854  0.6743 -0.4323
  111MOL0     H14969   9.037   3.337   6.918  0.8473  1.2926  1.5422
  111MOL0     H14970   8.864   3.157   6.928 -1.5305 -1.5401  0.1556
  111MOL0     H14971   8.714   2.846   7.330 -1.1288 -1.2058 -0.8470
  111MOL0     H14972   8.533   2.754   7.462  0.4380 -2.3208 -0.8174
  111MOL0     H14973   8.184   2.677   7.554 -0.1963 -0.8040  0.3317
  111MOL0     H14974   8.342   2.729   7.586 -0.9617 -1.5082  1.1461
  111MOL0     H14975   8.318   2.478   7.521 -0.1007  0.0226  0.1481
  111MOL0     H14976   8.448   2.560   7.429  0.0081 -0.4864  0.9548
  111MOL0     H14977   8.272   2.588   7.250 -0.9339 -1.3515 -1.4496
  111MOL0     H14978   8.172   2.496   7.361  0.2949  0.1137  3.0802
  111MOL0     H14979   8.444   2.387   7.270 -0.0046 -0.4261 -2.0952
  111MOL0     H14980   8.297   2.316   7.358  1.4085  1.7778  1.8506
  111MOL0     H14981   8.219   2.289   6.944  1.1991  0.0437 -0.7443
  111MOL0     H14982   8.246   2.918   7.202 -0.6656 -3.5924  0.8335
  111MOL0     H14983   8.306   3.092   7.034 -1.6084 -1.6493  0.1737
  111MOL0     H14984   8.472   3.122   6.989 -3.7965  2.9100  0.5602
  111MOL0     H14985   8.394   2.979   6.927 -1.4674 -0.4991  0.5051
  112MOL0     O14986   9.222   8.967   8.631 -0.4564  0.6478 -0.0769
  112MOL0     C14987   9.272   8.888   8.709 -0.6590 -0.1977  0.2386
  112MOL0     O14988   9.260   8.753   8.701 -1.0355 -0.0262  0.5113
  112MOL0     C14989   9.172   8.707   8.607  0.0812 -0.5336 -0.7347
  112MOL0     C14990   9.186   8.739   8.473 -1.1944  0.9124  0.3131
  112MOL0     C14991   9.097   8.677   8.378 -0.2649  0.4308 -0.1833
  112MOL0     C14992   8.996   8.586   8.418 -0.7296  0.3566 -0.7169
  112MOL0     O14993   8.901   8.544   8.327  0.7146 -0.3264  1.2540
  112MOL0     C14994   8.765   8.520   8.384  0.8185 -0.2959 -0.6493
  112MOL0     C14995   8.660   8.501   8.278 -0.1984  0.0824  0.1543
  112MOL0     C14996   8.679   8.358   8.226  0.5046  0.3765  1.0201
  112MOL0     C14997   8.587   8.322   8.112  0.4456 -1.2844 -0.2923
  112MOL0     C14998   8.652   8.359   7.978 -0.3898  0.4540  0.0015
  112MOL0     C14999   8.572   8.335   7.849  0.7289 -0.2517  0.3154
  112MOL0     C15000   8.630   8.405   7.724  0.3043 -1.2350 -0.6995
  112MOL0     C15001   8.601   8.565   7.712 -0.4966 -0.3746 -0.2521
  112MOL0     N15002   8.657   8.611   7.590  0.2701  0.3505 -0.5708
  112MOL0     C15003   8.609   8.588   7.461 -0.7688  0.2029  0.1380
  112MOL0     C15004   8.702   8.662   7.379 -0.2133  0.5599  1.8062
  112MOL0     C15005   8.705   8.676   7.226 -0.4670  0.2899 -0.3483
  112MOL0     C15006   8.734   8.540   7.150 -1.0848  0.4697  0.1772
  112MOL0     C15007   8.882   8.510   7.133  0.3246 -0.4246  0.0837
  112MOL0     C15008   8.915   8.380   7.065 -0.7360  0.0683 -0.6635
  112MOL0     O15009   8.969   8.385   6.936 -0.4677 -0.3685  0.3217
  112MOL0     C15010   9.100   8.434   6.912  0.2063 -0.2865  0.0225
  112MOL0     C15011   9.110   8.517   6.801  0.9612 -0.0284 -1.0202
  112MOL0     C15012   9.236   8.561   6.760  1.3066  0.9471 -0.7940
  112MOL0     C15013   9.350   8.517   6.833 -0.2182  0.6828 -0.2279
  112MOL0     C15014   9.479   8.587   6.799  0.9247 -0.0285 -0.5911
  112MOL0     O15015   9.581   8.596   6.891  0.0894 -0.1066  0.3271
  112MOL0     C15016   9.696   8.669   6.864  0.3301  0.1717 -1.2117
  112MOL0     C15017   9.746   8.758   6.966 -0.0988 -0.3907  0.5973
  112MOL0     C15018   9.843   8.857   6.934  1.0267  0.0200 -1.0883
  112MOL0     C15019   9.906   8.854   6.808  0.0391 -0.1292 -1.2639
  112MOL0     O15020  10.010   8.937   6.765 -1.5481  0.5998  0.0354
  112MOL0     C15021   9.978   9.073   6.738 -0.2403 -0.4006 -0.2299
  112MOL0     C15022  10.108   9.128   6.680  0.5315  0.2106  0.1736
  112MOL0     C15023  10.218   9.118   6.782  0.0531 -0.3110  0.1240
  112MOL0     C15024  10.338   9.187   6.730  1.2120 -0.5398 -0.1571
  112MOL0     C15025  10.369   9.322   6.797 -0.0529 -1.3489  0.5621
  112MOL0     C15026  10.266   9.423   6.755 -0.4386  0.0587  0.1673
  112MOL0     C15027  10.299   9.566   6.821  0.3772 -0.2555  0.7241
  112MOL0     C15028  10.200   9.667   6.758  0.8045 -0.2736  0.3988
  112MOL0    Cl15029  10.247   9.735   6.608 -0.1343 -0.0799  0.2416
  112MOL0     C15030   9.854   8.764   6.712 -0.1938 -0.8553  0.2237
  112MOL0     C15031   9.745   8.676   6.738 -0.5770  0.6364  1.0105
  112MOL0     O15032   9.484   8.634   6.684 -0.4352  0.0918  0.1759
  112MOL0     C15033   9.332   8.458   6.954 -0.0314  0.2413 -0.5319
  112MOL0     C15034   9.208   8.404   6.990 -0.8003  0.0803  0.3738
  112MOL0     N15035   8.787   8.724   7.463  0.8340  0.4551  1.3601
  112MOL0     N15036   8.771   8.692   7.583  0.4189  0.2213  0.4755
  112MOL0     C15037   8.988   8.556   8.559 -0.2184  0.3647  0.4165
  112MOL0     C15038   9.084   8.610   8.648 -0.0237  0.4666 -0.2536
  112MOL0     C15039   9.355   8.949   8.816 -0.1606  0.2626 -1.2000
  112MOL0     C15040   9.386   9.091   8.813  1.1443 -0.1704 -0.0784
  112MOL0     C15041   9.457   9.152   8.912 -0.0100  0.2463  0.7326
  112MOL0     C15042   9.515   9.079   9.015 -0.6161 -0.1576  0.1810
  112MOL0     O15043   9.604   9.125   9.115 -1.0639 -0.6698  0.0409
  112MOL0     C15044   9.611   9.273   9.131 -0.3726  0.4813 -0.1367
  112MOL0     C15045   9.513   9.320   9.240  0.5361  0.3992  0.1463
  112MOL0     C15046   9.498   9.475   9.221  0.4293  0.3034  1.3069
  112MOL0     C15047   9.633   9.544   9.226 -0.6831  0.0251 -0.6158
  112MOL0     C15048   9.627   9.692   9.209  0.3605 -0.0316 -0.0077
  112MOL0     C15049   9.595   9.810   9.207  0.1889 -0.1003 -0.2837
  112MOL0     C15050   9.503   8.937   9.018 -0.4884  0.0326 -0.6089
  112MOL0     C15051   9.414   8.871   8.924 -0.2874 -0.0469  0.3508
  112MOL0     C15052   9.405   8.722   8.945 -0.0715 -0.1524 -0.1983
  112MOL0     H15053   9.271   8.787   8.425 -1.6437 -2.0884 -4.1375
  112MOL0     H15054   9.108   8.708   8.275 -1.6233 -0.8416 -0.7413
  112MOL0     H15055   8.765   8.428   8.443 -1.4337  0.1147  0.0712
  112MOL0     H15056   8.731   8.606   8.441 -1.8403  0.2541 -2.8477
  112MOL0     H15057   8.682   8.558   8.187  3.2897  0.5489  1.1365
  112MOL0     H15058   8.557   8.519   8.311 -0.9825 -1.1452 -1.5014
  112MOL0     H15059   8.671   8.285   8.307 -1.7289 -1.3282 -0.5858
  112MOL0     H15060   8.781   8.357   8.186  1.0237 -1.2988  2.2669
  112MOL0     H15061   8.566   8.215   8.101 -0.9632 -0.7501 -4.5312
  112MOL0     H15062   8.489   8.365   8.134  0.8030 -0.0116 -1.0845
  112MOL0     H15063   8.665   8.468   7.980 -0.0845  0.4817 -1.5910
  112MOL0     H15064   8.747   8.308   7.958  1.4341  3.5262  0.1844
  112MOL0     H15065   8.542   8.233   7.823  0.3145 -0.3381  1.1188
  112MOL0     H15066   8.474   8.371   7.881  0.2562 -2.2256  1.1817
  112MOL0     H15067   8.588   8.360   7.633  1.4688 -1.1753 -1.2880
  112MOL0     H15068   8.739   8.398   7.731  0.2748 -0.2091  1.7732
  112MOL0     H15069   8.493   8.581   7.711 -0.9284 -2.7565  0.1710
  112MOL0     H15070   8.648   8.621   7.794  2.7563 -0.5159 -1.8644
  112MOL0     H15071   8.523   8.534   7.422  1.0642 -1.2970 -2.0659
  112MOL0     H15072   8.606   8.712   7.197 -0.2970  4.7609  3.5296
  112MOL0     H15073   8.785   8.738   7.183 -1.8144  2.1655 -0.2324
  112MOL0     H15074   8.683   8.458   7.201  0.8705  1.3550  3.9143
  112MOL0     H15075   8.690   8.565   7.053  3.4864  3.9461 -1.3862
  112MOL0     H15076   8.936   8.532   7.226 -1.0764 -1.3525  1.1658
  112MOL0     H15077   8.919   8.582   7.061  0.7831 -2.7511 -2.1548
  112MOL0     H15078   8.819   8.327   7.067 -0.3966 -0.5595  1.2131
  112MOL0     H15079   8.983   8.319   7.124 -0.6560 -0.5654 -1.4013
  112MOL0     H15080   9.023   8.557   6.750 -1.4997 -1.5108  1.7047
  112MOL0     H15081   9.244   8.626   6.674 -0.7086  2.2058 -0.0962
  112MOL0     H15082   9.690   8.752   7.058  1.5412 -1.6415  1.5695
  112MOL0     H15083   9.872   8.909   7.024 -2.8415 -1.9659  1.5679
  112MOL0     H15084   9.899   9.078   6.663  1.4393 -0.8295 -2.1149
  112MOL0     H15085   9.941   9.127   6.825  3.5477  3.1401 -0.5346
  112MOL0     H15086  10.134   9.070   6.591  1.0224 -0.4451  0.7343
  112MOL0     H15087  10.096   9.233   6.651  3.6490  1.3284  2.4095
  112MOL0     H15088  10.182   9.166   6.874  0.8211  1.8234 -0.6301
  112MOL0     H15089  10.234   9.010   6.791 -1.5612 -0.6889 -1.1134
  112MOL0     H15090  10.335   9.206   6.623  1.0651  1.5732  0.1775
  112MOL0     H15091  10.419   9.119   6.759  0.6405 -1.5048 -0.7706
  112MOL0     H15092  10.466   9.350   6.754  0.3436 -0.4451  1.9655
  112MOL0     H15093  10.386   9.319   6.905 -0.3630 -0.6868  0.6369
  112MOL0     H15094  10.257   9.424   6.646 -1.7420 -1.7025  0.2266
  112MOL0     H15095  10.166   9.397   6.788  0.3920  1.0760  3.9420
  112MOL0     H15096  10.400   9.604   6.800 -0.8149  1.5681 -2.4459
  112MOL0     H15097  10.281   9.567   6.929  0.4169 -0.4364  0.7332
  112MOL0     H15098  10.105   9.613   6.752 -0.1711  1.4042  0.0169
  112MOL0     H15099  10.204   9.752   6.827  2.6606  0.7291 -0.8697
  112MOL0     H15100   9.898   8.776   6.614  0.2398 -1.4520  0.3391
  112MOL0     H15101   9.711   8.605   6.664  1.2943  0.5289  0.2081
  112MOL0     H15102   9.414   8.427   7.018  0.0474  2.7779  0.7282
  112MOL0     H15103   9.195   8.334   7.072 -1.7022  0.5052  0.6059
  112MOL0     H15104   8.906   8.493   8.593  0.5367 -1.0126 -0.2207
  112MOL0     H15105   9.084   8.587   8.754 -1.3205 -0.6183 -0.4573
  112MOL0     H15106   9.347   9.152   8.732  0.9818 -0.2269 -0.0432
  112MOL0     H15107   9.487   9.254   8.889  3.5004 -0.7669  0.2695
  112MOL0     H15108   9.584   9.329   9.041 -1.9325 -2.4747 -1.6616
  112MOL0     H15109   9.714   9.282   9.169 -1.5370  2.8404  2.8900
  112MOL0     H15110   9.548   9.291   9.339 -2.1220  1.1248  1.3857
  112MOL0     H15111   9.417   9.273   9.220  1.5375 -1.7539  0.1102
  112MOL0     H15112   9.451   9.504   9.315  0.9890  1.6320  1.1930
  112MOL0     H15113   9.420   9.481   9.144  1.9207 -0.1242 -0.3154
  112MOL0     H15114   9.684   9.513   9.317  0.4159  0.0766 -1.2005
  112MOL0     H15115   9.698   9.504   9.148 -2.5531  0.8136 -2.6988
  112MOL0     H15116   9.566   9.913   9.204 -1.6688 -0.6182 -1.9635
  112MOL0     H15117   9.561   8.875   9.086 -4.5738 -4.9139 -0.9884
  112MOL0     H15118   9.460   8.695   9.035 -0.3327 -0.6862 -0.1990
  112MOL0     H15119   9.305   8.679   8.960  0.7849 -1.1549  3.3607
  112MOL0     H15120   9.446   8.665   8.861 -0.3294  0.7050 -0.9324
  113MOL0     O15121   3.066   5.644   5.357 -0.2024  0.0044 -0.5727
  113MOL0     C15122   2.979   5.562   5.380  0.2079  0.1287 -0.3631
  113MOL0     O15123   2.845   5.570   5.384 -0.3488  0.1506  0.2092
  113MOL0     C15124   2.787   5.667   5.308 -0.1078  0.2571  0.2599
  113MOL0     C15125   2.727   5.768   5.382  0.5338  0.5629 -0.5800
  113MOL0     C15126   2.645   5.868   5.318 -0.1735  0.6958 -0.0089
  113MOL0     C15127   2.631   5.862   5.177  0.1559 -0.2062 -0.6362
  113MOL0     O15128   2.567   5.962   5.103 -0.5167 -0.5461 -0.6329
  113MOL0     C15129   2.516   6.076   5.173  0.5647  0.6725  1.2563
  113MOL0     C15130   2.439   6.154   5.064 -0.1217 -0.0822 -0.9590
  113MOL0     C15131   2.513   6.255   4.975 -0.2497  0.6705  0.0322
  113MOL0     C15132   2.508   6.409   5.017 -0.1417 -0.1589  0.3658
  113MOL0     C15133   2.608   6.478   4.922  0.3502  0.3369 -0.5352
  113MOL0     C15134   2.596   6.635   4.925 -0.0703 -0.1303  0.3048
  113MOL0     C15135   2.689   6.687   4.813 -0.7835  0.4346 -0.7917
  113MOL0     C15136   2.732   6.832   4.797  0.0876  0.7409  0.3202
  113MOL0     N15137   2.822   6.868   4.909 -0.3116 -0.1159 -0.1601
  113MOL0     C15138   2.956   6.865   4.896  0.1009  0.2479  0.5587
  113MOL0     C15139   3.007   6.915   5.012 -0.6961  0.1217  0.2807
  113MOL0     C15140   3.157   6.910   5.049 -0.0864 -0.1747  0.7170
  113MOL0     C15141   3.189   6.977   5.190  0.1008 -0.1475  0.1307
  113MOL0     C15142   3.154   7.122   5.197 -0.5260 -0.4619 -0.5008
  113MOL0     C15143   3.123   7.156   5.341 -0.1078 -1.0328  0.4265
  113MOL0     O15144   3.242   7.141   5.415  0.5602 -0.3344  0.5517
  113MOL0     C15145   3.216   7.124   5.547 -1.1416  0.7785 -0.4980
  113MOL0     C15146   3.198   6.995   5.598  0.9242 -0.5669  2.1712
  113MOL0     C15147   3.153   6.984   5.734 -0.1962  0.4011 -0.1164
  113MOL0     C15148   3.165   7.088   5.831 -0.0267 -0.2485  1.2881
  113MOL0     C15149   3.124   7.073   5.972 -0.5608 -0.0753  0.1849
  113MOL0     O15150   3.078   6.953   6.016 -0.1649  0.0967 -0.1864
  113MOL0     C15151   3.055   6.924   6.153  0.2753  0.7541 -0.0374
  113MOL0     C15152   3.033   7.015   6.261 -0.5120 -0.0087  0.4878
  113MOL0     C15153   3.044   6.966   6.392 -0.1379  0.0192 -0.7357
  113MOL0     C15154   3.046   6.824   6.422 -0.4055  0.1972 -0.1381
  113MOL0     O15155   3.044   6.772   6.555  0.1995  0.0341  0.4257
  113MOL0     C15156   3.119   6.652   6.595  0.5798 -0.8155  0.9597
  113MOL0     C15157   3.131   6.649   6.743  0.5820 -0.0918 -0.4600
  113MOL0     C15158   3.179   6.791   6.796 -0.0650 -0.1968  0.1371
  113MOL0     C15159   3.327   6.817   6.776 -0.2990  0.5287 -0.3769
  113MOL0     C15160   3.354   6.968   6.797  0.6484 -0.2915  0.3362
  113MOL0     C15161   3.496   7.003   6.798 -0.4266 -0.7321 -0.4221
  113MOL0     C15162   3.583   6.939   6.912 -0.0850 -0.6629 -0.2513
  113MOL0     C15163   3.679   6.835   6.871 -0.1226  0.6011  0.4433
  113MOL0    Cl15164   3.741   6.757   7.012 -0.3223 -0.1563 -0.0130
  113MOL0     C15165   3.030   6.735   6.315 -0.1364 -0.7203 -0.3300
  113MOL0     C15166   3.041   6.783   6.180  0.4597  0.0588  0.9803
  113MOL0     O15167   3.145   7.169   6.048 -0.6481  0.1952  0.2563
  113MOL0     C15168   3.202   7.217   5.784  0.8977  0.6129 -0.9539
  113MOL0     C15169   3.213   7.234   5.640 -0.1393 -0.6458  0.1280
  113MOL0     N15170   2.904   6.962   5.089 -0.1576 -0.0122  0.3394
  113MOL0     N15171   2.791   6.931   5.018  0.0983  0.1897 -0.5705
  113MOL0     C15172   2.702   5.767   5.102  0.4256 -0.7314  0.2799
  113MOL0     C15173   2.775   5.669   5.172 -0.2495 -0.5124  0.7816
  113MOL0     C15174   3.027   5.416   5.408 -0.3974 -0.7442  1.3369
  113MOL0     C15175   2.948   5.313   5.354 -0.1416  0.3624  0.6803
  113MOL0     C15176   2.985   5.178   5.347 -0.1045 -1.0511 -0.0614
  113MOL0     C15177   3.108   5.141   5.400  0.8853  0.3510  0.2575
  113MOL0     O15178   3.155   5.009   5.406  0.2390 -0.8025  0.1518
  113MOL0     C15179   3.063   4.906   5.371  0.3129 -0.2712 -0.5251
  113MOL0     C15180   3.051   4.879   5.222 -0.2719 -0.4368  0.6083
  113MOL0     C15181   2.929   4.793   5.171  0.0751  0.5498 -0.0409
  113MOL0     C15182   2.879   4.814   5.027  0.0115  0.2468  0.0141
  113MOL0     C15183   2.981   4.872   4.937  0.0619  0.1039 -0.0145
  113MOL0     C15184   3.045   4.913   4.844  0.3550  0.3119 -0.4599
  113MOL0     C15185   3.187   5.236   5.464  0.0985  0.9752  0.8997
  113MOL0     C15186   3.154   5.377   5.467  0.0177 -0.1633 -0.4313
  113MOL0     C15187   3.254   5.473   5.518 -1.0155  0.3966 -0.0971
  113MOL0     H15188   2.727   5.761   5.490 -1.1528 -2.1822 -0.6478
  113MOL0     H15189   2.596   5.941   5.383  0.3383  0.7259  0.3469
  113MOL0     H15190   2.450   6.045   5.256 -2.8673  1.7014 -0.8777
  113MOL0     H15191   2.596   6.132   5.222  0.7985  0.2883  1.3225
  113MOL0     H15192   2.369   6.214   5.122  0.0478 -1.7548  1.0591
  113MOL0     H15193   2.380   6.093   4.995 -0.3505  0.7637 -1.5383
  113MOL0     H15194   2.455   6.246   4.883  0.0525 -3.3252  0.0742
  113MOL0     H15195   2.615   6.221   4.960 -0.0717  0.5648  1.3330
  113MOL0     H15196   2.406   6.444   4.997  0.4611  0.1442 -2.7900
  113MOL0     H15197   2.530   6.437   5.120  0.8310  1.6637 -0.3001
  113MOL0     H15198   2.711   6.456   4.952  0.2335  0.6926  0.1405
  113MOL0     H15199   2.617   6.445   4.818 -0.2510  1.6769 -1.0395
  113MOL0     H15200   2.491   6.666   4.920  0.0902  0.3980  0.1868
  113MOL0     H15201   2.633   6.676   5.019  0.1367  0.4427 -0.0263
  113MOL0     H15202   2.638   6.668   4.718  1.7023  1.3103 -2.4017
  113MOL0     H15203   2.784   6.632   4.808 -0.9208  0.2029 -0.8723
  113MOL0     H15204   2.798   6.843   4.711 -1.1166 -2.1482 -1.1208
  113MOL0     H15205   2.649   6.903   4.796 -1.2054 -0.6893 -1.3441
  113MOL0     H15206   2.996   6.799   4.820  1.6100 -0.7046  2.1125
  113MOL0     H15207   3.182   6.804   5.056  5.3556  0.8142  0.5163
  113MOL0     H15208   3.221   6.948   4.969 -1.3324 -1.0296 -0.7507
  113MOL0     H15209   3.137   6.923   5.270  0.9949  0.6244  1.2748
  113MOL0     H15210   3.296   6.958   5.204 -0.1279 -1.1822  0.6028
  113MOL0     H15211   3.070   7.144   5.131  0.9070  0.3024 -2.1448
  113MOL0     H15212   3.240   7.181   5.164 -2.5273  3.5047  0.7619
  113MOL0     H15213   3.051   7.082   5.377 -3.6859  0.7466 -2.3655
  113MOL0     H15214   3.087   7.259   5.351  2.4366 -0.0866  0.5875
  113MOL0     H15215   3.209   6.918   5.522 -1.1057  0.5796  0.6248
  113MOL0     H15216   3.125   6.882   5.759 -1.3723 -0.0287 -2.8447
  113MOL0     H15217   3.029   7.121   6.238 -2.4284  0.1037  1.1454
  113MOL0     H15218   3.032   7.036   6.474 -1.4923 -1.5209  0.4878
  113MOL0     H15219   3.065   6.562   6.564  1.4408 -0.8336 -0.5575
  113MOL0     H15220   3.222   6.662   6.562  0.6221  0.1360  1.3245
  113MOL0     H15221   3.031   6.633   6.786  1.3597  0.2450  1.6287
  113MOL0     H15222   3.198   6.571   6.782 -0.9324 -0.1189  2.4200
  113MOL0     H15223   3.120   6.876   6.760  2.4317  2.0230  0.9624
  113MOL0     H15224   3.163   6.793   6.904 -1.6188  2.1928 -0.0750
  113MOL0     H15225   3.354   6.791   6.674  1.8198 -3.5709  0.9910
  113MOL0     H15226   3.392   6.748   6.831  0.2138 -0.5086 -2.1962
  113MOL0     H15227   3.304   6.999   6.889 -0.5968  1.9136 -0.9804
  113MOL0     H15228   3.308   7.016   6.710  0.1270 -5.3167 -2.5734
  113MOL0     H15229   3.543   6.986   6.701 -1.4816 -2.2174 -0.6878
  113MOL0     H15230   3.487   7.108   6.829 -1.7177 -1.6844  2.7700
  113MOL0     H15231   3.519   6.915   6.997 -2.0851  2.3908 -0.7072
  113MOL0     H15232   3.648   7.017   6.952 -1.8403  1.2340 -0.8948
  113MOL0     H15233   3.620   6.766   6.810 -2.3460  0.0998  2.9224
  113MOL0     H15234   3.761   6.882   6.818  0.4572  0.3590  1.1049
  113MOL0     H15235   3.011   6.631   6.338  1.3471 -0.8021  0.6251
  113MOL0     H15236   3.017   6.710   6.104  0.0366 -0.1689  1.3235
  113MOL0     H15237   3.198   7.296   5.858  2.8382  1.4338 -1.6496
  113MOL0     H15238   3.205   7.333   5.597  1.9955 -0.6569 -0.3831
  113MOL0     H15239   2.707   5.769   4.994  0.2310 -1.4054  0.2500
  113MOL0     H15240   2.833   5.598   5.113  2.8150  3.7028 -1.7980
  113MOL0     H15241   2.857   5.346   5.305  2.2347  2.5405 -2.8295
  113MOL0     H15242   2.912   5.106   5.313 -0.1983 -1.5785  1.2009
  113MOL0     H15243   2.967   4.937   5.414  0.2879  1.1356 -1.5546
  113MOL0     H15244   3.080   4.805   5.412 -0.1481 -0.7795 -1.5495
  113MOL0     H15245   3.143   4.835   5.185 -1.5291 -2.8600  0.1583
  113MOL0     H15246   3.042   4.973   5.166 -0.7164 -0.9186 -0.1504
  113MOL0     H15247   2.843   4.813   5.235 -0.9860  2.0495 -1.8132
  113MOL0     H15248   2.962   4.689   5.171 -0.3233  0.3964 -1.4150
  113MOL0     H15249   2.847   4.719   4.985 -0.8362  0.5462 -0.0459
  113MOL0     H15250   2.793   4.882   5.025 -0.7560 -0.6786  0.4590
  113MOL0     H15251   3.103   4.966   4.772  2.1638  0.6079  1.1227
  113MOL0     H15252   3.282   5.211   5.510 -0.4630 -2.6902  0.3575
  113MOL0     H15253   3.352   5.425   5.526 -2.7081 -2.9674  3.0930
  113MOL0     H15254   3.272   5.563   5.458  2.0622 -0.4599 -0.6283
  113MOL0     H15255   3.221   5.480   5.622 -4.6251 -2.0371 -0.8856
  114MOL0     O15256   3.732   3.051   7.775 -0.6956 -0.8776  0.3858
  114MOL0     C15257   3.662   3.071   7.674  0.5285 -0.0354 -0.2267
  114MOL0     O15258   3.568   2.977   7.626 -0.5029  0.6870 -0.3998
  114MOL0     C15259   3.555   2.871   7.712 -0.2308 -0.4442  0.5486
  114MOL0     C15260   3.642   2.762   7.706  0.3130 -0.0018  0.1889
  114MOL0     C15261   3.622   2.652   7.791  0.3272 -0.5855 -0.2443
  114MOL0     C15262   3.509   2.651   7.872 -0.3087  0.8190 -0.6719
  114MOL0     O15263   3.522   2.548   7.963 -0.5966  0.3742  0.5689
  114MOL0     C15264   3.427   2.540   8.066  0.1399 -0.1102  0.0144
  114MOL0     C15265   3.454   2.427   8.160 -0.0394 -0.0800 -1.0851
  114MOL0     C15266   3.413   2.291   8.105  0.3689  0.7029 -0.1433
  114MOL0     C15267   3.487   2.232   7.986  0.1102 -1.2233  0.1427
  114MOL0     C15268   3.406   2.141   7.904  0.4428 -0.2403 -1.6970
  114MOL0     C15269   3.468   2.040   7.814 -0.1071  0.0825  0.3109
  114MOL0     C15270   3.541   1.932   7.888 -0.2512  0.4413 -0.5216
  114MOL0     C15271   3.598   1.841   7.778  0.2410  0.3562 -0.1334
  114MOL0     N15272   3.506   1.811   7.673  0.9592  0.1130 -0.4036
  114MOL0     C15273   3.401   1.731   7.701 -0.3938 -0.1074 -0.3267
  114MOL0     C15274   3.334   1.727   7.585 -0.3317 -0.7152  0.1906
  114MOL0     C15275   3.202   1.674   7.558  0.1395  0.3570 -0.1223
  114MOL0     C15276   3.214   1.524   7.530 -0.5347 -0.1541  0.1942
  114MOL0     C15277   3.093   1.480   7.444 -0.1635  0.6076  0.5220
  114MOL0     C15278   2.970   1.466   7.536 -0.1015  0.0461 -0.8913
  114MOL0     O15279   2.853   1.454   7.449 -0.0125  0.0832  0.0123
  114MOL0     C15280   2.731   1.453   7.514 -0.6984  1.4018 -0.1249
  114MOL0     C15281   2.614   1.464   7.438  1.0333 -0.1093  0.0985
  114MOL0     C15282   2.482   1.452   7.488 -0.5644 -0.4640 -1.2107
  114MOL0     C15283   2.474   1.436   7.632  0.3674  0.5876 -0.1960
  114MOL0     C15284   2.336   1.429   7.689  0.7101 -0.9920 -0.9425
  114MOL0     O15285   2.228   1.450   7.609 -0.0037  0.1826 -0.1434
  114MOL0     C15286   2.098   1.423   7.658  0.0346 -0.9056  0.6842
  114MOL0     C15287   2.006   1.520   7.639  0.1246 -0.0752 -0.1256
  114MOL0     C15288   1.878   1.504   7.683  0.5239 -0.1881  0.0339
  114MOL0     C15289   1.836   1.385   7.738 -0.4246  0.5463 -0.3318
  114MOL0     O15290   1.704   1.366   7.789 -0.1501 -0.0196 -0.1521
  114MOL0     C15291   1.603   1.457   7.752 -0.2793  0.4222  0.0924
  114MOL0     C15292   1.462   1.398   7.768  0.5446 -0.2038  0.7225
  114MOL0     C15293   1.461   1.259   7.709  0.3336 -0.9417 -0.9112
  114MOL0     C15294   1.319   1.201   7.711 -0.3586  1.2088  0.5860
  114MOL0     C15295   1.302   1.128   7.849  0.3251 -0.5260 -0.2582
  114MOL0     C15296   1.158   1.094   7.859  0.1978 -0.3085 -0.6537
  114MOL0     C15297   1.143   0.998   7.973 -0.9265 -0.2964 -0.4502
  114MOL0     C15298   0.995   0.961   8.018  0.1369  0.0271 -0.2925
  114MOL0    Cl15299   0.908   1.109   8.090 -0.2483 -0.1260  0.2569
  114MOL0     C15300   1.930   1.276   7.739  0.1540 -0.5715 -1.4300
  114MOL0     C15301   2.059   1.300   7.710  0.2522  0.2343  0.0768
  114MOL0     O15302   2.331   1.390   7.803  0.3814 -0.4004 -0.1076
  114MOL0     C15303   2.589   1.423   7.714 -0.6626  0.3050  0.9044
  114MOL0     C15304   2.716   1.433   7.652  0.3050  0.1680  0.1696
  114MOL0     N15305   3.407   1.796   7.491 -0.2285  0.8421 -0.7575
  114MOL0     N15306   3.513   1.846   7.548  0.4937 -0.6055  0.0023
  114MOL0     C15307   3.423   2.764   7.871 -0.6900 -0.2439 -0.0738
  114MOL0     C15308   3.443   2.871   7.787  0.1366  0.4999 -0.1590
  114MOL0     C15309   3.697   3.182   7.591  0.1876 -0.5927 -0.5617
  114MOL0     C15310   3.690   3.162   7.459  0.2507 -0.1802  0.6994
  114MOL0     C15311   3.725   3.257   7.362  0.4976 -0.2237 -0.0679
  114MOL0     C15312   3.781   3.383   7.401  0.6789  0.7897 -0.3027
  114MOL0     O15313   3.807   3.465   7.296 -0.0648  0.0624  0.6185
  114MOL0     C15314   3.884   3.586   7.317  0.5729  0.4195 -0.3845
  114MOL0     C15315   3.875   3.685   7.206 -0.1039 -0.1683  0.4393
  114MOL0     C15316   3.967   3.810   7.221  0.4318 -0.0297 -0.3182
  114MOL0     C15317   3.940   3.921   7.109 -0.2800  0.4614 -0.0567
  114MOL0     C15318   4.039   4.031   7.141  0.2664  0.4356  0.5477
  114MOL0     C15319   4.102   4.135   7.165  0.2486 -0.7847 -0.0933
  114MOL0     C15320   3.805   3.403   7.540  0.1568 -0.9311  1.0100
  114MOL0     C15321   3.758   3.307   7.637  0.2423  0.0917 -0.4908
  114MOL0     C15322   3.782   3.347   7.783  0.5638  0.8040  0.4811
  114MOL0     H15323   3.723   2.769   7.634 -0.8908  0.6455 -1.1523
  114MOL0     H15324   3.691   2.571   7.810  1.4232  0.5720  0.8586
  114MOL0     H15325   3.431   2.629   8.129  0.4304  1.1773 -1.7405
  114MOL0     H15326   3.328   2.532   8.020 -0.4464  1.6400  0.9164
  114MOL0     H15327   3.389   2.442   8.247  1.2997 -1.2839  0.1692
  114MOL0     H15328   3.559   2.434   8.189 -0.2614  1.9343 -0.5801
  114MOL0     H15329   3.308   2.294   8.073  0.2362  4.6689  0.2410
  114MOL0     H15330   3.414   2.211   8.179 -1.0475 -1.3101 -2.1444
  114MOL0     H15331   3.524   2.310   7.918 -0.6962  1.5956  2.7471
  114MOL0     H15332   3.572   2.175   8.023  2.2382  0.5752 -1.6356
  114MOL0     H15333   3.346   2.076   7.969  2.1839 -1.5821 -1.3450
  114MOL0     H15334   3.333   2.201   7.849 -2.2198  0.9548  2.5904
  114MOL0     H15335   3.382   1.992   7.765 -1.0204  1.5176  0.4455
  114MOL0     H15336   3.536   2.092   7.745  0.1463 -0.1835  0.3580
  114MOL0     H15337   3.480   1.869   7.954  1.3729 -2.1623 -1.3538
  114MOL0     H15338   3.621   1.967   7.954 -1.7221  1.3926  0.8206
  114MOL0     H15339   3.683   1.883   7.723 -0.2037 -1.3518 -2.2306
  114MOL0     H15340   3.624   1.747   7.827 -2.2643  1.3744  3.6000
  114MOL0     H15341   3.380   1.693   7.800  3.3714 -1.7950 -0.0297
  114MOL0     H15342   3.137   1.687   7.645  1.0672  0.4175  0.5693
  114MOL0     H15343   3.165   1.729   7.471 -0.3402  0.3052  0.0467
  114MOL0     H15344   3.309   1.504   7.479 -0.8644  1.0076 -0.9282
  114MOL0     H15345   3.215   1.457   7.616 -1.8077 -0.2138  0.1909
  114MOL0     H15346   3.107   1.380   7.402  0.2332  0.1670  1.6643
  114MOL0     H15347   3.069   1.557   7.370 -1.5191  0.2803  0.6060
  114MOL0     H15348   2.955   1.555   7.598 -1.3003 -0.2490 -0.7421
  114MOL0     H15349   2.981   1.383   7.605 -0.3410 -0.0557 -0.9765
  114MOL0     H15350   2.633   1.471   7.331 -0.1870 -0.9200 -0.1949
  114MOL0     H15351   2.390   1.439   7.432 -1.3908  0.2676 -0.0702
  114MOL0     H15352   2.030   1.613   7.589  0.0369  2.0737  3.4802
  114MOL0     H15353   1.806   1.586   7.679 -0.2397 -0.8946 -1.3986
  114MOL0     H15354   1.629   1.543   7.816  1.4186  1.0355 -1.3405
  114MOL0     H15355   1.614   1.497   7.651 -1.2058  1.0754  0.2328
  114MOL0     H15356   1.422   1.390   7.869  0.3418 -1.7369  0.5429
  114MOL0     H15357   1.384   1.466   7.731 -2.0028 -0.6984  4.6200
  114MOL0     H15358   1.494   1.274   7.605  1.6638  2.6464 -0.1377
  114MOL0     H15359   1.531   1.191   7.758  2.6259 -0.1613 -2.8848
  114MOL0     H15360   1.302   1.128   7.631 -0.4013 -0.5595  2.1369
  114MOL0     H15361   1.247   1.280   7.691 -2.0580 -1.0259 -3.5384
  114MOL0     H15362   1.326   1.199   7.928  0.4074 -0.6644 -0.1572
  114MOL0     H15363   1.369   1.041   7.854  3.1793  1.3383 -2.6402
  114MOL0     H15364   1.090   1.178   7.879  1.1736 -0.1484  2.5491
  114MOL0     H15365   1.126   1.048   7.765 -2.6079 -2.0556  1.0043
  114MOL0     H15366   1.201   1.021   8.062 -0.0496  1.9065 -1.5363
  114MOL0     H15367   1.191   0.909   7.932  1.2398  1.3523 -1.6813
  114MOL0     H15368   0.942   0.912   7.936  3.3113 -0.1481 -2.4154
  114MOL0     H15369   0.995   0.884   8.096 -2.0080  0.2323 -0.0175
  114MOL0     H15370   1.899   1.178   7.774  1.3225 -0.7900 -0.9627
  114MOL0     H15371   2.138   1.225   7.714  3.1061  2.8657 -2.1220
  114MOL0     H15372   2.584   1.399   7.819  0.9112 -1.3107  0.6697
  114MOL0     H15373   2.792   1.419   7.729 -0.9357 -2.9008  0.9680
  114MOL0     H15374   3.331   2.759   7.927 -0.3943  3.0920  0.8919
  114MOL0     H15375   3.363   2.944   7.772 -1.3747 -1.1341 -0.3567
  114MOL0     H15376   3.654   3.068   7.419  2.3212 -1.2165  1.1269
  114MOL0     H15377   3.712   3.260   7.254 -1.0474  1.0190  0.1071
  114MOL0     H15378   3.988   3.570   7.344  0.7384 -1.0335 -1.7390
  114MOL0     H15379   3.834   3.630   7.404  1.0466  2.4424 -1.0856
  114MOL0     H15380   3.772   3.718   7.187  0.7865  1.6433 -1.5772
  114MOL0     H15381   3.908   3.645   7.110  1.6033 -0.1229  0.9726
  114MOL0     H15382   4.069   3.770   7.213 -0.8233 -3.3818 -1.1493
  114MOL0     H15383   3.952   3.863   7.315 -0.6335  2.0647 -1.5816
  114MOL0     H15384   3.955   3.896   7.003 -0.7306  1.6614 -0.4212
  114MOL0     H15385   3.838   3.958   7.120 -0.3260  0.4551 -0.4506
  114MOL0     H15386   4.144   4.233   7.174 -0.5634 -0.5227  1.0397
  114MOL0     H15387   3.845   3.500   7.568  0.4052 -0.3972 -1.0497
  114MOL0     H15388   3.861   3.299   7.840 -0.2685  2.0045  2.7516
  114MOL0     H15389   3.797   3.455   7.792  3.0773  0.7039 -1.3487
  114MOL0     H15390   3.691   3.328   7.840 -0.7781  1.6439 -1.2785
  115MOL0     O15391   8.718   0.626   0.733 -0.1874  0.1437 -0.3131
  115MOL0     C15392   8.833   0.625   0.689 -0.5647 -0.1502  0.0539
  115MOL0     O15393   8.873   0.542   0.589  0.0070 -0.5553  0.0441
  115MOL0     C15394   8.770   0.465   0.544 -1.3054  0.5268 -0.4194
  115MOL0     C15395   8.695   0.517   0.439  0.5730  0.2190  0.4330
  115MOL0     C15396   8.613   0.435   0.365  0.7961  0.6708  0.1480
  115MOL0     C15397   8.603   0.289   0.398 -0.4331 -0.6096 -0.0697
  115MOL0     O15398   8.505   0.213   0.336  0.4042  0.1931  0.0012
  115MOL0     C15399   8.473   0.239   0.198 -0.6190 -0.5390 -0.4823
  115MOL0     C15400   8.336   0.312   0.186  0.2870 -0.2979  0.1772
  115MOL0     C15401   8.302   0.352   0.040 -0.5243  0.4215  0.2254
  115MOL0     C15402   8.370   0.483  -0.001 -1.2820 -0.4476  0.2034
  115MOL0     C15403   8.301   0.540  -0.134  0.0272  0.6256  1.2288
  115MOL0     C15404   8.347   0.678  -0.187  1.4844  1.0615  0.0019
  115MOL0     C15405   8.494   0.709  -0.199 -0.1065 -0.8857 -0.2374
  115MOL0     C15406   8.563   0.602  -0.293 -0.5072 -0.5731  0.2931
  115MOL0     N15407   8.509   0.601  -0.432  0.4316 -0.4335  0.2334
  115MOL0     C15408   8.423   0.506  -0.476 -0.9462  0.6285  0.8542
  115MOL0     C15409   8.377   0.550  -0.586  0.1147  0.3922  0.3295
  115MOL0     C15410   8.286   0.481  -0.686  0.4542 -0.7762  0.2365
  115MOL0     C15411   8.174   0.573  -0.737  0.2451  0.2058 -0.3425
  115MOL0     C15412   8.056   0.590  -0.630 -0.4422  0.8065 -0.3778
  115MOL0     C15413   7.961   0.697  -0.683 -0.5242  0.4014 -0.8413
  115MOL0     O15414   7.858   0.723  -0.597 -0.3156 -0.0300 -0.1017
  115MOL0     C15415   7.766   0.829  -0.621  0.5298 -0.3292 -0.0116
  115MOL0     C15416   7.642   0.807  -0.680  0.5145  0.0119 -0.5676
  115MOL0     C15417   7.549   0.908  -0.698 -0.4881  0.6413 -0.8541
  115MOL0     C15418   7.572   1.038  -0.650 -0.7043  0.3569  0.0712
  115MOL0     C15419   7.462   1.148  -0.643 -0.1229 -0.4906  0.1423
  115MOL0     O15420   7.361   1.122  -0.745 -0.3232 -0.2591  0.0936
  115MOL0     C15421   7.272   1.214  -0.788  0.5820 -0.3591 -0.5969
  115MOL0     C15422   7.182   1.174  -0.884  0.3574  1.1057 -0.5679
  115MOL0     C15423   7.099   1.259  -0.956 -0.5243  0.8296  0.0054
  115MOL0     C15424   7.098   1.394  -0.928  0.4281  1.0497  0.2942
  115MOL0     O15425   7.011   1.486  -0.978  0.1903  0.5806 -0.0529
  115MOL0     C15426   6.938   1.471  -1.097  0.2239 -0.6602  0.1781
  115MOL0     C15427   6.785   1.447  -1.065 -0.1483  1.0822  0.2170
  115MOL0     C15428   6.713   1.569  -1.000  0.1107  0.6061  0.1253
  115MOL0     C15429   6.572   1.522  -0.971  0.4629 -0.3633 -0.1975
  115MOL0     C15430   6.498   1.623  -0.887 -0.3142  0.4176 -0.1699
  115MOL0     C15431   6.549   1.638  -0.744  0.0833  0.3462 -0.5384
  115MOL0     C15432   6.435   1.713  -0.661 -0.7679  0.7073  0.1079
  115MOL0     C15433   6.477   1.710  -0.515 -0.4535 -0.1208 -0.4900
  115MOL0    Cl15434   6.375   1.815  -0.414  0.1055 -0.0776 -0.4420
  115MOL0     C15435   7.182   1.440  -0.830  0.4030 -1.2504  0.1508
  115MOL0     C15436   7.269   1.346  -0.755  0.6487 -0.2895  0.7070
  115MOL0     O15437   7.474   1.247  -0.568 -0.5161  0.2878 -0.6436
  115MOL0     C15438   7.696   1.067  -0.584 -1.0653  0.2936  0.3338
  115MOL0     C15439   7.799   0.957  -0.577 -0.2636 -0.5902  0.5314
  115MOL0     N15440   8.443   0.677  -0.616  0.2716  0.0698 -0.1529
  115MOL0     N15441   8.530   0.699  -0.530  0.9900  0.5049 -0.0521
  115MOL0     C15442   8.674   0.240   0.507  0.2612  0.7262 -0.1830
  115MOL0     C15443   8.774   0.321   0.568 -0.4224 -0.5179  0.7110
  115MOL0     C15444   8.930   0.712   0.750 -0.5013  0.7326 -0.3959
  115MOL0     C15445   9.065   0.698   0.701  0.4669 -0.3322  0.2914
  115MOL0     C15446   9.177   0.783   0.729  0.8951 -0.6230  0.4137
  115MOL0     C15447   9.152   0.898   0.808  0.1404 -0.0343 -0.3358
  115MOL0     O15448   9.246   0.995   0.848  0.4030  0.6035 -0.7557
  115MOL0     C15449   9.385   0.986   0.830  0.1958  0.4087 -1.2757
  115MOL0     C15450   9.458   0.903   0.937 -0.2143  0.9248 -0.0983
  115MOL0     C15451   9.417   0.921   1.087 -0.0454 -0.5456 -1.2596
  115MOL0     C15452   9.409   1.065   1.146  0.6786  0.8330 -0.3230
  115MOL0     C15453   9.516   1.157   1.107  0.3290 -0.1703  0.2112
  115MOL0     C15454   9.599   1.244   1.081  0.5239 -0.0262 -0.2071
  115MOL0     C15455   9.021   0.910   0.854 -0.2690  0.4475  0.2542
  115MOL0     C15456   8.919   0.819   0.843  0.5930 -0.2816  0.2322
  115MOL0     C15457   8.791   0.865   0.906  0.0445  1.0373 -0.6367
  115MOL0     H15458   8.704   0.624   0.423 -1.8029  0.1473 -2.1676
  115MOL0     H15459   8.547   0.483   0.293 -1.5660  0.0630  1.7500
  115MOL0     H15460   8.553   0.294   0.149 -1.1964  0.9386  0.1879
  115MOL0     H15461   8.468   0.140   0.151 -1.0265  0.2366 -2.1715
  115MOL0     H15462   8.347   0.401   0.249  3.0810 -1.7345  1.8790
  115MOL0     H15463   8.245   0.256   0.210  0.9077 -1.8698 -0.9762
  115MOL0     H15464   8.195   0.366   0.023 -0.5033  1.5791  0.8918
  115MOL0     H15465   8.329   0.271  -0.027 -1.0054  1.6208 -1.4775
  115MOL0     H15466   8.364   0.562   0.074  2.5676  0.3527 -0.0862
  115MOL0     H15467   8.478   0.473  -0.018 -1.0241  0.9651  0.8455
  115MOL0     H15468   8.308   0.471  -0.219 -0.8082 -1.6565  2.8886
  115MOL0     H15469   8.195   0.547  -0.107 -0.5456 -3.5826  0.7268
  115MOL0     H15470   8.302   0.685  -0.287 -1.1919  1.1908  1.1361
  115MOL0     H15471   8.303   0.749  -0.117 -1.4269 -1.1825  0.6480
  115MOL0     H15472   8.529   0.708  -0.096 -1.8178 -1.4138  0.3619
  115MOL0     H15473   8.503   0.809  -0.243 -1.3924 -0.7991 -0.3305
  115MOL0     H15474   8.669   0.624  -0.307 -0.8080  1.5506  1.0384
  115MOL0     H15475   8.550   0.502  -0.251  0.5639  0.3209  2.9740
  115MOL0     H15476   8.415   0.406  -0.434 -1.1779 -0.9893 -2.6569
  115MOL0     H15477   8.333   0.451  -0.780  0.5518 -1.6660  0.5553
  115MOL0     H15478   8.244   0.388  -0.645  1.2111 -1.0732  0.3432
  115MOL0     H15479   8.208   0.676  -0.744  0.5749  0.1304  0.1521
  115MOL0     H15480   8.128   0.538  -0.831 -1.7381  1.5186  0.0766
  115MOL0     H15481   8.119   0.614  -0.543  1.5589 -1.2344 -1.1509
  115MOL0     H15482   7.998   0.500  -0.604 -0.3975  1.5171  2.5277
  115MOL0     H15483   7.912   0.658  -0.773 -5.4229  2.2034  0.7508
  115MOL0     H15484   8.011   0.789  -0.715 -0.6373 -0.6782 -4.5748
  115MOL0     H15485   7.618   0.703  -0.702 -1.3637  0.6935 -1.9923
  115MOL0     H15486   7.451   0.883  -0.738 -0.7686 -0.5489  0.4613
  115MOL0     H15487   7.181   1.068  -0.909  1.3078  1.1958 -1.0194
  115MOL0     H15488   7.027   1.216  -1.025  0.5514 -2.1131  0.5771
  115MOL0     H15489   6.941   1.561  -1.158 -2.1389 -0.7493 -0.1543
  115MOL0     H15490   6.972   1.386  -1.157 -3.8627 -2.9174  0.7280
  115MOL0     H15491   6.730   1.417  -1.155 -3.1204  4.8296  0.5539
  115MOL0     H15492   6.792   1.364  -0.994 -0.9579  0.8918  0.0818
  115MOL0     H15493   6.757   1.608  -0.908  1.0448  0.9414 -0.4540
  115MOL0     H15494   6.706   1.656  -1.066 -3.1754  0.2042 -0.2639
  115MOL0     H15495   6.572   1.419  -0.931 -1.0711 -1.4147 -2.6764
  115MOL0     H15496   6.527   1.524  -1.071  0.6949 -1.2008 -0.3235
  115MOL0     H15497   6.390   1.610  -0.894 -0.2819  1.0456 -2.8127
  115MOL0     H15498   6.513   1.723  -0.928  0.1879  0.9798  1.3155
  115MOL0     H15499   6.569   1.539  -0.701  0.3327  1.1991  1.3784
  115MOL0     H15500   6.644   1.691  -0.747  0.6922 -0.5763  1.2787
  115MOL0     H15501   6.340   1.660  -0.673  0.4616 -1.4651 -0.6777
  115MOL0     H15502   6.420   1.817  -0.690 -1.1669  0.9890  1.2888
  115MOL0     H15503   6.455   1.609  -0.479 -3.1490  0.5504 -0.0266
  115MOL0     H15504   6.581   1.740  -0.502 -2.0578  6.0105  1.4646
  115MOL0     H15505   7.188   1.541  -0.791  1.0279  0.2530 -3.4278
  115MOL0     H15506   7.334   1.394  -0.683 -4.9553  5.5657  2.8581
  115MOL0     H15507   7.731   1.161  -0.543 -1.0970 -0.0987  1.2981
  115MOL0     H15508   7.894   0.974  -0.528 -1.0679  1.1310  1.5910
  115MOL0     H15509   8.672   0.136   0.538 -0.3183  0.3121 -1.4975
  115MOL0     H15510   8.839   0.272   0.640  0.3790 -4.1975 -2.2313
  115MOL0     H15511   9.099   0.625   0.628  2.0102  1.7254 -1.1838
  115MOL0     H15512   9.252   0.755   0.656 -0.2402 -1.1272 -0.6077
  115MOL0     H15513   9.431   1.084   0.841 -1.4980  1.0280  1.7231
  115MOL0     H15514   9.409   0.943   0.733  0.7314 -0.2674 -0.8528
  115MOL0     H15515   9.566   0.911   0.922  0.4008 -2.3470  1.5992
  115MOL0     H15516   9.439   0.797   0.915 -3.8657  1.5296 -0.4841
  115MOL0     H15517   9.486   0.866   1.151 -0.0148  0.9972  0.0932
  115MOL0     H15518   9.321   0.872   1.104  1.1086 -3.2302 -1.8910
  115MOL0     H15519   9.306   1.097   1.129 -0.4773 -2.7672 -0.9293
  115MOL0     H15520   9.428   1.047   1.252  0.1314 -0.4299 -0.4298
  115MOL0     H15521   9.682   1.310   1.064  0.9075  0.0040  1.5792
  115MOL0     H15522   9.002   0.985   0.929  2.8336  0.7492  0.8379
  115MOL0     H15523   8.749   0.801   0.984 -0.4789  2.1681  0.0402
  115MOL0     H15524   8.791   0.966   0.949  0.3032 -0.1099  2.2899
  115MOL0     H15525   8.710   0.867   0.832 -2.7654  3.1050  2.2220
  116MOL0     O15526  10.840   8.083   0.412  0.1361  0.4810  0.2431
  116MOL0     C15527  10.886   8.202   0.395  0.6954  1.4088 -0.2141
  116MOL0     O15528  10.916   8.251   0.274 -0.3141 -0.4318 -0.1230
  116MOL0     C15529  10.897   8.184   0.158  0.5824 -0.2651  0.0315
  116MOL0     C15530  10.775   8.123   0.120 -0.1986  0.4637 -0.1125
  116MOL0     C15531  10.764   8.062  -0.008  1.1943 -0.2419 -0.1439
  116MOL0     C15532  10.854   8.070  -0.105  0.6320 -0.6317  0.0851
  116MOL0     O15533  10.840   8.020  -0.230  0.3030 -0.7666 -0.6951
  116MOL0     C15534  10.923   7.910  -0.264 -0.0610 -0.0957 -0.4976
  116MOL0     C15535  10.819   7.805  -0.314  0.1463 -1.1913  0.9649
  116MOL0     C15536  10.742   7.854  -0.435  0.3875  0.7078  0.0719
  116MOL0     C15537  10.826   7.845  -0.566 -0.2249 -0.1319 -0.2935
  116MOL0     C15538  10.743   7.783  -0.677 -0.0369  0.4567  1.2597
  116MOL0     C15539  10.804   7.812  -0.821 -0.1384 -0.3611 -0.9089
  116MOL0     C15540  10.690   7.839  -0.919  0.1557 -0.1349 -0.1160
  116MOL0     C15541  10.620   7.974  -0.896 -0.1168 -0.1879  0.5943
  116MOL0     N15542  10.558   8.022  -1.022  0.0382  0.0169  0.4195
  116MOL0     C15543  10.436   7.983  -1.084  0.3005  0.2812 -0.6219
  116MOL0     C15544  10.430   8.074  -1.175  0.1313  0.5062  2.1050
  116MOL0     C15545  10.318   8.071  -1.284  0.2403  0.1323 -0.4678
  116MOL0     C15546  10.290   7.927  -1.346  0.2857 -0.1437  0.2727
  116MOL0     C15547  10.160   7.918  -1.435 -0.7001 -0.2586  0.1137
  116MOL0     C15548  10.150   8.012  -1.562 -0.4586  0.6110  0.4489
  116MOL0     O15549  10.040   7.969  -1.644 -0.3945 -0.0054 -0.1104
  116MOL0     C15550  10.059   7.932  -1.775  0.7783  0.1749 -0.0305
  116MOL0     C15551   9.936   7.907  -1.840  0.1559  0.7687  0.2871
  116MOL0     C15552   9.924   7.860  -1.970  0.1653 -0.0464  0.0140
  116MOL0     C15553  10.044   7.847  -2.040  0.2691  0.8590 -1.1877
  116MOL0     C15554  10.045   7.815  -2.183 -1.1788 -0.3214 -0.3179
  116MOL0     O15555  10.145   7.882  -2.258  0.0197  0.4551 -0.4262
  116MOL0     C15556  10.153   7.861  -2.391 -0.9914  1.0866  0.1462
  116MOL0     C15557  10.189   7.966  -2.472 -0.0001 -0.2705 -1.3107
  116MOL0     C15558  10.187   7.968  -2.615 -0.4314  0.6393  0.3948
  116MOL0     C15559  10.141   7.849  -2.683  0.7119 -0.1466 -0.5253
  116MOL0     O15560  10.144   7.850  -2.817  0.0480  0.8050 -0.1292
  116MOL0     C15561  10.175   7.731  -2.878  0.5445  0.2366  0.7376
  116MOL0     C15562  10.200   7.745  -3.028  0.3044 -0.3432  0.3708
  116MOL0     C15563  10.250   7.609  -3.085 -0.1339 -0.6475 -0.3969
  116MOL0     C15564  10.250   7.612  -3.236  0.4618  0.8422  1.0743
  116MOL0     C15565  10.186   7.474  -3.284  0.5726 -1.2034  0.3030
  116MOL0     C15566  10.203   7.458  -3.432  0.4785  0.4179  0.4464
  116MOL0     C15567  10.123   7.568  -3.505  0.3549 -0.1152  0.7029
  116MOL0     C15568  10.100   7.516  -3.654  0.0196  0.2998  0.7133
  116MOL0    Cl15569   9.958   7.595  -3.722 -0.1379  0.0684  0.4076
  116MOL0     C15570  10.111   7.735  -2.600 -1.2136 -0.8220 -0.8621
  116MOL0     C15571  10.127   7.740  -2.456  0.7448  0.6245  0.3939
  116MOL0     O15572   9.951   7.744  -2.235 -0.3472 -0.1743  1.3492
  116MOL0     C15573  10.171   7.862  -1.971 -0.2417 -0.0861  0.2627
  116MOL0     C15574  10.179   7.903  -1.839  0.6285  0.1530 -0.1733
  116MOL0     N15575  10.533   8.163  -1.175 -0.3718 -0.4176 -0.0690
  116MOL0     N15576  10.598   8.141  -1.075  0.2134  0.2956  0.2680
  116MOL0     C15577  10.984   8.126  -0.066  0.0683  0.6204 -0.9085
  116MOL0     C15578  11.005   8.184   0.065  0.1955 -0.2817 -0.6925
  116MOL0     C15579  10.874   8.290   0.511  0.0858 -0.9368 -0.2216
  116MOL0     C15580  10.822   8.417   0.494 -0.3898 -0.4027  0.6486
  116MOL0     C15581  10.829   8.507   0.603  0.4778 -0.0806  0.2410
  116MOL0     C15582  10.887   8.477   0.728  0.0501 -0.3616  0.0611
  116MOL0     O15583  10.889   8.553   0.844 -0.8939  0.8933  0.2907
  116MOL0     C15584  10.844   8.687   0.848 -0.5819 -1.0014  0.8931
  116MOL0     C15585  10.803   8.730   0.987  0.6086  0.0447  0.7735
  116MOL0     C15586  10.734   8.870   0.984 -1.1651  0.0531  0.1930
  116MOL0     C15587  10.596   8.879   0.912  0.1696  0.0267 -0.2858
  116MOL0     C15588  10.602   8.942   0.783  1.3523  0.5494 -1.3174
  116MOL0     C15589  10.613   8.981   0.673 -0.3137  0.4892 -0.9313
  116MOL0     C15590  10.935   8.347   0.740  0.2783 -0.1180 -0.7750
  116MOL0     C15591  10.920   8.254   0.644 -0.2153  0.1752  0.4111
  116MOL0     C15592  10.960   8.116   0.666 -1.3256  0.1715 -0.5705
  116MOL0     H15593  10.704   8.123   0.202  1.0363 -0.3347  1.0066
  116MOL0     H15594  10.668   8.015  -0.026 -0.3103  2.2234  0.9866
  116MOL0     H15595  10.991   7.930  -0.348  0.4710 -2.6489 -0.7520
  116MOL0     H15596  10.988   7.879  -0.181  0.6304 -4.5792 -2.4224
  116MOL0     H15597  10.747   7.819  -0.233 -1.4542  3.8664 -0.9529
  116MOL0     H15598  10.864   7.706  -0.317  1.8372 -0.4501  0.6215
  116MOL0     H15599  10.712   7.959  -0.436  2.2529  1.2812 -1.1133
  116MOL0     H15600  10.651   7.793  -0.437  0.8726  0.0109 -0.7026
  116MOL0     H15601  10.865   7.937  -0.611  1.8333 -0.9921 -0.3577
  116MOL0     H15602  10.921   7.795  -0.543  0.0402  0.2700 -0.4912
  116MOL0     H15603  10.741   7.674  -0.673 -0.1632  0.3578 -0.5828
  116MOL0     H15604  10.641   7.819  -0.665 -0.7885  0.4996 -3.4014
  116MOL0     H15605  10.859   7.907  -0.823 -0.5523 -0.1123 -0.6953
  116MOL0     H15606  10.881   7.737  -0.839  1.2054 -0.0781  2.7670
  116MOL0     H15607  10.622   7.754  -0.924 -0.8187  0.6931 -1.6210
  116MOL0     H15608  10.722   7.847  -1.024 -0.1732  1.6163 -0.1078
  116MOL0     H15609  10.536   7.959  -0.827  0.4072 -0.1696  1.2483
  116MOL0     H15610  10.691   8.050  -0.863  0.1478  0.0043 -0.3941
  116MOL0     H15611  10.360   7.910  -1.057 -0.2693  1.0297 -0.1579
  116MOL0     H15612  10.228   8.104  -1.231 -0.5736 -2.2779 -0.2462
  116MOL0     H15613  10.340   8.142  -1.364  1.0029 -0.2518 -0.6040
  116MOL0     H15614  10.372   7.883  -1.404 -0.8654  1.2658 -2.6563
  116MOL0     H15615  10.276   7.863  -1.259  0.1794 -0.6347 -0.1029
  116MOL0     H15616  10.073   7.943  -1.374 -1.3118 -1.3605 -0.2842
  116MOL0     H15617  10.143   7.826  -1.491 -0.9354  1.6775 -3.2798
  116MOL0     H15618  10.243   8.016  -1.620 -0.0073 -0.1860  1.0864
  116MOL0     H15619  10.139   8.115  -1.528 -1.6729  1.2526 -1.6870
  116MOL0     H15620   9.839   7.917  -1.793 -0.4130 -3.5498  0.3908
  116MOL0     H15621   9.833   7.843  -2.028  0.3064 -0.3618 -0.1173
  116MOL0     H15622  10.208   8.055  -2.412  1.2342 -3.6186  3.8771
  116MOL0     H15623  10.229   8.052  -2.670  1.9331  0.4321  1.7533
  116MOL0     H15624  10.270   7.700  -2.834  1.8802  1.4384 -1.1450
  116MOL0     H15625  10.095   7.658  -2.862  0.1794  0.2430 -0.8518
  116MOL0     H15626  10.117   7.788  -3.085 -1.0130  0.8709  3.0147
  116MOL0     H15627  10.278   7.820  -3.041 -1.0447  0.8390 -1.3662
  116MOL0     H15628  10.351   7.596  -3.044 -1.4070  1.0622  3.9557
  116MOL0     H15629  10.187   7.525  -3.055 -0.8351  0.0727  0.2228
  116MOL0     H15630  10.353   7.621  -3.272  0.1986  1.6842  0.5061
  116MOL0     H15631  10.193   7.694  -3.281 -1.8536 -0.6686  1.1093
  116MOL0     H15632  10.080   7.472  -3.259  0.2190  1.4848 -0.6935
  116MOL0     H15633  10.232   7.388  -3.233 -2.6222 -2.2832  1.5836
  116MOL0     H15634  10.309   7.476  -3.449  1.0967 -0.1502  3.1925
  116MOL0     H15635  10.174   7.354  -3.450  2.5340 -0.7545  3.1954
  116MOL0     H15636  10.182   7.659  -3.521  0.8625 -0.4706  0.5268
  116MOL0     H15637  10.028   7.586  -3.455 -0.7362  2.6136 -2.0387
  116MOL0     H15638  10.186   7.527  -3.721  0.7907 -0.0226  1.6270
  116MOL0     H15639  10.084   7.407  -3.658  1.2224  0.1525 -1.1300
  116MOL0     H15640  10.098   7.642  -2.655 -3.4378  0.1265 -2.0153
  116MOL0     H15641  10.106   7.648  -2.402 -2.8998 -0.6203 -2.7328
  116MOL0     H15642  10.266   7.874  -2.021  0.4476  0.9411  1.7634
  116MOL0     H15643  10.276   7.904  -1.792  2.0988  0.2271 -2.9874
  116MOL0     H15644  11.068   8.121  -0.134 -0.3970  0.9772 -1.5156
  116MOL0     H15645  11.094   8.237   0.097 -1.8602  2.3369  1.0218
  116MOL0     H15646  10.780   8.452   0.400  3.1021  0.0624 -0.8821
  116MOL0     H15647  10.796   8.610   0.604  3.1199  0.8779 -0.7435
  116MOL0     H15648  10.762   8.705   0.778  0.2360 -0.9585 -0.0722
  116MOL0     H15649  10.932   8.744   0.820  0.7137 -4.3801 -3.0012
  116MOL0     H15650  10.886   8.724   1.058  0.3406 -1.1094  1.0129
  116MOL0     H15651  10.735   8.661   1.038  0.7867  0.4578  1.5908
  116MOL0     H15652  10.792   8.945   0.931 -0.7471 -1.2816 -1.3263
  116MOL0     H15653  10.727   8.918   1.082 -2.5869  0.8903 -0.2848
  116MOL0     H15654  10.562   8.775   0.914  0.4085 -0.0484  0.0623
  116MOL0     H15655  10.515   8.928   0.967  0.2251 -1.4214  1.1639
  116MOL0     H15656  10.617   9.021   0.574  2.9709 -0.0512 -1.1127
  116MOL0     H15657  10.971   8.332   0.841 -0.1674  0.5225 -0.5088
  116MOL0     H15658  10.986   8.102   0.771  1.3960 -1.0050 -1.3086
  116MOL0     H15659  10.877   8.045   0.656  0.7321 -2.2880 -1.2087
  116MOL0     H15660  11.045   8.091   0.602 -0.4613 -3.6900  1.7888
  117MOL0     O15661   7.953   8.044   5.358 -0.4472  0.2257 -0.3681
  117MOL0     C15662   7.980   8.156   5.310 -0.2739  0.1691  0.6600
  117MOL0     O15663   7.885   8.224   5.244  0.2551 -0.8599  0.0959
  117MOL0     C15664   7.756   8.176   5.256  0.2632 -0.0596 -0.4413
  117MOL0     C15665   7.690   8.163   5.380  0.0436  0.1019 -0.5728
  117MOL0     C15666   7.550   8.151   5.387 -0.2846  0.7608 -0.5030
  117MOL0     C15667   7.475   8.138   5.273  0.4789 -0.5146 -0.4897
  117MOL0     O15668   7.335   8.113   5.285  0.2025 -0.7278  0.7532
  117MOL0     C15669   7.251   8.152   5.178  0.1748  0.0336 -0.0032
  117MOL0     C15670   7.113   8.192   5.228  0.0453  0.5244 -1.0637
  117MOL0     C15671   7.044   8.098   5.320 -1.0708  0.2974 -0.3726
  117MOL0     C15672   7.011   7.962   5.256  0.5540  0.1802 -0.1692
  117MOL0     C15673   6.915   7.878   5.343  2.0393 -0.1157 -0.3677
  117MOL0     C15674   6.971   7.847   5.482 -0.4083  0.4344  1.0776
  117MOL0     C15675   6.892   7.749   5.568 -0.1051 -0.1757  0.3616
  117MOL0     C15676   6.988   7.678   5.655 -0.3492  0.1794  0.0471
  117MOL0     N15677   6.932   7.598   5.769 -0.1421  0.2642  0.2700
  117MOL0     C15678   6.808   7.625   5.830 -0.3612  0.6885  0.1058
  117MOL0     C15679   6.783   7.509   5.903 -0.9001 -0.1762  0.3328
  117MOL0     C15680   6.660   7.492   5.984  0.1868  0.2512  0.3799
  117MOL0     C15681   6.696   7.541   6.122  0.4224 -0.5305 -0.5735
  117MOL0     C15682   6.578   7.516   6.224  0.3930  0.0156 -0.3509
  117MOL0     C15683   6.442   7.579   6.194  1.2074 -1.3546  0.2865
  117MOL0     O15684   6.438   7.715   6.242  0.4631 -0.2023  0.8636
  117MOL0     C15685   6.310   7.769   6.258 -0.3299 -0.5290  0.0919
  117MOL0     C15686   6.281   7.883   6.186 -0.1975 -0.2760  0.0613
  117MOL0     C15687   6.156   7.960   6.210 -0.7333  0.1717  0.3468
  117MOL0     C15688   6.060   7.899   6.297 -0.3888  0.0247  0.2902
  117MOL0     C15689   5.943   7.982   6.326 -0.0335 -0.8502 -0.4094
  117MOL0     O15690   5.947   8.113   6.289  0.2824  0.2630  0.6927
  117MOL0     C15691   5.847   8.205   6.304  0.2284 -0.1138 -0.4006
  117MOL0     C15692   5.879   8.340   6.302 -0.8182  0.3970 -0.4645
  117MOL0     C15693   5.786   8.445   6.317 -0.9206 -0.1186 -0.2253
  117MOL0     C15694   5.652   8.416   6.327 -0.7521  0.6590 -0.8766
  117MOL0     O15695   5.565   8.530   6.328 -0.5351  0.0045 -0.6527
  117MOL0     C15696   5.448   8.500   6.400  0.7669 -0.0460 -0.4155
  117MOL0     C15697   5.340   8.607   6.397 -0.4309 -0.2148 -0.2080
  117MOL0     C15698   5.386   8.732   6.470  0.1227 -0.1007 -0.3456
  117MOL0     C15699   5.386   8.861   6.381  0.2794 -0.1083  0.2616
  117MOL0     C15700   5.497   8.850   6.281  0.7982 -0.2836  0.2129
  117MOL0     C15701   5.636   8.882   6.341 -1.1570  0.2576 -0.6119
  117MOL0     C15702   5.740   8.847   6.235  0.3802  1.0393  0.8111
  117MOL0     C15703   5.876   8.853   6.284 -0.2082 -0.3917 -0.5392
  117MOL0    Cl15704   5.982   8.795   6.154  0.0738 -0.1471 -0.0160
  117MOL0     C15705   5.621   8.276   6.350 -0.0787  0.6959  0.1907
  117MOL0     C15706   5.716   8.171   6.350  0.2943  0.1536 -0.0038
  117MOL0     O15707   5.858   7.929   6.385  0.1779  0.1717 -0.1940
  117MOL0     C15708   6.089   7.773   6.358 -0.2335  0.4787  1.4591
  117MOL0     C15709   6.207   7.711   6.336 -0.6967 -0.5237  0.0151
  117MOL0     N15710   6.883   7.415   5.890  0.1330 -0.0905 -0.0410
  117MOL0     N15711   6.973   7.471   5.817  0.5833 -0.6756  0.0083
  117MOL0     C15712   7.543   8.145   5.152  0.1964  0.9469  0.6476
  117MOL0     C15713   7.678   8.167   5.140  0.9307  0.1644 -1.0603
  117MOL0     C15714   8.127   8.198   5.308  0.4884 -0.6102 -0.1371
  117MOL0     C15715   8.221   8.093   5.322 -0.0212 -0.0848 -0.2788
  117MOL0     C15716   8.353   8.120   5.336  0.2756  0.6507  0.8649
  117MOL0     C15717   8.399   8.251   5.332 -0.3542  0.1210 -0.5987
  117MOL0     O15718   8.527   8.290   5.357  0.3047  0.1916 -0.4932
  117MOL0     C15719   8.627   8.195   5.351  0.2322 -0.2518  0.0632
  117MOL0     C15720   8.737   8.249   5.430 -0.5574  0.1163  0.2237
  117MOL0     C15721   8.858   8.150   5.455 -0.5600  1.6706 -0.2733
  117MOL0     C15722   8.816   8.020   5.538  0.1466 -0.5308 -0.5578
  117MOL0     C15723   8.927   7.956   5.609 -0.0352 -0.3467 -0.8251
  117MOL0     C15724   9.029   7.915   5.664  0.3952  0.9540 -0.0092
  117MOL0     C15725   8.306   8.356   5.323 -1.4644 -0.3969  0.4231
  117MOL0     C15726   8.173   8.332   5.299 -0.4377 -0.1489 -0.7210
  117MOL0     C15727   8.087   8.451   5.278  0.7419 -0.4155  0.1942
  117MOL0     H15728   7.734   8.181   5.477 -1.4915  0.4927  0.0742
  117MOL0     H15729   7.486   8.155   5.475  0.9883 -2.3338  0.7171
  117MOL0     H15730   7.292   8.248   5.146  0.9996  1.3731  4.3140
  117MOL0     H15731   7.244   8.072   5.104  1.7209  0.4970 -0.6963
  117MOL0     H15732   7.052   8.225   5.144 -0.6739 -1.3259 -1.3050
  117MOL0     H15733   7.120   8.278   5.295 -1.1250 -1.7350  2.2097
  117MOL0     H15734   6.950   8.140   5.356  0.6706  1.4475  3.2386
  117MOL0     H15735   7.106   8.087   5.409 -0.4119 -0.2307 -0.8891
  117MOL0     H15736   6.964   7.984   5.159 -1.2923 -3.0328 -0.1945
  117MOL0     H15737   7.103   7.903   5.257  0.4973 -0.0887  3.8461
  117MOL0     H15738   6.828   7.940   5.360  1.8283 -0.8338  1.3985
  117MOL0     H15739   6.893   7.786   5.287  1.6315  1.3583 -2.7542
  117MOL0     H15740   7.072   7.810   5.459 -0.6679  0.8524 -0.9696
  117MOL0     H15741   6.973   7.934   5.548 -5.6560  1.6669  0.0398
  117MOL0     H15742   6.854   7.675   5.496 -0.5423 -1.8633  2.2414
  117MOL0     H15743   6.818   7.799   5.632 -0.3469  0.8152 -0.6572
  117MOL0     H15744   7.047   7.609   5.594  1.9441  2.1371 -0.1196
  117MOL0     H15745   7.064   7.746   5.696  1.5792 -1.5477 -0.4810
  117MOL0     H15746   6.758   7.719   5.812 -2.3030 -0.6159 -1.7810
  117MOL0     H15747   6.582   7.557   5.942 -0.8251  0.4311  2.4028
  117MOL0     H15748   6.631   7.386   5.977 -0.8290  0.6141 -2.0887
  117MOL0     H15749   6.779   7.486   6.166 -0.2621  0.3395  2.0061
  117MOL0     H15750   6.721   7.648   6.118 -1.1109  0.0616  2.3796
  117MOL0     H15751   6.608   7.560   6.319  1.2464  1.1226 -1.1028
  117MOL0     H15752   6.570   7.408   6.236 -1.1992 -0.1578 -2.4034
  117MOL0     H15753   6.366   7.512   6.235  0.6505 -0.2503  1.1254
  117MOL0     H15754   6.418   7.584   6.087 -0.0874  0.0306  0.6089
  117MOL0     H15755   6.355   7.931   6.124 -0.5157  1.5253  1.0243
  117MOL0     H15756   6.132   8.046   6.149  1.3652 -0.8535 -2.1163
  117MOL0     H15757   5.985   8.363   6.302 -0.1511 -2.2893 -1.9459
  117MOL0     H15758   5.803   8.552   6.318 -1.3806 -0.0184 -1.2392
  117MOL0     H15759   5.392   8.426   6.342 -1.4372  1.9466 -1.0428
  117MOL0     H15760   5.456   8.476   6.506 -1.9075  3.1826  0.7286
  117MOL0     H15761   5.295   8.635   6.301  1.7198 -1.0311 -1.5536
  117MOL0     H15762   5.263   8.560   6.458  0.6109  0.5871  1.8093
  117MOL0     H15763   5.295   8.745   6.529 -1.0991 -0.0353 -2.1703
  117MOL0     H15764   5.480   8.721   6.525  0.3816 -1.4034 -1.0218
  117MOL0     H15765   5.389   8.956   6.434  1.5558  0.9901 -1.6624
  117MOL0     H15766   5.298   8.864   6.316  0.7774  3.7930 -0.4430
  117MOL0     H15767   5.475   8.929   6.208  0.9768  1.2478  1.7489
  117MOL0     H15768   5.503   8.753   6.231  1.0565 -1.8644  3.0723
  117MOL0     H15769   5.640   8.989   6.364 -0.6106  0.3104 -0.9242
  117MOL0     H15770   5.654   8.818   6.428 -1.3000  2.7447  1.3512
  117MOL0     H15771   5.728   8.915   6.150 -0.8980  1.7358  1.5015
  117MOL0     H15772   5.732   8.742   6.207  0.8715  1.2521 -0.1581
  117MOL0     H15773   5.898   8.959   6.302  0.1773 -0.5606 -0.0080
  117MOL0     H15774   5.901   8.796   6.374  1.4850  0.1221 -0.6476
  117MOL0     H15775   5.515   8.252   6.342  0.0777 -0.3983  1.1321
  117MOL0     H15776   5.680   8.068   6.352 -0.5695  0.4559  0.9351
  117MOL0     H15777   6.015   7.734   6.427  0.5918 -0.2807  1.9349
  117MOL0     H15778   6.231   7.621   6.392 -2.3719 -1.5594 -0.8657
  117MOL0     H15779   7.488   8.127   5.061  2.0999 -2.8280  0.0622
  117MOL0     H15780   7.717   8.164   5.039  0.9838 -1.0151 -1.0221
  117MOL0     H15781   8.192   7.989   5.331 -0.0539 -0.0073  0.7102
  117MOL0     H15782   8.405   8.025   5.335 -1.6682 -0.4663  0.0115
  117MOL0     H15783   8.664   8.179   5.250  0.2048  0.0100  0.0097
  117MOL0     H15784   8.613   8.101   5.404 -1.0022  2.0124  4.2620
  117MOL0     H15785   8.704   8.286   5.527  3.0478 -0.7831  1.9682
  117MOL0     H15786   8.783   8.332   5.375 -0.1651 -1.0818 -1.3375
  117MOL0     H15787   8.940   8.197   5.509  0.2161  0.0748  0.0010
  117MOL0     H15788   8.894   8.115   5.358 -1.0639  1.3961 -0.3626
  117MOL0     H15789   8.733   8.031   5.608  1.2875  0.0026  0.7479
  117MOL0     H15790   8.778   7.952   5.461 -0.5603  1.0477 -1.6479
  117MOL0     H15791   9.105   7.875   5.728 -1.1844  3.6737  3.9538
  117MOL0     H15792   8.338   8.459   5.335 -0.5580 -0.4268 -1.4524
  117MOL0     H15793   8.032   8.478   5.369  2.4409 -3.6957  2.3693
  117MOL0     H15794   8.142   8.540   5.246  1.5290 -0.8278  0.3715
  117MOL0     H15795   8.004   8.440   5.207 -1.8502  4.3371  2.0363
  118MOL0     O15796   6.999   6.878   7.200 -0.2398  0.0514 -0.2743
  118MOL0     C15797   7.071   6.837   7.104 -0.9282  0.0675 -1.3505
  118MOL0     O15798   7.156   6.915   7.034 -0.6326  0.4719  0.3117
  118MOL0     C15799   7.154   7.049   7.064 -0.1942  0.4061 -0.2316
  118MOL0     C15800   7.233   7.099   7.174  0.3476 -0.1721 -0.6215
  118MOL0     C15801   7.225   7.236   7.218 -0.1430  0.4141 -0.3362
  118MOL0     C15802   7.141   7.320   7.149  0.2722 -0.5416 -0.0982
  118MOL0     O15803   7.095   7.449   7.194 -0.7645  0.3376 -0.1326
  118MOL0     C15804   7.109   7.474   7.337 -0.1827 -0.8839  0.3109
  118MOL0     C15805   7.065   7.607   7.382 -0.5429  0.9379  0.4941
  118MOL0     C15806   6.918   7.641   7.375  0.0756 -0.3009 -0.4917
  118MOL0     C15807   6.843   7.597   7.507  0.1219  0.2925  0.2513
  118MOL0     C15808   6.716   7.680   7.521 -0.2804  0.6605 -0.2437
  118MOL0     C15809   6.655   7.658   7.658 -0.2087 -0.3979 -0.5846
  118MOL0     C15810   6.550   7.748   7.705  0.0994 -0.4572  0.3554
  118MOL0     C15811   6.422   7.722   7.633  0.6822 -0.8163 -0.6428
  118MOL0     N15812   6.318   7.818   7.686 -0.7162  0.5196  0.1697
  118MOL0     C15813   6.217   7.792   7.771 -0.2379  0.2944  0.0726
  118MOL0     C15814   6.154   7.917   7.773 -0.6672 -0.6921  0.2415
  118MOL0     C15815   6.016   7.931   7.826  0.8850  0.7580  0.1180
  118MOL0     C15816   5.919   7.850   7.742 -0.7116 -0.5050 -0.0141
  118MOL0     C15817   5.777   7.881   7.794 -0.1165  0.6720  0.7178
  118MOL0     C15818   5.660   7.813   7.701 -0.4906  0.0381 -0.4957
  118MOL0     O15819   5.691   7.675   7.672  0.5090 -0.0224  0.7340
  118MOL0     C15820   5.662   7.568   7.757 -0.3707 -0.6696  0.0271
  118MOL0     C15821   5.687   7.451   7.700  1.1645  0.1529  0.1725
  118MOL0     C15822   5.646   7.334   7.771 -0.1202  0.5896 -0.6980
  118MOL0     C15823   5.595   7.338   7.906  0.6668  0.4026 -0.3608
  118MOL0     C15824   5.549   7.210   7.973 -0.0514 -0.8397  0.5155
  118MOL0     O15825   5.522   7.223   8.102  1.1335 -0.1576 -0.3323
  118MOL0     C15826   5.535   7.120   8.187 -0.0783 -0.5099 -0.2608
  118MOL0     C15827   5.621   7.014   8.171 -0.4974  0.1062 -0.3511
  118MOL0     C15828   5.629   6.917   8.272 -0.4934  0.7274  0.2978
  118MOL0     C15829   5.541   6.921   8.386  0.1284  0.5392 -0.4203
  118MOL0     O15830   5.537   6.815   8.476  0.1319  0.3688  0.9648
  118MOL0     C15831   5.653   6.747   8.523 -0.2592 -1.0133  0.0133
  118MOL0     C15832   5.742   6.849   8.610  0.4947  0.5554  0.3927
  118MOL0     C15833   5.667   6.877   8.737  0.4056  0.3408 -0.1456
  118MOL0     C15834   5.758   6.945   8.852 -0.1268 -0.2526  0.7184
  118MOL0     C15835   5.675   6.973   8.973 -0.2900 -0.4333 -0.3783
  118MOL0     C15836   5.550   7.065   8.944  0.7283 -0.1449 -1.0232
  118MOL0     C15837   5.507   7.118   9.088  0.8100  0.7440 -0.5541
  118MOL0     C15838   5.384   7.205   9.072 -0.3370 -0.6737 -1.1188
  118MOL0    Cl15839   5.247   7.135   8.991 -0.2501 -0.4131  0.0198
  118MOL0     C15840   5.453   7.026   8.397  0.0374 -0.1316 -0.4574
  118MOL0     C15841   5.450   7.122   8.297 -0.4427 -0.8272  0.5147
  118MOL0     O15842   5.546   7.106   7.901 -0.7197  0.7614  0.0780
  118MOL0     C15843   5.582   7.465   7.968  0.2505  0.1552 -0.3193
  118MOL0     C15844   5.617   7.573   7.887 -0.6175  0.4239 -0.5716
  118MOL0     N15845   6.228   8.014   7.692  0.1208  0.2923  0.1508
  118MOL0     N15846   6.323   7.944   7.639  0.0282 -0.5082  0.0668
  118MOL0     C15847   7.083   7.277   7.035  0.1397  0.0653  0.4079
  118MOL0     C15848   7.094   7.141   6.985 -0.3272  0.3726 -0.0501
  118MOL0     C15849   7.054   6.695   7.070  0.2669 -1.1961  0.3886
  118MOL0     C15850   7.000   6.616   7.166 -0.1935  0.6790  0.5593
  118MOL0     C15851   6.947   6.492   7.135  0.7179  0.4031 -0.3078
  118MOL0     C15852   6.939   6.446   7.005  0.3256 -0.1948  0.2062
  118MOL0     O15853   6.882   6.335   6.949 -0.4722  0.1255 -0.0494
  118MOL0     C15854   6.815   6.241   7.031  0.7450  0.0117  0.3502
  118MOL0     C15855   6.817   6.104   6.968 -0.2683 -0.0589 -0.9405
  118MOL0     C15856   6.766   6.114   6.819 -0.5551  1.3373 -0.3752
  118MOL0     C15857   6.738   5.977   6.754  0.2985  0.3054 -1.1212
  118MOL0     C15858   6.698   5.988   6.619 -0.3734 -0.1878 -0.6215
  118MOL0     C15859   6.668   6.016   6.507  0.4642 -0.3045 -0.2537
  118MOL0     C15860   7.015   6.519   6.914  0.8187 -0.6372 -0.0094
  118MOL0     C15861   7.062   6.644   6.947 -0.2975  0.2584 -0.1245
  118MOL0     C15862   7.120   6.717   6.827  0.0437  0.4627 -0.0168
  118MOL0     H15863   7.296   7.033   7.233 -1.8659 -4.4159 -2.4952
  118MOL0     H15864   7.282   7.267   7.305  0.4342  2.0869 -1.2875
  118MOL0     H15865   7.068   7.394   7.399 -1.3985 -0.4373  0.1123
  118MOL0     H15866   7.215   7.457   7.358  0.8780  2.8440 -1.2008
  118MOL0     H15867   7.109   7.674   7.308  0.0397 -1.4263 -1.4184
  118MOL0     H15868   7.097   7.620   7.486  0.3296 -1.7646  0.6208
  118MOL0     H15869   6.869   7.615   7.282  1.2961  1.9215 -1.8636
  118MOL0     H15870   6.919   7.750   7.361 -3.1373 -0.2155 -0.7980
  118MOL0     H15871   6.816   7.491   7.511 -0.8500  0.3534 -2.5613
  118MOL0     H15872   6.901   7.619   7.597  1.5899  2.2168 -1.0941
  118MOL0     H15873   6.740   7.786   7.520 -1.2594  0.9006 -1.7541
  118MOL0     H15874   6.649   7.656   7.437  0.7778 -0.7821 -0.7061
  118MOL0     H15875   6.630   7.552   7.659  0.2988 -0.5758 -2.4974
  118MOL0     H15876   6.745   7.661   7.720  0.1455 -2.3772 -0.9548
  118MOL0     H15877   6.562   7.854   7.681 -3.6761  0.0110 -0.0345
  118MOL0     H15878   6.535   7.743   7.813 -4.0756  1.0230  0.0072
  118MOL0     H15879   6.431   7.744   7.527 -5.6291  1.3697 -1.1353
  118MOL0     H15880   6.374   7.625   7.650  0.1784 -0.5120 -0.3119
  118MOL0     H15881   6.184   7.699   7.815 -1.0274 -0.2382 -1.6063
  118MOL0     H15882   6.010   7.898   7.930  2.6869 -0.9587 -0.2674
  118MOL0     H15883   5.987   8.036   7.817 -2.4746 -0.1113 -0.6440
  118MOL0     H15884   5.927   7.886   7.639  4.2408 -0.0508  0.2801
  118MOL0     H15885   5.935   7.745   7.768 -0.2717  0.1072  2.4784
  118MOL0     H15886   5.756   7.988   7.805 -1.5837  0.3124  1.8629
  118MOL0     H15887   5.768   7.840   7.895  0.5952  2.7340  1.6892
  118MOL0     H15888   5.658   7.868   7.606 -0.5652 -0.1270 -0.5898
  118MOL0     H15889   5.560   7.820   7.744 -1.4745  2.8466 -2.8980
  118MOL0     H15890   5.722   7.432   7.599  1.9113 -0.7716  0.5891
  118MOL0     H15891   5.647   7.240   7.718  0.4338 -1.0633  2.0414
  118MOL0     H15892   5.694   7.007   8.091  1.0707  0.0251  1.0320
  118MOL0     H15893   5.702   6.838   8.254  0.9933  2.0886  0.2169
  118MOL0     H15894   5.628   6.654   8.575 -1.4871 -1.8465 -1.9564
  118MOL0     H15895   5.719   6.717   8.441  2.7264  2.3389  0.9575
  118MOL0     H15896   5.836   6.796   8.628 -0.9997 -2.4904 -0.1586
  118MOL0     H15897   5.752   6.943   8.556 -1.3563  2.0553  2.4945
  118MOL0     H15898   5.583   6.938   8.701  0.8764 -0.1971 -2.2683
  118MOL0     H15899   5.625   6.784   8.777  4.1068 -1.7962 -0.8304
  118MOL0     H15900   5.789   7.043   8.814 -2.8321  0.0354 -1.0208
  118MOL0     H15901   5.848   6.888   8.877 -0.1812  0.4335  2.6720
  118MOL0     H15902   5.740   7.010   9.053  0.3419  0.1910 -1.1656
  118MOL0     H15903   5.638   6.881   9.021  2.6408 -0.9647  1.1272
  118MOL0     H15904   5.572   7.141   8.869  0.8060 -0.2446 -1.1019
  118MOL0     H15905   5.481   6.990   8.904  2.6520 -2.7965  0.2596
  118MOL0     H15906   5.589   7.168   9.140 -0.2340  1.1905  0.7133
  118MOL0     H15907   5.480   7.032   9.151  1.6196  1.1781  0.4156
  118MOL0     H15908   5.362   7.243   9.173 -3.2895  1.1941 -2.3165
  118MOL0     H15909   5.408   7.290   9.008 -0.6117 -1.3973 -2.2089
  118MOL0     H15910   5.392   7.036   8.486  0.8521  2.2101 -0.0848
  118MOL0     H15911   5.381   7.205   8.306  1.0404  0.8254 -2.1630
  118MOL0     H15912   5.541   7.489   8.066 -1.1286 -1.5720 -0.4467
  118MOL0     H15913   5.625   7.667   7.941 -0.2703 -1.3978  2.8415
  118MOL0     H15914   7.022   7.343   6.973  0.1109  1.1831  1.5831
  118MOL0     H15915   7.036   7.103   6.902 -1.6111  0.1893  0.9076
  118MOL0     H15916   6.997   6.645   7.270 -1.8590 -0.5754  0.8885
  118MOL0     H15917   6.924   6.425   7.218 -2.1286 -1.8758 -2.7003
  118MOL0     H15918   6.712   6.277   7.042 -0.3357 -3.0416  1.0859
  118MOL0     H15919   6.861   6.237   7.131 -0.5767 -2.4292  0.9269
  118MOL0     H15920   6.762   6.040   7.037  2.3941 -0.2370  1.1828
  118MOL0     H15921   6.923   6.076   6.969 -0.6789 -1.7084 -0.6653
  118MOL0     H15922   6.833   6.183   6.767 -0.7211  3.8981  2.5458
  118MOL0     H15923   6.665   6.157   6.828 -2.0635 -2.1102  0.9415
  118MOL0     H15924   6.825   5.911   6.763 -1.7250 -2.2492  1.9989
  118MOL0     H15925   6.663   5.922   6.812 -1.3639  1.2801 -2.2818
  118MOL0     H15926   6.645   6.040   6.405  1.1733 -0.8395 -0.5503
  118MOL0     H15927   7.006   6.483   6.812 -1.2166 -1.9419  0.5825
  118MOL0     H15928   7.058   6.801   6.794 -0.8669 -0.1101  0.2126
  118MOL0     H15929   7.220   6.752   6.854  0.8505 -0.7592 -1.3418
  118MOL0     H15930   7.147   6.649   6.747 -0.7138  0.5805 -0.3857
  119MOL0     O15931  10.719  11.455   0.897  0.1435  0.3528  0.4297
  119MOL0     C15932  10.621  11.472   0.825  0.5152 -0.2536 -0.4372
  119MOL0     O15933  10.558  11.356   0.766 -0.3162 -0.0653 -0.7881
  119MOL0     C15934  10.603  11.228   0.787  0.7666  0.1112 -0.6685
  119MOL0     C15935  10.537  11.130   0.867 -1.2465  0.2021  0.2902
  119MOL0     C15936  10.602  11.011   0.902 -0.8145  0.2371  0.1996
  119MOL0     C15937  10.733  10.983   0.851  0.1819 -0.5357  0.0137
  119MOL0     O15938  10.805  10.869   0.900  0.3205  0.0608  0.6189
  119MOL0     C15939  10.947  10.881   0.908  0.7378 -0.3990 -0.1695
  119MOL0     C15940  11.007  10.734   0.912 -0.1688 -1.1839  0.0498
  119MOL0     C15941  11.148  10.712   0.931  0.1481 -0.2505 -0.6966
  119MOL0     C15942  11.197  10.576   0.912  0.2544  0.6172  0.8006
  119MOL0     C15943  11.338  10.554   0.957  0.6060 -0.3646 -0.5878
  119MOL0     C15944  11.395  10.443   0.867  0.5369  0.1483 -1.1974
  119MOL0     C15945  11.532  10.398   0.920  0.7427  0.5953 -0.1202
  119MOL0     C15946  11.595  10.296   0.817  0.3149  0.5082  0.2328
  119MOL0     N15947  11.540  10.152   0.818 -0.0494 -0.5806  0.5141
  119MOL0     C15948  11.620  10.041   0.822  0.9086  0.6581  0.5435
  119MOL0     C15949  11.530   9.942   0.796 -0.5023 -0.3656 -0.0273
  119MOL0     C15950  11.555   9.790   0.763  0.1300  0.2779 -1.0809
  119MOL0     C15951  11.664   9.750   0.664 -0.0151  0.0111 -0.7798
  119MOL0     C15952  11.636   9.622   0.599  0.1355  0.7030  1.0683
  119MOL0     C15953  11.646   9.490   0.678  0.3690  0.2415  0.2069
  119MOL0     O15954  11.779   9.469   0.731 -0.7899  0.3723 -0.7035
  119MOL0     C15955  11.787   9.395   0.853 -0.3435  0.0747 -0.7645
  119MOL0     C15956  11.723   9.437   0.968 -0.8462 -0.3031  0.5414
  119MOL0     C15957  11.734   9.362   1.085  0.2689 -0.4221  0.2376
  119MOL0     C15958  11.821   9.257   1.082 -0.1346 -0.4866 -1.0241
  119MOL0     C15959  11.843   9.186   1.212  0.6495  0.1500 -1.0521
  119MOL0     O15960  11.744   9.181   1.306 -0.1839 -0.1209  0.5325
  119MOL0     C15961  11.754   9.088   1.409  0.5606 -1.0567 -0.5178
  119MOL0     C15962  11.879   9.059   1.481  0.5957  0.1162 -0.0253
  119MOL0     C15963  11.878   8.956   1.575 -0.3108  0.3348  1.4323
  119MOL0     C15964  11.764   8.904   1.625  0.0778  1.0825  0.3813
  119MOL0     O15965  11.779   8.827   1.743 -0.1193  0.3092  0.4121
  119MOL0     C15966  11.808   8.687   1.723 -0.4570  0.2560  1.1347
  119MOL0     C15967  11.695   8.606   1.781  0.4828 -1.0036  0.6967
  119MOL0     C15968  11.678   8.648   1.938 -0.0296 -0.5016  0.9608
  119MOL0     C15969  11.790   8.586   2.024 -0.1626 -0.3301  0.3012
  119MOL0     C15970  11.783   8.610   2.174 -0.0791  0.2618 -0.5811
  119MOL0     C15971  11.890   8.533   2.257  0.5779  0.0875 -0.2578
  119MOL0     C15972  11.923   8.608   2.389  0.0311 -0.4196  0.6417
  119MOL0     C15973  12.042   8.527   2.445 -0.3081 -0.8122  0.2036
  119MOL0    Cl15974  12.085   8.593   2.619 -0.4614 -0.7283 -0.6437
  119MOL0     C15975  11.646   8.924   1.560  0.4813  0.1307  0.9632
  119MOL0     C15976  11.641   9.009   1.444  0.3667  0.2231 -0.0840
  119MOL0     O15977  11.940   9.113   1.208  0.4976 -0.7743  0.6247
  119MOL0     C15978  11.905   9.222   0.966  1.1396  0.1827  0.1494
  119MOL0     C15979  11.880   9.292   0.852 -0.5267 -0.1814 -0.3401
  119MOL0     N15980  11.408   9.987   0.816 -0.6050 -0.4733 -0.5420
  119MOL0     N15981  11.413  10.110   0.829 -0.0927 -0.6020  0.9329
  119MOL0     C15982  10.781  11.063   0.753 -0.6472  0.2134  1.7649
  119MOL0     C15983  10.723  11.184   0.720 -0.1036  0.4072 -0.0616
  119MOL0     C15984  10.571  11.608   0.783 -0.0861  0.6238 -0.0715
  119MOL0     C15985  10.609  11.716   0.866 -0.2187 -0.6160 -0.0102
  119MOL0     C15986  10.567  11.849   0.831 -0.6230 -0.2600  0.2852
  119MOL0     C15987  10.487  11.868   0.724  0.7156 -0.1963 -0.9940
  119MOL0     O15988  10.439  11.996   0.692 -0.1926  0.0113  1.4431
  119MOL0     C15989  10.467  12.111   0.781  0.1127 -0.4805  0.8005
  119MOL0     C15990  10.382  12.101   0.910  0.7865  0.2369  0.2861
  119MOL0     C15991  10.246  12.033   0.886  0.2296  0.9460  0.0002
  119MOL0     C15992  10.149  12.043   1.010  0.2519 -0.3015  0.1874
  119MOL0     C15993  10.033  11.962   0.968 -0.5457 -0.8696  0.2150
  119MOL0     C15994   9.944  11.888   0.927  0.8841 -0.6341 -0.8039
  119MOL0     C15995  10.452  11.764   0.638  0.1961 -0.4848 -0.2213
  119MOL0     C15996  10.491  11.632   0.665  0.1455 -0.0744  0.9868
  119MOL0     C15997  10.454  11.522   0.561  0.3650  0.3987 -0.0558
  119MOL0     H15998  10.438  11.153   0.905 -0.5361  0.7148  1.9372
  119MOL0     H15999  10.548  10.948   0.972  0.5976 -0.9048  0.3046
  119MOL0     H16000  10.999  10.949   0.839  1.1561  0.1769  0.6953
  119MOL0     H16001  10.958  10.928   1.006 -0.7478 -1.1737  0.3960
  119MOL0     H16002  10.976  10.676   0.825  2.1653 -0.5977 -1.2587
  119MOL0     H16003  10.953  10.688   0.995 -3.4640 -1.1659 -1.9203
  119MOL0     H16004  11.162  10.745   1.034 -1.3992 -1.8237  0.0718
  119MOL0     H16005  11.194  10.785   0.864 -2.0049  0.9690 -0.9432
  119MOL0     H16006  11.125  10.513   0.965 -2.1980 -0.1015 -3.0521
  119MOL0     H16007  11.194  10.552   0.805 -2.3493 -1.4417  1.2298
  119MOL0     H16008  11.401  10.639   0.931  1.9701 -1.4832 -1.0897
  119MOL0     H16009  11.336  10.538   1.065 -1.3635 -0.7821 -0.6500
  119MOL0     H16010  11.321  10.363   0.879  1.4910 -0.4765  0.9325
  119MOL0     H16011  11.403  10.479   0.764 -1.5000 -0.4319 -1.6032
  119MOL0     H16012  11.523  10.357   1.021  0.4729  0.7172 -0.0918
  119MOL0     H16013  11.580  10.493   0.944  0.7357  0.8665 -1.1376
  119MOL0     H16014  11.590  10.336   0.715  0.6751 -3.1560 -1.3633
  119MOL0     H16015  11.703  10.287   0.832  0.3810 -0.3499 -0.6795
  119MOL0     H16016  11.728  10.029   0.813  0.7171 -0.8139 -0.1646
  119MOL0     H16017  11.568   9.750   0.864  0.4504  0.6125 -0.9911
  119MOL0     H16018  11.458   9.752   0.730 -1.0186  1.3961  0.7854
  119MOL0     H16019  11.658   9.831   0.591  0.4614  0.9858  0.2205
  119MOL0     H16020  11.760   9.754   0.717  0.1594 -1.1366 -0.9792
  119MOL0     H16021  11.709   9.621   0.518  0.3068  6.0369  0.8121
  119MOL0     H16022  11.532   9.628   0.566  0.0539  2.6501  1.5188
  119MOL0     H16023  11.621   9.415   0.602 -0.7479 -0.8272  1.5754
  119MOL0     H16024  11.581   9.492   0.766 -1.5705  1.2112 -1.1702
  119MOL0     H16025  11.659   9.524   0.961  1.9234  1.7029 -2.2651
  119MOL0     H16026  11.692   9.394   1.180  0.4780  0.7129 -0.0315
  119MOL0     H16027  11.969   9.117   1.464  1.9910 -1.4540  1.4921
  119MOL0     H16028  11.968   8.932   1.631  1.6944 -0.6492 -1.9320
  119MOL0     H16029  11.816   8.667   1.616  1.6969  2.4668  0.7922
  119MOL0     H16030  11.907   8.660   1.760 -0.2876 -0.5591  0.1126
  119MOL0     H16031  11.611   8.644   1.722  0.8388 -0.6957  0.3783
  119MOL0     H16032  11.701   8.499   1.763  0.6918 -0.5763 -2.2439
  119MOL0     H16033  11.674   8.756   1.949 -2.1954 -0.5913  1.5789
  119MOL0     H16034  11.580   8.624   1.983 -1.1122  1.6518 -0.1190
  119MOL0     H16035  11.887   8.629   1.999 -0.4990  0.6656  0.6658
  119MOL0     H16036  11.788   8.478   2.003 -1.3510 -0.6718  1.9702
  119MOL0     H16037  11.681   8.591   2.208  0.3914  2.5157  2.4610
  119MOL0     H16038  11.812   8.715   2.184  3.5364 -0.6913  0.5232
  119MOL0     H16039  11.866   8.428   2.278  0.4384  0.8748  4.6618
  119MOL0     H16040  11.980   8.525   2.195  0.3698 -1.2219 -0.4218
  119MOL0     H16041  11.842   8.601   2.462 -1.6175 -0.3076 -1.1036
  119MOL0     H16042  11.936   8.714   2.368 -0.1225 -0.9193 -2.4388
  119MOL0     H16043  12.006   8.424   2.457 -0.9540 -0.9280 -2.2915
  119MOL0     H16044  12.135   8.535   2.389 -1.3615  1.8991 -1.3379
  119MOL0     H16045  11.556   8.872   1.593  0.6740 -0.9864 -0.2055
  119MOL0     H16046  11.544   9.036   1.403 -1.7046 -4.1331  1.3477
  119MOL0     H16047  11.980   9.144   0.971  0.6604 -0.2501  0.7951
  119MOL0     H16048  11.944   9.264   0.769  1.6725 -1.0834  1.5727
  119MOL0     H16049  10.878  11.038   0.711 -1.6139 -3.1285  1.2454
  119MOL0     H16050  10.771  11.260   0.660  1.7714  0.0733  0.9484
  119MOL0     H16051  10.672  11.704   0.953  0.4466 -0.6629 -0.4833
  119MOL0     H16052  10.609  11.929   0.891  0.5513 -0.5164 -0.1658
  119MOL0     H16053  10.432  12.206   0.740 -1.4173 -0.0569  2.9444
  119MOL0     H16054  10.572  12.125   0.808  0.1716 -0.7852  0.7242
  119MOL0     H16055  10.360  12.205   0.936 -0.4606  0.6912 -2.2817
  119MOL0     H16056  10.437  12.050   0.989  1.6036  1.3225  0.4359
  119MOL0     H16057  10.251  11.928   0.857  0.6209  0.5089  1.5640
  119MOL0     H16058  10.202  12.083   0.799  0.2103 -0.8736 -1.0807
  119MOL0     H16059  10.201  12.007   1.100 -1.4526 -1.2207  0.8522
  119MOL0     H16060  10.134  12.150   1.027  2.9780  0.1985 -0.1703
  119MOL0     H16061   9.867  11.824   0.891  0.8622  1.1319 -4.4419
  119MOL0     H16062  10.398  11.805   0.554  0.0664  3.3587  1.5446
  119MOL0     H16063  10.392  11.445   0.608  0.5554 -1.2786 -2.3635
  119MOL0     H16064  10.395  11.560   0.477  1.6726  0.0103 -1.1920
  119MOL0     H16065  10.539  11.475   0.512 -0.7220 -1.3287 -0.3827
  120MOL0     O16066   0.343   5.863   4.717 -0.3963 -0.3768  0.3001
  120MOL0     C16067   0.317   5.960   4.644 -1.2796 -0.1939  0.4469
  120MOL0     O16068   0.404   6.071   4.634 -0.6826  0.3790 -0.6648
  120MOL0     C16069   0.498   6.096   4.731  0.0309 -0.0973 -0.0392
  120MOL0     C16070   0.608   6.167   4.691  0.1009  0.0107 -0.3034
  120MOL0     C16071   0.708   6.195   4.779 -1.2072 -0.5727 -0.4766
  120MOL0     C16072   0.701   6.150   4.910 -0.3553  0.7198 -0.7727
  120MOL0     O16073   0.815   6.175   4.987 -0.3418  0.1954 -0.3003
  120MOL0     C16074   0.866   6.060   5.053 -0.5470  0.0828 -0.4486
  120MOL0     C16075   0.992   6.088   5.134 -0.2887  0.7768 -0.3231
  120MOL0     C16076   0.971   6.173   5.253 -0.1543  0.2418 -0.2909
  120MOL0     C16077   1.098   6.196   5.340  1.1527  0.5502  0.3131
  120MOL0     C16078   1.065   6.290   5.457 -0.0464  0.3762 -0.0189
  120MOL0     C16079   1.020   6.430   5.412 -0.2436  0.5371 -0.4645
  120MOL0     C16080   1.049   6.532   5.525  0.3301  0.3579 -0.9885
  120MOL0     C16081   1.018   6.673   5.470  0.5708  1.1214 -0.0362
  120MOL0     N16082   1.079   6.782   5.547 -0.2856 -0.0161 -0.4885
  120MOL0     C16083   1.061   6.810   5.680  0.4833 -0.1613  0.5279
  120MOL0     C16084   1.123   6.926   5.702  0.2863 -0.4146 -0.2014
  120MOL0     C16085   1.131   6.999   5.836 -0.0094 -1.3627  0.5252
  120MOL0     C16086   1.091   7.148   5.829 -0.0196  0.2183  0.1175
  120MOL0     C16087   0.945   7.151   5.785 -0.6045 -0.8873 -0.6666
  120MOL0     C16088   0.905   7.292   5.782 -0.4512 -0.4583 -0.3045
  120MOL0     O16089   0.761   7.287   5.762 -0.1072  0.1504  0.2338
  120MOL0     C16090   0.698   7.313   5.883 -0.5598  0.2623  0.2205
  120MOL0     C16091   0.757   7.289   6.014  0.3231  1.0270  0.3210
  120MOL0     C16092   0.687   7.306   6.128  0.4855  0.9722  0.7706
  120MOL0     C16093   0.558   7.352   6.130 -0.0245 -0.6571  0.2125
  120MOL0     C16094   0.488   7.378   6.259 -0.6857 -0.1428 -0.7496
  120MOL0     O16095   0.360   7.394   6.256  0.1664  0.0019 -0.0340
  120MOL0     C16096   0.303   7.428   6.378 -0.1718 -0.5691  0.2789
  120MOL0     C16097   0.276   7.563   6.414 -0.9333  0.5577 -0.6755
  120MOL0     C16098   0.188   7.592   6.519 -0.0901  0.2719  0.3595
  120MOL0     C16099   0.120   7.492   6.587 -0.4551 -1.1773  0.5700
  120MOL0     O16100   0.030   7.533   6.683 -0.2248 -0.3792 -0.7688
  120MOL0     C16101  -0.102   7.482   6.675 -0.4474  0.6438  0.5804
  120MOL0     C16102  -0.205   7.594   6.714 -1.1324 -0.3243 -0.4117
  120MOL0     C16103  -0.216   7.710   6.620  0.2586  1.1720 -0.2635
  120MOL0     C16104  -0.309   7.811   6.677 -0.3730 -0.3274  0.7007
  120MOL0     C16105  -0.452   7.775   6.635 -0.3468 -0.6111 -0.6870
  120MOL0     C16106  -0.544   7.886   6.668 -0.3250  0.7624 -0.1963
  120MOL0     C16107  -0.690   7.837   6.637 -0.1247 -0.1067 -0.8837
  120MOL0     C16108  -0.786   7.938   6.576  1.5349 -0.0983  1.3821
  120MOL0    Cl16109  -0.761   7.946   6.395 -0.3951 -0.4707 -0.5506
  120MOL0     C16110   0.146   7.368   6.557  0.3523  0.0471 -0.5917
  120MOL0     C16111   0.245   7.324   6.458  0.9785  0.3597  0.7312
  120MOL0     O16112   0.559   7.396   6.361  0.2847 -0.0584 -0.5402
  120MOL0     C16113   0.507   7.379   6.002  0.7983 -0.1936  0.7973
  120MOL0     C16114   0.566   7.344   5.882 -0.4204 -0.5511 -0.2478
  120MOL0     N16115   1.204   6.953   5.589 -0.1626 -0.1688 -0.6643
  120MOL0     N16116   1.180   6.865   5.500 -0.1010  0.2482  0.1619
  120MOL0     C16117   0.589   6.086   4.955 -0.3414  0.5185 -0.0083
  120MOL0     C16118   0.481   6.067   4.868 -0.2680  0.2567  0.0610
  120MOL0     C16119   0.197   5.959   4.562  0.4890  0.5379 -0.0016
  120MOL0     C16120   0.143   6.087   4.514 -0.0321  0.1438 -0.4452
  120MOL0     C16121   0.018   6.100   4.469 -0.4163  1.4228 -0.3141
  120MOL0     C16122  -0.043   5.983   4.438 -0.1238 -0.5781  0.0249
  120MOL0     O16123  -0.159   5.990   4.370 -0.7624  0.6489  0.7044
  120MOL0     C16124  -0.273   5.979   4.463  0.6384 -0.0510  0.3590
  120MOL0     C16125  -0.381   6.080   4.437  0.5550 -0.1758  0.0256
  120MOL0     C16126  -0.327   6.216   4.487  0.1337  0.3524  0.2320
  120MOL0     C16127  -0.437   6.312   4.514  0.5886 -0.2385  0.5549
  120MOL0     C16128  -0.491   6.358   4.384 -1.0865  0.0835 -0.7643
  120MOL0     C16129  -0.509   6.393   4.271  0.6396  0.4069 -0.0113
  120MOL0     C16130   0.010   5.859   4.451  0.0490  0.3962  0.0544
  120MOL0     C16131   0.135   5.837   4.513  0.0995  1.1490 -0.3197
  120MOL0     C16132   0.195   5.693   4.530  0.3105 -0.1052  0.2820
  120MOL0     H16133   0.628   6.202   4.591  2.5128  2.6937  0.9992
  120MOL0     H16134   0.793   6.247   4.737 -2.7962  1.3676 -1.4893
  120MOL0     H16135   0.787   6.028   5.121 -2.9878  1.0272 -2.6888
  120MOL0     H16136   0.901   5.984   4.982  2.0921  0.2956  0.5058
  120MOL0     H16137   1.074   6.143   5.086  1.1795  1.2455  2.4890
  120MOL0     H16138   1.022   5.992   5.179  1.7510  1.4230 -0.1806
  120MOL0     H16139   0.886   6.128   5.305 -0.3638 -0.2198 -1.0156
  120MOL0     H16140   0.947   6.273   5.217 -0.1657  0.2417 -0.2835
  120MOL0     H16141   1.131   6.096   5.368  3.0414  0.5086 -1.7810
  120MOL0     H16142   1.171   6.243   5.274  0.2180 -0.4836 -1.5296
  120MOL0     H16143   0.985   6.256   5.525 -0.6189  0.8624 -0.4446
  120MOL0     H16144   1.162   6.291   5.508  0.2763 -2.2884 -0.4056
  120MOL0     H16145   1.075   6.455   5.321 -1.0450  0.6373 -0.9277
  120MOL0     H16146   0.915   6.427   5.382  0.6731  1.0450 -4.2936
  120MOL0     H16147   1.154   6.524   5.555  0.6729  0.8791 -1.9942
  120MOL0     H16148   0.981   6.510   5.607 -0.0526 -0.5179 -1.5224
  120MOL0     H16149   1.048   6.669   5.365 -3.5450 -3.4330 -1.3873
  120MOL0     H16150   0.912   6.695   5.484  0.4170 -0.5935  1.9931
  120MOL0     H16151   1.005   6.755   5.754  0.3353  0.3513  0.8040
  120MOL0     H16152   1.093   6.936   5.916 -0.0477  0.4111  1.9579
  120MOL0     H16153   1.239   7.003   5.854  0.6534  3.6982 -2.5670
  120MOL0     H16154   1.095   7.207   5.921  0.9557  1.5812 -0.7677
  120MOL0     H16155   1.147   7.200   5.751  2.5842  0.1897  1.8405
  120MOL0     H16156   0.895   7.098   5.866 -1.6008 -0.7895 -1.2014
  120MOL0     H16157   0.932   7.101   5.689  2.0731  1.7096 -2.5933
  120MOL0     H16158   0.953   7.344   5.699  0.1311 -0.0859  0.2543
  120MOL0     H16159   0.943   7.348   5.868  1.9173  0.2582 -1.7309
  120MOL0     H16160   0.852   7.242   6.037 -0.6112  0.2918  2.9558
  120MOL0     H16161   0.745   7.288   6.218  0.0318 -4.6243  0.2522
  120MOL0     H16162   0.329   7.640   6.359 -1.2649  0.5565 -1.0012
  120MOL0     H16163   0.162   7.696   6.534 -0.7106 -0.0531  1.6208
  120MOL0     H16164  -0.127   7.448   6.574  1.0977 -2.5259  1.1437
  120MOL0     H16165  -0.113   7.403   6.751 -5.7379 -0.3138 -0.7372
  120MOL0     H16166  -0.306   7.554   6.720 -0.1047 -3.5036 -2.1549
  120MOL0     H16167  -0.173   7.631   6.812  3.3263 -2.1780 -0.9161
  120MOL0     H16168  -0.120   7.761   6.615 -0.6076  2.8798 -0.2545
  120MOL0     H16169  -0.244   7.665   6.525  0.7606  0.6141 -0.1487
  120MOL0     H16170  -0.288   7.912   6.640 -0.4514 -0.1588  1.1051
  120MOL0     H16171  -0.309   7.817   6.786 -0.2350  0.8173  0.6475
  120MOL0     H16172  -0.487   7.676   6.667 -2.1905  0.1586 -0.1592
  120MOL0     H16173  -0.440   7.764   6.527  0.6553 -1.4539 -0.5027
  120MOL0     H16174  -0.542   7.913   6.774 -1.6279  0.0688  0.0278
  120MOL0     H16175  -0.521   7.980   6.617  2.1320  2.1942  3.1648
  120MOL0     H16176  -0.739   7.798   6.727  1.6034  0.7309  0.4799
  120MOL0     H16177  -0.692   7.761   6.558 -0.4423 -1.8326  0.7007
  120MOL0     H16178  -0.882   7.886   6.582  0.8107  1.1939  1.3823
  120MOL0     H16179  -0.795   8.039   6.616 -3.1103  1.1061 -1.9220
  120MOL0     H16180   0.098   7.295   6.621 -0.6982 -1.4225 -2.8918
  120MOL0     H16181   0.271   7.219   6.454  1.9468  0.5190  2.1059
  120MOL0     H16182   0.410   7.423   5.980  0.2041 -0.6553  2.2879
  120MOL0     H16183   0.515   7.340   5.786  1.2849  3.3049 -1.5238
  120MOL0     H16184   0.583   6.058   5.059 -4.2777  1.0566  0.0492
  120MOL0     H16185   0.388   6.024   4.905  0.6751 -0.8184  1.2967
  120MOL0     H16186   0.204   6.177   4.513 -2.9271  2.9358  6.6603
  120MOL0     H16187  -0.031   6.192   4.438 -1.8666  0.7731 -0.0428
  120MOL0     H16188  -0.239   5.977   4.567 -1.7465 -1.3162  1.1762
  120MOL0     H16189  -0.326   5.884   4.451  2.3394 -1.4294  2.6988
  120MOL0     H16190  -0.472   6.060   4.495 -2.3264  3.6909 -2.6325
  120MOL0     H16191  -0.423   6.087   4.336  1.4601 -0.1679 -0.3561
  120MOL0     H16192  -0.245   6.258   4.429 -1.2959  2.2917 -0.5068
  120MOL0     H16193  -0.272   6.202   4.580  0.6276  0.6005 -0.0233
  120MOL0     H16194  -0.520   6.272   4.572 -1.1655  2.2322 -0.0785
  120MOL0     H16195  -0.398   6.397   4.571 -0.5846 -0.2906  1.4704
  120MOL0     H16196  -0.517   6.435   4.173 -1.7808  0.6323  0.2208
  120MOL0     H16197  -0.047   5.779   4.405 -2.3927  1.8074  0.4441
  120MOL0     H16198   0.303   5.696   4.549  0.8671  0.5521 -2.5558
  120MOL0     H16199   0.140   5.648   4.613 -1.0862 -1.4802 -1.3210
  120MOL0     H16200   0.178   5.627   4.445 -0.8701 -0.9665  1.1473
  121MOL0     O16201   6.645   9.969   3.947 -0.9301 -0.0706  0.5820
  121MOL0     C16202   6.575   9.886   3.892  1.0926  0.5892 -1.4920
  121MOL0     O16203   6.443   9.909   3.877  0.4150  0.1463  0.0388
  121MOL0     C16204   6.398  10.042   3.903 -0.3014  0.4343 -0.8540
  121MOL0     C16205   6.390  10.110   4.032  0.3373  0.1947 -0.6783
  121MOL0     C16206   6.349  10.243   4.049 -0.2793 -0.7432 -0.0483
  121MOL0     C16207   6.302  10.304   3.932 -0.3589 -0.3728 -1.2474
  121MOL0     O16208   6.248  10.426   3.959 -0.8803 -0.4955  0.1303
  121MOL0     C16209   6.287  10.534   3.867  0.0362 -0.7363  0.0799
  121MOL0     C16210   6.282  10.668   3.952 -0.6854  0.7039  0.2628
  121MOL0     C16211   6.344  10.644   4.087  0.0331  0.0677  0.4431
  121MOL0     C16212   6.421  10.770   4.132  0.1167 -0.6838 -0.5646
  121MOL0     C16213   6.476  10.761   4.277  0.3324 -0.5304  0.2875
  121MOL0     C16214   6.574  10.643   4.295  0.4142 -0.7604  0.6223
  121MOL0     C16215   6.694  10.671   4.379 -0.4993  0.0165  0.1318
  121MOL0     C16216   6.813  10.738   4.299 -0.0577  0.6297 -0.1052
  121MOL0     N16217   6.805  10.886   4.267  0.2571  0.1535 -0.2422
  121MOL0     C16218   6.796  10.986   4.368 -0.1914  0.2875  0.4470
  121MOL0     C16219   6.807  11.098   4.294  0.4777 -0.4715 -0.8357
  121MOL0     C16220   6.807  11.237   4.341  0.5285 -0.6968 -0.3101
  121MOL0     C16221   6.655  11.284   4.334 -0.2456  0.3095  0.5131
  121MOL0     C16222   6.632  11.399   4.431 -0.2402 -0.2923 -0.6021
  121MOL0     C16223   6.505  11.480   4.388  0.3590  0.1653 -0.6041
  121MOL0     O16224   6.384  11.401   4.394 -0.1401 -0.0832 -0.7108
  121MOL0     C16225   6.270  11.428   4.317 -0.8364 -0.4069  0.4072
  121MOL0     C16226   6.184  11.321   4.293 -0.1193 -1.0745 -0.6500
  121MOL0     C16227   6.084  11.326   4.199  0.0669 -0.7880  0.5358
  121MOL0     C16228   6.062  11.452   4.129  0.8196 -0.0393 -0.0888
  121MOL0     C16229   5.962  11.460   4.016 -0.5710 -0.9390  0.2175
  121MOL0     O16230   5.934  11.338   3.963 -0.3942 -0.2315 -0.0954
  121MOL0     C16231   5.833  11.314   3.877 -0.2555  0.0802  0.6610
  121MOL0     C16232   5.704  11.358   3.900  0.1989 -0.4562  0.2428
  121MOL0     C16233   5.600  11.303   3.822  0.6201  0.0195  0.3394
  121MOL0     C16234   5.626  11.209   3.721  0.3008 -0.1182  0.3985
  121MOL0     O16235   5.524  11.135   3.668  0.5963  0.8309  0.2336
  121MOL0     C16236   5.387  11.160   3.700  0.7102  0.2923 -0.0994
  121MOL0     C16237   5.280  11.135   3.594 -0.1467  1.4761 -0.5183
  121MOL0     C16238   5.283  10.987   3.568  1.1017  0.5113  0.8343
  121MOL0     C16239   5.185  10.955   3.454 -0.0327 -0.0543 -0.0578
  121MOL0     C16240   5.155  10.802   3.440  0.2843 -1.3407  0.5835
  121MOL0     C16241   5.079  10.784   3.308 -1.1075  0.0379 -0.6723
  121MOL0     C16242   4.929  10.811   3.310  0.0550 -0.0090 -0.2866
  121MOL0     C16243   4.849  10.711   3.218  0.7062  0.9975  0.3778
  121MOL0    Cl16244   4.678  10.744   3.200  0.0123 -0.5042 -0.1742
  121MOL0     C16245   5.747  11.180   3.684 -0.1052 -0.0584  0.3404
  121MOL0     C16246   5.853  11.233   3.761 -1.0530 -0.9712  0.0131
  121MOL0     O16247   5.910  11.567   3.984  0.7810  0.6431  0.7180
  121MOL0     C16248   6.149  11.560   4.151 -0.5804 -0.2338 -0.5625
  121MOL0     C16249   6.246  11.557   4.255 -1.0690  0.4861  0.2939
  121MOL0     N16250   6.816  11.065   4.163  0.1202  0.2680 -0.4103
  121MOL0     N16251   6.821  10.946   4.149  0.5975 -0.0956 -0.8360
  121MOL0     C16252   6.314  10.247   3.801 -0.6218  0.8484 -0.0759
  121MOL0     C16253   6.350  10.119   3.790 -0.0135 -0.3228  0.2455
  121MOL0     C16254   6.635   9.769   3.836  0.3393  0.0840 -0.1594
  121MOL0     C16255   6.764   9.723   3.875 -0.2275 -0.9210  0.8558
  121MOL0     C16256   6.832   9.614   3.829 -0.8645  0.8378  0.5155
  121MOL0     C16257   6.761   9.531   3.746  0.6781  1.0023  0.8210
  121MOL0     O16258   6.809   9.407   3.706 -0.3879 -0.0831 -0.0107
  121MOL0     C16259   6.925   9.366   3.760  0.0832  0.6858  0.1821
  121MOL0     C16260   6.965   9.231   3.698  0.4437 -0.3242  0.6184
  121MOL0     C16261   7.108   9.175   3.753  0.0538  0.1703  0.7375
  121MOL0     C16262   7.226   9.261   3.705  0.1384  0.0192 -0.1146
  121MOL0     C16263   7.348   9.176   3.699  0.3461 -0.2693 -0.8520
  121MOL0     C16264   7.448   9.114   3.673  0.6322  0.0621 -0.0818
  121MOL0     C16265   6.641   9.580   3.681 -1.1072  0.6990 -0.4057
  121MOL0     C16266   6.571   9.695   3.730  0.2025 -0.4725 -0.1729
  121MOL0     C16267   6.450   9.742   3.648 -0.5856  0.5805 -0.9968
  121MOL0     H16268   6.429  10.050   4.113 -0.4284 -0.0466 -0.4856
  121MOL0     H16269   6.328  10.287   4.145  0.7558  1.9118 -0.9526
  121MOL0     H16270   6.382  10.516   3.818  0.1342  1.5189 -0.6608
  121MOL0     H16271   6.210  10.549   3.791 -2.5339 -1.1127  2.4091
  121MOL0     H16272   6.181  10.707   3.964 -0.3418  1.6695  0.1048
  121MOL0     H16273   6.340  10.747   3.903  1.2725 -1.2221 -0.6866
  121MOL0     H16274   6.411  10.558   4.098  0.2598  0.3559  1.4150
  121MOL0     H16275   6.270  10.625   4.165  1.5487 -0.1753  1.8753
  121MOL0     H16276   6.508  10.776   4.066  2.2367 -1.1394  1.9696
  121MOL0     H16277   6.356  10.857   4.121 -2.2242 -2.0437  1.3851
  121MOL0     H16278   6.535  10.850   4.302 -1.3538  0.7987 -0.2472
  121MOL0     H16279   6.393  10.753   4.348  0.9145  0.7472  1.1418
  121MOL0     H16280   6.528  10.551   4.332  2.1025 -2.2476 -0.7548
  121MOL0     H16281   6.611  10.602   4.201  1.7603 -2.8401  1.9493
  121MOL0     H16282   6.726  10.572   4.415 -2.2625  0.1388  2.2207
  121MOL0     H16283   6.673  10.741   4.459  0.8173  3.2759 -2.1431
  121MOL0     H16284   6.905  10.719   4.355  0.1328 -0.1856 -0.6704
  121MOL0     H16285   6.837  10.680   4.209  0.6788  2.6459 -1.2682
  121MOL0     H16286   6.811  10.966   4.474  3.1146 -2.6864 -0.3993
  121MOL0     H16287   6.859  11.243   4.437 -0.1184  0.1416 -0.0044
  121MOL0     H16288   6.868  11.297   4.273 -1.6272 -0.3085 -2.0060
  121MOL0     H16289   6.639  11.319   4.231  2.0422 -1.9448 -0.7205
  121MOL0     H16290   6.586  11.204   4.364  0.6969 -0.0035  1.9398
  121MOL0     H16291   6.712  11.474   4.435 -2.7378  2.5223  1.0119
  121MOL0     H16292   6.603  11.369   4.532  0.1482  0.9794 -0.0840
  121MOL0     H16293   6.524  11.519   4.288 -1.3937  1.8188 -0.3319
  121MOL0     H16294   6.483  11.567   4.451  0.1443 -0.4455  0.1820
  121MOL0     H16295   6.200  11.235   4.358 -0.1412 -1.9383 -1.7600
  121MOL0     H16296   6.034  11.233   4.171 -0.7739  0.6552 -3.4080
  121MOL0     H16297   5.684  11.417   3.989 -2.6914  0.5355 -0.9261
  121MOL0     H16298   5.506  11.333   3.868 -1.1646 -1.8867 -1.7931
  121MOL0     H16299   5.374  11.109   3.796 -0.5472 -1.9589 -1.3503
  121MOL0     H16300   5.380  11.264   3.732  1.7033 -0.2447  2.0545
  121MOL0     H16301   5.182  11.169   3.627 -2.3227 -4.0925 -0.1074
  121MOL0     H16302   5.306  11.186   3.500  1.2944 -2.1724 -2.2978
  121MOL0     H16303   5.380  10.955   3.528  1.2296  2.2150 -0.3374
  121MOL0     H16304   5.266  10.938   3.664  1.7645 -3.3856 -0.8539
  121MOL0     H16305   5.235  11.003   3.369  1.8165  2.3794  2.2328
  121MOL0     H16306   5.084  10.995   3.468  0.5616  0.8598  2.1759
  121MOL0     H16307   5.092  10.770   3.524 -0.9255  0.0428  0.2437
  121MOL0     H16308   5.250  10.748   3.444  1.2250  0.1335 -0.6692
  121MOL0     H16309   5.133  10.844   3.235  0.2050 -2.4718 -1.8774
  121MOL0     H16310   5.095  10.677   3.289  1.5201  0.2913 -0.2345
  121MOL0     H16311   4.917  10.913   3.271  0.3564  0.4047  0.6762
  121MOL0     H16312   4.891  10.813   3.412 -3.9423 -1.8994 -1.5432
  121MOL0     H16313   4.896  10.707   3.120  0.2562  1.4380  0.1369
  121MOL0     H16314   4.858  10.611   3.261  2.6003  0.7383 -0.5062
  121MOL0     H16315   5.768  11.099   3.615 -0.3180 -2.3636  2.8271
  121MOL0     H16316   5.952  11.193   3.740 -0.8350 -2.1638  2.7720
  121MOL0     H16317   6.142  11.655   4.098 -0.8799  1.9530  3.0362
  121MOL0     H16318   6.299  11.641   4.298 -1.1038  0.0332  1.2657
  121MOL0     H16319   6.289  10.298   3.708 -0.0221 -1.4244 -1.5658
  121MOL0     H16320   6.344  10.078   3.690 -3.2684  3.5502 -1.4315
  121MOL0     H16321   6.815   9.773   3.956  0.0713  1.3260 -0.6373
  121MOL0     H16322   6.934   9.593   3.859 -0.4655  1.2273 -0.4982
  121MOL0     H16323   6.916   9.340   3.867 -1.7524 -3.4732 -0.7540
  121MOL0     H16324   7.013   9.427   3.739  0.6050 -0.0090  0.3163
  121MOL0     H16325   6.968   9.239   3.588  1.1496  0.4762  0.6835
  121MOL0     H16326   6.888   9.156   3.715 -0.7497  0.7822  0.2889
  121MOL0     H16327   7.098   9.070   3.724  0.0026  0.0687  1.1124
  121MOL0     H16328   7.104   9.182   3.862 -0.6388 -0.2687  0.7507
  121MOL0     H16329   7.203   9.293   3.603  2.1072  5.1248  0.7251
  121MOL0     H16330   7.231   9.348   3.771 -2.6892  2.8549 -3.2929
  121MOL0     H16331   7.536   9.056   3.653  1.5853  2.2331 -3.0021
  121MOL0     H16332   6.594   9.517   3.607 -0.1680 -0.8156  0.2304
  121MOL0     H16333   6.363   9.755   3.713  0.3154  1.1522  0.1287
  121MOL0     H16334   6.469   9.837   3.595 -1.1599  0.7788 -0.8492
  121MOL0     H16335   6.427   9.663   3.577  0.9197  0.5803 -1.5294
  122MOL0     O16336   7.149   9.866   7.313 -0.2418  0.3225  0.0874
  122MOL0     C16337   7.214   9.952   7.253  0.0672 -0.5256 -0.1950
  122MOL0     O16338   7.285   9.933   7.141  0.2209  0.9548  0.0498
  122MOL0     C16339   7.250   9.823   7.061 -0.8411  0.6376  0.2023
  122MOL0     C16340   7.264   9.696   7.113  0.3056  1.0072  0.1388
  122MOL0     C16341   7.246   9.590   7.030  0.1278  0.1932  0.3827
  122MOL0     C16342   7.200   9.609   6.894 -0.0602  1.0557 -0.2519
  122MOL0     O16343   7.180   9.504   6.805 -0.6436  0.1250  0.2190
  122MOL0     C16344   7.189   9.375   6.861  0.5669  0.0438  0.0195
  122MOL0     C16345   7.095   9.294   6.760  0.1374 -0.0492 -0.2908
  122MOL0     C16346   7.139   9.281   6.619 -0.1187  0.3791  0.9938
  122MOL0     C16347   7.024   9.221   6.531 -0.0622  0.7061 -0.6854
  122MOL0     C16348   7.058   9.163   6.398 -0.2043 -0.0472  0.9451
  122MOL0     C16349   6.929   9.154   6.317 -0.2199 -0.5108  0.8983
  122MOL0     C16350   6.946   9.112   6.170  0.2867 -1.7707  1.1550
  122MOL0     C16351   7.024   9.219   6.086  1.0594 -0.3989  0.4927
  122MOL0     N16352   6.945   9.343   6.064 -0.0298  0.1713  0.0991
  122MOL0     C16353   6.853   9.343   5.962  0.1510 -0.2853  0.3522
  122MOL0     C16354   6.787   9.457   5.967 -0.6815 -0.5068  0.3136
  122MOL0     C16355   6.681   9.499   5.874 -0.2221  0.2426 -0.5386
  122MOL0     C16356   6.609   9.620   5.945 -0.4971  0.8218 -0.0432
  122MOL0     C16357   6.485   9.660   5.864 -0.6013  0.4480 -0.1702
  122MOL0     C16358   6.506   9.705   5.712  0.1946  0.0788 -0.6193
  122MOL0     O16359   6.620   9.796   5.706  0.2615 -0.1257 -0.5164
  122MOL0     C16360   6.614   9.921   5.760 -0.5335  1.6209 -0.2794
  122MOL0     C16361   6.501   9.997   5.803  0.2447 -0.7229 -0.1140
  122MOL0     C16362   6.513  10.131   5.842 -0.5281  0.0098 -0.0441
  122MOL0     C16363   6.640  10.189   5.858  0.0304 -0.3178  0.2056
  122MOL0     C16364   6.649  10.332   5.912 -0.0342  0.2197 -0.0740
  122MOL0     O16365   6.523  10.390   5.934  0.4471  1.3386 -0.1043
  122MOL0     C16366   6.521  10.526   5.966  0.8140  0.0340 -0.6075
  122MOL0     C16367   6.427  10.610   5.901 -0.3832  0.3381  0.6325
  122MOL0     C16368   6.446  10.745   5.897  1.0380 -1.1565  0.7821
  122MOL0     C16369   6.538  10.805   5.986  0.1445 -0.7869 -0.6924
  122MOL0     O16370   6.533  10.946   5.988  0.2994  0.4444  0.2586
  122MOL0     C16371   6.651  11.025   6.011  0.6733 -0.7457 -0.4254
  122MOL0     C16372   6.621  11.157   6.086  0.1476  0.6832  0.7095
  122MOL0     C16373   6.544  11.146   6.215  0.2152  0.2862 -0.0261
  122MOL0     C16374   6.530  11.283   6.275  0.5910  0.2807  0.2875
  122MOL0     C16375   6.669  11.334   6.335  0.3646  0.1825  0.3614
  122MOL0     C16376   6.647  11.460   6.415  0.8537  0.8366 -0.8262
  122MOL0     C16377   6.625  11.420   6.566  0.4165 -0.5715  0.2537
  122MOL0     C16378   6.759  11.414   6.648 -1.0370  0.0036 -0.3680
  122MOL0    Cl16379   6.814  11.241   6.663 -0.2054  0.4363 -0.4877
  122MOL0     C16380   6.615  10.719   6.067  0.2999 -0.3033  0.7407
  122MOL0     C16381   6.599  10.581   6.066 -0.3047 -0.5313 -0.3173
  122MOL0     O16382   6.757  10.391   5.912  0.4876 -0.7474  0.1917
  122MOL0     C16383   6.753  10.116   5.823  0.4259 -0.3119 -1.1159
  122MOL0     C16384   6.742   9.985   5.777 -0.7522  0.5874 -0.5044
  122MOL0     N16385   6.845   9.525   6.069 -1.0995 -0.4209 -0.1091
  122MOL0     N16386   6.947   9.464   6.124  1.0141  0.4663  0.0376
  122MOL0     C16387   7.196   9.738   6.845 -0.3378  0.8430  0.3312
  122MOL0     C16388   7.223   9.846   6.928 -0.6008 -0.5492  0.3035
  122MOL0     C16389   7.219  10.086   7.305 -0.5591  0.3282  0.2524
  122MOL0     C16390   7.330  10.158   7.275 -0.6531 -1.0182  0.4516
  122MOL0     C16391   7.353  10.288   7.319 -0.7056  0.4080  0.5655
  122MOL0     C16392   7.242  10.361   7.362  0.5221 -0.5065  0.5367
  122MOL0     O16393   7.245  10.496   7.392  0.1430  0.3927 -0.4360
  122MOL0     C16394   7.379  10.552   7.420  0.2689 -0.1189 -0.1944
  122MOL0     C16395   7.360  10.696   7.473 -0.1395  0.4101 -0.1213
  122MOL0     C16396   7.437  10.799   7.379 -0.1362  0.3583  0.6861
  122MOL0     C16397   7.569  10.848   7.442  0.4022 -0.9051 -0.4875
  122MOL0     C16398   7.669  10.743   7.430 -0.0778  0.4866 -0.3631
  122MOL0     C16399   7.744  10.646   7.410 -0.7323  0.5179  0.0037
  122MOL0     C16400   7.118  10.289   7.385 -0.7823 -0.6036  0.9475
  122MOL0     C16401   7.105  10.153   7.361 -0.5463  0.8095 -0.3562
  122MOL0     C16402   6.976  10.090   7.386 -0.0995 -0.6363  0.2238
  122MOL0     H16403   7.282   9.668   7.217  0.7823 -1.8860 -0.6209
  122MOL0     H16404   7.257   9.497   7.084  0.2486  1.6325  2.9620
  122MOL0     H16405   7.290   9.334   6.872  1.4891  2.3587  0.7950
  122MOL0     H16406   7.141   9.375   6.959  0.0068  1.0352 -0.2493
  122MOL0     H16407   6.997   9.341   6.769  0.9392  1.5131  0.8841
  122MOL0     H16408   7.089   9.190   6.793 -1.9985  0.3482  0.7463
  122MOL0     H16409   7.228   9.218   6.611  0.8771  1.6700  1.5828
  122MOL0     H16410   7.167   9.385   6.598  1.9629  0.1132  2.1672
  122MOL0     H16411   6.973   9.146   6.591  2.2769 -1.8922 -1.7573
  122MOL0     H16412   6.952   9.304   6.536 -1.3570 -0.4240  3.0906
  122MOL0     H16413   7.140   9.224   6.360 -1.0079  2.7781  3.3586
  122MOL0     H16414   7.108   9.068   6.420 -0.6178 -0.8662 -1.3693
  122MOL0     H16415   6.869   9.082   6.372  0.2269  1.6611  4.6158
  122MOL0     H16416   6.880   9.251   6.329  2.3391  0.9072  0.6180
  122MOL0     H16417   6.849   9.089   6.126  1.2272 -1.6625 -1.1078
  122MOL0     H16418   6.994   9.014   6.167  0.6917 -1.5455 -0.6936
  122MOL0     H16419   7.122   9.237   6.131  1.6508 -1.8330 -0.1638
  122MOL0     H16420   7.043   9.177   5.987  2.5598 -1.1632  1.0711
  122MOL0     H16421   6.836   9.268   5.885  1.1492  0.6217 -0.7897
  122MOL0     H16422   6.732   9.532   5.783  2.4836 -4.7222 -1.1575
  122MOL0     H16423   6.623   9.407   5.862  0.6751 -0.6501  1.4433
  122MOL0     H16424   6.592   9.588   6.048  0.5367 -1.6672 -0.5679
  122MOL0     H16425   6.677   9.705   5.949  0.7545 -0.1755  0.5568
  122MOL0     H16426   6.425   9.743   5.903 -0.6993  1.4285 -2.2499
  122MOL0     H16427   6.410   9.581   5.874  0.2416 -0.3583 -0.1009
  122MOL0     H16428   6.417   9.758   5.677  1.0676  2.5563  0.6917
  122MOL0     H16429   6.540   9.623   5.648 -0.3373 -0.6915  0.0536
  122MOL0     H16430   6.402   9.955   5.786 -0.2102 -0.0793  0.8294
  122MOL0     H16431   6.424  10.180   5.877 -0.7489  0.3190 -0.9954
  122MOL0     H16432   6.366  10.564   5.824  1.8436 -1.5366 -0.1179
  122MOL0     H16433   6.382  10.806   5.834  2.2773  0.3861  0.9515
  122MOL0     H16434   6.726  10.972   6.070  1.9065 -0.0896 -1.3465
  122MOL0     H16435   6.709  11.037   5.919 -0.2501 -0.1066 -0.9431
  122MOL0     H16436   6.716  11.211   6.088  1.1077 -0.6450 -2.4763
  122MOL0     H16437   6.558  11.212   6.015  0.8362 -0.4156 -0.7989
  122MOL0     H16438   6.439  11.124   6.198  0.2769  0.0849 -0.1389
  122MOL0     H16439   6.598  11.086   6.289  1.2468  1.4691  0.2307
  122MOL0     H16440   6.463  11.267   6.361  1.9878 -1.2594  1.1527
  122MOL0     H16441   6.483  11.356   6.208 -1.4214 -2.2617 -1.2585
  122MOL0     H16442   6.742  11.347   6.255  0.5193 -1.2492  0.2550
  122MOL0     H16443   6.706  11.250   6.394  0.6597  0.8050  1.0890
  122MOL0     H16444   6.737  11.521   6.405  1.0011  0.9645  0.9889
  122MOL0     H16445   6.555  11.514   6.392 -0.9565 -0.1125  3.2710
  122MOL0     H16446   6.582  11.320   6.563 -2.2134  0.5017 -1.1017
  122MOL0     H16447   6.565  11.497   6.615 -0.8476  0.3879 -2.6131
  122MOL0     H16448   6.836  11.464   6.588 -2.6657  2.5683 -0.4993
  122MOL0     H16449   6.759  11.472   6.740  1.1189  1.7277 -1.3602
  122MOL0     H16450   6.692  10.753   6.136  0.9657  2.8767 -1.3712
  122MOL0     H16451   6.654  10.533   6.146 -0.2070  4.3071  2.9929
  122MOL0     H16452   6.843  10.177   5.826 -0.7980  1.5227  0.8464
  122MOL0     H16453   6.833   9.947   5.732 -1.3915  2.0363 -3.2489
  122MOL0     H16454   7.185   9.751   6.737  1.4172 -2.5884 -0.3970
  122MOL0     H16455   7.222   9.948   6.893  1.4114 -0.9215 -0.9895
  122MOL0     H16456   7.417  10.097   7.252  0.4935 -0.7796  3.6256
  122MOL0     H16457   7.453  10.328   7.302 -0.2707 -1.0237 -0.5120
  122MOL0     H16458   7.456  10.553   7.342  0.4831 -0.5738  0.0047
  122MOL0     H16459   7.419  10.500   7.508  2.1280  1.5536  0.0124
  122MOL0     H16460   7.399  10.704   7.575  1.5557 -0.0920 -0.6986
  122MOL0     H16461   7.253  10.717   7.483  0.0057  1.9008 -1.2517
  122MOL0     H16462   7.376  10.888   7.362 -0.4422  0.1693  0.7795
  122MOL0     H16463   7.457  10.756   7.280  1.1442  0.2188  0.9885
  122MOL0     H16464   7.606  10.939   7.394  1.0832  0.6232  2.6610
  122MOL0     H16465   7.556  10.887   7.544  0.6012 -1.8035 -0.1108
  122MOL0     H16466   7.819  10.569   7.403 -1.9876 -0.8359  0.6996
  122MOL0     H16467   7.036  10.345   7.429  0.4933  0.1394  2.4773
  122MOL0     H16468   6.936  10.054   7.290  1.8608  0.0454 -0.8981
  122MOL0     H16469   6.995  10.001   7.446 -2.7950 -0.3874  1.5961
  122MOL0     H16470   6.907  10.154   7.442  0.6895  0.6567 -0.2477
  123MOL0     O16471   5.287   8.342   6.732 -0.2926 -0.2312  0.0278
  123MOL0     C16472   5.375   8.280   6.679  0.3888 -0.1420 -0.7423
  123MOL0     O16473   5.357   8.209   6.564 -0.9450 -0.1666  0.2939
  123MOL0     C16474   5.220   8.179   6.529  0.1279 -0.5397  0.5945
  123MOL0     C16475   5.168   8.254   6.425 -0.0193  0.1549  0.6281
  123MOL0     C16476   5.040   8.226   6.389  0.3216 -0.2872  0.3356
  123MOL0     C16477   4.959   8.123   6.448 -0.9446  0.7266  0.0997
  123MOL0     O16478   4.824   8.125   6.422 -0.4197 -0.3572  0.1224
  123MOL0     C16479   4.736   8.081   6.525 -0.2232  0.7289  0.1474
  123MOL0     C16480   4.591   8.099   6.477 -0.1044  0.9297  0.2560
  123MOL0     C16481   4.553   8.012   6.354 -0.4284 -0.9157 -0.4518
  123MOL0     C16482   4.429   8.064   6.288 -0.1247 -0.0509 -0.7895
  123MOL0     C16483   4.394   7.983   6.157  1.4645  0.0939  0.4714
  123MOL0     C16484   4.316   8.083   6.051 -0.1563  0.1635 -0.3922
  123MOL0     C16485   4.281   8.005   5.914  1.2486 -0.8353 -1.1136
  123MOL0     C16486   4.395   7.965   5.832 -0.1789 -0.4281 -0.5089
  123MOL0     N16487   4.358   7.892   5.707 -0.0394  0.2025 -0.5335
  123MOL0     C16488   4.427   7.786   5.657 -0.3128  0.3911  0.6358
  123MOL0     C16489   4.389   7.772   5.529 -0.2070  0.8293 -0.2486
  123MOL0     C16490   4.430   7.651   5.449 -0.1604  0.3516 -0.3598
  123MOL0     C16491   4.342   7.617   5.334  0.2351  0.5674 -0.3546
  123MOL0     C16492   4.197   7.572   5.357  0.0306  0.8783 -1.0353
  123MOL0     C16493   4.164   7.450   5.272 -0.3568  0.5275 -1.1955
  123MOL0     O16494   4.200   7.464   5.131  0.3091  0.6925 -0.0209
  123MOL0     C16495   4.152   7.365   5.039  0.1656 -0.1073  0.0856
  123MOL0     C16496   4.143   7.393   4.901 -0.2949  0.2641  0.1155
  123MOL0     C16497   4.109   7.285   4.817 -0.0139  0.6598 -0.0259
  123MOL0     C16498   4.058   7.157   4.857  0.1158 -0.3590  0.4518
  123MOL0     C16499   4.000   7.064   4.761 -0.1164  0.8473 -0.0805
  123MOL0     O16500   4.027   7.091   4.634 -0.1935  0.3059 -0.1635
  123MOL0     C16501   4.010   6.985   4.546 -0.3061 -0.1596  0.4269
  123MOL0     C16502   3.924   7.011   4.431 -0.4617 -0.0014 -0.4728
  123MOL0     C16503   3.889   6.904   4.337 -0.3791 -0.2331 -0.1823
  123MOL0     C16504   3.963   6.783   4.349 -0.3011  0.5417 -0.0605
  123MOL0     O16505   3.929   6.686   4.252  0.0944 -0.2882  0.0008
  123MOL0     C16506   4.043   6.615   4.213  0.4742 -0.7296  0.0845
  123MOL0     C16507   4.000   6.552   4.078  0.1082  0.6241 -0.3199
  123MOL0     C16508   4.028   6.401   4.074 -0.4329 -0.1827 -0.6819
  123MOL0     C16509   4.171   6.374   4.029  0.3886  0.1968 -0.5307
  123MOL0     C16510   4.179   6.226   4.012 -1.0063 -0.7196  0.0980
  123MOL0     C16511   4.324   6.179   4.012  0.4086 -0.1957  0.1966
  123MOL0     C16512   4.332   6.044   3.949  0.0567  0.6590 -0.5833
  123MOL0     C16513   4.292   5.929   4.036 -0.7301  0.0547 -0.2571
  123MOL0    Cl16514   4.117   5.898   4.005  0.0951 -0.5210  0.2933
  123MOL0     C16515   4.064   6.770   4.446  0.2555  0.6102  0.5417
  123MOL0     C16516   4.082   6.865   4.545 -0.4012 -0.2834  0.3182
  123MOL0     O16517   3.939   6.958   4.799  0.1506 -0.5242  0.3739
  123MOL0     C16518   4.074   7.135   4.994 -0.9440  0.1329 -0.1770
  123MOL0     C16519   4.118   7.234   5.082  0.1395  0.4495  0.6090
  123MOL0     N16520   4.276   7.855   5.506  0.0356 -0.4513 -0.6369
  123MOL0     N16521   4.281   7.940   5.603  0.4829  0.5347 -0.3221
  123MOL0     C16522   5.011   8.046   6.554  0.6815 -0.5067  0.6456
  123MOL0     C16523   5.146   8.078   6.589  0.4376  0.2170  0.7504
  123MOL0     C16524   5.507   8.286   6.747  1.0639  0.0952 -0.3149
  123MOL0     C16525   5.585   8.162   6.729 -0.0699 -0.1058 -0.2123
  123MOL0     C16526   5.710   8.145   6.797  0.7204 -0.0163 -0.1150
  123MOL0     C16527   5.759   8.244   6.885  0.5067  0.1861  0.2398
  123MOL0     O16528   5.866   8.227   6.968 -0.2412 -0.1208  0.0615
  123MOL0     C16529   5.944   8.106   6.991 -0.4221 -0.2271 -0.4043
  123MOL0     C16530   5.869   8.020   7.091  0.0887  0.0257 -0.7319
  123MOL0     C16531   5.879   8.107   7.225  0.2377  0.0226  0.8194
  123MOL0     C16532   5.810   8.045   7.352 -0.3140  0.2889  0.6134
  123MOL0     C16533   5.846   8.122   7.467 -0.4285  1.0469 -0.8746
  123MOL0     C16534   5.875   8.171   7.579 -0.2270 -0.7675  0.9079
  123MOL0     C16535   5.683   8.357   6.904 -0.0245  0.2383 -0.0538
  123MOL0     C16536   5.564   8.387   6.829  0.6883  0.9074 -0.6162
  123MOL0     C16537   5.500   8.523   6.851 -0.0449 -0.5328 -1.0691
  123MOL0     H16538   5.230   8.325   6.371 -0.6548  1.6062  1.7326
  123MOL0     H16539   5.012   8.290   6.307 -0.0918  0.2149  0.8574
  123MOL0     H16540   4.759   7.976   6.546  0.8505  1.3514  2.4884
  123MOL0     H16541   4.746   8.136   6.619 -0.1163  0.3439  0.3629
  123MOL0     H16542   4.567   8.203   6.457 -1.4524  0.5136 -0.4166
  123MOL0     H16543   4.536   8.065   6.565  1.5394  3.2643  2.3443
  123MOL0     H16544   4.545   7.905   6.377 -0.9020 -1.1604 -1.6660
  123MOL0     H16545   4.637   8.026   6.286 -0.8078  2.7916 -0.3452
  123MOL0     H16546   4.353   8.045   6.364  0.1253  0.1995 -0.4730
  123MOL0     H16547   4.431   8.172   6.271  2.7357 -0.1963 -1.9283
  123MOL0     H16548   4.479   7.940   6.102  0.5853  0.4846 -1.2726
  123MOL0     H16549   4.325   7.900   6.175  1.3220  0.5937  2.4570
  123MOL0     H16550   4.234   8.145   6.085  2.5229  3.7047  0.1712
  123MOL0     H16551   4.386   8.158   6.015  1.4654 -1.1269 -0.0887
  123MOL0     H16552   4.227   8.066   5.841  2.3946 -0.6928 -1.8521
  123MOL0     H16553   4.211   7.925   5.941 -1.8038  2.3876  1.5562
  123MOL0     H16554   4.461   8.047   5.801 -0.5111 -0.0910 -0.3286
  123MOL0     H16555   4.471   7.912   5.890 -0.4027 -0.1978  0.0047
  123MOL0     H16556   4.496   7.726   5.715 -2.3624 -1.5584  1.2343
  123MOL0     H16557   4.530   7.675   5.410 -0.4198  2.5818  0.2238
  123MOL0     H16558   4.434   7.559   5.508  0.0122  0.6267  0.0627
  123MOL0     H16559   4.338   7.700   5.263  0.2028  1.4702  0.6889
  123MOL0     H16560   4.400   7.537   5.287  2.4765  0.8966  1.6609
  123MOL0     H16561   4.114   7.642   5.346 -2.8407 -2.1103  0.0033
  123MOL0     H16562   4.190   7.547   5.463  2.9942  3.5320 -0.0363
  123MOL0     H16563   4.058   7.424   5.277 -0.4414  1.0062 -0.0457
  123MOL0     H16564   4.224   7.372   5.320  0.2167  1.3220 -0.5874
  123MOL0     H16565   4.173   7.487   4.855  1.2179 -0.1813  0.1495
  123MOL0     H16566   4.102   7.309   4.711 -3.9808  1.2202  0.2265
  123MOL0     H16567   3.880   7.111   4.434 -0.2197  0.1144  3.1169
  123MOL0     H16568   3.814   6.913   4.259  0.8286  0.1626 -1.3430
  123MOL0     H16569   4.130   6.678   4.195  2.2425 -3.5721 -2.3815
  123MOL0     H16570   4.070   6.542   4.291 -0.9870 -0.4818  0.8416
  123MOL0     H16571   3.891   6.562   4.076  0.1586  1.2307 -0.1026
  123MOL0     H16572   4.044   6.600   3.990  2.2832 -0.6686 -0.0102
  123MOL0     H16573   3.999   6.358   4.170  2.9640 -1.1831  0.0428
  123MOL0     H16574   3.962   6.348   4.005 -0.1915  0.4712 -1.4276
  123MOL0     H16575   4.234   6.410   4.111  0.0769 -1.4914  0.4975
  123MOL0     H16576   4.196   6.425   3.936  0.5855 -0.3572 -0.7897
  123MOL0     H16577   4.138   6.201   3.914 -0.0808 -0.5026 -0.3576
  123MOL0     H16578   4.125   6.184   4.097 -1.5495 -0.5147 -0.1388
  123MOL0     H16579   4.375   6.250   3.945  0.8398 -1.9938 -1.4848
  123MOL0     H16580   4.366   6.190   4.112  0.2152  0.9183  0.1638
  123MOL0     H16581   4.438   6.037   3.920  0.4022 -0.3361  0.7722
  123MOL0     H16582   4.276   6.021   3.859  1.8248 -2.0270 -1.1376
  123MOL0     H16583   4.349   5.842   4.002  1.1586  2.3994 -3.7401
  123MOL0     H16584   4.323   5.941   4.140  0.6203  0.0428 -0.6368
  123MOL0     H16585   4.116   6.675   4.460 -1.0260  0.1298  2.5403
  123MOL0     H16586   4.171   6.860   4.608  0.5341 -0.3017 -0.9549
  123MOL0     H16587   4.046   7.042   5.042  1.0240 -0.0830  0.6576
  123MOL0     H16588   4.129   7.204   5.186  1.2312  0.1515  0.4146
  123MOL0     H16589   4.964   7.962   6.604  2.0456  0.0669  3.0988
  123MOL0     H16590   5.201   8.012   6.656  4.6881  2.2219 -0.3798
  123MOL0     H16591   5.567   8.081   6.659  2.8640  1.5898 -3.2001
  123MOL0     H16592   5.767   8.052   6.795 -1.4192 -1.3985 -1.1114
  123MOL0     H16593   6.041   8.147   7.020 -1.7265  1.8366  1.3529
  123MOL0     H16594   5.947   8.051   6.897 -2.6490  0.8754 -1.1944
  123MOL0     H16595   5.913   7.920   7.102 -0.0176  0.0450 -0.0497
  123MOL0     H16596   5.765   8.007   7.060 -0.6612 -1.4040  2.0520
  123MOL0     H16597   5.846   8.211   7.212  2.7037  0.6004 -1.7860
  123MOL0     H16598   5.987   8.100   7.236  0.4818  1.9467  0.0929
  123MOL0     H16599   5.706   8.063   7.325  0.7041  2.2464 -2.6548
  123MOL0     H16600   5.843   7.940   7.355 -0.5372  0.2402  2.0728
  123MOL0     H16601   5.894   8.217   7.674 -0.6310  1.1719  0.1038
  123MOL0     H16602   5.714   8.433   6.975 -2.3439  3.5122 -2.3018
  123MOL0     H16603   5.531   8.561   6.948  1.4440 -2.8793 -0.5491
  123MOL0     H16604   5.542   8.595   6.780  2.3503 -0.4866  0.3170
  123MOL0     H16605   5.390   8.526   6.848 -0.1159  1.2511  1.0935
  124MOL0     O16606   4.322   0.739   5.395 -0.0327  0.1600  0.5784
  124MOL0     C16607   4.370   0.846   5.382  0.3200  0.8385  0.4133
  124MOL0     O16608   4.305   0.967   5.412  0.4240 -0.1508  0.6515
  124MOL0     C16609   4.184   0.964   5.472  0.9590  0.1648  0.7162
  124MOL0     C16610   4.074   0.946   5.391  0.9652  0.0331  0.1614
  124MOL0     C16611   3.947   0.949   5.445 -0.8028  0.8122  0.4669
  124MOL0     C16612   3.921   0.993   5.571 -0.8590  0.2575  0.1831
  124MOL0     O16613   3.791   1.007   5.607  0.0478  0.1380 -0.0559
  124MOL0     C16614   3.754   1.138   5.647 -0.1459  0.4982  0.7225
  124MOL0     C16615   3.602   1.156   5.611  0.1328  0.4211 -0.8824
  124MOL0     C16616   3.529   1.266   5.688  0.0427 -0.2512  0.3752
  124MOL0     C16617   3.386   1.276   5.644  0.5876  0.9916  0.3369
  124MOL0     C16618   3.321   1.392   5.728 -0.2469 -0.7920  0.6452
  124MOL0     C16619   3.281   1.513   5.645  0.1161 -0.1689  0.1052
  124MOL0     C16620   3.192   1.602   5.733 -0.3994  0.6592  0.6436
  124MOL0     C16621   3.147   1.729   5.656  0.7761 -0.0552  0.1650
  124MOL0     N16622   3.059   1.800   5.759 -0.1363 -0.3596  0.2003
  124MOL0     C16623   3.105   1.898   5.842 -0.4919  1.5513 -0.3289
  124MOL0     C16624   2.993   1.936   5.910 -0.0551 -0.3453 -1.0594
  124MOL0     C16625   2.978   2.034   6.027  1.0070 -0.4748  0.5697
  124MOL0     C16626   2.908   2.175   6.009 -0.4216 -0.0447 -0.4322
  124MOL0     C16627   2.776   2.180   5.927 -0.0206  0.7813  0.0917
  124MOL0     C16628   2.738   2.318   5.894 -0.5004  0.4305  0.2708
  124MOL0     O16629   2.727   2.385   6.025 -0.1511  0.3567 -0.4182
  124MOL0     C16630   2.728   2.519   6.032  0.3280  0.3911 -0.0941
  124MOL0     C16631   2.726   2.599   5.918  0.4120  0.0825  0.5277
  124MOL0     C16632   2.690   2.736   5.930  0.5965  0.3496 -0.3419
  124MOL0     C16633   2.676   2.799   6.060  0.6680  0.3345 -0.1350
  124MOL0     C16634   2.628   2.938   6.073 -0.2179  0.0379  0.7041
  124MOL0     O16635   2.611   2.967   6.206 -0.1128  0.3170  0.1442
  124MOL0     C16636   2.573   3.094   6.239  0.0993  0.7745  1.1080
  124MOL0     C16637   2.674   3.185   6.253  0.4891 -0.0639 -0.0809
  124MOL0     C16638   2.647   3.319   6.270 -0.0359  0.2769 -0.7646
  124MOL0     C16639   2.510   3.362   6.261 -0.8545  0.2972 -0.3300
  124MOL0     O16640   2.484   3.491   6.282  0.1007 -0.1012 -0.1233
  124MOL0     C16641   2.384   3.562   6.204 -0.5479 -1.2109  0.3431
  124MOL0     C16642   2.368   3.710   6.235  0.3911 -0.6320  0.7199
  124MOL0     C16643   2.503   3.779   6.252  0.3296  0.2667  0.2146
  124MOL0     C16644   2.486   3.917   6.315  0.2977 -0.6338 -0.2257
  124MOL0     C16645   2.437   3.916   6.457 -0.1371 -0.1814  0.1661
  124MOL0     C16646   2.393   4.063   6.491  0.1498  0.2464  0.0593
  124MOL0     C16647   2.335   4.081   6.635 -0.4221 -0.0503  0.6498
  124MOL0     C16648   2.442   4.096   6.749  0.0339  0.5451 -0.1135
  124MOL0    Cl16649   2.363   4.048   6.893  0.3800  0.3442  0.3518
  124MOL0     C16650   2.407   3.271   6.250  0.5445  0.1807  0.1163
  124MOL0     C16651   2.443   3.133   6.244 -0.2714  0.3426  0.8243
  124MOL0     O16652   2.589   3.007   5.976  0.3103 -0.6923  0.5418
  124MOL0     C16653   2.704   2.714   6.170  0.0427 -0.1534 -0.0628
  124MOL0     C16654   2.709   2.574   6.161 -0.2143  0.1911 -0.1341
  124MOL0     N16655   2.886   1.869   5.855 -0.0040  0.2878 -0.0204
  124MOL0     N16656   2.932   1.783   5.769  0.2103 -0.1831  0.0985
  124MOL0     C16657   4.034   1.002   5.661  0.0377  0.7735 -0.2822
  124MOL0     C16658   4.162   1.000   5.604  0.4342 -0.0417  0.5168
  124MOL0     C16659   4.511   0.847   5.340 -0.0477 -0.2105  0.0911
  124MOL0     C16660   4.578   0.958   5.373 -0.7863 -0.3749  0.1761
  124MOL0     C16661   4.708   0.985   5.339  0.7653  0.3383  0.0359
  124MOL0     C16662   4.771   0.897   5.254  0.2973  0.2207 -0.0244
  124MOL0     O16663   4.903   0.920   5.215  0.1040 -0.0842  0.8997
  124MOL0     C16664   4.970   1.037   5.254 -0.3434 -0.1622 -0.3597
  124MOL0     C16665   5.108   1.048   5.181 -0.1158  0.0982  0.9314
  124MOL0     C16666   5.200   0.918   5.197  0.8997 -0.2673 -0.2028
  124MOL0     C16667   5.327   0.918   5.128 -1.0841 -0.3051 -0.2008
  124MOL0     C16668   5.304   0.921   4.984  0.1587 -0.5232  0.0293
  124MOL0     C16669   5.301   0.930   4.864 -0.0959 -0.5887  0.1047
  124MOL0     C16670   4.714   0.775   5.229  0.2610 -1.8083  0.2764
  124MOL0     C16671   4.585   0.747   5.280  0.3747  0.7924 -0.4185
  124MOL0     C16672   4.537   0.609   5.246  0.9217  0.5109 -0.8680
  124MOL0     H16673   4.080   0.911   5.289 -1.9189 -0.1730 -0.0304
  124MOL0     H16674   3.861   0.912   5.390 -0.3438  1.0059 -0.3957
  124MOL0     H16675   3.748   1.134   5.757 -1.9730 -0.2237  0.6205
  124MOL0     H16676   3.817   1.220   5.611 -2.5168  0.9618 -2.7624
  124MOL0     H16677   3.553   1.059   5.628  0.5567  0.6362  2.2452
  124MOL0     H16678   3.595   1.180   5.505 -1.6534  0.0819 -0.8844
  124MOL0     H16679   3.585   1.358   5.671  2.8341 -1.7562  0.7365
  124MOL0     H16680   3.536   1.243   5.795  0.3237  0.8356  0.6037
  124MOL0     H16681   3.373   1.285   5.536  0.1699  0.1845  0.3084
  124MOL0     H16682   3.342   1.178   5.667  1.0039  0.7220 -0.0002
  124MOL0     H16683   3.236   1.345   5.779 -1.1118 -3.2678 -2.7272
  124MOL0     H16684   3.383   1.436   5.806 -0.8900 -0.1460  0.8023
  124MOL0     H16685   3.373   1.566   5.620  1.5886 -1.9779  1.4754
  124MOL0     H16686   3.227   1.479   5.556 -0.8670  1.1449  0.1602
  124MOL0     H16687   3.235   1.620   5.832 -0.0314  0.5327  0.5092
  124MOL0     H16688   3.097   1.551   5.750  0.0447 -0.5326 -0.2505
  124MOL0     H16689   3.233   1.790   5.629 -0.5956  1.4720 -0.9670
  124MOL0     H16690   3.094   1.691   5.568  1.4285 -1.4626  0.3613
  124MOL0     H16691   3.209   1.922   5.863 -0.3848  0.0828  1.0585
  124MOL0     H16692   2.924   1.986   6.109  2.6347 -0.0424  1.9674
  124MOL0     H16693   3.077   2.038   6.072  0.1775  0.6190  2.3865
  124MOL0     H16694   2.887   2.211   6.111  1.5215 -1.7426  0.6354
  124MOL0     H16695   2.973   2.254   5.970  1.6340 -1.5993 -0.3061
  124MOL0     H16696   2.696   2.140   5.990  0.2550  1.0663  0.6291
  124MOL0     H16697   2.791   2.127   5.832 -0.8595 -0.4444  0.6142
  124MOL0     H16698   2.645   2.330   5.839  0.3559  1.0889 -1.1065
  124MOL0     H16699   2.816   2.363   5.831 -0.1836  0.8043  0.9215
  124MOL0     H16700   2.711   2.569   5.814 -2.0959  1.7812  0.3057
  124MOL0     H16701   2.666   2.786   5.838  1.8772 -0.2086 -1.0205
  124MOL0     H16702   2.775   3.145   6.249 -1.1810 -4.9574 -1.6910
  124MOL0     H16703   2.719   3.398   6.288 -0.1360  0.8383 -2.5703
  124MOL0     H16704   2.403   3.549   6.097  0.1109  1.3970  0.0853
  124MOL0     H16705   2.287   3.516   6.224 -2.2637  2.3598  1.1116
  124MOL0     H16706   2.315   3.755   6.150  0.4551 -2.6192 -0.4254
  124MOL0     H16707   2.302   3.727   6.320 -2.8880  0.2293 -1.7948
  124MOL0     H16708   2.564   3.719   6.321 -0.8744 -0.4591  0.6873
  124MOL0     H16709   2.561   3.796   6.161  1.2536  1.5127  1.0012
  124MOL0     H16710   2.415   3.975   6.254  1.0505  0.6675  0.0973
  124MOL0     H16711   2.579   3.973   6.308 -0.6281  0.7095 -3.5835
  124MOL0     H16712   2.520   3.896   6.525  1.8706  2.0813 -1.4412
  124MOL0     H16713   2.351   3.850   6.470  0.3531 -0.4460  2.3947
  124MOL0     H16714   2.461   4.146   6.469  0.2506 -0.5929 -3.5174
  124MOL0     H16715   2.312   4.080   6.419 -2.4567  0.0451  2.7699
  124MOL0     H16716   2.281   3.987   6.645  3.4079 -2.8871 -2.1628
  124MOL0     H16717   2.266   4.166   6.630  0.1192  0.3679 -3.8076
  124MOL0     H16718   2.529   4.037   6.717  1.2828  1.3719  1.5909
  124MOL0     H16719   2.468   4.201   6.763  0.3961  0.3805  0.4930
  124MOL0     H16720   2.301   3.295   6.248  0.5374  0.1415  0.0246
  124MOL0     H16721   2.358   3.065   6.232 -1.5001  1.3345  3.3173
  124MOL0     H16722   2.706   2.756   6.270 -1.1900  0.8082 -0.4139
  124MOL0     H16723   2.711   2.519   6.254 -0.1073  2.9013  1.5767
  124MOL0     H16724   4.015   1.013   5.767 -2.7984 -1.6292 -0.4134
  124MOL0     H16725   4.247   1.032   5.663  0.5447 -2.1996  1.6141
  124MOL0     H16726   4.527   1.040   5.421  0.1344 -1.2398  2.8323
  124MOL0     H16727   4.752   1.076   5.378 -3.4473  2.4910  0.3483
  124MOL0     H16728   5.008   1.020   5.355  1.1958 -2.0960 -1.1925
  124MOL0     H16729   4.907   1.126   5.248  0.3503  0.3026 -0.7556
  124MOL0     H16730   5.153   1.135   5.229 -2.4572  0.6929  2.1829
  124MOL0     H16731   5.103   1.077   5.076  2.1109 -0.5214  0.5932
  124MOL0     H16732   5.139   0.830   5.174  2.3755 -1.2550 -0.4645
  124MOL0     H16733   5.214   0.909   5.305  2.3410 -1.3193 -0.4526
  124MOL0     H16734   5.378   1.003   5.174 -0.5731 -1.6845  1.9292
  124MOL0     H16735   5.386   0.829   5.152 -0.5279  0.3483  0.9570
  124MOL0     H16736   5.277   0.935   4.760  0.8151  1.8544 -0.0613
  124MOL0     H16737   4.763   0.709   5.158 -1.1754 -0.5873 -1.9965
  124MOL0     H16738   4.501   0.567   5.340 -0.5670 -2.4961 -2.6345
  124MOL0     H16739   4.449   0.611   5.182 -1.0728  2.6406  1.6961
  124MOL0     H16740   4.627   0.557   5.212  1.7466  1.0407  0.4145
  125MOL0     O16741   3.963   5.056   8.422 -0.3621  0.3998 -0.0330
  125MOL0     C16742   3.975   5.095   8.537  0.4718 -0.7857  0.8737
  125MOL0     O16743   3.924   5.214   8.580 -0.0621 -0.1216  0.3753
  125MOL0     C16744   3.838   5.294   8.508 -0.4353 -1.4108  0.2923
  125MOL0     C16745   3.850   5.438   8.509 -0.9290  0.4858 -0.5452
  125MOL0     C16746   3.767   5.509   8.435  0.4140  0.1711  0.0848
  125MOL0     C16747   3.667   5.452   8.359 -0.4212  0.0344  0.4037
  125MOL0     O16748   3.577   5.523   8.282 -0.2218 -0.5506 -0.1431
  125MOL0     C16749   3.570   5.658   8.330  0.4023  0.3640  1.1397
  125MOL0     C16750   3.451   5.722   8.269  0.0378  0.3760  0.8960
  125MOL0     C16751   3.317   5.643   8.296  0.1418  0.1288 -0.1334
  125MOL0     C16752   3.271   5.615   8.444 -0.6120  0.0343  0.2051
  125MOL0     C16753   3.138   5.544   8.457  0.0286  0.1336  0.6523
  125MOL0     C16754   3.134   5.397   8.388  0.1379  0.1248 -0.2494
  125MOL0     C16755   3.232   5.301   8.457  0.1998 -0.5092 -0.1841
  125MOL0     C16756   3.210   5.167   8.400 -0.1165  0.0790 -0.1005
  125MOL0     N16757   3.267   5.069   8.491 -0.0410  0.5061  0.4103
  125MOL0     C16758   3.230   5.060   8.620  0.1336 -0.3136 -0.2275
  125MOL0     C16759   3.290   4.941   8.656 -0.3092  0.3544  0.4799
  125MOL0     C16760   3.274   4.868   8.778 -0.5034 -0.5472 -0.0524
  125MOL0     C16761   3.404   4.826   8.830  0.4213  0.4229  0.3973
  125MOL0     C16762   3.497   4.948   8.858 -0.0958 -0.0990 -0.2536
  125MOL0     C16763   3.600   4.965   8.747  0.5302 -0.4970 -0.6969
  125MOL0     O16764   3.684   4.848   8.738  0.6530  0.0228  0.1877
  125MOL0     C16765   3.738   4.796   8.628 -0.4012 -0.1269 -0.3044
  125MOL0     C16766   3.858   4.720   8.655  0.3638 -0.3287 -0.6051
  125MOL0     C16767   3.930   4.668   8.549 -0.2876 -0.1917 -0.7494
  125MOL0     C16768   3.898   4.703   8.413 -0.3360  0.0526  1.2058
  125MOL0     C16769   3.966   4.643   8.292  0.5295 -0.6125  0.1091
  125MOL0     O16770   3.946   4.693   8.165  0.5482 -0.2360  0.1386
  125MOL0     C16771   3.948   4.620   8.050 -0.4273  0.4170 -0.2709
  125MOL0     C16772   4.012   4.494   8.030 -1.0859 -0.2465 -0.3895
  125MOL0     C16773   4.032   4.437   7.900  0.2026 -0.8307  0.6628
  125MOL0     C16774   3.960   4.489   7.795 -0.4486  1.1936 -0.0969
  125MOL0     O16775   3.976   4.423   7.678  1.4441  0.0822  0.3464
  125MOL0     C16776   3.840   4.388   7.631 -0.0122 -0.2106  0.8084
  125MOL0     C16777   3.843   4.324   7.490 -0.9116  0.7297  1.2130
  125MOL0     C16778   3.947   4.380   7.393 -0.6366 -0.3668 -0.1650
  125MOL0     C16779   3.927   4.529   7.382  0.2362 -0.9617  0.4249
  125MOL0     C16780   3.996   4.584   7.252  0.5189  0.5849  0.3351
  125MOL0     C16781   4.000   4.736   7.248  0.2004  0.4299 -0.3373
  125MOL0     C16782   4.025   4.781   7.104  0.1189 -0.5289  0.0095
  125MOL0     C16783   4.170   4.770   7.064  0.0936  0.6937 -0.2089
  125MOL0    Cl16784   4.197   4.805   6.895 -0.4015 -0.9441 -0.3481
  125MOL0     C16785   3.887   4.606   7.811  0.0513 -0.4427  0.7398
  125MOL0     C16786   3.880   4.671   7.941 -0.6502  0.8033 -0.5268
  125MOL0     O16787   4.012   4.533   8.326  0.0544  0.4727 -0.3128
  125MOL0     C16788   3.778   4.774   8.387 -0.5320  0.1637  0.8706
  125MOL0     C16789   3.707   4.823   8.497 -0.0180  0.2434  0.4998
  125MOL0     N16790   3.353   4.891   8.544  0.8707 -0.4112  0.6583
  125MOL0     N16791   3.333   4.967   8.443 -0.1437 -0.4093 -0.1782
  125MOL0     C16792   3.647   5.311   8.354 -0.3170 -0.3378 -0.4042
  125MOL0     C16793   3.733   5.233   8.440 -0.3474  0.6220  0.0595
  125MOL0     C16794   4.045   5.022   8.641  0.2269  0.7038  0.2461
  125MOL0     C16795   4.005   5.040   8.774  0.2353  0.1636 -0.3941
  125MOL0     C16796   4.065   4.961   8.877 -1.5805 -0.0700  0.5558
  125MOL0     C16797   4.162   4.863   8.843  0.0176 -0.3836 -0.2822
  125MOL0     O16798   4.210   4.780   8.935  0.5666 -0.1667 -0.5853
  125MOL0     C16799   4.302   4.849   9.029  0.2933 -0.3943 -0.3214
  125MOL0     C16800   4.437   4.858   8.949 -0.9211  0.5593  0.1899
  125MOL0     C16801   4.488   4.719   8.886  0.1338 -0.8641 -0.5442
  125MOL0     C16802   4.605   4.758   8.792 -0.3241 -0.3352  0.1020
  125MOL0     C16803   4.661   4.634   8.728  0.0730  0.0383  0.2252
  125MOL0     C16804   4.708   4.533   8.675 -0.0174 -0.0309 -0.0282
  125MOL0     C16805   4.195   4.840   8.716  0.3992 -0.6323  0.0929
  125MOL0     C16806   4.149   4.921   8.619  0.3670  0.1188 -0.4806
  125MOL0     C16807   4.208   4.900   8.480  0.1873 -0.1026  0.3387
  125MOL0     H16808   3.922   5.486   8.574  0.8740 -0.1969 -1.9416
  125MOL0     H16809   3.767   5.617   8.448 -3.1777  0.2689  0.4443
  125MOL0     H16810   3.553   5.678   8.437 -0.5625  1.2964  0.8371
  125MOL0     H16811   3.656   5.722   8.310  2.2774 -2.1450  0.7394
  125MOL0     H16812   3.462   5.737   8.162 -2.4321 -1.8711  0.2234
  125MOL0     H16813   3.452   5.827   8.300  0.7491  0.9448 -0.9809
  125MOL0     H16814   3.322   5.549   8.240 -1.7633  0.6132 -1.2236
  125MOL0     H16815   3.236   5.697   8.244  0.9021 -0.0262 -1.5323
  125MOL0     H16816   3.347   5.558   8.498 -0.1644 -1.1428 -1.5670
  125MOL0     H16817   3.263   5.715   8.488 -1.7007  1.2556 -2.5435
  125MOL0     H16818   3.118   5.527   8.563  0.3342  1.4439  0.9454
  125MOL0     H16819   3.053   5.609   8.434 -0.4114  0.8456  3.8324
  125MOL0     H16820   3.031   5.361   8.386  0.2241 -0.6543  3.2517
  125MOL0     H16821   3.167   5.414   8.285 -2.3742  1.3307 -0.9267
  125MOL0     H16822   3.212   5.307   8.564 -3.1750  1.9892 -0.7684
  125MOL0     H16823   3.336   5.330   8.444  0.5142 -1.5127  0.0140
  125MOL0     H16824   3.104   5.143   8.386  0.6999 -2.3407 -3.1125
  125MOL0     H16825   3.263   5.149   8.306  0.5329  1.1473  0.0501
  125MOL0     H16826   3.159   5.113   8.682 -0.5290 -1.9017  0.4469
  125MOL0     H16827   3.243   4.940   8.854  3.6671  2.4693 -0.8048
  125MOL0     H16828   3.197   4.793   8.757  1.0219 -3.4340  3.4970
  125MOL0     H16829   3.370   4.772   8.919 -1.8707  0.9428 -0.1095
  125MOL0     H16830   3.455   4.761   8.758 -2.1853  0.5397 -1.7289
  125MOL0     H16831   3.542   4.906   8.948 -1.4114 -0.1238  0.4189
  125MOL0     H16832   3.448   5.040   8.893 -0.5240 -1.0371  1.7118
  125MOL0     H16833   3.660   5.056   8.760 -0.0733 -0.3847  1.8046
  125MOL0     H16834   3.540   4.981   8.657  0.9879  1.9090 -0.6546
  125MOL0     H16835   3.907   4.712   8.752 -1.2843 -0.4140  0.2466
  125MOL0     H16836   4.016   4.610   8.582  1.1640  1.8435 -0.7948
  125MOL0     H16837   4.057   4.434   8.109  2.6158  0.2929 -1.9107
  125MOL0     H16838   4.090   4.345   7.898 -0.9471 -1.6492 -3.1923
  125MOL0     H16839   3.791   4.324   7.704  0.0275 -0.4332  0.6400
  125MOL0     H16840   3.779   4.479   7.624 -0.5521 -0.5693  0.7659
  125MOL0     H16841   3.870   4.219   7.494 -1.1103  0.6846  1.3707
  125MOL0     H16842   3.745   4.325   7.442  0.0781 -0.1359 -0.9655
  125MOL0     H16843   4.043   4.376   7.445 -2.5231 -0.2583  3.6847
  125MOL0     H16844   3.954   4.321   7.301  1.0402  0.9813 -0.9596
  125MOL0     H16845   3.968   4.589   7.464 -0.9627  0.7691 -0.1631
  125MOL0     H16846   3.819   4.551   7.380  0.6146  1.5012  2.6146
  125MOL0     H16847   3.930   4.549   7.173 -0.2037  1.1675  0.6714
  125MOL0     H16848   4.092   4.532   7.239 -0.7107 -2.5124  2.5714
  125MOL0     H16849   3.907   4.778   7.286  1.1605  2.5597 -0.2160
  125MOL0     H16850   4.075   4.763   7.322 -0.4844  1.0081  0.1597
  125MOL0     H16851   4.000   4.888   7.102  2.0920 -0.0307 -0.4299
  125MOL0     H16852   3.958   4.730   7.034 -0.3709 -0.5418  0.4848
  125MOL0     H16853   4.228   4.836   7.129  0.0409  1.7193 -1.1724
  125MOL0     H16854   4.208   4.673   7.096 -4.1170 -0.9269  0.4448
  125MOL0     H16855   3.844   4.644   7.719  3.1336 -0.7535 -0.9602
  125MOL0     H16856   3.828   4.765   7.955  0.0973  0.6607  5.3444
  125MOL0     H16857   3.743   4.799   8.287 -0.5790 -1.9837  0.3041
  125MOL0     H16858   3.623   4.885   8.466  0.4792  0.4633 -0.4616
  125MOL0     H16859   3.565   5.269   8.297 -1.3323  0.4503  0.4467
  125MOL0     H16860   3.713   5.128   8.454  0.5016  0.6623  1.7946
  125MOL0     H16861   3.937   5.120   8.801  1.3877  1.6827 -1.7654
  125MOL0     H16862   4.039   4.965   8.983  0.5840  2.8328  1.0844
  125MOL0     H16863   4.316   4.786   9.117 -0.1061  0.3704  0.3027
  125MOL0     H16864   4.260   4.941   9.069 -1.1767 -1.2806  0.2542
  125MOL0     H16865   4.519   4.906   9.003  1.9883 -1.4933 -2.0583
  125MOL0     H16866   4.415   4.925   8.865  1.1667 -1.4130 -2.0911
  125MOL0     H16867   4.413   4.660   8.833 -2.7845  1.4463  0.6944
  125MOL0     H16868   4.531   4.676   8.977  0.9133 -0.9143 -0.9265
  125MOL0     H16869   4.572   4.824   8.712  1.5587  2.4862  1.4898
  125MOL0     H16870   4.683   4.810   8.848  0.0513 -0.5384 -0.2251
  125MOL0     H16871   4.759   4.448   8.635  2.2937  0.5306  1.5665
  125MOL0     H16872   4.270   4.764   8.701  3.0153  1.6272  0.9349
  125MOL0     H16873   4.210   4.993   8.423  1.7643  0.8982  1.9122
  125MOL0     H16874   4.312   4.867   8.489  0.4834  1.3449  4.8857
  125MOL0     H16875   4.148   4.828   8.423  3.4577  0.6866 -4.7001
  126MOL0     O16876   2.636   1.505   5.970  0.1417  0.2748  0.0724
  126MOL0     C16877   2.634   1.546   5.855  0.0495  0.0984 -0.7363
  126MOL0     O16878   2.689   1.482   5.748 -0.7310  0.2157 -0.0658
  126MOL0     C16879   2.776   1.375   5.749 -0.0073 -1.2498  0.6305
  126MOL0     C16880   2.844   1.323   5.858 -0.1330 -0.3178  0.3943
  126MOL0     C16881   2.931   1.210   5.849  0.0645 -0.2890 -0.7143
  126MOL0     C16882   2.962   1.165   5.715  0.4651  0.2976 -0.5135
  126MOL0     O16883   3.058   1.072   5.681 -0.4477 -0.1421 -0.8478
  126MOL0     C16884   2.994   0.938   5.672  0.7898  0.2884 -0.4103
  126MOL0     C16885   3.095   0.847   5.615  0.3582 -1.2470  0.1532
  126MOL0     C16886   3.026   0.718   5.601  0.5739  0.8796  0.0813
  126MOL0     C16887   3.133   0.606   5.561 -0.1621  0.0292  0.4176
  126MOL0     C16888   3.066   0.499   5.467  0.8536  1.0055 -0.1050
  126MOL0     C16889   2.949   0.424   5.548  0.1274  0.9713  0.6556
  126MOL0     C16890   2.900   0.297   5.491 -0.9176  0.5392  0.3123
  126MOL0     C16891   2.794   0.217   5.564  0.5894 -0.4000  0.4898
  126MOL0     N16892   2.844   0.131   5.677 -0.2394 -0.5024 -1.0342
  126MOL0     C16893   2.897   0.005   5.661  0.6154 -0.7710 -0.1656
  126MOL0     C16894   2.922  -0.039   5.786  0.5238  0.3626  0.2045
  126MOL0     C16895   2.995  -0.170   5.805  0.0172 -0.5908 -0.1022
  126MOL0     C16896   3.109  -0.154   5.891 -0.1228 -1.4853 -0.4837
  126MOL0     C16897   3.199  -0.280   5.901 -1.0653  1.0650 -0.0942
  126MOL0     C16898   3.314  -0.256   6.000  0.4982  1.2817  0.1337
  126MOL0     O16899   3.421  -0.186   5.952  0.4829  0.3077 -0.1717
  126MOL0     C16900   3.518  -0.171   6.048  0.5237  0.2660 -0.7464
  126MOL0     C16901   3.580  -0.282   6.100  0.5103 -1.0976 -0.1503
  126MOL0     C16902   3.657  -0.272   6.217 -0.8588  0.7800 -0.6166
  126MOL0     C16903   3.675  -0.144   6.278 -0.7351 -1.4473 -0.0910
  126MOL0     C16904   3.749  -0.134   6.405 -0.6428  1.0542  0.2088
  126MOL0     O16905   3.807  -0.257   6.447 -0.4767 -0.0589 -0.0131
  126MOL0     C16906   3.854  -0.255   6.574 -0.2948 -0.2653 -0.3968
  126MOL0     C16907   3.824  -0.339   6.679  0.9248  0.4318 -0.3906
  126MOL0     C16908   3.890  -0.338   6.802  0.1842 -0.2114 -0.6642
  126MOL0     C16909   3.996  -0.254   6.826 -0.3425 -0.5142  0.0216
  126MOL0     O16910   4.051  -0.257   6.948 -0.2540 -0.2870 -0.3911
  126MOL0     C16911   4.191  -0.239   6.973 -0.3476 -0.2695 -0.2024
  126MOL0     C16912   4.191  -0.122   7.079 -0.8292  1.1451 -0.0083
  126MOL0     C16913   4.262  -0.165   7.212 -0.2734 -0.2841  0.4648
  126MOL0     C16914   4.310  -0.039   7.287 -0.0508 -0.1829 -0.1170
  126MOL0     C16915   4.375  -0.074   7.411 -0.6040  0.8592 -1.0319
  126MOL0     C16916   4.436   0.047   7.493 -0.1926 -0.7283 -0.5404
  126MOL0     C16917   4.336   0.140   7.566 -0.6904 -0.1835  0.2104
  126MOL0     C16918   4.247   0.059   7.673 -0.1721  0.0216  0.9859
  126MOL0    Cl16919   4.129   0.175   7.735  0.0689 -0.0038  0.1698
  126MOL0     C16920   4.034  -0.169   6.717  0.5135 -0.1651  0.2482
  126MOL0     C16921   3.964  -0.170   6.598 -0.1383  0.5715 -0.4112
  126MOL0     O16922   3.745  -0.036   6.467  0.3999 -0.4292  0.2452
  126MOL0     C16923   3.607  -0.032   6.235  0.6335 -0.5386  0.6572
  126MOL0     C16924   3.529  -0.050   6.118 -0.4213 -0.1246  0.1623
  126MOL0     N16925   2.875   0.052   5.874 -0.1495 -0.5083  0.7273
  126MOL0     N16926   2.827   0.155   5.809  0.5949  0.1749 -0.0580
  126MOL0     C16927   2.890   1.216   5.609 -0.2004  0.5508  0.3466
  126MOL0     C16928   2.799   1.320   5.622  0.3676 -0.3825 -1.3040
  126MOL0     C16929   2.561   1.662   5.827  0.0144 -0.0723 -0.3363
  126MOL0     C16930   2.483   1.662   5.708  0.6668 -0.2530  0.6259
  126MOL0     C16931   2.413   1.771   5.667  0.1428 -0.6544  0.1760
  126MOL0     C16932   2.397   1.875   5.761  0.0927 -0.1805  0.7674
  126MOL0     O16933   2.325   1.985   5.731  0.8435 -0.2526 -1.0014
  126MOL0     C16934   2.274   2.016   5.602 -0.7861 -0.2591 -0.1047
  126MOL0     C16935   2.216   2.152   5.607 -0.1329 -0.9417 -0.7063
  126MOL0     C16936   2.112   2.189   5.500  0.6686  0.6617  0.7605
  126MOL0     C16937   2.091   2.340   5.493 -0.4721 -0.6126 -0.5242
  126MOL0     C16938   2.050   2.393   5.618 -0.3790  0.2769 -0.2300
  126MOL0     C16939   2.025   2.428   5.735 -0.8009 -0.8522 -0.0806
  126MOL0     C16940   2.458   1.866   5.890  0.6604 -0.2069  0.2117
  126MOL0     C16941   2.553   1.774   5.918 -0.6019  0.0464 -0.3269
  126MOL0     C16942   2.614   1.784   6.059 -0.4675 -0.5055  1.2362
  126MOL0     H16943   2.825   1.362   5.958 -0.0624  0.3953  0.1403
  126MOL0     H16944   2.984   1.181   5.939  0.2158  0.6640 -0.4803
  126MOL0     H16945   2.961   0.911   5.773  1.4824  1.5237  0.1745
  126MOL0     H16946   2.915   0.938   5.597 -0.8532 -0.7955  1.2356
  126MOL0     H16947   3.180   0.822   5.680 -0.7661  0.5389  2.4164
  126MOL0     H16948   3.122   0.887   5.517 -2.7803  0.6396 -0.0652
  126MOL0     H16949   2.954   0.734   5.521 -0.6658 -1.7015  0.5759
  126MOL0     H16950   2.970   0.678   5.686 -0.0474  0.3470 -0.5711
  126MOL0     H16951   3.205   0.653   5.495 -1.6531  1.3244 -0.3720
  126MOL0     H16952   3.171   0.561   5.653 -2.0364  1.2194  1.8454
  126MOL0     H16953   3.005   0.545   5.389 -3.3139 -2.5809  0.6279
  126MOL0     H16954   3.137   0.425   5.431  0.2876 -0.4496  1.5974
  126MOL0     H16955   2.985   0.404   5.650  0.6503  0.2525  0.3363
  126MOL0     H16956   2.858   0.485   5.547 -0.4435  0.1238 -0.7898
  126MOL0     H16957   2.982   0.235   5.453  2.2327  4.4920 -0.0735
  126MOL0     H16958   2.855   0.328   5.396  0.8187 -1.5890 -1.3205
  126MOL0     H16959   2.708   0.279   5.588 -0.2085 -0.3336 -2.2339
  126MOL0     H16960   2.749   0.148   5.492 -2.2526 -0.2434  1.9871
  126MOL0     H16961   2.918  -0.053   5.572 -1.2779  0.9478 -1.8539
  126MOL0     H16962   2.920  -0.240   5.844 -0.1874  0.1187  0.7836
  126MOL0     H16963   3.031  -0.217   5.712  1.5024 -1.5019  0.8912
  126MOL0     H16964   3.166  -0.068   5.854 -1.4027 -1.1870 -1.8555
  126MOL0     H16965   3.063  -0.125   5.986 -2.2103 -3.7238 -0.7081
  126MOL0     H16966   3.238  -0.301   5.801 -0.5247 -2.6146  0.7257
  126MOL0     H16967   3.141  -0.369   5.928 -0.7934  1.2194  1.0814
  126MOL0     H16968   3.341  -0.353   6.044 -1.5559  1.7150  2.6000
  126MOL0     H16969   3.266  -0.215   6.089 -2.5131 -0.1692 -0.6809
  126MOL0     H16970   3.578  -0.372   6.038  1.7240 -1.3182  0.1031
  126MOL0     H16971   3.718  -0.353   6.254 -1.3064 -0.0411 -1.6262
  126MOL0     H16972   3.745  -0.412   6.685  0.9648  0.5128  3.1643
  126MOL0     H16973   3.856  -0.409   6.877 -0.1768 -0.9973 -1.5411
  126MOL0     H16974   4.247  -0.328   7.004  0.5722 -0.5461 -2.5139
  126MOL0     H16975   4.240  -0.201   6.884 -2.6926 -0.9717 -1.8857
  126MOL0     H16976   4.255  -0.043   7.038  1.1852 -0.9871 -1.1953
  126MOL0     H16977   4.087  -0.100   7.105 -2.0539 -3.5974 -0.0934
  126MOL0     H16978   4.194  -0.232   7.265  0.8047 -2.7541 -1.1180
  126MOL0     H16979   4.345  -0.232   7.188  0.3178  1.5705 -3.4267
  126MOL0     H16980   4.220   0.021   7.308 -1.1761 -2.5688  2.5272
  126MOL0     H16981   4.377   0.015   7.220 -0.3241  1.0197  0.5273
  126MOL0     H16982   4.449  -0.152   7.392 -2.5536 -2.1096  2.3490
  126MOL0     H16983   4.307  -0.135   7.470 -0.6779  1.5174 -0.4219
  126MOL0     H16984   4.500   0.007   7.573 -1.4163 -0.5395  0.5511
  126MOL0     H16985   4.504   0.103   7.428 -1.3840  0.9743 -0.3811
  126MOL0     H16986   4.265   0.181   7.493 -0.7268 -1.0839 -0.2709
  126MOL0     H16987   4.393   0.220   7.614  2.3322 -1.2559 -1.2918
  126MOL0     H16988   4.194  -0.020   7.620  0.4408 -0.7100  1.4461
  126MOL0     H16989   4.308   0.031   7.759  0.0335  0.6901  1.0624
  126MOL0     H16990   4.111  -0.094   6.737  1.5957 -0.7388 -1.5345
  126MOL0     H16991   4.008  -0.097   6.531  1.0958 -1.2131 -1.6380
  126MOL0     H16992   3.618   0.067   6.278  0.0543 -1.0822  2.1160
  126MOL0     H16993   3.477   0.036   6.077 -0.2371 -0.4452 -0.7760
  126MOL0     H16994   2.901   1.186   5.505  2.1309  1.8517  0.1397
  126MOL0     H16995   2.740   1.358   5.538  0.0685  0.1587 -0.8563
  126MOL0     H16996   2.479   1.576   5.642  0.2053  1.7355 -2.1194
  126MOL0     H16997   2.357   1.768   5.574  1.0823  0.3086 -0.4398
  126MOL0     H16998   2.196   1.942   5.585  0.9873 -2.3712  0.5488
  126MOL0     H16999   2.338   2.018   5.513 -3.7877  1.3305 -2.4300
  126MOL0     H17000   2.278   2.242   5.610 -3.1990  1.3555  2.4432
  126MOL0     H17001   2.154   2.164   5.696 -0.0602 -1.1647 -0.6264
  126MOL0     H17002   2.023   2.126   5.514  3.5613 -3.1676  4.5597
  126MOL0     H17003   2.143   2.153   5.402  1.5818 -2.4256  2.0650
  126MOL0     H17004   2.182   2.393   5.464  0.6957 -1.0370  2.0722
  126MOL0     H17005   2.023   2.364   5.411  0.7114  1.6215 -0.9413
  126MOL0     H17006   1.989   2.463   5.829 -0.9566  1.7102 -1.0207
  126MOL0     H17007   2.448   1.948   5.960  1.6080  1.7280 -1.7904
  126MOL0     H17008   2.708   1.729   6.060  1.0080  1.7053 -1.8601
  126MOL0     H17009   2.642   1.889   6.071 -0.4648 -0.4386  0.6722
  126MOL0     H17010   2.541   1.740   6.128  0.7631 -1.1653  2.1544
  127MOL0     O17011   8.753   2.978   4.100  0.0415  0.2807 -0.0128
  127MOL0     C17012   8.821   2.983   4.200 -0.2920 -0.8785  0.6436
  127MOL0     O17013   8.902   2.882   4.237 -0.7671 -0.1869  0.2310
  127MOL0     C17014   8.894   2.765   4.172 -0.5944 -0.0076  0.9133
  127MOL0     C17015   9.010   2.706   4.120 -0.7522 -0.2953  0.9105
  127MOL0     C17016   9.012   2.577   4.072 -0.0465 -1.1072 -0.3700
  127MOL0     C17017   8.890   2.504   4.068  0.2796 -0.4922 -0.0466
  127MOL0     O17018   8.882   2.365   4.039 -0.1591 -0.3022 -0.2903
  127MOL0     C17019   8.997   2.291   4.089 -0.6864 -0.2165 -0.1972
  127MOL0     C17020   8.978   2.141   4.049  1.2694 -0.0748 -0.9171
  127MOL0     C17021   8.838   2.084   4.099  0.3373 -0.1497 -0.7509
  127MOL0     C17022   8.835   1.931   4.093 -0.9103 -0.1913 -0.0498
  127MOL0     C17023   8.746   1.852   4.195 -0.0270 -0.1134  0.0162
  127MOL0     C17024   8.598   1.857   4.162 -0.5040 -0.4614 -0.2713
  127MOL0     C17025   8.520   1.780   4.270 -0.8849 -0.4141  0.0873
  127MOL0     C17026   8.557   1.635   4.269 -0.5761  0.9517  0.3488
  127MOL0     N17027   8.552   1.560   4.140 -0.5619  0.1300 -0.1332
  127MOL0     C17028   8.468   1.580   4.033 -0.6813  0.1406  0.6338
  127MOL0     C17029   8.515   1.488   3.939 -0.0092 -1.0001 -1.0139
  127MOL0     C17030   8.479   1.461   3.799  0.1467  0.4930 -0.3812
  127MOL0     C17031   8.320   1.435   3.779 -0.6421 -0.5271 -0.0541
  127MOL0     C17032   8.249   1.351   3.886 -0.0752 -0.6975 -0.6553
  127MOL0     C17033   8.294   1.211   3.873  0.4890  0.0338 -0.7209
  127MOL0     O17034   8.234   1.127   3.968 -0.2116 -0.0630 -0.3678
  127MOL0     C17035   8.275   0.999   3.980  0.3290  0.3173  0.8747
  127MOL0     C17036   8.348   0.932   3.882  0.5306  0.5292 -0.8199
  127MOL0     C17037   8.401   0.807   3.897 -0.3781 -0.8602 -0.1463
  127MOL0     C17038   8.377   0.738   4.018 -0.7699 -0.6777 -0.5734
  127MOL0     C17039   8.422   0.603   4.040 -0.7279  0.5961  0.4637
  127MOL0     O17040   8.418   0.549   4.166 -0.1270 -0.4918 -0.1045
  127MOL0     C17041   8.475   0.425   4.196 -1.3800 -0.2625 -0.6811
  127MOL0     C17042   8.545   0.404   4.319 -0.3070 -0.5989  0.2475
  127MOL0     C17043   8.592   0.269   4.360  0.3853 -0.8839  0.8549
  127MOL0     C17044   8.559   0.159   4.280  0.2249  0.5262 -0.5147
  127MOL0     O17045   8.572   0.024   4.322  0.2174  0.6070 -0.0751
  127MOL0     C17046   8.637  -0.012   4.445  0.9564  0.8015 -0.5575
  127MOL0     C17047   8.541  -0.019   4.567 -0.5765 -0.4960 -0.0118
  127MOL0     C17048   8.444  -0.136   4.564 -0.2565  0.0483 -0.1787
  127MOL0     C17049   8.503  -0.270   4.618 -0.4772  0.1315 -0.4670
  127MOL0     C17050   8.413  -0.392   4.592  0.7473 -0.4959 -0.9044
  127MOL0     C17051   8.303  -0.402   4.699  0.5876 -0.5559 -0.0676
  127MOL0     C17052   8.225  -0.531   4.687  0.2420  1.2869 -0.2277
  127MOL0     C17053   8.069  -0.518   4.675 -1.3072  1.2662  0.6098
  127MOL0    Cl17054   8.005  -0.445   4.823 -0.2872 -0.0367 -0.1270
  127MOL0     C17055   8.491   0.179   4.165 -0.3627 -0.3359  0.7351
  127MOL0     C17056   8.452   0.311   4.126 -0.2637 -0.3850 -0.7458
  127MOL0     O17057   8.480   0.547   3.944 -0.5932  1.0998 -0.5790
  127MOL0     C17058   8.316   0.810   4.121  0.4966  0.6505  0.2351
  127MOL0     C17059   8.258   0.936   4.103  0.7648 -0.4955 -0.0349
  127MOL0     N17060   8.630   1.420   3.985  1.0285 -0.0306  0.2202
  127MOL0     N17061   8.647   1.463   4.108 -0.0121  0.4485 -0.4598
  127MOL0     C17062   8.771   2.559   4.106 -0.4489 -0.7129 -0.8504
  127MOL0     C17063   8.775   2.695   4.163  0.0037  0.9679  0.4192
  127MOL0     C17064   8.820   3.108   4.287  0.5786  0.2228 -0.0522
  127MOL0     C17065   8.930   3.130   4.364  0.0495 -0.6550  0.7091
  127MOL0     C17066   8.946   3.241   4.443 -0.4294  0.7524 -0.1568
  127MOL0     C17067   8.843   3.326   4.451  0.5603  0.0554 -0.6664
  127MOL0     O17068   8.831   3.441   4.533 -0.4620 -0.1655 -0.0958
  127MOL0     C17069   8.954   3.515   4.552 -0.3161 -0.0963 -0.5570
  127MOL0     C17070   9.018   3.572   4.428 -0.3500  0.0878 -0.3792
  127MOL0     C17071   9.136   3.668   4.453  0.1918 -0.0789  1.0544
  127MOL0     C17072   9.107   3.813   4.432  1.2775 -0.0086  0.0245
  127MOL0     C17073   9.035   3.879   4.541 -0.0650  0.4443 -0.4676
  127MOL0     C17074   8.987   3.949   4.628 -0.1717  0.8427  1.0175
  127MOL0     C17075   8.728   3.309   4.374  0.4732 -0.1789 -0.4393
  127MOL0     C17076   8.706   3.191   4.297 -0.3233  0.4326  0.3550
  127MOL0     C17077   8.573   3.173   4.232 -1.2448 -0.4147  0.5390
  127MOL0     H17078   9.097   2.770   4.128 -1.3744  0.6944 -0.0381
  127MOL0     H17079   9.106   2.539   4.033  1.5395 -1.5269  3.4425
  127MOL0     H17080   9.093   2.329   4.052  0.7123 -0.2039  3.1402
  127MOL0     H17081   8.987   2.309   4.196 -0.5705 -0.0699 -0.2097
  127MOL0     H17082   9.053   2.077   4.095  0.6788 -0.9518 -1.1418
  127MOL0     H17083   8.989   2.123   3.941 -1.5697 -1.3199 -1.0910
  127MOL0     H17084   8.763   2.114   4.025  0.0455 -3.6836 -2.0453
  127MOL0     H17085   8.798   2.124   4.192 -1.4029 -1.2407 -1.0023
  127MOL0     H17086   8.806   1.902   3.992  1.1443  0.0833 -0.7733
  127MOL0     H17087   8.939   1.903   4.115 -0.7082  2.4390  3.0749
  127MOL0     H17088   8.784   1.751   4.178  0.2841  0.1066 -0.6796
  127MOL0     H17089   8.760   1.874   4.301 -1.4357 -1.2954  0.4693
  127MOL0     H17090   8.552   1.956   4.169 -0.2346 -0.4074  1.1312
  127MOL0     H17091   8.578   1.828   4.059  1.9231 -2.3223 -0.3119
  127MOL0     H17092   8.411   1.787   4.264 -0.9848 -1.3707  0.5501
  127MOL0     H17093   8.542   1.825   4.367 -1.8781  1.6962 -0.6120
  127MOL0     H17094   8.650   1.618   4.324 -0.3059  0.4243 -0.2664
  127MOL0     H17095   8.478   1.595   4.334  0.7929 -0.9652  0.8897
  127MOL0     H17096   8.375   1.635   4.019 -0.3401  0.1417 -2.1261
  127MOL0     H17097   8.498   1.542   3.728 -3.1123 -1.7332 -4.2191
  127MOL0     H17098   8.536   1.372   3.770  2.6857  1.1126  2.2736
  127MOL0     H17099   8.260   1.524   3.799  0.8320  0.4345  0.3259
  127MOL0     H17100   8.305   1.399   3.677 -1.5809  0.2735 -0.2078
  127MOL0     H17101   8.142   1.362   3.867 -0.9464 -1.4199  3.0890
  127MOL0     H17102   8.263   1.380   3.991 -2.6733  0.7304 -0.6310
  127MOL0     H17103   8.401   1.212   3.894  0.2154  3.1240  0.9721
  127MOL0     H17104   8.266   1.169   3.775 -1.8019 -2.7554  0.9647
  127MOL0     H17105   8.378   0.988   3.794  1.7235  2.1378  0.5508
  127MOL0     H17106   8.454   0.772   3.809  0.5029  3.2701 -1.4923
  127MOL0     H17107   8.564   0.487   4.387 -0.3199 -1.1347  0.9150
  127MOL0     H17108   8.642   0.256   4.455  2.0860 -0.0662  0.1106
  127MOL0     H17109   8.694  -0.106   4.439 -1.1145 -0.6321  0.7646
  127MOL0     H17110   8.710   0.066   4.468  5.4374 -2.8081 -0.8777
  127MOL0     H17111   8.603  -0.016   4.656  0.8832  0.3406 -1.0012
  127MOL0     H17112   8.496   0.081   4.569  1.0409  0.2940 -0.9572
  127MOL0     H17113   8.367  -0.095   4.630 -1.6417  0.0172 -1.6995
  127MOL0     H17114   8.411  -0.154   4.461 -0.9777 -3.7668  0.5540
  127MOL0     H17115   8.523  -0.251   4.724 -1.3649  0.2260 -0.3059
  127MOL0     H17116   8.600  -0.284   4.570  0.2044 -0.3869  1.0107
  127MOL0     H17117   8.475  -0.483   4.592 -0.4057 -1.3446  0.7723
  127MOL0     H17118   8.374  -0.393   4.490  1.0645  0.8494 -1.0481
  127MOL0     H17119   8.329  -0.380   4.803 -0.7427  0.8016  0.0092
  127MOL0     H17120   8.234  -0.322   4.673 -1.1886 -2.9215 -3.4122
  127MOL0     H17121   8.241  -0.591   4.777 -1.3772 -0.8419 -1.2578
  127MOL0     H17122   8.265  -0.592   4.605 -1.3870  2.0050 -1.6192
  127MOL0     H17123   8.038  -0.449   4.596 -3.5990  0.0298  0.3423
  127MOL0     H17124   8.022  -0.615   4.653  2.5296 -0.7189  0.3975
  127MOL0     H17125   8.460   0.083   4.124 -0.2689 -1.5686  3.3649
  127MOL0     H17126   8.408   0.318   4.027 -3.0592  2.5333  0.5209
  127MOL0     H17127   8.291   0.760   4.214 -2.0535  0.0747 -0.6756
  127MOL0     H17128   8.196   0.983   4.178 -2.3512 -1.8063 -1.5787
  127MOL0     H17129   8.687   2.490   4.110  0.0226 -1.2470  1.6854
  127MOL0     H17130   8.684   2.746   4.191 -0.9669 -0.9813  0.9779
  127MOL0     H17131   9.017   3.069   4.342  1.2258  0.6742  1.4654
  127MOL0     H17132   9.031   3.250   4.509 -1.4661 -2.4149  1.8435
  127MOL0     H17133   9.025   3.446   4.600 -0.7555 -0.2488 -0.1156
  127MOL0     H17134   8.940   3.590   4.631 -2.3742  0.1753 -1.1224
  127MOL0     H17135   8.945   3.620   4.361 -1.0918  0.9122  0.9893
  127MOL0     H17136   9.061   3.482   4.382 -1.1175 -1.5229  1.8827
  127MOL0     H17137   9.219   3.651   4.384 -0.2657  1.0106  0.2143
  127MOL0     H17138   9.185   3.654   4.550  2.0637  2.6745  0.6051
  127MOL0     H17139   9.206   3.860   4.438  0.8966  0.7239  0.9252
  127MOL0     H17140   9.059   3.830   4.335 -0.0597  0.9900  0.8091
  127MOL0     H17141   8.935   3.995   4.710 -0.4107 -1.6492  2.3515
  127MOL0     H17142   8.652   3.383   4.398  0.1946 -0.8802  0.9212
  127MOL0     H17143   8.539   3.071   4.254  2.6876 -1.7227  1.4734
  127MOL0     H17144   8.512   3.251   4.278  1.6981  2.0837  0.5059
  127MOL0     H17145   8.589   3.180   4.124 -1.3099  1.2640  0.6184
  128MOL0     O17146   1.702   2.961   4.909 -0.4837 -0.2749  0.5096
  128MOL0     C17147   1.814   2.917   4.906  0.3070  0.7424  0.7438
  128MOL0     O17148   1.855   2.815   4.813 -0.2205  0.0065 -0.4163
  128MOL0     C17149   1.754   2.794   4.723  0.5335 -0.1671  0.6103
  128MOL0     C17150   1.759   2.858   4.601 -0.3478 -0.2560 -0.9844
  128MOL0     C17151   1.671   2.841   4.499  0.5971 -0.1829  0.1662
  128MOL0     C17152   1.565   2.756   4.516  0.0127 -0.2617 -0.1310
  128MOL0     O17153   1.495   2.732   4.400  0.8673 -0.0465  0.0991
  128MOL0     C17154   1.360   2.688   4.402  0.1705 -0.2762 -0.5437
  128MOL0     C17155   1.274   2.757   4.294 -0.7169  0.5420  1.0971
  128MOL0     C17156   1.134   2.694   4.319  0.2053  0.2032 -0.3880
  128MOL0     C17157   1.019   2.775   4.255  0.0042  0.0699 -0.0355
  128MOL0     C17158   0.890   2.694   4.275 -0.2555 -0.6008  0.9099
  128MOL0     C17159   0.771   2.783   4.254 -1.4771 -0.3653  0.3258
  128MOL0     C17160   0.758   2.843   4.116  0.7500  0.7129  0.2204
  128MOL0     C17161   0.634   2.936   4.091 -1.0593 -0.6824 -0.4244
  128MOL0     N17162   0.549   2.876   3.985 -0.0122 -0.1220  0.4998
  128MOL0     C17163   0.479   2.758   3.993 -0.1762  0.1026  0.3033
  128MOL0     C17164   0.410   2.757   3.877  0.2327 -0.2589 -0.1832
  128MOL0     C17165   0.306   2.664   3.827  0.3711 -0.4615 -0.2118
  128MOL0     C17166   0.381   2.539   3.764 -0.4296  0.3133  0.6652
  128MOL0     C17167   0.284   2.434   3.697  0.3065 -0.8417 -0.0186
  128MOL0     C17168   0.366   2.310   3.660  1.1900 -0.0111 -0.1333
  128MOL0     O17169   0.429   2.252   3.768 -0.0060 -0.0639 -0.5056
  128MOL0     C17170   0.371   2.152   3.838  0.8537  0.0391  0.1644
  128MOL0     C17171   0.230   2.107   3.830  0.0468  0.2635 -0.3120
  128MOL0     C17172   0.192   1.990   3.911 -0.5579  0.2894 -0.4443
  128MOL0     C17173   0.277   1.936   4.012 -0.0876 -0.2261  0.2189
  128MOL0     C17174   0.242   1.815   4.093  0.2391  0.4924  0.4412
  128MOL0     O17175   0.342   1.747   4.150 -0.4644  0.7665  0.0845
  128MOL0     C17176   0.317   1.645   4.238  0.2625  0.3105 -0.1503
  128MOL0     C17177   0.405   1.530   4.227  0.0564  0.7389 -0.4155
  128MOL0     C17178   0.392   1.434   4.321 -0.6625  0.2127 -0.4767
  128MOL0     C17179   0.299   1.440   4.419  0.6529 -0.7620  0.0814
  128MOL0     O17180   0.304   1.334   4.511 -0.0168  0.2763  0.5494
  128MOL0     C17181   0.240   1.218   4.454  0.5896  0.4250  0.8250
  128MOL0     C17182   0.084   1.230   4.465  0.2279 -1.1524  0.4025
  128MOL0     C17183   0.045   1.266   4.606 -0.0525  0.5401  0.2106
  128MOL0     C17184  -0.097   1.248   4.648 -0.1872 -0.3541 -0.1054
  128MOL0     C17185  -0.118   1.328   4.777  0.4483  0.2962  0.1221
  128MOL0     C17186  -0.253   1.281   4.838 -0.0870 -0.8784  0.0177
  128MOL0     C17187  -0.295   1.357   4.962 -0.1444 -0.2542  1.1505
  128MOL0     C17188  -0.292   1.505   4.937  0.7583 -0.7341 -0.0774
  128MOL0    Cl17189  -0.344   1.595   5.087 -0.1585 -0.2941  0.2811
  128MOL0     C17190   0.203   1.545   4.425 -0.7328 -0.5323  0.1707
  128MOL0     C17191   0.218   1.652   4.335  0.3695 -0.6122 -0.2460
  128MOL0     O17192   0.117   1.785   4.099 -0.0981 -0.2359  0.1621
  128MOL0     C17193   0.410   1.990   4.013 -0.7468  0.4860 -0.5496
  128MOL0     C17194   0.451   2.087   3.928 -0.6002  0.3347  0.2770
  128MOL0     N17195   0.436   2.865   3.798 -0.8840 -0.1914 -0.2676
  128MOL0     N17196   0.516   2.944   3.870 -0.0265  0.9077  0.0802
  128MOL0     C17197   1.553   2.677   4.636 -0.2596  0.5585  0.8424
  128MOL0     C17198   1.646   2.700   4.739  0.0938 -0.8125 -0.6527
  128MOL0     C17199   1.901   2.979   5.012 -0.1808  0.1150  0.7390
  128MOL0     C17200   1.852   3.091   5.082 -0.5038  0.2922  1.7884
  128MOL0     C17201   1.935   3.132   5.192  0.1494  0.5504  0.4710
  128MOL0     C17202   2.065   3.091   5.213  0.1904 -0.6964 -0.3376
  128MOL0     O17203   2.121   3.147   5.328  0.2553  0.4570 -0.4074
  128MOL0     C17204   2.269   3.159   5.342  0.3273  1.1901 -0.2129
  128MOL0     C17205   2.341   3.240   5.239 -0.2628 -0.2099  0.3014
  128MOL0     C17206   2.478   3.312   5.254  0.2617 -0.9575 -0.0169
  128MOL0     C17207   2.590   3.246   5.334 -0.1342 -0.1087 -0.1452
  128MOL0     C17208   2.550   3.240   5.475  0.4147 -0.9589 -0.2604
  128MOL0     C17209   2.517   3.250   5.595 -1.1923 -0.1372  0.3095
  128MOL0     C17210   2.117   2.995   5.129  0.3560  0.0953  0.5167
  128MOL0     C17211   2.037   2.934   5.031  0.4899 -0.3421 -1.4855
  128MOL0     C17212   2.109   2.830   4.948 -0.3122  0.4472 -0.1340
  128MOL0     H17213   1.836   2.935   4.598  0.7795 -1.3035 -0.0417
  128MOL0     H17214   1.671   2.899   4.408 -1.1573 -2.0710 -1.1069
  128MOL0     H17215   1.361   2.580   4.384  0.4609 -0.1054 -1.6020
  128MOL0     H17216   1.319   2.704   4.503 -0.2076 -0.1077 -0.7222
  128MOL0     H17217   1.315   2.746   4.193  2.1775  2.0017  2.0233
  128MOL0     H17218   1.270   2.862   4.322 -1.0852  2.5219 -4.9597
  128MOL0     H17219   1.115   2.686   4.426  3.6645  1.7737  0.5124
  128MOL0     H17220   1.143   2.597   4.271  2.4533  0.3420 -0.3824
  128MOL0     H17221   1.003   2.879   4.285  2.4475 -0.3140  3.1534
  128MOL0     H17222   1.037   2.774   4.147 -1.3934  0.4960 -0.2993
  128MOL0     H17223   0.884   2.607   4.209  3.6668 -0.0424 -0.4176
  128MOL0     H17224   0.881   2.653   4.377  0.1702 -0.1022  1.1495
  128MOL0     H17225   0.685   2.720   4.277 -2.8743  0.1488 -2.9604
  128MOL0     H17226   0.768   2.866   4.325 -3.8886 -1.2693  1.3877
  128MOL0     H17227   0.765   2.760   4.045 -0.4723  2.2474 -1.7777
  128MOL0     H17228   0.840   2.912   4.098  0.9689  0.0237 -1.7019
  128MOL0     H17229   0.571   2.945   4.180 -2.8132  1.0191 -1.7395
  128MOL0     H17230   0.654   3.041   4.066 -5.0095  0.4105  0.2950
  128MOL0     H17231   0.469   2.689   4.076  1.7243 -0.0078  0.4760
  128MOL0     H17232   0.232   2.631   3.901  1.1053 -0.1453  0.6796
  128MOL0     H17233   0.247   2.713   3.749  0.6194 -3.6190 -2.5628
  128MOL0     H17234   0.454   2.562   3.686 -0.9455  0.2566  0.1578
  128MOL0     H17235   0.436   2.493   3.846  0.4676  0.4963  0.1740
  128MOL0     H17236   0.232   2.456   3.603 -0.9724 -3.8266 -0.1319
  128MOL0     H17237   0.215   2.409   3.778  1.4194 -0.8457  0.9436
  128MOL0     H17238   0.434   2.339   3.578  0.8205  0.1188 -0.3983
  128MOL0     H17239   0.301   2.230   3.623  3.4061 -2.1950  0.4409
  128MOL0     H17240   0.156   2.144   3.759  1.4008  0.3605 -1.7457
  128MOL0     H17241   0.096   1.939   3.904  0.0566 -0.9517 -0.1493
  128MOL0     H17242   0.477   1.518   4.147  0.0223 -1.3770 -0.1669
  128MOL0     H17243   0.456   1.347   4.315 -2.0121 -0.8139 -0.4160
  128MOL0     H17244   0.264   1.213   4.348  0.9778 -0.0183  0.9318
  128MOL0     H17245   0.277   1.120   4.488 -3.1347 -2.6823 -2.9707
  128MOL0     H17246   0.034   1.296   4.393  3.9516 -0.0585 -1.4577
  128MOL0     H17247   0.037   1.132   4.452 -2.7067 -0.4321  4.0482
  128MOL0     H17248   0.109   1.203   4.669  1.2833  1.0920 -0.5481
  128MOL0     H17249   0.061   1.372   4.627 -1.5340  0.5154  1.7645
  128MOL0     H17250  -0.128   1.144   4.662 -1.5577  0.0041 -0.3408
  128MOL0     H17251  -0.167   1.292   4.576  0.0219  2.1515  1.1066
  128MOL0     H17252  -0.117   1.432   4.742  2.5235 -0.4944 -2.5243
  128MOL0     H17253  -0.037   1.309   4.848  4.6143 -1.2519 -4.5001
  128MOL0     H17254  -0.328   1.283   4.758  0.7389  2.7987 -0.8713
  128MOL0     H17255  -0.239   1.177   4.867  2.2863 -0.1471  1.7489
  128MOL0     H17256  -0.239   1.328   5.051  1.3429  3.3487  1.5580
  128MOL0     H17257  -0.399   1.331   4.986 -0.5886  0.9688  0.6156
  128MOL0     H17258  -0.189   1.529   4.910  0.9875 -3.0605 -1.6271
  128MOL0     H17259  -0.352   1.517   4.846  1.5566  1.0694 -0.4157
  128MOL0     H17260   0.112   1.545   4.484 -3.0912 -1.2547 -3.1764
  128MOL0     H17261   0.147   1.734   4.343  1.5598  0.3625  0.6993
  128MOL0     H17262   0.476   1.943   4.085  0.5924  1.6555 -0.9691
  128MOL0     H17263   0.558   2.095   3.916 -0.5860 -1.6156 -1.5154
  128MOL0     H17264   1.469   2.609   4.649 -0.3666  0.6544  0.6486
  128MOL0     H17265   1.638   2.643   4.831 -0.3772  0.6248  0.2276
  128MOL0     H17266   1.759   3.144   5.061  0.8544  1.2927 -2.8994
  128MOL0     H17267   1.904   3.214   5.256 -0.5574  1.2720 -0.7777
  128MOL0     H17268   2.309   3.057   5.347 -0.7180  0.7616 -0.3090
  128MOL0     H17269   2.269   3.197   5.444 -2.7037 -1.7608  1.0811
  128MOL0     H17270   2.267   3.310   5.199 -1.0195 -2.1898 -2.0661
  128MOL0     H17271   2.354   3.170   5.155 -1.2161  1.1815 -1.0469
  128MOL0     H17272   2.468   3.414   5.293  0.2587  0.3703 -3.1229
  128MOL0     H17273   2.514   3.325   5.151  0.5858 -1.1214  0.0759
  128MOL0     H17274   2.630   3.152   5.295  3.4595 -0.4806  3.7804
  128MOL0     H17275   2.674   3.316   5.332  0.6203 -1.0145 -0.7433
  128MOL0     H17276   2.481   3.256   5.695 -1.8442 -0.0653  0.0783
  128MOL0     H17277   2.223   2.977   5.139  0.6940  0.7407 -1.4344
  128MOL0     H17278   2.051   2.738   4.948  2.5608 -1.5758  2.1867
  128MOL0     H17279   2.138   2.874   4.852  0.1387 -0.9194 -0.6452
  128MOL0     H17280   2.200   2.807   5.005 -0.9415  2.9874  2.1157
  129MOL0     O17281  10.453   0.536   9.049 -0.1991  0.0976 -0.6304
  129MOL0     C17282  10.559   0.529   8.981 -0.2014  0.2941 -1.1084
  129MOL0     O17283  10.637   0.635   8.959  0.0150 -0.4130 -0.5032
  129MOL0     C17284  10.606   0.747   9.030 -0.8302  1.0746 -1.0815
  129MOL0     C17285  10.538   0.851   8.987  0.2134 -0.0324  0.8106
  129MOL0     C17286  10.519   0.962   9.068 -0.8837 -0.0862 -0.1080
  129MOL0     C17287  10.570   0.968   9.197  0.4470  0.8922  0.5916
  129MOL0     O17288  10.552   1.079   9.281 -0.0777 -0.1131 -0.0805
  129MOL0     C17289  10.419   1.141   9.272  0.5571 -0.8045  0.2870
  129MOL0     C17290  10.387   1.221   9.402 -0.1065 -0.0624 -0.3506
  129MOL0     C17291  10.278   1.144   9.480 -0.3186 -0.2995  0.0056
  129MOL0     C17292  10.240   1.219   9.600 -0.1922  0.5570 -0.0273
  129MOL0     C17293  10.180   1.123   9.699 -0.4138 -0.6604 -0.4000
  129MOL0     C17294  10.286   1.028   9.772  0.1500 -0.4099  0.0259
  129MOL0     C17295  10.219   0.922   9.851  0.3141 -1.2320  0.1082
  129MOL0     C17296  10.146   0.967   9.975  0.2770  0.4947 -0.4139
  129MOL0     N17297  10.060   0.866  10.018  0.2820  0.4587  0.0067
  129MOL0     C17298   9.930   0.844   9.967 -0.5092  0.8530  0.9705
  129MOL0     C17299   9.877   0.745  10.048 -0.3172 -0.3005  0.2528
  129MOL0     C17300   9.734   0.681  10.032 -0.7058 -0.3308 -0.8155
  129MOL0     C17301   9.722   0.599   9.904  0.5144  1.2084  0.5725
  129MOL0     C17302   9.827   0.500   9.864  0.7234  0.4150  0.4208
  129MOL0     C17303   9.803   0.449   9.711  0.1399 -0.0523  0.1878
  129MOL0     O17304   9.839   0.554   9.616  0.5507 -0.3450 -0.1907
  129MOL0     C17305   9.733   0.617   9.549 -0.3116 -0.4755 -0.3565
  129MOL0     C17306   9.637   0.557   9.466 -0.2306  0.0755 -0.9850
  129MOL0     C17307   9.533   0.632   9.414  0.2565  0.4012 -0.6043
  129MOL0     C17308   9.528   0.773   9.426  1.0264  0.4437 -1.0476
  129MOL0     C17309   9.432   0.860   9.352 -0.8305  0.5288  0.1710
  129MOL0     O17310   9.452   1.000   9.357  0.0935 -1.3548  0.4520
  129MOL0     C17311   9.359   1.081   9.289 -0.4847  0.5793  1.0202
  129MOL0     C17312   9.260   1.162   9.349  0.4660 -0.1824  0.6201
  129MOL0     C17313   9.172   1.236   9.269  0.2111 -0.5576  0.5310
  129MOL0     C17314   9.184   1.239   9.126 -0.8187 -0.2792 -0.3006
  129MOL0     O17315   9.086   1.303   9.054 -0.0720  0.4788  0.8636
  129MOL0     C17316   9.135   1.385   8.947  0.3488 -0.1165 -0.8306
  129MOL0     C17317   9.026   1.489   8.912 -0.1915  0.0330 -0.1220
  129MOL0     C17318   8.888   1.425   8.905 -0.4657  1.1192 -0.0907
  129MOL0     C17319   8.780   1.532   8.876 -0.5789 -0.4665  0.8414
  129MOL0     C17320   8.652   1.472   8.833 -0.1369  0.3142  0.3024
  129MOL0     C17321   8.589   1.380   8.946  0.3875 -1.0110  0.1445
  129MOL0     C17322   8.460   1.307   8.888 -0.9085  0.6605  0.4694
  129MOL0     C17323   8.501   1.198   8.783  0.8607 -0.5101  0.3081
  129MOL0    Cl17324   8.330   1.126   8.742 -0.1178 -0.6894  0.1219
  129MOL0     C17325   9.289   1.167   9.071  0.3034 -0.1720  0.1260
  129MOL0     C17326   9.372   1.081   9.142  0.7847 -0.3140  0.8511
  129MOL0     O17327   9.340   0.802   9.301 -0.0258  0.1917  1.1942
  129MOL0     C17328   9.610   0.835   9.522  0.3395  0.2199 -0.4628
  129MOL0     C17329   9.706   0.753   9.581  0.5196 -0.3835 -0.1027
  129MOL0     N17330   9.977   0.709  10.147  0.5854 -0.2208  0.0319
  129MOL0     N17331  10.079   0.776  10.121 -0.2827 -0.4361 -0.9155
  129MOL0     C17332  10.642   0.858   9.246 -0.2420  0.1330 -0.3495
  129MOL0     C17333  10.667   0.754   9.166  0.2590  0.0915 -0.1660
  129MOL0     C17334  10.597   0.396   8.923  0.8887  0.3439  0.0761
  129MOL0     C17335  10.543   0.289   8.991 -0.6654 -0.2164 -0.5335
  129MOL0     C17336  10.580   0.167   8.951 -0.6183  1.3066 -0.6771
  129MOL0     C17337  10.667   0.140   8.846  0.0421  0.6499 -0.6020
  129MOL0     O17338  10.678   0.010   8.797  0.1404  0.6874 -0.4963
  129MOL0     C17339  10.680  -0.104   8.887 -0.7449  1.0840  0.8167
  129MOL0     C17340  10.710  -0.236   8.804 -1.0411 -1.1300  0.0116
  129MOL0     C17341  10.847  -0.225   8.727 -0.7140 -0.5355 -0.9053
  129MOL0     C17342  10.844  -0.159   8.584  0.0439 -0.4261 -0.6445
  129MOL0     C17343  10.960  -0.205   8.507  1.2433 -0.4155  0.3859
  129MOL0     C17344  11.037  -0.239   8.415 -0.1319  1.1594 -0.6694
  129MOL0     C17345  10.723   0.250   8.779  0.3407 -0.0507  0.1926
  129MOL0     C17346  10.688   0.378   8.822 -0.2408  0.5137 -0.2400
  129MOL0     C17347  10.728   0.490   8.731  0.1827 -0.3466 -0.3075
  129MOL0     H17348  10.499   0.840   8.886 -3.0953 -1.3628  2.1004
  129MOL0     H17349  10.462   1.051   9.041 -0.9418 -0.4669 -1.2975
  129MOL0     H17350  10.420   1.220   9.196 -0.2476 -0.2194  0.8713
  129MOL0     H17351  10.339   1.068   9.256 -1.2095  1.3075 -1.0033
  129MOL0     H17352  10.362   1.325   9.377  0.3350 -0.3188 -1.9420
  129MOL0     H17353  10.481   1.224   9.459  2.0613  1.7163 -3.6364
  129MOL0     H17354  10.326   1.049   9.506  0.6089  1.2259  4.8439
  129MOL0     H17355  10.181   1.141   9.429 -0.0557 -1.3173 -0.4450
  129MOL0     H17356  10.334   1.251   9.646 -0.7051  1.6674  0.2940
  129MOL0     H17357  10.172   1.303   9.582 -2.5638 -1.1288  0.5141
  129MOL0     H17358  10.119   1.182   9.768 -1.9561 -1.2961 -1.1602
  129MOL0     H17359  10.114   1.062   9.637  0.2438 -1.7936 -0.0061
  129MOL0     H17360  10.344   0.971   9.698  3.0699  0.1864  1.7075
  129MOL0     H17361  10.347   1.093   9.835 -1.5601 -0.5789  1.9666
  129MOL0     H17362  10.287   0.847   9.893  1.9002  1.1008  1.9750
  129MOL0     H17363  10.141   0.887   9.783 -0.7582  0.2923  0.4833
  129MOL0     H17364  10.224   0.983  10.051  0.0211 -0.5313  0.0810
  129MOL0     H17365  10.092   1.061   9.962  2.9272  2.0132 -1.3749
  129MOL0     H17366   9.873   0.886   9.885 -1.7251 -2.4145 -0.0480
  129MOL0     H17367   9.723   0.617  10.120 -1.2413 -0.8008 -1.2225
  129MOL0     H17368   9.665   0.766  10.039 -0.9211 -0.6138  1.0225
  129MOL0     H17369   9.625   0.549   9.905  1.5063 -0.8107  1.7311
  129MOL0     H17370   9.720   0.682   9.832  0.2289  2.9969  2.5671
  129MOL0     H17371   9.818   0.411   9.927 -1.0494  0.6829  0.5898
  129MOL0     H17372   9.928   0.541   9.859  0.1648  1.8517  0.3561
  129MOL0     H17373   9.700   0.421   9.688 -0.9259  2.1713  1.8059
  129MOL0     H17374   9.868   0.362   9.712  0.6821  0.3518  1.5967
  129MOL0     H17375   9.642   0.453   9.435 -0.9971 -0.7338  1.3896
  129MOL0     H17376   9.467   0.587   9.341 -0.3361 -2.4007  1.4950
  129MOL0     H17377   9.251   1.148   9.456 -1.6302 -0.9641  0.3991
  129MOL0     H17378   9.093   1.303   9.301  2.9289  3.2010 -0.0269
  129MOL0     H17379   9.231   1.435   8.965 -0.7938  2.2788 -0.9317
  129MOL0     H17380   9.163   1.340   8.852  1.1221  3.1708 -2.3074
  129MOL0     H17381   9.020   1.560   8.995 -0.9536  0.8359 -0.8323
  129MOL0     H17382   9.050   1.544   8.820  1.6099 -1.1344 -0.3937
  129MOL0     H17383   8.884   1.344   8.833 -1.3874 -1.6105  2.7932
  129MOL0     H17384   8.857   1.375   8.997  1.9007  0.8053  0.5961
  129MOL0     H17385   8.826   1.591   8.796  0.4495  0.7063  2.2404
  129MOL0     H17386   8.758   1.597   8.961 -1.1505 -0.5793  0.7849
  129MOL0     H17387   8.663   1.414   8.741  3.2790  1.6108 -0.2415
  129MOL0     H17388   8.587   1.556   8.807 -0.8692 -1.1802 -3.2044
  129MOL0     H17389   8.655   1.305   8.988 -1.5718 -1.3446  2.8599
  129MOL0     H17390   8.552   1.445   9.026  0.9568  0.0627 -0.4315
  129MOL0     H17391   8.402   1.389   8.845  0.4015  1.6051  0.4257
  129MOL0     H17392   8.409   1.261   8.973 -0.4644 -0.4133  0.1766
  129MOL0     H17393   8.550   1.230   8.691 -0.6714 -4.6058 -2.1989
  129MOL0     H17394   8.559   1.118   8.831  1.6345  1.3616  2.7237
  129MOL0     H17395   9.292   1.189   8.964 -0.1428  3.0682  0.6505
  129MOL0     H17396   9.439   1.013   9.091 -1.0178 -1.6245  0.1038
  129MOL0     H17397   9.598   0.939   9.550  1.9478  0.5250 -0.7718
  129MOL0     H17398   9.765   0.798   9.661 -0.1958 -1.5096  1.1093
  129MOL0     H17399  10.660   0.869   9.353 -1.6354 -0.0486 -0.0825
  129MOL0     H17400  10.705   0.663   9.211  0.0434 -1.1811 -2.4255
  129MOL0     H17401  10.477   0.288   9.077 -1.7951 -1.1492 -1.3771
  129MOL0     H17402  10.540   0.077   8.998 -2.5729  0.3462 -3.7957
  129MOL0     H17403  10.587  -0.116   8.942 -1.1497 -0.7235 -0.1623
  129MOL0     H17404  10.760  -0.094   8.961 -1.2032  0.3319  1.4234
  129MOL0     H17405  10.631  -0.258   8.732 -1.2241 -0.7282  0.0861
  129MOL0     H17406  10.707  -0.325   8.869  0.5401 -2.3038 -1.4624
  129MOL0     H17407  10.868  -0.331   8.715 -1.6312 -0.8799  0.2651
  129MOL0     H17408  10.918  -0.183   8.799 -1.3314 -1.9774  0.6118
  129MOL0     H17409  10.747  -0.184   8.541 -0.0557 -0.7071 -0.2621
  129MOL0     H17410  10.859  -0.051   8.582  1.5339 -0.5863  0.1646
  129MOL0     H17411  11.101  -0.283   8.341  0.8164  2.8535 -0.8922
  129MOL0     H17412  10.785   0.226   8.693 -1.6291 -1.4391 -0.9146
  129MOL0     H17413  10.634   0.530   8.691 -0.5100 -0.1365  1.4116
  129MOL0     H17414  10.781   0.566   8.789 -1.2416 -2.3434  4.1528
  129MOL0     H17415  10.773   0.458   8.637  2.3944  0.9947  0.2290
  130MOL0     O17416   4.156   2.749   9.148  0.7195  0.0881 -0.3134
  130MOL0     C17417   4.164   2.750   9.023 -0.5149 -0.3692  0.6665
  130MOL0     O17418   4.259   2.808   8.945 -0.6115  0.2874 -0.6700
  130MOL0     C17419   4.360   2.879   8.995 -1.2325 -0.6693  0.1173
  130MOL0     C17420   4.491   2.825   8.987 -1.0653  0.2570 -0.6677
  130MOL0     C17421   4.603   2.901   9.033  0.2887 -0.2745  0.2769
  130MOL0     C17422   4.573   3.034   9.087 -0.3369 -0.3368  0.4791
  130MOL0     O17423   4.679   3.117   9.117  0.5085 -0.7202  0.2246
  130MOL0     C17424   4.783   3.145   9.024 -0.0441  0.4886  0.0800
  130MOL0     C17425   4.908   3.131   9.109 -1.0509 -0.1816  0.5090
  130MOL0     C17426   4.913   3.210   9.244  0.3266 -0.5426  0.0009
  130MOL0     C17427   5.051   3.213   9.314 -0.0574 -0.1568  0.7452
  130MOL0     C17428   5.054   3.292   9.446 -0.0947  0.2522 -0.5341
  130MOL0     C17429   5.209   3.311   9.479 -0.5734 -0.2532  0.0102
  130MOL0     C17430   5.250   3.325   9.620  0.1414 -0.3027  0.5824
  130MOL0     C17431   5.218   3.201   9.697  0.4006  0.8504 -0.7304
  130MOL0     N17432   5.210   3.246   9.844 -0.0054  0.1075  0.2085
  130MOL0     C17433   5.326   3.268   9.919 -0.0898  0.0490 -0.1831
  130MOL0     C17434   5.290   3.271  10.053 -0.5827 -0.5213 -0.0158
  130MOL0     C17435   5.393   3.299  10.169  0.7484 -0.2215  0.3398
  130MOL0     C17436   5.408   3.198  10.277 -0.9085  0.4800 -0.1543
  130MOL0     C17437   5.434   3.065  10.218 -0.0232  1.6793  0.0373
  130MOL0     C17438   5.565   3.060  10.131  0.2197  0.2979  1.2099
  130MOL0     O17439   5.693   3.084  10.199 -0.9532 -0.4262 -0.5633
  130MOL0     C17440   5.723   2.990  10.299 -0.0653 -0.5761  0.1186
  130MOL0     C17441   5.833   3.015  10.388  0.1860  0.2598  0.8064
  130MOL0     C17442   5.874   2.925  10.488 -0.5043  0.3294 -0.3432
  130MOL0     C17443   5.803   2.804  10.511  0.1157 -0.1922  0.0151
  130MOL0     C17444   5.843   2.706  10.626 -0.0228  0.1875 -0.0093
  130MOL0     O17445   5.783   2.591  10.635 -0.7523  0.0261  0.7315
  130MOL0     C17446   5.831   2.502  10.723 -0.8456 -0.0679  0.8398
  130MOL0     C17447   5.743   2.446  10.813  0.3089  0.0090 -0.5985
  130MOL0     C17448   5.795   2.342  10.901 -0.1945  0.1527 -0.4551
  130MOL0     C17449   5.934   2.305  10.897  1.8452  0.2533 -0.2852
  130MOL0     O17450   5.983   2.221  10.988 -0.8043 -0.1761 -0.9998
  130MOL0     C17451   6.094   2.269  11.073  0.1508 -0.0986  0.0687
  130MOL0     C17452   6.173   2.136  11.107 -0.1941  0.4964 -0.2468
  130MOL0     C17453   6.109   2.028  11.198  0.7194  0.6386 -1.0854
  130MOL0     C17454   6.082   2.084  11.342 -0.5655 -0.2984  0.1460
  130MOL0     C17455   6.045   1.972  11.440 -0.4162 -0.1108  0.6475
  130MOL0     C17456   6.156   1.877  11.485  0.4020  0.4010  0.3890
  130MOL0     C17457   6.245   1.944  11.584  0.4292  0.1184  0.1789
  130MOL0     C17458   6.358   1.864  11.630 -0.1763 -0.6220 -0.6884
  130MOL0    Cl17459   6.280   1.742  11.740  0.0275  0.2279  0.0983
  130MOL0     C17460   6.014   2.356  10.803 -0.0004  0.0561  0.7704
  130MOL0     C17461   5.968   2.446  10.712 -0.4495 -1.3577  0.6584
  130MOL0     O17462   5.933   2.745  10.703  0.1745  0.1114  0.1318
  130MOL0     C17463   5.709   2.771  10.416  0.4992 -0.8486 -0.0396
  130MOL0     C17464   5.671   2.858  10.308  0.4881  0.2239 -0.7858
  130MOL0     N17465   5.152   3.259  10.044 -0.1930 -0.5353 -0.3133
  130MOL0     N17466   5.109   3.255   9.921  0.7038 -0.4454 -0.7310
  130MOL0     C17467   4.443   3.075   9.098 -0.6170  0.3368 -0.2091
  130MOL0     C17468   4.338   3.006   9.045  0.3018  0.3946  0.3321
  130MOL0     C17469   4.056   2.688   8.929 -0.6314  0.4048 -0.8214
  130MOL0     C17470   4.080   2.690   8.784 -1.3940 -0.3525  0.5384
  130MOL0     C17471   4.003   2.613   8.697 -0.5416 -0.5023 -1.0555
  130MOL0     C17472   3.905   2.536   8.750 -0.7264  1.0495  0.6353
  130MOL0     O17473   3.827   2.452   8.672 -0.2591 -0.3406 -1.0328
  130MOL0     C17474   3.840   2.402   8.537 -0.1613 -0.6801 -0.0891
  130MOL0     C17475   3.979   2.337   8.530 -0.7225  0.9417  0.2998
  130MOL0     C17476   3.995   2.198   8.467 -0.1923  0.7120 -0.9497
  130MOL0     C17477   4.136   2.149   8.419  0.7744 -0.1907  0.0891
  130MOL0     C17478   4.136   2.002   8.409 -0.8422  0.5041  0.4883
  130MOL0     C17479   4.127   1.881   8.404 -0.2237 -0.1099  0.0711
  130MOL0     C17480   3.872   2.528   8.876 -0.3666  0.2632 -0.2713
  130MOL0     C17481   3.948   2.600   8.972 -0.5859  1.0506 -0.1851
  130MOL0     C17482   3.901   2.591   9.116 -0.6233 -0.4063  0.5138
  130MOL0     H17483   4.501   2.728   8.941 -1.2039  0.6444 -1.5298
  130MOL0     H17484   4.706   2.866   9.028 -0.6544 -3.1510 -1.0866
  130MOL0     H17485   4.779   3.068   8.947  1.9532 -0.5912  0.9806
  130MOL0     H17486   4.778   3.248   8.986  0.5699  1.5403  2.6351
  130MOL0     H17487   4.997   3.150   9.048 -2.0322 -0.2217 -0.9813
  130MOL0     H17488   4.924   3.026   9.136  1.2243  0.0984  0.4741
  130MOL0     H17489   4.828   3.176   9.304 -1.1144  0.3293 -1.4648
  130MOL0     H17490   4.878   3.313   9.236 -4.0009 -1.6751  1.5567
  130MOL0     H17491   5.052   3.108   9.343 -2.4738 -0.4987 -0.1248
  130MOL0     H17492   5.137   3.222   9.247 -2.2988 -0.2353 -2.3752
  130MOL0     H17493   4.999   3.387   9.441 -0.9206 -0.2157 -0.6276
  130MOL0     H17494   4.997   3.230   9.516  1.3693 -2.1429 -1.3360
  130MOL0     H17495   5.269   3.235   9.429  1.0550  1.3792 -0.6491
  130MOL0     H17496   5.244   3.401   9.428 -1.0840  0.5574  1.0419
  130MOL0     H17497   5.195   3.411   9.658 -0.1482 -1.1542  2.2028
  130MOL0     H17498   5.358   3.341   9.634 -0.0632 -1.0678  3.9962
  130MOL0     H17499   5.130   3.149   9.660 -1.0975  1.2897  1.9847
  130MOL0     H17500   5.301   3.129   9.688 -2.1184 -2.0713 -2.7201
  130MOL0     H17501   5.429   3.277   9.885  0.5898  0.6949  1.8335
  130MOL0     H17502   5.485   3.340  10.126 -1.6778  4.3405 -1.1564
  130MOL0     H17503   5.350   3.397  10.190 -1.4422  0.0783 -4.2124
  130MOL0     H17504   5.486   3.229  10.348 -0.9098  2.8788 -1.0960
  130MOL0     H17505   5.314   3.200  10.334 -1.3459 -0.3784 -0.8195
  130MOL0     H17506   5.354   3.032  10.152  0.8599 -2.2325  0.6730
  130MOL0     H17507   5.445   2.992  10.299  0.0458  0.5142 -0.9935
  130MOL0     H17508   5.560   3.136  10.053  0.2341 -3.6273 -2.9782
  130MOL0     H17509   5.569   2.973  10.066  1.7078  1.0859  0.1818
  130MOL0     H17510   5.885   3.110  10.382  2.0830 -0.6560  1.5935
  130MOL0     H17511   5.953   2.942  10.561  1.3065 -1.8292 -1.7066
  130MOL0     H17512   5.640   2.478  10.799 -0.6122 -1.9970  0.9688
  130MOL0     H17513   5.720   2.308  10.971  0.1975  2.1738  1.0348
  130MOL0     H17514   6.169   2.336  11.031 -0.8115  1.1148  0.2152
  130MOL0     H17515   6.061   2.316  11.166  0.1388  0.3626 -0.1651
  130MOL0     H17516   6.192   2.093  11.009  0.2594 -1.6422  0.7199
  130MOL0     H17517   6.274   2.155  11.147  1.9143 -5.1462 -1.8551
  130MOL0     H17518   6.015   1.993  11.154 -0.8986  0.8787  1.9252
  130MOL0     H17519   6.179   1.945  11.205  0.1489  0.1435 -1.1293
  130MOL0     H17520   6.005   2.161  11.336  1.0239  1.2621 -3.2629
  130MOL0     H17521   6.168   2.145  11.370  0.7688  0.3003 -4.4198
  130MOL0     H17522   5.970   1.906  11.396  0.1728 -0.5646  0.3136
  130MOL0     H17523   6.000   1.998  11.536 -0.7495 -1.2256  0.8074
  130MOL0     H17524   6.115   1.789  11.537  1.1577 -1.8269 -2.5130
  130MOL0     H17525   6.210   1.837  11.399 -3.1833 -0.7815 -1.5213
  130MOL0     H17526   6.185   1.970  11.671 -1.4190  2.0568 -1.5642
  130MOL0     H17527   6.277   2.038  11.538 -0.6866 -0.8822 -2.8617
  130MOL0     H17528   6.420   1.819  11.551  2.5197  2.5683 -0.5870
  130MOL0     H17529   6.416   1.935  11.689 -1.6217  0.9528 -1.0983
  130MOL0     H17530   6.116   2.318  10.803  0.9921  2.4723 -0.6747
  130MOL0     H17531   6.042   2.471  10.637 -0.9622  0.3760  0.6704
  130MOL0     H17532   5.655   2.677  10.427 -3.4056  0.6797 -3.6795
  130MOL0     H17533   5.611   2.817  10.227  1.1822 -1.5995 -0.4244
  130MOL0     H17534   4.432   3.169   9.151  0.9484  0.3337  0.1827
  130MOL0     H17535   4.235   3.040   9.048 -1.6195 -4.2461 -2.2083
  130MOL0     H17536   4.144   2.767   8.743 -0.3985 -1.8867 -0.9329
  130MOL0     H17537   4.021   2.605   8.591  0.2868 -2.9827 -0.7874
  130MOL0     H17538   3.825   2.500   8.492 -0.9969  0.0364  1.6237
  130MOL0     H17539   3.752   2.340   8.518 -0.3333 -0.4908  0.0847
  130MOL0     H17540   4.029   2.330   8.627  0.0166 -0.8631 -0.1674
  130MOL0     H17541   4.031   2.408   8.465 -3.8270  1.4516 -1.8428
  130MOL0     H17542   3.929   2.201   8.379 -1.2641 -3.8144 -0.5162
  130MOL0     H17543   3.956   2.124   8.537  0.9231 -1.7237 -2.7619
  130MOL0     H17544   4.170   2.179   8.320  0.5027  0.2044  0.1112
  130MOL0     H17545   4.217   2.182   8.485  1.6757 -0.1712 -0.9979
  130MOL0     H17546   4.132   1.774   8.406 -2.3102 -0.2998 -1.5335
  130MOL0     H17547   3.786   2.465   8.895  1.7920 -2.4149  1.1334
  130MOL0     H17548   3.990   2.557   9.169  2.4906  2.8935 -2.1188
  130MOL0     H17549   3.868   2.691   9.145 -0.2364 -0.0530 -0.2673
  130MOL0     H17550   3.810   2.531   9.129  0.5143 -2.2387  0.5000
  131MOL0     O17551   6.226  10.754  11.026 -0.2455 -0.2746 -0.4149
  131MOL0     C17552   6.319  10.830  11.042 -0.0697 -0.1174 -0.3250
  131MOL0     O17553   6.427  10.802  11.132  0.7436  0.3763  0.3771
  131MOL0     C17554   6.408  10.699  11.220 -0.5113  0.2716  0.8172
  131MOL0     C17555   6.427  10.560  11.190  0.2282  0.1030 -0.7416
  131MOL0     C17556   6.430  10.464  11.295 -0.3954 -0.1408 -0.1901
  131MOL0     C17557   6.405  10.508  11.424 -0.5440 -0.0488 -0.2891
  131MOL0     O17558   6.433  10.418  11.520 -0.2556  0.0956 -0.7533
  131MOL0     C17559   6.311  10.344  11.566  0.5251 -0.4205  1.0509
  131MOL0     C17560   6.340  10.254  11.674 -0.6361  0.0489 -0.5372
  131MOL0     C17561   6.352  10.317  11.810 -0.4345  0.0089  0.0762
  131MOL0     C17562   6.416  10.216  11.909  0.2094 -0.4622 -0.5914
  131MOL0     C17563   6.323  10.095  11.939  0.3585 -0.3191 -0.1199
  131MOL0     C17564   6.397   9.993  12.038  0.2086 -0.2201 -0.4529
  131MOL0     C17565   6.309   9.875  12.090  0.1550  0.3953  0.5036
  131MOL0     C17566   6.303   9.758  11.983 -0.3807  0.2963 -0.3960
  131MOL0     N17567   6.423   9.677  12.004  0.2950  1.7261  0.1471
  131MOL0     C17568   6.547   9.704  11.961  0.0333 -0.3662  1.2820
  131MOL0     C17569   6.620   9.600  12.008  0.0612 -0.6622 -0.3063
  131MOL0     C17570   6.771   9.596  11.984 -0.7011  0.4145  0.3386
  131MOL0     C17571   6.845   9.581  12.109  0.1753  0.1051 -0.1057
  131MOL0     C17572   6.843   9.439  12.173 -1.0768  0.3442  0.1794
  131MOL0     C17573   6.906   9.426  12.304  0.3992  0.1357 -0.8336
  131MOL0     O17574   7.043   9.448  12.290 -0.4969 -0.4519 -0.6819
  131MOL0     C17575   7.120   9.387  12.390 -0.7798 -0.1517 -0.5915
  131MOL0     C17576   7.083   9.303  12.504 -0.4189 -0.9251  0.3105
  131MOL0     C17577   7.181   9.243  12.588 -0.2884 -0.2247  0.7358
  131MOL0     C17578   7.315   9.290  12.579 -0.2287  0.0809 -0.5261
  131MOL0     C17579   7.407   9.245  12.684 -0.6110  0.2397 -0.1363
  131MOL0     O17580   7.365   9.168  12.791  0.2260 -0.2669  0.5546
  131MOL0     C17581   7.450   9.150  12.893  0.3111 -0.6954  0.2644
  131MOL0     C17582   7.480   9.025  12.940 -0.1604 -0.2095  0.8152
  131MOL0     C17583   7.565   9.001  13.049  0.5916 -0.7224 -1.0016
  131MOL0     C17584   7.620   9.117  13.118 -0.7871  0.3544 -0.4650
  131MOL0     O17585   7.696   9.107  13.234 -0.2043 -0.2760  0.0377
  131MOL0     C17586   7.826   9.175  13.237  0.0199  0.3381 -0.1706
  131MOL0     C17587   7.911   9.159  13.113  0.2773  0.3407 -0.6391
  131MOL0     C17588   8.050   9.212  13.136 -0.6592  0.2323  0.3908
  131MOL0     C17589   8.138   9.105  13.209 -0.6166 -0.7071 -0.3574
  131MOL0     C17590   8.274   9.167  13.254 -0.3280 -1.0587 -0.3710
  131MOL0     C17591   8.382   9.063  13.312  0.4621  0.5704 -0.1477
  131MOL0     C17592   8.506   9.130  13.369  0.0872 -0.2167  0.7478
  131MOL0     C17593   8.618   9.030  13.408 -0.6873  1.3629 -0.0964
  131MOL0    Cl17594   8.565   8.964  13.567 -0.2101 -0.1831  0.1396
  131MOL0     C17595   7.590   9.246  13.069  0.3208  0.9308  1.1544
  131MOL0     C17596   7.501   9.257  12.970 -0.0145 -0.7788  0.1934
  131MOL0     O17597   7.526   9.278  12.666  0.1338  0.4982 -0.1248
  131MOL0     C17598   7.346   9.383  12.481  0.5118 -0.6203  0.7608
  131MOL0     C17599   7.255   9.434  12.390  0.2341 -0.3805  0.8561
  131MOL0     N17600   6.530   9.510  12.066  0.0478  0.2488 -0.6745
  131MOL0     N17601   6.413   9.553  12.065 -0.3081 -0.2905 -0.1132
  131MOL0     C17602   6.389  10.641  11.461  0.1417  0.0008  1.0378
  131MOL0     C17603   6.382  10.733  11.358 -0.3466  0.4315 -1.1034
  131MOL0     C17604   6.331  10.962  10.971  0.4095 -0.2267 -0.4358
  131MOL0     C17605   6.446  10.981  10.895  0.7713  0.2507 -0.7431
  131MOL0     C17606   6.455  11.097  10.833 -0.0705  0.3389 -0.2354
  131MOL0     C17607   6.369  11.206  10.855  0.2984 -0.3828 -0.7399
  131MOL0     O17608   6.405  11.328  10.801 -0.4001 -0.3172  0.5978
  131MOL0     C17609   6.416  11.439  10.885 -0.7022 -0.4446 -0.6348
  131MOL0     C17610   6.471  11.564  10.804 -0.0321  0.8441 -0.2718
  131MOL0     C17611   6.366  11.601  10.708 -0.8772  0.7443  0.4057
  131MOL0     C17612   6.412  11.706  10.602 -0.4522 -0.4245 -0.2217
  131MOL0     C17613   6.298  11.760  10.527 -0.6074  0.1920 -0.4813
  131MOL0     C17614   6.213  11.819  10.470  1.0026 -0.5336 -0.0128
  131MOL0     C17615   6.251  11.186  10.933 -0.1341 -0.8842  0.2056
  131MOL0     C17616   6.239  11.063  10.998  0.5838 -0.1367 -0.1235
  131MOL0     C17617   6.120  11.048  11.085  0.0761 -0.7375  0.1269
  131MOL0     H17618   6.461  10.527  11.092 -0.3647  0.5110 -1.0917
  131MOL0     H17619   6.460  10.360  11.290  0.7991  0.1997 -0.5706
  131MOL0     H17620   6.235  10.417  11.595  1.3586  1.2722 -0.7501
  131MOL0     H17621   6.274  10.286  11.481 -0.2239 -0.7657  1.6021
  131MOL0     H17622   6.432  10.195  11.664  0.4757  0.9419  3.0030
  131MOL0     H17623   6.262  10.178  11.672  1.1305 -1.8779 -0.2833
  131MOL0     H17624   6.248  10.345  11.833  0.0013  0.7217  1.2521
  131MOL0     H17625   6.405  10.412  11.816 -0.9384  0.2313  1.3425
  131MOL0     H17626   6.508  10.179  11.864 -0.7659 -2.7363 -0.8276
  131MOL0     H17627   6.436  10.262  12.006  0.1702 -2.7626  0.5714
  131MOL0     H17628   6.238  10.141  11.990  0.7381  3.1066 -2.2814
  131MOL0     H17629   6.290  10.046  11.848 -1.1325  1.7296 -0.7605
  131MOL0     H17630   6.491   9.957  11.997 -0.1871 -0.9198 -0.7734
  131MOL0     H17631   6.421  10.056  12.125 -2.6659  1.1551 -0.5120
  131MOL0     H17632   6.208   9.903  12.121  0.2027  0.3334  0.7153
  131MOL0     H17633   6.348   9.832  12.183  0.3221  0.2792  0.3791
  131MOL0     H17634   6.227   9.681  11.998 -0.0621 -0.2430 -1.4459
  131MOL0     H17635   6.292   9.803  11.883 -0.6617  0.9620 -0.0737
  131MOL0     H17636   6.584   9.792  11.909  1.5064 -1.2721  0.7561
  131MOL0     H17637   6.802   9.520  11.912 -5.1138  0.8109 -2.3493
  131MOL0     H17638   6.797   9.696  11.948 -2.9301  0.8210 -0.3127
  131MOL0     H17639   6.945   9.623  12.095  2.5428 -5.1208 -0.9241
  131MOL0     H17640   6.796   9.647  12.182  1.9481 -0.9270  2.1202
  131MOL0     H17641   6.899   9.370  12.109  1.4398  2.1080  0.3104
  131MOL0     H17642   6.738   9.409  12.180 -1.1189  0.4899  0.1584
  131MOL0     H17643   6.888   9.326  12.345 -0.1738  0.8986  0.8730
  131MOL0     H17644   6.855   9.504  12.361  1.2065 -0.6066  0.9713
  131MOL0     H17645   6.980   9.272  12.517 -1.2198  1.9307  1.5507
  131MOL0     H17646   7.150   9.181  12.672 -1.5424  1.7143  1.7855
  131MOL0     H17647   7.448   8.941  12.879  0.1680  0.4634 -0.3143
  131MOL0     H17648   7.592   8.905  13.093  3.6803 -0.7599 -2.6319
  131MOL0     H17649   7.813   9.280  13.265  3.4095  1.7371 -3.0927
  131MOL0     H17650   7.887   9.127  13.314 -0.9638 -3.3060 -1.4437
  131MOL0     H17651   7.918   9.053  13.087 -3.0291 -0.3716  0.8796
  131MOL0     H17652   7.875   9.220  13.029 -1.5817  0.2745  0.0719
  131MOL0     H17653   8.092   9.221  13.035  2.7933  0.3367  1.7225
  131MOL0     H17654   8.044   9.312  13.180 -0.7216  1.3415 -1.9899
  131MOL0     H17655   8.161   9.013  13.153 -2.4479 -2.5704  1.7247
  131MOL0     H17656   8.089   9.066  13.299 -1.7790  2.5608  0.5570
  131MOL0     H17657   8.266   9.245  13.331 -0.4947 -1.8695  0.4403
  131MOL0     H17658   8.321   9.207  13.163  0.4544 -2.3948 -0.5718
  131MOL0     H17659   8.343   8.996  13.388  1.2974  0.6935  0.4016
  131MOL0     H17660   8.416   8.996  13.233  0.0130  0.6107 -0.3771
  131MOL0     H17661   8.471   9.187  13.456  0.6840  0.2966  0.6645
  131MOL0     H17662   8.533   9.199  13.288 -0.2993  0.3286  1.0797
  131MOL0     H17663   8.617   8.949  13.335  1.9610 -0.1253  1.3545
  131MOL0     H17664   8.720   9.070  13.411 -0.6934  1.4190  3.5335
  131MOL0     H17665   7.615   9.336  13.125  0.2644  0.8048  1.3825
  131MOL0     H17666   7.440   9.347  12.967  1.8950  0.5382 -0.1455
  131MOL0     H17667   7.448   9.418  12.465 -0.0043  0.9142  0.6742
  131MOL0     H17668   7.286   9.519  12.330  0.4413 -0.2855  1.0979
  131MOL0     H17669   6.376  10.672  11.565  2.2806  0.8970  1.0852
  131MOL0     H17670   6.373  10.839  11.383 -0.5575  0.5353 -1.5992
  131MOL0     H17671   6.519  10.901  10.886  0.4346 -0.0355 -1.0058
  131MOL0     H17672   6.545  11.105  10.772  0.9132 -1.2042  0.9477
  131MOL0     H17673   6.486  11.416  10.966 -1.2567 -1.9470 -0.5506
  131MOL0     H17674   6.328  11.459  10.946  1.7516 -0.9423  3.4336
  131MOL0     H17675   6.564  11.532  10.756  1.2016  0.7306  2.0245
  131MOL0     H17676   6.483  11.655  10.864 -0.4395  3.3345 -3.6717
  131MOL0     H17677   6.271  11.633  10.752 -1.5350 -0.1256 -0.3600
  131MOL0     H17678   6.341  11.512  10.650 -2.0560 -1.4864  4.0126
  131MOL0     H17679   6.455  11.791  10.657 -0.3521 -0.7439  0.1998
  131MOL0     H17680   6.488  11.666  10.534 -1.1624 -1.5887 -0.3452
  131MOL0     H17681   6.140  11.863  10.406  0.8360 -1.3621 -0.4120
  131MOL0     H17682   6.165  11.253  10.932 -2.5317 -3.6743 -2.9952
  131MOL0     H17683   6.160  11.008  11.179 -0.8149 -1.2385  0.3044
  131MOL0     H17684   6.073  11.144  11.109 -0.0001 -0.8043  0.2497
  131MOL0     H17685   6.047  10.987  11.032 -1.6346  2.0012 -0.8616
  132MOL0     O17686   0.847   3.187   0.477 -0.1425  0.1391 -0.3798
  132MOL0     C17687   0.885   3.290   0.523 -0.5242  0.4897 -0.8373
  132MOL0     O17688   0.830   3.406   0.484  0.4500 -0.3447 -0.2381
  132MOL0     C17689   0.706   3.421   0.429  0.1262  0.7033  0.0429
  132MOL0     C17690   0.601   3.411   0.523  0.2131  0.4920  1.2812
  132MOL0     C17691   0.466   3.440   0.468  0.6083 -0.2095  0.0756
  132MOL0     C17692   0.448   3.459   0.331 -1.1491 -0.1801  0.5095
  132MOL0     O17693   0.325   3.472   0.265 -0.5324  0.2952 -0.4843
  132MOL0     C17694   0.235   3.572   0.311 -0.3735 -0.3651  0.3804
  132MOL0     C17695   0.098   3.561   0.241  0.4279  0.5831  0.6138
  132MOL0     C17696   0.039   3.417   0.248 -0.3254  0.2232 -0.1137
  132MOL0     C17697  -0.060   3.406   0.371  0.4118 -0.2547 -0.5154
  132MOL0     C17698  -0.127   3.265   0.377  0.5380 -0.3616 -0.6487
  132MOL0     C17699  -0.226   3.251   0.499  0.2983 -0.1239 -0.3955
  132MOL0     C17700  -0.306   3.119   0.502 -1.3968 -0.4489  0.2460
  132MOL0     C17701  -0.373   3.095   0.634 -0.4034 -0.3582  0.4835
  132MOL0     N17702  -0.279   3.064   0.740 -0.3679 -0.4747 -0.0519
  132MOL0     C17703  -0.241   2.943   0.772  0.3811 -0.4105  0.3054
  132MOL0     C17704  -0.188   2.940   0.893  0.1244 -0.7915 -0.5408
  132MOL0     C17705  -0.131   2.813   0.947  0.5279 -0.0778 -0.1914
  132MOL0     C17706   0.007   2.836   0.993  0.4127 -0.4984 -0.0042
  132MOL0     C17707   0.056   2.702   1.039 -0.1723  0.1657 -0.8035
  132MOL0     C17708   0.187   2.709   1.127 -0.0862  0.6872 -0.2903
  132MOL0     O17709   0.274   2.791   1.048  0.0185 -0.6355 -0.2071
  132MOL0     C17710   0.413   2.774   1.066 -0.3863 -0.3680  0.0345
  132MOL0     C17711   0.485   2.835   0.967  0.8062  1.4208  0.1273
  132MOL0     C17712   0.621   2.818   0.958 -0.2204 -0.9342 -0.0029
  132MOL0     C17713   0.692   2.749   1.057 -1.3077 -0.0591  0.0731
  132MOL0     C17714   0.839   2.764   1.067  0.2229 -1.0690 -0.4907
  132MOL0     O17715   0.889   2.770   1.192 -0.1414  0.4010  0.0834
  132MOL0     C17716   1.022   2.803   1.198 -0.0594  0.1504 -0.5990
  132MOL0     C17717   1.105   2.701   1.219 -0.1505 -0.6555  0.3895
  132MOL0     C17718   1.243   2.723   1.225  1.1365  0.0236  0.0762
  132MOL0     C17719   1.295   2.842   1.189 -0.6197 -0.0735  0.3521
  132MOL0     O17720   1.431   2.871   1.188 -0.5234 -0.1830 -0.2754
  132MOL0     C17721   1.522   2.762   1.191 -0.4294 -0.1382 -1.0907
  132MOL0     C17722   1.664   2.812   1.198 -0.5947 -1.0535 -0.2324
  132MOL0     C17723   1.765   2.710   1.154 -0.6789 -0.6700 -0.2374
  132MOL0     C17724   1.784   2.611   1.260  0.1861 -0.4089 -0.0477
  132MOL0     C17725   1.892   2.509   1.211 -0.1257 -0.7528  0.7201
  132MOL0     C17726   2.034   2.564   1.191 -0.4361  0.4530 -0.6069
  132MOL0     C17727   2.130   2.445   1.153  0.5341 -0.1977 -0.2884
  132MOL0     C17728   2.259   2.496   1.095 -0.5644  0.2774 -0.2671
  132MOL0    Cl17729   2.377   2.553   1.223 -0.2132  0.0584  0.5808
  132MOL0     C17730   1.212   2.952   1.163  1.0389 -0.9006 -0.5400
  132MOL0     C17731   1.076   2.932   1.173  0.4465 -0.5209  0.9574
  132MOL0     O17732   0.898   2.790   0.962  0.2516 -0.2430  0.5688
  132MOL0     C17733   0.618   2.680   1.158  0.1880 -0.9311 -0.7215
  132MOL0     C17734   0.474   2.695   1.161 -0.0802  0.0616 -0.9568
  132MOL0     N17735  -0.179   3.081   0.924  0.4527  1.0893 -0.1611
  132MOL0     N17736  -0.234   3.154   0.838 -0.4285  0.5383  0.3120
  132MOL0     C17737   0.562   3.444   0.241  0.3771  0.0736 -0.1680
  132MOL0     C17738   0.687   3.430   0.293 -0.1620  0.3908 -0.6809
  132MOL0     C17739   0.988   3.286   0.621 -0.1009 -0.6187 -0.7374
  132MOL0     C17740   1.107   3.353   0.595  0.2798 -0.3693  0.0888
  132MOL0     C17741   1.224   3.344   0.667 -0.0020 -0.7610  0.2943
  132MOL0     C17742   1.221   3.267   0.788 -0.8903  0.7586  0.0281
  132MOL0     O17743   1.332   3.269   0.872  0.0490 -0.0779 -0.1313
  132MOL0     C17744   1.369   3.153   0.939  0.2331 -0.3261 -1.0087
  132MOL0     C17745   1.509   3.106   0.904 -0.2158 -0.2199 -0.0009
  132MOL0     C17746   1.551   3.112   0.760  0.7752  1.2710  0.1834
  132MOL0     C17747   1.655   3.222   0.736  0.8819  0.1216  0.0231
  132MOL0     C17748   1.706   3.239   0.599  1.0555  0.7134  0.1063
  132MOL0     C17749   1.737   3.231   0.480  0.6268  0.8980 -0.0437
  132MOL0     C17750   1.098   3.200   0.819 -0.7101  0.8902 -0.6367
  132MOL0     C17751   0.982   3.212   0.741  0.5916  0.3537 -0.5834
  132MOL0     C17752   0.870   3.119   0.781  0.0940  1.0753 -0.0014
  132MOL0     H17753   0.621   3.389   0.627 -1.1786  2.0168  1.9018
  132MOL0     H17754   0.381   3.435   0.535 -2.2291 -0.7478 -3.2901
  132MOL0     H17755   0.234   3.576   0.421 -2.2881 -1.2749  0.4437
  132MOL0     H17756   0.274   3.671   0.286 -1.5206 -0.0356 -0.1438
  132MOL0     H17757   0.102   3.578   0.133  0.3087 -0.3775  0.4486
  132MOL0     H17758   0.027   3.636   0.276 -1.7016 -0.1147 -1.9139
  132MOL0     H17759   0.120   3.343   0.256  1.1887  1.2709 -3.7498
  132MOL0     H17760  -0.007   3.378   0.157  2.0203 -0.5234 -1.0723
  132MOL0     H17761  -0.017   3.434   0.467  1.1543 -2.1880 -0.2409
  132MOL0     H17762  -0.140   3.480   0.361 -0.0881 -0.7012  0.1161
  132MOL0     H17763  -0.193   3.269   0.290 -0.3872  0.5063  0.0856
  132MOL0     H17764  -0.058   3.179   0.381  0.8548 -0.1109 -0.6607
  132MOL0     H17765  -0.168   3.269   0.591  1.5957  0.1882 -1.2451
  132MOL0     H17766  -0.292   3.337   0.487  2.0652  0.8710 -5.2868
  132MOL0     H17767  -0.235   3.038   0.489  0.3806  1.1170 -0.1654
  132MOL0     H17768  -0.377   3.128   0.419  1.1146  2.3259 -1.8105
  132MOL0     H17769  -0.431   3.183   0.664  2.4790  1.2377  1.8296
  132MOL0     H17770  -0.442   3.011   0.626  0.9075 -1.6922  2.2575
  132MOL0     H17771  -0.255   2.859   0.704 -1.4161 -2.6408  3.1895
  132MOL0     H17772  -0.195   2.788   1.032 -0.3323 -0.3897 -0.9099
  132MOL0     H17773  -0.144   2.734   0.872 -2.6869 -0.4183  0.5545
  132MOL0     H17774   0.075   2.877   0.917  0.3224 -2.1162 -1.0142
  132MOL0     H17775  -0.006   2.900   1.080  2.0560 -1.4728  1.0146
  132MOL0     H17776   0.086   2.640   0.954 -1.3466 -2.4162  0.5502
  132MOL0     H17777  -0.024   2.650   1.093 -0.3073  1.2255  0.0472
  132MOL0     H17778   0.217   2.607   1.147  0.0431  1.1249  1.9569
  132MOL0     H17779   0.168   2.769   1.217 -1.1395  0.4624 -0.3457
  132MOL0     H17780   0.431   2.905   0.904  1.7295  2.6233  0.6353
  132MOL0     H17781   0.665   2.881   0.881 -1.8088  1.0946  0.6519
  132MOL0     H17782   1.065   2.603   1.243 -2.4740  0.3951  1.0526
  132MOL0     H17783   1.299   2.636   1.260 -0.4650 -0.9280  0.3687
  132MOL0     H17784   1.520   2.721   1.292  2.5661 -0.2168 -0.9684
  132MOL0     H17785   1.499   2.700   1.103 -0.0093 -2.0430  0.0923
  132MOL0     H17786   1.660   2.895   1.128 -4.6836 -0.1476  0.8525
  132MOL0     H17787   1.679   2.867   1.292  3.0427 -1.7063 -0.2607
  132MOL0     H17788   1.744   2.664   1.057  1.2533 -1.6347 -0.2641
  132MOL0     H17789   1.857   2.769   1.147  0.3175 -1.7754  2.3235
  132MOL0     H17790   1.687   2.568   1.282  0.0090  1.3058  3.0753
  132MOL0     H17791   1.812   2.665   1.351 -1.7625  1.4085 -0.4436
  132MOL0     H17792   1.848   2.462   1.123 -1.2351  3.0541 -0.9268
  132MOL0     H17793   1.909   2.448   1.301  1.5795 -0.7367  0.4455
  132MOL0     H17794   2.024   2.643   1.117  1.0871  1.7516  0.4827
  132MOL0     H17795   2.065   2.619   1.281  1.6449 -5.2629  2.7535
  132MOL0     H17796   2.080   2.380   1.081 -0.3508  2.9319 -2.7551
  132MOL0     H17797   2.151   2.383   1.240 -0.0611  1.7263  1.3043
  132MOL0     H17798   2.317   2.416   1.049  0.1296 -0.4409  1.7281
  132MOL0     H17799   2.252   2.575   1.020 -1.1303 -1.7415 -2.4621
  132MOL0     H17800   1.246   3.051   1.137  4.3613 -1.0661  2.4515
  132MOL0     H17801   1.008   3.017   1.165  3.1990  1.7916  0.4465
  132MOL0     H17802   0.659   2.641   1.251 -2.1350  0.4172  0.9948
  132MOL0     H17803   0.424   2.654   1.248  1.1224  0.4276 -0.0587
  132MOL0     H17804   0.536   3.419   0.139  1.6028 -2.3392  0.0225
  132MOL0     H17805   0.774   3.442   0.230  1.9489  2.6911  2.3527
  132MOL0     H17806   1.102   3.417   0.507  1.0837 -0.4491 -0.0205
  132MOL0     H17807   1.316   3.396   0.641 -0.3087 -0.2029  0.3230
  132MOL0     H17808   1.303   3.067   0.923 -0.9080  0.4399 -0.5783
  132MOL0     H17809   1.379   3.180   1.045  0.8773  0.6560 -1.3074
  132MOL0     H17810   1.515   3.003   0.942  2.6597  0.2622  1.1602
  132MOL0     H17811   1.572   3.170   0.967 -1.5125 -0.2892  1.4328
  132MOL0     H17812   1.468   3.140   0.694  0.8081  3.2584  0.9035
  132MOL0     H17813   1.594   3.016   0.732  1.9868  2.1413 -1.0942
  132MOL0     H17814   1.598   3.308   0.772  1.0593  0.2484  0.0005
  132MOL0     H17815   1.752   3.227   0.787  0.7064  1.2196  0.2762
  132MOL0     H17816   1.771   3.237   0.379  0.1324 -1.2150 -0.3842
  132MOL0     H17817   1.091   3.127   0.899 -0.1606  2.2180  0.6704
  132MOL0     H17818   0.908   3.019   0.806 -2.2942  0.7321  2.7735
  132MOL0     H17819   0.817   3.158   0.869 -3.2382 -1.1862 -0.8170
  132MOL0     H17820   0.799   3.103   0.700  4.4874 -4.7558 -3.5305
  133MOL0     O17821   6.232   5.787   7.140 -0.0971 -0.4047 -0.4232
  133MOL0     C17822   6.188   5.703   7.065  0.0309 -0.5687  0.4464
  133MOL0     O17823   6.175   5.732   6.926 -0.1334 -0.1051 -0.3560
  133MOL0     C17824   6.209   5.854   6.868 -0.1580 -0.4398 -0.2368
  133MOL0     C17825   6.252   5.838   6.738 -0.2014 -0.1558  0.4892
  133MOL0     C17826   6.290   5.949   6.662  0.3376 -0.1830  0.2589
  133MOL0     C17827   6.273   6.076   6.705 -0.3822  0.4888 -0.6864
  133MOL0     O17828   6.316   6.186   6.632 -0.2725 -0.2204 -0.3893
  133MOL0     C17829   6.295   6.319   6.684  0.1372  0.0308 -0.1556
  133MOL0     C17830   6.328   6.402   6.570 -0.3392 -0.1240  0.3386
  133MOL0     C17831   6.372   6.550   6.607  0.0717  0.0424 -0.1821
  133MOL0     C17832   6.397   6.636   6.490  1.1599 -0.5677 -0.1608
  133MOL0     C17833   6.385   6.787   6.517 -0.0852  0.2828  0.4964
  133MOL0     C17834   6.520   6.839   6.558 -0.7958 -0.8417 -0.8273
  133MOL0     C17835   6.506   6.986   6.597 -0.4254  0.6564  0.3233
  133MOL0     C17836   6.403   7.034   6.694 -0.3378 -0.6757 -0.4548
  133MOL0     N17837   6.408   6.948   6.812 -0.2872 -0.5256  0.2453
  133MOL0     C17838   6.502   6.942   6.908  0.0816 -0.5377 -0.8687
  133MOL0     C17839   6.445   6.863   6.998  0.2774  1.5125 -0.6597
  133MOL0     C17840   6.517   6.800   7.114 -0.4604 -0.7541 -0.0635
  133MOL0     C17841   6.618   6.697   7.071  0.2141  0.5379 -0.2327
  133MOL0     C17842   6.561   6.574   7.013 -0.5554  0.1752  0.1656
  133MOL0     C17843   6.478   6.503   7.123 -0.9286 -0.4490  0.0771
  133MOL0     O17844   6.499   6.359   7.118  0.9366 -0.0459  0.6072
  133MOL0     C17845   6.439   6.273   7.207 -0.3634 -0.3230 -0.0061
  133MOL0     C17846   6.444   6.137   7.177  0.0899  1.3467  0.5485
  133MOL0     C17847   6.378   6.047   7.268  0.5639  1.0771 -0.1224
  133MOL0     C17848   6.282   6.088   7.363  0.1562  0.1695 -0.5463
  133MOL0     C17849   6.222   5.992   7.461  1.2645  0.0182 -0.2506
  133MOL0     O17850   6.273   5.867   7.471 -0.3986 -0.2053 -0.4070
  133MOL0     C17851   6.269   5.795   7.592 -0.2804  0.1026 -0.2835
  133MOL0     C17852   6.229   5.845   7.723 -0.3962  0.5492  0.3409
  133MOL0     C17853   6.242   5.766   7.838  0.1393 -1.0652 -0.0266
  133MOL0     C17854   6.281   5.630   7.815  0.3010 -0.7730  1.0067
  133MOL0     O17855   6.300   5.534   7.912  0.5084  0.0162 -0.1283
  133MOL0     C17856   6.345   5.597   8.035 -0.0459  0.6157  0.1848
  133MOL0     C17857   6.397   5.467   8.111 -0.3331 -0.2067 -0.0341
  133MOL0     C17858   6.517   5.407   8.049  0.5723 -0.1208  0.0188
  133MOL0     C17859   6.576   5.288   8.123  0.3420  0.3973  0.5228
  133MOL0     C17860   6.673   5.209   8.015 -0.1107 -0.3358  0.5074
  133MOL0     C17861   6.752   5.088   8.074  0.0518 -0.4883  1.3803
  133MOL0     C17862   6.850   5.024   7.972  0.1631 -0.2794 -0.7155
  133MOL0     C17863   6.783   4.969   7.846  0.2731 -0.7002  0.9557
  133MOL0    Cl17864   6.930   4.912   7.758  0.4050 -0.1277  0.2859
  133MOL0     C17865   6.304   5.585   7.686  0.7746  0.4363  0.0518
  133MOL0     C17866   6.310   5.667   7.574  0.0942 -0.3366 -0.6239
  133MOL0     O17867   6.134   6.045   7.534  0.7562  0.1269 -0.1786
  133MOL0     C17868   6.270   6.226   7.380  0.7492 -0.5252  0.0499
  133MOL0     C17869   6.347   6.315   7.305  0.7660 -0.5482  0.7951
  133MOL0     N17870   6.312   6.838   6.972  0.9465 -1.0693 -0.3881
  133MOL0     N17871   6.291   6.886   6.856 -0.9463  0.6378  0.0596
  133MOL0     C17872   6.244   6.097   6.839 -0.0378 -0.2997 -1.0831
  133MOL0     C17873   6.209   5.985   6.920 -0.5553 -0.0364 -0.2244
  133MOL0     C17874   6.134   5.578   7.128  0.7727  0.1188 -0.9382
  133MOL0     C17875   6.141   5.565   7.269  0.9443  0.3363 -0.7742
  133MOL0     C17876   6.092   5.448   7.335 -0.3847  1.2030  0.2214
  133MOL0     C17877   6.033   5.343   7.259  0.2374 -0.9200  0.3917
  133MOL0     O17878   5.971   5.239   7.319  0.6618 -0.4910  1.2071
  133MOL0     C17879   6.053   5.127   7.355  0.0481  0.0922 -0.0190
  133MOL0     C17880   5.974   4.995   7.360  0.2492  0.9636  0.4592
  133MOL0     C17881   5.954   4.937   7.218 -0.4792  0.3165  0.4605
  133MOL0     C17882   5.922   4.786   7.226  0.2012  0.1455 -0.4376
  133MOL0     C17883   5.784   4.759   7.274  0.0172 -0.1478  0.2129
  133MOL0     C17884   5.669   4.735   7.306 -0.0338 -0.6672  0.2237
  133MOL0     C17885   6.017   5.357   7.120  0.0339  0.4781  0.5573
  133MOL0     C17886   6.072   5.471   7.062  0.2164  0.6443  0.1196
  133MOL0     C17887   6.033   5.484   6.910 -0.3143  0.1918 -0.3725
  133MOL0     H17888   6.277   5.738   6.703  0.1264 -0.2637  1.0290
  133MOL0     H17889   6.301   5.935   6.555  0.6972 -0.8713  0.3811
  133MOL0     H17890   6.197   6.347   6.723 -0.0651  0.5248 -0.9836
  133MOL0     H17891   6.373   6.341   6.757  1.5114 -1.5975 -1.0398
  133MOL0     H17892   6.242   6.412   6.503 -0.7997  2.3309  1.1855
  133MOL0     H17893   6.412   6.358   6.517 -0.8993 -2.4979  1.3071
  133MOL0     H17894   6.464   6.556   6.666  1.3559 -0.2019 -2.0673
  133MOL0     H17895   6.290   6.593   6.665 -0.6558  1.0474 -1.8766
  133MOL0     H17896   6.490   6.607   6.440  0.2775 -0.3957 -1.9575
  133MOL0     H17897   6.312   6.615   6.425  1.8444  3.4482 -2.7233
  133MOL0     H17898   6.325   6.844   6.446 -4.7191 -0.6283  3.2440
  133MOL0     H17899   6.321   6.809   6.603  1.8021  0.7119  1.8564
  133MOL0     H17900   6.553   6.780   6.645  0.6479  2.8892  1.3818
  133MOL0     H17901   6.596   6.823   6.480 -1.0010 -0.2769 -1.1438
  133MOL0     H17902   6.496   7.037   6.501 -1.5479 -1.0124 -0.5082
  133MOL0     H17903   6.607   7.006   6.633  0.4775 -2.7362  0.0394
  133MOL0     H17904   6.434   7.133   6.731  0.4096 -1.0617 -0.0222
  133MOL0     H17905   6.302   7.036   6.653 -0.7778 -1.1338  0.5619
  133MOL0     H17906   6.605   6.977   6.901  0.8020 -2.3809 -0.2566
  133MOL0     H17907   6.576   6.883   7.154 -0.9180 -0.4323 -0.0547
  133MOL0     H17908   6.440   6.782   7.190 -0.6077  2.7835  0.8031
  133MOL0     H17909   6.684   6.728   6.991  1.0862 -0.6965 -0.0280
  133MOL0     H17910   6.677   6.676   7.161 -0.1078  0.8105  0.0502
  133MOL0     H17911   6.645   6.509   6.986  0.4549  1.6541 -0.3528
  133MOL0     H17912   6.496   6.591   6.927 -0.6089 -1.1095 -0.0749
  133MOL0     H17913   6.373   6.530   7.116 -0.7943  0.3997  1.0378
  133MOL0     H17914   6.497   6.532   7.227  3.9978 -2.9036  0.1661
  133MOL0     H17915   6.492   6.103   7.086 -2.8005  0.4461 -0.7488
  133MOL0     H17916   6.399   5.941   7.256 -1.6417  0.7871 -2.1791
  133MOL0     H17917   6.215   5.952   7.727  1.7228  0.8626  0.3046
  133MOL0     H17918   6.224   5.809   7.936 -1.2862 -1.5709 -0.0404
  133MOL0     H17919   6.426   5.661   7.999 -0.6440  2.4034  1.8926
  133MOL0     H17920   6.273   5.642   8.104  1.0789 -0.5272  2.1808
  133MOL0     H17921   6.418   5.507   8.211 -2.0370  1.1856 -0.1625
  133MOL0     H17922   6.313   5.398   8.123  0.4482 -1.8409 -2.9785
  133MOL0     H17923   6.489   5.388   7.945 -2.6092  1.5615  0.4174
  133MOL0     H17924   6.594   5.483   8.037  1.2373 -0.8388 -0.3578
  133MOL0     H17925   6.497   5.228   8.167  0.5343 -0.6975 -0.5486
  133MOL0     H17926   6.638   5.319   8.208  0.0421  3.6135 -0.3027
  133MOL0     H17927   6.759   5.262   7.972  0.2347 -1.2402  0.0484
  133MOL0     H17928   6.615   5.188   7.925  0.9877 -1.2604 -0.0138
  133MOL0     H17929   6.814   5.137   8.150  1.6562 -1.4971  0.7690
  133MOL0     H17930   6.682   5.025   8.130 -0.7516 -1.4930 -0.6481
  133MOL0     H17931   6.901   4.945   8.028  1.0916 -0.5332 -1.8661
  133MOL0     H17932   6.927   5.101   7.963 -0.5492  0.4601 -0.5957
  133MOL0     H17933   6.702   4.896   7.857  1.1485 -2.5414 -3.0352
  133MOL0     H17934   6.743   5.042   7.775 -2.5280 -1.2090  1.8827
  133MOL0     H17935   6.325   5.478   7.681 -0.7594  0.0560  0.9341
  133MOL0     H17936   6.342   5.626   7.478 -2.7769 -2.2366 -0.8741
  133MOL0     H17937   6.194   6.270   7.445  0.5372 -1.2539  0.3055
  133MOL0     H17938   6.319   6.419   7.320 -3.7573 -1.6086  1.2210
  133MOL0     H17939   6.259   6.190   6.893  1.9224 -1.7591  1.0472
  133MOL0     H17940   6.193   6.004   7.026  0.0826 -1.5403  0.1734
  133MOL0     H17941   6.167   5.642   7.341  1.2657  0.2793 -0.8283
  133MOL0     H17942   6.089   5.426   7.441 -4.6451  0.4004  0.1285
  133MOL0     H17943   6.076   5.144   7.460  1.2057  0.3233 -0.2973
  133MOL0     H17944   6.143   5.120   7.293  0.0647 -1.6129  0.1713
  133MOL0     H17945   5.874   5.013   7.401 -0.2579 -1.2122  0.2929
  133MOL0     H17946   6.017   4.916   7.422 -0.1175  0.7292  0.4163
  133MOL0     H17947   6.038   4.956   7.150 -1.2210 -1.0596 -0.8889
  133MOL0     H17948   5.870   4.983   7.166  1.3748  3.3335 -0.0829
  133MOL0     H17949   5.924   4.747   7.123 -2.2581 -0.0769 -0.4728
  133MOL0     H17950   5.994   4.733   7.289  0.6091  2.7430  1.4167
  133MOL0     H17951   5.576   4.689   7.333 -0.0915 -1.2001 -0.8174
  133MOL0     H17952   5.979   5.267   7.073  3.3689 -1.8025  1.8226
  133MOL0     H17953   5.966   5.412   6.863 -2.6067  0.4743  2.1926
  133MOL0     H17954   5.989   5.583   6.901 -1.9346 -0.5693 -1.2791
  133MOL0     H17955   6.128   5.492   6.857 -0.2350 -0.0971 -0.2765
  134MOL0     O17956   9.984   8.945   1.239 -0.1643 -0.2023 -0.0515
  134MOL0     C17957  10.033   8.852   1.312 -0.2896 -0.2266 -0.1123
  134MOL0     O17958   9.956   8.785   1.408 -0.1193  0.0016  0.0069
  134MOL0     C17959   9.815   8.810   1.407 -0.6912  0.4997  0.3757
  134MOL0     C17960   9.744   8.791   1.532 -0.5872  0.9429 -0.2622
  134MOL0     C17961   9.609   8.822   1.534 -0.4840  0.1898  0.6972
  134MOL0     C17962   9.539   8.865   1.424 -0.6274  1.1354 -0.2010
  134MOL0     O17963   9.414   8.907   1.426  0.3375  0.0862  0.1780
  134MOL0     C17964   9.404   9.050   1.450  0.4514 -0.1113  0.2578
  134MOL0     C17965   9.259   9.107   1.459  0.2687  1.0746  0.4728
  134MOL0     C17966   9.257   9.250   1.503  1.3369 -0.0418 -0.3182
  134MOL0     C17967   9.109   9.297   1.518 -0.1784 -0.3198 -0.1187
  134MOL0     C17968   9.107   9.438   1.586 -0.2522  0.4976 -0.8522
  134MOL0     C17969   9.206   9.539   1.521 -0.0148  0.6256 -0.5036
  134MOL0     C17970   9.190   9.690   1.570 -0.2692 -0.3670  0.6064
  134MOL0     C17971   9.060   9.755   1.537  0.7173 -0.9014 -0.3388
  134MOL0     N17972   9.023   9.765   1.394 -0.4032  0.7009 -0.7691
  134MOL0     C17973   8.952   9.675   1.310 -0.0704 -0.2326 -0.2253
  134MOL0     C17974   8.930   9.741   1.199  0.3329  0.2418 -0.0542
  134MOL0     C17975   8.835   9.701   1.099  0.1337  1.0000 -0.1015
  134MOL0     C17976   8.902   9.647   0.968 -1.3060  0.0580 -0.3489
  134MOL0     C17977   8.809   9.620   0.859 -0.7715  0.1183  0.4954
  134MOL0     C17978   8.743   9.485   0.880  0.1711 -0.2109 -0.2277
  134MOL0     O17979   8.646   9.455   0.771  0.0841  0.2739  0.0227
  134MOL0     C17980   8.519   9.515   0.770 -0.6038  0.6932  0.3485
  134MOL0     C17981   8.437   9.501   0.655 -0.4369  0.3548 -0.3806
  134MOL0     C17982   8.309   9.532   0.669 -0.0628 -0.2075 -0.5195
  134MOL0     C17983   8.248   9.581   0.784 -0.1745  0.2372  1.7199
  134MOL0     C17984   8.105   9.589   0.790 -0.7511  0.3441 -0.0956
  134MOL0     O17985   8.038   9.557   0.675 -0.1415 -0.1165  0.1801
  134MOL0     C17986   7.906   9.577   0.677  0.7158  0.2933 -0.2573
  134MOL0     C17987   7.841   9.700   0.652 -0.8910 -0.7573 -0.1571
  134MOL0     C17988   7.702   9.717   0.638 -0.1932 -0.0480 -0.4664
  134MOL0     C17989   7.617   9.606   0.658  0.0835  1.1237  0.7747
  134MOL0     O17990   7.482   9.625   0.648 -0.8066  0.2379 -0.4724
  134MOL0     C17991   7.423   9.546   0.545  0.4362  0.0926 -0.0671
  134MOL0     C17992   7.265   9.568   0.547  0.1894 -0.3914  0.7045
  134MOL0     C17993   7.184   9.494   0.433  0.3878  0.6653 -0.3575
  134MOL0     C17994   7.145   9.583   0.306  0.0106 -0.1362  0.2731
  134MOL0     C17995   7.072   9.497   0.200 -0.1196 -1.0388 -0.9319
  134MOL0     C17996   7.013   9.579   0.075  0.5274  0.0781  0.4360
  134MOL0     C17997   6.903   9.498   0.017  0.3171  0.7435  0.4355
  134MOL0     C17998   6.860   9.562  -0.121  0.2991 -0.6683  0.6517
  134MOL0    Cl17999   6.780   9.719  -0.087  0.1491  0.2399  0.1116
  134MOL0     C18000   7.675   9.486   0.699 -0.9540  0.3835  0.5289
  134MOL0     C18001   7.816   9.475   0.703 -0.2745 -0.6131 -0.2099
  134MOL0     O18002   8.056   9.629   0.893  0.2269  0.9753  0.1113
  134MOL0     C18003   8.331   9.602   0.888  0.5786  0.4928 -0.0158
  134MOL0     C18004   8.462   9.566   0.889  0.1751 -0.0222  0.6014
  134MOL0     N18005   8.992   9.868   1.210  0.8801 -0.1016  0.0791
  134MOL0     N18006   9.055   9.874   1.325  0.7241 -0.5224  0.3697
  134MOL0     C18007   9.599   8.855   1.298 -0.0805  0.2699  0.7931
  134MOL0     C18008   9.739   8.827   1.290  0.4879  0.7830  0.4131
  134MOL0     C18009  10.170   8.803   1.305  0.6318  0.0598 -0.9467
  134MOL0     C18010  10.237   8.769   1.424  0.0223 -0.3080 -0.2167
  134MOL0     C18011  10.374   8.735   1.414  1.0150  0.1312  0.4733
  134MOL0     C18012  10.440   8.722   1.282 -0.4228  0.4230 -0.5341
  134MOL0     O18013  10.567   8.685   1.273 -0.0379 -0.1269 -0.4629
  134MOL0     C18014  10.667   8.695   1.379  0.3928 -0.6514  0.6801
  134MOL0     C18015  10.715   8.846   1.419 -0.4188  0.7637  0.6555
  134MOL0     C18016  10.846   8.854   1.501 -0.5723 -0.2200 -0.1801
  134MOL0     C18017  10.967   8.800   1.410  1.4621  0.2168 -0.3983
  134MOL0     C18018  11.095   8.846   1.460  0.4377 -0.1108  0.6897
  134MOL0     C18019  11.199   8.890   1.508  0.4755  0.1729 -0.9807
  134MOL0     C18020  10.357   8.745   1.166 -0.3534  0.3476 -0.5236
  134MOL0     C18021  10.227   8.784   1.177  0.2938 -1.3199  0.3473
  134MOL0     C18022  10.145   8.784   1.057 -0.3576 -0.8804 -0.1360
  134MOL0     H18023   9.803   8.770   1.621 -3.5840  0.0979  1.6903
  134MOL0     H18024   9.555   8.801   1.626  0.5307 -3.7488  0.5876
  134MOL0     H18025   9.468   9.081   1.532  2.4000 -1.8330 -0.5273
  134MOL0     H18026   9.434   9.095   1.355 -1.0657  2.1354  0.7620
  134MOL0     H18027   9.191   9.044   1.517 -1.5311  1.5025 -1.0660
  134MOL0     H18028   9.223   9.092   1.356  1.0066 -1.6928  0.5251
  134MOL0     H18029   9.302   9.313   1.425 -0.1434 -0.6781 -1.7754
  134MOL0     H18030   9.312   9.256   1.597 -0.5896 -1.1694  0.9540
  134MOL0     H18031   9.060   9.305   1.421 -1.8378 -1.5330  0.5513
  134MOL0     H18032   9.039   9.230   1.570 -0.7361 -0.7686 -1.4055
  134MOL0     H18033   9.003   9.471   1.577 -0.1033  0.5264 -2.8977
  134MOL0     H18034   9.133   9.427   1.692 -0.5508 -0.4656 -0.8708
  134MOL0     H18035   9.298   9.503   1.570 -1.3678 -1.9379  0.3399
  134MOL0     H18036   9.213   9.529   1.413  1.7029 -2.3251 -0.2299
  134MOL0     H18037   9.265   9.744   1.512  1.3719 -1.6076  1.4858
  134MOL0     H18038   9.213   9.717   1.673 -0.1559 -3.8965  1.6487
  134MOL0     H18039   8.976   9.731   1.603 -0.8126 -1.2347 -2.3153
  134MOL0     H18040   9.066   9.862   1.559  0.3998 -0.4782 -2.1443
  134MOL0     H18041   8.896   9.589   1.346 -0.3178  0.3698  0.9065
  134MOL0     H18042   8.769   9.631   1.151  1.1206 -1.2399 -1.6946
  134MOL0     H18043   8.767   9.784   1.077  0.1898  1.2621  0.7080
  134MOL0     H18044   8.979   9.719   0.938 -0.9541 -0.1650  0.0131
  134MOL0     H18045   8.961   9.557   0.989 -1.9806 -0.2017  0.4872
  134MOL0     H18046   8.854   9.629   0.760 -0.9171  0.9636  0.5065
  134MOL0     H18047   8.736   9.701   0.852  0.4973  1.5126  2.5368
  134MOL0     H18048   8.702   9.484   0.982  0.6516 -0.2580 -0.0345
  134MOL0     H18049   8.825   9.413   0.876 -1.0342 -1.7911  1.5661
  134MOL0     H18050   8.472   9.455   0.563 -1.6069  1.0926 -1.2246
  134MOL0     H18051   8.247   9.518   0.581 -1.0582 -2.9605  0.5341
  134MOL0     H18052   7.904   9.788   0.645  0.5015 -1.6470  0.7227
  134MOL0     H18053   7.673   9.820   0.622  0.0451  0.1396  0.2991
  134MOL0     H18054   7.475   9.574   0.453  0.8948  0.4494  0.2949
  134MOL0     H18055   7.452   9.441   0.556  1.5890  0.4875  0.9344
  134MOL0     H18056   7.221   9.531   0.640 -1.5908 -0.4798 -0.1158
  134MOL0     H18057   7.239   9.670   0.519 -0.2685 -0.0965  2.1041
  134MOL0     H18058   7.233   9.400   0.407  0.3616  0.1109  1.4366
  134MOL0     H18059   7.088   9.467   0.478  0.1055  2.6053  0.3175
  134MOL0     H18060   7.238   9.613   0.255  1.2436  0.6397  2.7998
  134MOL0     H18061   7.093   9.674   0.337 -0.3309  0.7351 -2.5560
  134MOL0     H18062   6.990   9.445   0.251 -0.0306 -0.2786  0.0063
  134MOL0     H18063   7.142   9.420   0.166  1.2637 -0.4714  0.5099
  134MOL0     H18064   6.979   9.678   0.105  0.3681  1.4454 -3.7386
  134MOL0     H18065   7.084   9.605  -0.004  1.6577 -0.1744  1.3356
  134MOL0     H18066   6.811   9.511   0.075 -0.0321  1.0791 -0.1825
  134MOL0     H18067   6.932   9.393   0.005 -1.9051  0.0734  0.2728
  134MOL0     H18068   6.950   9.566  -0.185 -1.0146 -1.8056 -1.3845
  134MOL0     H18069   6.793   9.497  -0.177  0.6785 -0.8168  0.3619
  134MOL0     H18070   7.616   9.394   0.703 -0.2357 -0.0903  0.4116
  134MOL0     H18071   7.858   9.379   0.730  1.3381  0.7919  2.7645
  134MOL0     H18072   8.281   9.647   0.973  0.1265 -1.6956  0.9360
  134MOL0     H18073   8.529   9.602   0.967  1.7617  0.9661 -1.1163
  134MOL0     H18074   9.555   8.887   1.204  1.2845 -0.5751 -0.1722
  134MOL0     H18075   9.783   8.821   1.191  0.3212  1.6378  0.2780
  134MOL0     H18076  10.173   8.779   1.510 -0.3487 -2.8117 -0.1316
  134MOL0     H18077  10.407   8.712   1.515 -2.5614  3.0184  2.5302
  134MOL0     H18078  10.751   8.631   1.349 -0.2944 -0.3055 -2.2807
  134MOL0     H18079  10.631   8.637   1.465  0.2843  0.5558  1.4845
  134MOL0     H18080  10.629   8.883   1.476 -1.6052  0.4683 -0.8976
  134MOL0     H18081  10.719   8.911   1.331 -2.5446  1.3251  0.9215
  134MOL0     H18082  10.836   8.795   1.593 -1.0173 -1.3809 -0.9586
  134MOL0     H18083  10.855   8.959   1.531 -2.5165  0.2310 -1.0144
  134MOL0     H18084  10.969   8.690   1.414 -2.3625 -0.0991 -2.0132
  134MOL0     H18085  10.960   8.827   1.304  2.2593 -4.2634 -1.8423
  134MOL0     H18086  11.291   8.937   1.538  0.2977 -0.9391  1.5951
  134MOL0     H18087  10.399   8.726   1.068 -0.9862 -3.6063 -0.1760
  134MOL0     H18088  10.194   8.747   0.966  1.0155  0.1285  0.1514
  134MOL0     H18089  10.051   8.734   1.080  1.3544 -3.0490  2.8029
  134MOL0     H18090  10.120   8.888   1.032  2.0150  0.5905  2.8819
  135MOL0     O18091   8.723   0.334   8.054 -0.7548 -0.1372  0.2416
  135MOL0     C18092   8.709   0.333   7.935 -0.0288 -0.6390 -0.9577
  135MOL0     O18093   8.815   0.340   7.842  0.0525  0.1851  0.6083
  135MOL0     C18094   8.945   0.366   7.885  1.1823 -0.6400 -0.0007
  135MOL0     C18095   9.004   0.491   7.892  0.5821  0.1417  0.2177
  135MOL0     C18096   9.138   0.518   7.947 -0.4381  0.1224 -0.3259
  135MOL0     C18097   9.217   0.400   7.955 -0.8002  0.5049  0.3859
  135MOL0     O18098   9.347   0.420   7.987  0.3388 -0.4180  0.5844
  135MOL0     C18099   9.442   0.316   7.992 -0.5317 -0.9391 -1.0700
  135MOL0     C18100   9.573   0.353   8.056 -1.3977 -0.1197 -0.9164
  135MOL0     C18101   9.652   0.436   7.952 -0.1324 -0.0056 -0.0841
  135MOL0     C18102   9.709   0.369   7.829 -0.3064 -1.1273 -0.3463
  135MOL0     C18103   9.762   0.473   7.726  0.5631 -0.2103  0.0340
  135MOL0     C18104   9.794   0.390   7.597  0.9008 -0.5740 -0.3356
  135MOL0     C18105   9.823   0.471   7.468  0.4026 -0.6459 -0.0432
  135MOL0     C18106   9.836   0.359   7.358  0.4003 -0.0396  0.1760
  135MOL0     N18107   9.971   0.305   7.361 -0.1952 -0.3056  0.1566
  135MOL0     C18108  10.080   0.358   7.295  0.8745  0.2036  0.0198
  135MOL0     C18109  10.188   0.270   7.297 -0.3697  0.7686 -0.2738
  135MOL0     C18110  10.324   0.269   7.241  0.8121 -0.9870 -0.0434
  135MOL0     C18111  10.325   0.263   7.087 -0.5513 -0.4678 -0.7141
  135MOL0     C18112  10.456   0.204   7.039 -0.4829 -0.2409 -0.1913
  135MOL0     C18113  10.470   0.195   6.886  0.4408  0.3096 -0.7216
  135MOL0     O18114  10.444   0.324   6.825 -0.2903 -0.1806  0.5944
  135MOL0     C18115  10.554   0.403   6.809 -0.7791  0.9856 -0.0446
  135MOL0     C18116  10.678   0.379   6.879 -0.0676  0.6199  0.0751
  135MOL0     C18117  10.780   0.476   6.876  1.0583  0.2770 -0.0750
  135MOL0     C18118  10.764   0.610   6.807 -0.7174  0.8591 -0.2613
  135MOL0     C18119  10.870   0.718   6.808  1.0373  0.6253 -0.9071
  135MOL0     O18120  10.841   0.819   6.733  0.5695  0.1015 -0.5498
  135MOL0     C18121  10.910   0.932   6.747 -0.9504  0.3298  0.4915
  135MOL0     C18122  11.045   0.934   6.713 -0.6832  0.2524  0.3534
  135MOL0     C18123  11.127   1.049   6.731 -0.3510 -0.5699 -0.2182
  135MOL0     C18124  11.064   1.169   6.777 -0.2778  0.4941  0.9846
  135MOL0     O18125  11.115   1.295   6.786  0.5249  0.2616 -0.9605
  135MOL0     C18126  11.249   1.304   6.835 -0.2851 -0.1118 -0.4428
  135MOL0     C18127  11.257   1.397   6.952 -0.6205 -0.2595  0.1662
  135MOL0     C18128  11.288   1.546   6.910  0.0266  0.3826 -0.3914
  135MOL0     C18129  11.316   1.637   7.038  0.2877  0.4287  0.9740
  135MOL0     C18130  11.471   1.635   7.067 -0.1372  0.7835  0.2892
  135MOL0     C18131  11.500   1.719   7.193 -0.0165  0.1465  0.7549
  135MOL0     C18132  11.454   1.871   7.169  0.2270  0.7148 -0.7968
  135MOL0     C18133  11.543   1.969   7.256  0.5124 -0.2778 -0.2366
  135MOL0    Cl18134  11.702   1.985   7.186  0.2761 -0.5396 -0.5402
  135MOL0     C18135  10.928   1.163   6.801  0.4754  0.2330 -0.0788
  135MOL0     C18136  10.852   1.050   6.790  0.1987  0.5216  0.1782
  135MOL0     O18137  10.955   0.712   6.898 -0.9839  0.3478 -0.0205
  135MOL0     C18138  10.655   0.614   6.731 -0.3321 -0.1387 -0.1257
  135MOL0     C18139  10.546   0.520   6.737  0.0041  0.0831  0.5428
  135MOL0     N18140  10.132   0.155   7.358  0.0165 -0.1095  0.4456
  135MOL0     N18141  10.010   0.179   7.382  0.0677 -0.7119 -0.0231
  135MOL0     C18142   9.161   0.273   7.940 -0.2810 -0.2803  0.1740
  135MOL0     C18143   9.028   0.257   7.906  0.9970 -0.1554  0.3049
  135MOL0     C18144   8.575   0.318   7.880  0.0284  0.0727 -1.3952
  135MOL0     C18145   8.556   0.289   7.748 -0.4097  0.6285  0.8636
  135MOL0     C18146   8.433   0.268   7.691 -0.4975 -0.9420 -0.7147
  135MOL0     C18147   8.318   0.285   7.760 -0.0010  0.4875  0.0782
  135MOL0     O18148   8.193   0.259   7.706  0.0071  0.3445  0.1573
  135MOL0     C18149   8.163   0.116   7.673 -0.6241 -0.5837  0.1643
  135MOL0     C18150   8.017   0.101   7.632 -0.3175 -0.5036  0.5845
  135MOL0     C18151   7.960  -0.041   7.615 -0.1855 -0.5139  0.8455
  135MOL0     C18152   7.825  -0.026   7.559 -0.6180  0.6012 -0.0378
  135MOL0     C18153   7.750  -0.156   7.556 -0.0151  0.1635  1.2423
  135MOL0     C18154   7.675  -0.253   7.543 -0.8447  0.2565 -0.0336
  135MOL0     C18155   8.319   0.322   7.900  0.6103  0.2511  0.3844
  135MOL0     C18156   8.447   0.323   7.963 -1.1720  0.1780  0.4064
  135MOL0     C18157   8.447   0.336   8.107  0.5284  1.0032 -0.7126
  135MOL0     H18158   8.931   0.571   7.883 -2.0002 -1.7885  2.4560
  135MOL0     H18159   9.176   0.619   7.957 -1.2898  0.5432 -1.1383
  135MOL0     H18160   9.399   0.244   8.064  0.2462 -1.6903 -1.3427
  135MOL0     H18161   9.451   0.264   7.896  1.4847  0.7033 -1.8250
  135MOL0     H18162   9.621   0.257   8.073 -0.7306  0.3340 -0.1783
  135MOL0     H18163   9.572   0.396   8.157  5.3463 -1.5537  0.2323
  135MOL0     H18164   9.736   0.487   8.000  1.3029 -2.2333 -0.0774
  135MOL0     H18165   9.579   0.508   7.916 -0.6465 -0.1492  0.6472
  135MOL0     H18166   9.797   0.309   7.856 -0.5216 -1.4849 -0.4272
  135MOL0     H18167   9.628   0.312   7.783  0.1143  0.1481 -2.8252
  135MOL0     H18168   9.673   0.533   7.703 -0.0961 -1.2405 -0.1627
  135MOL0     H18169   9.850   0.527   7.760  1.8342 -2.8334  1.1478
  135MOL0     H18170   9.879   0.326   7.621  3.4609  1.9681 -1.8603
  135MOL0     H18171   9.709   0.323   7.580 -0.9469  1.6328 -0.3746
  135MOL0     H18172   9.910   0.537   7.476  0.5250 -0.4441 -2.4284
  135MOL0     H18173   9.741   0.532   7.429  2.4995  2.3186 -0.1133
  135MOL0     H18174   9.763   0.280   7.376  2.6819 -2.0573  1.1197
  135MOL0     H18175   9.824   0.406   7.260 -1.8764 -0.1067  0.3725
  135MOL0     H18176  10.082   0.460   7.259 -0.3657  0.3668  0.3633
  135MOL0     H18177  10.377   0.361   7.266 -1.0734  0.5355 -1.3254
  135MOL0     H18178  10.377   0.184   7.285 -0.4034 -0.8168  1.8556
  135MOL0     H18179  10.247   0.203   7.040 -1.7610 -2.8533  3.7777
  135MOL0     H18180  10.308   0.362   7.045 -1.6856 -0.2233  0.2683
  135MOL0     H18181  10.451   0.098   7.065  1.8563 -0.5823 -0.9014
  135MOL0     H18182  10.535   0.258   7.093 -1.5933  2.3014 -0.9567
  135MOL0     H18183  10.394   0.125   6.849  0.7943 -0.5781  0.1849
  135MOL0     H18184  10.564   0.148   6.856  0.8742  1.2858 -0.9394
  135MOL0     H18185  10.694   0.299   6.951 -0.4994  0.6656  0.2266
  135MOL0     H18186  10.857   0.440   6.944  0.6108  0.2747  0.4433
  135MOL0     H18187  11.087   0.839   6.681 -2.7060 -1.5465  2.6665
  135MOL0     H18188  11.231   1.054   6.700 -0.2707  0.2617  0.1501
  135MOL0     H18189  11.277   1.205   6.874 -1.4543 -0.2194  0.1883
  135MOL0     H18190  11.329   1.318   6.761  1.1109 -1.9196  0.6162
  135MOL0     H18191  11.172   1.390   7.020 -0.3354 -1.6635  0.3989
  135MOL0     H18192  11.344   1.372   7.013 -0.0584  3.6403  1.2809
  135MOL0     H18193  11.383   1.540   6.857  0.2861 -1.6522  0.2283
  135MOL0     H18194  11.208   1.594   6.851  2.2847  0.6289 -3.5067
  135MOL0     H18195  11.256   1.587   7.114  0.1503 -1.0999 -0.0910
  135MOL0     H18196  11.271   1.735   7.025 -2.3398 -0.7032  1.0057
  135MOL0     H18197  11.524   1.681   6.983  1.7482  0.4499  1.2282
  135MOL0     H18198  11.505   1.532   7.084  2.4673  1.9597  3.3247
  135MOL0     H18199  11.436   1.685   7.274 -2.1496  1.1496 -0.4343
  135MOL0     H18200  11.606   1.703   7.214  0.1989  3.1427  2.5575
  135MOL0     H18201  11.351   1.883   7.202  1.1292 -2.4111  4.2725
  135MOL0     H18202  11.455   1.893   7.062  0.1322 -0.7452 -1.1226
  135MOL0     H18203  11.482   2.059   7.251 -0.5373 -0.9927 -0.5412
  135MOL0     H18204  11.548   1.943   7.363  1.5854 -3.4017 -0.9400
  135MOL0     H18205  10.874   1.255   6.822 -2.3606 -0.9016 -1.7565
  135MOL0     H18206  10.744   1.054   6.801 -0.1858 -1.7067 -1.8330
  135MOL0     H18207  10.626   0.704   6.677 -1.1173  1.1051  2.1987
  135MOL0     H18208  10.452   0.532   6.684 -0.6482 -1.9099  1.1699
  135MOL0     H18209   9.226   0.188   7.961 -0.1501  0.2841  2.3143
  135MOL0     H18210   8.988   0.156   7.900  0.7261 -0.2172  2.4340
  135MOL0     H18211   8.639   0.266   7.682 -1.4683 -2.9463  0.6137
  135MOL0     H18212   8.422   0.228   7.590  3.2584 -2.0529 -0.8307
  135MOL0     H18213   8.175   0.047   7.757 -5.3439  0.5455  2.0753
  135MOL0     H18214   8.234   0.085   7.595  0.5005 -1.3928  1.4668
  135MOL0     H18215   7.989   0.164   7.547 -0.0317 -2.0556 -0.6976
  135MOL0     H18216   7.956   0.134   7.718  0.5207  3.4873 -0.1565
  135MOL0     H18217   7.942  -0.085   7.713 -1.1182  2.0755  1.9197
  135MOL0     H18218   8.025  -0.100   7.550 -2.7974 -0.2376 -2.3217
  135MOL0     H18219   7.764   0.047   7.612 -0.1606  0.1860  1.0846
  135MOL0     H18220   7.833   0.001   7.453 -1.0346  1.1423  0.0689
  135MOL0     H18221   7.608  -0.336   7.550  0.3100 -1.0432 -2.6192
  135MOL0     H18222   8.223   0.327   7.950 -1.8597  3.1622 -4.0158
  135MOL0     H18223   8.345   0.360   8.139  0.4595 -0.9723  0.7586
  135MOL0     H18224   8.473   0.238   8.148  3.7316  2.0260  0.0256
  135MOL0     H18225   8.516   0.413   8.144 -0.4161  1.6510 -0.2658
  136MOL0     O18226   0.398   1.174   3.060 -0.6630  0.4074 -0.5847
  136MOL0     C18227   0.386   1.266   2.975  0.0457  0.3548 -0.0991
  136MOL0     O18228   0.267   1.315   2.921 -0.2438  0.0081  0.6434
  136MOL0     C18229   0.148   1.261   2.967 -0.8079  0.1597  0.1120
  136MOL0     C18230   0.046   1.214   2.886 -0.0206  0.5977 -0.1963
  136MOL0     C18231  -0.083   1.187   2.937  0.5754 -0.1448 -0.0719
  136MOL0     C18232  -0.101   1.174   3.077  0.2005 -0.1221  0.5710
  136MOL0     O18233  -0.218   1.150   3.143 -0.4126 -0.4977  0.8113
  136MOL0     C18234  -0.301   1.043   3.092 -0.0966 -0.1431  0.1406
  136MOL0     C18235  -0.250   0.909   3.150 -0.4420 -0.2652 -1.1232
  136MOL0     C18236  -0.349   0.795   3.153  0.8153  0.0841  0.0099
  136MOL0     C18237  -0.300   0.690   3.235 -0.1318  0.4671  0.3766
  136MOL0     C18238  -0.410   0.579   3.243  0.0884  0.0473  0.1153
  136MOL0     C18239  -0.343   0.448   3.283  0.5595 -0.2657 -0.1801
  136MOL0     C18240  -0.447   0.345   3.322  0.9114  0.8888 -0.4990
  136MOL0     C18241  -0.389   0.206   3.333 -0.6600  0.1418  0.4927
  136MOL0     N18242  -0.483   0.100   3.291 -0.4542 -0.2304 -0.0978
  136MOL0     C18243  -0.468  -0.028   3.341  0.7891  0.1711 -0.4999
  136MOL0     C18244  -0.558  -0.099   3.264 -0.0675  0.5627  0.9236
  136MOL0     C18245  -0.595  -0.250   3.275  0.2214  0.5418  0.1221
  136MOL0     C18246  -0.585  -0.315   3.142 -1.2572 -0.0534 -0.2090
  136MOL0     C18247  -0.597  -0.469   3.142 -0.3658 -0.1526 -0.0685
  136MOL0     C18248  -0.734  -0.528   3.135 -0.0574  0.1637 -0.1363
  136MOL0     O18249  -0.759  -0.613   3.253  0.6104 -0.2986 -0.1144
  136MOL0     C18250  -0.706  -0.742   3.268 -0.5053 -0.9529  0.1255
  136MOL0     C18251  -0.631  -0.808   3.166 -0.0766 -0.2147  0.1859
  136MOL0     C18252  -0.573  -0.930   3.181  0.5767  0.6617 -0.0398
  136MOL0     C18253  -0.589  -0.995   3.297  0.3069 -0.1005  0.3116
  136MOL0     C18254  -0.516  -1.119   3.325  0.6301  0.5120  0.3614
  136MOL0     O18255  -0.572  -1.179   3.430  0.6174 -0.7240  0.4048
  136MOL0     C18256  -0.502  -1.282   3.479  0.2756  0.6176  0.7883
  136MOL0     C18257  -0.574  -1.403   3.500  0.2664 -1.8319  0.4710
  136MOL0     C18258  -0.517  -1.507   3.573 -0.8347  0.6746 -0.0366
  136MOL0     C18259  -0.384  -1.498   3.624  0.4570  0.3366 -1.3598
  136MOL0     O18260  -0.342  -1.609   3.702  0.4858 -0.4749 -0.3182
  136MOL0     C18261  -0.241  -1.587   3.811  0.4087 -0.3617 -1.1331
  136MOL0     C18262  -0.304  -1.505   3.931  0.4590  0.7441 -0.3853
  136MOL0     C18263  -0.417  -1.584   4.007  0.0854  0.4048  0.4063
  136MOL0     C18264  -0.492  -1.503   4.108  0.2942 -0.0944 -0.7374
  136MOL0     C18265  -0.582  -1.589   4.196  0.3082 -0.3252  0.0261
  136MOL0     C18266  -0.655  -1.506   4.303 -0.2753 -0.7681  0.2406
  136MOL0     C18267  -0.782  -1.448   4.243  0.1291  0.1370  0.6077
  136MOL0     C18268  -0.851  -1.358   4.342 -0.5398  1.0507 -0.0809
  136MOL0    Cl18269  -0.744  -1.224   4.384 -0.5152  0.1805  0.0812
  136MOL0     C18270  -0.309  -1.383   3.595 -0.2937 -0.1893  0.1578
  136MOL0     C18271  -0.367  -1.279   3.529  0.6531  0.0309 -0.1601
  136MOL0     O18272  -0.421  -1.159   3.258 -0.4870  0.7951  0.1054
  136MOL0     C18273  -0.673  -0.936   3.395  0.3378 -0.6946  0.7066
  136MOL0     C18274  -0.730  -0.813   3.379  0.0465 -0.2964 -0.3160
  136MOL0     N18275  -0.625  -0.014   3.179  0.6296 -0.1023 -0.3026
  136MOL0     N18276  -0.588   0.107   3.203 -0.7987 -0.0692 -0.2548
  136MOL0     C18277   0.007   1.213   3.158  1.2249 -0.0377  0.3409
  136MOL0     C18278   0.128   1.259   3.103  0.1704  1.0532 -0.3115
  136MOL0     C18279   0.515   1.326   2.931  0.6502  0.1192 -0.1650
  136MOL0     C18280   0.510   1.457   2.867  0.4826  0.4043 -0.4593
  136MOL0     C18281   0.622   1.537   2.836  0.5464 -0.4628 -1.0441
  136MOL0     C18282   0.749   1.488   2.864  0.1044  0.5978 -1.3556
  136MOL0     O18283   0.870   1.556   2.844  0.0468 -0.0653  0.1453
  136MOL0     C18284   0.866   1.704   2.840  0.6360  0.1322  0.2527
  136MOL0     C18285   1.008   1.772   2.854  0.4167  0.6544 -0.4071
  136MOL0     C18286   1.077   1.742   2.987 -0.5705  0.2799  0.1087
  136MOL0     C18287   1.007   1.769   3.115 -0.0843  1.0924 -0.1046
  136MOL0     C18288   1.067   1.881   3.186  0.7351  0.9202 -0.1915
  136MOL0     C18289   1.130   1.973   3.235  1.1113  0.7386  0.2243
  136MOL0     C18290   0.763   1.359   2.911  0.0427  0.2277  0.7275
  136MOL0     C18291   0.649   1.273   2.938 -0.6892  0.3777  0.0232
  136MOL0     C18292   0.677   1.128   2.975 -0.8738 -0.1417 -0.6895
  136MOL0     H18293   0.078   1.200   2.783 -2.6726 -2.1228 -0.7595
  136MOL0     H18294  -0.163   1.170   2.867  1.7296 -1.9840 -1.0371
  136MOL0     H18295  -0.393   1.063   3.148  1.2341 -0.7102  2.6604
  136MOL0     H18296  -0.305   1.058   2.983  1.7063 -1.8659 -0.2101
  136MOL0     H18297  -0.228   0.926   3.256 -0.3421  0.9063 -1.3226
  136MOL0     H18298  -0.165   0.877   3.089 -1.2237 -0.6144 -2.0524
  136MOL0     H18299  -0.377   0.772   3.050 -2.6900  0.9157  0.6322
  136MOL0     H18300  -0.447   0.818   3.197  0.5518  0.3351 -0.6744
  136MOL0     H18301  -0.212   0.642   3.192 -1.5335 -1.7330 -0.2080
  136MOL0     H18302  -0.275   0.729   3.334 -0.7929 -1.5202  1.3855
  136MOL0     H18303  -0.491   0.613   3.308  0.2357 -1.2896  1.0269
  136MOL0     H18304  -0.454   0.566   3.144 -0.7322 -0.6618  0.5615
  136MOL0     H18305  -0.273   0.400   3.213  1.4725 -1.1625  1.2983
  136MOL0     H18306  -0.275   0.465   3.366  0.6685 -1.3174 -0.0362
  136MOL0     H18307  -0.525   0.347   3.245  0.0921  2.7919  0.3285
  136MOL0     H18308  -0.490   0.366   3.420  3.4361  0.9285  0.6742
  136MOL0     H18309  -0.307   0.187   3.263  0.5805 -3.3527  2.6233
  136MOL0     H18310  -0.346   0.177   3.430  1.7734  1.0778 -0.2411
  136MOL0     H18311  -0.403  -0.061   3.421  0.3306 -0.2713 -0.3005
  136MOL0     H18312  -0.523  -0.291   3.346  1.3513 -0.1627 -1.3852
  136MOL0     H18313  -0.696  -0.264   3.314 -0.7763 -3.1026 -3.1802
  136MOL0     H18314  -0.649  -0.257   3.076 -2.0109  1.7347  1.9919
  136MOL0     H18315  -0.481  -0.301   3.110 -1.4427  0.4698 -0.5801
  136MOL0     H18316  -0.537  -0.512   3.223  0.1947  1.1876  0.2490
  136MOL0     H18317  -0.538  -0.492   3.053 -1.8196  1.2109 -1.4247
  136MOL0     H18318  -0.761  -0.591   3.050 -0.0624 -0.0561  0.0245
  136MOL0     H18319  -0.817  -0.457   3.142 -0.1281  0.1850 -1.0736
  136MOL0     H18320  -0.611  -0.756   3.073 -2.6615  0.9912  0.2243
  136MOL0     H18321  -0.533  -0.973   3.089 -1.6323  0.1552 -0.8229
  136MOL0     H18322  -0.678  -1.405   3.469  0.3554  0.2037 -0.1218
  136MOL0     H18323  -0.564  -1.602   3.597  1.3395 -0.0011  1.9881
  136MOL0     H18324  -0.197  -1.686   3.828  1.1111 -0.1710 -1.7862
  136MOL0     H18325  -0.150  -1.536   3.776 -0.1680  2.0312  0.5780
  136MOL0     H18326  -0.211  -1.481   3.982  0.5733 -0.2510 -0.1108
  136MOL0     H18327  -0.364  -1.423   3.889  0.4946  0.6237 -0.6696
  136MOL0     H18328  -0.482  -1.630   3.932 -0.2973 -1.1311  1.6484
  136MOL0     H18329  -0.371  -1.667   4.061  2.3296  2.1829  1.4287
  136MOL0     H18330  -0.545  -1.429   4.047  0.3105  0.4959 -0.0417
  136MOL0     H18331  -0.414  -1.463   4.172 -1.9817 -1.6802  3.3684
  136MOL0     H18332  -0.509  -1.653   4.246 -0.2215  1.1064  2.8116
  136MOL0     H18333  -0.646  -1.655   4.137  1.0257 -0.2628 -0.8425
  136MOL0     H18334  -0.686  -1.566   4.389 -1.4242  2.1975  2.0751
  136MOL0     H18335  -0.590  -1.426   4.340  1.3461 -1.2652 -1.4259
  136MOL0     H18336  -0.837  -1.539   4.217  2.9661 -0.5989 -3.8804
  136MOL0     H18337  -0.764  -1.390   4.152  3.0703  1.1893  1.7518
  136MOL0     H18338  -0.948  -1.315   4.314 -1.1083 -1.9443 -3.4014
  136MOL0     H18339  -0.866  -1.410   4.437 -2.2742 -0.7087 -1.2293
  136MOL0     H18340  -0.208  -1.375   3.636  0.2547  1.6794 -1.4329
  136MOL0     H18341  -0.311  -1.189   3.507 -1.6751  1.5168 -0.3129
  136MOL0     H18342  -0.687  -0.992   3.486  1.8070 -2.4610 -0.0776
  136MOL0     H18343  -0.781  -0.760   3.459  2.5769  0.7097  0.7102
  136MOL0     H18344   0.002   1.218   3.266  1.3691  1.1828  0.3000
  136MOL0     H18345   0.205   1.300   3.168  0.6969  0.7141 -0.7114
  136MOL0     H18346   0.418   1.509   2.844  1.5446  1.6477 -2.1144
  136MOL0     H18347   0.599   1.625   2.777  1.0584 -0.1080 -0.7216
  136MOL0     H18348   0.789   1.735   2.911 -1.1241  0.9564 -1.8984
  136MOL0     H18349   0.828   1.742   2.744 -1.5595 -4.2889 -0.8996
  136MOL0     H18350   1.015   1.881   2.843  2.1301  0.3279 -3.9153
  136MOL0     H18351   1.071   1.728   2.776 -0.0253  0.5572 -0.7129
  136MOL0     H18352   1.177   1.787   2.981  1.0256 -2.8497  0.9619
  136MOL0     H18353   1.090   1.634   2.993 -0.9138  0.0364 -2.4617
  136MOL0     H18354   0.905   1.792   3.085  0.1701 -1.5759 -3.6626
  136MOL0     H18355   0.999   1.679   3.176  1.2323  0.5362 -0.7203
  136MOL0     H18356   1.176   2.056   3.284 -0.4833  0.8571  1.6175
  136MOL0     H18357   0.863   1.319   2.909 -0.9000 -2.3304  0.8023
  136MOL0     H18358   0.774   1.092   2.938 -0.5593 -1.7684  1.5059
  136MOL0     H18359   0.671   1.119   3.084 -0.4370  3.1631 -0.2953
  136MOL0     H18360   0.598   1.078   2.918  0.1605  1.6305 -3.9266
  137MOL0     O18361   1.701   1.601   9.066 -0.5238 -0.0403  0.5858
  137MOL0     C18362   1.763   1.570   9.168 -0.3539  0.4291  0.5524
  137MOL0     O18363   1.710   1.541   9.287 -0.4846 -0.0057  0.0959
  137MOL0     C18364   1.584   1.600   9.313 -0.3819  0.4410 -0.2881
  137MOL0     C18365   1.472   1.561   9.246 -0.1973 -0.1828 -0.1298
  137MOL0     C18366   1.337   1.610   9.273 -0.0254  0.6407 -0.5946
  137MOL0     C18367   1.319   1.697   9.378  0.7314 -0.4120 -0.7224
  137MOL0     O18368   1.190   1.742   9.400  0.0834 -0.3347 -0.6774
  137MOL0     C18369   1.149   1.772   9.534 -0.4471 -0.1648  0.3038
  137MOL0     C18370   1.007   1.726   9.569  0.0272  0.2336  0.4284
  137MOL0     C18371   0.952   1.780   9.701 -0.1922 -0.1579 -0.4063
  137MOL0     C18372   0.822   1.724   9.756  0.2841  0.4313  0.1030
  137MOL0     C18373   0.704   1.813   9.708 -0.0519 -0.3941 -0.2819
  137MOL0     C18374   0.584   1.789   9.798  0.9003 -0.0363  0.2449
  137MOL0     C18375   0.463   1.810   9.715  0.3084 -1.2249  0.5196
  137MOL0     C18376   0.350   1.776   9.814  0.5010  0.5470  0.1285
  137MOL0     N18377   0.360   1.843   9.942 -0.1174  0.5544 -0.2048
  137MOL0     C18378   0.315   1.970   9.961 -0.5641  0.3868 -0.5553
  137MOL0     C18379   0.313   1.978  10.098  0.3122  0.0238 -0.6139
  137MOL0     C18380   0.300   2.095  10.185 -0.9688  0.1889  0.2903
  137MOL0     C18381   0.429   2.174  10.216  0.5532  0.5167  0.3597
  137MOL0     C18382   0.541   2.089  10.270  0.3224 -0.5984  1.5657
  137MOL0     C18383   0.653   2.166  10.341  0.3313 -0.0364 -0.0351
  137MOL0     O18384   0.617   2.212  10.478  0.5892 -0.7627  0.0188
  137MOL0     C18385   0.588   2.113  10.568  0.5158  0.0084  0.0616
  137MOL0     C18386   0.644   1.984  10.579 -0.1366 -0.4405 -0.2661
  137MOL0     C18387   0.575   1.882  10.663 -1.5923 -0.4779 -0.3228
  137MOL0     C18388   0.491   1.920  10.765  0.7412  0.6698  0.4305
  137MOL0     C18389   0.435   1.821  10.856 -0.2829  0.1666  0.1523
  137MOL0     O18390   0.471   1.688  10.844 -0.3792 -0.0462  0.3894
  137MOL0     C18391   0.482   1.614  10.961 -0.7010 -0.4307  0.5247
  137MOL0     C18392   0.370   1.574  11.042  0.2781 -1.0222  0.0679
  137MOL0     C18393   0.390   1.488  11.150  0.6568  0.4544 -0.1267
  137MOL0     C18394   0.513   1.433  11.171 -0.7584 -0.5236 -0.4344
  137MOL0     O18395   0.546   1.342  11.267 -0.3877 -0.3907 -0.5211
  137MOL0     C18396   0.439   1.264  11.330  0.3994  0.0647 -1.2853
  137MOL0     C18397   0.480   1.212  11.472 -0.2702 -0.1192 -0.4848
  137MOL0     C18398   0.622   1.141  11.468  0.3058 -0.0440  0.5513
  137MOL0     C18399   0.653   1.078  11.609 -0.5198 -0.5652  0.8281
  137MOL0     C18400   0.658   1.181  11.730 -0.3506 -0.1830  0.1489
  137MOL0     C18401   0.695   1.104  11.858  0.8194 -0.7509  0.4658
  137MOL0     C18402   0.713   1.188  11.983  0.5612 -0.9761  0.5292
  137MOL0     C18403   0.770   1.121  12.102  0.1521 -0.7493 -0.6670
  137MOL0    Cl18404   0.946   1.087  12.094 -0.0094 -0.1420  0.2623
  137MOL0     C18405   0.619   1.467  11.090  0.5091 -0.0748  0.6159
  137MOL0     C18406   0.606   1.549  10.983  0.0322 -0.1746 -0.1509
  137MOL0     O18407   0.376   1.865  10.957 -0.6828  0.2962 -0.2558
  137MOL0     C18408   0.449   2.056  10.764  0.2177  0.2874 -0.4191
  137MOL0     C18409   0.492   2.150  10.663 -0.2127 -0.5818  0.0404
  137MOL0     N18410   0.326   1.850  10.152  0.0014 -0.7052  0.1690
  137MOL0     N18411   0.351   1.770  10.055 -0.0771  0.0295  0.8582
  137MOL0     C18412   1.433   1.731   9.453 -0.5365 -0.5148 -0.1192
  137MOL0     C18413   1.562   1.683   9.422 -0.2874  0.3504 -0.7353
  137MOL0     C18414   1.912   1.582   9.160  0.4888 -0.0267 -0.0775
  137MOL0     C18415   1.970   1.672   9.248 -0.5511 -0.6097 -0.0073
  137MOL0     C18416   2.110   1.706   9.231  0.0764  0.5191  0.6836
  137MOL0     C18417   2.181   1.646   9.129 -0.2362  0.0207  0.8738
  137MOL0     O18418   2.312   1.681   9.122 -0.4963  0.1284  0.4899
  137MOL0     C18419   2.409   1.605   9.052  0.9750 -0.1691 -0.4291
  137MOL0     C18420   2.459   1.671   8.916 -0.2067 -0.0873 -0.2402
  137MOL0     C18421   2.491   1.824   8.931  0.0047 -0.0503  0.6382
  137MOL0     C18422   2.558   1.876   8.807  0.5422 -0.1101 -0.7873
  137MOL0     C18423   2.549   2.019   8.822  0.1803 -0.3301 -0.0692
  137MOL0     C18424   2.543   2.140   8.851 -0.2921  1.0043 -0.9387
  137MOL0     C18425   2.120   1.562   9.041  1.0842  0.1456 -0.2797
  137MOL0     C18426   1.989   1.513   9.063  0.7170  0.2417  0.6390
  137MOL0     C18427   1.935   1.402   8.972 -0.4496  0.3272  1.0089
  137MOL0     H18428   1.490   1.487   9.169 -0.7616  0.1368 -0.5765
  137MOL0     H18429   1.249   1.586   9.213  0.4640  0.8319 -1.4078
  137MOL0     H18430   1.223   1.733   9.604  1.2251  0.3664 -1.1212
  137MOL0     H18431   1.162   1.879   9.552  1.5669 -0.1264 -1.0747
  137MOL0     H18432   1.013   1.617   9.573 -0.5218  0.1048 -1.4816
  137MOL0     H18433   0.935   1.761   9.495  2.4089  1.4828 -1.4141
  137MOL0     H18434   0.952   1.888   9.689  3.4069 -0.0961 -1.1522
  137MOL0     H18435   1.022   1.752   9.781  0.9203  0.9408 -0.9635
  137MOL0     H18436   0.806   1.620   9.729 -4.1749  0.1860  2.7666
  137MOL0     H18437   0.827   1.736   9.864 -1.2989  0.0390  0.2385
  137MOL0     H18438   0.721   1.921   9.710 -1.2557 -0.1723 -0.8565
  137MOL0     H18439   0.689   1.796   9.601  1.3305  2.5655 -1.0446
  137MOL0     H18440   0.571   1.686   9.833  1.5171  0.2994  1.5016
  137MOL0     H18441   0.577   1.847   9.890 -1.3891 -3.2389  2.2919
  137MOL0     H18442   0.459   1.739   9.631 -0.0933  0.2758 -0.7853
  137MOL0     H18443   0.459   1.906   9.664  1.5733 -0.9463  0.9046
  137MOL0     H18444   0.249   1.802   9.783 -0.4634 -1.7454  1.0885
  137MOL0     H18445   0.348   1.668   9.834 -1.7374 -0.0122 -2.4495
  137MOL0     H18446   0.302   2.050   9.889 -0.9862 -0.4803 -1.4674
  137MOL0     H18447   0.236   2.168  10.133  0.7101  0.3623 -1.6324
  137MOL0     H18448   0.254   2.075  10.282 -1.7586  1.2113  0.1454
  137MOL0     H18449   0.477   2.221  10.130 -2.4990 -0.4286 -2.0339
  137MOL0     H18450   0.397   2.250  10.288 -0.6631 -0.3537  0.7817
  137MOL0     H18451   0.581   2.036  10.183  0.3640  0.0704  1.1739
  137MOL0     H18452   0.502   2.017  10.344 -2.8251 -0.4819  0.2068
  137MOL0     H18453   0.699   2.244  10.280 -0.1444 -1.3981 -2.2383
  137MOL0     H18454   0.732   2.090  10.346  0.4673  0.0379 -1.0088
  137MOL0     H18455   0.729   1.971  10.513 -0.2170  1.5995 -0.8687
  137MOL0     H18456   0.616   1.784  10.642 -0.0179  0.1206 -0.2046
  137MOL0     H18457   0.268   1.601  11.015  0.1277 -0.5791  1.0367
  137MOL0     H18458   0.313   1.451  11.217  0.8097 -0.9533 -0.6986
  137MOL0     H18459   0.345   1.319  11.337  1.5087  1.8706  2.3425
  137MOL0     H18460   0.420   1.170  11.277 -2.2614 -1.7455  2.4540
  137MOL0     H18461   0.483   1.298  11.540  0.5628 -1.5841  1.4218
  137MOL0     H18462   0.408   1.142  11.517 -0.7710 -0.1054 -1.2557
  137MOL0     H18463   0.618   1.070  11.385  0.7592  1.2169 -0.5799
  137MOL0     H18464   0.708   1.208  11.455  0.4052 -0.3017 -0.1850
  137MOL0     H18465   0.749   1.028  11.620 -1.0256 -1.1061  3.4715
  137MOL0     H18466   0.577   1.000  11.621  0.5995 -1.6470  1.0753
  137MOL0     H18467   0.555   1.217  11.737 -0.2022 -0.0366  3.1067
  137MOL0     H18468   0.716   1.268  11.698  0.1013 -1.5137 -2.9618
  137MOL0     H18469   0.613   1.034  11.870  0.3906  0.0068  2.1975
  137MOL0     H18470   0.793   1.057  11.843  1.1165  0.2088 -0.8157
  137MOL0     H18471   0.608   1.212  12.000  0.6051  1.8663 -2.3839
  137MOL0     H18472   0.767   1.281  11.964 -0.7868  0.1130  1.7985
  137MOL0     H18473   0.757   1.188  12.187  1.1830  1.7196 -2.3577
  137MOL0     H18474   0.718   1.027  12.123  1.3744 -1.4062 -0.4524
  137MOL0     H18475   0.712   1.414  11.103  1.7914  2.0608  0.6138
  137MOL0     H18476   0.689   1.558  10.913  0.1361 -0.0513 -0.0112
  137MOL0     H18477   0.376   2.086  10.839  2.4489  3.4992  0.6970
  137MOL0     H18478   0.454   2.252  10.665  0.6144 -0.2687  1.5826
  137MOL0     H18479   1.411   1.789   9.542  2.2419 -0.5002  0.6258
  137MOL0     H18480   1.642   1.720   9.485 -2.4945  4.0934  0.1762
  137MOL0     H18481   1.917   1.723   9.327 -2.3196 -0.6057 -1.1556
  137MOL0     H18482   2.154   1.779   9.298  0.7332  1.3962 -0.6522
  137MOL0     H18483   2.376   1.502   9.037 -1.7396  0.4705  0.5960
  137MOL0     H18484   2.498   1.600   9.114  0.2638 -0.7402  0.5777
  137MOL0     H18485   2.386   1.652   8.837 -1.0096  1.0544  0.1851
  137MOL0     H18486   2.548   1.611   8.896  0.9647  2.3067 -2.8320
  137MOL0     H18487   2.560   1.850   9.012  1.5016  3.2118 -1.4695
  137MOL0     H18488   2.395   1.873   8.944 -1.9866 -2.6199 -2.5995
  137MOL0     H18489   2.665   1.854   8.796  0.3496 -1.7934  0.4176
  137MOL0     H18490   2.498   1.845   8.721 -4.2889  1.0140  1.7866
  137MOL0     H18491   2.539   2.233   8.903  2.3950 -1.6460  5.0069
  137MOL0     H18492   2.173   1.515   8.959 -4.3004  0.4959 -4.5218
  137MOL0     H18493   1.948   1.296   8.999  2.4444  0.0396 -1.0465
  137MOL0     H18494   1.830   1.415   8.945 -1.1086 -4.1524  0.5400
  137MOL0     H18495   1.984   1.417   8.876  0.7374  1.4690  1.7618
  138MOL0     O18496   0.262   5.561   0.834  0.3151  0.0519 -0.1183
  138MOL0     C18497   0.196   5.537   0.944 -0.9253 -0.0322  0.6093
  138MOL0     O18498   0.251   5.480   1.055 -0.3121  0.1382  0.1399
  138MOL0     C18499   0.361   5.390   1.050  0.5238  0.5005 -0.4889
  138MOL0     C18500   0.423   5.373   1.175 -0.3932 -0.1393 -0.1906
  138MOL0     C18501   0.513   5.262   1.195 -0.5662 -0.4860  0.3764
  138MOL0     C18502   0.556   5.188   1.085 -0.0628  0.1674 -0.3927
  138MOL0     O18503   0.657   5.097   1.111 -0.3320  0.1749 -0.6083
  138MOL0     C18504   0.688   4.996   1.011 -0.1269 -0.1772 -0.4419
  138MOL0     C18505   0.764   4.875   1.063 -0.0202  0.1469  0.4422
  138MOL0     C18506   0.911   4.910   1.091  0.4208  0.6903  0.0995
  138MOL0     C18507   0.975   4.791   1.172 -0.0376 -0.2909  0.0125
  138MOL0     C18508   1.125   4.819   1.206  0.4149 -0.0170  0.2467
  138MOL0     C18509   1.184   4.702   1.273  0.3482 -0.4522  0.8169
  138MOL0     C18510   1.322   4.742   1.318  0.2561  0.0910  0.2493
  138MOL0     C18511   1.387   4.643   1.413  0.2671  0.1155  0.8806
  138MOL0     N18512   1.383   4.692   1.550 -0.5374  0.0886  0.2803
  138MOL0     C18513   1.490   4.745   1.600 -0.5316 -0.2355 -0.6911
  138MOL0     C18514   1.456   4.760   1.731 -0.5369 -0.4940  0.6163
  138MOL0     C18515   1.552   4.822   1.832  0.5417 -1.5203 -0.5456
  138MOL0     C18516   1.591   4.970   1.801 -0.2505 -0.0205  0.0402
  138MOL0     C18517   1.687   5.021   1.917  0.0512 -0.2615  0.2051
  138MOL0     C18518   1.838   4.987   1.876 -0.5468 -0.6556  0.1587
  138MOL0     O18519   1.927   5.033   1.989 -0.2898  0.0257  0.3935
  138MOL0     C18520   1.946   4.959   2.106 -0.6962 -0.6170  0.5261
  138MOL0     C18521   2.020   5.011   2.208  0.4917  0.3432  0.1485
  138MOL0     C18522   2.056   4.930   2.327  0.7389  0.0260 -0.2884
  138MOL0     C18523   1.992   4.804   2.339  0.4990  0.6437  0.1755
  138MOL0     C18524   1.992   4.727   2.473  0.4250  0.4008  0.5065
  138MOL0     O18525   1.947   4.599   2.465  0.2783 -0.0194  0.4043
  138MOL0     C18526   1.924   4.515   2.573 -0.3459  0.3998  0.0783
  138MOL0     C18527   1.881   4.386   2.540 -0.1235  1.0595  0.5385
  138MOL0     C18528   1.863   4.277   2.624 -0.0667  0.4268 -0.2011
  138MOL0     C18529   1.878   4.295   2.767  0.2769 -0.0590 -0.1937
  138MOL0     O18530   1.858   4.201   2.863  0.2919 -0.2902 -0.3886
  138MOL0     C18531   1.745   4.111   2.846 -0.4687 -0.2923  0.7208
  138MOL0     C18532   1.611   4.177   2.883  0.0688  0.9399 -0.3405
  138MOL0     C18533   1.517   4.090   2.970  0.2118  0.7594 -0.7306
  138MOL0     C18534   1.471   3.960   2.906  0.2238 -0.0389 -0.7373
  138MOL0     C18535   1.334   3.902   2.955  0.2577  0.8941  0.7518
  138MOL0     C18536   1.360   3.831   3.083  0.4959 -0.3616 -0.0616
  138MOL0     C18537   1.243   3.741   3.126 -0.0996 -0.2242  0.4580
  138MOL0     C18538   1.278   3.688   3.266  0.2401  0.6874  0.1856
  138MOL0    Cl18539   1.447   3.629   3.286 -0.2890 -0.7469  0.2701
  138MOL0     C18540   1.918   4.427   2.802  0.3568  0.1755  0.0064
  138MOL0     C18541   1.943   4.531   2.713 -0.4078  0.5012  0.6144
  138MOL0     O18542   2.042   4.781   2.572  0.4924  0.1866 -0.0709
  138MOL0     C18543   1.910   4.755   2.231 -0.1734  0.7355 -0.0209
  138MOL0     C18544   1.892   4.832   2.123 -0.2306 -1.6239  0.0912
  138MOL0     N18545   1.326   4.708   1.741 -0.8372  0.4330  0.0357
  138MOL0     N18546   1.287   4.658   1.637  0.5591 -0.2618 -0.0989
  138MOL0     C18547   0.497   5.217   0.958 -0.3431  0.2189 -0.3677
  138MOL0     C18548   0.395   5.311   0.942 -0.7243  0.7786 -0.1580
  138MOL0     C18549   0.061   5.578   0.942  0.2926  0.7431 -0.8826
  138MOL0     C18550  -0.001   5.586   1.075 -0.0039  0.5221  0.1625
  138MOL0     C18551  -0.135   5.627   1.085  0.4039 -0.9859 -0.0488
  138MOL0     C18552  -0.220   5.661   0.973 -0.2563  0.0218  0.0031
  138MOL0     O18553  -0.350   5.699   0.984 -0.3375 -0.0730 -0.5847
  138MOL0     C18554  -0.381   5.772   1.098 -1.2701  0.5771 -0.4959
  138MOL0     C18555  -0.532   5.803   1.088  0.1323  0.5288 -1.4352
  138MOL0     C18556  -0.583   5.865   0.951  0.1615 -0.7877 -0.0886
  138MOL0     C18557  -0.665   5.762   0.863  0.3723  0.0084  0.0260
  138MOL0     C18558  -0.760   5.817   0.766 -0.4500  0.0307 -0.7286
  138MOL0     C18559  -0.843   5.869   0.698  0.0542  1.0990 -1.0616
  138MOL0     C18560  -0.158   5.640   0.848  0.7540  0.6580 -0.0859
  138MOL0     C18561  -0.026   5.604   0.823 -0.7895 -0.1541 -0.0270
  138MOL0     C18562   0.019   5.590   0.681 -0.1814  0.2703 -0.8502
  138MOL0     H18563   0.408   5.443   1.256  1.6150  2.2314 -1.6859
  138MOL0     H18564   0.549   5.260   1.297  0.7137 -0.2755 -0.0624
  138MOL0     H18565   0.585   4.969   0.984  0.5391 -3.4262 -0.1289
  138MOL0     H18566   0.744   5.029   0.924  1.6643 -3.8484 -0.8543
  138MOL0     H18567   0.757   4.793   0.991  0.3794  0.8106 -0.3726
  138MOL0     H18568   0.719   4.833   1.154 -0.0411 -2.2328 -0.5859
  138MOL0     H18569   0.918   5.002   1.150 -0.1667  0.8417 -0.0596
  138MOL0     H18570   0.973   4.915   1.000  2.1888  1.3065  1.2742
  138MOL0     H18571   0.909   4.772   1.257 -0.0767  0.0092  0.0517
  138MOL0     H18572   0.970   4.705   1.105  1.1036  0.7557 -1.5075
  138MOL0     H18573   1.192   4.843   1.123  2.6801 -1.2834  1.6074
  138MOL0     H18574   1.133   4.899   1.280  0.9062  0.0106  0.1691
  138MOL0     H18575   1.123   4.674   1.359 -2.1857 -0.2644 -0.8423
  138MOL0     H18576   1.187   4.614   1.209 -2.0640  0.9551 -1.4167
  138MOL0     H18577   1.320   4.831   1.380 -1.2995 -1.0143  1.8713
  138MOL0     H18578   1.391   4.767   1.237  5.6255 -2.4331  3.4454
  138MOL0     H18579   1.333   4.548   1.400 -0.6964  0.9160 -1.5326
  138MOL0     H18580   1.490   4.636   1.379 -0.2451  0.1251 -0.7652
  138MOL0     H18581   1.583   4.771   1.549 -0.5115 -2.9302 -2.2684
  138MOL0     H18582   1.509   4.810   1.932 -2.3442 -0.2656 -1.5398
  138MOL0     H18583   1.640   4.756   1.825  0.5782 -1.6188  0.5722
  138MOL0     H18584   1.640   4.980   1.704 -1.4475 -1.0405 -0.7010
  138MOL0     H18585   1.500   5.029   1.790  0.1363  0.5615 -0.1032
  138MOL0     H18586   1.666   4.971   2.012 -0.1090 -1.2192 -0.3344
  138MOL0     H18587   1.663   5.126   1.941 -0.8748 -0.1434 -1.1600
  138MOL0     H18588   1.875   5.042   1.789  2.5184 -2.5262  0.1192
  138MOL0     H18589   1.839   4.879   1.857 -2.0763 -0.8112  0.8265
  138MOL0     H18590   2.059   5.112   2.208 -1.6061  1.2266  1.9408
  138MOL0     H18591   2.120   4.971   2.404  4.0197 -1.4384 -2.0389
  138MOL0     H18592   1.846   4.365   2.440 -0.3374 -0.0517  0.8347
  138MOL0     H18593   1.811   4.189   2.589 -0.6416  0.2245  1.0817
  138MOL0     H18594   1.740   4.090   2.738  0.0959  1.3801  0.3450
  138MOL0     H18595   1.772   4.015   2.891  1.7456 -0.4298 -0.7212
  138MOL0     H18596   1.633   4.272   2.932  3.4657  1.6406 -2.8069
  138MOL0     H18597   1.554   4.207   2.795 -1.5136  1.1412  0.7222
  138MOL0     H18598   1.565   4.065   3.065 -0.4264  0.0397 -0.5910
  138MOL0     H18599   1.423   4.146   2.981  0.9901  1.9507  0.0795
  138MOL0     H18600   1.558   3.893   2.912  1.4617  1.5978  0.4686
  138MOL0     H18601   1.446   3.970   2.800  0.2542  1.7630 -0.5945
  138MOL0     H18602   1.307   3.832   2.875 -1.3443  2.0584  0.2379
  138MOL0     H18603   1.265   3.981   2.984 -0.9512 -0.8080  2.7945
  138MOL0     H18604   1.450   3.771   3.075  1.5739  1.1049  0.5903
  138MOL0     H18605   1.368   3.902   3.167  1.0199 -0.7456  0.2182
  138MOL0     H18606   1.255   3.658   3.055  4.7815  0.0692  0.6129
  138MOL0     H18607   1.146   3.790   3.115  0.6102  1.5204  1.6089
  138MOL0     H18608   1.266   3.766   3.341  0.7772  0.8085  0.1541
  138MOL0     H18609   1.208   3.609   3.295 -0.4206  0.0513 -2.7422
  138MOL0     H18610   1.930   4.431   2.910 -2.5058 -2.0661  0.5189
  138MOL0     H18611   1.983   4.624   2.753  0.5144  0.0199  0.8389
  138MOL0     H18612   1.879   4.651   2.247  2.8529 -0.5973 -2.0462
  138MOL0     H18613   1.826   4.805   2.040 -1.2875 -0.0424  0.3685
  138MOL0     H18614   0.528   5.152   0.877 -0.4254  1.6922 -1.6208
  138MOL0     H18615   0.349   5.324   0.844  0.3960 -0.3560 -0.8636
  138MOL0     H18616   0.042   5.544   1.166 -1.4835 -1.5663 -0.0360
  138MOL0     H18617  -0.176   5.617   1.185 -2.8541 -3.2727 -1.4611
  138MOL0     H18618  -0.326   5.866   1.110 -0.3904  0.7430 -4.3445
  138MOL0     H18619  -0.372   5.702   1.181 -2.4117 -1.1121 -1.7270
  138MOL0     H18620  -0.556   5.869   1.172 -0.7686 -2.4685  0.8173
  138MOL0     H18621  -0.595   5.716   1.106  1.3053 -0.0170  0.2115
  138MOL0     H18622  -0.497   5.909   0.898  0.6923 -0.7930  0.7521
  138MOL0     H18623  -0.649   5.945   0.985 -0.9100 -1.8149  0.3251
  138MOL0     H18624  -0.592   5.715   0.796 -0.0244 -1.1137  0.3594
  138MOL0     H18625  -0.709   5.688   0.931 -0.7235  2.8585  2.6131
  138MOL0     H18626  -0.917   5.918   0.637 -2.3992  0.9511  1.5381
  138MOL0     H18627  -0.224   5.647   0.762  1.0318 -1.7468 -0.5581
  138MOL0     H18628  -0.066   5.600   0.613  1.2389 -0.8956 -2.8953
  138MOL0     H18629   0.102   5.659   0.665  1.5419 -1.5063  0.0776
  138MOL0     H18630   0.050   5.486   0.669  0.9934  0.6678 -1.3132
  139MOL0     O18631   4.060   3.178   8.416 -0.6674 -0.0350 -0.1302
  139MOL0     C18632   4.135   3.146   8.509  0.6296 -0.4389 -1.4002
  139MOL0     O18633   4.092   3.087   8.620  0.3970 -0.4906 -0.0702
  139MOL0     C18634   3.963   3.064   8.662 -0.8473 -1.0226 -0.8971
  139MOL0     C18635   3.838   3.114   8.609  0.3079  0.7294 -0.0694
  139MOL0     C18636   3.714   3.085   8.665 -0.2512  0.2702 -0.0763
  139MOL0     C18637   3.707   3.024   8.788  0.4826 -0.3277 -0.0639
  139MOL0     O18638   3.583   3.001   8.836  0.0510  0.1880  0.1531
  139MOL0     C18639   3.580   3.026   8.977  0.0649 -0.9266  1.1134
  139MOL0     C18640   3.437   3.054   9.011 -0.7510 -0.5268  0.7268
  139MOL0     C18641   3.427   3.206   9.024 -0.6239  0.1635  0.3776
  139MOL0     C18642   3.279   3.244   9.042 -1.1262 -0.4956  0.6858
  139MOL0     C18643   3.278   3.389   9.103  0.4574  0.2832 -0.0765
  139MOL0     C18644   3.304   3.513   9.007  0.5760 -0.0045  0.0200
  139MOL0     C18645   3.228   3.507   8.867 -0.6398 -0.0978  0.7888
  139MOL0     C18646   3.230   3.643   8.811 -0.0515  0.5612 -0.4582
  139MOL0     N18647   3.180   3.635   8.668 -0.2120  0.3536 -0.2499
  139MOL0     C18648   3.225   3.559   8.575 -0.4131  0.4714  0.4462
  139MOL0     C18649   3.149   3.597   8.464  0.6768 -0.6171 -0.5768
  139MOL0     C18650   3.158   3.537   8.330  0.4593  1.6168  0.2658
  139MOL0     C18651   3.033   3.527   8.248  0.1948 -0.2070  0.2539
  139MOL0     C18652   3.076   3.463   8.115 -0.2616  0.1466  0.0105
  139MOL0     C18653   2.959   3.468   8.010  0.0433 -0.0598 -0.5534
  139MOL0     O18654   2.854   3.366   8.022  0.1651 -0.1690 -0.0608
  139MOL0     C18655   2.894   3.241   7.990 -0.4565  0.1293 -0.0078
  139MOL0     C18656   3.019   3.205   7.936  0.3826  0.1067  1.0712
  139MOL0     C18657   3.039   3.071   7.914 -0.4445  0.0102 -0.1622
  139MOL0     C18658   2.927   2.978   7.910  0.4187  0.2596  0.0819
  139MOL0     C18659   2.940   2.842   7.862 -1.3013  0.7062  0.8925
  139MOL0     O18660   3.070   2.791   7.867  0.2127  0.0237 -0.0133
  139MOL0     C18661   3.081   2.651   7.855 -0.1405 -0.0055 -0.4075
  139MOL0     C18662   3.013   2.563   7.943  0.0006 -0.5094 -0.6107
  139MOL0     C18663   3.005   2.428   7.921 -0.3602 -0.0612 -0.0623
  139MOL0     C18664   3.084   2.366   7.831 -0.2263  0.5267  0.1487
  139MOL0     O18665   3.085   2.227   7.821  0.2349  0.0206 -0.3095
  139MOL0     C18666   3.094   2.165   7.691  0.2929 -0.9476 -0.6392
  139MOL0     C18667   3.087   2.016   7.714 -0.1989  0.2622  0.9083
  139MOL0     C18668   2.966   1.968   7.782  0.5445 -0.5417  0.0526
  139MOL0     C18669   2.835   1.985   7.709  0.5657 -0.1310 -0.0953
  139MOL0     C18670   2.721   1.888   7.754  0.4583 -0.4832 -0.1573
  139MOL0     C18671   2.675   1.934   7.898  0.6046  0.6860  0.1765
  139MOL0     C18672   2.590   1.823   7.971  0.3029 -0.1209 -0.8853
  139MOL0     C18673   2.469   1.773   7.893  0.9266  0.0379 -0.3375
  139MOL0    Cl18674   2.369   1.920   7.848  0.4669  0.1091 -0.4759
  139MOL0     C18675   3.149   2.445   7.735  0.4875 -1.2164 -0.0904
  139MOL0     C18676   3.150   2.590   7.748  0.4276 -0.2509 -0.1293
  139MOL0     O18677   2.837   2.783   7.822  0.7699  0.5900  0.8261
  139MOL0     C18678   2.807   3.021   7.964  0.1488 -0.1362  0.4582
  139MOL0     C18679   2.787   3.150   8.011 -0.2638  0.7094  0.2715
  139MOL0     N18680   3.048   3.687   8.504 -0.6787  0.0738  0.6412
  139MOL0     N18681   3.078   3.713   8.629  0.2777 -0.3049  0.3711
  139MOL0     C18682   3.833   2.977   8.854  0.0514  0.2167 -0.6358
  139MOL0     C18683   3.955   3.001   8.789  0.0317  0.8404  0.0439
  139MOL0     C18684   4.286   3.176   8.517 -0.4028  0.0191  0.2460
  139MOL0     C18685   4.363   3.108   8.613 -0.6506  0.2359  0.2326
  139MOL0     C18686   4.500   3.139   8.629  0.7261  0.6640 -0.0391
  139MOL0     C18687   4.566   3.230   8.543  0.0002  0.0853 -0.8269
  139MOL0     O18688   4.701   3.250   8.544  0.3946  0.3964  0.2232
  139MOL0     C18689   4.736   3.322   8.664  0.0644 -1.0046 -0.5056
  139MOL0     C18690   4.881   3.311   8.694 -0.8539  0.4033 -0.5618
  139MOL0     C18691   4.928   3.428   8.783 -1.2548  0.9354  0.7467
  139MOL0     C18692   5.075   3.422   8.809 -0.6260  0.4934 -0.8798
  139MOL0     C18693   5.098   3.446   8.946  0.5933  0.1356 -0.2887
  139MOL0     C18694   5.104   3.476   9.067 -1.1575  1.2175  0.3944
  139MOL0     C18695   4.487   3.287   8.440  0.0788 -1.2718  0.1419
  139MOL0     C18696   4.348   3.275   8.433  0.1282  0.1334 -0.0572
  139MOL0     C18697   4.280   3.354   8.320  0.0234  0.5590  0.4681
  139MOL0     H18698   3.836   3.165   8.513  1.4747  0.7720 -0.0824
  139MOL0     H18699   3.630   3.111   8.601  0.1069  0.0825 -0.6247
  139MOL0     H18700   3.614   2.931   9.019 -1.1326 -1.6867  0.4367
  139MOL0     H18701   3.644   3.106   9.016  1.3558  0.0470 -2.5805
  139MOL0     H18702   3.408   3.010   9.107 -0.5843  2.1219  2.0588
  139MOL0     H18703   3.372   3.027   8.927 -1.1915  6.5396 -1.8120
  139MOL0     H18704   3.466   3.258   8.936 -0.8754 -1.3439 -0.6712
  139MOL0     H18705   3.485   3.220   9.116 -0.2587 -2.6274  0.6689
  139MOL0     H18706   3.217   3.232   8.953 -0.2906  0.3919 -0.0409
  139MOL0     H18707   3.230   3.169   9.105 -0.0161 -4.8593 -3.1414
  139MOL0     H18708   3.178   3.408   9.143  0.8163  2.3543 -0.0336
  139MOL0     H18709   3.349   3.390   9.186  1.8349 -3.0721 -1.0661
  139MOL0     H18710   3.286   3.605   9.062  0.5486 -2.2506  4.1814
  139MOL0     H18711   3.411   3.510   8.982  0.6145  1.1567  0.0068
  139MOL0     H18712   3.126   3.473   8.887 -0.1768 -0.2901  3.1961
  139MOL0     H18713   3.279   3.439   8.799 -1.9470 -1.3124  0.9857
  139MOL0     H18714   3.165   3.707   8.871 -0.5728  0.3923 -0.8322
  139MOL0     H18715   3.335   3.671   8.815  0.0591  0.2065 -0.7246
  139MOL0     H18716   3.304   3.484   8.577 -0.5340  0.3475  0.6468
  139MOL0     H18717   3.252   3.574   8.287 -0.3008  4.1060  0.6397
  139MOL0     H18718   3.183   3.432   8.352 -0.0211  1.3840 -0.2633
  139MOL0     H18719   2.966   3.459   8.302 -0.5944  1.1327  1.0298
  139MOL0     H18720   2.968   3.615   8.245  2.8981  1.8814 -0.6391
  139MOL0     H18721   3.091   3.356   8.130 -2.1228 -0.6307 -2.8009
  139MOL0     H18722   3.160   3.517   8.069  0.5386 -1.4830 -0.4973
  139MOL0     H18723   3.006   3.460   7.912  2.4821 -1.1388  0.6148
  139MOL0     H18724   2.911   3.566   8.015  0.6193  0.2407 -0.8957
  139MOL0     H18725   3.110   3.263   7.930  0.5273  0.0590  2.4744
  139MOL0     H18726   3.134   3.044   7.868 -0.8627 -0.7140 -0.6117
  139MOL0     H18727   2.949   2.593   8.025  1.8102  0.0640  0.6500
  139MOL0     H18728   2.943   2.381   7.997  0.0135  1.1318  1.0084
  139MOL0     H18729   3.021   2.202   7.619  1.9724  2.0199 -0.9796
  139MOL0     H18730   3.189   2.182   7.639  0.4915  2.4686  0.5747
  139MOL0     H18731   3.110   1.969   7.618  0.9461  4.4141 -1.0631
  139MOL0     H18732   3.166   1.983   7.782  1.0883 -3.1883 -1.9716
  139MOL0     H18733   2.987   1.864   7.811  1.1198 -0.0934  1.2885
  139MOL0     H18734   2.960   2.020   7.878  2.3852  1.0351 -0.6085
  139MOL0     H18735   2.868   1.958   7.608 -0.4145  2.6390 -1.2709
  139MOL0     H18736   2.796   2.086   7.692 -1.8795 -1.2282 -1.7458
  139MOL0     H18737   2.757   1.785   7.754  2.8736  0.2825 -1.8828
  139MOL0     H18738   2.636   1.895   7.685 -0.4334 -1.7918  0.7687
  139MOL0     H18739   2.764   1.948   7.961  0.5109 -0.0168  0.4738
  139MOL0     H18740   2.612   2.023   7.897 -0.7990 -0.2892 -0.7833
  139MOL0     H18741   2.560   1.866   8.067  3.2284 -0.8418  0.4640
  139MOL0     H18742   2.659   1.740   7.990  1.0119  0.2671 -1.6464
  139MOL0     H18743   2.515   1.727   7.805  3.7700  0.1323  0.9995
  139MOL0     H18744   2.404   1.698   7.939  0.4158 -0.1251 -1.3039
  139MOL0     H18745   3.201   2.390   7.657 -0.8391 -2.3938 -0.1955
  139MOL0     H18746   3.200   2.650   7.673  1.7343  0.9376  1.6221
  139MOL0     H18747   2.730   2.947   7.982 -1.2056  0.8045 -1.1241
  139MOL0     H18748   2.699   3.191   8.060 -1.9561  1.0115 -2.7689
  139MOL0     H18749   3.821   2.940   8.955  1.3484 -0.1380 -0.6001
  139MOL0     H18750   4.050   2.984   8.839  0.9833  1.8035 -1.3755
  139MOL0     H18751   4.324   3.031   8.679  3.1019 -0.7697  1.5273
  139MOL0     H18752   4.561   3.080   8.697  0.2721  1.6272  1.2364
  139MOL0     H18753   4.678   3.299   8.754  3.1301  0.1956  1.9698
  139MOL0     H18754   4.705   3.424   8.642  3.9979  0.3321 -0.6633
  139MOL0     H18755   4.931   3.324   8.598  3.4595  0.7846  1.4857
  139MOL0     H18756   4.893   3.213   8.741  2.6549  0.8828 -0.1855
  139MOL0     H18757   4.873   3.419   8.878  1.7097  2.0021  2.7088
  139MOL0     H18758   4.896   3.522   8.738 -1.5507  0.9748  1.0363
  139MOL0     H18759   5.114   3.321   8.792  2.7368  1.4731  0.1048
  139MOL0     H18760   5.122   3.496   8.743 -0.3699 -0.1888 -1.4623
  139MOL0     H18761   5.126   3.493   9.170  0.4520 -0.5434  0.3858
  139MOL0     H18762   4.544   3.340   8.365 -0.9937 -1.3338 -0.7327
  139MOL0     H18763   4.179   3.384   8.351  0.3269 -0.1256  2.2565
  139MOL0     H18764   4.341   3.438   8.287 -2.0651  1.6402 -0.9185
  139MOL0     H18765   4.277   3.287   8.234 -4.7520 -1.2488  1.6954
  140MOL0     O18766   2.385   0.500   8.028  0.7129 -0.2136 -0.6256
  140MOL0     C18767   2.277   0.486   7.975 -0.2645 -0.7448  0.4984
  140MOL0     O18768   2.157   0.532   8.025 -0.3662 -0.7370 -0.5421
  140MOL0     C18769   2.135   0.572   8.160 -0.9934 -0.7331 -0.3742
  140MOL0     C18770   2.004   0.633   8.187  0.6721  0.3275  0.2869
  140MOL0     C18771   1.969   0.663   8.322 -0.1561 -1.0637  0.0209
  140MOL0     C18772   2.058   0.650   8.428  0.3844 -1.0335 -0.7295
  140MOL0     O18773   2.004   0.698   8.550 -0.6731  0.2804  0.6874
  140MOL0     C18774   2.083   0.790   8.621 -0.5061 -0.1626 -0.4143
  140MOL0     C18775   1.999   0.855   8.730 -0.1942  0.5863  1.1655
  140MOL0     C18776   1.889   0.946   8.677 -1.2080  0.3151  0.7144
  140MOL0     C18777   1.808   1.005   8.794 -0.8109  0.8353 -0.2415
  140MOL0     C18778   1.720   1.124   8.746 -0.7294  0.7669  0.4982
  140MOL0     C18779   1.631   1.182   8.860  0.2620  0.1780  0.6261
  140MOL0     C18780   1.545   1.299   8.803  0.3591 -0.1584 -0.0695
  140MOL0     C18781   1.478   1.364   8.919 -0.3567  0.0152 -0.8505
  140MOL0     N18782   1.397   1.480   8.882  0.1858 -0.2592 -0.0916
  140MOL0     C18783   1.425   1.611   8.906 -0.0057 -0.0380 -0.5519
  140MOL0     C18784   1.302   1.673   8.900 -0.5364 -0.5666 -0.5122
  140MOL0     C18785   1.279   1.826   8.904  0.6033 -0.0322 -0.5373
  140MOL0     C18786   1.131   1.862   8.929  0.2047  0.6558  0.5623
  140MOL0     C18787   1.091   1.812   9.079  1.2042 -0.4986  0.3870
  140MOL0     C18788   0.950   1.863   9.118 -0.7331  0.6440  0.5168
  140MOL0     O18789   0.949   2.009   9.145  0.6277  0.6138  0.0414
  140MOL0     C18790   0.830   2.043   9.206 -0.7467  0.6145  0.1380
  140MOL0     C18791   0.737   2.114   9.141 -0.0519 -0.2093  0.4664
  140MOL0     C18792   0.622   2.157   9.203  0.4177 -0.2478 -0.2776
  140MOL0     C18793   0.601   2.134   9.337 -0.5489  0.4488  0.5167
  140MOL0     C18794   0.498   2.201   9.421  1.1277  0.6065  0.6626
  140MOL0     O18795   0.422   2.297   9.352 -1.3287  0.0636  0.6773
  140MOL0     C18796   0.314   2.365   9.401 -0.7138  0.6160  0.0605
  140MOL0     C18797   0.340   2.502   9.398 -0.4300 -0.3823 -0.5723
  140MOL0     C18798   0.246   2.590   9.459 -0.4931  0.3792  0.2094
  140MOL0     C18799   0.128   2.543   9.515 -0.7301 -0.1435  0.0404
  140MOL0     O18800   0.042   2.628   9.572 -0.3595 -0.1279 -0.0467
  140MOL0     C18801   0.080   2.753   9.640 -0.1849  0.3259  0.6069
  140MOL0     C18802  -0.031   2.800   9.735 -0.9891  1.1296  0.2316
  140MOL0     C18803  -0.064   2.693   9.835 -0.2367 -0.3667  0.8003
  140MOL0     C18804  -0.130   2.770   9.953 -1.2973 -0.4509  0.1841
  140MOL0     C18805  -0.161   2.671  10.068 -0.1612  0.2951 -0.4770
  140MOL0     C18806  -0.042   2.606  10.135 -0.3189 -0.0474 -0.3062
  140MOL0     C18807  -0.084   2.542  10.263 -0.7015  0.3697 -0.3557
  140MOL0     C18808   0.052   2.498  10.338 -0.0654  0.5131 -0.1715
  140MOL0    Cl18809   0.011   2.411  10.485  0.4119  0.5112  0.1022
  140MOL0     C18810   0.109   2.407   9.515  0.5156 -0.9291 -0.3080
  140MOL0     C18811   0.196   2.317   9.454  1.1129 -0.2587 -0.2089
  140MOL0     O18812   0.481   2.175   9.538 -0.4124  0.1150 -0.0264
  140MOL0     C18813   0.696   2.062   9.398  0.0932  0.7329 -0.5282
  140MOL0     C18814   0.807   2.008   9.335  0.5359 -0.8058  0.0396
  140MOL0     N18815   1.209   1.584   8.856 -1.0124 -0.2110  0.4470
  140MOL0     N18816   1.269   1.474   8.844 -0.3594  0.3442  0.3416
  140MOL0     C18817   2.184   0.588   8.399  0.3469 -0.1195 -0.2758
  140MOL0     C18818   2.224   0.552   8.266  0.4009 -0.1218 -0.5562
  140MOL0     C18819   2.273   0.382   7.872 -0.2992  1.1635 -0.2858
  140MOL0     C18820   2.177   0.276   7.893 -0.7872  0.0644 -0.0683
  140MOL0     C18821   2.158   0.173   7.794 -0.2988 -0.4332  0.8286
  140MOL0     C18822   2.245   0.173   7.685  0.2678 -0.1952  0.1358
  140MOL0     O18823   2.245   0.085   7.580  0.0195 -0.0030 -0.6479
  140MOL0     C18824   2.241  -0.050   7.613  0.4340  0.5756 -0.5246
  140MOL0     C18825   2.180  -0.134   7.504 -0.3947 -0.0738 -0.7106
  140MOL0     C18826   2.244  -0.112   7.366  0.8275  0.3400 -0.9723
  140MOL0     C18827   2.386  -0.169   7.369  0.1646  1.3142 -0.4541
  140MOL0     C18828   2.419  -0.192   7.230 -0.7025  0.1238  0.4924
  140MOL0     C18829   2.447  -0.200   7.106 -0.9039  0.2447  0.5657
  140MOL0     C18830   2.344   0.262   7.674 -1.2400  0.6002 -0.4049
  140MOL0     C18831   2.351   0.381   7.755 -0.2696  0.0785 -0.3255
  140MOL0     C18832   2.465   0.486   7.733 -0.0459  0.4512  0.5395
  140MOL0     H18833   1.929   0.646   8.110  2.1477  1.3950 -1.0320
  140MOL0     H18834   1.872   0.709   8.336  0.1930 -1.1999  4.0382
  140MOL0     H18835   2.158   0.736   8.680 -0.3019  2.7885  2.2833
  140MOL0     H18836   2.128   0.866   8.557 -1.8522  0.8667 -0.1658
  140MOL0     H18837   2.069   0.908   8.795  3.6828 -0.9004 -1.4471
  140MOL0     H18838   1.946   0.779   8.788  2.1745  0.1341  2.9009
  140MOL0     H18839   1.823   0.888   8.612 -1.6092  2.6518 -1.0966
  140MOL0     H18840   1.934   1.032   8.626  2.9326 -1.2083  1.3833
  140MOL0     H18841   1.742   0.927   8.834 -0.2319  1.2981  1.7172
  140MOL0     H18842   1.884   1.039   8.865 -0.3286  3.9468 -2.0725
  140MOL0     H18843   1.779   1.211   8.717  2.5300 -1.3375  0.3360
  140MOL0     H18844   1.655   1.087   8.666  1.7246 -1.1456 -0.7368
  140MOL0     H18845   1.569   1.102   8.901  0.0645 -0.5783 -1.0780
  140MOL0     H18846   1.707   1.216   8.932 -0.4895 -1.7401  2.4227
  140MOL0     H18847   1.478   1.256   8.727  1.1122  2.1279 -2.1745
  140MOL0     H18848   1.607   1.375   8.756  0.7852 -0.3255  0.2231
  140MOL0     H18849   1.419   1.291   8.974  1.6210 -1.8584 -1.0675
  140MOL0     H18850   1.547   1.409   8.992 -1.9861  1.6302 -0.2490
  140MOL0     H18851   1.517   1.658   8.940  1.5287 -4.9886  3.4180
  140MOL0     H18852   1.337   1.868   8.987 -2.6997  0.8830  1.4747
  140MOL0     H18853   1.318   1.880   8.818 -0.1549 -0.4914 -1.1832
  140MOL0     H18854   1.111   1.970   8.927 -1.4687  0.4012  1.6024
  140MOL0     H18855   1.052   1.821   8.866  0.3155  1.3609 -0.0544
  140MOL0     H18856   1.157   1.849   9.158 -0.9391 -0.1101  2.1056
  140MOL0     H18857   1.095   1.703   9.073  1.6888 -0.4846  0.3831
  140MOL0     H18858   0.925   1.804   9.206  0.4775  0.9477  1.0816
  140MOL0     H18859   0.884   1.836   9.035 -1.0086 -0.0506  0.9585
  140MOL0     H18860   0.758   2.151   9.041 -1.7584  0.6159  0.3882
  140MOL0     H18861   0.555   2.221   9.147 -1.3115  0.8925  2.8420
  140MOL0     H18862   0.430   2.538   9.349 -0.6470 -1.5985 -1.9469
  140MOL0     H18863   0.277   2.694   9.458  5.0002 -0.9453 -0.5726
  140MOL0     H18864   0.175   2.740   9.693  0.5431  2.4389 -0.0860
  140MOL0     H18865   0.089   2.826   9.559 -2.4142  0.7068  0.6322
  140MOL0     H18866  -0.002   2.900   9.767 -0.0997  0.9908 -0.0977
  140MOL0     H18867  -0.124   2.812   9.680 -2.3596 -0.4486  2.0422
  140MOL0     H18868  -0.147   2.627   9.810 -2.4373  1.7367  2.1026
  140MOL0     H18869   0.033   2.652   9.866  0.5560  1.8661  1.5075
  140MOL0     H18870  -0.222   2.819   9.918 -1.0973  0.9714  1.5669
  140MOL0     H18871  -0.066   2.848   9.994  0.1515 -1.8109  0.6380
  140MOL0     H18872  -0.243   2.602  10.041  1.8082 -1.8910 -1.2313
  140MOL0     H18873  -0.200   2.739  10.144  2.1581  2.3745 -1.0460
  140MOL0     H18874   0.003   2.525  10.077  1.0645 -0.3415  1.1054
  140MOL0     H18875   0.045   2.668  10.158  1.5474 -2.0266 -1.6614
  140MOL0     H18876  -0.151   2.458  10.244 -1.0914  0.6749 -0.3494
  140MOL0     H18877  -0.150   2.607  10.320 -1.9909 -0.3116 -1.0187
  140MOL0     H18878   0.095   2.427  10.267 -3.6954 -2.4017  0.1863
  140MOL0     H18879   0.120   2.581  10.359 -0.4507  1.0197 -0.8951
  140MOL0     H18880   0.013   2.377   9.556 -0.7535  0.7285 -1.9091
  140MOL0     H18881   0.182   2.209   9.458  0.1836 -0.1050  1.1323
  140MOL0     H18882   0.690   2.043   9.505  0.2209  0.1024 -0.6333
  140MOL0     H18883   0.884   1.962   9.396  0.5316 -0.5312  0.2577
  140MOL0     H18884   2.258   0.581   8.478 -0.5966 -1.8934  0.5125
  140MOL0     H18885   2.320   0.504   8.250  0.3395 -0.2528 -0.5301
  140MOL0     H18886   2.121   0.276   7.987  2.2520  2.0415  1.9191
  140MOL0     H18887   2.082   0.095   7.796  0.1205 -0.8793 -0.1530
  140MOL0     H18888   2.175  -0.072   7.697  1.3198  0.8759  0.2637
  140MOL0     H18889   2.343  -0.090   7.621 -0.3603 -2.4259 -3.2036
  140MOL0     H18890   2.070  -0.131   7.510 -0.5075  0.1457 -2.4332
  140MOL0     H18891   2.184  -0.240   7.532 -0.9333 -0.0408 -0.4876
  140MOL0     H18892   2.246  -0.012   7.321 -0.2441  1.8955  2.1394
  140MOL0     H18893   2.191  -0.187   7.307 -0.8573  2.3141 -2.1355
  140MOL0     H18894   2.455  -0.093   7.406  0.6240  0.4776  0.4428
  140MOL0     H18895   2.396  -0.261   7.427  1.5395  0.1890 -2.3634
  140MOL0     H18896   2.478  -0.202   7.004 -3.6684  1.4704 -0.3738
  140MOL0     H18897   2.407   0.264   7.585  0.8081 -0.5791  0.9351
  140MOL0     H18898   2.479   0.500   7.626  1.5256 -2.3514  0.2989
  140MOL0     H18899   2.428   0.579   7.779  0.2067  0.3719  0.9070
  140MOL0     H18900   2.563   0.457   7.773  2.1987  1.0629 -3.8830
  141MOL0     O18901   2.294   0.600   1.623  0.0691 -1.1736 -0.1952
  141MOL0     C18902   2.324   0.650   1.514  1.1682  0.2036  1.2214
  141MOL0     O18903   2.344   0.782   1.500 -0.3375  0.7936  0.5249
  141MOL0     C18904   2.401   0.831   1.382 -0.1929 -0.7274  0.1461
  141MOL0     C18905   2.323   0.916   1.302  0.1167  0.0508 -0.7134
  141MOL0     C18906   2.376   0.977   1.190  0.5001 -0.3656  0.5499
  141MOL0     C18907   2.509   0.950   1.153  0.3394  0.2813  0.3950
  141MOL0     O18908   2.549   1.015   1.038  0.0607  1.0899 -0.5104
  141MOL0     C18909   2.666   0.986   0.957 -0.1620  0.9416  0.2507
  141MOL0     C18910   2.640   1.026   0.820 -0.3475  0.6313 -0.1572
  141MOL0     C18911   2.615   1.173   0.800  0.3330  0.0911 -0.4561
  141MOL0     C18912   2.623   1.208   0.654  0.4701 -0.5401  1.3019
  141MOL0     C18913   2.567   1.353   0.624 -0.5122  0.4255  0.5467
  141MOL0     C18914   2.600   1.389   0.482  0.9585 -0.4451  0.4535
  141MOL0     C18915   2.751   1.398   0.448  0.5723  0.6935 -0.1868
  141MOL0     C18916   2.822   1.514   0.511  0.1820  0.0806 -0.0076
  141MOL0     N18917   2.944   1.545   0.438  0.6138  0.3946  0.3547
  141MOL0     C18918   3.056   1.459   0.435  0.1452  0.7217  0.7514
  141MOL0     C18919   3.143   1.531   0.370  0.2346 -0.2467  0.5176
  141MOL0     C18920   3.283   1.495   0.347 -0.1952  0.4747 -0.2578
  141MOL0     C18921   3.300   1.406   0.223  0.1942 -0.0126  0.6999
  141MOL0     C18922   3.235   1.460   0.102  0.5267 -0.2913  0.9513
  141MOL0     C18923   3.294   1.583   0.035 -0.8094 -0.2004 -0.4314
  141MOL0     O18924   3.442   1.571   0.012  0.1721 -1.2619 -1.1617
  141MOL0     C18925   3.511   1.672  -0.050  0.1103 -0.7480  0.0532
  141MOL0     C18926   3.634   1.635  -0.094 -0.4573  0.0571  0.1780
  141MOL0     C18927   3.712   1.726  -0.175  0.2001  0.0519  0.2024
  141MOL0     C18928   3.681   1.860  -0.193  0.8937  0.2829 -1.0937
  141MOL0     C18929   3.757   1.958  -0.268 -1.2129 -0.3338  0.1654
  141MOL0     O18930   3.864   1.901  -0.332 -0.0781  0.1280  0.5926
  141MOL0     C18931   3.962   1.981  -0.379 -1.0304 -0.7356 -1.1661
  141MOL0     C18932   4.088   1.931  -0.372 -0.7453  0.6155 -0.1056
  141MOL0     C18933   4.198   2.003  -0.425 -1.3880 -0.7788  0.1753
  141MOL0     C18934   4.175   2.121  -0.508 -0.5646  0.3722 -1.1543
  141MOL0     O18935   4.271   2.197  -0.560 -0.1075 -0.4921 -0.8628
  141MOL0     C18936   4.412   2.156  -0.560  0.1503 -0.2856 -0.6643
  141MOL0     C18937   4.487   2.275  -0.625  0.3910 -0.1381 -0.0284
  141MOL0     C18938   4.475   2.414  -0.558 -0.8057 -0.4189 -0.5086
  141MOL0     C18939   4.457   2.406  -0.400  0.3743 -0.2685 -1.3551
  141MOL0     C18940   4.489   2.528  -0.317 -0.4903 -0.5442 -0.4254
  141MOL0     C18941   4.638   2.571  -0.301  0.2173 -0.2883  0.9887
  141MOL0     C18942   4.642   2.707  -0.230  0.2051  0.9575  0.2356
  141MOL0     C18943   4.769   2.785  -0.268 -0.5087 -0.0186 -0.1494
  141MOL0    Cl18944   4.910   2.692  -0.207  0.2352  0.0391  0.4446
  141MOL0     C18945   4.042   2.148  -0.536  0.5069 -0.1872 -0.4948
  141MOL0     C18946   3.938   2.073  -0.477  0.2246 -0.7727 -0.1134
  141MOL0     O18947   3.728   2.075  -0.268 -0.7446  0.1622  0.5996
  141MOL0     C18948   3.546   1.894  -0.137  0.1266 -0.1585  0.4870
  141MOL0     C18949   3.464   1.808  -0.074  0.7191 -0.2854 -0.3790
  141MOL0     N18950   3.093   1.651   0.321 -0.1713 -0.3025  0.0378
  141MOL0     N18951   2.967   1.654   0.366 -0.0548 -0.5028  0.1971
  141MOL0     C18952   2.586   0.871   1.236  0.2738  0.7532  0.1345
  141MOL0     C18953   2.535   0.821   1.351  0.2408 -0.4514 -0.0406
  141MOL0     C18954   2.320   0.553   1.408 -1.0170 -0.3864  0.4715
  141MOL0     C18955   2.254   0.588   1.286  0.0763  0.2114  0.4238
  141MOL0     C18956   2.252   0.491   1.174 -0.1822 -0.8946  0.4852
  141MOL0     C18957   2.316   0.377   1.186 -0.3209 -0.8138  0.1519
  141MOL0     O18958   2.341   0.289   1.084  0.5790  0.6868  0.3282
  141MOL0     C18959   2.223   0.254   0.999 -0.5174  0.1765 -0.4060
  141MOL0     C18960   2.122   0.162   1.067  0.4495  0.0439  0.1774
  141MOL0     C18961   2.171   0.014   1.095  0.5951  0.2255  0.1471
  141MOL0     C18962   2.174  -0.075   0.967 -0.4171  0.1382 -0.3596
  141MOL0     C18963   2.033  -0.110   0.933 -0.3970  0.2001  0.2007
  141MOL0     C18964   1.920  -0.137   0.889  0.8043  0.5485  0.4222
  141MOL0     C18965   2.394   0.349   1.302  1.1065 -1.0615 -0.1839
  141MOL0     C18966   2.406   0.435   1.412  0.2848 -0.5681  0.0722
  141MOL0     C18967   2.510   0.406   1.520  0.5557  0.3869  0.6082
  141MOL0     H18968   2.218   0.929   1.327  0.8779 -1.1615  3.9969
  141MOL0     H18969   2.318   1.046   1.130  0.6861 -1.0376 -0.4382
  141MOL0     H18970   2.754   1.045   0.986 -0.4578  1.7011 -0.3878
  141MOL0     H18971   2.695   0.881   0.968  0.8637  1.3100  1.4282
  141MOL0     H18972   2.550   0.973   0.789 -0.7933  1.6522 -0.6700
  141MOL0     H18973   2.718   0.995   0.750 -0.4302 -0.2559  0.1306
  141MOL0     H18974   2.697   1.229   0.846  2.0177 -1.3585 -1.5633
  141MOL0     H18975   2.519   1.202   0.844  0.7837 -0.2813  0.8256
  141MOL0     H18976   2.730   1.210   0.631 -0.3066 -2.0464 -3.5217
  141MOL0     H18977   2.589   1.135   0.580  1.6924 -1.2403  1.4072
  141MOL0     H18978   2.460   1.363   0.640 -1.2049  0.2160 -3.0415
  141MOL0     H18979   2.613   1.426   0.691 -0.9684  0.5055  0.7726
  141MOL0     H18980   2.542   1.324   0.415  0.2772  0.0905  0.5082
  141MOL0     H18981   2.549   1.484   0.462 -2.5072 -2.1516  0.3636
  141MOL0     H18982   2.750   1.420   0.341 -3.9322 -1.6924 -0.8761
  141MOL0     H18983   2.812   1.309   0.464 -1.0118 -0.0956  1.9215
  141MOL0     H18984   2.761   1.604   0.497  2.3924  1.3760 -1.9970
  141MOL0     H18985   2.838   1.478   0.613 -1.4135 -3.0535 -0.7590
  141MOL0     H18986   3.075   1.363   0.481 -1.0589 -0.8756 -1.8274
  141MOL0     H18987   3.353   1.575   0.324  1.0907  0.2322  2.4427
  141MOL0     H18988   3.321   1.452   0.440  0.2935 -0.8794 -1.0543
  141MOL0     H18989   3.407   1.396   0.202  0.0020 -2.3925  0.5181
  141MOL0     H18990   3.249   1.311   0.243 -1.9548  1.1708  1.1134
  141MOL0     H18991   3.126   1.461   0.111  0.3678 -0.3080 -0.5946
  141MOL0     H18992   3.246   1.388   0.020 -3.8649 -0.3314  0.1236
  141MOL0     H18993   3.273   1.673   0.094  1.0948 -0.0170  0.0345
  141MOL0     H18994   3.246   1.605  -0.061 -3.7372  1.3120  1.2584
  141MOL0     H18995   3.673   1.536  -0.074 -0.8355  0.4496  3.3714
  141MOL0     H18996   3.799   1.677  -0.219  0.8229  0.3290  1.1191
  141MOL0     H18997   4.098   1.848  -0.303 -1.8697  2.1603  2.0290
  141MOL0     H18998   4.300   1.967  -0.427 -0.8241  0.7164 -2.0860
  141MOL0     H18999   4.466   2.133  -0.468  2.6499 -1.0590 -2.2272
  141MOL0     H19000   4.425   2.067  -0.621 -0.6752 -1.4979  0.8606
  141MOL0     H19001   4.590   2.245  -0.647 -0.6823 -2.0587 -3.1313
  141MOL0     H19002   4.448   2.286  -0.727 -1.8177 -2.6181  0.4315
  141MOL0     H19003   4.573   2.458  -0.579 -1.6027  0.9718 -1.5350
  141MOL0     H19004   4.386   2.466  -0.597 -2.6161 -0.9169  2.6146
  141MOL0     H19005   4.518   2.327  -0.357 -0.3215  0.9623  2.2119
  141MOL0     H19006   4.349   2.397  -0.387  0.4055  2.0631  1.5702
  141MOL0     H19007   4.454   2.501  -0.217  1.1374 -2.0378 -0.2050
  141MOL0     H19008   4.443   2.614  -0.366  0.9885  0.2944 -0.4195
  141MOL0     H19009   4.704   2.508  -0.240 -0.0084  1.4102  3.1301
  141MOL0     H19010   4.679   2.577  -0.402 -1.2057 -1.4505  0.3037
  141MOL0     H19011   4.632   2.699  -0.122  3.1702  1.4149  0.6515
  141MOL0     H19012   4.559   2.760  -0.276  0.0329 -2.7816 -4.6011
  141MOL0     H19013   4.787   2.806  -0.374 -2.7998  1.7050 -0.2701
  141MOL0     H19014   4.764   2.881  -0.215  2.0583  0.4998 -0.7216
  141MOL0     H19015   4.016   2.231  -0.601 -0.9675 -2.0600 -2.4477
  141MOL0     H19016   3.833   2.074  -0.504  0.3588 -1.4582 -0.6651
  141MOL0     H19017   3.504   1.992  -0.160 -2.1985 -1.9163 -4.0203
  141MOL0     H19018   3.366   1.834  -0.035  1.6798 -0.7187  2.5605
  141MOL0     H19019   2.688   0.841   1.211  1.2944  1.2593  3.1769
  141MOL0     H19020   2.594   0.752   1.411  0.9636  2.1449  2.4832
  141MOL0     H19021   2.204   0.683   1.271  3.0604  2.0245  1.2910
  141MOL0     H19022   2.185   0.511   1.092 -1.7428 -0.7001  1.7531
  141MOL0     H19023   2.264   0.201   0.913  0.7807 -2.7313  1.8329
  141MOL0     H19024   2.184   0.347   0.957  2.6980  1.3909 -0.9904
  141MOL0     H19025   2.033   0.159   1.003 -1.7644 -2.2182  3.0627
  141MOL0     H19026   2.081   0.199   1.162 -0.7801 -0.3521 -0.1705
  141MOL0     H19027   2.102  -0.030   1.168 -0.7251  2.7413  0.5280
  141MOL0     H19028   2.273   0.009   1.131 -0.2488 -1.9002  2.5131
  141MOL0     H19029   2.233  -0.026   0.889  0.4293 -2.3918 -1.4525
  141MOL0     H19030   2.225  -0.172   0.974  0.6764  0.1313 -4.9030
  141MOL0     H19031   1.818  -0.156   0.863  1.6291 -0.6310 -2.2966
  141MOL0     H19032   2.439   0.250   1.309 -0.5713 -1.7354  4.1986
  141MOL0     H19033   2.502   0.302   1.551  2.0351  0.2299  0.5275
  141MOL0     H19034   2.608   0.433   1.478 -0.1276 -2.1262 -2.9748
  141MOL0     H19035   2.511   0.467   1.611  2.7557 -0.0248  0.9170
  142MOL0     O19036   1.033   7.810   7.362 -0.4285 -0.1660 -1.0504
  142MOL0     C19037   1.000   7.695   7.384 -0.1252  0.6405 -0.7913
  142MOL0     O19038   1.067   7.605   7.468 -0.3037 -0.0032 -1.0616
  142MOL0     C19039   1.187   7.632   7.541 -0.0343  0.0089 -0.0359
  142MOL0     C19040   1.283   7.726   7.503  0.1869 -0.5480  0.8487
  142MOL0     C19041   1.402   7.745   7.575  0.8357 -0.5336  0.2597
  142MOL0     C19042   1.424   7.663   7.690  0.2531 -0.4377 -0.3829
  142MOL0     O19043   1.544   7.688   7.753 -0.9502  0.2170 -0.4829
  142MOL0     C19044   1.567   7.613   7.874 -0.5741  0.2454  0.3322
  142MOL0     C19045   1.674   7.676   7.965  0.4017  0.0378  0.7035
  142MOL0     C19046   1.814   7.643   7.909 -0.1419 -1.4034  0.0682
  142MOL0     C19047   1.924   7.724   7.978  0.9479 -0.2644 -0.5425
  142MOL0     C19048   2.046   7.709   7.898 -0.6081  0.0905  0.6788
  142MOL0     C19049   2.139   7.831   7.895  0.0152  0.7482 -0.6761
  142MOL0     C19050   2.169   7.887   8.038 -0.2472 -0.0720 -0.6366
  142MOL0     C19051   2.279   7.805   8.113 -0.5538  0.5040 -0.1659
  142MOL0     N19052   2.311   7.850   8.248 -0.7506  0.2037 -0.9024
  142MOL0     C19053   2.431   7.892   8.294 -0.5179 -0.0219 -1.1741
  142MOL0     C19054   2.419   7.922   8.427  0.1271  0.6429 -0.7803
  142MOL0     C19055   2.511   8.005   8.507 -0.6746  0.1589 -0.5211
  142MOL0     C19056   2.576   7.916   8.617 -0.4966 -0.3508 -0.2972
  142MOL0     C19057   2.707   7.991   8.675  0.2569  0.8620 -0.0606
  142MOL0     C19058   2.696   8.135   8.717 -0.2415  0.2451  0.9084
  142MOL0     O19059   2.662   8.215   8.601 -0.5693  0.2950  0.5338
  142MOL0     C19060   2.756   8.265   8.511  0.2424  0.7240 -0.1382
  142MOL0     C19061   2.890   8.217   8.514  0.1221  0.1799  0.2766
  142MOL0     C19062   2.984   8.258   8.420  0.2266 -0.3719 -0.1580
  142MOL0     C19063   2.947   8.345   8.323  0.6434 -0.1930 -0.2278
  142MOL0     C19064   3.047   8.385   8.216 -0.1454 -0.8649 -0.0343
  142MOL0     O19065   3.155   8.309   8.208  0.5002  0.2679 -0.5470
  142MOL0     C19066   3.246   8.301   8.101  0.3129 -0.0256  0.5764
  142MOL0     C19067   3.252   8.384   7.985  0.2789 -0.4876  0.1385
  142MOL0     C19068   3.355   8.358   7.893 -1.6258 -0.7202 -0.1075
  142MOL0     C19069   3.460   8.270   7.918 -0.3739  1.1470 -0.4687
  142MOL0     O19070   3.570   8.259   7.840 -0.1864 -0.0552  0.7065
  142MOL0     C19071   3.565   8.329   7.710  0.1116  0.0272 -0.1482
  142MOL0     C19072   3.677   8.274   7.615  0.1828 -0.1712 -0.6521
  142MOL0     C19073   3.718   8.374   7.499  1.0715  0.3921  0.3275
  142MOL0     C19074   3.594   8.402   7.410 -0.2189  0.5853  0.5259
  142MOL0     C19075   3.648   8.458   7.277  0.3538 -0.3154  0.3739
  142MOL0     C19076   3.541   8.448   7.164 -0.3332  0.1346 -0.0176
  142MOL0     C19077   3.600   8.468   7.027 -0.3561  0.7734  0.9317
  142MOL0     C19078   3.505   8.413   6.922  0.1094  0.6280  0.0592
  142MOL0    Cl19079   3.381   8.539   6.891  0.0551  0.0011 -0.2960
  142MOL0     C19080   3.455   8.195   8.034  0.2446  0.0182  0.0742
  142MOL0     C19081   3.344   8.206   8.115  0.1146 -0.5041 -1.3966
  142MOL0     O19082   3.008   8.459   8.126  0.0911  0.3887 -0.8309
  142MOL0     C19083   2.815   8.382   8.311 -0.1493 -0.5765  0.1418
  142MOL0     C19084   2.716   8.343   8.406  0.0606  0.0706  0.1883
  142MOL0     N19085   2.283   7.896   8.452  0.0350 -1.0714 -0.1101
  142MOL0     N19086   2.224   7.861   8.344  0.6336 -0.0578 -0.2714
  142MOL0     C19087   1.321   7.578   7.736  0.1003 -0.0407  0.0566
  142MOL0     C19088   1.205   7.563   7.655 -0.4002  0.1682 -0.4155
  142MOL0     C19089   0.881   7.643   7.325 -0.3278  0.3850  0.6526
  142MOL0     C19090   0.884   7.508   7.295 -0.9504 -1.2382  0.8071
  142MOL0     C19091   0.780   7.449   7.226 -0.8731  0.3447 -0.0503
  142MOL0     C19092   0.661   7.515   7.189  0.0335  0.3161 -0.2623
  142MOL0     O19093   0.547   7.474   7.119  0.1568  0.1318 -0.0878
  142MOL0     C19094   0.574   7.373   7.007  0.0353  0.1001 -0.6911
  142MOL0     C19095   0.461   7.392   6.913  0.3338 -0.3275 -0.1299
  142MOL0     C19096   0.462   7.254   6.830  0.8144 -1.0941  0.1492
  142MOL0     C19097   0.513   7.273   6.688 -0.7584 -0.7440 -0.4954
  142MOL0     C19098   0.648   7.234   6.682 -0.6672 -0.1420  0.4947
  142MOL0     C19099   0.762   7.209   6.666 -0.1838  0.0187 -0.4063
  142MOL0     C19100   0.661   7.652   7.230 -0.0842 -0.6671 -0.2899
  142MOL0     C19101   0.768   7.715   7.303  0.6633  0.0437 -0.2259
  142MOL0     C19102   0.744   7.866   7.351  0.2630  0.9530  0.9107
  142MOL0     H19103   1.279   7.793   7.418 -1.9235 -0.7197  0.7584
  142MOL0     H19104   1.477   7.807   7.528  1.5404 -1.1549  0.5485
  142MOL0     H19105   1.478   7.591   7.934 -0.8268 -0.6078 -0.3315
  142MOL0     H19106   1.618   7.525   7.834 -0.1927  1.3149 -1.6804
  142MOL0     H19107   1.662   7.651   8.071 -1.3127 -1.1394  0.2780
  142MOL0     H19108   1.662   7.784   7.956 -1.4661 -0.2300 -0.8294
  142MOL0     H19109   1.814   7.659   7.800 -0.3882 -0.7389  0.1650
  142MOL0     H19110   1.833   7.535   7.914  2.0252 -1.3844 -3.7869
  142MOL0     H19111   1.897   7.830   7.981 -0.1926 -0.5489  1.6120
  142MOL0     H19112   1.946   7.689   8.079 -0.5289 -5.8300 -1.7982
  142MOL0     H19113   2.097   7.615   7.922  1.1756 -0.4310 -4.0184
  142MOL0     H19114   2.025   7.686   7.793 -2.4364  0.0935  1.0098
  142MOL0     H19115   2.229   7.793   7.845 -0.6509 -1.9757  0.0215
  142MOL0     H19116   2.091   7.906   7.832  1.5295  1.2566 -1.2835
  142MOL0     H19117   2.084   7.903   8.105  1.5031  0.3635  1.6388
  142MOL0     H19118   2.208   7.987   8.020  2.0616 -0.8077 -0.1284
  142MOL0     H19119   2.247   7.700   8.110 -1.3254  0.7312 -0.2830
  142MOL0     H19120   2.369   7.807   8.051  0.0550 -3.6383  0.2519
  142MOL0     H19121   2.518   7.915   8.232 -0.0099 -3.5253 -1.9370
  142MOL0     H19122   2.586   8.043   8.437 -0.3478  0.9138  0.2198
  142MOL0     H19123   2.452   8.087   8.550  1.1891  2.2516 -1.7674
  142MOL0     H19124   2.507   7.900   8.701  0.0102  0.7074  0.3420
  142MOL0     H19125   2.608   7.820   8.576  0.9416  0.0820 -0.2237
  142MOL0     H19126   2.784   7.982   8.597  0.5754 -1.6676  0.4293
  142MOL0     H19127   2.754   7.941   8.760  0.0803  0.0361 -0.4349
  142MOL0     H19128   2.793   8.171   8.753  0.5190  1.1199 -1.8083
  142MOL0     H19129   2.621   8.150   8.795  0.4166  0.3685  1.5346
  142MOL0     H19130   2.919   8.151   8.596 -0.9441 -1.8106 -0.8597
  142MOL0     H19131   3.084   8.216   8.422 -0.4755 -2.1652 -0.4519
  142MOL0     H19132   3.184   8.464   7.956  0.8138  0.6652  1.9148
  142MOL0     H19133   3.350   8.405   7.796 -0.3644  0.1276  0.2186
  142MOL0     H19134   3.472   8.323   7.654 -0.8918  1.1100  1.3419
  142MOL0     H19135   3.581   8.436   7.722 -2.7891  0.2466  3.4364
  142MOL0     H19136   3.770   8.249   7.667 -1.5634 -1.2479  2.1691
  142MOL0     H19137   3.643   8.177   7.576 -1.0679 -0.7759  1.7764
  142MOL0     H19138   3.756   8.472   7.530  1.4364  0.8247 -1.3901
  142MOL0     H19139   3.800   8.323   7.446 -0.8709  0.5054 -3.0680
  142MOL0     H19140   3.511   8.463   7.449 -3.0244 -2.2248 -0.5830
  142MOL0     H19141   3.543   8.311   7.375 -0.0522  1.2964 -1.7384
  142MOL0     H19142   3.728   8.392   7.242 -0.2929 -1.1841  0.5102
  142MOL0     H19143   3.689   8.558   7.291 -1.1728  0.2817  0.8177
  142MOL0     H19144   3.503   8.346   7.175  0.0210  0.2209  2.5054
  142MOL0     H19145   3.457   8.512   7.191 -0.5216 -0.6178  1.2722
  142MOL0     H19146   3.690   8.405   7.019 -0.4037  0.7045  0.9486
  142MOL0     H19147   3.632   8.569   7.000  2.4357 -0.7994 -2.4808
  142MOL0     H19148   3.550   8.394   6.824  0.1197  1.7467 -0.1644
  142MOL0     H19149   3.456   8.321   6.953  0.6215 -0.3142 -1.7854
  142MOL0     H19150   3.536   8.129   8.064  0.6119 -0.8318 -2.4978
  142MOL0     H19151   3.349   8.154   8.211  1.5557 -0.8857 -1.6513
  142MOL0     H19152   2.778   8.439   8.226 -1.2776  1.6531  1.9973
  142MOL0     H19153   2.617   8.384   8.393  0.3810  1.2660  1.3894
  142MOL0     H19154   1.310   7.514   7.823 -1.2169  0.4217  0.2516
  142MOL0     H19155   1.121   7.502   7.687 -1.1213  2.0676  1.5732
  142MOL0     H19156   0.980   7.459   7.306  1.4765  2.7994 -0.6097
  142MOL0     H19157   0.797   7.346   7.196  0.3303 -0.2000  2.2780
  142MOL0     H19158   0.573   7.272   7.048 -0.2749  1.5375  3.2269
  142MOL0     H19159   0.667   7.381   6.949 -0.4358 -1.7803 -1.7778
  142MOL0     H19160   0.461   7.480   6.849 -0.2951 -1.7126 -2.1607
  142MOL0     H19161   0.372   7.409   6.974  1.1600  1.9909  0.5176
  142MOL0     H19162   0.356   7.229   6.817  1.0074 -1.5948 -0.5566
  142MOL0     H19163   0.500   7.171   6.891  1.3695 -2.0673 -1.4473
  142MOL0     H19164   0.462   7.210   6.615 -1.5292  2.1597 -2.6559
  142MOL0     H19165   0.506   7.378   6.659  0.9408 -0.8942 -1.5824
  142MOL0     H19166   0.855   7.157   6.659 -0.9428 -1.1837 -2.8219
  142MOL0     H19167   0.578   7.720   7.214  1.4750  1.3904  0.0161
  142MOL0     H19168   0.764   7.929   7.264 -1.7614  0.5314  0.0911
  142MOL0     H19169   0.637   7.885   7.363 -1.0497 -3.4692 -1.6625
  142MOL0     H19170   0.808   7.895   7.435  1.8296  0.3131 -0.0295
  143MOL0     O19171   9.332   6.365   7.964  0.6325  0.2605 -0.0136
  143MOL0     C19172   9.423   6.424   8.023  0.8525 -0.7167 -0.4325
  143MOL0     O19173   9.498   6.528   7.978 -0.2204 -0.6580  0.2714
  143MOL0     C19174   9.479   6.584   7.849 -0.4834  1.3132  0.3978
  143MOL0     C19175   9.588   6.618   7.773 -0.2940  0.1188  0.1578
  143MOL0     C19176   9.581   6.663   7.640  0.5176 -0.4684 -0.3854
  143MOL0     C19177   9.461   6.684   7.582  0.6614  0.1317  0.5989
  143MOL0     O19178   9.479   6.699   7.453  0.6035  0.2419 -0.6257
  143MOL0     C19179   9.440   6.827   7.414  0.3698  0.3475 -0.0464
  143MOL0     C19180   9.438   6.837   7.261  0.9717 -1.0871 -0.5693
  143MOL0     C19181   9.371   6.722   7.189 -0.2913  0.6532 -0.4253
  143MOL0     C19182   9.221   6.719   7.212 -0.1428 -0.0026 -0.3151
  143MOL0     C19183   9.159   6.787   7.092  0.5896  0.3786  0.5711
  143MOL0     C19184   9.037   6.870   7.130  0.4576  0.2085  0.9862
  143MOL0     C19185   8.941   6.780   7.211  0.2461  0.7123  1.3726
  143MOL0     C19186   8.797   6.833   7.221  0.3091  0.2604  0.1713
  143MOL0     N19187   8.801   6.967   7.285  0.1798 -0.2242  0.2428
  143MOL0     C19188   8.802   6.994   7.419  0.1707  0.6159  0.1935
  143MOL0     C19189   8.808   7.132   7.427  0.6482  0.3839 -0.5087
  143MOL0     C19190   8.792   7.224   7.549  0.8203 -0.6156 -0.1221
  143MOL0     C19191   8.659   7.300   7.561  0.4617 -0.0019  0.3265
  143MOL0     C19192   8.640   7.380   7.686  0.3047 -0.2402 -0.2877
  143MOL0     C19193   8.745   7.490   7.705 -0.0054  0.9537  0.0004
  143MOL0     O19194   8.861   7.437   7.762  0.2473  0.3486 -0.5842
  143MOL0     C19195   8.940   7.508   7.857  0.4286 -0.4661 -0.1653
  143MOL0     C19196   9.076   7.462   7.872 -0.0486 -0.4818 -0.2047
  143MOL0     C19197   9.164   7.506   7.973  0.5092  0.4911 -0.1869
  143MOL0     C19198   9.110   7.601   8.062  0.9458 -0.0688  0.4082
  143MOL0     C19199   9.184   7.658   8.169 -1.0327 -0.5725 -1.2825
  143MOL0     O19200   9.136   7.775   8.234 -0.1996  0.1786  0.3119
  143MOL0     C19201   9.167   7.779   8.366 -0.2444 -1.2956  0.2608
  143MOL0     C19202   9.302   7.797   8.411  0.5187  0.6106 -0.1275
  143MOL0     C19203   9.327   7.790   8.551  0.0099 -0.2567 -1.0388
  143MOL0     C19204   9.229   7.767   8.643  0.8007  0.4796  0.0500
  143MOL0     O19205   9.264   7.760   8.775  0.6687  0.2134  0.1375
  143MOL0     C19206   9.189   7.670   8.869 -0.2119 -0.1418  0.7276
  143MOL0     C19207   9.156   7.718   9.007 -0.1221 -0.1978 -0.4773
  143MOL0     C19208   9.054   7.838   8.990 -0.3785  0.8456 -0.9481
  143MOL0     C19209   8.999   7.882   9.121 -0.2824  0.7406 -0.7133
  143MOL0     C19210   9.096   7.940   9.220 -0.1854 -0.2627 -0.2978
  143MOL0     C19211   9.016   7.999   9.342 -0.1170  0.0512  0.7360
  143MOL0     C19212   9.116   8.056   9.445 -0.1185  0.3057 -0.0954
  143MOL0     C19213   9.066   8.175   9.527 -0.0041 -0.1201  0.0431
  143MOL0    Cl19214   8.963   8.139   9.672  0.1539 -0.0469 -0.2206
  143MOL0     C19215   9.090   7.756   8.594 -0.1613 -0.3398  0.3101
  143MOL0     C19216   9.060   7.774   8.450 -0.2800 -0.0837 -0.2536
  143MOL0     O19217   9.287   7.591   8.204 -0.0190 -0.0281  0.3251
  143MOL0     C19218   8.980   7.640   8.051 -0.9337  0.9883  0.2693
  143MOL0     C19219   8.893   7.599   7.945  0.4725  0.6977 -0.5017
  143MOL0     N19220   8.808   7.184   7.301 -0.5393  0.6404  0.0322
  143MOL0     N19221   8.808   7.084   7.211 -0.2201 -0.5829 -0.0814
  143MOL0     C19222   9.344   6.673   7.662  0.1357 -0.0738  0.8209
  143MOL0     C19223   9.358   6.605   7.791  0.7838 -0.8508 -0.3983
  143MOL0     C19224   9.458   6.373   8.164  0.6704  0.8196  1.2494
  143MOL0     C19225   9.368   6.268   8.210 -0.0868 -0.3419 -0.0009
  143MOL0     C19226   9.375   6.225   8.334 -1.2263  0.2097 -0.3934
  143MOL0     C19227   9.478   6.271   8.416  0.4157  0.3605  0.0478
  143MOL0     O19228   9.482   6.213   8.538  0.0058  0.2482  0.3123
  143MOL0     C19229   9.611   6.186   8.587  0.5988  0.1768 -0.0272
  143MOL0     C19230   9.594   6.088   8.710  0.0467 -0.1593 -0.1166
  143MOL0     C19231   9.511   5.962   8.669 -0.1679 -0.3884  0.5642
  143MOL0     C19232   9.363   5.984   8.706  0.0408 -0.3224  0.4052
  143MOL0     C19233   9.291   5.853   8.710 -0.7812 -0.1672 -0.0043
  143MOL0     C19234   9.239   5.742   8.713 -0.1215  0.0453  0.5909
  143MOL0     C19235   9.574   6.366   8.375 -0.0711  0.1766  0.1502
  143MOL0     C19236   9.563   6.421   8.242  0.3427 -0.8291 -1.1162
  143MOL0     C19237   9.663   6.533   8.206 -0.0180  0.1738 -0.0642
  143MOL0     H19238   9.683   6.582   7.812 -2.0375 -0.8972  3.9329
  143MOL0     H19239   9.667   6.685   7.577 -1.6704  1.9537 -2.8044
  143MOL0     H19240   9.340   6.852   7.452 -1.1710 -1.3883 -2.5643
  143MOL0     H19241   9.510   6.900   7.456  0.8553  1.9094 -3.2191
  143MOL0     H19242   9.546   6.846   7.241  1.0417 -0.1218  0.1520
  143MOL0     H19243   9.396   6.934   7.233  1.3478  0.0421  2.4493
  143MOL0     H19244   9.407   6.629   7.233 -0.5084  1.0693  0.6564
  143MOL0     H19245   9.388   6.729   7.081 -1.6812 -0.6612 -0.7822
  143MOL0     H19246   9.184   6.616   7.225 -2.2072  0.9734  2.7017
  143MOL0     H19247   9.198   6.768   7.307 -1.0374 -1.1457  0.0871
  143MOL0     H19248   9.222   6.860   7.041  0.6448  0.0132  0.1110
  143MOL0     H19249   9.145   6.708   7.018  1.7847  0.3540  0.3657
  143MOL0     H19250   9.075   6.958   7.181  0.2501 -0.1515  1.7820
  143MOL0     H19251   9.004   6.907   7.033  1.8196 -0.5403  0.2051
  143MOL0     H19252   8.982   6.771   7.312 -1.1483  0.5612  1.9401
  143MOL0     H19253   8.931   6.683   7.162 -1.2677  0.2887  2.4423
  143MOL0     H19254   8.745   6.841   7.126 -2.5093 -2.4792  1.3032
  143MOL0     H19255   8.732   6.773   7.285 -0.6035  0.3713 -0.6314
  143MOL0     H19256   8.790   6.914   7.491 -1.1122 -0.0785 -0.7613
  143MOL0     H19257   8.801   7.162   7.639  1.0886 -1.1287 -0.4973
  143MOL0     H19258   8.874   7.297   7.548 -1.9030  2.6614  0.1319
  143MOL0     H19259   8.638   7.360   7.472 -1.9669 -1.6927 -0.3641
  143MOL0     H19260   8.574   7.230   7.564  0.5445 -0.1224  0.0129
  143MOL0     H19261   8.642   7.312   7.771  0.1659  1.0593  0.8035
  143MOL0     H19262   8.543   7.431   7.688  1.2095  1.6530 -1.2244
  143MOL0     H19263   8.702   7.571   7.764 -0.7071 -0.2907  1.2579
  143MOL0     H19264   8.772   7.535   7.609 -1.8446  1.5094 -0.2953
  143MOL0     H19265   9.106   7.369   7.823 -0.2665 -1.4323  1.3983
  143MOL0     H19266   9.264   7.469   7.989  1.9801  3.7876 -0.9380
  143MOL0     H19267   9.377   7.810   8.334 -3.6316 -0.6256 -4.8823
  143MOL0     H19268   9.425   7.800   8.597 -0.7759  5.4559  0.2082
  143MOL0     H19269   9.106   7.621   8.817 -1.7452  1.4690  1.5541
  143MOL0     H19270   9.264   7.592   8.883  0.1242 -0.0988 -0.6649
  143MOL0     H19271   9.111   7.637   9.065  1.3295 -0.0011  0.9966
  143MOL0     H19272   9.250   7.745   9.056  1.1472  0.5141 -3.0994
  143MOL0     H19273   9.102   7.928   8.950 -3.0510  4.3873  2.9030
  143MOL0     H19274   8.968   7.809   8.930 -0.2986 -2.2643  0.2784
  143MOL0     H19275   8.948   7.801   9.175  0.1562  2.5621  2.7355
  143MOL0     H19276   8.926   7.960   9.098 -3.2386 -2.5324 -3.7659
  143MOL0     H19277   9.138   8.036   9.188 -3.0181  1.3609  0.4555
  143MOL0     H19278   9.173   7.871   9.255 -0.8710 -0.2172  1.4015
  143MOL0     H19279   8.950   8.081   9.312  1.8488  0.5700 -2.6813
  143MOL0     H19280   8.949   7.923   9.385  1.6125 -2.8620 -1.3620
  143MOL0     H19281   9.189   8.109   9.383 -1.4231  2.6602  0.2543
  143MOL0     H19282   9.153   7.972   9.503 -2.5200  0.1392  1.3497
  143MOL0     H19283   9.156   8.223   9.567  0.5597  1.3699 -2.7336
  143MOL0     H19284   9.019   8.252   9.465  0.7102 -0.1239 -0.5196
  143MOL0     H19285   9.013   7.729   8.665 -2.1739 -1.4700 -2.1162
  143MOL0     H19286   8.960   7.759   8.411 -0.5744  0.6040  0.2071
  143MOL0     H19287   8.948   7.724   8.111  0.6094  1.0211  1.0944
  143MOL0     H19288   8.793   7.640   7.939  0.9318  1.6571 -2.2676
  143MOL0     H19289   9.254   6.716   7.619  1.4517 -1.2359 -3.6686
  143MOL0     H19290   9.273   6.598   7.858 -1.4466 -0.9353 -3.0739
  143MOL0     H19291   9.283   6.235   8.151  0.5025 -2.9990  0.5074
  143MOL0     H19292   9.302   6.157   8.378 -2.3067  1.6916  0.1602
  143MOL0     H19293   9.667   6.267   8.635  0.0536 -0.5091  1.8797
  143MOL0     H19294   9.673   6.144   8.508  1.0484  2.3246 -0.8964
  143MOL0     H19295   9.539   6.146   8.786 -2.7244  0.3492 -2.3471
  143MOL0     H19296   9.691   6.064   8.756  0.1567  0.0945 -0.2139
  143MOL0     H19297   9.534   5.871   8.724 -4.3835 -1.8104  0.3851
  143MOL0     H19298   9.513   5.946   8.561  1.5796 -1.0669  0.6765
  143MOL0     H19299   9.357   6.021   8.809  2.3409  1.1960  0.0421
  143MOL0     H19300   9.307   6.051   8.641  0.7723 -0.4485 -0.3620
  143MOL0     H19301   9.198   5.643   8.721 -1.3858  0.6581  2.2769
  143MOL0     H19302   9.656   6.400   8.437 -0.2323 -0.1804  0.5635
  143MOL0     H19303   9.634   6.632   8.170  0.0685 -0.2154 -1.2328
  143MOL0     H19304   9.708   6.569   8.300  0.5364 -0.2233 -0.1695
  143MOL0     H19305   9.748   6.489   8.153  1.0954 -3.7548  4.2491
  144MOL0     O19306   4.757   2.383   2.719 -0.2312  1.0973 -1.0013
  144MOL0     C19307   4.772   2.438   2.829  0.6215 -0.2318 -0.3214
  144MOL0     O19308   4.872   2.407   2.921  0.3628  0.1193  0.5178
  144MOL0     C19309   4.976   2.330   2.892 -0.4241  0.3085 -0.3216
  144MOL0     C19310   5.070   2.334   2.999 -0.5187  0.5711 -0.3231
  144MOL0     C19311   5.188   2.253   2.994 -0.6151  0.3924 -0.2922
  144MOL0     C19312   5.219   2.184   2.874 -0.6384 -0.4788  0.3872
  144MOL0     O19313   5.343   2.119   2.869  0.2376 -0.3093  0.1105
  144MOL0     C19314   5.387   2.057   2.754 -0.0686  0.4019  0.3135
  144MOL0     C19315   5.305   1.921   2.739 -0.7176  0.9173  0.1534
  144MOL0     C19316   5.366   1.799   2.823  0.3621  0.6073  0.3195
  144MOL0     C19317   5.495   1.740   2.757  0.2593  0.1186 -0.2280
  144MOL0     C19318   5.545   1.605   2.818  0.1394 -0.3428 -0.2395
  144MOL0     C19319   5.684   1.564   2.753 -0.4181 -0.1822 -1.0007
  144MOL0     C19320   5.793   1.662   2.726  0.5727  0.1224  0.0663
  144MOL0     C19321   5.863   1.716   2.857 -0.3711  0.8603 -0.2771
  144MOL0     N19322   5.950   1.836   2.841 -0.8191  0.2215  0.4733
  144MOL0     C19323   6.081   1.826   2.794 -0.6643 -0.0295 -0.1706
  144MOL0     C19324   6.111   1.951   2.774 -0.6718  0.2119 -0.0355
  144MOL0     C19325   6.243   1.991   2.713 -0.4278  0.2023  0.3591
  144MOL0     C19326   6.341   2.061   2.812  0.9858  0.7033 -0.2517
  144MOL0     C19327   6.469   2.099   2.743 -0.4706  0.6958 -0.6398
  144MOL0     C19328   6.557   1.979   2.714  0.1491 -0.3316 -0.8229
  144MOL0     O19329   6.677   2.026   2.660  0.5301 -1.0515 -0.1724
  144MOL0     C19330   6.691   2.036   2.521 -0.1324  0.1506 -0.6503
  144MOL0     C19331   6.820   2.076   2.481 -0.6314  0.7214 -0.5151
  144MOL0     C19332   6.856   2.068   2.345  0.8237  0.0820 -0.0868
  144MOL0     C19333   6.749   2.042   2.250  0.3499 -0.2734  0.2395
  144MOL0     C19334   6.782   2.045   2.098 -0.1281 -0.3715 -0.0320
  144MOL0     O19335   6.682   2.014   2.013 -0.4978  0.9897 -0.0635
  144MOL0     C19336   6.679   2.042   1.881  0.4435  0.0539 -0.3362
  144MOL0     C19337   6.559   2.014   1.813  0.2894  0.0402 -0.0015
  144MOL0     C19338   6.539   2.023   1.678 -0.6233 -0.4902 -0.1177
  144MOL0     C19339   6.644   2.071   1.593 -0.0026  0.5194  0.8067
  144MOL0     O19340   6.623   2.084   1.453 -0.3727 -0.1266  0.8375
  144MOL0     C19341   6.571   2.214   1.412 -0.1796 -0.2434 -0.5996
  144MOL0     C19342   6.491   2.187   1.287 -0.5443 -0.5790 -0.8284
  144MOL0     C19343   6.436   2.329   1.245 -0.3411 -0.1145  0.7268
  144MOL0     C19344   6.356   2.315   1.116  0.6487  0.2198 -0.4064
  144MOL0     C19345   6.279   2.452   1.088  1.2880  0.2922  0.8802
  144MOL0     C19346   6.160   2.454   1.185 -0.0387 -0.2323 -0.8459
  144MOL0     C19347   6.046   2.545   1.143  0.5017  0.3495 -0.8443
  144MOL0     C19348   5.936   2.555   1.250  0.0746  0.0482  0.3279
  144MOL0    Cl19349   5.999   2.657   1.385  0.9820  0.3668  0.2341
  144MOL0     C19350   6.768   2.096   1.650  0.1545  0.1187  0.0707
  144MOL0     C19351   6.782   2.090   1.792  0.0410 -0.3922 -1.2033
  144MOL0     O19352   6.894   2.077   2.069 -0.5293 -0.3946  1.1333
  144MOL0     C19353   6.618   2.018   2.289 -0.5995  0.1033 -0.2538
  144MOL0     C19354   6.591   2.001   2.423 -0.0984 -0.5118  0.1676
  144MOL0     N19355   6.002   2.035   2.814 -0.2258  0.5060 -0.6686
  144MOL0     N19356   5.908   1.962   2.847  0.2663  0.3092 -0.7077
  144MOL0     C19357   5.135   2.193   2.755  0.4583 -0.0122 -0.5618
  144MOL0     C19358   5.012   2.259   2.778  0.3503  0.1829  0.0852
  144MOL0     C19359   4.673   2.537   2.870 -0.1980 -0.1017 -0.6158
  144MOL0     C19360   4.539   2.516   2.825  0.2637 -0.6267  0.5217
  144MOL0     C19361   4.446   2.614   2.853 -0.0716 -0.0489  0.7285
  144MOL0     C19362   4.468   2.727   2.920 -0.5251  0.4749  0.2186
  144MOL0     O19363   4.356   2.799   2.946 -0.5521 -0.3831  0.3217
  144MOL0     C19364   4.336   2.849   3.084 -0.3584  0.2851 -0.4815
  144MOL0     C19365   4.187   2.854   3.109  0.7379 -0.1540  0.1285
  144MOL0     C19366   4.106   2.721   3.103 -0.4052  0.0548  1.0165
  144MOL0     C19367   3.952   2.739   3.087  0.0200  0.4481 -0.4214
  144MOL0     C19368   3.907   2.819   3.199  1.1074 -0.2050 -0.3839
  144MOL0     C19369   3.863   2.874   3.297 -0.8887 -0.3883  0.6164
  144MOL0     C19370   4.598   2.746   2.966  1.0257  0.5257  0.2157
  144MOL0     C19371   4.701   2.651   2.948 -0.4030 -0.2932  0.2861
  144MOL0     C19372   4.841   2.685   3.010  0.1850 -0.3544  0.1911
  144MOL0     H19373   5.055   2.411   3.073  1.1609 -0.5126  1.2231
  144MOL0     H19374   5.269   2.258   3.065 -0.3841  3.4850 -0.6054
  144MOL0     H19375   5.375   2.121   2.666 -2.4167 -0.1565  0.1640
  144MOL0     H19376   5.495   2.047   2.770  0.1662  1.9646 -0.0866
  144MOL0     H19377   5.297   1.891   2.634  1.8570  1.1440 -0.1835
  144MOL0     H19378   5.208   1.945   2.783  0.7918  2.6464  2.7399
  144MOL0     H19379   5.294   1.719   2.841  1.0519  0.0447  0.6449
  144MOL0     H19380   5.390   1.832   2.924 -0.5491  2.6472 -0.0858
  144MOL0     H19381   5.478   1.711   2.652 -0.5220 -1.9020  0.3944
  144MOL0     H19382   5.571   1.817   2.760 -0.1181  0.6861 -2.6306
  144MOL0     H19383   5.558   1.615   2.926  4.1198  0.7816 -0.6373
  144MOL0     H19384   5.477   1.529   2.780 -1.1402  1.3560 -1.5107
  144MOL0     H19385   5.738   1.489   2.813  2.9576 -0.6074 -4.2270
  144MOL0     H19386   5.662   1.504   2.664  1.9453 -4.0077  0.7029
  144MOL0     H19387   5.748   1.749   2.676 -2.3522  0.0215  2.3374
  144MOL0     H19388   5.866   1.618   2.657 -0.0837 -0.6605 -0.1416
  144MOL0     H19389   5.783   1.748   2.924  0.3134 -0.1153  1.0566
  144MOL0     H19390   5.928   1.636   2.894 -0.2752  0.5533 -1.0832
  144MOL0     H19391   6.143   1.740   2.770 -0.8192  0.1037 -1.0949
  144MOL0     H19392   6.288   1.898   2.679 -0.7809 -0.9286  2.7611
  144MOL0     H19393   6.229   2.064   2.633  3.1350  1.8948  1.0965
  144MOL0     H19394   6.290   2.148   2.853  1.3762  1.1589 -0.7303
  144MOL0     H19395   6.372   1.997   2.896 -0.2496 -0.0226 -0.3254
  144MOL0     H19396   6.524   2.173   2.802  2.6563 -0.8796 -1.4099
  144MOL0     H19397   6.442   2.145   2.647 -0.9588  1.7776 -0.0117
  144MOL0     H19398   6.506   1.901   2.657 -1.8082  2.5806 -3.4090
  144MOL0     H19399   6.585   1.935   2.810  1.2229  1.3719 -0.3009
  144MOL0     H19400   6.901   2.089   2.551 -0.3515  2.2048 -1.0883
  144MOL0     H19401   6.958   2.092   2.317  0.9262 -1.0932 -0.7773
  144MOL0     H19402   6.473   1.980   1.869  0.0070  3.2561  1.7505
  144MOL0     H19403   6.454   1.983   1.625 -0.7549 -0.3213 -0.0353
  144MOL0     H19404   6.510   2.250   1.495  1.2869  1.1864 -0.0947
  144MOL0     H19405   6.652   2.288   1.406  0.8258 -1.0330  2.0133
  144MOL0     H19406   6.555   2.144   1.210  0.5500 -0.5596  0.0460
  144MOL0     H19407   6.406   2.119   1.292  0.4714 -1.7787  1.1099
  144MOL0     H19408   6.370   2.355   1.329  0.6134  0.9066  1.1899
  144MOL0     H19409   6.518   2.399   1.230  1.5379 -2.3986 -0.2341
  144MOL0     H19410   6.285   2.235   1.138  3.5792 -1.8417  2.6702
  144MOL0     H19411   6.421   2.286   1.032  1.8886  0.9976  0.2452
  144MOL0     H19412   6.244   2.449   0.985  0.5732 -2.6617  1.0976
  144MOL0     H19413   6.335   2.546   1.091  2.5351  0.3410 -6.1671
  144MOL0     H19414   6.122   2.352   1.195  1.1582 -0.7740 -1.5828
  144MOL0     H19415   6.194   2.485   1.284 -2.2251  0.6644 -0.3156
  144MOL0     H19416   6.010   2.513   1.044  1.0498 -2.2576 -0.2802
  144MOL0     H19417   6.080   2.649   1.144  2.0954 -0.1363  0.7709
  144MOL0     H19418   5.855   2.597   1.189  0.1484 -2.5073 -1.6774
  144MOL0     H19419   5.910   2.458   1.295  2.2187 -1.5347 -1.5923
  144MOL0     H19420   6.847   2.133   1.585  0.1516  0.0514  0.0293
  144MOL0     H19421   6.876   2.120   1.837 -0.9934 -1.4717  2.0070
  144MOL0     H19422   6.540   1.993   2.218 -3.9268  2.8961  2.0826
  144MOL0     H19423   6.489   1.971   2.446  0.2944 -1.4110  0.7858
  144MOL0     H19424   5.168   2.154   2.659  0.3571 -0.3121 -0.4755
  144MOL0     H19425   4.954   2.264   2.686  0.7606  1.5904 -0.1112
  144MOL0     H19426   4.501   2.433   2.766 -1.9736  0.6979 -0.0077
  144MOL0     H19427   4.349   2.597   2.808  0.0853 -3.9481  1.5082
  144MOL0     H19428   4.391   2.941   3.104 -0.2586 -0.4764  3.5207
  144MOL0     H19429   4.385   2.782   3.156 -0.4985  0.8421  0.1367
  144MOL0     H19430   4.137   2.925   3.042  0.3310  0.5098  1.1168
  144MOL0     H19431   4.162   2.892   3.208 -0.9498  2.4216 -1.1676
  144MOL0     H19432   4.138   2.666   3.192  0.4918  1.3214  1.5174
  144MOL0     H19433   4.151   2.671   3.017 -0.1427 -1.7906  2.1765
  144MOL0     H19434   3.906   2.778   2.997 -2.1321  0.2167  0.5106
  144MOL0     H19435   3.912   2.638   3.100 -1.9777  1.3178  0.6082
  144MOL0     H19436   3.841   2.934   3.382  3.1201 -1.8497  2.9322
  144MOL0     H19437   4.597   2.847   3.004  0.5349  1.0665 -1.1964
  144MOL0     H19438   4.847   2.789   3.042  1.1896  0.0664 -1.2749
  144MOL0     H19439   4.850   2.622   3.099  0.4447  1.0885  1.2067
  144MOL0     H19440   4.930   2.672   2.948  0.4686  0.5993  0.3887
  145MOL0     O19441   2.392   8.451   9.401  0.0588  0.0686  0.0440
  145MOL0     C19442   2.326   8.354   9.376  0.2609  0.0643 -1.1058
  145MOL0     O19443   2.289   8.310   9.248 -0.0007 -0.7035 -0.2922
  145MOL0     C19444   2.343   8.383   9.145 -0.5997  0.8100  0.0929
  145MOL0     C19445   2.258   8.481   9.074 -0.3767 -0.3399 -0.1126
  145MOL0     C19446   2.295   8.541   8.952 -0.6515  0.7445  0.0571
  145MOL0     C19447   2.426   8.518   8.907 -0.8469 -0.4309  0.0940
  145MOL0     O19448   2.465   8.601   8.804 -0.4859 -0.7511 -0.6724
  145MOL0     C19449   2.602   8.602   8.771 -0.2347  0.2798  1.4761
  145MOL0     C19450   2.620   8.679   8.639 -0.2264  0.0939  0.4796
  145MOL0     C19451   2.519   8.651   8.532 -0.1256 -0.1114  0.7239
  145MOL0     C19452   2.520   8.764   8.428 -0.2561 -0.1762 -0.2203
  145MOL0     C19453   2.428   8.714   8.315  0.9681 -0.8130 -0.2740
  145MOL0     C19454   2.377   8.807   8.203  0.9122 -0.6598  0.0385
  145MOL0     C19455   2.478   8.873   8.117  0.6088 -0.6437  0.4189
  145MOL0     C19456   2.402   8.984   8.038  0.1560  0.4812  0.1950
  145MOL0     N19457   2.391   9.114   8.107 -0.8332  0.8127  0.1648
  145MOL0     C19458   2.287   9.154   8.177  0.5249 -0.8562  0.2107
  145MOL0     C19459   2.332   9.271   8.228 -0.4453 -0.0765  0.1271
  145MOL0     C19460   2.250   9.375   8.299  0.1874  0.8753  0.1948
  145MOL0     C19461   2.312   9.512   8.309  0.3748 -0.2420  1.0657
  145MOL0     C19462   2.227   9.598   8.407  0.4964  0.0485  0.4717
  145MOL0     C19463   2.274   9.742   8.439 -0.0493 -0.3445  0.0418
  145MOL0     O19464   2.236   9.776   8.572 -0.3807 -0.3756 -0.4586
  145MOL0     C19465   2.104   9.785   8.609 -0.6063  0.2714 -0.2248
  145MOL0     C19466   2.002   9.806   8.518 -0.5451 -0.1685  0.1946
  145MOL0     C19467   1.868   9.788   8.559 -0.1625  0.1460  0.8308
  145MOL0     C19468   1.833   9.744   8.687 -0.7134  0.4373 -0.6941
  145MOL0     C19469   1.693   9.703   8.724  0.0752 -0.4750  0.9756
  145MOL0     O19470   1.581   9.737   8.644 -0.5150 -0.0243  0.0061
  145MOL0     C19471   1.450   9.718   8.677 -0.3257  0.1362 -0.5782
  145MOL0     C19472   1.360   9.797   8.600 -0.2782 -0.5578 -0.8920
  145MOL0     C19473   1.224   9.795   8.625  0.1372  0.5717 -0.6373
  145MOL0     C19474   1.166   9.722   8.716  0.1200  0.4435 -0.1858
  145MOL0     O19475   1.024   9.723   8.728  0.5799  0.5831  0.2057
  145MOL0     C19476   0.940   9.841   8.722 -0.7948 -0.3618  0.1103
  145MOL0     C19477   0.800   9.798   8.720  1.1960  0.0987 -0.8232
  145MOL0     C19478   0.747   9.799   8.859 -0.1655  0.1142  0.1838
  145MOL0     C19479   0.602   9.762   8.876  0.0944 -0.2403 -0.4386
  145MOL0     C19480   0.504   9.876   8.834  0.4809 -0.4065 -0.6694
  145MOL0     C19481   0.381   9.829   8.779  0.2544  0.7326  0.9223
  145MOL0     C19482   0.273   9.928   8.738  0.0843 -0.6401 -1.0142
  145MOL0     C19483   0.212  10.006   8.858  0.2307 -0.4241  0.0098
  145MOL0    Cl19484   0.307  10.154   8.896  0.0344 -0.5491 -0.1814
  145MOL0     C19485   1.252   9.638   8.793 -0.3662  0.3088 -0.4474
  145MOL0     C19486   1.387   9.630   8.775 -0.2095 -0.7526  0.2622
  145MOL0     O19487   1.689   9.617   8.814 -0.4312  0.4437 -0.7874
  145MOL0     C19488   1.939   9.739   8.780  0.8883  0.3272  0.4410
  145MOL0     C19489   2.075   9.759   8.745 -0.1592 -0.1542  0.4932
  145MOL0     N19490   2.469   9.288   8.197 -0.9013  0.1824  0.2328
  145MOL0     N19491   2.501   9.196   8.121 -0.3460  0.0950  0.0527
  145MOL0     C19492   2.506   8.411   8.962  0.1446 -0.4931  0.1136
  145MOL0     C19493   2.457   8.336   9.076 -0.8525  0.3997 -0.8860
  145MOL0     C19494   2.273   8.270   9.489  0.2327 -0.1288 -0.3932
  145MOL0     C19495   2.232   8.132   9.462  0.0473 -0.6432 -0.4498
  145MOL0     C19496   2.194   8.038   9.556  0.3768  0.1841 -0.2415
  145MOL0     C19497   2.174   8.079   9.683  0.4802  0.8922  0.4606
  145MOL0     O19498   2.124   7.990   9.777  0.2735 -0.0445 -0.0878
  145MOL0     C19499   2.068   7.866   9.740  1.0266  0.2537 -0.6348
  145MOL0     C19500   2.013   7.801   9.874  0.6232 -0.8063 -0.1389
  145MOL0     C19501   2.150   7.752   9.946  0.1660  0.6736  0.4466
  145MOL0     C19502   2.154   7.624  10.032  0.7127  0.6437  0.2836
  145MOL0     C19503   2.100   7.511   9.964 -1.3733  0.5657 -0.9854
  145MOL0     C19504   2.038   7.424   9.904  0.0469 -0.7178  1.3092
  145MOL0     C19505   2.198   8.213   9.718 -0.0930  0.6596 -0.9801
  145MOL0     C19506   2.251   8.307   9.624 -0.4553 -1.1972 -0.4727
  145MOL0     C19507   2.263   8.450   9.663  0.1765 -0.0338 -0.5924
  145MOL0     H19508   2.162   8.495   9.123  0.4116  2.1545  0.8904
  145MOL0     H19509   2.220   8.599   8.900 -0.2360  2.3088  1.1472
  145MOL0     H19510   2.672   8.651   8.840  0.5600  0.2455  0.7049
  145MOL0     H19511   2.619   8.497   8.744  1.7172  0.1003  3.1619
  145MOL0     H19512   2.719   8.648   8.605 -0.1563 -0.0580  0.8148
  145MOL0     H19513   2.627   8.785   8.665  2.1469  0.5028 -1.4642
  145MOL0     H19514   2.415   8.645   8.566 -0.2403 -1.8735  0.1571
  145MOL0     H19515   2.554   8.556   8.491  0.4464  1.0419 -1.6965
  145MOL0     H19516   2.491   8.861   8.468 -1.4540 -0.6445  0.0825
  145MOL0     H19517   2.615   8.778   8.375  1.1112 -0.0062  2.1442
  145MOL0     H19518   2.474   8.631   8.261  0.6273  0.1687 -2.1758
  145MOL0     H19519   2.342   8.678   8.372 -0.2852  4.2166  1.5583
  145MOL0     H19520   2.323   8.741   8.135  1.0890  0.5538 -1.3355
  145MOL0     H19521   2.309   8.878   8.253 -1.0832 -1.7465 -1.0165
  145MOL0     H19522   2.512   8.787   8.058 -3.5126 -2.1253 -0.1144
  145MOL0     H19523   2.558   8.919   8.175  1.0087 -1.5916  0.6545
  145MOL0     H19524   2.452   8.995   7.942 -2.8330  1.7823 -1.3421
  145MOL0     H19525   2.301   8.949   8.016  0.5391 -0.7263  0.2498
  145MOL0     H19526   2.187   9.112   8.176  0.2684 -0.3237 -1.7751
  145MOL0     H19527   2.150   9.392   8.259 -1.5105 -2.8871  2.3206
  145MOL0     H19528   2.226   9.340   8.400 -1.7442  3.3374  0.6715
  145MOL0     H19529   2.413   9.506   8.349 -0.2155 -0.2667  2.6575
  145MOL0     H19530   2.316   9.571   8.218 -4.2338  1.6088  1.7675
  145MOL0     H19531   2.245   9.550   8.504  0.8445  1.4420  1.1274
  145MOL0     H19532   2.121   9.585   8.387  0.0718  1.1245  1.8470
  145MOL0     H19533   2.223   9.807   8.368 -1.8009 -2.0262 -0.3201
  145MOL0     H19534   2.380   9.732   8.411  0.4265  1.9894  0.7822
  145MOL0     H19535   2.022   9.847   8.420  0.7878 -0.8982  0.1308
  145MOL0     H19536   1.790   9.794   8.484  0.2576  0.5960  0.4177
  145MOL0     H19537   1.393   9.857   8.516  0.9423 -1.7719 -1.3155
  145MOL0     H19538   1.152   9.841   8.558  1.8256  4.8066  0.0986
  145MOL0     H19539   0.970   9.898   8.810  0.5473  1.4079 -1.4258
  145MOL0     H19540   0.939   9.894   8.626  2.2734 -0.9633 -0.3610
  145MOL0     H19541   0.733   9.855   8.655 -1.2288 -2.2792 -0.5744
  145MOL0     H19542   0.782   9.699   8.677 -2.1789  1.2277 -2.3995
  145MOL0     H19543   0.801   9.741   8.934  1.0964  0.0623 -0.7382
  145MOL0     H19544   0.758   9.896   8.907 -0.9463  0.3971 -0.1941
  145MOL0     H19545   0.571   9.727   8.974  0.7914  0.2169 -0.0492
  145MOL0     H19546   0.584   9.675   8.812 -2.2965 -0.0638 -0.0757
  145MOL0     H19547   0.555   9.938   8.761  3.9293 -0.8776  1.1314
  145MOL0     H19548   0.486   9.942   8.920  1.7157  0.2855 -0.9250
  145MOL0     H19549   0.407   9.765   8.693 -0.8651  1.4999 -0.0279
  145MOL0     H19550   0.331   9.755   8.842  1.3144  0.5354  1.5425
  145MOL0     H19551   0.194   9.876   8.683  1.2693 -2.2790 -1.2519
  145MOL0     H19552   0.315   9.989   8.656 -1.6857 -2.0304 -3.0678
  145MOL0     H19553   0.108  10.036   8.836 -0.0564 -0.6261  1.0532
  145MOL0     H19554   0.199   9.940   8.944 -0.8626  0.4078  0.5104
  145MOL0     H19555   1.210   9.574   8.869  1.2798 -3.1083 -2.1613
  145MOL0     H19556   1.455   9.574   8.840  2.1006  0.1828 -1.2207
  145MOL0     H19557   1.914   9.698   8.877  4.2363 -0.6889  1.0130
  145MOL0     H19558   2.153   9.758   8.820  0.4331 -2.6356 -0.0564
  145MOL0     H19559   2.604   8.398   8.918 -0.0797  0.6298 -0.7603
  145MOL0     H19560   2.523   8.254   9.102 -1.1800  0.4139  0.0210
  145MOL0     H19561   2.235   8.097   9.359 -2.1388 -2.6893  0.0904
  145MOL0     H19562   2.182   7.935   9.521  2.1794 -0.0217 -0.3283
  145MOL0     H19563   2.134   7.790   9.696 -0.9612 -0.4176 -2.6175
  145MOL0     H19564   1.982   7.878   9.675  1.1225  0.0257 -0.8052
  145MOL0     H19565   1.950   7.716   9.843 -2.4076  0.2964  2.5095
  145MOL0     H19566   1.952   7.876   9.925  0.8965  2.7288 -4.4101
  145MOL0     H19567   2.177   7.834  10.014 -3.2428  2.2069  0.1412
  145MOL0     H19568   2.232   7.732   9.876  2.5558  2.0161  2.6426
  145MOL0     H19569   2.259   7.601  10.052  0.7706 -0.4494 -1.0710
  145MOL0     H19570   2.101   7.639  10.126 -2.2224 -0.3985 -1.0760
  145MOL0     H19571   1.965   7.356   9.864 -1.6301  0.6544  1.8968
  145MOL0     H19572   2.185   8.239   9.822 -3.0944 -1.8468 -0.5917
  145MOL0     H19573   2.369   8.475   9.670  0.3243 -0.9964  1.3070
  145MOL0     H19574   2.220   8.506   9.580  2.0816 -1.2929 -2.5212
  145MOL0     H19575   2.214   8.490   9.752  1.2854 -1.7637  0.8684
  146MOL0     O19576   8.520  10.816   3.927  0.0267 -0.4633 -0.3889
  146MOL0     C19577   8.563  10.733   4.008 -0.5863 -0.1325 -0.4247
  146MOL0     O19578   8.673  10.750   4.088 -0.2845 -0.2067  0.4535
  146MOL0     C19579   8.735  10.867   4.102  0.3301 -0.6445  0.5050
  146MOL0     C19580   8.873  10.843   4.123 -0.4895  0.5244 -0.2761
  146MOL0     C19581   8.953  10.950   4.165 -0.6774  0.1315 -0.0708
  146MOL0     C19582   8.904  11.078   4.165 -0.5687 -0.2593 -1.0685
  146MOL0     O19583   8.993  11.177   4.194  0.6549 -0.1459  0.2023
  146MOL0     C19584   8.953  11.294   4.275 -0.3097  0.3861  0.2856
  146MOL0     C19585   9.087  11.352   4.334 -0.4618  0.0329  0.8147
  146MOL0     C19586   9.162  11.258   4.436  0.0304  0.2336  0.3479
  146MOL0     C19587   9.070  11.205   4.550  0.1372  0.5265 -0.2581
  146MOL0     C19588   9.020  11.317   4.630 -0.2673 -0.1866 -0.8776
  146MOL0     C19589   9.130  11.378   4.719 -1.1644 -0.4258  0.8669
  146MOL0     C19590   9.087  11.513   4.792 -0.4204 -0.8470  0.8829
  146MOL0     C19591   9.108  11.621   4.689 -0.3302 -0.4272  0.3305
  146MOL0     N19592   8.998  11.716   4.688 -0.1881  0.6120  0.4651
  146MOL0     C19593   8.975  11.812   4.786 -0.4463  0.7407  0.5414
  146MOL0     C19594   8.862  11.877   4.750 -0.3417 -0.5025  0.2690
  146MOL0     C19595   8.800  11.990   4.840  0.6562 -0.8349  1.1040
  146MOL0     C19596   8.653  12.035   4.801 -0.2655  0.5555  1.0553
  146MOL0     C19597   8.541  11.925   4.805  0.3756  0.7115 -1.0947
  146MOL0     C19598   8.398  11.970   4.822  0.6594 -0.0749  0.6362
  146MOL0     O19599   8.338  12.040   4.714 -0.1516 -0.2540  0.5578
  146MOL0     C19600   8.266  11.980   4.610  0.1126  0.2043 -0.2205
  146MOL0     C19601   8.162  12.053   4.541 -0.0611 -0.0562  0.5582
  146MOL0     C19602   8.095  12.002   4.444  0.7624  1.2219  0.3468
  146MOL0     C19603   8.114  11.865   4.406  0.6096 -0.3796 -0.0776
  146MOL0     C19604   8.032  11.821   4.290 -0.7346  0.2191  0.4969
  146MOL0     O19605   7.911  11.879   4.260 -0.3318 -0.6501  0.5367
  146MOL0     C19606   7.840  11.830   4.159  0.7214 -0.1208  0.9332
  146MOL0     C19607   7.809  11.695   4.170  0.4746 -0.2183  0.2293
  146MOL0     C19608   7.744  11.641   4.054  0.5375  0.1526  1.4304
  146MOL0     C19609   7.720  11.720   3.934  0.2016  0.1535  0.8636
  146MOL0     O19610   7.671  11.664   3.818  0.0267  1.1179  0.7060
  146MOL0     C19611   7.537  11.703   3.775  0.4470  0.3459 -0.7842
  146MOL0     C19612   7.489  11.591   3.673 -0.8969 -0.2632 -0.0673
  146MOL0     C19613   7.400  11.487   3.733  0.3407  0.2781  0.2803
  146MOL0     C19614   7.246  11.524   3.718 -0.1480 -0.8857  0.7806
  146MOL0     C19615   7.153  11.408   3.745  0.3610  0.0658  0.2951
  146MOL0     C19616   7.048  11.463   3.850 -0.5806 -0.9691  0.0741
  146MOL0     C19617   6.969  11.345   3.913 -0.2859  0.3491  0.4034
  146MOL0     C19618   6.841  11.397   3.978  0.2111 -0.6887  0.5352
  146MOL0    Cl19619   6.744  11.518   3.873  0.1824 -0.0106  0.2933
  146MOL0     C19620   7.754  11.856   3.944  0.4655 -0.4555  0.9098
  146MOL0     C19621   7.806  11.912   4.052 -0.9843 -0.6781  0.2709
  146MOL0     O19622   8.085  11.729   4.230  0.0946  0.0166 -0.0185
  146MOL0     C19623   8.209  11.792   4.474 -0.3921  0.2155 -0.3128
  146MOL0     C19624   8.285  11.846   4.575  0.4579 -1.0027  0.3461
  146MOL0     N19625   8.813  11.821   4.631 -0.0934  0.2654  0.0277
  146MOL0     N19626   8.897  11.731   4.593 -0.2547 -0.2135 -0.5962
  146MOL0     C19627   8.767  11.102   4.140 -0.3686  0.3869 -0.0752
  146MOL0     C19628   8.680  10.997   4.101  0.6122  0.1444  0.6163
  146MOL0     C19629   8.492  10.599   4.010  0.5072  0.2402  0.6341
  146MOL0     C19630   8.365  10.583   3.938  0.0172  0.4674  0.4433
  146MOL0     C19631   8.287  10.467   3.933 -0.5792  0.0450 -0.0913
  146MOL0     C19632   8.327  10.357   4.017 -0.7452  0.5085 -0.1149
  146MOL0     O19633   8.255  10.245   4.043  0.8052  0.0526  0.7668
  146MOL0     C19634   8.114  10.228   3.994  0.4874 -1.0565 -0.2273
  146MOL0     C19635   8.039  10.122   4.069 -0.5054  0.2534 -0.5386
  146MOL0     C19636   8.087   9.974   4.019 -0.4266  0.5001  0.6018
  146MOL0     C19637   8.013   9.866   4.107  0.3129  0.1052 -0.3261
  146MOL0     C19638   7.863   9.875   4.088  0.1604  0.7544 -0.2860
  146MOL0     C19639   7.746   9.887   4.080  0.7956 -0.0130 -0.0844
  146MOL0     C19640   8.457  10.359   4.068 -1.0333  0.1559 -0.3599
  146MOL0     C19641   8.536  10.478   4.068  0.9847  0.1827 -0.7656
  146MOL0     C19642   8.682  10.456   4.105  0.9375 -0.6885 -0.2737
  146MOL0     H19643   8.908  10.740   4.126  1.0056  1.0120  0.1746
  146MOL0     H19644   9.057  10.930   4.189 -1.2366  1.2030  3.8498
  146MOL0     H19645   8.902  11.363   4.209  1.0190 -1.0355 -2.4062
  146MOL0     H19646   8.886  11.265   4.357 -0.6048  0.1811 -0.0274
  146MOL0     H19647   9.075  11.459   4.356 -2.9418  0.0028 -0.0684
  146MOL0     H19648   9.166  11.354   4.259  0.4561  1.2723  1.7583
  146MOL0     H19649   9.252  11.298   4.483 -1.5607  2.6393  1.4952
  146MOL0     H19650   9.192  11.171   4.376  0.9560  0.5387  0.3587
  146MOL0     H19651   8.979  11.152   4.519 -2.4094  3.0214  2.4200
  146MOL0     H19652   9.128  11.141   4.618 -2.2855  0.3149  1.7377
  146MOL0     H19653   8.972  11.403   4.584  0.1881  2.0971  2.5409
  146MOL0     H19654   8.945  11.282   4.701  3.2346  1.2822  4.1531
  146MOL0     H19655   9.156  11.308   4.799  0.6449  1.8222  2.3980
  146MOL0     H19656   9.221  11.395   4.660 -0.9762 -0.5161  1.1330
  146MOL0     H19657   9.147  11.539   4.880  1.6601  1.2321 -1.0200
  146MOL0     H19658   8.981  11.511   4.817 -0.6604 -1.0850 -0.1252
  146MOL0     H19659   9.198  11.674   4.721 -1.3654  0.4586  1.8963
  146MOL0     H19660   9.126  11.582   4.588 -2.1217 -1.1182  0.2528
  146MOL0     H19661   9.029  11.820   4.880  0.3857  1.3287  0.0257
  146MOL0     H19662   8.803  11.958   4.945 -2.9818  3.0247  2.6498
  146MOL0     H19663   8.854  12.085   4.833  0.1875 -0.6684 -0.7221
  146MOL0     H19664   8.613  12.109   4.870 -3.5815 -0.6160  0.5687
  146MOL0     H19665   8.666  12.065   4.697  2.2993 -2.2744  0.4258
  146MOL0     H19666   8.575  11.853   4.880  0.2413  0.4398 -1.2951
  146MOL0     H19667   8.549  11.871   4.710  0.8880  0.1887 -0.7588
  146MOL0     H19668   8.396  12.020   4.920  1.9080  1.7333 -0.2048
  146MOL0     H19669   8.337  11.881   4.836  1.8617 -0.9017  0.7533
  146MOL0     H19670   8.139  12.159   4.553  0.6821  0.0701  0.9012
  146MOL0     H19671   8.015  12.061   4.400 -1.7013 -1.4374  0.9365
  146MOL0     H19672   7.824  11.631   4.256 -0.4749 -1.7900 -0.7245
  146MOL0     H19673   7.702  11.544   4.029 -4.5071  2.9115 -2.8245
  146MOL0     H19674   7.483  11.685   3.869  2.0685 -0.3788  0.0670
  146MOL0     H19675   7.539  11.807   3.742  0.6812  0.1899 -1.2727
  146MOL0     H19676   7.433  11.637   3.591 -0.2814  0.9563  0.1627
  146MOL0     H19677   7.582  11.543   3.640 -1.4241 -2.5410  1.5548
  146MOL0     H19678   7.415  11.388   3.688  1.0564  1.3767 -2.0616
  146MOL0     H19679   7.428  11.483   3.839 -1.0936 -5.4712  0.7640
  146MOL0     H19680   7.227  11.553   3.614  1.4609  2.6315  1.2953
  146MOL0     H19681   7.220  11.614   3.776 -0.6226 -0.6271  0.1747
  146MOL0     H19682   7.201  11.318   3.786  0.4275 -0.4657 -0.9000
  146MOL0     H19683   7.095  11.380   3.656  0.3143  2.3773 -0.4441
  146MOL0     H19684   7.104  11.509   3.932 -0.1213 -0.6279 -0.4273
  146MOL0     H19685   6.993  11.549   3.811  1.8255 -0.2075 -1.8423
  146MOL0     H19686   7.027  11.291   3.988  1.1841  0.1376 -0.8261
  146MOL0     H19687   6.950  11.286   3.823  0.2712 -1.9802  1.7344
  146MOL0     H19688   6.784  11.305   3.994 -1.5140  0.6606  2.6388
  146MOL0     H19689   6.865  11.449   4.072 -0.6218  0.0873  0.3260
  146MOL0     H19690   7.749  11.916   3.853 -1.5626 -1.0562  0.5717
  146MOL0     H19691   7.851  12.011   4.045 -1.7723 -0.2773  0.7752
  146MOL0     H19692   8.244  11.691   4.457  2.3633  0.9050  0.7263
  146MOL0     H19693   8.365  11.791   4.623  2.0592  1.1977  0.3652
  146MOL0     H19694   8.726  11.202   4.137 -0.4181  0.3500 -1.2841
  146MOL0     H19695   8.572  11.009   4.107 -0.0238 -4.3013  2.4328
  146MOL0     H19696   8.336  10.665   3.873  1.0211  1.4034  1.1344
  146MOL0     H19697   8.196  10.453   3.875  0.5024 -2.0672 -1.4271
  146MOL0     H19698   8.121  10.203   3.888  1.5841  1.2249 -0.7601
  146MOL0     H19699   8.065  10.326   3.998  0.1879 -1.2258  3.5578
  146MOL0     H19700   7.934  10.138   4.041 -0.3084  0.1064 -1.3791
  146MOL0     H19701   8.049  10.118   4.178  1.3751 -0.4665 -0.7072
  146MOL0     H19702   8.193   9.949   4.029 -0.3883  0.5469  0.3280
  146MOL0     H19703   8.064   9.963   3.913 -0.3355  0.2904  0.6038
  146MOL0     H19704   8.060   9.767   4.103  0.2102 -0.1636  2.7638
  146MOL0     H19705   8.034   9.898   4.210  4.3045 -1.5263 -0.4578
  146MOL0     H19706   7.640   9.894   4.062  1.0968  2.5232 -1.3536
  146MOL0     H19707   8.472  10.270   4.129 -0.3222  1.0088  0.7360
  146MOL0     H19708   8.709  10.470   4.210 -1.5352 -4.4346  1.0893
  146MOL0     H19709   8.703  10.352   4.078  1.7685 -0.2374 -1.4408
  146MOL0     H19710   8.755  10.517   4.051  2.2146  1.0425  3.1445
  147MOL0     O19711   1.713   6.196   9.509 -0.1972 -0.0956 -0.1117
  147MOL0     C19712   1.706   6.308   9.563  0.6070  0.8001  1.2897
  147MOL0     O19713   1.707   6.331   9.693 -0.2885  0.0717 -0.3470
  147MOL0     C19714   1.727   6.223   9.781  0.3106  0.4025 -0.5727
  147MOL0     C19715   1.854   6.164   9.790  0.6824 -0.1477  0.6802
  147MOL0     C19716   1.885   6.056   9.883  0.0279  0.0669  0.1534
  147MOL0     C19717   1.784   6.006   9.967  0.1721 -0.6516 -1.0950
  147MOL0     O19718   1.807   5.912  10.069 -0.2560 -1.0055 -0.5950
  147MOL0     C19719   1.930   5.839  10.085  0.2018  0.8831 -0.7253
  147MOL0     C19720   1.922   5.735  10.205  0.8199 -0.0378  0.1643
  147MOL0     C19721   1.789   5.661  10.211  0.1651  0.6498  0.1808
  147MOL0     C19722   1.770   5.568  10.101  0.4737 -0.4293  0.1820
  147MOL0     C19723   1.634   5.486  10.098 -0.2175 -0.3686 -0.2593
  147MOL0     C19724   1.625   5.370  10.198  0.5799  0.7767 -0.9949
  147MOL0     C19725   1.481   5.335  10.226 -0.9497  0.6935 -0.1626
  147MOL0     C19726   1.476   5.227  10.345  0.4570 -0.1586  0.1472
  147MOL0     N19727   1.556   5.114  10.314 -0.4247  0.6550  0.1757
  147MOL0     C19728   1.514   5.000  10.249 -0.2453  1.4436 -0.2029
  147MOL0     C19729   1.600   4.900  10.275  0.8078  0.7871 -0.0857
  147MOL0     C19730   1.578   4.763  10.224  0.4571 -0.0344 -0.2905
  147MOL0     C19731   1.696   4.705  10.153  0.2966  0.0734 -0.1030
  147MOL0     C19732   1.720   4.767  10.022  0.1002 -0.1602  0.3514
  147MOL0     C19733   1.796   4.673   9.930  1.2182  0.5133 -0.0601
  147MOL0     O19734   1.752   4.700   9.796  0.0024 -0.5115  1.1276
  147MOL0     C19735   1.776   4.611   9.694  0.0236 -0.4458  1.0240
  147MOL0     C19736   1.705   4.623   9.572  0.3971  0.5156 -0.0382
  147MOL0     C19737   1.744   4.549   9.456  0.6540  0.3419  0.6223
  147MOL0     C19738   1.831   4.442   9.471  1.2712 -0.0912 -0.0081
  147MOL0     C19739   1.858   4.362   9.354 -0.5538 -0.8596 -0.1382
  147MOL0     O19740   1.910   4.236   9.384 -0.1051 -0.4534  0.3612
  147MOL0     C19741   1.910   4.137   9.281  0.7121 -0.2570  0.5816
  147MOL0     C19742   1.797   4.091   9.230 -0.1068  0.8316  0.0166
  147MOL0     C19743   1.794   3.976   9.139  0.1528  0.4608 -0.0752
  147MOL0     C19744   1.917   3.932   9.084 -0.7481 -0.5129 -0.2332
  147MOL0     O19745   1.914   3.838   8.986  0.0257 -0.3315  0.5652
  147MOL0     C19746   2.035   3.805   8.923  0.1542  0.2373  0.9577
  147MOL0     C19747   1.983   3.738   8.794  0.2672  0.6125  0.3879
  147MOL0     C19748   2.103   3.696   8.711 -0.2726  0.7225 -0.4222
  147MOL0     C19749   2.166   3.572   8.764 -0.6038  0.0245 -0.1285
  147MOL0     C19750   2.296   3.531   8.689  0.5879 -0.2115  0.5413
  147MOL0     C19751   2.265   3.498   8.539  0.2052  0.2593  0.5138
  147MOL0     C19752   2.372   3.394   8.494  0.4334  0.4631 -0.2075
  147MOL0     C19753   2.351   3.376   8.340  0.1919 -0.3224  0.4077
  147MOL0    Cl19754   2.180   3.341   8.308  0.5736  0.3141 -0.0225
  147MOL0     C19755   2.038   3.986   9.139 -0.8635  0.5738  0.9787
  147MOL0     C19756   2.037   4.086   9.238  0.5576  0.1423  1.4179
  147MOL0     O19757   1.847   4.412   9.243 -0.0700  0.1608  0.1238
  147MOL0     C19758   1.882   4.420   9.606 -0.7431 -0.6335 -0.4048
  147MOL0     C19759   1.860   4.501   9.715 -0.0280  0.7368  0.1284
  147MOL0     N19760   1.699   4.952  10.348 -0.9368 -1.5291  0.0259
  147MOL0     N19761   1.678   5.082  10.374  0.3559 -0.2549 -0.2920
  147MOL0     C19762   1.662   6.068   9.961 -0.2911 -0.7296 -0.4093
  147MOL0     C19763   1.636   6.178   9.870  0.4131  0.5193 -1.2572
  147MOL0     C19764   1.678   6.418   9.468 -0.1627 -0.4490  0.4466
  147MOL0     C19765   1.589   6.390   9.361  0.0213 -0.1626 -0.2378
  147MOL0     C19766   1.559   6.490   9.277 -0.0169 -0.5807  0.1120
  147MOL0     C19767   1.614   6.621   9.290 -0.4524 -0.1187  0.2886
  147MOL0     O19768   1.556   6.706   9.199  1.3552 -0.0948 -0.0497
  147MOL0     C19769   1.570   6.849   9.236 -0.4265  0.2423 -0.0091
  147MOL0     C19770   1.483   6.876   9.360  0.4199  0.4192 -0.1017
  147MOL0     C19771   1.459   7.028   9.384  0.2941  0.1920  0.0285
  147MOL0     C19772   1.574   7.129   9.422 -0.3473  0.3991 -0.3493
  147MOL0     C19773   1.642   7.073   9.545 -0.7529 -0.7265  0.1086
  147MOL0     C19774   1.720   7.049   9.637 -1.0609  0.3787 -0.1360
  147MOL0     C19775   1.706   6.650   9.390 -0.0975  1.1222 -0.1500
  147MOL0     C19776   1.739   6.550   9.473 -0.0166  1.0236 -1.1266
  147MOL0     C19777   1.852   6.585   9.572 -0.2194  0.8417 -0.1178
  147MOL0     H19778   1.930   6.200   9.721 -0.2364  0.1379 -0.2182
  147MOL0     H19779   1.988   6.024   9.876 -0.7501 -2.3116 -1.7728
  147MOL0     H19780   1.963   5.775  10.003 -3.2305  0.0677 -1.6230
  147MOL0     H19781   2.004   5.914  10.117  0.0495 -0.3345  3.0530
  147MOL0     H19782   1.920   5.775  10.307 -5.8043 -0.6110  0.6847
  147MOL0     H19783   1.997   5.657  10.189  0.1786 -0.2523 -2.2015
  147MOL0     H19784   1.695   5.716  10.204  0.4979  1.1740 -0.2612
  147MOL0     H19785   1.787   5.616  10.310  2.0176  1.1093  0.4543
  147MOL0     H19786   1.764   5.630  10.011 -1.5875 -0.9172 -0.0522
  147MOL0     H19787   1.853   5.497  10.091  1.9523  1.3475 -0.8575
  147MOL0     H19788   1.559   5.561  10.123 -2.8827 -1.3110 -4.5107
  147MOL0     H19789   1.611   5.449   9.998  0.7118 -3.7983  0.6621
  147MOL0     H19790   1.665   5.276  10.158 -5.5441 -1.1498 -3.7096
  147MOL0     H19791   1.666   5.407  10.293  2.0391 -1.1324 -0.8011
  147MOL0     H19792   1.430   5.277  10.149  1.6786 -3.1532  0.7099
  147MOL0     H19793   1.422   5.421  10.260 -3.7461 -1.5081  0.9765
  147MOL0     H19794   1.522   5.265  10.437  0.5325 -1.5145  0.6915
  147MOL0     H19795   1.375   5.203  10.381 -0.1867  1.9658 -0.0905
  147MOL0     H19796   1.420   4.977  10.199  0.3354 -0.9512 -0.3302
  147MOL0     H19797   1.544   4.708  10.312  1.6666  0.4645  0.5098
  147MOL0     H19798   1.495   4.762  10.153 -0.2596 -0.5423  0.5301
  147MOL0     H19799   1.785   4.730  10.212 -0.8468  3.0286  0.5411
  147MOL0     H19800   1.704   4.596  10.153  2.0410  0.1417  1.6514
  147MOL0     H19801   1.770   4.864  10.025  2.0580 -1.1256  0.8449
  147MOL0     H19802   1.625   4.795   9.974  0.3057  5.0398  2.3194
  147MOL0     H19803   1.772   4.569   9.955 -0.4588  1.5321  3.1523
  147MOL0     H19804   1.903   4.684   9.947  0.7311  1.0367  3.6659
  147MOL0     H19805   1.633   4.704   9.567 -0.5097 -0.2279  0.5722
  147MOL0     H19806   1.691   4.570   9.364  0.2466 -1.7313  0.3360
  147MOL0     H19807   1.710   4.153   9.241 -1.0600 -0.1874 -1.4004
  147MOL0     H19808   1.699   3.940   9.100 -0.1477  2.2083 -1.0495
  147MOL0     H19809   2.098   3.884   8.882 -0.2014  0.2465  0.4173
  147MOL0     H19810   2.102   3.742   8.983  0.0812 -1.6318 -0.8479
  147MOL0     H19811   1.932   3.647   8.829  3.7249 -0.5655  2.9481
  147MOL0     H19812   1.918   3.804   8.735 -3.4380 -2.3952  0.7075
  147MOL0     H19813   2.063   3.677   8.611 -4.4770  0.8159  1.0195
  147MOL0     H19814   2.169   3.781   8.694 -2.2081  2.9407  2.1820
  147MOL0     H19815   2.093   3.491   8.764  0.7711 -1.2595 -0.1523
  147MOL0     H19816   2.186   3.584   8.871 -0.1767  1.2015 -0.3247
  147MOL0     H19817   2.342   3.443   8.735 -0.0681 -2.0835 -2.1542
  147MOL0     H19818   2.373   3.609   8.698  1.4725 -0.6391 -2.2043
  147MOL0     H19819   2.164   3.458   8.522 -0.8823  3.5307 -1.7370
  147MOL0     H19820   2.280   3.588   8.478 -1.8305  0.0891 -0.3186
  147MOL0     H19821   2.357   3.299   8.545 -0.0986  0.7528  0.1915
  147MOL0     H19822   2.474   3.428   8.514  1.1539 -0.4808 -2.0698
  147MOL0     H19823   2.392   3.460   8.283  2.0041 -0.7912  0.9409
  147MOL0     H19824   2.410   3.286   8.316  0.3800  0.3131 -1.7816
  147MOL0     H19825   2.129   3.934   9.109  0.4899  0.6911  4.4644
  147MOL0     H19826   2.134   4.113   9.278  1.2866  0.0665 -0.2047
  147MOL0     H19827   1.951   4.338   9.624  0.5630  0.9076  2.2388
  147MOL0     H19828   1.912   4.492   9.810  1.5087 -1.8263 -0.8396
  147MOL0     H19829   1.579   6.039  10.026  0.6261 -0.7005  0.8090
  147MOL0     H19830   1.547   6.240   9.866  2.3335  3.7220  0.5491
  147MOL0     H19831   1.550   6.289   9.346 -2.6083  0.2443  2.8511
  147MOL0     H19832   1.480   6.473   9.204  2.0645  0.4747 -2.4983
  147MOL0     H19833   1.531   6.912   9.156 -3.0857 -0.2183  0.8208
  147MOL0     H19834   1.670   6.886   9.259 -1.9795  5.2947 -0.1803
  147MOL0     H19835   1.528   6.841   9.453 -0.9878  0.5097  0.6468
  147MOL0     H19836   1.395   6.813   9.341 -0.7981  1.1122  2.7415
  147MOL0     H19837   1.379   7.033   9.460  0.6548 -2.3987  0.6580
  147MOL0     H19838   1.421   7.063   9.288  1.3521 -2.5502 -1.4784
  147MOL0     H19839   1.643   7.134   9.337 -0.9769 -1.8860 -1.0595
  147MOL0     H19840   1.540   7.232   9.438 -1.3039  0.2101 -1.0683
  147MOL0     H19841   1.787   7.024   9.717  0.0480 -1.0037 -1.4449
  147MOL0     H19842   1.747   6.751   9.391 -3.1491  2.4564 -0.1032
  147MOL0     H19843   1.833   6.659   9.650 -2.2180  1.0430 -0.7401
  147MOL0     H19844   1.877   6.486   9.613  1.2614  1.3173  0.1850
  147MOL0     H19845   1.941   6.623   9.522 -1.5352  0.9565 -2.4741
  148MOL0     O19846   9.092   0.107  10.901  0.1210  0.7380  0.9134
  148MOL0     C19847   9.176   0.150  10.976 -0.2500  0.4098  0.0879
  148MOL0     O19848   9.231   0.081  11.079 -0.7630 -0.5356  0.3948
  148MOL0     C19849   9.159  -0.019  11.133 -0.2591  0.9164 -0.0338
  148MOL0     C19850   9.120  -0.132  11.061 -0.3132 -0.3310  1.0776
  148MOL0     C19851   9.042  -0.236  11.117  0.6145  0.2552 -0.1017
  148MOL0     C19852   8.993  -0.220  11.248 -0.1326 -0.0918  0.1449
  148MOL0     O19853   8.916  -0.317  11.309 -0.2038 -0.5590 -0.1309
  148MOL0     C19854   8.799  -0.353  11.226  0.1462 -0.0575  0.6131
  148MOL0     C19855   8.799  -0.507  11.217  0.2003 -0.2714 -0.1104
  148MOL0     C19856   8.744  -0.568  11.085 -0.1830  0.3243 -0.4481
  148MOL0     C19857   8.828  -0.540  10.957  0.5291 -0.3768 -0.3067
  148MOL0     C19858   8.788  -0.618  10.827 -0.4799  0.2893 -0.3156
  148MOL0     C19859   8.808  -0.768  10.837 -0.4966  0.2119  0.4365
  148MOL0     C19860   8.797  -0.831  10.699  0.4211  0.0231  0.4572
  148MOL0     C19861   8.817  -0.980  10.703 -0.3262 -0.2850 -0.0100
  148MOL0     N19862   8.767  -1.052  10.586 -0.0766  0.9677  0.0220
  148MOL0     C19863   8.763  -1.028  10.456  0.0538 -0.2301  0.0639
  148MOL0     C19864   8.672  -1.110  10.401  0.0518  0.6199  0.2632
  148MOL0     C19865   8.616  -1.089  10.257  0.3254  0.4111 -0.6577
  148MOL0     C19866   8.562  -1.219  10.194 -0.0476  0.0362  0.4658
  148MOL0     C19867   8.672  -1.335  10.210 -0.0171 -0.0236  0.4289
  148MOL0     C19868   8.624  -1.461  10.147 -0.2683  0.1522 -0.4074
  148MOL0     O19869   8.634  -1.453   9.999 -0.3300 -0.3182 -0.1374
  148MOL0     C19870   8.616  -1.567   9.922  0.0566 -0.2900  0.0596
  148MOL0     C19871   8.565  -1.683   9.976  0.3424 -0.7410 -0.0158
  148MOL0     C19872   8.517  -1.783   9.885  0.3873  0.1445 -0.4905
  148MOL0     C19873   8.538  -1.783   9.743  0.2858 -1.2416 -0.0595
  148MOL0     C19874   8.485  -1.879   9.649 -0.0491 -0.5625 -0.0836
  148MOL0     O19875   8.453  -1.841   9.523 -0.2358  0.3345 -0.2088
  148MOL0     C19876   8.340  -1.897   9.465 -0.0565  0.2913  0.0334
  148MOL0     C19877   8.344  -1.920   9.327  1.0599 -0.6600  0.4340
  148MOL0     C19878   8.252  -1.993   9.251  0.4303 -0.2246 -0.4183
  148MOL0     C19879   8.142  -2.043   9.318  0.3820 -0.7359  0.8829
  148MOL0     O19880   8.032  -2.105   9.260  0.2188  0.5490 -0.5451
  148MOL0     C19881   7.990  -2.055   9.135  0.2766 -0.1037  0.6861
  148MOL0     C19882   7.888  -2.154   9.083 -0.0391  0.3054  0.3437
  148MOL0     C19883   7.944  -2.275   9.009  0.6111 -1.2350 -0.3538
  148MOL0     C19884   7.827  -2.373   8.985  0.7772  0.2576  0.6843
  148MOL0     C19885   7.881  -2.489   8.901 -0.0778  0.3499 -0.1107
  148MOL0     C19886   7.939  -2.604   9.001  0.1709 -0.2370  0.5509
  148MOL0     C19887   8.020  -2.708   8.929 -0.0265  0.6060 -0.5974
  148MOL0     C19888   8.097  -2.779   9.046 -0.2152  0.4071 -0.0184
  148MOL0    Cl19889   8.207  -2.905   8.979  0.4988  0.2893  0.2450
  148MOL0     C19890   8.142  -2.027   9.453  1.2524  1.0207  0.7740
  148MOL0     C19891   8.234  -1.968   9.529 -0.6614 -0.0478  0.3036
  148MOL0     O19892   8.451  -1.978   9.704  0.0674  0.5888 -1.1982
  148MOL0     C19893   8.612  -1.663   9.698 -0.2697 -0.0158 -0.6851
  148MOL0     C19894   8.639  -1.556   9.783  1.2833  0.0473  0.0964
  148MOL0     N19895   8.629  -1.196  10.502 -0.2203  0.2572  0.6809
  148MOL0     N19896   8.685  -1.161  10.615 -0.2810 -0.0544  0.9674
  148MOL0     C19897   9.026  -0.110  11.324  0.0318  0.5137 -0.8273
  148MOL0     C19898   9.111  -0.012  11.269  0.5371  0.1927  0.4044
  148MOL0     C19899   9.239   0.281  10.938 -0.2473 -0.0419 -1.0103
  148MOL0     C19900   9.184   0.343  10.822  0.0709  0.2083 -1.2029
  148MOL0     C19901   9.248   0.457  10.774  1.0191 -0.2013 -0.2343
  148MOL0     C19902   9.350   0.518  10.840  0.7422  0.2236  0.3356
  148MOL0     O19903   9.402   0.637  10.798  0.0283 -0.0182 -0.0115
  148MOL0     C19904   9.371   0.696  10.673  0.4031 -0.2405  0.0250
  148MOL0     C19905   9.450   0.817  10.633  0.2731  0.5464  0.4033
  148MOL0     C19906   9.602   0.796  10.607 -0.0338  0.4352  0.2608
  148MOL0     C19907   9.642   0.686  10.516 -0.5246 -0.8482  1.4773
  148MOL0     C19908   9.783   0.677  10.496  0.0822 -0.1100  0.8468
  148MOL0     C19909   9.897   0.655  10.514 -0.9411  0.5478  0.3113
  148MOL0     C19910   9.390   0.467  10.963  0.3393  0.4339 -0.6774
  148MOL0     C19911   9.342   0.346  11.012 -0.0211  0.3002 -0.5401
  148MOL0     C19912   9.408   0.298  11.135  0.9046  0.4231 -0.0227
  148MOL0     H19913   9.145  -0.136  10.956  0.2991 -0.2718  1.2180
  148MOL0     H19914   9.010  -0.323  11.061 -0.9047  0.7381 -0.0452
  148MOL0     H19915   8.704  -0.321  11.272 -0.2998  0.6926 -0.7717
  148MOL0     H19916   8.794  -0.307  11.127  1.7770  1.7454  1.3062
  148MOL0     H19917   8.730  -0.548  11.292  2.2554 -1.9180  0.9755
  148MOL0     H19918   8.899  -0.533  11.252 -0.0189  1.4078  2.0032
  148MOL0     H19919   8.640  -0.535  11.076 -1.1130 -2.1391  0.5820
  148MOL0     H19920   8.737  -0.676  11.095 -0.7078  0.1008 -2.6783
  148MOL0     H19921   8.813  -0.434  10.936 -2.7961 -0.3880  1.3851
  148MOL0     H19922   8.930  -0.569  10.984  1.5040  1.4572 -1.7877
  148MOL0     H19923   8.685  -0.592  10.799 -0.4034 -0.1202 -0.9990
  148MOL0     H19924   8.850  -0.565  10.753 -0.9919  0.0077 -0.9622
  148MOL0     H19925   8.901  -0.798  10.887 -0.3742 -0.1204  0.0179
  148MOL0     H19926   8.729  -0.805  10.902 -0.8560  2.2585  1.2633
  148MOL0     H19927   8.872  -0.785  10.634  0.5164 -1.2631 -0.3656
  148MOL0     H19928   8.692  -0.826  10.668  0.2762  0.1760  0.9561
  148MOL0     H19929   8.923  -1.004  10.708 -0.4018 -0.4568  1.1550
  148MOL0     H19930   8.770  -1.019  10.794  1.6104 -0.7404  0.8525
  148MOL0     H19931   8.795  -0.933  10.413 -0.2369 -1.1370 -2.3233
  148MOL0     H19932   8.536  -1.014  10.260 -0.3581 -0.1639 -2.7532
  148MOL0     H19933   8.696  -1.045  10.197 -0.4135  2.4699 -0.2189
  148MOL0     H19934   8.467  -1.235  10.246 -2.2515  0.7058 -2.9684
  148MOL0     H19935   8.537  -1.205  10.088 -0.5582 -2.2692  0.2318
  148MOL0     H19936   8.692  -1.354  10.316  0.5326  2.7927  0.9091
  148MOL0     H19937   8.774  -1.302  10.187 -0.2089  1.6338  1.7962
  148MOL0     H19938   8.530  -1.487  10.196 -0.7239  1.1225 -0.7451
  148MOL0     H19939   8.697  -1.534  10.184  1.4793  2.2001  0.4489
  148MOL0     H19940   8.565  -1.683  10.084  0.0468 -3.0664  0.0387
  148MOL0     H19941   8.473  -1.867   9.937  1.0473  0.6179  0.8862
  148MOL0     H19942   8.433  -1.869   9.290  0.1304  0.6256 -0.1098
  148MOL0     H19943   8.274  -2.007   9.146  1.1334 -1.3067 -0.1401
  148MOL0     H19944   7.944  -1.961   9.165  0.8013 -0.5429  3.0599
  148MOL0     H19945   8.072  -2.049   9.063  0.4278  1.3737  0.9620
  148MOL0     H19946   7.827  -2.182   9.170 -1.1091  0.5517 -0.2991
  148MOL0     H19947   7.810  -2.100   9.028 -2.3808 -2.4740  0.7068
  148MOL0     H19948   7.984  -2.242   8.913  1.3903  1.3317  0.7478
  148MOL0     H19949   8.029  -2.317   9.064 -0.4728 -0.7635  1.8299
  148MOL0     H19950   7.738  -2.324   8.946  0.8048 -0.3499 -0.1486
  148MOL0     H19951   7.815  -2.414   9.086  2.1346 -0.3763  0.6026
  148MOL0     H19952   7.963  -2.464   8.833  0.6426  0.0133  0.6045
  148MOL0     H19953   7.796  -2.525   8.843 -1.9064  0.5521  2.2921
  148MOL0     H19954   8.006  -2.553   9.070  4.1118 -2.5443 -1.2273
  148MOL0     H19955   7.867  -2.665   9.057  1.9633 -1.4213  1.6855
  148MOL0     H19956   8.089  -2.664   8.857  0.1123  1.3732 -0.0042
  148MOL0     H19957   7.956  -2.787   8.889 -1.4859  1.2403  0.3931
  148MOL0     H19958   8.163  -2.713   9.102 -2.8146  2.7496  0.5101
  148MOL0     H19959   8.034  -2.816   9.127  1.2132 -1.2975  0.3811
  148MOL0     H19960   8.064  -2.075   9.511  0.5086 -0.2707 -1.1901
  148MOL0     H19961   8.220  -1.967   9.636 -1.9173  2.2227  0.1848
  148MOL0     H19962   8.659  -1.670   9.600 -0.2469 -0.2878 -0.6546
  148MOL0     H19963   8.664  -1.461   9.737 -0.8140  1.3575  1.5133
  148MOL0     H19964   8.977  -0.101  11.421 -4.0442 -0.6018 -2.5772
  148MOL0     H19965   9.142   0.077  11.323 -0.6799 -0.0802  1.6067
  148MOL0     H19966   9.104   0.307  10.758  0.8190 -1.8074 -1.0612
  148MOL0     H19967   9.207   0.502  10.684 -1.8668 -1.6326  0.2100
  148MOL0     H19968   9.264   0.719  10.665  0.8039  1.3899 -0.9194
  148MOL0     H19969   9.407   0.618  10.605  1.8138 -1.1091  1.6821
  148MOL0     H19970   9.441   0.895  10.709  0.5147 -0.4200  1.4587
  148MOL0     H19971   9.414   0.864  10.542  1.8034  1.2083  0.1183
  148MOL0     H19972   9.654   0.775  10.702 -1.7347 -0.2315  1.0773
  148MOL0     H19973   9.642   0.893  10.577 -2.2221  1.2184 -0.2908
  148MOL0     H19974   9.605   0.592  10.557  2.8020 -2.7194  0.5821
  148MOL0     H19975   9.597   0.701  10.417  1.6137  1.3602  0.7130
  148MOL0     H19976  10.003   0.642  10.505 -1.3481 -2.3668 -1.2527
  148MOL0     H19977   9.477   0.504  11.016  2.1159 -3.4580 -0.5087
  148MOL0     H19978   9.469   0.212  11.106  0.8210  0.1465  0.5948
  148MOL0     H19979   9.489   0.359  11.177  1.9893 -1.4051  0.6417
  148MOL0     H19980   9.343   0.259  11.214  1.1209 -0.2233 -0.1629
  149MOL0     O19981   6.821   0.436   2.110  0.0387 -0.5430 -1.1825
  149MOL0     C19982   6.889   0.469   2.214  0.3102  0.1810 -0.5257
  149MOL0     O19983   6.830   0.517   2.327 -0.0147 -0.1622  0.0506
  149MOL0     C19984   6.690   0.544   2.327 -0.2740  0.7112 -0.9891
  149MOL0     C19985   6.579   0.500   2.248 -0.0547  0.2422 -0.5385
  149MOL0     C19986   6.447   0.537   2.282  0.3199  0.6794 -0.8289
  149MOL0     C19987   6.418   0.615   2.396  0.3017  0.3214  0.1267
  149MOL0     O19988   6.285   0.658   2.408 -0.0029  0.0211  0.5107
  149MOL0     C19989   6.242   0.697   2.538 -0.6347 -0.6558 -0.7657
  149MOL0     C19990   6.087   0.712   2.531  0.0298  0.7778  1.0965
  149MOL0     C19991   6.020   0.726   2.667  0.7436 -0.5620  0.2599
  149MOL0     C19992   5.868   0.740   2.668 -0.0944  0.1520 -0.8205
  149MOL0     C19993   5.802   0.876   2.632  0.3453  0.0986  0.0565
  149MOL0     C19994   5.649   0.866   2.648  0.4344 -0.2632  0.1005
  149MOL0     C19995   5.569   1.000   2.627  0.3421  0.1627  0.3137
  149MOL0     C19996   5.426   0.976   2.642  0.3622  1.0040  0.2207
  149MOL0     N19997   5.371   1.080   2.561  0.1927  0.3006  0.1804
  149MOL0     C19998   5.353   1.213   2.610 -0.1244 -0.3162 -0.2627
  149MOL0     C19999   5.312   1.276   2.498 -0.2869  0.1622 -0.5911
  149MOL0     C20000   5.294   1.426   2.503  0.9846 -0.6849 -0.0693
  149MOL0     C20001   5.147   1.453   2.554 -0.2261  0.1900 -0.6462
  149MOL0     C20002   5.118   1.598   2.534  0.2955  0.1966 -0.3258
  149MOL0     C20003   4.976   1.632   2.562 -0.7182 -0.2404  0.2433
  149MOL0     O20004   4.976   1.769   2.624 -0.0156 -0.4485  0.1895
  149MOL0     C20005   4.859   1.813   2.668  0.6713 -0.6199 -0.2535
  149MOL0     C20006   4.756   1.737   2.721  0.0690  0.4483  0.1935
  149MOL0     C20007   4.636   1.788   2.759 -1.3016 -0.0437 -0.3212
  149MOL0     C20008   4.618   1.927   2.755  0.6952  0.2785 -0.6391
  149MOL0     C20009   4.482   1.986   2.805 -0.4364 -0.7541  0.7256
  149MOL0     O20010   4.467   2.120   2.812  0.3881 -0.5601 -0.0203
  149MOL0     C20011   4.344   2.174   2.840 -0.6613  0.5194 -0.3947
  149MOL0     C20012   4.270   2.233   2.736  0.9927 -0.2492  0.1398
  149MOL0     C20013   4.148   2.291   2.758 -0.9671 -0.0813 -0.0595
  149MOL0     C20014   4.099   2.299   2.890 -0.9217  0.5083 -0.0934
  149MOL0     O20015   3.973   2.344   2.923  0.4717 -0.6443  0.4885
  149MOL0     C20016   3.878   2.363   2.815 -1.0833 -0.3259 -0.4011
  149MOL0     C20017   3.734   2.378   2.857 -0.3238 -0.6945  0.1957
  149MOL0     C20018   3.649   2.415   2.730  0.3133 -0.7876 -0.2249
  149MOL0     C20019   3.499   2.380   2.737  0.1307 -0.9315 -1.2651
  149MOL0     C20020   3.435   2.428   2.864  0.2591 -0.4744  0.1187
  149MOL0     C20021   3.475   2.576   2.906  0.6919  0.5204  0.0058
  149MOL0     C20022   3.438   2.595   3.056  0.1478  0.2545 -0.0621
  149MOL0     C20023   3.455   2.752   3.096  0.0219 -0.0498  0.3906
  149MOL0    Cl20024   3.352   2.863   2.993 -0.3948  0.3114 -0.4603
  149MOL0     C20025   4.178   2.254   2.995 -0.1274  0.1084  0.5522
  149MOL0     C20026   4.297   2.190   2.972 -0.7836  0.4015 -0.1072
  149MOL0     O20027   4.394   1.906   2.834 -0.1129  0.1720  0.0333
  149MOL0     C20028   4.717   2.005   2.710  1.4293 -0.4854  0.5906
  149MOL0     C20029   4.837   1.949   2.662 -0.5527  0.0478  0.0977
  149MOL0     N20030   5.297   1.183   2.397  0.6574  0.8189  0.0731
  149MOL0     N20031   5.335   1.074   2.430  0.0822 -0.4768  0.1940
  149MOL0     C20032   6.525   0.660   2.476  0.1310  0.7535 -0.0517
  149MOL0     C20033   6.652   0.624   2.441 -0.1514 -0.7509  0.0507
  149MOL0     C20034   7.044   0.491   2.211  0.3479  0.5669  1.4162
  149MOL0     C20035   7.096   0.576   2.306  0.0161  1.0110  0.5121
  149MOL0     C20036   7.236   0.606   2.308 -1.4115  0.0637 -0.0590
  149MOL0     C20037   7.320   0.543   2.224  0.3916 -0.3620 -0.1994
  149MOL0     O20038   7.445   0.583   2.242 -0.3950 -0.3899  0.2178
  149MOL0     C20039   7.542   0.507   2.170  0.1640  0.1606  0.9869
  149MOL0     C20040   7.675   0.587   2.188  0.3132  0.6179 -0.7780
  149MOL0     C20041   7.790   0.527   2.106  0.9311  0.2650 -0.5853
  149MOL0     C20042   7.905   0.625   2.125  0.3662  0.2924 -0.3886
  149MOL0     C20043   8.009   0.601   2.034  0.0730  0.1048 -0.2105
  149MOL0     C20044   8.096   0.587   1.951 -0.1646  1.3796  0.3741
  149MOL0     C20045   7.267   0.455   2.130 -0.8773 -0.9805  0.4734
  149MOL0     C20046   7.130   0.431   2.117 -0.4171 -0.5322  0.6581
  149MOL0     C20047   7.082   0.353   2.006 -0.0485 -0.0015 -0.0439
  149MOL0     H20048   6.592   0.448   2.153  0.9126  1.9503 -1.3874
  149MOL0     H20049   6.368   0.502   2.215  0.4250 -1.0183 -0.1020
  149MOL0     H20050   6.285   0.626   2.609 -0.4029 -2.3703 -2.5351
  149MOL0     H20051   6.266   0.802   2.556  2.0458 -1.5131  1.3741
  149MOL0     H20052   6.041   0.625   2.482  0.5824  1.6868 -1.1453
  149MOL0     H20053   6.068   0.798   2.466 -0.6573 -1.2790 -1.6400
  149MOL0     H20054   6.061   0.809   2.725 -0.7237 -0.9344  1.9228
  149MOL0     H20055   6.051   0.647   2.736 -0.8753  0.5589  2.3744
  149MOL0     H20056   5.823   0.659   2.610  0.6996 -2.0970  1.4932
  149MOL0     H20057   5.836   0.726   2.772  0.9403  2.3382 -0.1450
  149MOL0     H20058   5.859   0.949   2.690  2.2916 -2.5538  1.7679
  149MOL0     H20059   5.813   0.907   2.528  2.9748  1.6898  0.6995
  149MOL0     H20060   5.621   0.787   2.577  1.0905 -1.2080  0.8498
  149MOL0     H20061   5.641   0.827   2.750  2.5950 -1.2035 -0.0221
  149MOL0     H20062   5.594   1.036   2.527 -1.1935  0.9208  0.1759
  149MOL0     H20063   5.608   1.073   2.699 -0.4312  0.2067  0.7011
  149MOL0     H20064   5.398   0.882   2.593  0.7265  0.9016  0.2068
  149MOL0     H20065   5.400   0.973   2.748  2.8493 -2.4017  0.8825
  149MOL0     H20066   5.372   1.252   2.709 -3.1173 -2.0819  1.1490
  149MOL0     H20067   5.379   1.480   2.546 -0.1228  1.2254 -0.1743
  149MOL0     H20068   5.292   1.473   2.404  0.5850  1.6557  1.0098
  149MOL0     H20069   5.073   1.385   2.511 -0.1757  0.4627 -1.1764
  149MOL0     H20070   5.161   1.439   2.661 -2.9312  2.4616  0.1293
  149MOL0     H20071   5.142   1.630   2.432  0.5324 -0.0745 -0.3561
  149MOL0     H20072   5.175   1.655   2.607 -0.1820 -1.2529  1.2283
  149MOL0     H20073   4.931   1.556   2.626 -1.3906  0.2217  0.3279
  149MOL0     H20074   4.924   1.632   2.466 -2.0208 -5.6837  0.6445
  149MOL0     H20075   4.778   1.631   2.727  3.5772  1.0950  4.9998
  149MOL0     H20076   4.568   1.714   2.800  0.8281 -1.7671  0.2941
  149MOL0     H20077   4.306   2.227   2.633  2.6403  0.6872  0.6173
  149MOL0     H20078   4.091   2.328   2.673  1.5426  1.3374 -1.2380
  149MOL0     H20079   3.916   2.445   2.752  1.4262 -0.5335  0.7060
  149MOL0     H20080   3.872   2.268   2.761  0.9998 -1.8903  1.9219
  149MOL0     H20081   3.703   2.281   2.895  1.2449 -0.7137  1.5747
  149MOL0     H20082   3.714   2.449   2.938 -0.6805  1.5308 -1.7400
  149MOL0     H20083   3.660   2.518   2.698 -2.3758 -0.0932  0.7900
  149MOL0     H20084   3.688   2.351   2.650 -0.6737 -0.8096 -0.7024
  149MOL0     H20085   3.491   2.271   2.736  1.7608 -1.1063  0.1906
  149MOL0     H20086   3.446   2.432   2.656 -0.3191 -0.0880 -0.4428
  149MOL0     H20087   3.450   2.352   2.941 -0.5594 -0.3585  0.4060
  149MOL0     H20088   3.331   2.444   2.832  1.5795  2.1080 -3.5937
  149MOL0     H20089   3.581   2.602   2.901  1.3233 -0.4617  4.4798
  149MOL0     H20090   3.416   2.640   2.839 -2.0130 -0.6186  1.1240
  149MOL0     H20091   3.506   2.529   3.110  2.0427  3.7082  2.1964
  149MOL0     H20092   3.336   2.558   3.067 -0.3934  1.3493 -1.0864
  149MOL0     H20093   3.437   2.763   3.204  1.4008 -0.1775  0.6430
  149MOL0     H20094   3.556   2.776   3.062 -0.2426  1.1476  0.4020
  149MOL0     H20095   4.145   2.248   3.098 -2.0635  0.2908 -0.0080
  149MOL0     H20096   4.349   2.141   3.053 -0.8900  0.2247 -0.1453
  149MOL0     H20097   4.699   2.111   2.694  0.8072 -0.7417 -0.5230
  149MOL0     H20098   4.911   2.022   2.630  0.1445 -1.3410 -1.6290
  149MOL0     H20099   6.495   0.719   2.562 -1.3025 -2.7083  2.0318
  149MOL0     H20100   6.728   0.668   2.505 -0.7914  0.0495  0.2774
  149MOL0     H20101   7.029   0.616   2.381 -3.1817 -0.9411 -1.1014
  149MOL0     H20102   7.277   0.676   2.381  0.1132  0.0762 -0.8986
  149MOL0     H20103   7.513   0.502   2.064 -0.3881 -0.4782  1.1644
  149MOL0     H20104   7.543   0.409   2.217 -4.1266 -0.0815  0.9962
  149MOL0     H20105   7.711   0.594   2.292  4.1769 -0.3480 -1.8604
  149MOL0     H20106   7.664   0.691   2.155 -1.4988 -0.4817 -4.0253
  149MOL0     H20107   7.753   0.517   2.003  1.6508  0.2639 -0.8504
  149MOL0     H20108   7.815   0.428   2.145 -0.7088  0.4297  1.0089
  149MOL0     H20109   7.862   0.723   2.101 -5.2560 -1.9307 -0.8738
  149MOL0     H20110   7.923   0.626   2.233 -1.7629  1.5924  0.0221
  149MOL0     H20111   8.165   0.561   1.872 -2.7327  0.8932 -1.8529
  149MOL0     H20112   7.324   0.397   2.059 -0.6296 -0.5292  0.2982
  149MOL0     H20113   7.162   0.292   1.962  0.8112 -0.5651  2.1761
  149MOL0     H20114   7.024   0.281   2.065  1.4092  0.3143  1.8480
  149MOL0     H20115   7.032   0.415   1.931 -0.9360  1.1985  1.4893
  150MOL0     O20116   3.002   0.724   0.859  0.3744 -0.1497 -0.1355
  150MOL0     C20117   3.043   0.802   0.771  0.0274 -0.2324  0.1212
  150MOL0     O20118   3.101   0.754   0.657  0.4074 -0.3726  0.6926
  150MOL0     C20119   3.124   0.621   0.656 -1.1906 -0.7444 -0.1170
  150MOL0     C20120   3.035   0.516   0.642  0.9551  0.5004  0.2368
  150MOL0     C20121   3.085   0.384   0.624 -1.0303  1.0902 -0.2928
  150MOL0     C20122   3.225   0.359   0.632  0.0843  0.3141  0.2316
  150MOL0     O20123   3.268   0.227   0.629 -0.2448 -0.4493 -0.6075
  150MOL0     C20124   3.368   0.177   0.719 -0.1993  0.4348  0.3651
  150MOL0     C20125   3.323   0.196   0.860 -0.0041 -0.5246  0.0055
  150MOL0     C20126   3.432   0.153   0.968  0.0826  0.3409  0.3088
  150MOL0     C20127   3.481  -0.000   0.962 -0.2651 -0.8468  0.6178
  150MOL0     C20128   3.613  -0.018   1.041  1.8684 -0.3890 -1.0540
  150MOL0     C20129   3.621  -0.153   1.122  0.4016  0.2609 -0.3572
  150MOL0     C20130   3.747  -0.168   1.199 -1.0831  1.3244 -0.2041
  150MOL0     C20131   3.738  -0.274   1.310  0.3914 -1.3410 -0.1270
  150MOL0     N20132   3.684  -0.192   1.427 -0.0204  0.5216  0.0029
  150MOL0     C20133   3.564  -0.131   1.443  1.2260 -0.4111  0.0727
  150MOL0     C20134   3.558  -0.087   1.571  0.3072 -0.5085  1.0334
  150MOL0     C20135   3.452  -0.015   1.639  1.0268 -0.0384 -0.1124
  150MOL0     C20136   3.336   0.047   1.547 -0.0550 -0.5662 -0.3677
  150MOL0     C20137   3.242   0.146   1.611  1.0603  0.1982 -0.1917
  150MOL0     C20138   3.308   0.268   1.648 -0.2211  0.3632 -0.1613
  150MOL0     O20139   3.311   0.348   1.534 -0.9151 -0.4557  0.1816
  150MOL0     C20140   3.303   0.487   1.540  0.6134  0.4019 -0.1157
  150MOL0     C20141   3.258   0.550   1.422  0.4163  0.0857 -1.4836
  150MOL0     C20142   3.240   0.688   1.409 -0.2704  0.3414 -0.2146
  150MOL0     C20143   3.276   0.770   1.513 -0.1197  0.9004 -0.0071
  150MOL0     C20144   3.275   0.915   1.497  0.8064 -0.6361 -0.2125
  150MOL0     O20145   3.233   0.954   1.377  0.1428 -0.7044 -1.1212
  150MOL0     C20146   3.227   1.089   1.365 -0.3197  0.3420  0.6499
  150MOL0     C20147   3.287   1.150   1.251 -0.5552 -0.1767  0.1440
  150MOL0     C20148   3.279   1.288   1.231  0.0646 -0.4111 -0.0556
  150MOL0     C20149   3.207   1.369   1.314 -0.1226  0.5018  0.5724
  150MOL0     O20150   3.195   1.501   1.299  0.0316  0.3226  0.3906
  150MOL0     C20151   3.135   1.584   1.396  0.1093  0.2928  0.4641
  150MOL0     C20152   3.175   1.732   1.373 -0.1987 -0.1130 -0.3037
  150MOL0     C20153   3.118   1.774   1.236 -0.0564  0.1567  0.6165
  150MOL0     C20154   3.148   1.921   1.204 -0.1742 -0.6508 -0.4623
  150MOL0     C20155   3.065   1.972   1.092 -0.4135  0.0276  0.7041
  150MOL0     C20156   3.116   2.096   1.029 -1.2576 -0.6936  0.0426
  150MOL0     C20157   3.018   2.171   0.952 -0.5107  0.0515  0.1650
  150MOL0     C20158   3.009   2.142   0.806 -0.4014  0.2962  0.0972
  150MOL0    Cl20159   2.886   2.249   0.724 -0.0850 -0.1263 -0.3686
  150MOL0     C20160   3.133   1.309   1.419 -0.3920 -0.7326  0.5056
  150MOL0     C20161   3.149   1.166   1.453 -0.7795 -0.1975  0.2435
  150MOL0     O20162   3.313   0.984   1.589  0.0291  0.1671 -0.2911
  150MOL0     C20163   3.312   0.708   1.639  0.3975  0.3726 -0.3680
  150MOL0     C20164   3.315   0.570   1.650 -0.7890  0.5163 -0.5380
  150MOL0     N20165   3.682  -0.106   1.619 -0.2833 -0.1293  0.2817
  150MOL0     N20166   3.752  -0.176   1.536  0.8563  0.5801 -0.9486
  150MOL0     C20167   3.309   0.465   0.647 -0.5088  0.0868 -0.0176
  150MOL0     C20168   3.260   0.592   0.660 -0.5067 -0.2608  0.1354
  150MOL0     C20169   3.038   0.954   0.783  0.4459  0.6096 -0.4686
  150MOL0     C20170   3.044   1.031   0.665  0.5795 -0.7318 -0.7846
  150MOL0     C20171   3.024   1.170   0.676  1.0467  1.1670 -1.2200
  150MOL0     C20172   3.008   1.235   0.800  0.0025  0.4491 -0.3719
  150MOL0     O20173   2.995   1.373   0.797 -0.5176 -0.1268 -0.1528
  150MOL0     C20174   3.023   1.447   0.913  0.0989  0.5451 -0.1992
  150MOL0     C20175   3.044   1.588   0.859 -0.0782  0.0864 -0.4628
  150MOL0     C20176   3.183   1.599   0.800 -0.2718  1.0538 -0.4852
  150MOL0     C20177   3.235   1.740   0.779  0.2991 -0.0790  0.0004
  150MOL0     C20178   3.164   1.825   0.684 -0.1307 -0.4725 -0.8402
  150MOL0     C20179   3.122   1.897   0.594 -0.8436  0.0078 -0.1416
  150MOL0     C20180   3.026   1.157   0.915 -0.6126 -0.1237  0.1286
  150MOL0     C20181   3.043   1.021   0.907  0.5845  0.6083  0.6842
  150MOL0     C20182   3.065   0.943   1.029  0.8646  0.1371  0.3667
  150MOL0     H20183   2.929   0.535   0.632  1.1299  1.3651 -0.1206
  150MOL0     H20184   3.028   0.294   0.601 -0.1603  1.0642 -2.6442
  150MOL0     H20185   3.387   0.070   0.707 -3.1613 -0.0508 -0.9667
  150MOL0     H20186   3.465   0.223   0.700  1.5664 -3.5430 -1.4858
  150MOL0     H20187   3.234   0.135   0.875 -1.6409  1.9490  0.8988
  150MOL0     H20188   3.286   0.297   0.879  3.8202  1.5148 -2.1242
  150MOL0     H20189   3.380   0.165   1.064 -0.1536 -3.2511  0.7365
  150MOL0     H20190   3.516   0.223   0.980  2.2121 -1.9696 -0.4201
  150MOL0     H20191   3.400  -0.064   0.999 -0.5095 -0.3028  1.0395
  150MOL0     H20192   3.498  -0.035   0.860  2.9929 -0.5542  0.9516
  150MOL0     H20193   3.706  -0.011   0.983  0.7054 -0.8627 -3.1124
  150MOL0     H20194   3.621   0.061   1.116 -3.6645 -2.6017  2.5057
  150MOL0     H20195   3.532  -0.140   1.185  0.5677  2.3150 -0.4859
  150MOL0     H20196   3.606  -0.240   1.058 -0.8323 -0.9036  1.4142
  150MOL0     H20197   3.757  -0.070   1.247  1.2525  0.7457  0.6735
  150MOL0     H20198   3.827  -0.193   1.128 -0.9686 -0.5237  0.5391
  150MOL0     H20199   3.670  -0.360   1.300 -1.0108 -0.3472  0.4696
  150MOL0     H20200   3.840  -0.309   1.327  0.4918 -1.8111 -1.5412
  150MOL0     H20201   3.483  -0.119   1.373  2.3406  1.3079 -1.0224
  150MOL0     H20202   3.394  -0.081   1.703  0.7213  0.9477  0.6665
  150MOL0     H20203   3.503   0.057   1.704 -1.9764  0.2243  2.1640
  150MOL0     H20204   3.395   0.109   1.479  0.0223  0.6005  0.7424
  150MOL0     H20205   3.260  -0.013   1.496 -2.6101  4.0164 -2.6304
  150MOL0     H20206   3.188   0.098   1.693 -5.0550  5.5017 -0.2803
  150MOL0     H20207   3.158   0.167   1.543  1.3184 -3.5685 -1.9557
  150MOL0     H20208   3.412   0.255   1.676  0.1753  0.5177 -1.4695
  150MOL0     H20209   3.246   0.314   1.726 -0.4739  0.2483 -0.2920
  150MOL0     H20210   3.244   0.483   1.337 -1.8828 -0.7747 -0.4941
  150MOL0     H20211   3.203   0.731   1.317  0.1744  2.8198  0.6983
  150MOL0     H20212   3.343   1.099   1.173  0.8463  1.4014  0.0612
  150MOL0     H20213   3.334   1.335   1.150  0.7609 -2.9840 -1.1696
  150MOL0     H20214   3.026   1.576   1.397 -0.3955  3.3377 -3.5881
  150MOL0     H20215   3.179   1.553   1.491  3.3641  2.3450 -0.2154
  150MOL0     H20216   3.128   1.789   1.453 -2.3994  0.3149 -1.7813
  150MOL0     H20217   3.282   1.749   1.380 -0.3640  0.4983  1.0132
  150MOL0     H20218   3.167   1.710   1.161 -0.7170  2.8136 -2.2874
  150MOL0     H20219   3.010   1.756   1.232  0.2323 -2.1878  1.7130
  150MOL0     H20220   3.255   1.933   1.183 -0.1276 -1.7252 -0.9383
  150MOL0     H20221   3.123   1.972   1.298  0.2262 -2.6658  0.8056
  150MOL0     H20222   2.964   1.994   1.127 -2.2213  0.3031 -3.9011
  150MOL0     H20223   3.052   1.893   1.017  1.3377 -0.2500  0.6555
  150MOL0     H20224   3.154   2.161   1.109  0.7210 -2.1712  0.3998
  150MOL0     H20225   3.204   2.070   0.969 -0.1156  2.6817  0.0684
  150MOL0     H20226   3.061   2.271   0.947  3.2578 -1.4417 -3.9813
  150MOL0     H20227   2.919   2.163   0.997 -0.5237 -1.8011 -0.1041
  150MOL0     H20228   3.110   2.159   0.765  1.3607 -4.8545  1.4944
  150MOL0     H20229   2.985   2.037   0.786 -1.7875  0.4746  0.7482
  150MOL0     H20230   3.059   1.353   1.486 -1.4943  1.3303 -1.9012
  150MOL0     H20231   3.114   1.118   1.543  1.4050 -0.1830  1.1620
  150MOL0     H20232   3.341   0.756   1.732 -1.4807  1.0001 -0.0678
  150MOL0     H20233   3.330   0.527   1.749  0.9167  1.2077 -0.4452
  150MOL0     H20234   3.417   0.464   0.654 -0.5119 -0.9650  0.1212
  150MOL0     H20235   3.334   0.671   0.670 -1.4850  0.9583 -1.5445
  150MOL0     H20236   3.047   0.989   0.565 -3.0520 -1.1564 -0.8181
  150MOL0     H20237   3.012   1.229   0.585 -1.0936 -1.5797 -2.8888
  150MOL0     H20238   3.108   1.411   0.970  0.2380  2.4991  0.9163
  150MOL0     H20239   2.941   1.465   0.983  2.2869  0.9621  2.4074
  150MOL0     H20240   3.022   1.657   0.941  0.0163  1.7483 -1.7783
  150MOL0     H20241   2.969   1.599   0.780  2.1751 -0.2024 -2.7856
  150MOL0     H20242   3.182   1.540   0.709  0.2905  1.9265 -1.0745
  150MOL0     H20243   3.260   1.554   0.864  0.0382  0.4868 -1.2523
  150MOL0     H20244   3.245   1.789   0.877  1.6738 -0.2239 -0.0530
  150MOL0     H20245   3.340   1.732   0.749  0.7330  2.3696  0.6432
  150MOL0     H20246   3.086   1.960   0.516  1.2038  1.3898 -0.0215
  150MOL0     H20247   3.047   1.198   1.013  1.4269  1.5720 -0.9313
  150MOL0     H20248   3.167   0.902   1.025  1.4650  1.6318 -3.5267
  150MOL0     H20249   3.059   1.003   1.120 -1.6912  0.5717 -0.0180
  150MOL0     H20250   2.986   0.868   1.033 -0.5241  1.0578 -4.3319
  151MOL0     O20251   2.317   9.625   2.746 -0.7560  0.3316  0.9013
  151MOL0     C20252   2.324   9.711   2.825  0.9065 -1.0671  0.2350
  151MOL0     O20253   2.435   9.738   2.893  0.0601 -0.7932  0.3141
  151MOL0     C20254   2.521   9.638   2.922 -0.0424 -0.2368  0.5463
  151MOL0     C20255   2.621   9.608   2.824  0.1012  0.1846 -0.0577
  151MOL0     C20256   2.697   9.494   2.843  1.0552  0.6887  0.9721
  151MOL0     C20257   2.695   9.416   2.955 -1.2445  0.3006 -0.7445
  151MOL0     O20258   2.777   9.307   2.973 -0.6173 -0.5609  0.2286
  151MOL0     C20259   2.752   9.213   3.075  0.7309 -0.3584 -0.5549
  151MOL0     C20260   2.869   9.120   3.082  0.4960 -0.6051 -0.3852
  151MOL0     C20261   2.871   9.045   3.220  0.5191  0.2997  0.6129
  151MOL0     C20262   2.981   8.935   3.234 -0.0913 -0.0691  0.4858
  151MOL0     C20263   3.011   8.921   3.386  0.7602  0.7080  0.2202
  151MOL0     C20264   3.118   8.824   3.423 -0.3307  0.6068  1.2424
  151MOL0     C20265   3.133   8.800   3.573 -0.4854  0.1926 -0.5405
  151MOL0     C20266   3.230   8.687   3.598  0.0163  0.4705 -0.2920
  151MOL0     N20267   3.208   8.565   3.519  0.0623  0.1279  0.3596
  151MOL0     C20268   3.098   8.475   3.529  0.5502 -0.7674 -0.3635
  151MOL0     C20269   3.097   8.409   3.411  0.4172  0.7283  0.8548
  151MOL0     C20270   2.999   8.301   3.362 -0.0753 -0.0405  0.2624
  151MOL0     C20271   2.847   8.337   3.344  0.0554  0.7417 -0.1995
  151MOL0     C20272   2.832   8.456   3.248  0.1003  0.2933  0.6237
  151MOL0     C20273   2.901   8.431   3.112  0.5427 -0.2942  0.9066
  151MOL0     O20274   2.850   8.537   3.017  0.3209  0.7210 -0.0628
  151MOL0     C20275   2.943   8.633   2.983  0.3026 -0.2305  1.1083
  151MOL0     C20276   2.902   8.725   2.880 -0.3048  1.0158 -0.3855
  151MOL0     C20277   2.993   8.826   2.837  0.2160 -0.2905 -1.5722
  151MOL0     C20278   3.120   8.850   2.901  0.6979  0.5634  0.9232
  151MOL0     C20279   3.203   8.961   2.846 -0.3540  1.1799  0.6326
  151MOL0     O20280   3.162   9.020   2.729 -0.0442  0.2165  0.2676
  151MOL0     C20281   3.208   9.142   2.693  0.3585 -0.5235  0.2048
  151MOL0     C20282   3.245   9.247   2.786 -1.2053 -0.5623 -0.6852
  151MOL0     C20283   3.269   9.371   2.738  1.2484  0.1410  0.4161
  151MOL0     C20284   3.275   9.397   2.595 -0.5963 -0.4621 -1.0057
  151MOL0     O20285   3.317   9.509   2.525 -0.2075  0.6262 -0.7273
  151MOL0     C20286   3.311   9.628   2.602 -0.0103  0.2723 -0.2442
  151MOL0     C20287   3.375   9.744   2.529  0.1644 -1.2204  0.0788
  151MOL0     C20288   3.471   9.820   2.628 -0.1719  0.1872 -0.5115
  151MOL0     C20289   3.544   9.918   2.544 -0.4149 -0.2535 -1.0850
  151MOL0     C20290   3.648   9.998   2.624  0.5069 -0.2144 -0.0884
  151MOL0     C20291   3.701  10.127   2.552 -0.0444 -0.7526 -0.0163
  151MOL0     C20292   3.668  10.273   2.597 -0.5594 -0.5414  0.3330
  151MOL0     C20293   3.786  10.368   2.616 -0.4884  0.7372 -0.8087
  151MOL0    Cl20294   3.920  10.281   2.715 -0.4383 -0.5622 -0.2576
  151MOL0     C20295   3.243   9.294   2.503 -0.4744 -0.3979  0.0685
  151MOL0     C20296   3.203   9.173   2.554  0.2074  1.1603  0.4215
  151MOL0     O20297   3.311   8.980   2.903 -0.3753 -0.5045  0.1454
  151MOL0     C20298   3.158   8.766   2.996 -0.1751  0.0672 -0.1353
  151MOL0     C20299   3.069   8.663   3.039 -0.0382 -0.2269 -0.4210
  151MOL0     N20300   3.211   8.449   3.338 -0.1582 -0.2653  0.2000
  151MOL0     N20301   3.276   8.535   3.400  0.0635 -1.0619  0.0705
  151MOL0     C20302   2.613   9.464   3.065 -0.3744  0.1568  0.8306
  151MOL0     C20303   2.521   9.571   3.046  0.0799 -0.0371  0.7185
  151MOL0     C20304   2.203   9.806   2.828 -0.0522  0.2131  0.7514
  151MOL0     C20305   2.229   9.944   2.852  0.5586  0.4613 -0.8865
  151MOL0     C20306   2.123  10.040   2.868 -1.3191  0.2466  0.3017
  151MOL0     C20307   1.988   9.996   2.873 -0.2051  1.1870  0.1870
  151MOL0     O20308   1.883  10.079   2.874  0.7504  0.1486 -0.1287
  151MOL0     C20309   1.894  10.204   2.939 -0.3817  0.0074 -0.4368
  151MOL0     C20310   1.922  10.326   2.841 -0.5440 -0.2531 -0.8641
  151MOL0     C20311   1.807  10.342   2.744 -0.2248 -0.8972 -0.1324
  151MOL0     C20312   1.819  10.470   2.659 -0.0793 -0.5840  0.4214
  151MOL0     C20313   1.790  10.601   2.729  0.0057  0.0875 -0.8382
  151MOL0     C20314   1.761  10.701   2.793 -1.0560  0.4771  0.1622
  151MOL0     C20315   1.964   9.865   2.829  0.5665 -0.7222 -0.2133
  151MOL0     C20316   2.068   9.776   2.811  0.2107  1.1919 -0.2422
  151MOL0     C20317   2.024   9.634   2.773  0.8089 -0.2865  0.1402
  151MOL0     H20318   2.621   9.662   2.730 -0.0357  1.4389  0.6430
  151MOL0     H20319   2.768   9.464   2.767  3.3910  0.4234  3.1016
  151MOL0     H20320   2.727   9.260   3.170  1.1402 -0.5188 -0.3647
  151MOL0     H20321   2.656   9.170   3.046  0.3691  1.0256 -1.5310
  151MOL0     H20322   2.953   9.190   3.073 -2.7515  3.6772 -0.6423
  151MOL0     H20323   2.882   9.047   3.002  1.4044 -0.3665 -0.4733
  151MOL0     H20324   2.772   9.006   3.244 -0.6265  2.7364  0.0619
  151MOL0     H20325   2.894   9.131   3.284  0.0538  2.1561 -1.5937
  151MOL0     H20326   2.940   8.844   3.189 -3.9949  0.7353  2.0428
  151MOL0     H20327   3.075   8.958   3.184 -1.3024  1.0052 -1.3795
  151MOL0     H20328   3.034   9.017   3.432  1.2681  0.1821  1.0881
  151MOL0     H20329   2.916   8.883   3.424 -0.3236  1.5543 -1.4990
  151MOL0     H20330   3.081   8.733   3.375  2.9956 -0.6517  0.7579
  151MOL0     H20331   3.216   8.854   3.383  1.1299 -0.8746  3.4566
  151MOL0     H20332   3.038   8.781   3.624 -1.3223  0.7321 -1.8501
  151MOL0     H20333   3.188   8.885   3.612 -1.6207  0.9288 -0.5047
  151MOL0     H20334   3.336   8.715   3.594 -0.1168  1.0206  0.0273
  151MOL0     H20335   3.213   8.662   3.703  0.3470 -1.0779 -0.5736
  151MOL0     H20336   3.029   8.456   3.610  2.1589 -0.2097  1.1964
  151MOL0     H20337   3.033   8.270   3.263 -0.8224  2.5877 -0.9056
  151MOL0     H20338   3.007   8.217   3.432  2.6056  1.5504  2.0247
  151MOL0     H20339   2.802   8.241   3.314  0.3456 -0.5358  3.0863
  151MOL0     H20340   2.804   8.354   3.443 -0.7523  3.3693 -0.9142
  151MOL0     H20341   2.871   8.545   3.298  3.1700 -1.3572  1.4459
  151MOL0     H20342   2.724   8.462   3.236  0.1957 -2.4195 -4.2116
  151MOL0     H20343   2.874   8.331   3.076  1.1258  0.3930 -1.6838
  151MOL0     H20344   3.010   8.436   3.118  0.5566  0.3911  0.2116
  151MOL0     H20345   2.813   8.704   2.823 -0.1976  1.1005 -0.5863
  151MOL0     H20346   2.950   8.900   2.771  2.7472  0.9518 -1.9221
  151MOL0     H20347   3.230   9.226   2.891 -3.7798  3.8207  0.0658
  151MOL0     H20348   3.294   9.443   2.815 -0.8888  1.5196 -0.1110
  151MOL0     H20349   3.204   9.651   2.611  0.0151  0.5961 -0.7355
  151MOL0     H20350   3.352   9.611   2.702 -1.5780  1.3038  0.6341
  151MOL0     H20351   3.441   9.708   2.450  0.2583  2.2600 -1.6012
  151MOL0     H20352   3.307   9.809   2.474 -1.2267 -2.9255 -0.2985
  151MOL0     H20353   3.416   9.862   2.712  0.8431 -2.2333  1.5245
  151MOL0     H20354   3.547   9.759   2.679  0.9845  3.1286  1.5542
  151MOL0     H20355   3.483   9.990   2.489  1.1422 -1.3434 -4.5215
  151MOL0     H20356   3.595   9.874   2.458  2.5945  0.6844  0.0840
  151MOL0     H20357   3.736   9.944   2.659 -0.1177  0.3715  2.6365
  151MOL0     H20358   3.605  10.043   2.715  1.3996  1.1933 -0.3288
  151MOL0     H20359   3.809  10.110   2.556  0.1210  0.4136  3.1722
  151MOL0     H20360   3.655  10.127   2.452  0.2309  0.3377 -0.1511
  151MOL0     H20361   3.623  10.266   2.697 -1.0985 -1.1452  0.0536
  151MOL0     H20362   3.593  10.320   2.533 -1.7294 -1.3189  1.0780
  151MOL0     H20363   3.831  10.387   2.518  1.2998 -0.2251 -0.2277
  151MOL0     H20364   3.755  10.460   2.666 -0.4564 -0.6055  1.8379
  151MOL0     H20365   3.240   9.309   2.396  0.5121  0.6728  0.1660
  151MOL0     H20366   3.187   9.087   2.491 -1.7457 -0.4803  2.9670
  151MOL0     H20367   3.250   8.786   3.050  1.2669  3.3347 -3.3930
  151MOL0     H20368   3.108   8.606   3.124  2.3723  0.5267 -0.9545
  151MOL0     H20369   2.611   9.423   3.165 -4.0729 -1.2719  0.3714
  151MOL0     H20370   2.458   9.622   3.118 -1.3587  0.2780 -0.7001
  151MOL0     H20371   2.332   9.977   2.864  0.0460  1.6085  0.6363
  151MOL0     H20372   2.143  10.143   2.895 -1.4483 -0.0277  1.4773
  151MOL0     H20373   1.978  10.200   3.009 -2.3320 -1.0177  1.9826
  151MOL0     H20374   1.794  10.216   2.981  0.0149  2.0580  0.0328
  151MOL0     H20375   2.003  10.310   2.769 -0.7638  2.4150 -1.7922
  151MOL0     H20376   1.950  10.415   2.898  1.3855  0.5099 -2.8682
  151MOL0     H20377   1.716  10.352   2.805  0.0167 -3.3092  0.7177
  151MOL0     H20378   1.806  10.251   2.684  0.3133 -1.8037  1.1929
  151MOL0     H20379   1.916  10.479   2.609 -1.2452 -0.2547 -1.9228
  151MOL0     H20380   1.743  10.462   2.581 -1.1944 -1.0563  1.5127
  151MOL0     H20381   1.717  10.782   2.848 -2.0872 -0.0063  0.0664
  151MOL0     H20382   1.861   9.840   2.805  0.6615 -0.7062 -0.6479
  151MOL0     H20383   2.081   9.549   2.813 -3.2312 -2.9371  0.8918
  151MOL0     H20384   1.924   9.613   2.813  0.3827 -0.9649 -1.2206
  151MOL0     H20385   2.017   9.625   2.665 -0.8606  2.3338 -0.0617
  152MOL0     O20386   8.566   2.285   8.581  0.1289 -0.4267  0.5944
  152MOL0     C20387   8.480   2.337   8.509  0.2494  0.3555  0.4033
  152MOL0     O20388   8.494   2.448   8.433 -0.8694  0.2581 -0.5149
  152MOL0     C20389   8.619   2.504   8.424  0.2083  0.2483 -0.3901
  152MOL0     C20390   8.674   2.556   8.543 -0.4154 -0.6905 -0.4134
  152MOL0     C20391   8.811   2.600   8.548 -0.0660  0.4831 -0.0821
  152MOL0     C20392   8.889   2.588   8.428  0.0479 -0.3421 -0.1556
  152MOL0     O20393   9.023   2.638   8.422 -0.8425  0.5201  0.0798
  152MOL0     C20394   9.075   2.736   8.505  0.5444 -0.1625  0.2049
  152MOL0     C20395   9.201   2.800   8.449 -0.5142 -0.3810  1.0526
  152MOL0     C20396   9.284   2.860   8.565  0.4805  0.6891  0.7978
  152MOL0     C20397   9.351   2.994   8.528 -1.3065 -0.1134 -0.7601
  152MOL0     C20398   9.388   3.066   8.661  0.3544  0.7130  0.2018
  152MOL0     C20399   9.519   3.136   8.653 -0.2610 -0.8415  0.9045
  152MOL0     C20400   9.549   3.228   8.776 -0.0695 -0.4219 -0.1716
  152MOL0     C20401   9.679   3.313   8.753 -0.3432  0.8424 -0.9588
  152MOL0     N20402   9.679   3.415   8.654  0.2187 -0.5298 -0.0325
  152MOL0     C20403   9.595   3.524   8.642  0.0212  0.0263 -0.1498
  152MOL0     C20404   9.630   3.590   8.534 -0.3736 -0.4750  0.3215
  152MOL0     C20405   9.560   3.709   8.464  0.6650  0.4784 -0.4926
  152MOL0     C20406   9.498   3.659   8.332 -0.5562  0.2504  0.9366
  152MOL0     C20407   9.382   3.745   8.282 -0.7263 -1.3237 -0.1682
  152MOL0     C20408   9.413   3.904   8.277 -0.6048 -0.0569 -1.0355
  152MOL0     O20409   9.526   3.916   8.189 -0.2044 -0.8086  0.0828
  152MOL0     C20410   9.510   3.948   8.055  0.5117  0.6324  0.6013
  152MOL0     C20411   9.613   3.987   7.971  0.1555 -0.1056 -0.4570
  152MOL0     C20412   9.597   4.027   7.834  0.3048  0.5650 -0.3658
  152MOL0     C20413   9.466   4.020   7.769  0.1508 -0.7460  0.4673
  152MOL0     C20414   9.437   4.072   7.633  0.8060 -0.1109 -0.0144
  152MOL0     O20415   9.310   4.066   7.587  0.1763  0.1932  0.3380
  152MOL0     C20416   9.291   4.090   7.457 -0.9224 -0.4239 -0.5143
  152MOL0     C20417   9.202   4.182   7.408  0.3237  0.1657  0.1390
  152MOL0     C20418   9.176   4.189   7.271  0.8230  0.4721 -0.6368
  152MOL0     C20419   9.249   4.131   7.176  0.6628 -0.3167 -0.2018
  152MOL0     O20420   9.221   4.151   7.045 -0.3540 -0.4799  0.3126
  152MOL0     C20421   9.224   4.286   6.998  0.0578 -0.5372  0.7165
  152MOL0     C20422   9.373   4.328   6.963  0.2165 -0.4300  0.4860
  152MOL0     C20423   9.376   4.442   6.856  0.3562  0.0664  0.3578
  152MOL0     C20424   9.430   4.576   6.911 -0.0239  0.5073 -0.0141
  152MOL0     C20425   9.433   4.689   6.804 -0.2375 -0.4224 -0.6344
  152MOL0     C20426   9.433   4.828   6.874 -0.4734  0.2553  0.2048
  152MOL0     C20427   9.542   4.858   6.980  0.4244 -0.1393  0.7596
  152MOL0     C20428   9.678   4.900   6.919 -0.5243  0.0135  1.7582
  152MOL0    Cl20429   9.776   4.997   7.029 -0.4477 -0.0181 -0.4177
  152MOL0     C20430   9.354   4.048   7.224 -0.7379  0.4644  0.4963
  152MOL0     C20431   9.366   4.027   7.362  0.3487 -0.1550  0.6250
  152MOL0     O20432   9.536   4.131   7.576 -0.5070 -0.0214 -0.3587
  152MOL0     C20433   9.365   3.962   7.851 -0.4983  0.1206  0.1449
  152MOL0     C20434   9.388   3.935   7.984 -0.1161 -0.1400  0.0438
  152MOL0     N20435   9.734   3.522   8.477  0.0418 -0.5362 -1.1989
  152MOL0     N20436   9.774   3.430   8.560 -0.0816  0.6436 -0.1791
  152MOL0     C20437   8.835   2.528   8.320 -0.5246  0.5241  0.0488
  152MOL0     C20438   8.702   2.495   8.314  0.7311  0.0471  0.6810
  152MOL0     C20439   8.333   2.280   8.515 -0.1429  0.2241 -0.2706
  152MOL0     C20440   8.321   2.148   8.560  1.0740  1.0652  1.3363
  152MOL0     C20441   8.189   2.084   8.566 -0.3742  0.6453  0.1846
  152MOL0     C20442   8.072   2.163   8.538  0.2658  0.1389 -0.1499
  152MOL0     O20443   7.947   2.122   8.538 -0.1413 -0.0038  0.6141
  152MOL0     C20444   7.900   2.105   8.675 -0.9458  0.3086 -0.2865
  152MOL0     C20445   7.756   2.052   8.678 -0.0774  1.3734 -0.3828
  152MOL0     C20446   7.762   1.902   8.655  0.1575 -0.2911 -0.6380
  152MOL0     C20447   7.748   1.862   8.507 -0.1330 -1.0677 -0.7065
  152MOL0     C20448   7.702   1.724   8.479 -0.5954 -0.0810  0.0789
  152MOL0     C20449   7.662   1.612   8.464  0.2355 -0.8493 -0.9877
  152MOL0     C20450   8.089   2.293   8.507 -0.8100 -0.0458  0.0633
  152MOL0     C20451   8.216   2.353   8.491  0.5373  0.6306 -0.3365
  152MOL0     C20452   8.212   2.491   8.439  0.6251 -0.0908 -1.1083
  152MOL0     H20453   8.624   2.566   8.638  1.7052  1.0847  0.5984
  152MOL0     H20454   8.855   2.633   8.641 -0.9142 -3.6927  2.0404
  152MOL0     H20455   8.995   2.809   8.524  1.1866  0.2089  1.6386
  152MOL0     H20456   9.105   2.692   8.601  2.1133 -0.4841 -0.4020
  152MOL0     H20457   9.158   2.885   8.396  2.0769  1.5166  1.7683
  152MOL0     H20458   9.265   2.741   8.383  0.5816  2.6448 -0.7939
  152MOL0     H20459   9.337   2.780   8.618  0.3566  0.6348  0.8418
  152MOL0     H20460   9.210   2.895   8.638  1.3015  1.9945  1.0504
  152MOL0     H20461   9.443   2.974   8.472  0.0450  4.0465 -0.3703
  152MOL0     H20462   9.289   3.054   8.460 -0.3770  0.6149 -0.9913
  152MOL0     H20463   9.309   3.139   8.679 -0.2154  0.4427 -1.0372
  152MOL0     H20464   9.391   2.989   8.739  0.9477 -0.5043 -0.9752
  152MOL0     H20465   9.602   3.071   8.625  0.6380  1.3706 -2.2973
  152MOL0     H20466   9.504   3.203   8.567 -2.3347  1.3797  2.8846
  152MOL0     H20467   9.558   3.168   8.867  2.0775  2.0900  1.4213
  152MOL0     H20468   9.477   3.305   8.802  1.0363 -0.0238  1.9515
  152MOL0     H20469   9.710   3.345   8.852  1.3379 -0.8877 -0.8694
  152MOL0     H20470   9.758   3.249   8.712  0.1410  0.1349  0.9842
  152MOL0     H20471   9.508   3.544   8.704 -0.4740  1.2188 -1.1948
  152MOL0     H20472   9.488   3.758   8.531  1.0934 -0.6328  0.8205
  152MOL0     H20473   9.638   3.786   8.452  0.6106  0.9881  1.8102
  152MOL0     H20474   9.575   3.655   8.255 -0.0582 -0.4504  1.4578
  152MOL0     H20475   9.461   3.556   8.334 -3.4011  1.0224 -2.2655
  152MOL0     H20476   9.295   3.736   8.348 -1.6788 -1.5817 -1.4193
  152MOL0     H20477   9.347   3.703   8.187  1.7166 -0.0987 -1.7263
  152MOL0     H20478   9.452   3.950   8.368 -0.7014  2.9258 -2.3780
  152MOL0     H20479   9.328   3.966   8.247 -1.0774 -0.1119  0.1476
  152MOL0     H20480   9.709   3.965   8.016  0.6257 -0.1365 -1.4476
  152MOL0     H20481   9.680   4.046   7.768 -0.3113  0.0431 -1.3151
  152MOL0     H20482   9.133   4.216   7.485 -1.1028  0.3167 -1.1690
  152MOL0     H20483   9.082   4.235   7.242 -1.7142 -2.3916  2.2060
  152MOL0     H20484   9.165   4.287   6.905  1.5739  0.6520 -0.2732
  152MOL0     H20485   9.183   4.361   7.067 -2.7897 -0.9059 -0.4162
  152MOL0     H20486   9.421   4.366   7.053  1.0243 -0.2595 -0.0055
  152MOL0     H20487   9.436   4.248   6.922  0.4775  1.2959 -2.7942
  152MOL0     H20488   9.439   4.416   6.771 -1.6232  2.4518 -2.0271
  152MOL0     H20489   9.279   4.470   6.814  1.5019  0.8937 -1.8700
  152MOL0     H20490   9.534   4.564   6.945 -0.3431 -3.4868  0.0872
  152MOL0     H20491   9.373   4.598   7.002  0.2841 -1.4803  0.7085
  152MOL0     H20492   9.358   4.684   6.725  0.7325  0.6809 -1.6612
  152MOL0     H20493   9.531   4.685   6.755  0.4675  1.3443  0.5335
  152MOL0     H20494   9.443   4.910   6.803 -0.1208  2.7575  2.9360
  152MOL0     H20495   9.334   4.835   6.921  0.8229 -1.8628  3.6478
  152MOL0     H20496   9.552   4.771   7.045 -1.3333 -0.3468  0.8069
  152MOL0     H20497   9.496   4.937   7.039 -1.4135 -0.4470 -0.1823
  152MOL0     H20498   9.735   4.810   6.895 -1.3960  0.1164 -0.9793
  152MOL0     H20499   9.672   4.958   6.827  1.9734  1.0054  2.1351
  152MOL0     H20500   9.422   4.007   7.149 -0.3770  1.1380  0.4477
  152MOL0     H20501   9.441   3.953   7.390  0.1010 -0.4826  0.4330
  152MOL0     H20502   9.267   3.939   7.810 -1.9208 -0.1700  3.4005
  152MOL0     H20503   9.308   3.889   8.040  2.0258 -3.5910  0.5011
  152MOL0     H20504   8.891   2.516   8.228 -2.3110  1.2348 -1.1659
  152MOL0     H20505   8.668   2.460   8.217 -0.9169  0.6446  1.0153
  152MOL0     H20506   8.400   2.076   8.577  0.2904  0.3989  2.1962
  152MOL0     H20507   8.179   1.976   8.576  0.2733  0.7098  2.0269
  152MOL0     H20508   7.901   2.201   8.727  1.1561 -0.6494  1.5753
  152MOL0     H20509   7.972   2.044   8.729  1.0523  1.9532 -0.9769
  152MOL0     H20510   7.685   2.094   8.606  0.3796 -0.6874 -2.1448
  152MOL0     H20511   7.721   2.067   8.781  1.5711  0.7061  0.3103
  152MOL0     H20512   7.684   1.868   8.724 -0.7362  2.7410 -0.0277
  152MOL0     H20513   7.860   1.867   8.689  0.0727  0.9372  0.9823
  152MOL0     H20514   7.683   1.935   8.459  0.3227 -0.0330  0.1969
  152MOL0     H20515   7.848   1.883   8.469 -0.0378  2.3130  1.0286
  152MOL0     H20516   7.611   1.519   8.452 -0.3300 -0.4947 -1.4399
  152MOL0     H20517   7.999   2.351   8.488 -1.0965  0.7132  3.2346
  152MOL0     H20518   8.108   2.526   8.441  1.5731  3.1872 -2.1813
  152MOL0     H20519   8.272   2.556   8.503  1.2860  0.1606 -1.9586
  152MOL0     H20520   8.232   2.500   8.331  1.4225 -1.2290 -1.0633
  153MOL0     O20521   8.088   0.943  10.171  0.4812 -0.1123  0.1774
  153MOL0     C20522   8.056   0.902  10.288  0.6750  0.0550 -0.0594
  153MOL0     O20523   8.141   0.892  10.399  0.2852  0.0181  0.2139
  153MOL0     C20524   8.260   0.958  10.385  0.4776 -0.0031  0.7160
  153MOL0     C20525   8.260   1.091  10.432  0.1148  0.3766 -0.2293
  153MOL0     C20526   8.382   1.166  10.434  0.2327  0.0955  0.3046
  153MOL0     C20527   8.501   1.110  10.377 -0.8438  0.1105 -1.0587
  153MOL0     O20528   8.616   1.171  10.340  0.8082 -0.0846  0.4097
  153MOL0     C20529   8.616   1.311  10.377  0.2447 -0.6001 -0.3245
  153MOL0     C20530   8.739   1.386  10.331  0.5648  1.0686 -0.1365
  153MOL0     C20531   8.734   1.408  10.177  0.5197  0.1460 -0.0999
  153MOL0     C20532   8.873   1.463  10.127  0.2915 -0.4419 -0.4134
  153MOL0     C20533   8.863   1.530   9.988 -0.5441 -0.7028  0.8132
  153MOL0     C20534   8.787   1.668   9.977  0.2535  0.1322  0.2944
  153MOL0     C20535   8.862   1.790  10.020 -0.2557 -0.3734  0.7722
  153MOL0     C20536   8.812   1.919   9.956 -0.7677  0.5424  0.4725
  153MOL0     N20537   8.906   2.022   9.977 -0.3096 -0.0308 -0.1939
  153MOL0     C20538   8.948   2.104   9.878 -0.1383 -0.0657 -0.4858
  153MOL0     C20539   9.067   2.161   9.904  0.4892  0.4755  0.4202
  153MOL0     C20540   9.143   2.249   9.818 -0.0187 -0.8369  0.0038
  153MOL0     C20541   9.282   2.186   9.790 -0.4255  0.2818  0.9417
  153MOL0     C20542   9.354   2.236   9.669  0.6748 -0.2795  0.2668
  153MOL0     C20543   9.498   2.183   9.671  0.3888  0.3442 -0.5323
  153MOL0     O20544   9.537   2.162   9.536 -0.1128 -0.0612 -0.4424
  153MOL0     C20545   9.669   2.113   9.509 -0.8522  0.0972  0.2313
  153MOL0     C20546   9.703   2.089   9.369 -0.8137 -0.0294 -0.7674
  153MOL0     C20547   9.831   2.049   9.327  1.3900 -0.0228 -0.2572
  153MOL0     C20548   9.925   2.016   9.426  0.5228  0.4844 -0.1243
  153MOL0     C20549  10.061   1.970   9.399 -0.0396  0.3620 -1.0877
  153MOL0     O20550  10.102   1.967   9.270  0.1408 -0.6310  0.8383
  153MOL0     C20551  10.243   1.981   9.243 -1.3103 -0.6450 -0.7025
  153MOL0     C20552  10.349   1.892   9.276  0.3567 -0.2575 -0.4649
  153MOL0     C20553  10.483   1.925   9.235  0.5581 -0.6831 -0.4681
  153MOL0     C20554  10.520   2.044   9.172 -0.4640  0.6239  0.4978
  153MOL0     O20555  10.649   2.067   9.140  0.4433 -0.6322 -0.3609
  153MOL0     C20556  10.735   1.949   9.120  0.7487 -0.9889 -0.1829
  153MOL0     C20557  10.861   1.986   9.025 -0.0376 -0.6211  0.2847
  153MOL0     C20558  10.823   1.984   8.869  0.5598 -0.1519 -0.0997
  153MOL0     C20559  10.950   2.015   8.782  0.3314 -0.1785  1.0265
  153MOL0     C20560  10.921   1.980   8.635 -0.0019  0.4770  1.0159
  153MOL0     C20561  10.939   1.832   8.597 -0.0652 -0.3982 -0.9735
  153MOL0     C20562  10.932   1.807   8.447  0.9663 -0.2010 -0.1941
  153MOL0     C20563  10.991   1.674   8.414 -0.5651 -1.2286 -0.1229
  153MOL0    Cl20564  11.171   1.667   8.432  0.0250 -0.3911  0.1513
  153MOL0     C20565  10.408   2.124   9.137  0.4128 -0.4993 -0.6643
  153MOL0     C20566  10.280   2.094   9.171 -0.1525  0.0103 -0.1577
  153MOL0     O20567  10.132   1.952   9.501  0.1660  0.5274  0.2755
  153MOL0     C20568   9.895   2.039   9.561  0.1191  0.7239 -0.1474
  153MOL0     C20569   9.770   2.085   9.603 -0.9148 -1.2154 -0.2004
  153MOL0     N20570   9.089   2.111  10.032 -0.1739 -0.4348  0.1356
  153MOL0     N20571   8.997   2.026  10.070  0.3522 -0.4514  0.0843
  153MOL0     C20572   8.492   0.984  10.319  0.4517  0.1056 -0.0036
  153MOL0     C20573   8.373   0.906  10.324  0.7090 -0.6344 -0.0049
  153MOL0     C20574   7.917   0.844  10.304  0.1300  0.0904 -0.3202
  153MOL0     C20575   7.896   0.744  10.394 -1.0521  0.4684  0.7347
  153MOL0     C20576   7.772   0.672  10.412  0.6288  0.7481  0.1508
  153MOL0     C20577   7.666   0.722  10.344 -0.9181  0.0296 -0.4763
  153MOL0     O20578   7.550   0.658  10.375 -0.1481  0.2545  1.1161
  153MOL0     C20579   7.426   0.714  10.317  0.1506 -0.3919 -0.9662
  153MOL0     C20580   7.306   0.642  10.380 -0.7020  0.4022 -0.5443
  153MOL0     C20581   7.297   0.680  10.527  0.3211 -1.0613 -0.7817
  153MOL0     C20582   7.158   0.652  10.578 -0.7306  0.1769 -1.0265
  153MOL0     C20583   7.121   0.502  10.580 -0.4548 -0.8517  0.4121
  153MOL0     C20584   7.086   0.384  10.591 -0.1560  0.6913 -0.0957
  153MOL0     C20585   7.680   0.826  10.249 -0.9123  0.2703  0.0840
  153MOL0     C20586   7.801   0.899  10.233  0.0995  0.5236  0.2260
  153MOL0     C20587   7.797   1.022  10.142 -0.5032 -0.3577 -0.9788
  153MOL0     H20588   8.171   1.130  10.480  0.3745  1.6405 -0.7267
  153MOL0     H20589   8.390   1.256  10.494 -0.5987  1.7568 -1.9715
  153MOL0     H20590   8.522   1.361  10.352  0.5679 -0.8994 -2.3095
  153MOL0     H20591   8.624   1.310  10.486  1.1933  0.1108 -0.3757
  153MOL0     H20592   8.817   1.316  10.360 -2.0685 -2.3878 -0.7430
  153MOL0     H20593   8.755   1.475  10.393  1.8748  0.4016  0.4995
  153MOL0     H20594   8.648   1.475  10.163 -1.4390 -0.6626  5.5861
  153MOL0     H20595   8.711   1.322  10.114  0.8375 -0.6088  0.7856
  153MOL0     H20596   8.911   1.535  10.201 -0.1563 -0.2188 -0.3974
  153MOL0     H20597   8.943   1.380  10.139 -2.8146 -3.2545 -0.2490
  153MOL0     H20598   8.956   1.542   9.932 -1.9472  2.0129 -1.1986
  153MOL0     H20599   8.812   1.457   9.925 -2.5736  0.9045  0.4578
  153MOL0     H20600   8.759   1.674   9.871 -5.7194 -0.8925  1.4783
  153MOL0     H20601   8.695   1.667  10.035  0.7149 -2.1988  1.1228
  153MOL0     H20602   8.970   1.773  10.013  0.1442  1.2232  2.4763
  153MOL0     H20603   8.845   1.798  10.127  1.7432 -2.5188  1.3517
  153MOL0     H20604   8.798   1.905   9.848  0.4937  2.0018  0.0851
  153MOL0     H20605   8.714   1.956   9.986 -1.1602  2.1767 -2.3907
  153MOL0     H20606   8.899   2.106   9.781 -0.0485  0.2094 -0.5264
  153MOL0     H20607   9.080   2.261   9.730 -2.6118  5.7942  2.1063
  153MOL0     H20608   9.162   2.343   9.871 -0.1367 -1.2783  0.8526
  153MOL0     H20609   9.353   2.214   9.869  1.5282  1.9099 -1.2848
  153MOL0     H20610   9.272   2.077   9.796  2.5125 -0.0302  2.4774
  153MOL0     H20611   9.368   2.344   9.668  0.5383 -0.2646 -0.2273
  153MOL0     H20612   9.295   2.207   9.581 -1.8710  0.3232  1.6701
  153MOL0     H20613   9.501   2.088   9.724 -0.5322 -1.2493 -3.1132
  153MOL0     H20614   9.557   2.266   9.710 -0.1653 -0.3293  1.8526
  153MOL0     H20615   9.624   2.114   9.298 -2.3701  0.0594  0.9252
  153MOL0     H20616   9.861   2.047   9.223 -0.0811  3.0764 -0.8678
  153MOL0     H20617  10.324   1.801   9.330  0.3337  0.8596  1.5476
  153MOL0     H20618  10.549   1.843   9.261  1.2899 -0.2289 -0.8579
  153MOL0     H20619  10.777   1.905   9.212 -1.0980  0.5475  1.4996
  153MOL0     H20620  10.683   1.866   9.072 -0.0815  0.1980 -1.3897
  153MOL0     H20621  10.903   2.084   9.048  0.6463 -0.7604 -0.3740
  153MOL0     H20622  10.934   1.907   9.046 -1.5733 -2.4864 -1.0532
  153MOL0     H20623  10.778   1.888   8.841 -0.2829 -0.0803  0.9479
  153MOL0     H20624  10.735   2.046   8.851 -0.7059 -2.2913 -1.6364
  153MOL0     H20625  11.034   1.951   8.810  0.5241 -1.3335 -1.8320
  153MOL0     H20626  10.985   2.119   8.791  2.6158 -0.7586 -0.2283
  153MOL0     H20627  10.987   2.043   8.574 -0.3111  1.8156  2.0158
  153MOL0     H20628  10.817   2.007   8.612 -0.2668 -1.0854  0.2198
  153MOL0     H20629  11.039   1.798   8.625  0.8404  0.2539 -3.1706
  153MOL0     H20630  10.869   1.763   8.644  1.9159 -1.5750  0.3711
  153MOL0     H20631  10.984   1.882   8.387 -0.9135  1.3531 -0.0006
  153MOL0     H20632  10.831   1.814   8.404  2.5559  1.7173 -4.0970
  153MOL0     H20633  10.954   1.598   8.483 -2.9205  3.3113  4.2675
  153MOL0     H20634  10.954   1.665   8.311 -0.2126  2.0227 -0.6430
  153MOL0     H20635  10.440   2.213   9.083 -0.1257  1.5714  2.2093
  153MOL0     H20636  10.208   2.169   9.137 -2.1435 -1.7400 -0.0352
  153MOL0     H20637   9.963   2.009   9.640 -2.7948 -1.0448  1.8803
  153MOL0     H20638   9.745   2.094   9.708 -0.5351 -0.3410 -0.1760
  153MOL0     H20639   8.571   0.945  10.255 -1.8622  0.3243 -3.2239
  153MOL0     H20640   8.349   0.816  10.269 -0.9820  0.9980 -2.1447
  153MOL0     H20641   7.981   0.705  10.449  1.8062  0.7472 -3.1036
  153MOL0     H20642   7.761   0.588  10.479 -0.6534  2.3989  2.1456
  153MOL0     H20643   7.424   0.713  10.208  0.6235  2.2313 -1.0613
  153MOL0     H20644   7.432   0.822  10.335  0.6738 -0.3353 -1.4330
  153MOL0     H20645   7.298   0.533  10.371  1.2742 -0.0325  1.8845
  153MOL0     H20646   7.231   0.690  10.317 -2.0578  0.5389  1.1026
  153MOL0     H20647   7.311   0.788  10.536 -0.5673 -1.0740  1.7209
  153MOL0     H20648   7.376   0.632  10.586  0.0227 -1.1217 -0.4215
  153MOL0     H20649   7.144   0.689  10.680 -3.5395  3.6702 -2.4365
  153MOL0     H20650   7.082   0.712  10.526 -1.8467 -0.4459 -0.1619
  153MOL0     H20651   7.065   0.280  10.609  1.4371  0.4777  0.7422
  153MOL0     H20652   7.600   0.854  10.182  0.2429  1.1043 -0.9876
  153MOL0     H20653   7.692   1.051  10.135 -0.6345 -0.6814 -0.4841
  153MOL0     H20654   7.835   1.109  10.195  0.9028 -0.3322 -1.9902
  153MOL0     H20655   7.841   1.004  10.043 -0.1309 -2.3060 -0.5057
  154MOL0     O20656   9.105   7.331   8.772 -0.4111 -0.4786  0.7045
  154MOL0     C20657   9.175   7.243   8.718  0.2334  0.0687 -0.4440
  154MOL0     O20658   9.268   7.170   8.777 -0.2093  0.9470  0.6505
  154MOL0     C20659   9.308   7.213   8.902 -0.6936  0.0919  0.4288
  154MOL0     C20660   9.222   7.211   9.013 -0.7384  1.6219 -0.2300
  154MOL0     C20661   9.255   7.253   9.142  0.0342 -0.4155  0.2735
  154MOL0     C20662   9.375   7.329   9.149 -0.6337 -0.0262 -0.6272
  154MOL0     O20663   9.405   7.405   9.261 -0.1596 -0.4116  1.0781
  154MOL0     C20664   9.309   7.497   9.300  0.6758 -0.0501 -0.4822
  154MOL0     C20665   9.293   7.479   9.452 -0.5423  0.6314 -0.4974
  154MOL0     C20666   9.378   7.566   9.545  0.3285 -0.2603 -0.3769
  154MOL0     C20667   9.361   7.720   9.534  0.4175  0.2095  1.2400
  154MOL0     C20668   9.473   7.804   9.594 -0.1363 -0.2793 -0.1565
  154MOL0     C20669   9.448   7.952   9.586 -0.4019  0.1792  0.3196
  154MOL0     C20670   9.568   8.032   9.625  0.2229 -0.8422  0.1382
  154MOL0     C20671   9.519   8.176   9.643 -0.0030 -0.3962 -0.2215
  154MOL0     N20672   9.629   8.258   9.711 -0.1747 -0.9819  0.1433
  154MOL0     C20673   9.724   8.342   9.645  0.4203  1.8045  0.5213
  154MOL0     C20674   9.822   8.353   9.734 -0.0115 -0.5996 -0.5747
  154MOL0     C20675   9.949   8.416   9.695 -0.4236  0.3743  0.2581
  154MOL0     C20676  10.041   8.320   9.615 -0.1946  0.0794  0.4215
  154MOL0     C20677  10.167   8.383   9.563  0.7802  1.0382 -0.4601
  154MOL0     C20678  10.244   8.289   9.474  0.1154 -0.0144 -0.1158
  154MOL0     O20679  10.270   8.171   9.552  0.1979 -0.2403 -0.4707
  154MOL0     C20680  10.398   8.156   9.601  0.3791  0.3621  0.5871
  154MOL0     C20681  10.499   8.082   9.532  0.4023 -0.3068  0.4834
  154MOL0     C20682  10.628   8.074   9.580  0.2802 -1.4021  0.2201
  154MOL0     C20683  10.673   8.140   9.688  0.3519 -0.0557  0.2033
  154MOL0     C20684  10.820   8.127   9.734  0.7549  0.9255  0.3158
  154MOL0     O20685  10.892   8.027   9.667  0.1510 -0.0951  0.6715
  154MOL0     C20686  11.020   8.019   9.712 -0.0540 -0.5948 -0.4931
  154MOL0     C20687  11.052   8.007   9.848 -0.0650  0.9952 -0.0742
  154MOL0     C20688  11.185   8.009   9.884 -0.2531 -0.1117 -0.3917
  154MOL0     C20689  11.294   8.002   9.792 -0.3826  0.2172 -0.6244
  154MOL0     O20690  11.424   7.982   9.839 -0.1989 -0.7792 -0.3597
  154MOL0     C20691  11.543   7.969   9.756  0.3597 -0.4675 -0.1527
  154MOL0     C20692  11.664   7.958   9.850  0.3059 -0.7989  0.4339
  154MOL0     C20693  11.799   7.966   9.773 -1.7066  0.2338 -0.0103
  154MOL0     C20694  11.925   7.940   9.851 -0.5166  0.7136 -0.5675
  154MOL0     C20695  11.931   7.805   9.905  0.0322  0.3473 -0.1261
  154MOL0     C20696  12.058   7.777   9.995 -0.1794 -0.9172 -0.9129
  154MOL0     C20697  12.047   7.641  10.069  0.5062 -0.0759  0.1359
  154MOL0     C20698  12.179   7.606  10.137 -0.3639  0.3884 -0.5154
  154MOL0    Cl20699  12.287   7.537  10.007  0.2826 -0.2706 -0.0115
  154MOL0     C20700  11.258   8.009   9.653  0.5489  0.4037 -0.6750
  154MOL0     C20701  11.125   8.019   9.622  0.0387 -0.1786 -0.5131
  154MOL0     O20702  10.867   8.213   9.810  0.4144 -0.6996 -0.0466
  154MOL0     C20703  10.578   8.219   9.755  0.0319 -0.3056  0.5007
  154MOL0     C20704  10.441   8.223   9.720 -0.1671 -0.2977  0.0023
  154MOL0     N20705   9.780   8.306   9.857 -0.1415  0.0901  1.1149
  154MOL0     N20706   9.667   8.249   9.846 -0.4755  0.5769  0.7610
  154MOL0     C20707   9.463   7.331   9.039  0.6043  0.0647  0.2569
  154MOL0     C20708   9.429   7.282   8.918 -0.1910  0.6574 -0.0361
  154MOL0     C20709   9.136   7.213   8.581 -0.7310 -0.4345 -0.5275
  154MOL0     C20710   9.076   7.088   8.560  1.3158 -0.6702 -0.5553
  154MOL0     C20711   9.034   7.047   8.432  0.0778 -0.4284 -0.5514
  154MOL0     C20712   9.050   7.132   8.322 -0.1430  0.3282 -1.4520
  154MOL0     O20713   9.013   7.086   8.198 -0.4373  0.2779  0.4144
  154MOL0     C20714   9.019   7.173   8.085  0.7408 -0.0149  0.6038
  154MOL0     C20715   8.924   7.131   7.973 -0.5158 -0.1341 -0.4768
  154MOL0     C20716   8.953   6.986   7.927  0.6464 -0.8851  0.5292
  154MOL0     C20717   8.854   6.929   7.822 -1.0502  0.4070  0.8612
  154MOL0     C20718   8.899   6.790   7.794  0.4040 -0.6630  0.3531
  154MOL0     C20719   8.960   6.692   7.762 -0.7886  0.0583 -0.4058
  154MOL0     C20720   9.108   7.258   8.349  0.6084 -0.6006 -0.3758
  154MOL0     C20721   9.144   7.301   8.479 -0.3857 -0.5289 -0.1830
  154MOL0     C20722   9.213   7.439   8.488  0.6939  0.8646  0.3895
  154MOL0     H20723   9.126   7.161   9.008 -0.5060  1.2528 -4.2116
  154MOL0     H20724   9.191   7.258   9.230  1.2787  0.2064  1.1786
  154MOL0     H20725   9.345   7.599   9.279 -0.6697  0.3794 -0.8489
  154MOL0     H20726   9.212   7.474   9.254 -0.2833  1.8512  0.4768
  154MOL0     H20727   9.301   7.370   9.464 -0.2587  0.5036 -1.7917
  154MOL0     H20728   9.194   7.504   9.493  1.1997  4.8886  1.6681
  154MOL0     H20729   9.484   7.562   9.519  0.7679  0.5337  1.1617
  154MOL0     H20730   9.366   7.535   9.649  0.5683  1.5067  0.2120
  154MOL0     H20731   9.341   7.752   9.431  1.7212  1.9006  1.4688
  154MOL0     H20732   9.269   7.736   9.591 -0.1776 -2.5792  1.1940
  154MOL0     H20733   9.490   7.768   9.696  2.1747 -1.0293 -0.7376
  154MOL0     H20734   9.567   7.784   9.541  0.5006  1.4848  0.2424
  154MOL0     H20735   9.432   7.973   9.480 -1.0435  0.4886  0.4747
  154MOL0     H20736   9.362   7.967   9.652  0.1563  0.3957  1.0063
  154MOL0     H20737   9.649   8.029   9.551  0.9509 -0.1689  0.8936
  154MOL0     H20738   9.609   8.006   9.723  2.0937  1.4589  0.0585
  154MOL0     H20739   9.493   8.214   9.544 -0.7577 -1.5082 -0.4785
  154MOL0     H20740   9.432   8.182   9.709  1.0744 -4.1137  1.8133
  154MOL0     H20741   9.724   8.360   9.538 -3.7080 -0.6195 -0.1111
  154MOL0     H20742   9.930   8.502   9.630 -0.5805 -0.2509 -0.5425
  154MOL0     H20743   9.996   8.453   9.786 -0.1286 -2.7805  1.5344
  154MOL0     H20744  10.081   8.247   9.686  0.4074 -1.8210 -1.7638
  154MOL0     H20745   9.986   8.284   9.528 -0.6389  1.9756 -0.1398
  154MOL0     H20746  10.225   8.411   9.651 -1.2385  0.7575  1.0455
  154MOL0     H20747  10.150   8.466   9.495  0.7956  1.4553  0.0393
  154MOL0     H20748  10.342   8.330   9.448  0.1257 -1.9662 -3.7904
  154MOL0     H20749  10.183   8.260   9.388 -1.8336  1.0020  0.8543
  154MOL0     H20750  10.473   8.043   9.434  3.7264 -0.9681 -0.2677
  154MOL0     H20751  10.706   8.036   9.514  1.4633  1.0311  0.0949
  154MOL0     H20752  10.980   7.994   9.928  0.2194  1.9939  0.3593
  154MOL0     H20753  11.216   7.999   9.987  1.3896  1.5458 -0.6622
  154MOL0     H20754  11.539   7.879   9.695 -1.5596 -1.1212  0.8697
  154MOL0     H20755  11.542   8.054   9.686  1.5361 -0.7295 -0.5034
  154MOL0     H20756  11.664   8.043   9.919 -0.1898 -1.2044  0.9384
  154MOL0     H20757  11.659   7.861   9.900  2.2767 -1.8342 -1.2454
  154MOL0     H20758  11.806   7.889   9.696  0.3141 -1.0711  1.3722
  154MOL0     H20759  11.808   8.066   9.730 -0.0641  0.9023  1.7637
  154MOL0     H20760  11.940   8.015   9.930  1.9522 -0.1980 -0.1109
  154MOL0     H20761  12.013   7.944   9.787 -0.3351 -0.9696 -0.4542
  154MOL0     H20762  11.947   7.739   9.819  3.6482  0.6405  0.1438
  154MOL0     H20763  11.839   7.778   9.958 -0.1578  1.4488  0.1277
  154MOL0     H20764  12.151   7.785   9.938 -0.7047 -2.5149 -2.0674
  154MOL0     H20765  12.049   7.865  10.060 -0.5574 -1.0070 -0.8410
  154MOL0     H20766  12.009   7.552  10.018 -1.3438 -1.4443  3.5965
  154MOL0     H20767  11.971   7.664  10.144 -1.6316  1.0481 -2.2645
  154MOL0     H20768  12.239   7.685  10.184  0.5579 -1.5465  1.7224
  154MOL0     H20769  12.154   7.531  10.212 -1.6546 -2.0908 -3.2133
  154MOL0     H20770  11.330   7.990   9.573  0.0642 -0.8887 -0.8300
  154MOL0     H20771  11.108   8.022   9.515  1.1809  0.1175 -0.7020
  154MOL0     H20772  10.605   8.280   9.841 -2.3391 -0.0131  1.0986
  154MOL0     H20773  10.379   8.292   9.776  0.6735  2.6060 -2.3706
  154MOL0     H20774   9.552   7.391   9.053  0.2599  0.9511 -1.1546
  154MOL0     H20775   9.499   7.290   8.836  1.4695 -0.1359  1.2361
  154MOL0     H20776   9.062   7.016   8.640 -4.7844 -2.9233 -3.0552
  154MOL0     H20777   8.984   6.956   8.401 -1.5849  1.5075 -4.1311
  154MOL0     H20778   9.121   7.174   8.044  1.2691  0.3781  1.8739
  154MOL0     H20779   8.986   7.273   8.111 -3.2036 -0.8977 -0.4420
  154MOL0     H20780   8.934   7.198   7.888 -1.5310  0.3624 -0.2115
  154MOL0     H20781   8.821   7.151   8.004 -0.4347  2.7206 -1.7508
  154MOL0     H20782   8.951   6.932   8.022  1.8806 -0.2440  0.9421
  154MOL0     H20783   9.051   6.987   7.879  0.5240 -1.2879  0.2625
  154MOL0     H20784   8.749   6.932   7.854 -0.9853  0.7177  1.0480
  154MOL0     H20785   8.873   6.999   7.741  2.9244 -2.0459 -0.6321
  154MOL0     H20786   9.016   6.604   7.738 -3.5412 -1.7223 -0.7933
  154MOL0     H20787   9.121   7.334   8.273 -2.2147 -0.9303 -1.2784
  154MOL0     H20788   9.232   7.455   8.595  2.2377 -0.3604  0.3259
  154MOL0     H20789   9.310   7.433   8.440  1.3222  1.8725  1.4786
  154MOL0     H20790   9.151   7.520   8.450 -0.2972  0.0956  0.3183
  155MOL0     O20791  10.116   3.549   1.589 -0.3667  0.0117  0.2302
  155MOL0     C20792  10.177   3.447   1.565  0.3805  1.7715 -0.1322
  155MOL0     O20793  10.143   3.367   1.469  0.6630  0.0396 -0.0986
  155MOL0     C20794  10.029   3.389   1.395  0.1121  0.6567  0.3233
  155MOL0     C20795   9.905   3.386   1.455  0.4867  0.1994 -0.4181
  155MOL0     C20796   9.785   3.383   1.380 -0.5677  0.0210 -0.1419
  155MOL0     C20797   9.800   3.400   1.243 -0.3829 -0.7837 -0.1779
  155MOL0     O20798   9.694   3.396   1.156  0.0058 -0.1665 -0.2259
  155MOL0     C20799   9.560   3.411   1.202 -0.1504 -0.2090 -0.5506
  155MOL0     C20800   9.452   3.395   1.089  0.1602 -0.2504  0.3593
  155MOL0     C20801   9.459   3.506   0.991  0.4403 -0.2692 -0.3712
  155MOL0     C20802   9.374   3.485   0.870 -0.5719 -0.0954 -0.6394
  155MOL0     C20803   9.349   3.624   0.802 -0.8936  0.1350  0.8910
  155MOL0     C20804   9.270   3.617   0.675  0.1696  0.6276 -0.6846
  155MOL0     C20805   9.343   3.583   0.557 -0.5194  0.8270  0.5465
  155MOL0     C20806   9.252   3.569   0.432 -0.5757 -0.1565 -0.0926
  155MOL0     N20807   9.228   3.703   0.372  0.6267  0.2755  0.7634
  155MOL0     C20808   9.322   3.794   0.329 -0.1397  0.8114 -1.5886
  155MOL0     C20809   9.253   3.898   0.269  0.4173  0.4913 -0.2993
  155MOL0     C20810   9.321   4.001   0.189 -0.7858 -0.0035 -0.7272
  155MOL0     C20811   9.270   4.152   0.195  0.1598  0.0371  0.3136
  155MOL0     C20812   9.381   4.250   0.212 -0.0276 -0.1906 -0.6566
  155MOL0     C20813   9.337   4.391   0.169  1.5558 -1.5255 -0.3032
  155MOL0     O20814   9.206   4.426   0.239  0.1224  0.4470 -0.5561
  155MOL0     C20815   9.162   4.552   0.228 -0.3668  0.0026  0.1910
  155MOL0     C20816   9.044   4.579   0.298  0.1993  0.5690 -0.3481
  155MOL0     C20817   8.988   4.708   0.308 -0.0336  0.9019 -0.0939
  155MOL0     C20818   9.049   4.811   0.236  0.7479  0.0097 -0.7853
  155MOL0     C20819   9.004   4.953   0.223 -0.7318  0.2093  0.7769
  155MOL0     O20820   9.093   5.041   0.169 -0.5366 -0.4638  0.2591
  155MOL0     C20821   9.063   5.177   0.165  0.5730  0.5530 -0.5172
  155MOL0     C20822   9.016   5.245   0.045  0.5450  0.6472 -0.2001
  155MOL0     C20823   8.984   5.381   0.051 -0.3453 -0.3984  0.2569
  155MOL0     C20824   9.010   5.449   0.167 -0.4991  0.3188 -0.2813
  155MOL0     O20825   8.975   5.573   0.189  0.2722 -0.6477 -0.5218
  155MOL0     C20826   9.017   5.663   0.091 -0.2498 -0.5599 -0.2348
  155MOL0     C20827   8.967   5.799   0.133  0.2331 -0.4182 -0.4869
  155MOL0     C20828   8.952   5.899   0.012 -0.6450 -0.4186 -0.0611
  155MOL0     C20829   8.884   6.029   0.064 -1.1440 -0.0680 -0.9218
  155MOL0     C20830   8.894   6.132  -0.050 -0.1761 -0.3738  0.1030
  155MOL0     C20831   8.885   6.280   0.014  0.0083 -0.4819  0.0069
  155MOL0     C20832   8.877   6.375  -0.093  0.2560  0.0861  0.5583
  155MOL0     C20833   8.867   6.523  -0.036 -0.0204  0.7705  0.6645
  155MOL0    Cl20834   8.920   6.648  -0.156 -0.3951  0.0557 -0.0271
  155MOL0     C20835   9.057   5.381   0.284 -0.2958  0.3707  0.4629
  155MOL0     C20836   9.099   5.246   0.280  0.2537  0.8994  1.1466
  155MOL0     O20837   8.896   4.975   0.269  0.5332 -0.0998  0.3452
  155MOL0     C20838   9.160   4.783   0.164  0.6363  0.7945 -0.8146
  155MOL0     C20839   9.214   4.661   0.158 -0.1564  0.5481 -0.1989
  155MOL0     N20840   9.114   3.863   0.282  0.0029 -0.4290 -0.5617
  155MOL0     N20841   9.106   3.758   0.353 -0.8483 -0.1150 -0.5515
  155MOL0     C20842   9.916   3.417   1.179 -0.0317  0.0320 -1.2442
  155MOL0     C20843  10.036   3.404   1.260 -0.1240  1.2572  0.2860
  155MOL0     C20844  10.303   3.409   1.637  0.2667 -0.4840 -0.3943
  155MOL0     C20845  10.406   3.338   1.569  0.3077  0.4147 -0.5082
  155MOL0     C20846  10.525   3.295   1.635  0.8530  0.9297  0.5498
  155MOL0     C20847  10.555   3.322   1.767 -0.3467 -0.1375 -0.4385
  155MOL0     O20848  10.676   3.274   1.822 -0.3372  0.1595 -0.3321
  155MOL0     C20849  10.686   3.278   1.971 -0.6708  0.0295  0.6525
  155MOL0     C20850  10.830   3.243   2.010  1.2158 -0.9898 -0.4236
  155MOL0     C20851  10.868   3.105   1.954  0.2151 -0.0222  0.4839
  155MOL0     C20852  10.994   3.045   2.020  0.8441 -0.6783 -0.4188
  155MOL0     C20853  11.032   2.932   1.945 -0.2887 -0.2824 -0.1195
  155MOL0     C20854  11.057   2.827   1.891 -0.5142 -0.8055 -0.2491
  155MOL0     C20855  10.459   3.396   1.827  0.0535  1.2920  0.2354
  155MOL0     C20856  10.331   3.434   1.773 -0.3298 -0.4505 -0.1824
  155MOL0     C20857  10.234   3.490   1.874 -0.0292 -0.0558 -0.4804
  155MOL0     H20858   9.910   3.368   1.562 -1.3259 -1.0141 -0.4932
  155MOL0     H20859   9.681   3.386   1.412 -0.6591  1.2949 -0.5199
  155MOL0     H20860   9.541   3.327   1.269 -2.8830  0.5957 -0.1896
  155MOL0     H20861   9.537   3.502   1.256 -2.3807 -1.9748  1.7210
  155MOL0     H20862   9.356   3.407   1.140  0.6737  0.0730  1.2748
  155MOL0     H20863   9.465   3.298   1.041  1.3669  0.0443  0.0683
  155MOL0     H20864   9.565   3.508   0.964  0.9455 -0.6016  1.4063
  155MOL0     H20865   9.425   3.599   1.038 -0.1317  1.8286 -4.4964
  155MOL0     H20866   9.410   3.412   0.796 -2.3296 -2.1905  0.4433
  155MOL0     H20867   9.270   3.454   0.885 -0.9550  0.9823 -1.0191
  155MOL0     H20868   9.289   3.675   0.878  0.1809  2.7701  0.0944
  155MOL0     H20869   9.442   3.679   0.786 -0.1866 -1.6347 -1.8118
  155MOL0     H20870   9.180   3.555   0.683 -0.4933  1.8047  1.7023
  155MOL0     H20871   9.237   3.721   0.668  0.4960  1.0578  2.6559
  155MOL0     H20872   9.385   3.487   0.587  0.0870  1.5199  2.0303
  155MOL0     H20873   9.428   3.651   0.544 -1.2126  1.4797 -0.7994
  155MOL0     H20874   9.303   3.506   0.358 -0.4205  1.5921 -1.5401
  155MOL0     H20875   9.159   3.523   0.465 -1.8879  2.2828 -0.2007
  155MOL0     H20876   9.426   3.762   0.334  0.2623  2.2027  1.9193
  155MOL0     H20877   9.427   3.993   0.218 -1.4194 -2.9939  1.3097
  155MOL0     H20878   9.326   3.966   0.086  2.1943 -1.6859 -0.1463
  155MOL0     H20879   9.236   4.175   0.093  2.1743  0.5132 -0.2936
  155MOL0     H20880   9.192   4.174   0.268  2.7081  2.7307  2.4556
  155MOL0     H20881   9.471   4.235   0.153  0.6359  0.1715  0.2412
  155MOL0     H20882   9.409   4.248   0.318 -0.3778  0.8299 -0.5278
  155MOL0     H20883   9.316   4.394   0.062 -0.0393 -1.8202 -0.0268
  155MOL0     H20884   9.413   4.467   0.193  0.0971  0.4010 -1.4905
  155MOL0     H20885   8.999   4.502   0.361 -0.6648  1.0607 -0.3445
  155MOL0     H20886   8.895   4.720   0.364 -1.1337 -1.5758 -1.2527
  155MOL0     H20887   9.006   5.190  -0.048 -0.3719 -1.0183  0.8548
  155MOL0     H20888   8.952   5.429  -0.041  2.0382  0.7851 -0.0444
  155MOL0     H20889   9.125   5.663   0.079 -0.3275 -0.6819 -0.9709
  155MOL0     H20890   8.970   5.638  -0.005 -1.0749  0.4085 -0.1052
  155MOL0     H20891   8.865   5.793   0.171 -0.3079  0.2596 -1.7948
  155MOL0     H20892   9.030   5.842   0.212 -0.3519  0.1072 -0.2969
  155MOL0     H20893   9.054   5.913  -0.026 -0.0950 -2.3943  0.6068
  155MOL0     H20894   8.891   5.850  -0.064  0.5617 -2.9640  0.5029
  155MOL0     H20895   8.943   6.065   0.149 -1.3530 -1.0193 -0.3559
  155MOL0     H20896   8.779   6.020   0.094  0.1310 -3.2824  3.5852
  155MOL0     H20897   8.815   6.104  -0.121 -1.6122  0.8760  1.1461
  155MOL0     H20898   8.993   6.137  -0.095 -0.5944  0.4025 -0.7612
  155MOL0     H20899   8.793   6.281   0.072  0.7242 -2.7332  1.3021
  155MOL0     H20900   8.968   6.290   0.084  0.7656  1.8550 -1.0952
  155MOL0     H20901   8.787   6.347  -0.149  0.9438 -2.0252  0.4075
  155MOL0     H20902   8.964   6.361  -0.158 -1.3463 -3.0172 -1.1601
  155MOL0     H20903   8.772   6.549   0.010 -0.5346 -3.1606  2.2210
  155MOL0     H20904   8.945   6.530   0.041  3.7000 -0.3298 -2.6155
  155MOL0     H20905   9.081   5.441   0.371  4.3800 -1.2282  0.5282
  155MOL0     H20906   9.137   5.195   0.368 -1.8007  1.8569  2.6885
  155MOL0     H20907   9.210   4.864   0.111 -0.0835 -0.3556 -3.4330
  155MOL0     H20908   9.296   4.650   0.089  1.1306  0.3951  1.3025
  155MOL0     H20909   9.930   3.430   1.073  3.8263 -0.4946 -0.9329
  155MOL0     H20910  10.137   3.401   1.220 -0.5452 -0.1590 -0.7405
  155MOL0     H20911  10.395   3.310   1.465 -1.4546 -4.8158  0.7606
  155MOL0     H20912  10.586   3.226   1.579 -3.5930 -1.5746 -1.7400
  155MOL0     H20913  10.620   3.210   2.026  0.9276  1.3473  4.5430
  155MOL0     H20914  10.657   3.381   1.993  0.9542  0.6117  0.2271
  155MOL0     H20915  10.822   3.243   2.119  0.5863 -2.9725 -0.4298
  155MOL0     H20916  10.900   3.322   1.981 -1.7660  1.6155 -1.1726
  155MOL0     H20917  10.902   3.131   1.854  1.2637 -0.1345  0.8075
  155MOL0     H20918  10.786   3.032   1.952 -1.1409  1.4061  1.3844
  155MOL0     H20919  11.074   3.119   2.008  0.9289 -0.6022  0.4844
  155MOL0     H20920  11.002   3.025   2.128  1.5816  2.4349  0.2166
  155MOL0     H20921  11.077   2.725   1.863 -0.6249 -0.7488 -0.5437
  155MOL0     H20922  10.480   3.440   1.923 -2.5264  1.1510  0.9366
  155MOL0     H20923  10.286   3.529   1.962 -0.7409  0.4955 -0.2916
  155MOL0     H20924  10.180   3.574   1.828 -0.1366  0.2692  0.2251
  155MOL0     H20925  10.170   3.410   1.912  1.7273 -1.0318  0.5797
  156MOL0     O20926   3.285   2.715   1.605 -0.0572  0.3717 -0.1664
  156MOL0     C20927   3.341   2.823   1.614  0.3204  0.1912  0.1669
  156MOL0     O20928   3.297   2.927   1.689 -0.0842 -0.2977  0.5028
  156MOL0     C20929   3.193   2.907   1.768  0.7317 -0.6329 -0.4753
  156MOL0     C20930   3.159   2.791   1.837 -0.0646 -0.1232 -0.1243
  156MOL0     C20931   3.048   2.784   1.921  0.4985  0.5019  0.2057
  156MOL0     C20932   2.976   2.895   1.950 -0.5709 -0.8771 -0.0941
  156MOL0     O20933   2.892   2.876   2.053 -0.2877 -0.5612 -1.1536
  156MOL0     C20934   2.776   2.964   2.049  0.1846 -0.0718 -1.0638
  156MOL0     C20935   2.673   2.932   2.154  0.9069  0.1670  0.7400
  156MOL0     C20936   2.721   2.927   2.302  0.5253  0.1290 -0.3388
  156MOL0     C20937   2.607   2.891   2.408 -0.5844 -0.9047  0.2634
  156MOL0     C20938   2.680   2.899   2.547 -0.1501 -0.7149  0.0545
  156MOL0     C20939   2.579   2.898   2.665 -0.2091  0.6131 -0.1125
  156MOL0     C20940   2.545   2.749   2.699 -0.3901 -0.5418 -0.1679
  156MOL0     C20941   2.420   2.732   2.795  0.8305 -0.1453 -0.7550
  156MOL0     N20942   2.285   2.783   2.746  0.4928  0.1757 -0.4843
  156MOL0     C20943   2.218   2.725   2.645 -0.2553  0.2743  0.4713
  156MOL0     C20944   2.156   2.829   2.586  0.0790 -0.5229 -0.1911
  156MOL0     C20945   2.075   2.801   2.465 -0.1975  0.2437 -1.3614
  156MOL0     C20946   2.149   2.806   2.326 -0.1575  0.8529 -0.5142
  156MOL0     C20947   2.198   2.942   2.286  0.0937  0.2412  0.1673
  156MOL0     C20948   2.252   2.934   2.146  0.0495 -0.3339  0.8685
  156MOL0     O20949   2.319   3.055   2.104  0.9708  0.1795 -1.1707
  156MOL0     C20950   2.375   3.064   1.982 -0.5738 -0.0295  0.6014
  156MOL0     C20951   2.360   2.963   1.878 -0.1133 -0.3861 -0.1250
  156MOL0     C20952   2.413   2.987   1.755 -0.6810  0.9238  0.0339
  156MOL0     C20953   2.483   3.109   1.735  0.7179 -0.7111 -0.2015
  156MOL0     C20954   2.560   3.124   1.612  0.4733  0.3205 -0.6782
  156MOL0     O20955   2.625   3.001   1.593 -1.0301 -0.3677 -0.3520
  156MOL0     C20956   2.730   2.988   1.510  0.5098  0.0683 -0.0333
  156MOL0     C20957   2.850   2.933   1.557  0.0556  0.6392  0.5310
  156MOL0     C20958   2.957   2.899   1.480  0.2114 -0.2445  0.2145
  156MOL0     C20959   2.946   2.929   1.339 -0.1954  0.0539 -0.0892
  156MOL0     O20960   3.056   2.920   1.253 -0.5630  1.0699 -0.1132
  156MOL0     C20961   3.177   2.859   1.293  0.0802  0.0600  1.3042
  156MOL0     C20962   3.257   2.804   1.168 -0.6258  0.3928  0.3393
  156MOL0     C20963   3.394   2.745   1.224  1.3091 -0.5071  0.2716
  156MOL0     C20964   3.482   2.670   1.125 -1.1487 -0.1258 -0.8408
  156MOL0     C20965   3.410   2.542   1.084 -0.5851  0.3823  0.2702
  156MOL0     C20966   3.501   2.449   1.005 -0.1227  0.5095  0.8102
  156MOL0     C20967   3.424   2.310   0.986  0.2109 -0.2810  0.4786
  156MOL0     C20968   3.476   2.235   0.858 -0.7970 -0.2629  0.2743
  156MOL0    Cl20969   3.637   2.173   0.900  0.1811 -0.5160 -0.1052
  156MOL0     C20970   2.833   3.002   1.296 -0.0286  0.1411  0.7648
  156MOL0     C20971   2.724   3.018   1.379 -0.0984  0.2007 -1.2863
  156MOL0     O20972   2.560   3.229   1.555 -0.1531 -0.4380 -0.1610
  156MOL0     C20973   2.488   3.208   1.834  0.2389 -0.0838  0.3306
  156MOL0     C20974   2.422   3.189   1.951  0.5679  0.2048 -0.4859
  156MOL0     N20975   2.183   2.953   2.653  0.0920 -0.2342 -1.0027
  156MOL0     N20976   2.265   2.912   2.750  0.3283 -0.8328 -0.3043
  156MOL0     C20977   3.009   3.015   1.887 -0.6157  0.0778 -0.6113
  156MOL0     C20978   3.111   3.018   1.788  0.3892 -0.8495 -0.1763
  156MOL0     C20979   3.468   2.851   1.553 -0.2149  0.8837  0.3309
  156MOL0     C20980   3.488   2.981   1.504 -0.1330 -0.1973 -0.9755
  156MOL0     C20981   3.614   3.029   1.456 -0.4995  0.8833  0.1202
  156MOL0     C20982   3.716   2.936   1.434  0.0251  0.6058 -0.1034
  156MOL0     O20983   3.819   2.981   1.355  0.7142  0.9569 -0.0061
  156MOL0     C20984   3.790   3.010   1.219  0.6452 -0.7706  0.7042
  156MOL0     C20985   3.834   3.156   1.197  0.4319 -0.9325 -0.3178
  156MOL0     C20986   3.988   3.166   1.215 -0.0227 -0.0888  0.3863
  156MOL0     C20987   4.042   3.290   1.274  0.0161  0.4437  0.5127
  156MOL0     C20988   4.190   3.295   1.264  1.3014  0.3459  0.2403
  156MOL0     C20989   4.304   3.310   1.238 -0.1956 -0.5266  0.7325
  156MOL0     C20990   3.693   2.802   1.481 -0.3713  0.2594 -0.1396
  156MOL0     C20991   3.570   2.755   1.529 -0.2370 -0.1742  0.8508
  156MOL0     C20992   3.555   2.609   1.547 -0.2124  0.7346  0.5443
  156MOL0     H20993   3.219   2.700   1.838 -0.9615 -0.7845 -2.0498
  156MOL0     H20994   3.033   2.686   1.966 -0.0216  0.8726  0.8658
  156MOL0     H20995   2.822   3.055   2.088 -1.8029  0.0977  1.0779
  156MOL0     H20996   2.737   2.979   1.947 -2.9323 -1.3610 -0.1931
  156MOL0     H20997   2.636   2.833   2.124  0.8404  0.8718 -1.7492
  156MOL0     H20998   2.585   2.996   2.137 -0.0907 -0.8220  1.9072
  156MOL0     H20999   2.748   3.032   2.313 -0.0929  0.3232 -0.6265
  156MOL0     H21000   2.815   2.873   2.318  0.4904 -0.7511 -2.7262
  156MOL0     H21001   2.525   2.962   2.391 -1.5793 -1.6941  1.6784
  156MOL0     H21002   2.574   2.789   2.390 -0.4446 -1.0577  0.8819
  156MOL0     H21003   2.750   2.815   2.552 -1.3790 -1.8676 -1.3196
  156MOL0     H21004   2.726   2.998   2.549 -3.9921  1.3404 -1.6753
  156MOL0     H21005   2.624   2.944   2.753 -2.0431 -1.0876  1.8126
  156MOL0     H21006   2.493   2.961   2.639 -0.3490 -0.3366 -2.1703
  156MOL0     H21007   2.636   2.697   2.730 -0.6355  0.2278  2.0856
  156MOL0     H21008   2.513   2.708   2.603  0.5297 -0.2014 -0.6267
  156MOL0     H21009   2.418   2.625   2.820 -0.7199  0.3919  1.8181
  156MOL0     H21010   2.440   2.782   2.890 -1.2492 -1.2375  0.3359
  156MOL0     H21011   2.222   2.625   2.602 -2.6424  0.3633 -0.0934
  156MOL0     H21012   2.020   2.707   2.481  1.3169 -0.2296  1.7827
  156MOL0     H21013   2.004   2.884   2.457  2.1437  2.5540  0.2326
  156MOL0     H21014   2.231   2.734   2.323 -2.9207 -2.5517 -1.5711
  156MOL0     H21015   2.075   2.777   2.250  1.6744 -5.2260 -0.4918
  156MOL0     H21016   2.281   2.972   2.349 -0.6738  0.6668  1.0028
  156MOL0     H21017   2.111   3.009   2.291 -1.6502 -1.4135 -3.7613
  156MOL0     H21018   2.180   2.908   2.068  1.4222 -1.9746  0.0730
  156MOL0     H21019   2.318   2.846   2.146  0.8866  0.1012 -3.1611
  156MOL0     H21020   2.314   2.865   1.883 -1.2550  0.1838  1.1870
  156MOL0     H21021   2.400   2.912   1.678 -1.0648 -0.0158  0.9752
  156MOL0     H21022   2.843   2.910   1.663 -0.7893  1.9223  0.7860
  156MOL0     H21023   3.037   2.844   1.528 -1.2439 -0.2818  2.7725
  156MOL0     H21024   3.234   2.932   1.350  2.1169 -0.9147  0.5970
  156MOL0     H21025   3.152   2.773   1.355 -4.4057 -2.1373 -2.8575
  156MOL0     H21026   3.196   2.729   1.117  0.7087  0.4279 -1.4091
  156MOL0     H21027   3.283   2.884   1.098 -1.4339 -1.5685 -2.3811
  156MOL0     H21028   3.455   2.828   1.261 -1.5798  0.1525  4.2831
  156MOL0     H21029   3.372   2.676   1.307 -1.1936 -0.6905 -0.4494
  156MOL0     H21030   3.572   2.642   1.179 -1.4239  1.7688  0.7023
  156MOL0     H21031   3.511   2.735   1.042  0.4123  1.2555  0.7227
  156MOL0     H21032   3.326   2.567   1.019  0.3206 -2.2666 -2.0945
  156MOL0     H21033   3.366   2.486   1.167  3.0919 -3.1558  0.1901
  156MOL0     H21034   3.514   2.488   0.903  0.6373  1.0786  1.1147
  156MOL0     H21035   3.598   2.430   1.052  1.5418  2.5199 -1.5374
  156MOL0     H21036   3.315   2.320   0.980  0.2275 -0.2268  0.2322
  156MOL0     H21037   3.448   2.241   1.067 -1.3737  0.3494  1.5170
  156MOL0     H21038   3.412   2.146   0.851  0.0024 -0.6946 -3.1950
  156MOL0     H21039   3.457   2.284   0.763  0.3970 -1.6572 -0.7400
  156MOL0     H21040   2.839   3.048   1.198  0.7089  2.3707  1.7872
  156MOL0     H21041   2.648   3.087   1.345  1.6647  2.0085 -1.7206
  156MOL0     H21042   2.540   3.301   1.810  0.1200 -0.4460 -1.5343
  156MOL0     H21043   2.426   3.256   2.036 -1.1684 -1.7733  1.2610
  156MOL0     H21044   2.963   3.109   1.917  1.0169  0.0999  2.1677
  156MOL0     H21045   3.129   3.120   1.753 -0.8265  0.1068  1.8030
  156MOL0     H21046   3.398   3.041   1.517 -1.8820 -3.0927  2.0735
  156MOL0     H21047   3.629   3.130   1.421 -0.0023  0.4392 -0.9998
  156MOL0     H21048   3.681   3.015   1.210  0.6021  0.3644  1.5480
  156MOL0     H21049   3.844   2.942   1.152 -1.3847 -2.7363  0.9531
  156MOL0     H21050   3.786   3.219   1.273 -1.0273 -0.8704 -1.2411
  156MOL0     H21051   3.794   3.195   1.102 -4.5674 -2.8611  0.6868
  156MOL0     H21052   4.031   3.162   1.114  0.0892 -0.2030  0.4381
  156MOL0     H21053   4.030   3.080   1.268  0.3357 -1.0865 -1.4062
  156MOL0     H21054   3.993   3.375   1.226 -1.3580 -0.2004  0.7051
  156MOL0     H21055   4.016   3.279   1.380 -0.0135 -0.8367  0.3995
  156MOL0     H21056   4.408   3.318   1.216 -0.8332  0.5853 -2.2918
  156MOL0     H21057   3.776   2.742   1.445  1.8451  3.0901 -0.1249
  156MOL0     H21058   3.483   2.578   1.471 -1.4664  0.8703  1.6383
  156MOL0     H21059   3.652   2.560   1.535  0.3592  0.8338  3.7220
  156MOL0     H21060   3.511   2.579   1.643 -1.9809  5.7599  1.6217
  157MOL0     O21061   5.378   2.339   0.960  0.0746  0.6177 -0.1972
  157MOL0     C21062   5.382   2.330   1.084 -0.7337 -0.8521  0.0258
  157MOL0     O21063   5.288   2.379   1.173 -0.3224 -0.8014  0.5566
  157MOL0     C21064   5.165   2.428   1.136  0.2552  1.1518  0.5362
  157MOL0     C21065   5.105   2.451   1.005  0.2382  0.0910 -0.1192
  157MOL0     C21066   4.991   2.541   1.001  0.5960 -0.0616 -0.1597
  157MOL0     C21067   4.937   2.588   1.120  0.3698  0.0368  0.2877
  157MOL0     O21068   4.822   2.665   1.100  0.1729  0.1484 -0.1266
  157MOL0     C21069   4.752   2.718   1.215  0.2955 -0.2542  1.4800
  157MOL0     C21070   4.652   2.615   1.265 -0.4225 -0.4798 -0.1545
  157MOL0     C21071   4.541   2.582   1.166  0.0277 -0.0505 -0.1141
  157MOL0     C21072   4.465   2.451   1.178  0.3485 -0.3476 -0.1332
  157MOL0     C21073   4.445   2.430   1.335  0.0933 -0.3670 -0.0513
  157MOL0     C21074   4.356   2.307   1.361  0.1201  0.4046  0.6272
  157MOL0     C21075   4.371   2.247   1.502 -0.3378 -0.0005 -0.0516
  157MOL0     C21076   4.301   2.324   1.613 -0.7244 -0.6123 -0.5805
  157MOL0     N21077   4.158   2.336   1.586 -0.0381  0.0995 -0.0855
  157MOL0     C21078   4.086   2.224   1.592  0.5229 -0.4661 -1.4507
  157MOL0     C21079   3.968   2.267   1.552  0.0948  0.2910  0.6882
  157MOL0     C21080   3.849   2.180   1.530 -0.2217 -0.0771 -0.1603
  157MOL0     C21081   3.860   2.080   1.405 -0.0428  0.5590  0.0589
  157MOL0     C21082   3.841   2.140   1.259  0.4713 -0.5462 -0.4233
  157MOL0     C21083   3.878   2.037   1.141 -0.2945  0.7961 -1.1775
  157MOL0     O21084   4.012   1.996   1.161  0.2174  0.5046 -0.5613
  157MOL0     C21085   4.075   1.890   1.094 -0.2080  0.0701 -0.5947
  157MOL0     C21086   4.204   1.848   1.135  0.6113 -0.6926 -0.6460
  157MOL0     C21087   4.266   1.737   1.078 -0.0267 -0.1312 -0.0641
  157MOL0     C21088   4.194   1.661   0.991 -0.3607 -0.1350 -0.9572
  157MOL0     C21089   4.244   1.526   0.961  1.2428  0.8024 -0.3650
  157MOL0     O21090   4.201   1.467   0.840  0.2358 -0.0454  0.1412
  157MOL0     C21091   4.238   1.340   0.803  0.6307  0.5218 -0.6076
  157MOL0     C21092   4.262   1.321   0.666 -0.8317 -0.5778  0.3233
  157MOL0     C21093   4.297   1.194   0.618  0.2837 -0.7678 -0.6644
  157MOL0     C21094   4.330   1.096   0.704  1.5857  0.9429  0.1789
  157MOL0     O21095   4.394   0.995   0.641  0.2762 -0.0905 -0.2563
  157MOL0     C21096   4.435   0.875   0.709 -0.6804 -0.3682  0.3802
  157MOL0     C21097   4.471   0.770   0.611  0.7908  0.0258 -0.0410
  157MOL0     C21098   4.348   0.716   0.533 -0.0699  0.1117 -0.4062
  157MOL0     C21099   4.394   0.635   0.415 -0.0516 -0.1688 -0.4170
  157MOL0     C21100   4.273   0.606   0.327  0.0688 -0.4026 -0.1175
  157MOL0     C21101   4.300   0.610   0.176 -0.2853 -0.2877  0.5676
  157MOL0     C21102   4.341   0.750   0.136  0.4453 -0.4369 -0.1291
  157MOL0     C21103   4.390   0.761  -0.007  0.7929 -0.6496  0.3816
  157MOL0    Cl21104   4.518   0.639  -0.038  0.3968  0.1951 -0.6407
  157MOL0     C21105   4.304   1.106   0.836  0.0738 -0.0826  0.4557
  157MOL0     C21106   4.258   1.229   0.885  0.6640  0.1289  0.5677
  157MOL0     O21107   4.317   1.468   1.045 -0.5181  0.9232  0.0482
  157MOL0     C21108   4.073   1.700   0.939 -0.2059  0.5300  0.8736
  157MOL0     C21109   4.016   1.824   0.990  0.9272 -0.6315 -0.0320
  157MOL0     N21110   3.972   2.396   1.523  0.2786 -0.4211  0.4985
  157MOL0     N21111   4.086   2.438   1.529  0.6776 -0.0873 -1.0018
  157MOL0     C21112   4.994   2.562   1.242 -0.4835 -1.1184 -0.0419
  157MOL0     C21113   5.098   2.480   1.252 -0.1247 -0.0775 -0.2842
  157MOL0     C21114   5.514   2.279   1.135 -0.5380 -0.1889 -0.4595
  157MOL0     C21115   5.604   2.204   1.052 -0.1918 -0.3573  0.3241
  157MOL0     C21116   5.725   2.151   1.101 -0.5488 -0.3624  0.9631
  157MOL0     C21117   5.769   2.173   1.231 -0.3790 -0.0987  0.1434
  157MOL0     O21118   5.879   2.107   1.279  0.2674 -0.4070  0.3944
  157MOL0     C21119   5.885   2.093   1.426 -0.7700  0.9747 -0.1550
  157MOL0     C21120   6.027   2.073   1.483 -0.7226  0.2556 -0.8140
  157MOL0     C21121   6.086   1.943   1.444  0.2421 -0.1272  1.0566
  157MOL0     C21122   6.219   1.937   1.519  0.3929  0.4595  0.3167
  157MOL0     C21123   6.304   1.839   1.462  0.3942  0.0324  0.1769
  157MOL0     C21124   6.367   1.760   1.408  0.3009  0.5322  0.9976
  157MOL0     C21125   5.683   2.248   1.312  0.1862  0.0403 -0.5862
  157MOL0     C21126   5.562   2.300   1.266 -0.6186 -0.7686 -0.0734
  157MOL0     C21127   5.508   2.400   1.360  0.6211  0.0579 -0.6070
  157MOL0     H21128   5.156   2.418   0.915 -1.2186  1.6577 -1.5849
  157MOL0     H21129   4.952   2.576   0.906  0.7026  1.1116  0.2065
  157MOL0     H21130   4.821   2.760   1.289  0.2195  4.0852 -0.6223
  157MOL0     H21131   4.699   2.809   1.188  3.6582  1.3485 -0.4243
  157MOL0     H21132   4.607   2.653   1.357  0.6867  0.4442  0.0192
  157MOL0     H21133   4.701   2.519   1.285  0.9842 -0.0131 -1.1820
  157MOL0     H21134   4.581   2.572   1.064 -4.0614 -3.8150 -1.6790
  157MOL0     H21135   4.482   2.674   1.169 -1.1943 -0.8499  1.1702
  157MOL0     H21136   4.367   2.459   1.132 -0.7444  0.1235  2.1193
  157MOL0     H21137   4.514   2.367   1.127 -1.1965 -1.0568 -0.4908
  157MOL0     H21138   4.542   2.417   1.384 -0.1338 -0.0985  0.4762
  157MOL0     H21139   4.390   2.514   1.378  0.3541  0.9758 -2.1690
  157MOL0     H21140   4.255   2.334   1.330  0.9961  1.9684 -1.0656
  157MOL0     H21141   4.384   2.228   1.291 -0.2760 -0.4719  1.4452
  157MOL0     H21142   4.476   2.251   1.532 -0.9287 -1.8872  2.6357
  157MOL0     H21143   4.348   2.140   1.504  2.5436 -0.8124 -2.3923
  157MOL0     H21144   4.309   2.281   1.713 -1.1859  2.0145  0.6822
  157MOL0     H21145   4.343   2.424   1.630 -0.9266 -0.9626  2.4929
  157MOL0     H21146   4.118   2.122   1.614  2.3761 -0.2836 -3.0680
  157MOL0     H21147   3.837   2.121   1.621 -1.2567 -0.5509 -0.5878
  157MOL0     H21148   3.755   2.237   1.526  0.7806  1.7800  1.2295
  157MOL0     H21149   3.953   2.024   1.418 -0.8349 -1.5597 -2.5289
  157MOL0     H21150   3.790   1.997   1.415 -0.6178  1.1820  1.5626
  157MOL0     H21151   3.904   2.229   1.255  1.0539 -0.9292  0.0299
  157MOL0     H21152   3.736   2.171   1.248 -0.3579 -3.1157 -0.3925
  157MOL0     H21153   3.865   2.084   1.044 -0.5453 -1.1671 -2.1467
  157MOL0     H21154   3.817   1.946   1.141 -0.8856  1.1890 -0.7081
  157MOL0     H21155   4.241   1.896   1.225 -2.4630 -0.9467  0.8824
  157MOL0     H21156   4.358   1.702   1.123  0.3706  0.5507 -0.3298
  157MOL0     H21157   4.236   1.409   0.608  1.9968  2.4584  3.2452
  157MOL0     H21158   4.326   1.183   0.514 -0.5391 -2.0528 -0.7767
  157MOL0     H21159   4.530   0.902   0.756 -0.8441  0.3205  0.3252
  157MOL0     H21160   4.353   0.848   0.776 -2.2924  0.3050 -1.2251
  157MOL0     H21161   4.554   0.793   0.543  0.7503 -4.5955 -2.0110
  157MOL0     H21162   4.513   0.689   0.672  1.4864  2.1124  2.4619
  157MOL0     H21163   4.283   0.653   0.595  1.2597 -2.3763 -1.4233
  157MOL0     H21164   4.291   0.802   0.497  1.6280  1.7644  0.6431
  157MOL0     H21165   4.440   0.543   0.451 -2.2586  0.0083  3.3248
  157MOL0     H21166   4.475   0.691   0.367  1.6249 -1.4735  0.7942
  157MOL0     H21167   4.200   0.687   0.333 -0.4662 -0.8495 -0.5403
  157MOL0     H21168   4.236   0.506   0.355 -1.0124  0.0483  0.1144
  157MOL0     H21169   4.376   0.537   0.148 -1.1569 -0.5701 -1.1797
  157MOL0     H21170   4.207   0.587   0.122 -0.1904 -1.1460  0.7580
  157MOL0     H21171   4.404   0.804   0.207  0.7959 -1.3916  0.2938
  157MOL0     H21172   4.248   0.807   0.143  1.3425  1.1701 -0.6785
  157MOL0     H21173   4.308   0.737  -0.075 -1.2090 -0.5027  2.6182
  157MOL0     H21174   4.437   0.856  -0.034  4.2320 -1.7193  2.0030
  157MOL0     H21175   4.338   1.031   0.906 -1.1395  1.0821  2.4115
  157MOL0     H21176   4.249   1.254   0.990  2.0501  1.0095  0.5069
  157MOL0     H21177   4.025   1.648   0.858 -0.1728  2.1674 -0.2443
  157MOL0     H21178   3.925   1.860   0.941 -0.1720 -3.5564 -0.3459
  157MOL0     H21179   4.943   2.588   1.335 -2.0785 -0.1404 -1.1386
  157MOL0     H21180   5.140   2.442   1.345  0.4469  0.6098 -0.2477
  157MOL0     H21181   5.571   2.190   0.949 -0.1386  4.2740 -0.5489
  157MOL0     H21182   5.783   2.089   1.033  3.5519  2.2923  1.7089
  157MOL0     H21183   5.819   2.016   1.466  0.4653  0.5108  1.1092
  157MOL0     H21184   5.850   2.184   1.474 -2.5205  0.1490  0.2057
  157MOL0     H21185   6.023   2.074   1.592 -0.5740  2.5602 -0.7830
  157MOL0     H21186   6.096   2.156   1.463 -0.4897  1.2260  3.2009
  157MOL0     H21187   6.089   1.951   1.335 -3.4956 -1.7558  0.6870
  157MOL0     H21188   6.018   1.863   1.475 -1.4550  0.4746 -0.9114
  157MOL0     H21189   6.263   2.037   1.508 -0.2768  0.5507 -2.0972
  157MOL0     H21190   6.199   1.903   1.621  0.7168  0.4553  0.3770
  157MOL0     H21191   6.425   1.686   1.356  0.3572 -0.0336  1.8451
  157MOL0     H21192   5.693   2.265   1.418  1.3702 -1.3364 -0.4404
  157MOL0     H21193   5.572   2.424   1.445 -2.8923  3.6118  1.3666
  157MOL0     H21194   5.478   2.490   1.304 -0.0523  1.8468  2.4145
  157MOL0     H21195   5.413   2.355   1.391 -0.2772  0.7584 -2.1808
  158MOL0     O21196   7.770   5.042   9.400 -0.3372 -0.0746 -0.0704
  158MOL0     C21197   7.847   4.945   9.415 -0.0119 -0.4693  0.0778
  158MOL0     O21198   7.984   4.959   9.439 -0.2615  0.4166  0.0685
  158MOL0     C21199   8.065   5.064   9.444  0.4741 -0.9282 -0.4094
  158MOL0     C21200   8.187   5.051   9.512  0.6395  0.1814  0.1049
  158MOL0     C21201   8.272   5.159   9.522 -0.1334 -0.5125 -0.0928
  158MOL0     C21202   8.247   5.275   9.453  0.2507 -0.8265 -0.4152
  158MOL0     O21203   8.325   5.387   9.461  0.4438 -0.1749  0.1163
  158MOL0     C21204   8.458   5.369   9.496 -0.9321 -0.1079 -0.4101
  158MOL0     C21205   8.529   5.506   9.480 -0.5637  0.3273  0.2811
  158MOL0     C21206   8.682   5.470   9.463 -0.3019 -0.1336  0.3497
  158MOL0     C21207   8.768   5.594   9.461 -0.6680 -0.5315 -0.0767
  158MOL0     C21208   8.918   5.565   9.466  0.2037  0.3565 -0.2388
  158MOL0     C21209   9.019   5.684   9.494  0.2500 -0.7124  0.3080
  158MOL0     C21210   8.996   5.810   9.389  0.1354  0.1595 -0.1621
  158MOL0     C21211   9.102   5.928   9.401 -0.7498 -0.2731  0.8951
  158MOL0     N21212   9.147   5.975   9.532  1.0964  0.2475 -0.8178
  158MOL0     C21213   9.075   6.050   9.625  0.3681  0.4835  1.0619
  158MOL0     C21214   9.152   6.023   9.737 -0.1104  0.2027 -1.3091
  158MOL0     C21215   9.117   6.073   9.868  0.2265  0.1854 -0.1083
  158MOL0     C21216   9.064   5.947   9.951  0.6167 -0.1253 -0.6339
  158MOL0     C21217   9.003   6.005  10.084  0.0578 -0.2396  0.0601
  158MOL0     C21218   8.972   5.888  10.182 -0.8856  0.3576  0.1833
  158MOL0     O21219   9.091   5.810  10.224 -0.2472 -0.1411 -0.4151
  158MOL0     C21220   9.177   5.863  10.319  0.8187  0.7858 -0.0366
  158MOL0     C21221   9.310   5.901  10.277 -0.1028  0.2248 -0.5379
  158MOL0     C21222   9.414   5.942  10.373 -0.1716 -0.2340  0.6481
  158MOL0     C21223   9.372   5.941  10.508 -0.5469 -0.0054 -0.1177
  158MOL0     C21224   9.463   6.000  10.613 -0.0013 -0.6163  0.1078
  158MOL0     O21225   9.431   5.959  10.746  0.3124 -0.8120  0.0920
  158MOL0     C21226   9.484   6.035  10.851  0.4305 -0.8112 -0.5465
  158MOL0     C21227   9.435   6.168  10.862  0.2570 -0.4511 -1.1031
  158MOL0     C21228   9.477   6.250  10.968  0.1714 -0.7741  0.0424
  158MOL0     C21229   9.568   6.202  11.066 -0.0568  0.4314 -0.3727
  158MOL0     O21230   9.613   6.269  11.175 -0.4668 -0.6212  0.2549
  158MOL0     C21231   9.643   6.412  11.146 -0.8255  0.2565 -0.1631
  158MOL0     C21232   9.708   6.470  11.268 -0.4901 -1.1601 -1.1374
  158MOL0     C21233   9.769   6.605  11.232 -0.2759 -0.2207 -1.3504
  158MOL0     C21234   9.674   6.706  11.168  0.3013  1.0278 -0.0925
  158MOL0     C21235   9.744   6.838  11.147 -0.4258 -0.2518  0.1053
  158MOL0     C21236   9.793   6.905  11.275 -0.7281  0.2782  0.3486
  158MOL0     C21237   9.879   7.020  11.241 -0.4734  0.2857 -0.1776
  158MOL0     C21238   9.815   7.147  11.192 -0.2258 -0.5338 -0.8676
  158MOL0    Cl21239   9.720   7.226  11.329  0.2459  0.3119 -0.1898
  158MOL0     C21240   9.601   6.072  11.067 -0.3946  0.2323 -0.3212
  158MOL0     C21241   9.570   5.988  10.955  1.7108 -0.0946  0.0770
  158MOL0     O21242   9.555   6.074  10.586  0.1981 -1.0219 -0.2238
  158MOL0     C21243   9.236   5.905  10.548 -0.1976  0.5948  0.7774
  158MOL0     C21244   9.134   5.866  10.456 -0.4614 -0.4954 -0.0085
  158MOL0     N21245   9.266   5.959   9.724  0.8209 -0.5518  0.0188
  158MOL0     N21246   9.251   5.911   9.597  0.7519 -1.2633 -0.4440
  158MOL0     C21247   8.132   5.286   9.376 -0.3714 -1.0289 -0.1338
  158MOL0     C21248   8.044   5.186   9.376  0.2330  0.4902  0.5714
  158MOL0     C21249   7.784   4.812   9.423  0.2662  1.1082  0.0270
  158MOL0     C21250   7.828   4.711   9.512  0.6145  0.6047  0.2465
  158MOL0     C21251   7.750   4.594   9.539  0.2055  0.0708  0.9426
  158MOL0     C21252   7.647   4.567   9.455  0.4860 -1.5654 -0.0130
  158MOL0     O21253   7.574   4.461   9.481  0.6838 -0.0243  0.1784
  158MOL0     C21254   7.428   4.464   9.453 -0.4601  0.1809  0.1460
  158MOL0     C21255   7.333   4.526   9.557  0.4931  0.1477 -0.5278
  158MOL0     C21256   7.317   4.438   9.681  0.3069  0.9692  0.0539
  158MOL0     C21257   7.197   4.343   9.666 -0.1285  0.3456 -0.0452
  158MOL0     C21258   7.196   4.233   9.767 -0.1472 -0.2670 -0.3781
  158MOL0     C21259   7.215   4.140   9.840 -0.5590 -0.2748 -0.7525
  158MOL0     C21260   7.611   4.656   9.350  0.3030  0.0275 -0.0871
  158MOL0     C21261   7.675   4.775   9.334  0.7610 -0.1103 -0.1320
  158MOL0     C21262   7.629   4.876   9.227 -0.6068  0.1901 -0.0265
  158MOL0     H21263   8.216   4.951   9.544  0.6515 -0.9959 -3.1783
  158MOL0     H21264   8.365   5.142   9.576 -0.9239 -0.8783  1.1760
  158MOL0     H21265   8.457   5.328   9.597 -1.1312 -0.7171 -0.6580
  158MOL0     H21266   8.506   5.300   9.426  0.3651  1.4669 -1.1323
  158MOL0     H21267   8.508   5.574   9.564  2.1119  1.5489  0.0724
  158MOL0     H21268   8.507   5.551   9.383  0.3055  0.6989  0.2445
  158MOL0     H21269   8.700   5.415   9.371  0.8360 -0.4257  0.7191
  158MOL0     H21270   8.707   5.394   9.537  0.5381 -0.1502  0.0675
  158MOL0     H21271   8.746   5.653   9.371 -0.1364  0.5399  0.4929
  158MOL0     H21272   8.733   5.651   9.547 -2.2666  0.2922 -1.2179
  158MOL0     H21273   8.941   5.484   9.535 -1.4513  0.0227 -0.0276
  158MOL0     H21274   8.942   5.525   9.367  2.1192 -0.5123  0.5321
  158MOL0     H21275   9.024   5.710   9.601 -0.1386  1.0296 -0.0563
  158MOL0     H21276   9.120   5.648   9.475 -0.0493  0.3185 -4.2103
  158MOL0     H21277   8.898   5.857   9.397  0.0181  0.1677 -1.3409
  158MOL0     H21278   9.015   5.772   9.288  1.6390 -0.4763  0.3321
  158MOL0     H21279   9.193   5.900   9.349 -1.1637 -0.2268  0.1396
  158MOL0     H21280   9.060   6.014   9.348 -1.9421 -1.7144 -0.6198
  158MOL0     H21281   8.989   6.116   9.612  0.9141  0.9019 -0.6063
  158MOL0     H21282   9.202   6.128   9.910 -0.1204  0.0221  0.8408
  158MOL0     H21283   9.034   6.142   9.855  0.3449  0.2344 -0.6180
  158MOL0     H21284   8.979   5.907   9.896 -1.2072  0.0215  1.9059
  158MOL0     H21285   9.140   5.871   9.970  0.7617 -1.0072 -4.0793
  158MOL0     H21286   8.916   6.065  10.055 -0.7895 -1.8007 -0.7846
  158MOL0     H21287   9.078   6.063  10.137 -1.0576 -1.9972  3.8820
  158MOL0     H21288   8.899   5.825  10.131 -2.5169  1.0075  1.6328
  158MOL0     H21289   8.929   5.932  10.273 -0.6316 -1.2064  1.0976
  158MOL0     H21290   9.334   5.890  10.171  1.4660  2.9188 -0.5578
  158MOL0     H21291   9.512   5.972  10.339 -1.4319  0.9152 -2.3049
  158MOL0     H21292   9.363   6.206  10.790 -1.1018  0.9564  0.8893
  158MOL0     H21293   9.423   6.343  10.964  0.5055 -0.6126 -0.8873
  158MOL0     H21294   9.700   6.421  11.054 -0.3622 -0.7767  0.0093
  158MOL0     H21295   9.548   6.466  11.137  0.4001  2.7445  0.7344
  158MOL0     H21296   9.629   6.489  11.341 -0.7848  2.1488 -2.1827
  158MOL0     H21297   9.785   6.414  11.323  1.6298  1.1101 -1.6306
  158MOL0     H21298   9.800   6.647  11.328 -2.3890  1.3966 -1.3198
  158MOL0     H21299   9.860   6.591  11.173  0.5167 -1.6675  0.1078
  158MOL0     H21300   9.590   6.724  11.236  0.5340 -1.5987  0.9684
  158MOL0     H21301   9.632   6.670  11.074  0.8660  2.8748 -1.1152
  158MOL0     H21302   9.671   6.907  11.104 -1.2811 -0.9938  0.3439
  158MOL0     H21303   9.825   6.815  11.077 -1.0646 -1.5222 -0.2500
  158MOL0     H21304   9.709   6.939  11.335 -0.3869  0.2075  0.8781
  158MOL0     H21305   9.855   6.838  11.336  1.8401  1.0707 -1.2549
  158MOL0     H21306   9.966   6.996  11.179 -1.1798 -0.2364 -0.9726
  158MOL0     H21307   9.933   7.042  11.334  2.6361 -1.3264 -1.4505
  158MOL0     H21308   9.896   7.219  11.176  0.1352 -0.0698  2.4323
  158MOL0     H21309   9.753   7.128  11.104 -0.8477 -0.2132 -0.5000
  158MOL0     H21310   9.668   6.034  11.143 -2.6064  0.1459  1.7058
  158MOL0     H21311   9.605   5.887  10.940  2.4689  0.4835 -2.6109
  158MOL0     H21312   9.220   5.896  10.655  0.2874  1.7983  0.9638
  158MOL0     H21313   9.039   5.821  10.483 -1.4143  1.7226  0.5360
  158MOL0     H21314   8.102   5.380   9.331  0.7539 -0.2523  0.6796
  158MOL0     H21315   7.954   5.215   9.323  1.2953  1.7481 -0.6170
  158MOL0     H21316   7.914   4.728   9.576 -0.1467  1.9184  0.9559
  158MOL0     H21317   7.763   4.502   9.597 -3.5644 -0.9716  0.4327
  158MOL0     H21318   7.410   4.358   9.434  3.8328 -1.0950  1.9931
  158MOL0     H21319   7.411   4.511   9.355  2.4216 -0.5032 -0.7943
  158MOL0     H21320   7.234   4.554   9.519 -0.8441 -1.6654  1.3804
  158MOL0     H21321   7.374   4.623   9.588  0.6242 -0.8282  2.6932
  158MOL0     H21322   7.311   4.505   9.767 -1.4848 -0.9985  1.5619
  158MOL0     H21323   7.407   4.375   9.679  0.5710  1.3298 -2.3268
  158MOL0     H21324   7.104   4.399   9.682 -1.1037 -1.6688  2.1080
  158MOL0     H21325   7.196   4.290   9.570 -0.4989  2.6409 -1.3803
  158MOL0     H21326   7.219   4.058   9.909 -0.5039 -1.6091 -2.2919
  158MOL0     H21327   7.535   4.628   9.278  1.7583 -3.3418 -0.4893
  158MOL0     H21328   7.719   4.932   9.201 -0.3995 -0.0200  0.2367
  158MOL0     H21329   7.580   4.823   9.145  0.6498 -0.6592 -0.2635
  158MOL0     H21330   7.551   4.943   9.264 -3.9697 -2.7730 -1.1772
  159MOL0     O21331   7.654   7.161   6.182  0.3537  0.2252 -0.1983
  159MOL0     C21332   7.702   7.270   6.156 -0.6496 -1.0460 -1.3462
  159MOL0     O21333   7.646   7.385   6.196 -0.1341  0.3790 -0.4817
  159MOL0     C21334   7.560   7.446   6.104  0.1054 -0.0322  0.7290
  159MOL0     C21335   7.538   7.428   5.964 -0.1007  0.4570  0.3851
  159MOL0     C21336   7.450   7.506   5.890  0.2890 -0.4339 -0.7251
  159MOL0     C21337   7.380   7.618   5.947  0.2822 -0.7178 -0.0374
  159MOL0     O21338   7.287   7.688   5.874  0.4666 -0.4550  0.3358
  159MOL0     C21339   7.316   7.827   5.856 -0.3421 -0.4605  0.3541
  159MOL0     C21340   7.216   7.911   5.933 -0.6898 -0.0907 -0.0313
  159MOL0     C21341   7.259   8.064   5.912  0.1131 -1.0054 -0.3527
  159MOL0     C21342   7.170   8.171   5.981  0.3692 -0.1349 -0.8099
  159MOL0     C21343   7.225   8.317   5.971 -0.0981 -0.1097  0.1878
  159MOL0     C21344   7.129   8.411   6.049 -1.3516  0.4543  0.2127
  159MOL0     C21345   7.188   8.542   6.065 -0.3633  0.3725 -1.3556
  159MOL0     C21346   7.229   8.616   5.930  0.2896  0.2877 -0.1429
  159MOL0     N21347   7.255   8.759   5.944 -0.7049  0.0487  0.5421
  159MOL0     C21348   7.373   8.820   5.983 -0.4133 -0.1515  0.5121
  159MOL0     C21349   7.339   8.949   6.003  0.2932 -1.0910 -0.5049
  159MOL0     C21350   7.416   9.059   6.056  0.3070  0.1150  0.4089
  159MOL0     C21351   7.508   9.134   5.950 -1.2178  0.9789 -0.8270
  159MOL0     C21352   7.628   9.047   5.916 -0.2480 -0.4510  0.0224
  159MOL0     C21353   7.728   9.144   5.851  0.3853  0.5284 -0.2011
  159MOL0     O21354   7.800   9.232   5.942  0.3489  0.3004 -0.5318
  159MOL0     C21355   7.928   9.217   5.916 -0.9029 -0.6296 -0.2243
  159MOL0     C21356   8.009   9.114   5.965  0.6784 -0.1745  0.2416
  159MOL0     C21357   8.125   9.085   5.891 -0.7293 -0.0849  0.4839
  159MOL0     C21358   8.166   9.166   5.781  0.0521 -0.1760 -0.5410
  159MOL0     C21359   8.287   9.127   5.711  1.1236 -0.5072 -0.9787
  159MOL0     O21360   8.376   9.068   5.795 -0.0429  0.4517  0.2183
  159MOL0     C21361   8.481   9.000   5.743 -0.0206 -0.4380 -0.6208
  159MOL0     C21362   8.598   9.070   5.717 -0.4209 -0.5262  1.3110
  159MOL0     C21363   8.717   8.999   5.697 -0.1758  0.4496 -0.5182
  159MOL0     C21364   8.720   8.858   5.681  1.1352  0.4254  0.4816
  159MOL0     O21365   8.843   8.800   5.657  0.6602  0.1600 -0.0795
  159MOL0     C21366   8.864   8.673   5.717 -1.3792  0.2563  0.0018
  159MOL0     C21367   9.017   8.644   5.703  1.1344 -0.0954  0.0439
  159MOL0     C21368   9.105   8.726   5.795  0.1139 -0.2122 -0.6104
  159MOL0     C21369   9.209   8.652   5.857 -0.5350  0.0123  0.0910
  159MOL0     C21370   9.318   8.740   5.915 -0.7185  0.0220 -0.2606
  159MOL0     C21371   9.425   8.650   5.971  0.0130 -0.2875  0.0985
  159MOL0     C21372   9.537   8.711   6.052 -0.2434 -0.1718  0.5203
  159MOL0     C21373   9.485   8.774   6.187 -0.3332  0.4156  0.3781
  159MOL0    Cl21374   9.607   8.837   6.313  0.5212 -0.5036 -0.4820
  159MOL0     C21375   8.590   8.792   5.691  0.1595  0.2357  0.8441
  159MOL0     C21376   8.475   8.866   5.724  0.1183 -0.1815 -0.7347
  159MOL0     O21377   8.284   9.131   5.588 -0.3765 -0.7704 -0.4892
  159MOL0     C21378   8.102   9.284   5.765  0.3122  0.3709  0.8287
  159MOL0     C21379   7.984   9.312   5.829 -0.0817  0.5612  0.6940
  159MOL0     N21380   7.209   8.967   5.989 -0.0596  0.0306  0.0610
  159MOL0     N21381   7.157   8.852   5.956  0.8464  0.5482 -0.8163
  159MOL0     C21382   7.415   7.653   6.081 -0.1938 -0.2920 -0.4883
  159MOL0     C21383   7.504   7.563   6.159 -0.3003  1.0916  0.5088
  159MOL0     C21384   7.826   7.279   6.084  0.4729  0.4796 -0.2486
  159MOL0     C21385   7.885   7.157   6.043 -0.2472 -0.5735  0.2629
  159MOL0     C21386   8.008   7.142   5.975 -0.7934 -0.0601 -0.2333
  159MOL0     C21387   8.075   7.257   5.950 -0.5344 -0.4088  1.3791
  159MOL0     O21388   8.196   7.268   5.878  0.2497  0.8663 -0.5202
  159MOL0     C21389   8.297   7.171   5.878  0.4443  0.5558 -0.0476
  159MOL0     C21390   8.376   7.143   6.017  0.7221  0.4216  0.6707
  159MOL0     C21391   8.470   7.267   6.056  1.1328  0.1839  0.4426
  159MOL0     C21392   8.542   7.235   6.190  0.2050 -0.4478 -0.7617
  159MOL0     C21393   8.630   7.118   6.189 -0.3066 -0.7876 -0.2009
  159MOL0     C21394   8.696   7.023   6.170 -0.5640  0.7836 -0.2680
  159MOL0     C21395   8.028   7.377   5.991 -0.4739 -0.6509 -0.0975
  159MOL0     C21396   7.907   7.391   6.057  0.2475  1.2110 -1.1242
  159MOL0     C21397   7.864   7.533   6.089  0.3404  0.3124 -0.8655
  159MOL0     H21398   7.596   7.357   5.904 -1.1594  1.1410 -1.5389
  159MOL0     H21399   7.433   7.486   5.784 -0.9461 -3.2818 -0.0930
  159MOL0     H21400   7.420   7.846   5.883  0.3618 -0.9355 -1.8354
  159MOL0     H21401   7.306   7.859   5.752  0.8076 -0.4838  0.2235
  159MOL0     H21402   7.233   7.894   6.040  1.7964 -0.7849 -0.4642
  159MOL0     H21403   7.113   7.902   5.899 -0.3174  0.3139 -1.3103
  159MOL0     H21404   7.259   8.087   5.805 -3.2881 -0.1928 -0.3123
  159MOL0     H21405   7.362   8.087   5.938 -0.6799  0.1437  2.0829
  159MOL0     H21406   7.074   8.177   5.928  0.2970 -0.9967 -0.7810
  159MOL0     H21407   7.156   8.153   6.088 -3.3970 -1.9242 -1.4196
  159MOL0     H21408   7.328   8.326   6.009 -0.4458 -1.6839  1.6286
  159MOL0     H21409   7.238   8.341   5.865  1.0805 -2.9017 -0.3871
  159MOL0     H21410   7.035   8.416   5.994 -1.9447  2.3064  1.3153
  159MOL0     H21411   7.113   8.364   6.147  2.0657 -2.2375 -0.3035
  159MOL0     H21412   7.274   8.542   6.132 -2.1231 -3.9472  1.3525
  159MOL0     H21413   7.112   8.609   6.105 -1.1086 -1.7930  1.1476
  159MOL0     H21414   7.314   8.572   5.877 -0.5986  1.4165 -2.6613
  159MOL0     H21415   7.139   8.626   5.868 -0.0749  1.3409  0.5350
  159MOL0     H21416   7.469   8.776   6.008 -0.1151  2.1145  4.0267
  159MOL0     H21417   7.354   9.132   6.110 -0.1119  0.1958 -0.1710
  159MOL0     H21418   7.478   9.017   6.136 -1.2597  1.8474  2.6961
  159MOL0     H21419   7.456   9.152   5.856 -0.0206  0.2967 -1.6466
  159MOL0     H21420   7.544   9.231   5.985  1.8683  0.5797 -2.5242
  159MOL0     H21421   7.609   8.968   5.843 -2.3102  0.5136 -0.5447
  159MOL0     H21422   7.669   9.008   6.010  0.3783  0.6474  0.2283
  159MOL0     H21423   7.671   9.196   5.774  0.9442  1.1401 -0.2168
  159MOL0     H21424   7.791   9.074   5.796  0.3490  0.9034 -0.7324
  159MOL0     H21425   7.965   9.058   6.047 -1.6525  0.8704 -0.2123
  159MOL0     H21426   8.186   8.999   5.916  0.1684  0.7469  1.2618
  159MOL0     H21427   8.598   9.178   5.729  1.5298 -0.6034  2.3892
  159MOL0     H21428   8.815   9.045   5.686 -0.9017  1.6244 -2.6432
  159MOL0     H21429   8.835   8.668   5.822  1.0341 -1.0876  0.6828
  159MOL0     H21430   8.814   8.594   5.661 -1.2790  0.4354 -0.3435
  159MOL0     H21431   9.035   8.538   5.720 -0.0530 -0.0529  1.7559
  159MOL0     H21432   9.043   8.666   5.599 -1.6925 -0.8047 -0.9084
  159MOL0     H21433   9.151   8.800   5.730  2.7023 -0.9597  0.2444
  159MOL0     H21434   9.048   8.766   5.879  1.1186 -4.8544  2.6492
  159MOL0     H21435   9.248   8.592   5.774 -1.3114 -0.3535 -0.0175
  159MOL0     H21436   9.157   8.579   5.919 -2.3670 -1.4985 -2.9874
  159MOL0     H21437   9.292   8.806   5.998  3.6325  1.1145  0.5164
  159MOL0     H21438   9.366   8.801   5.837 -0.3719  0.0047 -0.0625
  159MOL0     H21439   9.383   8.570   6.033 -1.2691  1.1049  1.0913
  159MOL0     H21440   9.480   8.614   5.884  0.7017  0.2846  0.2855
  159MOL0     H21441   9.584   8.791   5.994  0.0338 -0.2469  0.6420
  159MOL0     H21442   9.601   8.624   6.068 -3.5835 -3.1769 -1.0530
  159MOL0     H21443   9.410   8.852   6.171  0.3482  1.1892  0.9129
  159MOL0     H21444   9.425   8.698   6.239 -2.2206  1.8846  0.4586
  159MOL0     H21445   8.586   8.684   5.680 -1.2673  0.1060  2.2192
  159MOL0     H21446   8.381   8.816   5.750  0.5797 -1.3721 -1.2698
  159MOL0     H21447   8.134   9.359   5.693 -3.5430  1.0868 -0.3721
  159MOL0     H21448   7.926   9.395   5.794  0.7460 -0.6612 -4.3005
  159MOL0     H21449   7.371   7.747   6.114 -1.2499 -1.1550  0.6787
  159MOL0     H21450   7.528   7.583   6.263 -3.2888  0.6219  1.3667
  159MOL0     H21451   7.833   7.065   6.068  0.1160 -0.6499  0.7456
  159MOL0     H21452   8.044   7.047   5.937  2.1045  1.5389 -1.8107
  159MOL0     H21453   8.358   7.198   5.791  0.4670 -4.0106 -1.7567
  159MOL0     H21454   8.255   7.078   5.839  2.2910  0.8733 -3.2252
  159MOL0     H21455   8.434   7.050   6.019  0.3063  0.1642  1.9288
  159MOL0     H21456   8.294   7.134   6.090  0.9203  0.4909  0.9027
  159MOL0     H21457   8.406   7.355   6.066 -2.5255 -1.9134 -2.0667
  159MOL0     H21458   8.544   7.278   5.976  3.1418 -2.4646  1.7747
  159MOL0     H21459   8.610   7.317   6.215 -1.4178  0.2827  1.5826
  159MOL0     H21460   8.471   7.231   6.273  3.5607  1.8958  2.5295
  159MOL0     H21461   8.740   6.930   6.139  3.3053  2.7294 -1.2607
  159MOL0     H21462   8.091   7.459   5.960 -1.7390 -1.5091 -6.3044
  159MOL0     H21463   7.843   7.540   6.197  3.2476 -2.1923 -0.0065
  159MOL0     H21464   7.947   7.600   6.068  0.4560  0.4508 -0.0233
  159MOL0     H21465   7.774   7.564   6.035 -0.4813  1.3475  0.9836
  160MOL0     O21466   4.123   4.724   3.925  0.8617 -0.4308  0.4483
  160MOL0     C21467   4.185   4.804   3.855  0.3675 -0.2441  0.6956
  160MOL0     O21468   4.145   4.936   3.850  0.2257  0.2247  0.3968
  160MOL0     C21469   4.013   4.965   3.893  0.8223 -0.3038 -1.1267
  160MOL0     C21470   3.896   4.909   3.829  0.5535 -0.8872 -0.2901
  160MOL0     C21471   3.774   4.950   3.889  0.6534  0.0914 -0.4173
  160MOL0     C21472   3.770   5.032   4.005  0.0461 -0.1303 -0.2038
  160MOL0     O21473   3.654   5.066   4.054  0.3079  0.3983  0.1497
  160MOL0     C21474   3.641   5.023   4.189 -0.5020 -0.5271 -1.2747
  160MOL0     C21475   3.533   5.116   4.253  0.6265  0.2516 -0.3879
  160MOL0     C21476   3.390   5.101   4.209  0.3542 -0.1766 -1.0875
  160MOL0     C21477   3.315   5.230   4.243 -0.0848  0.0317 -0.2307
  160MOL0     C21478   3.171   5.203   4.208  0.2631  0.5068 -0.6772
  160MOL0     C21479   3.079   5.322   4.257 -0.2662  0.0284  0.0498
  160MOL0     C21480   3.084   5.352   4.408 -0.5321 -0.5371  0.5927
  160MOL0     C21481   2.983   5.466   4.436  0.0806  1.7071 -0.0495
  160MOL0     N21482   2.984   5.499   4.579 -0.0746  0.0687  1.1858
  160MOL0     C21483   3.085   5.493   4.667 -0.1487 -0.4418  0.3392
  160MOL0     C21484   3.034   5.557   4.780  0.2624  1.1072  0.2023
  160MOL0     C21485   3.107   5.537   4.908  0.2289 -0.1768  0.0987
  160MOL0     C21486   3.159   5.395   4.933 -0.1320  0.4510 -0.9188
  160MOL0     C21487   3.217   5.374   5.069 -0.3557 -0.6265  0.5506
  160MOL0     C21488   3.263   5.233   5.091 -0.2460  0.2970 -1.0247
  160MOL0     O21489   3.383   5.189   5.010 -0.0446 -0.4219 -0.1241
  160MOL0     C21490   3.508   5.210   5.048 -0.0581 -0.8187  0.9464
  160MOL0     C21491   3.613   5.154   4.967  0.4756 -0.4595 -0.5598
  160MOL0     C21492   3.744   5.177   4.978  1.1810  0.9329 -0.4764
  160MOL0     C21493   3.795   5.244   5.096  0.6468  0.2268 -0.0700
  160MOL0     C21494   3.937   5.246   5.129 -0.5153 -0.0008  0.3715
  160MOL0     O21495   4.024   5.208   5.033 -0.2389  0.0655 -0.1569
  160MOL0     C21496   4.150   5.179   5.082  0.5617 -0.2310 -0.4448
  160MOL0     C21497   4.243   5.285   5.100 -0.3133 -0.5573 -0.2944
  160MOL0     C21498   4.381   5.266   5.123 -0.1233  0.3071  0.0687
  160MOL0     C21499   4.432   5.133   5.126  0.0676 -0.4622 -1.1980
  160MOL0     O21500   4.563   5.108   5.144 -0.8483  0.4620 -0.0172
  160MOL0     C21501   4.616   4.976   5.164  1.2408  1.1797 -0.2617
  160MOL0     C21502   4.767   4.977   5.149  0.0943 -0.4623  0.1622
  160MOL0     C21503   4.817   4.833   5.134  1.0983 -1.1209 -0.4185
  160MOL0     C21504   4.974   4.821   5.149  0.2973  0.4218 -0.0605
  160MOL0     C21505   5.025   4.740   5.030  0.2217 -0.4330  0.7860
  160MOL0     C21506   4.977   4.599   5.018 -0.2669 -0.2528  0.5263
  160MOL0     C21507   5.014   4.532   4.889 -0.0482 -0.1554  0.5927
  160MOL0     C21508   4.896   4.478   4.821  0.6017 -0.5808 -0.8619
  160MOL0    Cl21509   4.951   4.386   4.675  0.3316  0.8228  0.2001
  160MOL0     C21510   4.332   5.032   5.134  1.1513 -0.0463  0.5252
  160MOL0     C21511   4.197   5.055   5.093  0.1615  0.4774 -0.6556
  160MOL0     O21512   3.974   5.298   5.229 -0.6143  0.5983 -0.0573
  160MOL0     C21513   3.700   5.306   5.173 -1.3673 -0.4003 -0.0066
  160MOL0     C21514   3.561   5.289   5.147 -0.5078 -0.3815  0.6652
  160MOL0     N21515   2.906   5.603   4.750  0.1698 -0.5440  0.3743
  160MOL0     N21516   2.879   5.564   4.635  0.7735 -0.2980 -0.0003
  160MOL0     C21517   3.888   5.091   4.052  0.3958  0.0770  0.2279
  160MOL0     C21518   4.005   5.053   4.000 -0.0286 -0.7364  1.0906
  160MOL0     C21519   4.305   4.762   3.776 -0.1915  0.6464  0.0906
  160MOL0     C21520   4.361   4.869   3.699  0.0784 -0.8662  0.6915
  160MOL0     C21521   4.465   4.842   3.619 -0.3876  0.0464  0.2938
  160MOL0     C21522   4.527   4.725   3.616  0.2310 -0.1569  0.0795
  160MOL0     O21523   4.636   4.715   3.534 -0.7370  0.7861 -0.5236
  160MOL0     C21524   4.621   4.645   3.406 -0.0245 -0.5873 -0.4036
  160MOL0     C21525   4.539   4.722   3.301 -0.3382  0.2497 -0.1583
  160MOL0     C21526   4.613   4.847   3.266 -1.0693 -0.3778  0.2871
  160MOL0     C21527   4.679   4.837   3.121 -0.4803  0.2637 -0.9383
  160MOL0     C21528   4.760   4.964   3.112 -0.2621  1.2788  0.7177
  160MOL0     C21529   4.816   5.067   3.071 -0.1946 -0.3280 -0.6931
  160MOL0     C21530   4.468   4.615   3.675 -0.3815 -0.4724 -0.6608
  160MOL0     C21531   4.360   4.634   3.762 -0.6172  0.8689 -0.2812
  160MOL0     C21532   4.304   4.521   3.845  0.2229  0.4999  0.4007
  160MOL0     H21533   3.896   4.848   3.739 -1.9048 -0.7238 -0.4750
  160MOL0     H21534   3.680   4.905   3.857  1.6759 -2.3525 -0.1725
  160MOL0     H21535   3.619   4.916   4.196  2.7220 -1.4828 -3.6363
  160MOL0     H21536   3.731   5.045   4.248 -0.8984  0.2361 -0.9358
  160MOL0     H21537   3.575   5.216   4.240  0.1917  0.3508 -1.0388
  160MOL0     H21538   3.531   5.097   4.361 -0.6765  0.5766 -0.3401
  160MOL0     H21539   3.345   5.011   4.251  2.7903  0.5300  3.8007
  160MOL0     H21540   3.381   5.086   4.102 -2.7849 -2.5713 -0.6261
  160MOL0     H21541   3.322   5.232   4.353 -1.6725 -2.1634 -0.0115
  160MOL0     H21542   3.349   5.321   4.193 -1.6051  1.6663  1.5273
  160MOL0     H21543   3.172   5.187   4.100 -0.4526  0.2512 -0.6492
  160MOL0     H21544   3.139   5.114   4.264 -0.7806  0.7161 -0.9379
  160MOL0     H21545   3.116   5.410   4.203 -1.0212 -0.4536 -1.3226
  160MOL0     H21546   2.975   5.299   4.232 -0.1215 -1.3130  0.6194
  160MOL0     H21547   3.183   5.388   4.440  0.2354 -2.1301  0.1327
  160MOL0     H21548   3.061   5.253   4.450  3.7134 -2.4335 -0.9641
  160MOL0     H21549   3.006   5.554   4.375 -1.1664  2.0869  0.0224
  160MOL0     H21550   2.889   5.421   4.405  1.0890 -1.2888  0.8966
  160MOL0     H21551   3.180   5.441   4.654 -0.6277 -1.3202  0.3010
  160MOL0     H21552   3.195   5.602   4.905  1.1241 -1.3785 -1.7507
  160MOL0     H21553   3.037   5.566   4.987  0.7988 -0.6643  0.7899
  160MOL0     H21554   3.077   5.323   4.925  1.3507 -1.3820 -0.4620
  160MOL0     H21555   3.239   5.358   4.868 -1.4127 -2.4059 -1.0621
  160MOL0     H21556   3.159   5.400   5.157 -0.5197 -1.9908  0.8642
  160MOL0     H21557   3.312   5.428   5.078 -1.4559  1.5650 -0.1489
  160MOL0     H21558   3.179   5.163   5.096  0.3002 -0.3288 -0.2646
  160MOL0     H21559   3.304   5.230   5.193  0.1301  1.1259 -1.1410
  160MOL0     H21560   3.576   5.085   4.892 -2.3840 -3.4426  3.2024
  160MOL0     H21561   3.799   5.107   4.916  2.1102  0.0674  1.2620
  160MOL0     H21562   4.220   5.390   5.084 -1.7924 -0.4771  1.8836
  160MOL0     H21563   4.446   5.351   5.139 -0.7002  0.5344  1.2916
  160MOL0     H21564   4.588   4.929   5.259  2.0209  1.3239  0.0424
  160MOL0     H21565   4.567   4.916   5.087 -1.4007  2.5388  0.2563
  160MOL0     H21566   4.791   5.024   5.054 -0.6343  0.4177  0.4045
  160MOL0     H21567   4.800   5.025   5.242 -1.1229 -0.2388  0.5021
  160MOL0     H21568   4.773   4.779   5.219 -2.7203  1.2895 -0.6262
  160MOL0     H21569   4.782   4.798   5.037  2.6565 -0.1313 -1.3811
  160MOL0     H21570   5.008   4.774   5.242 -2.1454 -0.4512  0.4505
  160MOL0     H21571   5.010   4.924   5.141 -0.8899  0.8949  0.4848
  160MOL0     H21572   5.134   4.742   5.031  0.2212 -0.4361  0.8620
  160MOL0     H21573   4.988   4.786   4.938 -1.7302 -1.1790  1.1513
  160MOL0     H21574   4.997   4.528   5.099 -0.5956  0.4471  1.2335
  160MOL0     H21575   4.869   4.614   5.017 -0.2324 -0.0478 -0.3902
  160MOL0     H21576   5.079   4.446   4.907  0.8953  0.6753  1.2262
  160MOL0     H21577   5.057   4.601   4.815 -1.1943  1.5393  1.4373
  160MOL0     H21578   4.842   4.407   4.884 -0.2559  0.7034 -0.1214
  160MOL0     H21579   4.820   4.553   4.799 -1.5598 -1.1695  3.5708
  160MOL0     H21580   4.369   4.933   5.159  0.4426 -0.4878 -0.1516
  160MOL0     H21581   4.124   4.978   5.070 -0.3534  1.2907 -1.8693
  160MOL0     H21582   3.733   5.361   5.261  0.9887  0.5597 -1.3855
  160MOL0     H21583   3.497   5.327   5.226  1.3382  2.6073  0.9091
  160MOL0     H21584   3.885   5.159   4.137  2.7808 -0.4276  0.7942
  160MOL0     H21585   4.092   5.098   4.047 -0.4166 -0.8533  1.9472
  160MOL0     H21586   4.325   4.970   3.716 -1.1002 -1.4367  1.7708
  160MOL0     H21587   4.509   4.921   3.558 -1.5410  1.2612  0.9988
  160MOL0     H21588   4.590   4.542   3.423  0.2830 -0.4804  0.8468
  160MOL0     H21589   4.724   4.632   3.370 -0.0205  0.7072 -0.8986
  160MOL0     H21590   4.445   4.763   3.338 -0.5866 -0.3870 -0.0791
  160MOL0     H21591   4.516   4.658   3.216  1.1032 -1.7721  0.9013
  160MOL0     H21592   4.688   4.869   3.343  0.3862  1.5073 -1.5666
  160MOL0     H21593   4.554   4.939   3.254  2.1000  1.5464 -2.2074
  160MOL0     H21594   4.737   4.745   3.120  0.5459  0.7786  1.9732
  160MOL0     H21595   4.598   4.834   3.048 -0.1182 -1.2808 -1.2974
  160MOL0     H21596   4.849   5.163   3.038  1.5733  0.4983  3.0212
  160MOL0     H21597   4.515   4.517   3.669 -0.6689 -0.6796  0.3011
  160MOL0     H21598   4.213   4.474   3.806 -1.4005  0.9441  3.3377
  160MOL0     H21599   4.370   4.433   3.841 -0.5695 -0.1073  0.3212
  160MOL0     H21600   4.287   4.555   3.948 -0.3983  2.5602 -0.3373
  161MOL0     O21601  10.259   2.113   2.164 -0.1029  0.3442  0.8748
  161MOL0     C21602  10.243   2.035   2.066  0.5264 -0.8485  0.1193
  161MOL0     O21603  10.301   2.054   1.941 -0.2027  0.6511 -0.2854
  161MOL0     C21604  10.419   2.123   1.932 -0.0838 -0.3540 -0.0214
  161MOL0     C21605  10.526   2.121   2.026  0.9511  0.0199 -0.2264
  161MOL0     C21606  10.641   2.195   2.020  0.1478 -0.3199 -0.4128
  161MOL0     C21607  10.667   2.270   1.907 -0.6603  0.3053  0.4625
  161MOL0     O21608  10.778   2.348   1.924 -0.0297 -1.2047 -0.5396
  161MOL0     C21609  10.804   2.440   1.819  0.2150 -0.1638  0.9885
  161MOL0     C21610  10.866   2.376   1.699  0.6785  0.2691 -0.2934
  161MOL0     C21611  10.862   2.442   1.558 -0.5954 -0.2136  0.1647
  161MOL0     C21612  10.724   2.491   1.514 -0.0378 -0.8940  0.0350
  161MOL0     C21613  10.720   2.492   1.356 -0.5070 -0.0185 -0.3061
  161MOL0     C21614  10.579   2.474   1.299 -0.5281 -0.1332 -0.1395
  161MOL0     C21615  10.581   2.519   1.157  0.9148 -0.3119 -0.2371
  161MOL0     C21616  10.504   2.427   1.065 -0.1489  1.0012  0.7223
  161MOL0     N21617  10.354   2.432   1.067  0.9113  0.4192  0.2870
  161MOL0     C21618  10.266   2.490   0.977  0.6848 -0.7749 -0.5492
  161MOL0     C21619  10.145   2.463   1.035  0.2584  0.3209  0.9842
  161MOL0     C21620  10.022   2.476   0.953  0.6630 -0.0998 -0.2885
  161MOL0     C21621  10.029   2.380   0.829  0.5433  0.0436 -0.7916
  161MOL0     C21622  10.007   2.232   0.876 -0.2221 -0.3982 -0.3334
  161MOL0     C21623   9.868   2.173   0.838  0.1454 -0.2122  0.2098
  161MOL0     O21624   9.759   2.254   0.880  1.1744  0.2640  0.4396
  161MOL0     C21625   9.641   2.186   0.889 -0.0762 -0.4413 -0.3054
  161MOL0     C21626   9.534   2.243   0.962 -0.9694 -0.7059  0.4509
  161MOL0     C21627   9.411   2.186   0.964 -0.1375  0.8193  1.1107
  161MOL0     C21628   9.385   2.068   0.902 -0.8002 -0.5596  0.8151
  161MOL0     C21629   9.249   2.017   0.906  0.2150 -0.3892  0.2234
  161MOL0     O21630   9.219   1.918   0.812  0.9678  0.4768 -0.1145
  161MOL0     C21631   9.094   1.866   0.826  0.5153 -0.2148  0.0867
  161MOL0     C21632   8.982   1.944   0.808  0.8134 -0.8027  0.2514
  161MOL0     C21633   8.849   1.893   0.828  0.0640  0.3087 -0.0070
  161MOL0     C21634   8.834   1.758   0.865  0.1279 -0.8123 -0.5687
  161MOL0     O21635   8.719   1.690   0.884 -0.7607  0.6565 -0.6497
  161MOL0     C21636   8.600   1.764   0.897  0.5839  0.9008  0.0797
  161MOL0     C21637   8.496   1.669   0.870  1.6067 -0.3159  0.2135
  161MOL0     C21638   8.363   1.755   0.900 -0.3340  0.6406  0.0162
  161MOL0     C21639   8.336   1.884   0.833 -0.8828  0.0054  0.4062
  161MOL0     C21640   8.231   1.965   0.906  0.4423  0.0758 -0.7185
  161MOL0     C21641   8.195   2.094   0.828  0.6484  0.9516 -0.8707
  161MOL0     C21642   8.303   2.183   0.779  0.1945 -0.3545  0.4997
  161MOL0     C21643   8.357   2.247   0.907 -0.4082 -0.5900 -0.5237
  161MOL0    Cl21644   8.430   2.396   0.842 -0.0616  0.3449 -0.4085
  161MOL0     C21645   8.941   1.678   0.883 -0.7569 -0.2383 -0.1154
  161MOL0     C21646   9.069   1.732   0.867  0.0151 -0.5313  0.1479
  161MOL0     O21647   9.168   2.056   0.994 -0.3517  0.1875  0.4873
  161MOL0     C21648   9.485   2.005   0.825  0.2424 -1.1659  0.1137
  161MOL0     C21649   9.610   2.069   0.818  0.4663  0.0992  0.2669
  161MOL0     N21650  10.161   2.380   1.144  0.7664  0.7937  1.3312
  161MOL0     N21651  10.288   2.361   1.164  0.1982 -0.0658  0.2278
  161MOL0     C21652  10.559   2.288   1.806 -0.3890  0.6281  0.2013
  161MOL0     C21653  10.442   2.212   1.822 -0.6372  0.2713 -0.3427
  161MOL0     C21654  10.131   1.940   2.069  0.5955 -0.3243  0.1673
  161MOL0     C21655  10.043   1.955   1.958  0.4921  0.3977 -0.5365
  161MOL0     C21656   9.920   1.882   1.952  0.2853  0.2831 -1.2083
  161MOL0     C21657   9.872   1.816   2.069 -0.3752 -0.7960  0.2857
  161MOL0     O21658   9.745   1.769   2.091 -0.3285  0.4234  0.1567
  161MOL0     C21659   9.660   1.749   1.981 -0.5489 -1.1478  0.7800
  161MOL0     C21660   9.529   1.690   2.029  0.4678  0.2850  0.2640
  161MOL0     C21661   9.423   1.666   1.915  0.3210  0.4519  1.3832
  161MOL0     C21662   9.472   1.556   1.814 -0.1775 -0.2119 -0.2652
  161MOL0     C21663   9.449   1.434   1.880 -0.0528 -0.0168 -0.4123
  161MOL0     C21664   9.427   1.319   1.927 -0.5426 -1.0501  1.0548
  161MOL0     C21665   9.961   1.807   2.173 -0.3742 -0.3534  0.8344
  161MOL0     C21666  10.093   1.864   2.178  0.2373  0.1804 -0.3730
  161MOL0     C21667  10.180   1.844   2.289  0.3376 -0.1480 -0.2261
  161MOL0     H21668  10.526   2.057   2.113  6.7907 -0.7713 -0.4170
  161MOL0     H21669  10.716   2.199   2.098 -1.2503 -0.8255  1.0073
  161MOL0     H21670  10.713   2.487   1.779  0.3986 -0.6397 -0.0138
  161MOL0     H21671  10.875   2.521   1.839  1.2853 -0.7227 -0.4103
  161MOL0     H21672  10.815   2.282   1.677  1.9467 -0.7880  1.0543
  161MOL0     H21673  10.971   2.349   1.719  0.1393 -3.9430 -2.0595
  161MOL0     H21674  10.905   2.368   1.490 -0.7594 -0.0692 -0.0958
  161MOL0     H21675  10.932   2.525   1.568 -0.8258 -0.1572  1.6068
  161MOL0     H21676  10.666   2.407   1.552  1.0633 -3.6027 -3.6780
  161MOL0     H21677  10.698   2.589   1.555  0.0127 -1.4551  1.4342
  161MOL0     H21678  10.759   2.584   1.312  1.1499 -1.1671 -1.3299
  161MOL0     H21679  10.786   2.414   1.318 -0.4525 -0.2001  0.1501
  161MOL0     H21680  10.544   2.371   1.311  3.3756 -1.8580 -1.8646
  161MOL0     H21681  10.508   2.543   1.346 -0.1507  1.8164 -2.2383
  161MOL0     H21682  10.679   2.532   1.110  0.7137 -2.8460 -1.5721
  161MOL0     H21683  10.535   2.618   1.152  2.3676  0.4365  0.6408
  161MOL0     H21684  10.548   2.446   0.967  2.7882 -4.1607  0.6829
  161MOL0     H21685  10.534   2.327   1.097 -0.2163  1.0119  0.8181
  161MOL0     H21686  10.292   2.558   0.897  0.7738  0.1551  0.2488
  161MOL0     H21687   9.935   2.443   1.012 -0.1281 -0.2522 -1.5062
  161MOL0     H21688  10.023   2.582   0.927  3.2907  0.1274  0.4366
  161MOL0     H21689   9.954   2.400   0.752  1.4777  1.6321 -1.3480
  161MOL0     H21690  10.131   2.381   0.788  0.7331 -0.1135 -0.3355
  161MOL0     H21691  10.037   2.234   0.982  3.2991  5.1903 -0.9835
  161MOL0     H21692  10.075   2.159   0.830 -1.9988 -1.4868 -1.3348
  161MOL0     H21693   9.869   2.078   0.892  2.6663  1.1646  2.8388
  161MOL0     H21694   9.869   2.156   0.730  0.8511  0.5167  0.0930
  161MOL0     H21695   9.559   2.332   1.019  1.9422 -1.4265  0.4478
  161MOL0     H21696   9.333   2.246   1.011 -0.7214  2.0499 -1.2594
  161MOL0     H21697   8.989   2.047   0.774 -1.8954 -0.6926 -0.2014
  161MOL0     H21698   8.767   1.964   0.819  0.8909  1.8473  3.0977
  161MOL0     H21699   8.597   1.809   0.997 -0.5570  0.5733  0.2053
  161MOL0     H21700   8.592   1.835   0.815  1.2969  0.4527 -0.3871
  161MOL0     H21701   8.504   1.647   0.763  2.3618  0.3595  0.1224
  161MOL0     H21702   8.501   1.579   0.932 -0.1462  1.2187  2.7983
  161MOL0     H21703   8.282   1.685   0.880  1.4219 -2.4609  2.8373
  161MOL0     H21704   8.356   1.777   1.007 -2.1315  2.6081 -0.4220
  161MOL0     H21705   8.302   1.856   0.733 -1.9244  0.0090  0.7569
  161MOL0     H21706   8.433   1.935   0.827 -0.1296 -1.5411 -2.4717
  161MOL0     H21707   8.244   1.985   1.012 -4.4116 -0.9854  0.3000
  161MOL0     H21708   8.139   1.907   0.915  1.5514 -1.4338  1.9007
  161MOL0     H21709   8.151   2.070   0.731  1.5746  2.1652 -1.6269
  161MOL0     H21710   8.122   2.149   0.888  0.3447  0.2698 -0.6105
  161MOL0     H21711   8.265   2.248   0.700  3.8840  0.7160 -0.6055
  161MOL0     H21712   8.384   2.134   0.723 -1.6480 -3.2309  0.1409
  161MOL0     H21713   8.277   2.264   0.979 -0.2533  0.1273 -0.5153
  161MOL0     H21714   8.438   2.185   0.947 -0.2554 -0.5822 -0.8176
  161MOL0     H21715   8.933   1.575   0.916  1.8039 -0.4644 -0.0559
  161MOL0     H21716   9.143   1.659   0.899 -0.1739 -1.2235 -0.9131
  161MOL0     H21717   9.474   1.910   0.774  2.5545 -2.3109  1.5614
  161MOL0     H21718   9.679   2.008   0.761 -0.5782 -0.8361 -0.0206
  161MOL0     H21719  10.555   2.346   1.714  0.0847 -3.8866 -2.9998
  161MOL0     H21720  10.361   2.227   1.752 -1.9465  1.8592  1.4385
  161MOL0     H21721  10.076   2.021   1.879 -0.0060  0.8959 -0.3392
  161MOL0     H21722   9.855   1.895   1.867 -1.1868 -1.2800 -0.3937
  161MOL0     H21723   9.703   1.684   1.904  0.0145 -2.9484  2.5234
  161MOL0     H21724   9.652   1.847   1.933  0.1398 -1.4515  0.0178
  161MOL0     H21725   9.483   1.754   2.106  1.9493  0.9351  0.6527
  161MOL0     H21726   9.561   1.599   2.080 -2.9049 -2.3421 -1.8842
  161MOL0     H21727   9.418   1.760   1.859 -0.0763 -0.2554  0.1905
  161MOL0     H21728   9.326   1.636   1.956 -0.2920 -1.2442 -1.1236
  161MOL0     H21729   9.409   1.562   1.725 -0.0628  0.1137 -0.3254
  161MOL0     H21730   9.575   1.572   1.779  0.0739  0.0866  0.5913
  161MOL0     H21731   9.402   1.218   1.953  2.3787 -2.0592  0.2750
  161MOL0     H21732   9.918   1.751   2.256  0.4800 -0.8899  0.9274
  161MOL0     H21733  10.205   1.943   2.329  0.0018  2.3036 -5.2615
  161MOL0     H21734  10.145   1.770   2.360  1.7938  0.7562  1.5105
  161MOL0     H21735  10.273   1.797   2.254 -1.3454 -4.6385  0.8001
  162MOL0     O21736  10.484   3.440   5.725  0.6391 -0.3300  0.0653
  162MOL0     C21737  10.545   3.416   5.622  0.3034  0.0057  0.9720
  162MOL0     O21738  10.493   3.418   5.493 -0.2589  0.1543  0.2473
  162MOL0     C21739  10.355   3.429   5.472 -0.0133  0.1938 -0.3063
  162MOL0     C21740  10.263   3.508   5.549  1.2157  0.0594  0.4295
  162MOL0     C21741  10.128   3.518   5.505 -0.0523  0.2924 -0.0052
  162MOL0     C21742  10.079   3.444   5.397  0.3912  0.3485  0.2189
  162MOL0     O21743   9.941   3.439   5.358  0.1236 -0.1015 -0.0859
  162MOL0     C21744   9.921   3.467   5.214 -0.5779 -0.3159 -0.5045
  162MOL0     C21745   9.782   3.517   5.195 -0.0244 -0.2896 -0.2742
  162MOL0     C21746   9.677   3.412   5.203 -0.0105  0.0674 -0.0966
  162MOL0     C21747   9.541   3.455   5.169 -0.0019 -0.3426  0.4278
  162MOL0     C21748   9.445   3.342   5.201 -0.0817  0.2569 -0.7301
  162MOL0     C21749   9.290   3.372   5.200 -0.7637 -0.7005 -0.1144
  162MOL0     C21750   9.199   3.249   5.195  1.0609  0.2217 -0.1246
  162MOL0     C21751   9.216   3.154   5.309 -0.0354  0.4608 -0.3390
  162MOL0     N21752   9.329   3.056   5.298  0.2381  0.2580 -0.8000
  162MOL0     C21753   9.451   3.056   5.364 -0.4769 -0.1342  0.3544
  162MOL0     C21754   9.518   2.947   5.325 -0.8104 -0.3242 -0.2429
  162MOL0     C21755   9.667   2.921   5.362  1.1128  0.3604  0.0511
  162MOL0     C21756   9.759   2.892   5.242  0.2297 -0.3559 -0.7553
  162MOL0     C21757   9.896   2.851   5.299  0.2259  0.4488  0.3425
  162MOL0     C21758   9.973   2.785   5.185  0.3976  0.7647  0.1120
  162MOL0     O21759   9.996   2.873   5.077 -0.3193  0.1596  0.2423
  162MOL0     C21760  10.130   2.907   5.048 -0.1376  1.5627  0.0759
  162MOL0     C21761  10.158   3.049   5.037  0.0722  0.0882  0.8502
  162MOL0     C21762  10.295   3.079   5.031  0.0198 -0.4424  0.0540
  162MOL0     C21763  10.407   2.988   5.036  0.6049  0.1655 -0.6975
  162MOL0     C21764  10.544   3.033   5.041  0.3885  0.8260  0.7347
  162MOL0     O21765  10.584   3.160   4.995 -0.1153  0.4488 -0.1466
  162MOL0     C21766  10.710   3.197   5.022 -0.4248  0.4943 -0.0731
  162MOL0     C21767  10.777   3.247   4.909 -0.4906  0.4631 -0.0450
  162MOL0     C21768  10.914   3.287   4.913  0.1769  0.0101  0.2387
  162MOL0     C21769  10.989   3.265   5.026  0.6947  0.7604  0.2757
  162MOL0     O21770  11.121   3.274   5.008 -0.0419 -0.5203 -0.7064
  162MOL0     C21771  11.214   3.249   5.114 -0.0243  0.2814 -0.8795
  162MOL0     C21772  11.353   3.293   5.069 -0.2780 -0.8883  0.0073
  162MOL0     C21773  11.465   3.235   5.164 -0.5206  0.2411 -0.3663
  162MOL0     C21774  11.605   3.292   5.140 -0.9095  0.3823  0.4444
  162MOL0     C21775  11.708   3.178   5.137  0.8606 -0.4807  1.4786
  162MOL0     C21776  11.746   3.121   5.278 -0.3724  0.3245  0.4659
  162MOL0     C21777  11.854   3.014   5.258  0.3373 -0.2054 -0.2088
  162MOL0     C21778  11.903   2.950   5.389  0.3979 -0.8384  0.6400
  162MOL0    Cl21779  11.766   2.897   5.492  0.5768 -0.3634  0.1468
  162MOL0     C21780  10.924   3.215   5.146  0.3929  1.1091 -0.2915
  162MOL0     C21781  10.781   3.184   5.147 -0.4283 -0.2055 -0.6130
  162MOL0     O21782  10.608   2.957   5.103  0.4358 -0.0592  0.2688
  162MOL0     C21783  10.372   2.855   5.036  0.5354  0.0027 -0.1605
  162MOL0     C21784  10.236   2.810   5.051  0.1878 -1.2604  0.1519
  162MOL0     N21785   9.439   2.882   5.230 -0.7207  0.0894  0.6384
  162MOL0     N21786   9.322   2.941   5.224 -0.2614 -0.3130 -0.9312
  162MOL0     C21787  10.171   3.362   5.332  0.5849 -0.2107 -0.1599
  162MOL0     C21788  10.313   3.359   5.363  0.7895 -1.2839  0.9507
  162MOL0     C21789  10.687   3.374   5.639 -1.0942  0.5650  0.1923
  162MOL0     C21790  10.713   3.305   5.758  0.0091  0.7909  0.7856
  162MOL0     C21791  10.847   3.263   5.785  0.0159 -1.1919 -0.0574
  162MOL0     C21792  10.952   3.308   5.708 -0.4505  0.2799  0.1760
  162MOL0     O21793  11.079   3.276   5.754  0.1852 -0.3240 -0.4734
  162MOL0     C21794  11.185   3.356   5.707 -0.1855 -0.0098 -0.4758
  162MOL0     C21795  11.313   3.272   5.729  0.6022  0.5411 -0.8227
  162MOL0     C21796  11.346   3.262   5.875 -0.0018  0.3053 -0.9033
  162MOL0     C21797  11.471   3.176   5.903  0.4452  0.0929  0.7933
  162MOL0     C21798  11.589   3.235   5.830  0.3801  1.0140  0.0189
  162MOL0     C21799  11.671   3.292   5.766  0.0566 -0.2896 -0.1303
  162MOL0     C21800  10.921   3.384   5.592 -0.2911 -1.2593  0.2322
  162MOL0     C21801  10.791   3.417   5.555 -1.0814 -0.0583 -0.8351
  162MOL0     C21802  10.764   3.480   5.424 -0.6101  0.1464  0.2717
  162MOL0     H21803  10.295   3.575   5.628 -0.1843  1.6575 -0.2922
  162MOL0     H21804  10.051   3.570   5.561 -1.2765  0.0685 -1.4304
  162MOL0     H21805   9.993   3.540   5.176 -1.0007 -1.2221 -3.3161
  162MOL0     H21806   9.937   3.370   5.165  3.0988 -0.3324  0.4435
  162MOL0     H21807   9.783   3.571   5.100  1.9440 -2.6379 -1.7107
  162MOL0     H21808   9.758   3.584   5.279  1.2920 -4.2140  3.6390
  162MOL0     H21809   9.686   3.364   5.301 -0.5968 -2.6159 -1.2618
  162MOL0     H21810   9.717   3.338   5.133  3.5781  0.2423  1.5661
  162MOL0     H21811   9.518   3.545   5.227  1.4215  1.7674 -2.0633
  162MOL0     H21812   9.531   3.501   5.070  1.8907 -1.0235 -0.1247
  162MOL0     H21813   9.471   3.266   5.127  2.2788  1.6533 -1.4338
  162MOL0     H21814   9.466   3.307   5.303  1.7668  3.1980  0.0309
  162MOL0     H21815   9.266   3.429   5.291 -1.6711  1.0061 -1.3705
  162MOL0     H21816   9.265   3.447   5.124  0.0312  0.7818  1.0326
  162MOL0     H21817   9.226   3.200   5.101 -0.6390  0.0224 -0.5342
  162MOL0     H21818   9.094   3.275   5.180  1.0407 -0.3531 -1.0607
  162MOL0     H21819   9.213   3.207   5.405 -1.6787  0.9553 -0.6454
  162MOL0     H21820   9.120   3.102   5.312 -0.0320  0.3842 -1.3354
  162MOL0     H21821   9.471   3.141   5.428 -0.4469  0.7296 -0.7719
  162MOL0     H21822   9.714   2.996   5.427  1.5442  1.8316 -1.8487
  162MOL0     H21823   9.662   2.826   5.416  1.9343  0.9198  1.1603
  162MOL0     H21824   9.722   2.802   5.192  0.8563 -1.3402  0.4773
  162MOL0     H21825   9.769   2.979   5.177  0.0968 -0.8802 -1.4908
  162MOL0     H21826   9.891   2.784   5.386  1.4370  0.5039  0.4751
  162MOL0     H21827   9.949   2.938   5.338 -0.5728  2.1621 -2.1659
  162MOL0     H21828   9.926   2.692   5.151 -1.7008  0.8169  2.5462
  162MOL0     H21829  10.069   2.756   5.230  1.1798  1.0067 -1.3330
  162MOL0     H21830  10.077   3.122   5.039  1.6609  1.9915 -0.5015
  162MOL0     H21831  10.306   3.187   5.028 -0.4445 -0.3228  1.6856
  162MOL0     H21832  10.724   3.264   4.816  1.8613  0.2827 -1.5032
  162MOL0     H21833  10.966   3.318   4.824 -2.2368  2.2437 -0.5366
  162MOL0     H21834  11.179   3.293   5.208  0.6542 -1.6809  0.3476
  162MOL0     H21835  11.223   3.140   5.119  1.0394  0.2507 -2.5451
  162MOL0     H21836  11.376   3.282   4.963  0.6448  4.3874 -0.6247
  162MOL0     H21837  11.347   3.402   5.071  1.0746 -0.7926  2.1622
  162MOL0     H21838  11.438   3.235   5.270  1.0961 -0.5782  0.0813
  162MOL0     H21839  11.479   3.129   5.141  0.2229  0.2093  0.1926
  162MOL0     H21840  11.634   3.365   5.216  0.7542  3.1296 -2.6115
  162MOL0     H21841  11.608   3.344   5.044 -1.0063 -0.7744 -0.2141
  162MOL0     H21842  11.805   3.214   5.102 -0.5840  1.7734 -0.4787
  162MOL0     H21843  11.676   3.098   5.070 -2.2472  3.0984 -1.7746
  162MOL0     H21844  11.779   3.195   5.352 -0.0286  0.0462  0.5926
  162MOL0     H21845  11.657   3.066   5.309 -1.8350  2.8582  1.0996
  162MOL0     H21846  11.936   3.059   5.202 -0.3383  1.4535  0.0577
  162MOL0     H21847  11.796   2.934   5.211  0.3992 -0.3418 -0.0536
  162MOL0     H21848  11.961   2.864   5.353 -0.8247 -0.4456 -2.4926
  162MOL0     H21849  11.973   3.014   5.444  1.7476 -0.2835 -1.5828
  162MOL0     H21850  10.979   3.192   5.237  0.6623 -0.6285 -0.8404
  162MOL0     H21851  10.726   3.135   5.227  1.6881 -1.3931  0.2049
  162MOL0     H21852  10.441   2.771   5.040 -2.4957 -2.7240  3.8266
  162MOL0     H21853  10.204   2.708   5.036  0.0504 -1.0312 -1.2182
  162MOL0     H21854  10.143   3.299   5.248  0.0184 -1.3210  0.8337
  162MOL0     H21855  10.386   3.308   5.301  0.7644 -1.3037  0.9379
  162MOL0     H21856  10.630   3.271   5.820 -0.8746  0.0003 -0.7676
  162MOL0     H21857  10.851   3.207   5.878 -2.1618  2.6911  2.6569
  162MOL0     H21858  11.191   3.457   5.749 -2.5329  0.3108 -0.7653
  162MOL0     H21859  11.188   3.373   5.599 -3.6439  1.8874 -0.4070
  162MOL0     H21860  11.401   3.296   5.669  0.6399 -1.8021 -1.8123
  162MOL0     H21861  11.279   3.177   5.686  0.6285  0.3645 -0.4601
  162MOL0     H21862  11.262   3.210   5.922 -0.5844  2.1621  0.2378
  162MOL0     H21863  11.355   3.362   5.918  0.5721 -0.8096  1.7600
  162MOL0     H21864  11.498   3.178   6.009 -1.7914  2.6834  1.4310
  162MOL0     H21865  11.453   3.075   5.865 -0.5558  1.0048 -1.3159
  162MOL0     H21866  11.751   3.330   5.706  0.7116  0.8062  1.3635
  162MOL0     H21867  11.008   3.432   5.547  0.0292  1.0398  3.0555
  162MOL0     H21868  10.739   3.399   5.355  2.6488 -0.6837 -0.0946
  162MOL0     H21869  10.688   3.558   5.434  2.0375  2.7110  2.2021
  162MOL0     H21870  10.852   3.539   5.398  0.2405 -1.8810 -1.8146
  163MOL0     O21871   3.145   7.586   8.404 -1.3860  0.7222  0.5649
  163MOL0     C21872   3.151   7.660   8.496  0.3323  0.1889 -0.2538
  163MOL0     O21873   3.072   7.772   8.507  0.3851  0.4936 -0.1837
  163MOL0     C21874   2.987   7.806   8.404  0.0707 -0.4290  0.5164
  163MOL0     C21875   2.849   7.770   8.397 -0.1601  0.5223 -0.1741
  163MOL0     C21876   2.771   7.838   8.304 -0.0538 -0.3854  0.8376
  163MOL0     C21877   2.813   7.934   8.214 -0.2699 -0.3244 -1.2298
  163MOL0     O21878   2.728   7.988   8.124  0.0190 -0.2861  0.0950
  163MOL0     C21879   2.762   8.095   8.046 -0.1763 -0.7353  0.1529
  163MOL0     C21880   2.646   8.151   7.965 -0.9009  0.6267  0.5190
  163MOL0     C21881   2.563   8.260   8.031 -0.5645  0.1848 -0.7765
  163MOL0     C21882   2.471   8.218   8.138  1.2669 -0.2240 -0.5863
  163MOL0     C21883   2.356   8.322   8.170 -0.8580  0.2398 -0.6053
  163MOL0     C21884   2.270   8.292   8.286  0.4406 -0.0340  0.4703
  163MOL0     C21885   2.331   8.318   8.433  0.5215  0.2444  0.9329
  163MOL0     C21886   2.237   8.275   8.547  0.1534 -0.0154 -0.1605
  163MOL0     N21887   2.127   8.364   8.569  0.5563 -0.8330  0.5966
  163MOL0     C21888   2.123   8.491   8.620  0.0864 -0.8801 -0.4595
  163MOL0     C21889   1.996   8.540   8.608  0.0759 -0.9455 -0.5246
  163MOL0     C21890   1.937   8.679   8.633  0.6738 -0.8998 -0.3493
  163MOL0     C21891   1.934   8.722   8.783  0.0741 -0.2123 -0.7733
  163MOL0     C21892   1.903   8.599   8.880 -0.2280 -0.1883  0.0080
  163MOL0     C21893   1.873   8.656   9.016  0.5054  0.0133 -0.6782
  163MOL0     O21894   1.992   8.679   9.080  0.9475  0.6588  0.1391
  163MOL0     C21895   2.009   8.715   9.210 -0.3527 -0.6065 -0.0614
  163MOL0     C21896   2.132   8.747   9.261 -0.3238  0.2630  0.1584
  163MOL0     C21897   2.152   8.790   9.396 -0.4752  0.9145  0.3517
  163MOL0     C21898   2.044   8.792   9.489 -0.5027 -0.3182 -0.5374
  163MOL0     C21899   2.072   8.827   9.631  1.0872 -0.7175 -0.2535
  163MOL0     O21900   1.974   8.892   9.703 -0.5499 -0.2120  0.0760
  163MOL0     C21901   2.010   8.934   9.826  1.1415  1.1958 -0.6332
  163MOL0     C21902   2.056   8.842   9.925 -0.6275 -0.3577  0.0191
  163MOL0     C21903   2.066   8.889  10.053 -0.6270  0.2253 -0.4457
  163MOL0     C21904   2.052   9.026  10.089  0.3482  0.5108 -0.0436
  163MOL0     O21905   2.080   9.081  10.212 -0.2628  0.4155 -0.3323
  163MOL0     C21906   2.014   9.010  10.317 -0.4536 -0.4024  0.3861
  163MOL0     C21907   1.946   9.102  10.412  0.3582 -0.4871 -0.3921
  163MOL0     C21908   2.045   9.192  10.490 -0.5059  0.1222  0.1789
  163MOL0     C21909   1.961   9.288  10.578  0.4184 -0.0494  0.7381
  163MOL0     C21910   2.043   9.404  10.647  0.2882  0.3757  0.0926
  163MOL0     C21911   1.953   9.503  10.728  0.5485 -0.0595 -0.1188
  163MOL0     C21912   2.048   9.630  10.758 -0.3723  0.6736  0.4832
  163MOL0     C21913   2.169   9.598  10.853 -0.8930 -0.4406  0.6733
  163MOL0    Cl21914   2.136   9.504  11.000  0.1251  0.1818  0.4157
  163MOL0     C21915   2.012   9.112   9.990  0.5705 -0.0695  0.1723
  163MOL0     C21916   1.984   9.062   9.862  0.5198 -0.0542 -0.6358
  163MOL0     O21917   2.175   8.778   9.678  0.1197 -0.2370  0.5898
  163MOL0     C21918   1.925   8.750   9.439 -0.6287 -0.1230 -0.6207
  163MOL0     C21919   1.902   8.716   9.300 -0.7845  0.5240 -0.9347
  163MOL0     N21920   1.920   8.435   8.557 -0.0308  0.4605 -0.2133
  163MOL0     N21921   1.998   8.331   8.541  0.3040  0.0064  0.5574
  163MOL0     C21922   2.952   7.968   8.217 -0.5353 -0.4057 -0.4087
  163MOL0     C21923   3.040   7.903   8.315  0.2817  0.1970 -0.7476
  163MOL0     C21924   3.233   7.624   8.615 -0.2799  0.2230 -0.0557
  163MOL0     C21925   3.255   7.725   8.715 -0.9460 -0.0504 -0.2981
  163MOL0     C21926   3.330   7.708   8.834  0.4521  0.3068  0.6183
  163MOL0     C21927   3.379   7.584   8.844 -0.0325 -0.2922  0.1177
  163MOL0     O21928   3.465   7.558   8.949  0.0449  0.0261  0.2264
  163MOL0     C21929   3.589   7.629   8.945 -0.0968  0.0998 -0.7239
  163MOL0     C21930   3.716   7.543   8.995  0.7789 -0.0811  0.5605
  163MOL0     C21931   3.758   7.460   8.872  0.4615 -0.6588 -1.1315
  163MOL0     C21932   3.868   7.350   8.902 -0.1595  0.4469  0.6357
  163MOL0     C21933   3.997   7.415   8.876 -0.9679 -0.7305 -0.4850
  163MOL0     C21934   4.099   7.479   8.843  0.3028  0.0710  0.1387
  163MOL0     C21935   3.363   7.475   8.755  0.1625 -0.8000 -0.3046
  163MOL0     C21936   3.299   7.491   8.633  0.3866 -1.0970 -0.0668
  163MOL0     C21937   3.281   7.376   8.543  0.3719 -1.1074  0.2544
  163MOL0     H21938   2.808   7.702   8.471  0.5228  1.0170  0.6781
  163MOL0     H21939   2.666   7.815   8.290 -0.4269 -0.2590  3.0961
  163MOL0     H21940   2.803   8.179   8.104  4.9923 -2.8656  0.1029
  163MOL0     H21941   2.839   8.050   7.983 -0.3571 -1.3528  0.3700
  163MOL0     H21942   2.579   8.075   7.924 -0.2270  0.9592 -1.3161
  163MOL0     H21943   2.687   8.201   7.877 -1.8413  1.4237  0.5100
  163MOL0     H21944   2.500   8.302   7.952  0.5210  1.3270 -1.0490
  163MOL0     H21945   2.622   8.345   8.065 -1.1116  0.3573 -0.2485
  163MOL0     H21946   2.422   8.124   8.112  0.9268  0.1457 -1.3105
  163MOL0     H21947   2.526   8.206   8.232 -2.9636  1.7143  2.5072
  163MOL0     H21948   2.396   8.423   8.184 -2.2029  0.8543 -1.0649
  163MOL0     H21949   2.292   8.323   8.081 -3.2228 -1.2371  1.0034
  163MOL0     H21950   2.182   8.352   8.261 -0.0518 -1.9685 -3.2126
  163MOL0     H21951   2.263   8.183   8.274 -0.8771  0.0984 -0.1965
  163MOL0     H21952   2.340   8.427   8.441 -2.7380  0.6907 -0.0933
  163MOL0     H21953   2.424   8.261   8.437  0.8677  0.7413  0.2285
  163MOL0     H21954   2.194   8.177   8.525 -1.2786  0.6374 -0.3400
  163MOL0     H21955   2.297   8.262   8.638  2.4087  0.5642 -1.4711
  163MOL0     H21956   2.206   8.556   8.647 -1.1861  1.9810 -2.8628
  163MOL0     H21957   1.998   8.755   8.585 -1.6005  2.7599  2.0788
  163MOL0     H21958   1.835   8.662   8.597  0.7187 -1.5507 -0.1967
  163MOL0     H21959   2.035   8.757   8.808 -0.8249  1.5203  0.6901
  163MOL0     H21960   1.868   8.809   8.789 -2.1214 -1.6388 -3.0902
  163MOL0     H21961   1.984   8.529   8.902 -0.1834 -0.4149 -0.8384
  163MOL0     H21962   1.818   8.544   8.839 -2.0355  1.4580  1.3940
  163MOL0     H21963   1.835   8.577   9.082  1.7582 -0.8871 -0.9935
  163MOL0     H21964   1.807   8.743   9.009  1.8590  1.0070 -1.7545
  163MOL0     H21965   2.217   8.746   9.194  0.9050  2.3313  1.5787
  163MOL0     H21966   2.256   8.807   9.423 -0.2029  2.6016 -1.5089
  163MOL0     H21967   2.066   8.736   9.906  1.2031 -0.3002  0.4603
  163MOL0     H21968   2.104   8.828  10.134 -1.5395 -1.9678 -1.5772
  163MOL0     H21969   1.932   8.949  10.279 -0.5992  1.3424 -2.3542
  163MOL0     H21970   2.087   8.944  10.365 -0.6750  0.4430  1.9534
  163MOL0     H21971   1.878   9.166  10.355  1.7308 -0.0566 -1.6165
  163MOL0     H21972   1.885   9.035  10.473 -0.7388  1.9807  1.3623
  163MOL0     H21973   2.127   9.140  10.539  0.4024 -1.8760 -3.1258
  163MOL0     H21974   2.091   9.250  10.410 -1.5008 -2.8584 -2.7894
  163MOL0     H21975   1.913   9.228  10.656  0.0890  0.9980  1.3626
  163MOL0     H21976   1.887   9.339  10.515  0.7089  1.7577  1.7851
  163MOL0     H21977   2.098   9.460  10.571  0.1100  1.5552  0.8120
  163MOL0     H21978   2.121   9.366  10.713 -0.3743  4.8527  3.9242
  163MOL0     H21979   1.858   9.526  10.677 -0.6222  1.4717  2.4981
  163MOL0     H21980   1.919   9.449  10.817  1.6843 -0.6558 -0.0334
  163MOL0     H21981   1.987   9.701  10.813 -1.3392 -0.1757  0.5330
  163MOL0     H21982   2.084   9.671  10.663 -2.2013 -0.8609 -0.9489
  163MOL0     H21983   2.240   9.543  10.791 -1.1321 -0.0396  0.0312
  163MOL0     H21984   2.226   9.687  10.880  0.3539 -1.0044 -0.0234
  163MOL0     H21985   2.021   9.217  10.019 -0.3588 -0.5564  2.3651
  163MOL0     H21986   1.936   9.131   9.794 -2.8035 -2.9344 -1.5291
  163MOL0     H21987   1.850   8.736   9.516 -0.0425 -0.5970 -0.1256
  163MOL0     H21988   1.798   8.707   9.268 -0.2364  1.7596 -3.2948
  163MOL0     H21989   2.996   8.043   8.151  0.9011 -2.0122 -1.3438
  163MOL0     H21990   3.147   7.924   8.310  0.3852  0.1930  0.7206
  163MOL0     H21991   3.210   7.823   8.718 -0.9574  0.0078  3.7713
  163MOL0     H21992   3.336   7.785   8.910 -2.7798  0.1642  1.1794
  163MOL0     H21993   3.573   7.707   9.020 -1.8845 -0.3832 -0.5630
  163MOL0     H21994   3.630   7.678   8.856  1.9032 -0.7112 -0.3090
  163MOL0     H21995   3.678   7.487   9.080  1.0897 -2.6688 -0.9124
  163MOL0     H21996   3.802   7.604   9.023 -0.2809  1.5971  0.3191
  163MOL0     H21997   3.809   7.533   8.808  1.5123  3.3971  3.7107
  163MOL0     H21998   3.663   7.420   8.835 -0.1671  0.4570 -0.7918
  163MOL0     H21999   3.858   7.302   8.999 -0.4957  3.2007  2.0658
  163MOL0     H22000   3.866   7.276   8.821  0.8104  0.1533  0.8745
  163MOL0     H22001   4.182   7.530   8.799 -0.5864  0.0608 -1.6000
  163MOL0     H22002   3.391   7.376   8.790 -3.2367 -1.8367 -0.1039
  163MOL0     H22003   3.180   7.372   8.501  0.6255  0.8779 -0.6217
  163MOL0     H22004   3.361   7.382   8.468 -0.0706 -0.2402 -0.1568
  163MOL0     H22005   3.276   7.281   8.597  2.8539 -0.7794  1.1593
  164MOL0     O22006   8.199   2.769   6.568  0.2859 -0.4389 -0.0532
  164MOL0     C22007   8.192   2.888   6.535 -0.4193  0.2945  0.5961
  164MOL0     O22008   8.278   2.945   6.443 -0.5759 -0.3186  0.7101
  164MOL0     C22009   8.376   2.862   6.397 -0.0220 -0.3211  0.4612
  164MOL0     C22010   8.410   2.864   6.255  0.0361 -0.1990 -0.6886
  164MOL0     C22011   8.518   2.792   6.196  0.1229 -0.4421 -0.6028
  164MOL0     C22012   8.595   2.710   6.281 -0.2432  0.1714  0.0213
  164MOL0     O22013   8.700   2.623   6.240  0.5371 -0.9536  0.8787
  164MOL0     C22014   8.838   2.673   6.269  0.4666  1.0079 -0.5488
  164MOL0     C22015   8.960   2.633   6.182  0.7082 -0.8412  0.5784
  164MOL0     C22016   8.930   2.548   6.061  0.0981 -0.8313 -0.5923
  164MOL0     C22017   9.022   2.576   5.942 -0.2333  0.6162 -0.0619
  164MOL0     C22018   8.980   2.703   5.876 -0.6809 -0.3349  0.3573
  164MOL0     C22019   9.073   2.741   5.764  0.3696 -0.0943  0.7651
  164MOL0     C22020   8.995   2.858   5.697  0.4439  0.3539  0.6693
  164MOL0     C22021   9.083   2.937   5.588  0.2689 -0.2976 -1.4129
  164MOL0     N22022   9.183   3.018   5.663  0.3360 -0.1424  0.1997
  164MOL0     C22023   9.318   2.964   5.677  0.7407 -0.0361  0.8573
  164MOL0     C22024   9.379   3.055   5.755  0.4077 -0.3777 -0.6430
  164MOL0     C22025   9.523   3.063   5.795 -0.2349 -0.4298  0.5645
  164MOL0     C22026   9.593   3.189   5.735 -0.3873 -0.1801 -0.6161
  164MOL0     C22027   9.747   3.191   5.741 -0.2117 -0.0502  0.3371
  164MOL0     C22028   9.787   3.322   5.662 -0.1292 -0.1635  0.6857
  164MOL0     O22029   9.753   3.424   5.749 -0.1617 -0.0794 -0.1268
  164MOL0     C22030   9.779   3.563   5.718  1.0852 -0.7481  0.3229
  164MOL0     C22031   9.802   3.657   5.819 -0.5548  0.0149 -1.1398
  164MOL0     C22032   9.838   3.788   5.794  0.7171  0.2513 -0.2690
  164MOL0     C22033   9.834   3.831   5.666 -0.5888 -0.1613 -0.3714
  164MOL0     C22034   9.870   3.977   5.632  0.3477 -0.5983  0.0848
  164MOL0     O22035   9.874   4.001   5.496 -0.0322  0.6762 -0.0817
  164MOL0     C22036   9.901   4.122   5.441 -0.0393  0.4258  0.1130
  164MOL0     C22037   9.888   4.246   5.505  0.2596 -0.6560  0.2102
  164MOL0     C22038   9.888   4.361   5.434 -0.3403  0.2471  1.0243
  164MOL0     C22039   9.906   4.358   5.289 -0.4888  0.8053 -0.0592
  164MOL0     O22040   9.912   4.479   5.225 -0.1821 -0.1145 -0.1972
  164MOL0     C22041   9.815   4.491   5.117  0.3109  0.0512  0.6061
  164MOL0     C22042   9.676   4.432   5.144  1.0571 -0.4703  0.2393
  164MOL0     C22043   9.575   4.496   5.046 -1.4200  0.7806  0.5092
  164MOL0     C22044   9.633   4.472   4.909  0.8497  0.3820 -0.1185
  164MOL0     C22045   9.524   4.493   4.808 -0.4332 -0.5656  0.0859
  164MOL0     C22046   9.421   4.383   4.800 -0.4023 -0.1649  0.3672
  164MOL0     C22047   9.300   4.422   4.712 -0.2296  0.5268  0.3134
  164MOL0     C22048   9.170   4.346   4.728  0.3043  0.8650  0.3777
  164MOL0    Cl22049   9.198   4.178   4.671 -0.2139 -0.3440  0.1177
  164MOL0     C22050   9.925   4.235   5.225  0.2149  0.0845  0.1514
  164MOL0     C22051   9.920   4.118   5.297 -0.0472 -0.0888 -0.8683
  164MOL0     O22052   9.903   4.051   5.723 -0.8966 -0.1133 -0.2146
  164MOL0     C22053   9.787   3.745   5.559 -0.3451 -0.1583  0.7676
  164MOL0     C22054   9.767   3.607   5.585  0.1462  0.3619  0.0533
  164MOL0     N22055   9.287   3.151   5.802  1.1139 -0.1864 -0.0951
  164MOL0     N22056   9.173   3.129   5.734  0.2155 -0.0231  0.0786
  164MOL0     C22057   8.577   2.724   6.419 -0.4782  0.8425  1.1262
  164MOL0     C22058   8.480   2.807   6.472  0.1881  1.1496 -0.1493
  164MOL0     C22059   8.114   2.974   6.627  0.2501 -1.1335 -0.4271
  164MOL0     C22060   8.170   3.100   6.648  0.5650  0.3546 -0.5831
  164MOL0     C22061   8.118   3.194   6.730  0.5927  0.7591  0.5739
  164MOL0     C22062   7.999   3.172   6.789 -0.3814 -0.5696 -0.4458
  164MOL0     O22063   7.950   3.290   6.847 -0.0925  0.0706  0.0524
  164MOL0     C22064   7.804   3.292   6.891 -0.9254 -0.1950  0.2439
  164MOL0     C22065   7.744   3.439   6.874 -0.9149  0.2622  0.2977
  164MOL0     C22066   7.802   3.542   6.963 -0.5891  0.3090  0.0318
  164MOL0     C22067   7.805   3.498   7.121 -0.1696 -1.1218  0.6868
  164MOL0     C22068   7.817   3.599   7.222  0.0834 -0.0265  0.2333
  164MOL0     C22069   7.836   3.661   7.317 -1.1064 -0.7167 -1.1326
  164MOL0     C22070   7.939   3.049   6.791 -0.5502 -0.0470 -0.6106
  164MOL0     C22071   7.993   2.943   6.701 -0.3479  0.7236 -0.0024
  164MOL0     C22072   7.910   2.821   6.678 -0.7489 -0.5652  0.4366
  164MOL0     H22073   8.353   2.936   6.197 -1.9909  1.4938  3.0709
  164MOL0     H22074   8.543   2.801   6.090  2.8265  0.9129  0.0726
  164MOL0     H22075   8.835   2.782   6.270 -0.7220  0.9910 -0.5605
  164MOL0     H22076   8.851   2.638   6.372  0.5269  0.4858 -0.7279
  164MOL0     H22077   9.023   2.578   6.252 -1.8722 -2.1871  1.9944
  164MOL0     H22078   9.016   2.718   6.142  1.1715 -2.2489 -1.9866
  164MOL0     H22079   8.831   2.583   6.031  0.7019  1.1725 -0.4019
  164MOL0     H22080   8.935   2.441   6.086 -4.5728 -1.8115 -2.7280
  164MOL0     H22081   9.125   2.578   5.979 -0.3651  2.1100  0.2773
  164MOL0     H22082   8.995   2.491   5.878 -2.7465  1.6558 -0.5133
  164MOL0     H22083   8.879   2.690   5.835  0.2762  0.7390 -2.5974
  164MOL0     H22084   8.988   2.787   5.946 -3.1113  2.0454 -1.9656
  164MOL0     H22085   9.179   2.762   5.782  0.3933  1.1218 -0.6370
  164MOL0     H22086   9.075   2.669   5.682 -5.4655  1.9428 -1.6527
  164MOL0     H22087   8.966   2.935   5.769  1.5013  2.0022 -0.5981
  164MOL0     H22088   8.899   2.826   5.655 -1.4533  2.2575  3.2116
  164MOL0     H22089   9.140   2.881   5.512  1.8205  3.4239 -3.2546
  164MOL0     H22090   9.015   3.008   5.540 -0.6120  2.2664  3.1164
  164MOL0     H22091   9.364   2.876   5.633 -0.6753 -1.7137  2.5592
  164MOL0     H22092   9.523   3.084   5.902 -4.4242  3.3074  0.1368
  164MOL0     H22093   9.581   2.974   5.769 -0.0673  0.1483 -1.1782
  164MOL0     H22094   9.542   3.226   5.646  0.6664  1.3527 -0.6202
  164MOL0     H22095   9.560   3.274   5.797  0.9267  0.2843 -0.5348
  164MOL0     H22096   9.779   3.106   5.680 -1.7762 -0.5096  0.1139
  164MOL0     H22097   9.792   3.170   5.839  0.1304 -1.6523 -0.1303
  164MOL0     H22098   9.732   3.326   5.568  1.5265 -1.6826 -0.4096
  164MOL0     H22099   9.895   3.327   5.648  0.3703  0.8214  4.0180
  164MOL0     H22100   9.789   3.622   5.921  2.5198 -0.4092 -0.8088
  164MOL0     H22101   9.843   3.859   5.876  1.3846  3.1389 -2.6111
  164MOL0     H22102   9.885   4.251   5.614  0.5853 -4.4194  0.5249
  164MOL0     H22103   9.882   4.453   5.491 -1.6736  1.8883 -1.5482
  164MOL0     H22104   9.798   4.598   5.101 -1.0699  0.0884  2.0220
  164MOL0     H22105   9.853   4.443   5.027  1.0532 -1.7255  1.8004
  164MOL0     H22106   9.687   4.324   5.125  1.0998 -0.1805 -1.5492
  164MOL0     H22107   9.635   4.463   5.241 -1.5413  2.2439 -1.5594
  164MOL0     H22108   9.479   4.444   5.051 -1.3239  0.1393 -2.3327
  164MOL0     H22109   9.569   4.604   5.063  2.2717  1.2071 -0.1319
  164MOL0     H22110   9.671   4.371   4.892 -1.2156 -0.3749 -0.5368
  164MOL0     H22111   9.709   4.549   4.893 -0.0392  0.6290 -4.3393
  164MOL0     H22112   9.568   4.506   4.709 -2.2853 -0.7305 -0.7951
  164MOL0     H22113   9.478   4.590   4.829  2.7197  1.3724 -1.1444
  164MOL0     H22114   9.479   4.297   4.766  1.0419 -0.3142  3.0009
  164MOL0     H22115   9.391   4.349   4.899  0.4314 -0.6855  0.4426
  164MOL0     H22116   9.343   4.403   4.613  1.1077 -0.6668  1.0939
  164MOL0     H22117   9.267   4.524   4.731 -4.1630 -0.5206 -0.1138
  164MOL0     H22118   9.128   4.344   4.829 -2.8685 -0.5405 -0.8245
  164MOL0     H22119   9.105   4.395   4.655 -0.7098  1.4964  1.6662
  164MOL0     H22120   9.932   4.239   5.117  0.6038  0.6414  0.1933
  164MOL0     H22121   9.917   4.029   5.235  0.7114  0.0939 -1.1762
  164MOL0     H22122   9.769   3.779   5.457  0.4865 -0.9407  0.3480
  164MOL0     H22123   9.722   3.542   5.511 -1.5496  0.2273  1.1502
  164MOL0     H22124   8.626   2.649   6.481  0.1021 -0.5444 -0.9247
  164MOL0     H22125   8.483   2.808   6.581 -3.5038  1.8647  0.0709
  164MOL0     H22126   8.250   3.130   6.581  0.8933  4.1447  1.2565
  164MOL0     H22127   8.163   3.293   6.728  0.0505  1.0438  1.6522
  164MOL0     H22128   7.794   3.253   6.993 -2.8405  0.8714  0.5146
  164MOL0     H22129   7.742   3.236   6.820 -3.0322  1.8981  0.3058
  164MOL0     H22130   7.637   3.428   6.892 -1.6872  0.7883 -3.2597
  164MOL0     H22131   7.758   3.472   6.771  0.8566  1.2630  0.8109
  164MOL0     H22132   7.731   3.624   6.948 -2.1175 -0.7209  1.2191
  164MOL0     H22133   7.907   3.566   6.945 -0.2236 -0.7494  0.6432
  164MOL0     H22134   7.710   3.448   7.140 -0.8984 -0.3037 -0.6192
  164MOL0     H22135   7.886   3.426   7.131  0.5871 -0.2113  1.2100
  164MOL0     H22136   7.843   3.717   7.408 -3.3930 -1.5188 -0.3956
  164MOL0     H22137   7.848   3.023   6.844  0.9292  1.1860  2.7855
  164MOL0     H22138   7.967   2.733   6.707 -0.4743 -0.7902 -0.7547
  164MOL0     H22139   7.813   2.832   6.727 -2.7981 -1.6965 -3.0447
  164MOL0     H22140   7.896   2.804   6.571 -0.6006 -0.1151  0.3418
  165MOL0     O22141   1.582   0.609   2.830  0.1926 -0.0796 -0.7013
  165MOL0     C22142   1.701   0.590   2.845 -0.3830 -0.3570  0.4659
  165MOL0     O22143   1.792   0.591   2.742 -1.0233  0.3981  0.3328
  165MOL0     C22144   1.762   0.640   2.618 -0.5166  0.1110  0.4028
  165MOL0     C22145   1.822   0.568   2.507 -0.1246  0.8966  0.0228
  165MOL0     C22146   1.789   0.606   2.374 -0.7975 -0.6841 -0.8271
  165MOL0     C22147   1.706   0.717   2.355  0.1550 -0.4161  0.5363
  165MOL0     O22148   1.682   0.742   2.217 -0.1292  0.2454  0.1965
  165MOL0     C22149   1.690   0.879   2.182  0.5631  0.0285 -0.0641
  165MOL0     C22150   1.667   0.880   2.032 -0.8920  0.3981 -0.1978
  165MOL0     C22151   1.754   0.798   1.946  0.1796 -0.3071 -0.7577
  165MOL0     C22152   1.716   0.812   1.800 -0.4015  0.4363 -0.6578
  165MOL0     C22153   1.810   0.730   1.707 -0.0125  0.4900 -0.4538
  165MOL0     C22154   1.942   0.799   1.690 -0.0848 -0.3895  0.0709
  165MOL0     C22155   1.963   0.837   1.544  0.0597  0.1758  0.4249
  165MOL0     C22156   1.872   0.943   1.494 -0.4775 -0.5137 -0.0726
  165MOL0     N22157   1.910   1.002   1.372  0.0317  0.3066  0.5113
  165MOL0     C22158   1.969   1.124   1.352  0.3044  0.5347 -0.2409
  165MOL0     C22159   2.001   1.129   1.223 -0.5181 -0.1656 -0.3373
  165MOL0     C22160   2.053   1.240   1.134  0.0904 -0.9254 -0.3350
  165MOL0     C22161   1.932   1.339   1.105  0.3652 -0.0103  0.0287
  165MOL0     C22162   1.968   1.466   1.020 -0.4215  0.4415  0.0518
  165MOL0     C22163   1.853   1.554   0.975  0.0563  0.8089  0.0565
  165MOL0     O22164   1.910   1.677   0.937 -0.0300 -0.1098 -0.0643
  165MOL0     C22165   1.842   1.766   0.856  0.1456  0.0728 -0.2260
  165MOL0     C22166   1.747   1.844   0.912  0.4810  0.1635  0.0678
  165MOL0     C22167   1.673   1.926   0.829 -0.8865  0.5034  0.0777
  165MOL0     C22168   1.703   1.938   0.692 -0.7696 -0.5910 -0.2692
  165MOL0     C22169   1.620   2.031   0.612  0.0933  0.8187  0.0736
  165MOL0     O22170   1.484   2.048   0.646 -0.8334  0.2922 -0.7060
  165MOL0     C22171   1.407   2.133   0.568 -0.0638  1.4126 -0.2929
  165MOL0     C22172   1.282   2.081   0.539 -0.0307  1.6578  0.3062
  165MOL0     C22173   1.184   2.163   0.475 -0.3145  0.5284 -0.7556
  165MOL0     C22174   1.213   2.290   0.445 -0.3812  0.2088  1.1203
  165MOL0     O22175   1.128   2.382   0.388  0.0056  0.5249 -0.2400
  165MOL0     C22176   1.150   2.525   0.384 -0.4809 -0.1647  0.7090
  165MOL0     C22177   1.039   2.599   0.314  0.5682 -0.2667 -0.1126
  165MOL0     C22178   1.047   2.573   0.158  0.1358  1.1154  1.2248
  165MOL0     C22179   0.965   2.673   0.087 -0.1556 -0.2394  0.4003
  165MOL0     C22180   0.809   2.649   0.086  0.0382  0.0366 -0.6743
  165MOL0     C22181   0.740   2.731  -0.023 -0.0480  0.1465  0.0436
  165MOL0     C22182   0.714   2.876   0.029 -0.0695  0.0519  0.4642
  165MOL0     C22183   0.644   2.960  -0.079 -0.3357  0.0661  0.3030
  165MOL0    Cl22184   0.775   2.982  -0.206  0.2928 -0.2885 -0.0180
  165MOL0     C22185   1.338   2.344   0.482  0.4668 -0.2198 -0.2473
  165MOL0     C22186   1.434   2.261   0.539 -0.4802  0.0247  0.3556
  165MOL0     O22187   1.684   2.099   0.531 -0.3769 -1.2570 -0.0615
  165MOL0     C22188   1.817   1.865   0.641  0.8841 -0.5614  0.2976
  165MOL0     C22189   1.892   1.788   0.729  0.1140 -0.1234  0.1294
  165MOL0     N22190   1.970   1.017   1.167  1.0300  0.0407 -0.0256
  165MOL0     N22191   1.908   0.937   1.249 -0.2645  0.0794 -0.0233
  165MOL0     C22192   1.660   0.795   2.460 -0.0967  0.6223 -0.2427
  165MOL0     C22193   1.698   0.764   2.585  0.7550  0.2564 -0.4642
  165MOL0     C22194   1.755   0.595   2.983 -0.4326  0.2112 -0.8521
  165MOL0     C22195   1.759   0.723   3.044  0.2675 -0.1028  0.1658
  165MOL0     C22196   1.815   0.747   3.165 -0.6202  0.3482  0.4345
  165MOL0     C22197   1.889   0.643   3.232 -0.8133 -0.0050  1.0636
  165MOL0     O22198   1.963   0.676   3.345 -0.1953  0.4385 -0.2304
  165MOL0     C22199   1.896   0.678   3.463 -0.6280  0.3968  0.4250
  165MOL0     C22200   1.850   0.527   3.484 -0.3143 -0.8792 -0.5513
  165MOL0     C22201   1.829   0.501   3.638 -0.8591  0.1439  0.6237
  165MOL0     C22202   1.786   0.356   3.661 -0.6150 -0.0772 -0.3901
  165MOL0     C22203   1.789   0.327   3.806  0.3041  1.0098 -0.1168
  165MOL0     C22204   1.786   0.322   3.924 -0.0065  0.6005 -0.7290
  165MOL0     C22205   1.908   0.516   3.160 -0.0129 -0.3318  0.8345
  165MOL0     C22206   1.831   0.494   3.043  0.3431  0.2702 -0.0571
  165MOL0     C22207   1.848   0.362   2.963  0.3026  0.3251  0.2692
  165MOL0     H22208   1.886   0.481   2.516 -0.9286  0.5062  2.5708
  165MOL0     H22209   1.835   0.562   2.286 -1.5140 -0.5884 -1.2590
  165MOL0     H22210   1.610   0.936   2.230 -0.4738 -0.5119 -1.1055
  165MOL0     H22211   1.791   0.905   2.216  2.0658 -3.0100 -1.8174
  165MOL0     H22212   1.681   0.982   1.994 -5.0196  0.8498 -0.9271
  165MOL0     H22213   1.567   0.842   2.011 -0.4410 -1.4609  0.8211
  165MOL0     H22214   1.760   0.693   1.977 -3.0715 -0.3473  0.0670
  165MOL0     H22215   1.850   0.844   1.975 -0.4100 -0.7096  2.1815
  165MOL0     H22216   1.619   0.762   1.793 -0.5732  0.9251 -2.4520
  165MOL0     H22217   1.701   0.916   1.767  0.1275  0.7101 -0.0479
  165MOL0     H22218   1.836   0.633   1.751  0.1599  1.8075  2.5833
  165MOL0     H22219   1.761   0.709   1.612 -1.0214 -3.1395  0.6988
  165MOL0     H22220   1.946   0.879   1.764 -0.8018 -0.8109  0.5882
  165MOL0     H22221   2.020   0.730   1.723  2.1393  0.3038 -3.2482
  165MOL0     H22222   1.950   0.750   1.479  1.6353  0.8070 -0.7964
  165MOL0     H22223   2.067   0.868   1.532 -0.4778  1.2427 -2.3722
  165MOL0     H22224   1.771   0.907   1.474 -0.2229 -0.1458 -2.3102
  165MOL0     H22225   1.876   1.026   1.565 -0.5902  0.2481 -0.9402
  165MOL0     H22226   1.989   1.207   1.418  1.7133 -2.3329  3.2777
  165MOL0     H22227   2.147   1.274   1.178 -0.8766 -1.0128  1.9789
  165MOL0     H22228   2.083   1.191   1.041 -2.6457  2.0215 -3.0423
  165MOL0     H22229   1.856   1.286   1.047  0.5669 -0.5356  0.2405
  165MOL0     H22230   1.892   1.382   1.198 -0.7193  0.9659 -0.8483
  165MOL0     H22231   2.015   1.420   0.932  0.2670  2.3328 -0.6295
  165MOL0     H22232   2.042   1.528   1.073 -1.7483  2.6774 -0.5500
  165MOL0     H22233   1.779   1.566   1.054 -0.6519 -1.3248 -0.2231
  165MOL0     H22234   1.796   1.510   0.893 -1.4076  0.8597  1.0127
  165MOL0     H22235   1.737   1.848   1.020  0.5957 -1.5785  0.1769
  165MOL0     H22236   1.586   1.973   0.874 -0.3925 -1.5935  3.5482
  165MOL0     H22237   1.250   1.983   0.573  1.1035  1.2762  0.3165
  165MOL0     H22238   1.091   2.120   0.440  0.6109 -1.0248 -1.3766
  165MOL0     H22239   1.160   2.565   0.485  2.8202  0.3948  0.2845
  165MOL0     H22240   1.251   2.550   0.349  1.8743 -2.6827  4.9431
  165MOL0     H22241   0.934   2.576   0.338 -0.0959 -0.7473 -3.0290
  165MOL0     H22242   1.048   2.704   0.340 -2.2334 -0.0778  0.4658
  165MOL0     H22243   1.146   2.586   0.113  0.6159 -2.8971  0.7280
  165MOL0     H22244   1.014   2.471   0.138 -3.3130  1.9068  2.2714
  165MOL0     H22245   0.986   2.667  -0.020 -0.6405  4.0400 -0.1129
  165MOL0     H22246   0.995   2.769   0.130 -0.7453 -1.5188  4.0727
  165MOL0     H22247   0.759   2.673   0.180 -2.4383 -1.0162 -1.6313
  165MOL0     H22248   0.776   2.547   0.063 -0.1721  0.4943 -2.6058
  165MOL0     H22249   0.801   2.729  -0.114  0.0975 -3.1661  0.1054
  165MOL0     H22250   0.641   2.704  -0.060  0.6207  1.4088 -2.9888
  165MOL0     H22251   0.807   2.920   0.064  0.7894 -0.2208 -1.3708
  165MOL0     H22252   0.653   2.874   0.121  1.4073  2.0845  1.5669
  165MOL0     H22253   0.568   2.901  -0.130 -0.6123  1.7472 -1.3384
  165MOL0     H22254   0.613   3.057  -0.038 -1.7407 -0.1466 -0.2174
  165MOL0     H22255   1.368   2.448   0.480 -1.5391  0.3913 -1.4341
  165MOL0     H22256   1.526   2.299   0.584  0.4650  0.0732 -1.5573
  165MOL0     H22257   1.840   1.882   0.536 -2.4945 -0.2060 -0.5018
  165MOL0     H22258   1.982   1.741   0.692 -2.3124 -2.4072 -3.5420
  165MOL0     H22259   1.604   0.887   2.449 -2.7058 -0.1915  4.0593
  165MOL0     H22260   1.665   0.831   2.663  1.6187 -3.0171  3.0537
  165MOL0     H22261   1.709   0.807   2.996  0.7371  1.3263  2.0904
  165MOL0     H22262   1.810   0.843   3.216  2.2678  0.1705  1.2355
  165MOL0     H22263   1.811   0.747   3.457 -1.3465 -0.4895  0.2592
  165MOL0     H22264   1.972   0.702   3.538 -1.1555  3.1395  0.1784
  165MOL0     H22265   1.924   0.454   3.450 -0.7633 -2.1758  1.1238
  165MOL0     H22266   1.770   0.505   3.413  1.2108 -3.2683 -1.6802
  165MOL0     H22267   1.757   0.576   3.673  0.7731  1.9411  0.3218
  165MOL0     H22268   1.926   0.521   3.684 -0.3500  1.0546 -0.7684
  165MOL0     H22269   1.689   0.327   3.618 -0.7758  0.1591 -0.1888
  165MOL0     H22270   1.856   0.287   3.613 -0.1777 -1.1801  1.7402
  165MOL0     H22271   1.828   0.328   4.023 -0.2837  1.9497 -0.6661
  165MOL0     H22272   1.967   0.431   3.196 -2.1044 -1.2317  2.3450
  165MOL0     H22273   1.917   0.376   2.879  0.3937  3.1968  0.7091
  165MOL0     H22274   1.894   0.284   3.024  0.0330 -0.1309 -0.1089
  165MOL0     H22275   1.758   0.330   2.910  0.4096  0.9319 -0.3022
  166MOL0     O22276  10.343   3.755   8.993  0.5753 -0.0497  0.0177
  166MOL0     C22277  10.374   3.826   8.904  0.0894  0.1294  0.4001
  166MOL0     O22278  10.328   3.955   8.877 -0.6672  0.5015 -0.2797
  166MOL0     C22279  10.243   4.018   8.965 -0.1368  0.1071  0.9585
  166MOL0     C22280  10.275   4.029   9.103  0.3383 -0.4090 -0.2228
  166MOL0     C22281  10.179   4.088   9.188 -0.0529 -0.2232 -0.6616
  166MOL0     C22282  10.042   4.116   9.140  0.0085 -0.3679  0.4082
  166MOL0     O22283   9.957   4.183   9.216  0.4406 -0.0652  0.3993
  166MOL0     C22284   9.828   4.115   9.222 -0.1315  0.2040 -0.5767
  166MOL0     C22285   9.751   4.167   9.341  0.2532  0.2045  0.0514
  166MOL0     C22286   9.599   4.147   9.347 -0.0691  0.0494  0.2606
  166MOL0     C22287   9.534   4.148   9.487  0.2885  0.2739  0.7006
  166MOL0     C22288   9.562   4.270   9.564  0.6204 -0.3262 -1.0058
  166MOL0     C22289   9.496   4.251   9.706  0.0252  0.1056 -0.7057
  166MOL0     C22290   9.343   4.286   9.705 -0.4693 -0.3419  0.4903
  166MOL0     C22291   9.299   4.306   9.859 -0.4778 -0.0398 -0.0924
  166MOL0     N22292   9.261   4.174   9.923 -0.6526 -0.0670 -0.0092
  166MOL0     C22293   9.133   4.127   9.941  0.2402  0.9011  0.2369
  166MOL0     C22294   9.151   4.001   9.993 -1.0593  0.2182 -0.3009
  166MOL0     C22295   9.045   3.906  10.033  0.4214  0.5748 -0.0119
  166MOL0     C22296   8.996   3.832   9.910 -0.0505 -0.4892 -0.6723
  166MOL0     C22297   9.109   3.746   9.855  0.0969 -0.6215  0.2861
  166MOL0     C22298   9.063   3.623   9.774  0.3546  0.3036  0.1110
  166MOL0     O22299   9.089   3.500   9.846  0.6150  0.2592  0.7069
  166MOL0     C22300   9.208   3.429   9.816  0.8039 -0.1014 -0.8707
  166MOL0     C22301   9.323   3.493   9.764  0.2664  0.0186 -1.3440
  166MOL0     C22302   9.436   3.427   9.736 -0.3561 -0.0845  0.3836
  166MOL0     C22303   9.454   3.289   9.776  0.1424 -0.7160  0.2850
  166MOL0     C22304   9.578   3.209   9.751 -0.5813  0.1202 -0.6703
  166MOL0     O22305   9.682   3.285   9.743 -0.2545 -0.6072 -0.0638
  166MOL0     C22306   9.796   3.245   9.679  1.3506  0.2643 -0.5458
  166MOL0     C22307   9.870   3.126   9.695 -0.1700 -0.0404  0.9665
  166MOL0     C22308   9.981   3.106   9.615  0.2431  0.0775  0.6088
  166MOL0     C22309  10.024   3.194   9.516  0.4241 -0.0529  0.3510
  166MOL0     O22310  10.114   3.146   9.421 -0.3352 -0.0816  0.0968
  166MOL0     C22311  10.134   3.218   9.301 -0.3991  0.1131  0.6725
  166MOL0     C22312  10.207   3.147   9.190 -0.1972 -0.1142 -1.3317
  166MOL0     C22313  10.142   3.015   9.174  1.1398  0.0419  0.7524
  166MOL0     C22314  10.201   2.943   9.064  0.3650  0.0314  0.4306
  166MOL0     C22315  10.130   2.810   9.034 -0.7233 -0.3138  0.9564
  166MOL0     C22316  10.220   2.730   8.940  0.1413 -0.3430  0.8629
  166MOL0     C22317  10.269   2.592   8.982  0.5044 -0.0931 -0.1509
  166MOL0     C22318  10.377   2.534   8.890 -0.4298 -0.4503 -0.6303
  166MOL0    Cl22319  10.497   2.653   8.808  0.3305 -0.3016 -0.5127
  166MOL0     C22320   9.947   3.309   9.504 -1.2753  0.5238  0.5480
  166MOL0     C22321   9.835   3.338   9.584 -0.2117 -0.3549  0.4155
  166MOL0     O22322   9.566   3.087   9.734  0.0030  0.1939  0.9432
  166MOL0     C22323   9.347   3.230   9.842 -0.2377  0.9056  0.4287
  166MOL0     C22324   9.224   3.298   9.860 -0.3738 -0.5743  0.5609
  166MOL0     N22325   9.284   3.993  10.019  0.0863  0.7732 -0.5985
  166MOL0     N22326   9.353   4.089   9.964  0.3911 -0.0654  0.2027
  166MOL0     C22327  10.022   4.103   9.001  0.4890 -0.8360 -0.9240
  166MOL0     C22328  10.117   4.053   8.916  0.4536  0.4849 -0.2358
  166MOL0     C22329  10.465   3.761   8.806 -0.2542 -0.6005 -0.2535
  166MOL0     C22330  10.438   3.634   8.750 -0.3811  0.4728 -0.7956
  166MOL0     C22331  10.510   3.567   8.660  0.6114  0.9165  0.9690
  166MOL0     C22332  10.621   3.622   8.610 -0.1355  0.2000 -0.3347
  166MOL0     O22333  10.690   3.550   8.516 -0.6276  0.3135  0.4029
  166MOL0     C22334  10.833   3.580   8.506 -0.2002  0.6651 -0.7212
  166MOL0     C22335  10.916   3.481   8.416  0.5741 -0.8445 -0.5917
  166MOL0     C22336  10.886   3.334   8.450 -0.7562  0.6205 -0.2732
  166MOL0     C22337  10.948   3.220   8.359 -0.5524 -0.3053 -0.0171
  166MOL0     C22338  11.098   3.229   8.367 -0.1953  1.0132 -0.5214
  166MOL0     C22339  11.219   3.232   8.388  0.9203  0.8757  0.8672
  166MOL0     C22340  10.658   3.754   8.656 -0.7260  0.1819  0.6187
  166MOL0     C22341  10.584   3.817   8.754  0.4390 -0.9181  0.5664
  166MOL0     C22342  10.623   3.965   8.788  0.3852  0.5093  0.0734
  166MOL0     H22343  10.359   3.974   9.144 -0.3492 -0.0281  1.8274
  166MOL0     H22344  10.211   4.100   9.291 -1.7627  3.8520 -0.4178
  166MOL0     H22345   9.764   4.143   9.137 -0.0245  2.3878 -0.0049
  166MOL0     H22346   9.840   4.007   9.234  0.8253  0.0827 -2.2701
  166MOL0     H22347   9.778   4.269   9.370  0.9835 -0.0871  0.4409
  166MOL0     H22348   9.789   4.097   9.416 -2.9467 -3.1408 -1.1205
  166MOL0     H22349   9.582   4.049   9.301 -1.4948  0.8602 -1.0371
  166MOL0     H22350   9.559   4.223   9.280  1.5393  0.5877 -0.1433
  166MOL0     H22351   9.427   4.133   9.473  0.4466  0.0591 -0.3204
  166MOL0     H22352   9.564   4.056   9.539 -0.6482 -1.0740 -1.0509
  166MOL0     H22353   9.672   4.270   9.563  0.8122 -1.5225  2.7353
  166MOL0     H22354   9.515   4.356   9.516  2.5299  2.8315  2.2100
  166MOL0     H22355   9.512   4.148   9.740 -1.3316  0.0953 -0.0671
  166MOL0     H22356   9.544   4.319   9.777 -3.6263 -0.8515  3.0036
  166MOL0     H22357   9.298   4.197   9.659  0.8216  0.5046 -2.6799
  166MOL0     H22358   9.331   4.377   9.646  2.5834  0.2024  0.5720
  166MOL0     H22359   9.384   4.354   9.909  0.3380  1.1532 -2.4420
  166MOL0     H22360   9.215   4.377   9.862 -1.1709 -0.8653  0.1580
  166MOL0     H22361   9.034   4.172   9.934  0.2732  2.7956  6.1852
  166MOL0     H22362   9.088   3.847  10.114  0.2416  2.2144  1.3293
  166MOL0     H22363   8.963   3.962  10.078 -2.2825 -0.8993 -2.7553
  166MOL0     H22364   8.912   3.769   9.937 -1.5218  0.5786 -2.5089
  166MOL0     H22365   8.956   3.896   9.831 -1.0644  0.4366  0.5667
  166MOL0     H22366   9.176   3.701   9.929  0.9115 -1.6351 -1.0236
  166MOL0     H22367   9.168   3.795   9.777 -2.0134 -0.4588 -1.2898
  166MOL0     H22368   9.106   3.625   9.674  1.7200  1.9522  0.6688
  166MOL0     H22369   8.955   3.621   9.756  0.3831 -4.3712 -0.5544
  166MOL0     H22370   9.325   3.601   9.753 -0.4090  0.3621  1.2416
  166MOL0     H22371   9.523   3.481   9.700  0.2044 -1.6168 -0.6525
  166MOL0     H22372   9.832   3.042   9.752 -0.2361 -0.0796  0.8661
  166MOL0     H22373  10.049   3.022   9.627  1.2983  0.9229  0.7348
  166MOL0     H22374  10.033   3.248   9.271 -0.6154  0.4995  1.7413
  166MOL0     H22375  10.197   3.304   9.324  0.0213  0.2936 -1.0170
  166MOL0     H22376  10.199   3.214   9.104 -0.5502  0.4537 -0.8629
  166MOL0     H22377  10.315   3.134   9.207 -0.1153 -3.3801 -3.5032
  166MOL0     H22378  10.150   2.969   9.273  0.4965  0.1084  0.8404
  166MOL0     H22379  10.035   3.030   9.157  1.1066  2.2879  2.3698
  166MOL0     H22380  10.294   2.903   9.105 -0.1926 -0.9960  0.7434
  166MOL0     H22381  10.217   3.007   8.977  0.4738  0.1520  0.5407
  166MOL0     H22382  10.034   2.824   8.982 -2.0370  4.5073  3.9768
  166MOL0     H22383  10.120   2.747   9.123 -0.0801  0.5199  1.6415
  166MOL0     H22384  10.151   2.720   8.855 -1.9304  2.6189  1.9980
  166MOL0     H22385  10.302   2.788   8.896 -1.1764  0.6785 -0.3745
  166MOL0     H22386  10.184   2.524   8.976  2.1006 -2.2339  0.5876
  166MOL0     H22387  10.295   2.588   9.088  2.5428 -1.0832 -0.6445
  166MOL0     H22388  10.431   2.451   8.935 -0.8526 -0.9060 -0.9566
  166MOL0     H22389  10.326   2.482   8.808  0.1445 -2.4993  0.2580
  166MOL0     H22390   9.961   3.370   9.416 -2.9602 -0.5315 -0.5030
  166MOL0     H22391   9.788   3.435   9.570  0.2045 -0.2764 -0.5174
  166MOL0     H22392   9.364   3.129   9.876  2.1360  1.2425  0.4224
  166MOL0     H22393   9.138   3.256   9.911 -1.1117 -2.4389 -1.9768
  166MOL0     H22394   9.931   4.133   8.950 -1.0425 -0.9752  1.5495
  166MOL0     H22395  10.108   4.042   8.808  0.1111  3.5447 -0.6048
  166MOL0     H22396  10.351   3.581   8.788  1.3591 -1.4090  0.8030
  166MOL0     H22397  10.474   3.470   8.629  0.9634  1.5939 -1.8760
  166MOL0     H22398  10.875   3.613   8.601 -0.2093  1.1422 -0.8789
  166MOL0     H22399  10.839   3.676   8.455  0.8184  0.0454 -1.8099
  166MOL0     H22400  11.021   3.498   8.439  0.2178  2.9074 -1.0523
  166MOL0     H22401  10.893   3.496   8.310 -0.5834 -1.0298 -0.3820
  166MOL0     H22402  10.781   3.306   8.446 -0.6962  0.3290  0.1944
  166MOL0     H22403  10.910   3.310   8.553  1.4167 -1.5616 -1.1958
  166MOL0     H22404  10.924   3.118   8.390 -2.6445  0.2584  0.3597
  166MOL0     H22405  10.915   3.225   8.255  0.6844  0.1748 -0.4122
  166MOL0     H22406  11.323   3.224   8.409  0.9295 -0.7531  0.3746
  166MOL0     H22407  10.740   3.807   8.609 -0.7171 -0.7999 -0.5056
  166MOL0     H22408  10.565   4.038   8.730 -0.4202 -0.2152 -0.0401
  166MOL0     H22409  10.598   3.980   8.893  1.8896  0.8812  0.4010
  166MOL0     H22410  10.730   3.989   8.785  0.1244  1.8504  0.7047
  167MOL0     O22411   3.925   1.135   2.817  0.1169 -0.3031 -0.4261
  167MOL0     C22412   3.816   1.104   2.771 -1.0440  0.5370  0.6036
  167MOL0     O22413   3.779   0.976   2.738  0.6274 -0.8050 -0.1160
  167MOL0     C22414   3.827   0.873   2.811 -0.7856 -0.6267 -0.0585
  167MOL0     C22415   3.799   0.743   2.753 -1.6418 -0.0147  0.0793
  167MOL0     C22416   3.842   0.625   2.813  0.6672  0.1789  0.5923
  167MOL0     C22417   3.910   0.622   2.936  0.4065 -0.3142  0.2403
  167MOL0     O22418   3.928   0.499   2.992 -0.6331 -0.2358  0.3036
  167MOL0     C22419   3.985   0.480   3.121  0.8412  0.1490 -0.0438
  167MOL0     C22420   3.997   0.337   3.159  0.0208 -0.7996  0.2253
  167MOL0     C22421   4.093   0.327   3.280  0.1373 -0.0252 -1.0342
  167MOL0     C22422   4.135   0.176   3.291 -0.2792 -0.0341  1.0748
  167MOL0     C22423   4.022   0.070   3.325  0.0462  0.1946  0.2725
  167MOL0     C22424   4.080  -0.072   3.329  0.5749  0.4421  0.1910
  167MOL0     C22425   3.981  -0.186   3.375  0.1951  0.2050  1.0617
  167MOL0     C22426   4.055  -0.323   3.398  0.4734 -1.4397 -0.5737
  167MOL0     N22427   4.084  -0.371   3.260  0.4476  0.0656 -0.4648
  167MOL0     C22428   4.213  -0.392   3.215  0.6573 -0.1089 -0.6346
  167MOL0     C22429   4.197  -0.451   3.085  0.0558  0.0606 -0.5190
  167MOL0     C22430   4.294  -0.454   2.968  0.0569  0.0397  0.0303
  167MOL0     C22431   4.401  -0.562   2.991 -0.0243 -0.1856  0.4591
  167MOL0     C22432   4.522  -0.548   2.903 -0.9588  0.2843 -0.3105
  167MOL0     C22433   4.500  -0.602   2.758  0.8439 -0.4769  0.1220
  167MOL0     O22434   4.612  -0.592   2.672  0.8178  0.0791 -0.1685
  167MOL0     C22435   4.732  -0.654   2.705  0.0799 -0.1021 -1.1428
  167MOL0     C22436   4.744  -0.754   2.810  0.6164 -0.4418  0.4518
  167MOL0     C22437   4.865  -0.800   2.847 -0.6985 -0.4822 -0.2480
  167MOL0     C22438   4.988  -0.754   2.790 -0.0835  0.8507 -0.3179
  167MOL0     C22439   5.112  -0.799   2.848  0.0744 -0.1118 -0.0956
  167MOL0     O22440   5.112  -0.875   2.963 -0.9389 -0.0989 -0.9747
  167MOL0     C22441   5.229  -0.942   2.986  0.2281 -0.2277 -0.3660
  167MOL0     C22442   5.251  -1.075   2.943 -0.3164  1.3230  0.5822
  167MOL0     C22443   5.376  -1.129   2.970  0.1441  0.7325  0.4892
  167MOL0     C22444   5.474  -1.055   3.045 -0.3071  1.1167  0.3383
  167MOL0     O22445   5.600  -1.104   3.064  0.1069  0.3094  0.4061
  167MOL0     C22446   5.698  -1.047   3.147  1.1654  0.9201  0.3288
  167MOL0     C22447   5.823  -1.140   3.155 -0.3179 -0.3040 -0.2586
  167MOL0     C22448   5.791  -1.279   3.176 -0.1391 -0.1337 -0.4219
  167MOL0     C22449   5.917  -1.346   3.234  0.0324 -0.1175  0.0062
  167MOL0     C22450   5.936  -1.491   3.193  0.8787 -0.8117 -0.5656
  167MOL0     C22451   6.068  -1.553   3.225  0.0916  1.2703 -0.7351
  167MOL0     C22452   6.108  -1.519   3.374 -0.2796 -0.1564  0.6275
  167MOL0     C22453   6.007  -1.586   3.472 -0.9570  0.9569  0.0150
  167MOL0    Cl22454   6.063  -1.554   3.643  0.3009 -0.0601 -0.3964
  167MOL0     C22455   5.442  -0.932   3.100 -0.3923  0.3084  0.0106
  167MOL0     C22456   5.323  -0.868   3.064 -0.2693  0.7225  0.7536
  167MOL0     O22457   5.214  -0.767   2.791  0.5649  0.2165 -0.0250
  167MOL0     C22458   4.981  -0.664   2.685 -0.1520  1.1250  0.9040
  167MOL0     C22459   4.850  -0.618   2.645 -0.1902 -0.2575  0.1415
  167MOL0     N22460   4.062  -0.478   3.074 -0.1053 -0.9625  0.6010
  167MOL0     N22461   3.995  -0.424   3.169 -0.1899 -0.0944 -0.4306
  167MOL0     C22462   3.942   0.755   2.985 -0.0299  1.0301 -0.5333
  167MOL0     C22463   3.904   0.871   2.925  0.1681 -0.4175  0.5339
  167MOL0     C22464   3.727   1.214   2.731 -0.0172 -0.2160  0.4908
  167MOL0     C22465   3.788   1.346   2.701  0.7796 -0.2951  0.8911
  167MOL0     C22466   3.711   1.456   2.656  1.0393  1.1792  0.5587
  167MOL0     C22467   3.568   1.444   2.653 -0.3405  0.5816  0.4349
  167MOL0     O22468   3.479   1.542   2.624  0.2941  0.8736  0.2765
  167MOL0     C22469   3.502   1.640   2.530  0.0558 -0.7874  0.0486
  167MOL0     C22470   3.372   1.711   2.476  0.5194  0.2686  0.2246
  167MOL0     C22471   3.408   1.859   2.439  0.3568 -0.2272  0.9911
  167MOL0     C22472   3.305   1.926   2.333 -0.0149 -0.2180  0.2521
  167MOL0     C22473   3.317   2.065   2.344  0.1888 -0.7347  0.0867
  167MOL0     C22474   3.315   2.186   2.371  1.0268 -0.6639  0.6339
  167MOL0     C22475   3.511   1.322   2.691 -0.5002 -0.0363 -0.2078
  167MOL0     C22476   3.591   1.210   2.724  0.8781 -0.3793  0.7494
  167MOL0     C22477   3.519   1.087   2.766 -0.6390 -0.1103  0.0215
  167MOL0     H22478   3.762   0.748   2.651 -1.1283  0.1019 -0.1076
  167MOL0     H22479   3.830   0.527   2.769  1.4886 -0.3317  1.4651
  167MOL0     H22480   4.086   0.524   3.118  2.0119 -2.3570  0.0504
  167MOL0     H22481   3.927   0.528   3.200 -0.8773 -1.6188 -0.1555
  167MOL0     H22482   4.044   0.288   3.073  3.4338  1.4231  0.6138
  167MOL0     H22483   3.895   0.303   3.178 -1.2155  2.7919  0.7872
  167MOL0     H22484   4.041   0.353   3.372  0.9488 -0.2421 -0.5044
  167MOL0     H22485   4.181   0.392   3.274 -0.0212  0.2115 -0.8054
  167MOL0     H22486   4.201   0.153   3.207 -3.2005  2.7816 -2.2870
  167MOL0     H22487   4.200   0.163   3.379 -0.2319 -0.4793  0.9755
  167MOL0     H22488   3.983   0.106   3.421 -1.2179  2.8180 -1.1375
  167MOL0     H22489   3.940   0.071   3.252  0.5842 -0.2354 -0.3503
  167MOL0     H22490   4.116  -0.095   3.228  3.6237  2.4494  0.7062
  167MOL0     H22491   4.162  -0.067   3.401  0.7482  3.0124 -0.1226
  167MOL0     H22492   3.906  -0.192   3.295  0.1780  2.1265  0.8899
  167MOL0     H22493   3.927  -0.168   3.468 -0.0064 -2.4757  1.5538
  167MOL0     H22494   4.142  -0.299   3.461 -1.3857  0.5495  1.4047
  167MOL0     H22495   3.989  -0.399   3.440 -0.6038  0.2334  0.8765
  167MOL0     H22496   4.304  -0.356   3.261 -0.4852 -1.7059  3.3036
  167MOL0     H22497   4.238  -0.471   2.876  0.3814  1.7635 -0.5220
  167MOL0     H22498   4.336  -0.353   2.967 -0.2155  0.1802  1.1446
  167MOL0     H22499   4.430  -0.555   3.097  1.0244  1.8365  0.0956
  167MOL0     H22500   4.360  -0.660   2.965  1.6309  0.1834 -4.6257
  167MOL0     H22501   4.605  -0.597   2.954  0.5213 -1.4774 -4.0294
  167MOL0     H22502   4.547  -0.441   2.895 -0.9380  0.2519 -0.7182
  167MOL0     H22503   4.423  -0.535   2.718 -2.5532 -0.9649  4.9103
  167MOL0     H22504   4.456  -0.703   2.759 -1.8128  0.5840 -0.5834
  167MOL0     H22505   4.652  -0.774   2.864 -1.8383  3.0075 -1.9316
  167MOL0     H22506   4.883  -0.875   2.924 -0.3958 -0.4204 -0.2584
  167MOL0     H22507   5.177  -1.132   2.888  0.6104 -0.0430  0.7221
  167MOL0     H22508   5.405  -1.228   2.935  0.2083  1.5552 -2.0096
  167MOL0     H22509   5.720  -0.950   3.101 -2.4880  1.5727 -0.3853
  167MOL0     H22510   5.654  -1.037   3.247  1.9623 -0.1004  0.8008
  167MOL0     H22511   5.867  -1.120   3.057  2.7762  3.8149  1.6541
  167MOL0     H22512   5.894  -1.098   3.226 -4.4174  1.4564  3.3006
  167MOL0     H22513   5.704  -1.300   3.239 -1.0519  3.2884 -0.3598
  167MOL0     H22514   5.758  -1.327   3.084  3.6589 -1.0482 -1.5010
  167MOL0     H22515   5.916  -1.336   3.343 -2.8221  2.6247 -0.1623
  167MOL0     H22516   6.014  -1.299   3.216 -0.3609  0.8909  0.4750
  167MOL0     H22517   5.905  -1.494   3.088 -2.2489  0.8059  0.2073
  167MOL0     H22518   5.858  -1.554   3.235  0.9435 -2.1310 -2.2791
  167MOL0     H22519   6.069  -1.661   3.209 -0.1358  0.8311  1.7090
  167MOL0     H22520   6.141  -1.515   3.153  1.1500 -2.4479 -1.8362
  167MOL0     H22521   6.117  -1.411   3.388 -0.1595  0.3800 -2.6990
  167MOL0     H22522   6.206  -1.567   3.379  1.4020  2.5632 -2.2186
  167MOL0     H22523   5.905  -1.547   3.460 -0.9730  1.0131  0.3126
  167MOL0     H22524   5.997  -1.694   3.458  2.1724  0.5958 -0.0903
  167MOL0     H22525   5.509  -0.885   3.170 -0.7127 -0.0350  0.5591
  167MOL0     H22526   5.301  -0.767   3.098 -1.0267  0.0571  2.3654
  167MOL0     H22527   5.070  -0.626   2.635 -0.3342 -0.7054 -0.9350
  167MOL0     H22528   4.843  -0.560   2.553  1.5639  1.4286  1.0024
  167MOL0     H22529   3.979   0.751   3.086 -1.6564 -1.0987  0.0508
  167MOL0     H22530   3.935   0.960   2.978  1.4942 -0.8290  0.4831
  167MOL0     H22531   3.896   1.344   2.691  0.8123 -3.4141  0.7517
  167MOL0     H22532   3.759   1.550   2.632  0.0754  0.8645 -3.4231
  167MOL0     H22533   3.549   1.592   2.444  1.4977 -4.0111  2.4211
  167MOL0     H22534   3.578   1.705   2.575 -0.8935 -0.1564  0.7899
  167MOL0     H22535   3.299   1.715   2.558  2.0559  0.5362  1.6188
  167MOL0     H22536   3.349   1.652   2.387  2.4190  1.1059 -0.8788
  167MOL0     H22537   3.507   1.867   2.392 -0.5030  1.1337 -0.7047
  167MOL0     H22538   3.420   1.927   2.525  0.8751  3.2404 -1.5951
  167MOL0     H22539   3.328   1.885   2.234  4.1409  0.7505  0.6218
  167MOL0     H22540   3.204   1.902   2.369  0.1377 -1.9742 -0.3801
  167MOL0     H22541   3.297   2.288   2.396  0.3340 -0.9189  1.2168
  167MOL0     H22542   3.403   1.318   2.702 -0.4530 -3.3304 -0.0186
  167MOL0     H22543   3.568   1.040   2.851 -2.1341 -1.0425  0.4176
  167MOL0     H22544   3.414   1.078   2.797  0.1616 -2.8997  2.2749
  167MOL0     H22545   3.544   1.017   2.686 -0.7966 -2.1675  1.6989
  168MOL0     O22546   9.387   8.118  11.309 -0.4524  0.3760 -0.0832
  168MOL0     C22547   9.473   8.108  11.397  0.1557  0.4154 -0.2790
  168MOL0     O22548   9.441   8.086  11.532 -0.3164  0.2871 -0.3055
  168MOL0     C22549   9.320   8.129  11.574 -0.6179  0.3851 -0.5248
  168MOL0     C22550   9.209   8.042  11.592  0.2538 -0.4585 -0.3010
  168MOL0     C22551   9.092   8.092  11.638 -0.3387 -1.5431  0.9608
  168MOL0     C22552   9.070   8.230  11.668 -0.3267 -0.6374  0.4230
  168MOL0     O22553   8.942   8.267  11.706  0.0850  0.4832 -0.8693
  168MOL0     C22554   8.929   8.398  11.775  0.1231  0.4150 -0.5629
  168MOL0     C22555   8.931   8.386  11.930 -0.2201 -0.3191 -0.4649
  168MOL0     C22556   9.073   8.389  11.987 -0.3600  0.6405 -0.1712
  168MOL0     C22557   9.063   8.361  12.137 -0.0971  0.0205 -0.3967
  168MOL0     C22558   9.067   8.216  12.161 -0.9741  0.4181 -0.6730
  168MOL0     C22559   9.077   8.168  12.311 -0.3364 -0.7905 -0.5947
  168MOL0     C22560   9.148   8.036  12.315 -0.0589 -0.3317  0.3755
  168MOL0     C22561   9.110   7.944  12.432 -0.7566 -0.4648  0.1251
  168MOL0     N22562   9.169   7.807  12.428 -0.1767  0.1162  0.4882
  168MOL0     C22563   9.128   7.709  12.342 -0.1767 -0.7552  0.2795
  168MOL0     C22564   9.211   7.602  12.363 -0.0175 -0.9352  0.5457
  168MOL0     C22565   9.206   7.474  12.283  0.0278 -0.6953  0.2631
  168MOL0     C22566   9.050   7.435  12.279 -0.2642 -0.8315 -0.8248
  168MOL0     C22567   9.012   7.310  12.206  0.0046 -0.6564 -0.4035
  168MOL0     C22568   9.000   7.327  12.052  0.2781  0.0750 -0.5700
  168MOL0     O22569   9.034   7.453  11.988 -0.6043  0.1948  0.3054
  168MOL0     C22570   9.168   7.477  11.955 -0.1219  0.6269 -0.9486
  168MOL0     C22571   9.201   7.606  11.914  0.5965  0.8143 -0.1987
  168MOL0     C22572   9.331   7.649  11.875  0.4621 -0.1523  0.2359
  168MOL0     C22573   9.427   7.556  11.866 -0.5830  0.1942 -0.2237
  168MOL0     C22574   9.550   7.582  11.818 -0.3273  0.6844 -0.4706
  168MOL0     O22575   9.587   7.711  11.820  0.3749  0.0877 -0.4013
  168MOL0     C22576   9.712   7.751  11.788  0.5712 -0.0903  0.4534
  168MOL0     C22577   9.837   7.685  11.795  0.8266 -0.4463 -1.1272
  168MOL0     C22578   9.952   7.741  11.742 -0.0797 -0.3295 -1.2813
  168MOL0     C22579   9.958   7.872  11.696  0.5896  0.4773  0.8414
  168MOL0     O22580  10.060   7.947  11.654 -0.6784  0.4315 -0.2547
  168MOL0     C22581  10.187   7.887  11.695 -0.6616  0.2982  0.4893
  168MOL0     C22582  10.240   7.793  11.567 -0.2381 -0.0877 -0.1678
  168MOL0     C22583  10.214   7.865  11.428 -0.0472  0.3101 -0.2963
  168MOL0     C22584  10.332   7.896  11.338 -0.4714 -0.2646 -0.6826
  168MOL0     C22585  10.320   8.019  11.238  0.9100  0.4758  0.2092
  168MOL0     C22586  10.452   8.033  11.170 -0.4019  0.7409 -0.7203
  168MOL0     C22587  10.462   8.168  11.097 -0.8921  0.2086 -0.4634
  168MOL0     C22588  10.349   8.198  10.994  0.5300  0.2648  1.2064
  168MOL0    Cl22589  10.356   8.078  10.858 -0.4868  0.4217 -0.5506
  168MOL0     C22590   9.831   7.941  11.687  0.7543  1.0325  0.5453
  168MOL0     C22591   9.708   7.877  11.723  0.2943  1.1608  0.4794
  168MOL0     O22592   9.617   7.493  11.767 -0.0225  0.1362  0.6069
  168MOL0     C22593   9.399   7.421  11.900 -0.2721  0.2515  0.2387
  168MOL0     C22594   9.272   7.381  11.949  0.1272  0.2180  1.0142
  168MOL0     N22595   9.298   7.641  12.466  0.6993 -0.4303 -0.2310
  168MOL0     N22596   9.270   7.759  12.509  0.6062 -0.4777  0.6188
  168MOL0     C22597   9.184   8.313  11.653  0.6499 -0.6758 -0.5869
  168MOL0     C22598   9.300   8.263  11.599  0.4454  0.3253 -0.8133
  168MOL0     C22599   9.612   8.132  11.360 -0.2772  0.4263  0.2054
  168MOL0     C22600   9.688   8.190  11.463  1.2351 -0.1183 -0.2839
  168MOL0     C22601   9.818   8.238  11.437 -0.4695 -0.3293 -0.1444
  168MOL0     C22602   9.868   8.243  11.314  0.5075  0.4089  0.4412
  168MOL0     O22603   9.985   8.304  11.279  0.0844  0.3640  0.0739
  168MOL0     C22604  10.060   8.375  11.387 -0.0084  0.3066  0.2878
  168MOL0     C22605  10.205   8.418  11.351 -0.1044 -0.0888  0.2765
  168MOL0     C22606  10.200   8.529  11.247  0.8882 -0.3954  1.1906
  168MOL0     C22607  10.321   8.628  11.245  0.0575 -0.2492  0.4895
  168MOL0     C22608  10.448   8.547  11.228  1.1900 -0.0714 -0.7872
  168MOL0     C22609  10.559   8.491  11.216  0.7316 -0.2543  1.0101
  168MOL0     C22610   9.804   8.169  11.216 -0.3951  0.3190 -0.3461
  168MOL0     C22611   9.672   8.118  11.233 -0.2614  0.5359  0.6152
  168MOL0     C22612   9.606   8.049  11.116  0.2305 -0.2842  0.4944
  168MOL0     H22613   9.214   7.935  11.578  1.0900 -0.3896 -0.6117
  168MOL0     H22614   9.015   8.017  11.657 -0.9217 -1.4279 -0.7598
  168MOL0     H22615   9.002   8.469  11.735  3.0695 -1.6621  0.7092
  168MOL0     H22616   8.828   8.434  11.754  0.0223  0.1026 -0.6279
  168MOL0     H22617   8.879   8.294  11.957 -0.4928 -0.0804 -0.1713
  168MOL0     H22618   8.875   8.463  11.984  1.7558  0.4343  0.6399
  168MOL0     H22619   9.128   8.483  11.970  2.0986 -0.4520  1.1702
  168MOL0     H22620   9.131   8.308  11.941  1.5975  0.1088  2.9610
  168MOL0     H22621   9.152   8.397  12.190  0.4189 -0.9432 -0.5905
  168MOL0     H22622   8.968   8.400  12.176 -2.2452 -1.4854 -3.6584
  168MOL0     H22623   8.972   8.179  12.119 -1.6453  0.3977  0.7939
  168MOL0     H22624   9.146   8.167  12.103 -2.3115 -0.8847 -1.4991
  168MOL0     H22625   9.114   8.241  12.384  1.8358 -0.5783 -1.8219
  168MOL0     H22626   8.979   8.143  12.352 -0.4192 -1.9374 -1.4581
  168MOL0     H22627   9.257   8.034  12.304  0.1027 -2.1648  1.8286
  168MOL0     H22628   9.102   7.988  12.228  0.8837  1.2974 -1.0943
  168MOL0     H22629   9.120   8.003  12.523  3.4891 -0.6099 -0.0625
  168MOL0     H22630   9.004   7.924  12.414 -1.3981  2.4954  0.1218
  168MOL0     H22631   9.052   7.722  12.266  1.6170 -1.8807 -1.8262
  168MOL0     H22632   9.260   7.472  12.188 -2.1901 -0.9027 -1.0684
  168MOL0     H22633   9.252   7.405  12.354 -1.3104  2.7213  4.9959
  168MOL0     H22634   9.010   7.423  12.380  1.5152  1.4896  0.2514
  168MOL0     H22635   8.994   7.521  12.241 -1.0725  0.0992  2.1993
  168MOL0     H22636   8.913   7.273  12.236 -0.7836  0.3755 -1.6282
  168MOL0     H22637   9.083   7.230  12.225 -0.2384 -1.2124 -1.7663
  168MOL0     H22638   8.897   7.302  12.025 -0.2030  1.9802 -0.6217
  168MOL0     H22639   9.054   7.245  12.004 -2.5336 -2.8166  0.7954
  168MOL0     H22640   9.121   7.678  11.929  0.9882  1.7328 -2.2229
  168MOL0     H22641   9.339   7.755  11.853 -3.7990  2.0624  6.5178
  168MOL0     H22642   9.835   7.595  11.856  0.8939  1.1857  1.4337
  168MOL0     H22643  10.051   7.697  11.744  0.1608 -0.2741  4.2251
  168MOL0     H22644  10.252   7.974  11.700 -1.2462  1.1957 -3.5666
  168MOL0     H22645  10.196   7.842  11.794  0.8529  2.9443  1.6418
  168MOL0     H22646  10.340   7.750  11.577  0.7809  1.1091 -3.9744
  168MOL0     H22647  10.162   7.716  11.561  1.5643 -2.2684  2.1508
  168MOL0     H22648  10.146   7.801  11.372  1.8781 -3.3963  1.2205
  168MOL0     H22649  10.173   7.965  11.446 -0.0757  0.5822 -1.7580
  168MOL0     H22650  10.363   7.802  11.291  2.5339 -0.2712  1.0874
  168MOL0     H22651  10.417   7.923  11.401 -0.5436 -0.4861 -0.4901
  168MOL0     H22652  10.300   8.116  11.286 -0.8544  1.3742 -2.1174
  168MOL0     H22653  10.230   8.002  11.178  0.4140 -0.3452  1.1724
  168MOL0     H22654  10.524   8.043  11.252 -0.8152  0.3310 -0.3104
  168MOL0     H22655  10.483   7.948  11.109 -1.3963 -0.4187  0.3486
  168MOL0     H22656  10.557   8.171  11.041  0.9230  0.0525  2.4047
  168MOL0     H22657  10.457   8.250  11.169 -0.8002 -0.9478  0.8853
  168MOL0     H22658  10.258   8.191  11.053  0.9062  1.6245  1.9875
  168MOL0     H22659  10.354   8.303  10.961 -1.1815  0.7840  2.4672
  168MOL0     H22660   9.836   8.047  11.666 -0.8908  0.9102 -0.6118
  168MOL0     H22661   9.610   7.922  11.718  0.8143  2.1790 -1.9180
  168MOL0     H22662   9.480   7.350  11.888  1.1653  1.9480 -0.6111
  168MOL0     H22663   9.250   7.277  11.973 -1.9510 -0.0695 -1.7297
  168MOL0     H22664   9.180   8.422  11.654 -2.3997 -0.6890  0.0812
  168MOL0     H22665   9.383   8.330  11.582  0.9320  0.4214  1.6556
  168MOL0     H22666   9.653   8.197  11.566  1.1216 -0.8688 -0.2689
  168MOL0     H22667   9.873   8.298  11.508 -1.4571  1.3901 -0.7654
  168MOL0     H22668  10.065   8.316  11.479 -1.5473 -1.0869 -0.4680
  168MOL0     H22669   9.993   8.457  11.415 -1.9663 -1.4617  1.0425
  168MOL0     H22670  10.259   8.338  11.300 -0.2172  0.0005  0.0136
  168MOL0     H22671  10.258   8.457  11.438  0.9845  1.6144 -1.0818
  168MOL0     H22672  10.108   8.587  11.263  0.4758 -1.3703  2.5420
  168MOL0     H22673  10.190   8.482  11.149  1.4471 -1.2425  1.5272
  168MOL0     H22674  10.307   8.697  11.162 -2.1319 -0.1108  0.9054
  168MOL0     H22675  10.319   8.679  11.342  1.0743 -0.1176  0.4505
  168MOL0     H22676  10.648   8.433  11.203 -0.1492 -1.3471 -0.5200
  168MOL0     H22677   9.852   8.170  11.118 -0.2281  2.9450 -0.3073
  168MOL0     H22678   9.533   8.122  11.079  1.0934  1.8504  2.7263
  168MOL0     H22679   9.677   8.018  11.038 -0.1771  0.3150 -0.1298
  168MOL0     H22680   9.552   7.962  11.152  1.8726 -0.6732  2.1288
  169MOL0     O22681   8.694   5.475  10.410 -0.3827  0.0264 -0.5238
  169MOL0     C22682   8.765   5.402  10.477  0.4688  0.2954 -0.0664
  169MOL0     O22683   8.767   5.413  10.619  0.1343  0.3394  0.0096
  169MOL0     C22684   8.734   5.539  10.664  0.1135  0.0513  1.1001
  169MOL0     C22685   8.825   5.642  10.653  0.7950  0.1831 -0.0623
  169MOL0     C22686   8.790   5.762  10.728 -0.1004 -0.2045  0.2412
  169MOL0     C22687   8.661   5.789  10.770 -0.4861  0.2694 -0.5845
  169MOL0     O22688   8.649   5.915  10.816  0.0484 -0.0745 -0.4084
  169MOL0     C22689   8.517   5.968  10.840  0.5878 -0.1720 -0.3449
  169MOL0     C22690   8.515   6.094  10.930 -0.3595  0.6164  0.5495
  169MOL0     C22691   8.371   6.151  10.932 -0.7579  0.7451 -0.6149
  169MOL0     C22692   8.268   6.082  11.023 -0.1269  0.0223  0.0514
  169MOL0     C22693   8.122   6.137  11.025 -0.3112  0.3282 -0.8859
  169MOL0     C22694   8.031   6.091  10.911  0.8009 -0.6096  0.7235
  169MOL0     C22695   7.946   6.201  10.860 -0.0369 -0.0960 -0.0673
  169MOL0     C22696   8.013   6.322  10.779  0.2589  0.9801 -0.6447
  169MOL0     N22697   8.068   6.273  10.649 -0.6864 -0.5495 -0.3435
  169MOL0     C22698   7.995   6.276  10.532  0.1725 -0.4713 -0.3555
  169MOL0     C22699   8.074   6.205  10.448 -0.2535 -0.9389 -0.5970
  169MOL0     C22700   8.047   6.187  10.299 -0.0943  0.0270 -0.1937
  169MOL0     C22701   8.132   6.077  10.241  0.0448 -0.2151  0.0263
  169MOL0     C22702   8.105   6.038  10.100 -0.3408  1.0059  0.8950
  169MOL0     C22703   7.965   5.970  10.086 -0.0622 -0.3167 -0.0710
  169MOL0     O22704   7.967   5.844  10.025 -0.0545  0.3558 -0.7062
  169MOL0     C22705   7.962   5.727  10.103 -0.5312 -1.4755  0.0517
  169MOL0     C22706   7.967   5.604  10.041  1.2098  0.3362 -1.6497
  169MOL0     C22707   7.960   5.485  10.108  0.3447  0.8900  1.3460
  169MOL0     C22708   7.953   5.480  10.246 -0.0191 -0.3907 -0.7054
  169MOL0     C22709   7.946   5.353  10.317 -0.2462  0.0444 -0.5152
  169MOL0     O22710   7.905   5.241  10.245  0.2121 -0.4534  0.4387
  169MOL0     C22711   7.891   5.111  10.296 -0.1042 -0.3187 -0.3665
  169MOL0     C22712   7.838   5.085  10.426 -0.4851 -0.6515  0.4508
  169MOL0     C22713   7.808   4.958  10.464  0.0868  1.1499 -0.3124
  169MOL0     C22714   7.833   4.851  10.389 -0.0324 -0.2352  0.7615
  169MOL0     O22715   7.814   4.723  10.429 -0.0965  0.2635  0.1179
  169MOL0     C22716   7.755   4.628  10.337  0.6364  0.1415  0.7691
  169MOL0     C22717   7.859   4.522  10.297 -0.0185 -0.7715 -0.0732
  169MOL0     C22718   7.902   4.434  10.420 -0.7956 -0.3352  0.1201
  169MOL0     C22719   8.001   4.497  10.509 -0.4313  0.2511 -0.2805
  169MOL0     C22720   8.136   4.533  10.440 -1.0948  0.7703  0.0306
  169MOL0     C22721   8.241   4.582  10.536 -0.5351  1.2545  0.7284
  169MOL0     C22722   8.230   4.735  10.549  0.2675 -0.1982  0.8955
  169MOL0     C22723   8.337   4.791  10.648 -0.8831  1.2238  0.3120
  169MOL0    Cl22724   8.271   4.890  10.780 -0.0447 -0.3816 -0.4266
  169MOL0     C22725   7.900   4.872  10.262 -0.5335 -0.4362 -0.7209
  169MOL0     C22726   7.925   5.004  10.216 -0.8478 -0.8960  0.1404
  169MOL0     O22727   7.956   5.352  10.439  0.6680 -0.4083 -0.6229
  169MOL0     C22728   7.961   5.604  10.307  0.4392  0.2067 -0.4542
  169MOL0     C22729   7.956   5.722  10.244 -1.2967 -0.2501  0.0400
  169MOL0     N22730   8.188   6.161  10.515  0.6080 -0.3863 -0.6782
  169MOL0     N22731   8.177   6.189  10.636  1.4036 -1.4433 -0.7705
  169MOL0     C22732   8.568   5.688  10.765  1.1114 -0.5909  0.8726
  169MOL0     C22733   8.601   5.561  10.716 -0.7593 -0.5257 -0.4976
  169MOL0     C22734   8.818   5.275  10.428 -0.0499 -0.0810 -0.0593
  169MOL0     C22735   8.847   5.168  10.522  0.4647 -0.3625 -0.5375
  169MOL0     C22736   8.911   5.049  10.479 -0.1785 -0.0345  1.0124
  169MOL0     C22737   8.932   5.029  10.342 -0.0120 -0.7365  0.1524
  169MOL0     O22738   8.993   4.910  10.323  0.2158 -0.9003 -0.6531
  169MOL0     C22739   8.940   4.816  10.232  0.7496  0.2731 -0.5580
  169MOL0     C22740   8.956   4.672  10.285  0.4321  0.2333 -0.2207
  169MOL0     C22741   8.925   4.556  10.182 -0.1028  0.0332 -0.3690
  169MOL0     C22742   8.890   4.423  10.254 -0.0163 -0.2303 -0.3573
  169MOL0     C22743   8.837   4.323  10.160  0.2508  0.0646 -0.3324
  169MOL0     C22744   8.798   4.235  10.082 -0.7202  0.0529  0.1760
  169MOL0     C22745   8.899   5.131  10.244  0.3693 -0.3225 -0.6856
  169MOL0     C22746   8.846   5.253  10.293 -0.0956 -0.4800  0.2246
  169MOL0     C22747   8.838   5.362  10.192 -1.0131 -0.9296  0.1936
  169MOL0     H22748   8.922   5.619  10.610  0.1701 -0.2411 -1.2882
  169MOL0     H22749   8.869   5.836  10.736  2.0563 -2.2079 -1.2222
  169MOL0     H22750   8.478   5.991  10.740 -3.3027 -1.4411  0.6962
  169MOL0     H22751   8.466   5.896  10.904  4.5227 -0.2121  3.1584
  169MOL0     H22752   8.582   6.168  10.885 -1.2635  0.2004 -1.6010
  169MOL0     H22753   8.541   6.073  11.034  0.1344  0.7996  0.4693
  169MOL0     H22754   8.320   6.142  10.836 -3.2590  2.5292  0.4346
  169MOL0     H22755   8.366   6.257  10.961  0.9616  0.2874  1.6037
  169MOL0     H22756   8.274   5.974  11.004 -1.4028 -0.0824  0.1336
  169MOL0     H22757   8.309   6.105  11.122 -1.5552 -0.2816  0.7427
  169MOL0     H22758   8.087   6.104  11.123  1.7472  0.1955 -0.1505
  169MOL0     H22759   8.145   6.244  11.036  2.1889  0.1865 -3.4689
  169MOL0     H22760   8.084   6.051  10.824 -0.7379 -4.4344  1.3677
  169MOL0     H22761   7.957   6.023  10.953 -0.0569 -0.0019  0.2460
  169MOL0     H22762   7.896   6.236  10.951  2.8398 -1.0267  2.0263
  169MOL0     H22763   7.868   6.165  10.792 -0.5133  0.5693  0.1189
  169MOL0     H22764   7.944   6.406  10.763 -0.3951  0.3040 -1.4852
  169MOL0     H22765   8.093   6.348  10.848  2.8305 -3.0935 -1.7664
  169MOL0     H22766   7.896   6.319  10.521  1.2201  1.6745 -2.1371
  169MOL0     H22767   7.944   6.151  10.292  0.9523 -3.0542 -1.5236
  169MOL0     H22768   8.075   6.282  10.253  1.3724  0.1232  0.8237
  169MOL0     H22769   8.235   6.114  10.244 -0.0689  0.1936 -0.8349
  169MOL0     H22770   8.123   5.984  10.298 -0.1368  0.5573  1.2867
  169MOL0     H22771   8.176   5.959  10.073 -0.3869  1.2390  0.0427
  169MOL0     H22772   8.122   6.129  10.041 -1.5350  0.5084 -0.2747
  169MOL0     H22773   7.908   6.032  10.017  0.5912 -1.1604 -1.4189
  169MOL0     H22774   7.909   5.973  10.181 -1.3885  1.2056 -0.8422
  169MOL0     H22775   7.967   5.599   9.932  0.5413  0.8543 -1.6808
  169MOL0     H22776   7.953   5.394  10.049  1.9994  0.5778  1.5707
  169MOL0     H22777   7.815   5.175  10.484 -1.1504 -0.9497  0.6489
  169MOL0     H22778   7.780   4.936  10.566 -2.7158 -2.9791 -1.7425
  169MOL0     H22779   7.673   4.573  10.383  0.2079 -0.4469 -0.6598
  169MOL0     H22780   7.710   4.676  10.249  1.0168 -1.1605 -0.1584
  169MOL0     H22781   7.814   4.449  10.230  0.3487 -2.4072  1.4055
  169MOL0     H22782   7.947   4.574  10.257  0.5282 -1.6664 -0.0391
  169MOL0     H22783   7.810   4.391  10.461 -0.8430 -1.2549 -0.8963
  169MOL0     H22784   7.960   4.345  10.394  1.8455  1.2691  0.1973
  169MOL0     H22785   8.011   4.419  10.584 -1.4845 -1.4836 -1.8475
  169MOL0     H22786   7.974   4.594  10.553 -0.9217  0.7302 -1.5563
  169MOL0     H22787   8.131   4.610  10.363 -2.5740  0.9012  0.2362
  169MOL0     H22788   8.158   4.439  10.389  1.5194  1.9930 -1.2820
  169MOL0     H22789   8.237   4.528  10.631  1.4331 -2.7106 -1.1973
  169MOL0     H22790   8.337   4.563  10.488 -1.6150  0.9011 -1.4291
  169MOL0     H22791   8.125   4.754  10.576 -0.4967 -1.4485 -1.0286
  169MOL0     H22792   8.231   4.790  10.454 -4.7293 -2.5028 -0.8705
  169MOL0     H22793   8.381   4.704  10.699  0.9690  2.7643  1.4352
  169MOL0     H22794   8.409   4.833  10.578 -1.7327  0.0821 -1.3026
  169MOL0     H22795   7.928   4.790  10.198  0.7515  0.1266 -0.9006
  169MOL0     H22796   7.965   5.025  10.117 -3.0312 -3.1376 -1.3660
  169MOL0     H22797   7.957   5.611  10.415  3.7264 -2.0537 -0.0254
  169MOL0     H22798   7.947   5.817  10.296 -0.2051  0.7074 -1.4244
  169MOL0     H22799   8.463   5.691  10.793  1.1565  1.3347  0.9890
  169MOL0     H22800   8.521   5.489  10.698 -2.0724  0.3590  1.4464
  169MOL0     H22801   8.822   5.184  10.626 -2.2921  3.0451 -1.5311
  169MOL0     H22802   8.936   4.970  10.549 -1.8207 -1.8664 -0.3731
  169MOL0     H22803   8.997   4.839  10.142  0.8796  0.3437 -0.4573
  169MOL0     H22804   8.834   4.843  10.223  0.2827  0.0983  3.0265
  169MOL0     H22805   8.878   4.652  10.358  0.2843 -5.0364 -1.4234
  169MOL0     H22806   9.051   4.647  10.332 -0.2757 -1.2034  0.4807
  169MOL0     H22807   9.008   4.536  10.114 -0.0358 -0.4305 -0.1565
  169MOL0     H22808   8.836   4.590  10.128 -0.6084 -0.6626  0.0179
  169MOL0     H22809   8.981   4.388  10.305 -0.6357  0.2566  1.1457
  169MOL0     H22810   8.819   4.427  10.337 -0.9994  0.4363 -1.2261
  169MOL0     H22811   8.758   4.162  10.015 -4.5450  2.0789 -0.0296
  169MOL0     H22812   8.929   5.124  10.140 -1.0959 -0.7603 -1.1117
  169MOL0     H22813   8.869   5.463  10.221  5.7180 -1.8937 -2.0350
  169MOL0     H22814   8.909   5.343  10.111 -2.4028  0.4966 -1.4350
  169MOL0     H22815   8.732   5.365  10.164 -1.5566  2.9262  1.9715
  170MOL0     O22816   7.797   6.408   7.925 -0.8917  0.2573  0.2110
  170MOL0     C22817   7.789   6.357   7.818  0.9139  1.2089 -0.0455
  170MOL0     O22818   7.672   6.313   7.760  0.2928  0.0954 -0.2786
  170MOL0     C22819   7.557   6.334   7.837 -0.0160  0.3175  0.3174
  170MOL0     C22820   7.463   6.433   7.804 -0.5382  0.5161 -0.3575
  170MOL0     C22821   7.355   6.453   7.890 -0.1973 -0.5814 -0.8817
  170MOL0     C22822   7.333   6.374   8.009  0.6505  0.0094  0.1766
  170MOL0     O22823   7.224   6.397   8.091  0.4216 -0.1394 -0.4351
  170MOL0     C22824   7.174   6.288   8.166 -0.4977  0.2380  0.2229
  170MOL0     C22825   7.033   6.311   8.216 -0.2127  0.0576 -0.4210
  170MOL0     C22826   6.930   6.321   8.105 -0.2677 -0.3431 -0.6429
  170MOL0     C22827   6.807   6.376   8.170  0.6364 -1.6470  0.2213
  170MOL0     C22828   6.692   6.419   8.065  0.5154  0.0749 -0.1577
  170MOL0     C22829   6.557   6.462   8.134  0.5093  0.0482  0.0502
  170MOL0     C22830   6.568   6.599   8.212 -0.1670  0.3339  0.2274
  170MOL0     C22831   6.426   6.632   8.258 -0.0451  0.3758 -0.7818
  170MOL0     N22832   6.341   6.657   8.141 -0.1265  0.6825 -0.9649
  170MOL0     C22833   6.362   6.736   8.031 -0.2760 -0.4321 -1.4792
  170MOL0     C22834   6.254   6.710   7.962 -0.0465 -0.2668 -0.2288
  170MOL0     C22835   6.233   6.761   7.819  0.0061 -0.6777 -0.3287
  170MOL0     C22836   6.147   6.895   7.812 -0.2185 -0.1623  0.2040
  170MOL0     C22837   5.992   6.881   7.836 -0.2169 -0.7468  0.2442
  170MOL0     C22838   5.930   7.025   7.843  0.8164  0.7146 -0.2642
  170MOL0     O22839   5.907   7.073   7.707 -0.2670  0.8899 -0.0244
  170MOL0     C22840   5.797   7.022   7.637  0.0442  0.7343 -0.2543
  170MOL0     C22841   5.708   6.923   7.683  0.1443  0.3540  0.5603
  170MOL0     C22842   5.589   6.883   7.602  0.0522  0.1437 -0.0682
  170MOL0     C22843   5.558   6.954   7.483 -0.1077  0.1229 -0.6466
  170MOL0     C22844   5.456   6.902   7.392  0.3189  0.0452  0.5544
  170MOL0     O22845   5.371   6.822   7.452 -0.1120 -0.2413 -0.1370
  170MOL0     C22846   5.262   6.755   7.401  1.2208 -0.3293 -0.0068
  170MOL0     C22847   5.144   6.741   7.484 -1.1722  0.6068  0.4974
  170MOL0     C22848   5.024   6.712   7.422  0.4549  0.5254 -0.2630
  170MOL0     C22849   5.014   6.676   7.291  0.0357 -1.0784  0.6460
  170MOL0     O22850   4.885   6.676   7.240 -0.6870 -0.1846  0.6819
  170MOL0     C22851   4.862   6.691   7.098  0.7665 -0.6017 -0.6415
  170MOL0     C22852   4.716   6.671   7.058  0.5370  0.1051  0.0734
  170MOL0     C22853   4.700   6.704   6.909 -0.3911  0.2620 -0.4322
  170MOL0     C22854   4.572   6.633   6.847  0.1194 -0.2923 -0.8500
  170MOL0     C22855   4.495   6.701   6.738 -1.1046 -0.6271  0.4628
  170MOL0     C22856   4.576   6.715   6.608  0.2872  0.7144 -1.0928
  170MOL0     C22857   4.490   6.776   6.487 -0.8772 -0.4506 -0.0284
  170MOL0     C22858   4.573   6.798   6.365 -0.5881  0.4505  0.6917
  170MOL0    Cl22859   4.729   6.884   6.384 -0.7971 -0.3337  0.0627
  170MOL0     C22860   5.131   6.682   7.211 -1.4582 -0.6602  0.8623
  170MOL0     C22861   5.257   6.712   7.273  0.0323 -0.4029 -0.4364
  170MOL0     O22862   5.457   6.921   7.266 -0.1838  0.0487  0.0280
  170MOL0     C22863   5.658   7.051   7.443 -0.1887  0.4702  0.2112
  170MOL0     C22864   5.767   7.078   7.515  0.1382  0.7002 -1.3281
  170MOL0     N22865   6.174   6.610   8.015 -1.1650 -1.1622  0.0687
  170MOL0     N22866   6.227   6.583   8.127  0.7784 -0.0507  0.5621
  170MOL0     C22867   7.435   6.276   8.032  0.8278  0.2798  0.5395
  170MOL0     C22868   7.539   6.250   7.945  0.0158 -0.7106  0.3269
  170MOL0     C22869   7.919   6.338   7.760 -0.8192 -0.0165 -0.7170
  170MOL0     C22870   7.992   6.451   7.728 -0.1122 -1.2870  0.6001
  170MOL0     C22871   8.096   6.451   7.631  0.7495 -1.0238  0.1435
  170MOL0     C22872   8.136   6.329   7.581 -0.2622  0.6567 -0.0648
  170MOL0     O22873   8.232   6.342   7.491  1.1126 -0.0020 -0.4844
  170MOL0     C22874   8.229   6.268   7.368  0.0761 -0.0213 -0.1295
  170MOL0     C22875   8.345   6.302   7.275 -1.3711 -0.0793  0.5802
  170MOL0     C22876   8.291   6.299   7.126  0.1310 -0.2748  0.0277
  170MOL0     C22877   8.400   6.326   7.024 -0.4126  0.1267  0.4923
  170MOL0     C22878   8.436   6.467   7.023 -0.4141 -0.2613 -0.0962
  170MOL0     C22879   8.478   6.585   7.032 -0.3098 -0.2804 -0.1916
  170MOL0     C22880   8.077   6.218   7.621 -0.2875 -0.7393 -0.2102
  170MOL0     C22881   7.968   6.218   7.709  0.1197  0.4586 -0.1489
  170MOL0     C22882   7.891   6.087   7.740 -0.1946  0.6656  0.9535
  170MOL0     H22883   7.484   6.486   7.712 -0.0178 -1.9784 -1.7505
  170MOL0     H22884   7.274   6.522   7.864  0.3009  0.4902  0.3348
  170MOL0     H22885   7.174   6.199   8.101  0.5683 -0.0788  0.6336
  170MOL0     H22886   7.246   6.267   8.246 -0.1136  0.7538  0.0187
  170MOL0     H22887   7.035   6.390   8.291  1.6951  0.8997 -1.2915
  170MOL0     H22888   7.001   6.217   8.262 -2.2545  1.3385  0.9193
  170MOL0     H22889   6.911   6.230   8.047 -3.5861  0.5830 -1.2054
  170MOL0     H22890   6.961   6.398   8.033 -0.3983  0.1181 -0.2065
  170MOL0     H22891   6.766   6.308   8.245 -2.7736  1.4580  1.4744
  170MOL0     H22892   6.827   6.472   8.219  1.8361 -1.9670  0.3820
  170MOL0     H22893   6.744   6.494   8.005  0.8482 -0.0658 -0.0476
  170MOL0     H22894   6.674   6.328   8.007 -4.9694 -0.4824  1.8606
  170MOL0     H22895   6.486   6.474   8.051 -1.9744  0.2731  2.1100
  170MOL0     H22896   6.522   6.391   8.209 -0.5632  3.3889  2.9791
  170MOL0     H22897   6.621   6.670   8.147  0.3218 -1.0156 -0.9073
  170MOL0     H22898   6.636   6.580   8.296 -0.7039 -1.1114  0.3715
  170MOL0     H22899   6.398   6.538   8.306  3.8756  0.2394  1.6581
  170MOL0     H22900   6.412   6.711   8.333 -1.3705 -1.2741  0.8125
  170MOL0     H22901   6.445   6.804   8.012 -1.8391  1.8730 -0.4853
  170MOL0     H22902   6.325   6.775   7.761 -0.0234  1.1050 -0.0211
  170MOL0     H22903   6.177   6.683   7.768 -0.7685 -1.3377  1.4311
  170MOL0     H22904   6.188   6.970   7.881  0.2113  1.6382 -1.8978
  170MOL0     H22905   6.157   6.944   7.715 -0.1308 -0.6599 -0.0423
  170MOL0     H22906   5.967   6.831   7.931 -3.0119  0.4513  0.2362
  170MOL0     H22907   5.949   6.834   7.747  3.4113  0.2673 -2.2538
  170MOL0     H22908   5.998   7.092   7.896  1.5275  1.5932 -2.1985
  170MOL0     H22909   5.834   7.017   7.895  0.8406  0.8781 -0.1957
  170MOL0     H22910   5.727   6.876   7.779  3.9253 -4.3269 -2.0205
  170MOL0     H22911   5.528   6.797   7.628 -0.8422  1.1464  1.2723
  170MOL0     H22912   5.135   6.778   7.586 -1.8566 -0.9975  1.0734
  170MOL0     H22913   4.938   6.738   7.482  0.5311  0.0986  0.0298
  170MOL0     H22914   4.891   6.791   7.064 -3.5090  0.9993 -0.2988
  170MOL0     H22915   4.927   6.626   7.040  1.3485  0.1734 -0.8774
  170MOL0     H22916   4.685   6.566   7.069 -0.0855  0.5064  3.0913
  170MOL0     H22917   4.652   6.725   7.128 -2.1904 -4.4934  1.5865
  170MOL0     H22918   4.691   6.813   6.901 -0.3246  0.2839 -0.2069
  170MOL0     H22919   4.795   6.675   6.863  2.7741  0.2169  5.2277
  170MOL0     H22920   4.505   6.621   6.932  0.5140  0.1938 -0.4582
  170MOL0     H22921   4.597   6.531   6.815  2.3329 -1.1951  3.0912
  170MOL0     H22922   4.476   6.805   6.768  0.5992 -0.7632  2.2356
  170MOL0     H22923   4.403   6.643   6.723 -0.4849 -2.2165  2.3284
  170MOL0     H22924   4.664   6.775   6.633  0.3701  0.4667 -0.7808
  170MOL0     H22925   4.620   6.617   6.583 -1.0754  0.0407 -0.9318
  170MOL0     H22926   4.443   6.872   6.510  0.5400  0.7582 -1.9305
  170MOL0     H22927   4.415   6.700   6.461 -2.5405  1.3203 -0.6619
  170MOL0     H22928   4.597   6.700   6.324  2.3892  1.1022  0.6379
  170MOL0     H22929   4.517   6.833   6.278  1.3735 -1.1119 -1.3139
  170MOL0     H22930   5.121   6.676   7.103  0.2437  0.2534  0.6216
  170MOL0     H22931   5.351   6.712   7.218  1.2000 -0.7424  1.4556
  170MOL0     H22932   5.666   7.091   7.342  1.3555 -0.6117 -0.1153
  170MOL0     H22933   5.839   7.152   7.482  3.3966 -1.7959 -0.2784
  170MOL0     H22934   7.434   6.207   8.116 -0.0150  2.0754  2.0882
  170MOL0     H22935   7.602   6.165   7.968 -0.3425 -0.5958  1.8757
  170MOL0     H22936   7.946   6.547   7.749  1.1225 -0.6217  0.3715
  170MOL0     H22937   8.139   6.545   7.598 -0.5892  0.6371  2.7403
  170MOL0     H22938   8.132   6.276   7.319  0.0040 -0.5982 -0.0919
  170MOL0     H22939   8.242   6.161   7.388 -1.7217  0.1823  2.7258
  170MOL0     H22940   8.433   6.238   7.285 -0.3891  1.5453  3.8614
  170MOL0     H22941   8.384   6.401   7.299 -1.9299  0.1475  0.5495
  170MOL0     H22942   8.210   6.370   7.111  0.1582 -0.7971 -3.2181
  170MOL0     H22943   8.246   6.203   7.098 -2.3023  1.2648 -1.7068
  170MOL0     H22944   8.492   6.276   7.055 -1.3172 -0.3569  2.5734
  170MOL0     H22945   8.373   6.293   6.923 -1.4461  3.4968 -0.4552
  170MOL0     H22946   8.500   6.690   7.032 -0.5564 -0.1450  2.6780
  170MOL0     H22947   8.094   6.125   7.568  1.7428  0.0378 -1.0316
  170MOL0     H22948   7.969   6.013   7.763  0.3743  1.5521  1.9249
  170MOL0     H22949   7.828   6.094   7.829  1.7021 -3.2349  2.8703
  170MOL0     H22950   7.822   6.051   7.662  0.4550  2.3309 -0.4543
  171MOL0     O22951   3.383   3.727   2.672 -0.1884  0.1429  0.6534
  171MOL0     C22952   3.364   3.613   2.626  0.8616 -0.7121 -0.5922
  171MOL0     O22953   3.240   3.554   2.629  0.4073 -0.8394 -0.0270
  171MOL0     C22954   3.134   3.633   2.666 -0.5591  1.1388  0.0674
  171MOL0     C22955   3.041   3.661   2.564 -0.3887  0.3514 -0.3368
  171MOL0     C22956   2.927   3.742   2.614  1.1260 -0.4981 -0.2084
  171MOL0     C22957   2.902   3.786   2.741 -0.9904  1.1292 -0.0053
  171MOL0     O22958   2.789   3.859   2.774 -0.7758 -0.2615  0.5806
  171MOL0     C22959   2.782   3.969   2.863 -0.6311  0.0130  0.5619
  171MOL0     C22960   2.823   4.101   2.793  0.3427 -0.2363  0.2623
  171MOL0     C22961   2.824   4.228   2.884  0.0958  0.0634  0.1740
  171MOL0     C22962   2.678   4.274   2.907  0.7444 -0.4199  0.0551
  171MOL0     C22963   2.675   4.396   3.004  0.6098 -0.2106  0.5316
  171MOL0     C22964   2.545   4.480   3.006  0.0834 -0.0809 -0.1610
  171MOL0     C22965   2.493   4.523   2.871 -0.8159 -0.7140 -0.6846
  171MOL0     C22966   2.356   4.587   2.910  0.6963 -0.0951  0.1865
  171MOL0     N22967   2.392   4.718   2.962  0.5717 -0.0103  0.2085
  171MOL0     C22968   2.472   4.807   2.901 -0.9502 -0.6624 -0.1323
  171MOL0     C22969   2.485   4.914   2.977 -0.3060  0.8751  0.6873
  171MOL0     C22970   2.556   5.040   2.935 -0.4947 -0.3414  0.5491
  171MOL0     C22971   2.684   5.021   2.848 -0.0387  0.4778 -0.2829
  171MOL0     C22972   2.786   4.908   2.886 -0.8347 -0.2314  0.5996
  171MOL0     C22973   2.842   4.913   3.031  1.3196  0.6915  0.1776
  171MOL0     O22974   2.967   4.847   3.039  0.0554  0.0195  0.0282
  171MOL0     C22975   3.082   4.901   3.001 -0.3164  0.0191  0.4748
  171MOL0     C22976   3.195   4.816   3.001 -0.5202 -0.0907  0.2759
  171MOL0     C22977   3.331   4.866   2.973 -0.9501  1.3611  0.1655
  171MOL0     C22978   3.340   4.990   2.913  0.1476  0.6472  0.3874
  171MOL0     C22979   3.472   5.046   2.877 -0.3061  1.0827 -0.8826
  171MOL0     O22980   3.475   5.158   2.803  0.2070 -0.4317 -0.2014
  171MOL0     C22981   3.600   5.209   2.772 -0.8932  0.0735  0.1675
  171MOL0     C22982   3.690   5.141   2.695 -0.5300 -0.0281 -0.1005
  171MOL0     C22983   3.815   5.208   2.663  0.2919  0.1944  0.6051
  171MOL0     C22984   3.839   5.338   2.697  0.1602  0.0194 -0.1307
  171MOL0     O22985   3.955   5.401   2.668 -0.3144 -0.3512  0.1175
  171MOL0     C22986   4.066   5.321   2.606 -0.5887  0.0588 -0.6023
  171MOL0     C22987   4.182   5.410   2.606 -0.7887  1.1891  0.5158
  171MOL0     C22988   4.313   5.350   2.551  0.3672  0.1447  0.2014
  171MOL0     C22989   4.411   5.474   2.523  0.9944  1.1788  0.4720
  171MOL0     C22990   4.552   5.436   2.500 -0.2288  1.1352  0.4254
  171MOL0     C22991   4.568   5.356   2.363  0.1555  0.4011 -0.3260
  171MOL0     C22992   4.711   5.342   2.310 -0.1068 -0.8241  0.0845
  171MOL0     C22993   4.760   5.201   2.325 -0.2425 -0.1205 -0.2750
  171MOL0    Cl22994   4.665   5.090   2.211 -0.2826 -0.0112  0.0742
  171MOL0     C22995   3.744   5.401   2.772 -0.7707  0.4338  0.2116
  171MOL0     C22996   3.617   5.348   2.804  0.4148  1.0182  0.5179
  171MOL0     O22997   3.573   4.995   2.924 -0.8774 -0.9341 -0.2594
  171MOL0     C22998   3.225   5.066   2.897  0.2903  0.0784  0.2088
  171MOL0     C22999   3.099   5.023   2.948  0.4347 -0.3141  0.8293
  171MOL0     N23000   2.404   4.893   3.083  0.2399  0.8063  1.3499
  171MOL0     N23001   2.348   4.776   3.073 -0.6692 -0.0068 -0.0470
  171MOL0     C23002   3.000   3.756   2.836 -0.0689  0.4646 -0.0289
  171MOL0     C23003   3.117   3.684   2.799 -0.0057  1.5049  0.3697
  171MOL0     C23004   3.488   3.561   2.554  0.1520  0.0800  0.2193
  171MOL0     C23005   3.591   3.642   2.512 -0.5584  0.0006 -0.0707
  171MOL0     C23006   3.700   3.592   2.449  0.5382  0.0193 -0.1232
  171MOL0     C23007   3.717   3.462   2.407 -0.4509 -0.9606 -0.1396
  171MOL0     O23008   3.829   3.426   2.345 -0.0008 -0.3654 -0.3218
  171MOL0     C23009   3.851   3.291   2.323 -1.2407  0.5825  1.2777
  171MOL0     C23010   3.970   3.301   2.228  0.1762  0.6897  0.0448
  171MOL0     C23011   4.011   3.161   2.182  0.0858 -0.2225 -0.6976
  171MOL0     C23012   4.069   3.070   2.293 -0.3201 -0.0117 -0.1252
  171MOL0     C23013   4.094   2.928   2.259 -0.4228 -0.0475 -0.2838
  171MOL0     C23014   4.112   2.808   2.227  0.1324 -0.2148  0.4387
  171MOL0     C23015   3.611   3.371   2.448  0.0922 -0.4891  0.8754
  171MOL0     C23016   3.499   3.418   2.528 -0.4478  0.2068 -0.1992
  171MOL0     C23017   3.400   3.311   2.571  1.0304  0.1399 -0.1344
  171MOL0     H23018   3.050   3.613   2.467 -0.9651 -2.6498  0.9897
  171MOL0     H23019   2.844   3.768   2.549  2.4481  4.3051 -0.3763
  171MOL0     H23020   2.675   3.975   2.886 -1.2959  1.6436 -2.4485
  171MOL0     H23021   2.839   3.945   2.954 -1.5061  2.0602  1.7313
  171MOL0     H23022   2.758   4.133   2.711  1.6519  1.9854  0.0075
  171MOL0     H23023   2.925   4.093   2.757  1.0615  0.9623  1.9144
  171MOL0     H23024   2.887   4.300   2.830  0.5964 -1.6657 -1.6521
  171MOL0     H23025   2.870   4.206   2.981 -1.9717  0.2763  1.2672
  171MOL0     H23026   2.638   4.300   2.808  0.3725  1.3330  0.6385
  171MOL0     H23027   2.613   4.199   2.952  0.3401 -0.4557 -0.5756
  171MOL0     H23028   2.684   4.360   3.107 -0.3783 -1.5279  0.1806
  171MOL0     H23029   2.760   4.458   2.972 -0.5258  0.8029 -0.6534
  171MOL0     H23030   2.468   4.412   3.045  0.3739  1.0602  2.6582
  171MOL0     H23031   2.561   4.566   3.071  1.8790 -1.0640  0.7666
  171MOL0     H23032   2.484   4.427   2.820  2.3767 -1.7099  0.4394
  171MOL0     H23033   2.571   4.579   2.819  0.8156 -0.7079  1.6047
  171MOL0     H23034   2.289   4.599   2.825  1.0033  1.8026  0.1629
  171MOL0     H23035   2.292   4.534   2.981  0.2095  0.0908 -0.1080
  171MOL0     H23036   2.515   4.795   2.802  0.8726  0.0330  0.5152
  171MOL0     H23037   2.499   5.101   2.865 -0.0164 -0.5839 -0.0591
  171MOL0     H23038   2.568   5.101   3.025 -1.0324 -1.0275  1.0983
  171MOL0     H23039   2.652   5.004   2.745  3.4442  0.0912 -1.4322
  171MOL0     H23040   2.725   5.123   2.844 -3.6590  2.1022 -0.7005
  171MOL0     H23041   2.874   4.903   2.822 -0.1356 -0.4705  1.5574
  171MOL0     H23042   2.737   4.812   2.868 -0.9896 -0.2846  1.2838
  171MOL0     H23043   2.775   4.864   3.102 -0.1451  0.5879 -1.2090
  171MOL0     H23044   2.837   5.016   3.067  0.3867  0.7377 -0.0595
  171MOL0     H23045   3.189   4.721   3.052 -2.6115 -1.2806 -1.9783
  171MOL0     H23046   3.419   4.803   2.987 -1.9073  0.4999  2.6716
  171MOL0     H23047   3.674   5.038   2.665 -0.9649  0.0441 -0.1302
  171MOL0     H23048   3.887   5.137   2.623  1.7745 -0.1887  3.6434
  171MOL0     H23049   4.103   5.237   2.665  3.3317  2.2215  0.3767
  171MOL0     H23050   4.048   5.299   2.500  1.5012 -0.2865 -0.9389
  171MOL0     H23051   4.158   5.505   2.558  1.8128  0.7447 -1.9522
  171MOL0     H23052   4.216   5.435   2.707  4.8647  0.8041 -0.9282
  171MOL0     H23053   4.364   5.285   2.622  1.3712  0.5627 -0.1246
  171MOL0     H23054   4.299   5.289   2.461 -0.9481 -0.3504  0.7115
  171MOL0     H23055   4.403   5.540   2.610 -0.0113  0.2970  1.0654
  171MOL0     H23056   4.387   5.518   2.426 -0.9599 -0.6640  0.0320
  171MOL0     H23057   4.582   5.376   2.586  1.9555  1.9281  0.2563
  171MOL0     H23058   4.611   5.527   2.501  0.7632  0.5382 -0.6434
  171MOL0     H23059   4.523   5.256   2.371 -2.5301  1.6753  2.7584
  171MOL0     H23060   4.506   5.401   2.285 -0.1976  1.3071  0.4571
  171MOL0     H23061   4.786   5.416   2.343 -1.9553 -0.1156  3.0460
  171MOL0     H23062   4.702   5.366   2.204  0.3123 -0.5861  0.1011
  171MOL0     H23063   4.865   5.194   2.293 -0.1697 -1.5143  0.1986
  171MOL0     H23064   4.742   5.159   2.424 -3.4867 -1.2652 -1.2217
  171MOL0     H23065   3.754   5.507   2.795 -1.3817  0.6968 -0.6943
  171MOL0     H23066   3.553   5.388   2.882  0.3076 -0.5136  1.2495
  171MOL0     H23067   3.244   5.166   2.860 -2.3845  0.7115  0.3119
  171MOL0     H23068   3.018   5.095   2.950  0.8494  0.1699  0.2916
  171MOL0     H23069   2.990   3.784   2.940  0.5455 -0.6780  0.3592
  171MOL0     H23070   3.186   3.664   2.880  0.1623 -1.3991 -0.3672
  171MOL0     H23071   3.582   3.749   2.522 -2.0964 -0.1343  0.3484
  171MOL0     H23072   3.777   3.663   2.420 -1.1476  0.8048 -3.1504
  171MOL0     H23073   3.765   3.253   2.267  0.4657  0.3885 -1.3645
  171MOL0     H23074   3.871   3.245   2.420  1.0504  0.4886  0.8173
  171MOL0     H23075   4.055   3.351   2.277  1.6677 -0.8651 -0.8742
  171MOL0     H23076   3.937   3.361   2.143 -0.2597  0.2948 -0.0698
  171MOL0     H23077   4.090   3.170   2.107  1.5043  0.8150  0.8433
  171MOL0     H23078   3.922   3.109   2.144 -0.4630 -0.3113  0.6528
  171MOL0     H23079   4.163   3.113   2.328  1.2520 -1.0371 -2.7819
  171MOL0     H23080   3.990   3.061   2.368  0.3847  0.5645  0.7091
  171MOL0     H23081   4.116   2.704   2.202  1.4495 -0.3515  1.1185
  171MOL0     H23082   3.623   3.264   2.432  3.5217 -0.9055  4.6488
  171MOL0     H23083   3.452   3.215   2.565  1.1271  0.2750 -2.0664
  171MOL0     H23084   3.367   3.329   2.674 -1.5389  2.4411 -1.2264
  171MOL0     H23085   3.314   3.301   2.504  2.0733  2.6920 -2.0141
  172MOL0     O23086   6.349   7.290   6.002  0.0278 -0.3513 -0.2522
  172MOL0     C23087   6.257   7.219   5.971 -0.5242  0.6260 -0.4938
  172MOL0     O23088   6.198   7.135   6.064 -0.0096  0.6726  0.8182
  172MOL0     C23089   6.212   7.175   6.196  0.2857  0.3412 -0.4903
  172MOL0     C23090   6.327   7.178   6.269 -0.3007  0.8843 -0.3719
  172MOL0     C23091   6.332   7.240   6.403  0.5809 -0.3344  0.3208
  172MOL0     C23092   6.212   7.293   6.461  0.3666 -0.0900 -0.2334
  172MOL0     O23093   6.225   7.330   6.592 -0.6962  0.2346  0.0026
  172MOL0     C23094   6.113   7.367   6.667 -0.8738 -0.6830 -0.4216
  172MOL0     C23095   6.173   7.431   6.788 -0.2276  0.4588  0.1701
  172MOL0     C23096   6.258   7.336   6.881 -0.1075 -0.5941  0.8724
  172MOL0     C23097   6.194   7.207   6.919  0.2335  0.6589  0.1771
  172MOL0     C23098   6.107   7.211   7.044 -0.2530  0.4538 -0.9366
  172MOL0     C23099   6.059   7.073   7.063  0.3131  0.4680 -0.0544
  172MOL0     C23100   5.951   7.067   7.177  0.1539  0.4470  0.3954
  172MOL0     C23101   5.925   6.917   7.205  0.8281  0.5124 -0.5626
  172MOL0     N23102   5.875   6.842   7.084  0.2536 -0.0890 -0.1679
  172MOL0     C23103   5.955   6.754   7.020  0.2518 -0.3777  0.5792
  172MOL0     C23104   5.874   6.707   6.920  0.0881 -0.6827  0.1868
  172MOL0     C23105   5.940   6.632   6.801  0.5742 -0.4375 -1.3935
  172MOL0     C23106   5.914   6.484   6.802  0.7702  0.5966  1.1675
  172MOL0     C23107   5.768   6.450   6.796 -0.2592 -0.8934 -0.2685
  172MOL0     C23108   5.754   6.295   6.773 -0.1742  0.2914 -0.4777
  172MOL0     O23109   5.826   6.237   6.668 -0.7760 -0.3356  0.2780
  172MOL0     C23110   5.852   6.103   6.658  0.4685 -0.7073 -0.9175
  172MOL0     C23111   5.790   5.994   6.722  0.0362 -0.6475  0.3916
  172MOL0     C23112   5.824   5.859   6.687  0.2366  0.2423  0.3427
  172MOL0     C23113   5.922   5.839   6.588 -0.0968  0.7061  0.6819
  172MOL0     C23114   5.975   5.702   6.559  0.2778 -0.0172 -1.0370
  172MOL0     O23115   5.903   5.597   6.609  0.5276 -1.1187  0.6497
  172MOL0     C23116   5.943   5.474   6.598 -0.1570  0.8407  0.4841
  172MOL0     C23117   5.841   5.376   6.596 -0.7063 -0.1691  0.6591
  172MOL0     C23118   5.870   5.241   6.573  1.3534  0.1117  0.7160
  172MOL0     C23119   5.998   5.198   6.548 -0.7957 -0.1608 -0.7210
  172MOL0     O23120   6.018   5.066   6.514 -0.6426 -0.0905 -0.1228
  172MOL0     C23121   5.926   4.991   6.438  0.5082 -0.7386 -1.1642
  172MOL0     C23122   6.002   4.866   6.394 -0.3566 -0.4393 -0.3789
  172MOL0     C23123   6.119   4.890   6.290 -0.9129  0.1683 -1.0456
  172MOL0     C23124   6.179   4.759   6.246  0.0579 -0.5522  0.4808
  172MOL0     C23125   6.293   4.789   6.154 -0.8399  0.0596 -0.5190
  172MOL0     C23126   6.352   4.670   6.079 -0.2675  0.1817 -0.4264
  172MOL0     C23127   6.494   4.700   6.028  0.3510  0.1420 -0.8515
  172MOL0     C23128   6.501   4.793   5.897  1.0426  0.7255  0.0558
  172MOL0    Cl23129   6.671   4.802   5.832  0.0161 -0.3825  0.3065
  172MOL0     C23130   6.105   5.288   6.559  0.0550 -0.0054  0.7296
  172MOL0     C23131   6.080   5.422   6.583  0.3083  0.1848  1.1484
  172MOL0     O23132   6.083   5.693   6.508  0.7009 -0.8955  0.1026
  172MOL0     C23133   5.994   5.945   6.530  0.9715 -0.2445 -0.2508
  172MOL0     C23134   5.949   6.077   6.565 -0.1210  0.1638  0.1819
  172MOL0     N23135   5.750   6.761   6.931  0.5414  0.3237 -0.1151
  172MOL0     N23136   5.752   6.840   7.033  0.6196 -0.2374 -1.1430
  172MOL0     C23137   6.092   7.285   6.389  0.5500 -0.9688  0.5237
  172MOL0     C23138   6.095   7.233   6.253 -0.2320 -0.2132  0.8737
  172MOL0     C23139   6.194   7.235   5.846 -1.1449  0.6433 -0.1926
  172MOL0     C23140   6.062   7.188   5.841 -0.1812  0.3996  0.4962
  172MOL0     C23141   5.970   7.209   5.742  0.7260 -0.2792  0.5956
  172MOL0     C23142   6.013   7.283   5.627  0.3148 -0.2061 -0.1087
  172MOL0     O23143   5.936   7.318   5.519 -0.0957  0.0383  0.8759
  172MOL0     C23144   5.800   7.285   5.522  1.0676  0.5057 -0.0700
  172MOL0     C23145   5.738   7.318   5.396  0.7964  0.7472  0.9102
  172MOL0     C23146   5.606   7.241   5.383 -0.2648  0.0184  0.3746
  172MOL0     C23147   5.521   7.302   5.268 -0.0285 -0.1217  0.4004
  172MOL0     C23148   5.562   7.279   5.132 -0.1733  0.4074  0.3372
  172MOL0     C23149   5.602   7.263   5.016 -0.5406 -1.0022 -0.0922
  172MOL0     C23150   6.147   7.331   5.625  0.3657  0.5497  0.0431
  172MOL0     C23151   6.237   7.312   5.735  0.0487 -0.2405 -0.7485
  172MOL0     C23152   6.367   7.380   5.721 -1.4631  0.0069  0.3864
  172MOL0     H23153   6.423   7.134   6.247  0.0122  1.6029 -0.4654
  172MOL0     H23154   6.424   7.251   6.460 -0.1495  2.2364  1.1707
  172MOL0     H23155   6.057   7.442   6.611 -0.4509 -0.4849 -0.5807
  172MOL0     H23156   6.043   7.290   6.700 -0.9474 -0.6807 -0.5718
  172MOL0     H23157   6.102   7.476   6.857  0.2668  1.8309 -0.1901
  172MOL0     H23158   6.235   7.510   6.744  0.2467 -1.4857 -3.0598
  172MOL0     H23159   6.291   7.387   6.972  0.5948  0.0080  0.2932
  172MOL0     H23160   6.347   7.300   6.828 -0.6391 -1.5400  0.5993
  172MOL0     H23161   6.136   7.169   6.834 -1.0067  2.5404  0.1105
  172MOL0     H23162   6.273   7.133   6.934 -0.2282 -0.0273 -0.7170
  172MOL0     H23163   6.161   7.242   7.134  1.1125  2.2134 -2.2883
  172MOL0     H23164   6.027   7.280   7.016 -0.8220  0.2250  0.0835
  172MOL0     H23165   6.008   7.044   6.971 -2.0604  5.0173 -0.4752
  172MOL0     H23166   6.137   7.004   7.095 -2.3931 -1.8739  2.1198
  172MOL0     H23167   5.863   7.120   7.140 -0.7263 -1.9939 -1.2137
  172MOL0     H23168   5.995   7.114   7.266 -1.2745 -0.4354  1.6004
  172MOL0     H23169   6.015   6.859   7.229  2.0808  1.5235 -2.5879
  172MOL0     H23170   5.853   6.895   7.285  2.3907 -2.0339  0.2725
  172MOL0     H23171   6.062   6.735   7.031  0.1509 -0.9393  0.6021
  172MOL0     H23172   5.889   6.674   6.714 -0.4443  2.9658  0.6237
  172MOL0     H23173   6.048   6.645   6.795  1.0058 -1.9211  1.2827
  172MOL0     H23174   5.955   6.446   6.708 -0.6376  0.4949  0.5681
  172MOL0     H23175   5.979   6.438   6.877  2.5369  0.4623 -0.3736
  172MOL0     H23176   5.734   6.485   6.698  1.0421  1.6415  0.1108
  172MOL0     H23177   5.721   6.493   6.885  0.0803 -0.2466 -0.3902
  172MOL0     H23178   5.648   6.282   6.751 -0.5461  2.0085  0.0966
  172MOL0     H23179   5.778   6.239   6.864  0.2145  1.5436  0.2190
  172MOL0     H23180   5.707   6.013   6.789  1.3712  2.4577  1.3624
  172MOL0     H23181   5.793   5.772   6.744  1.5229 -1.6957 -1.7577
  172MOL0     H23182   5.738   5.406   6.612  0.1498  1.9003  2.7561
  172MOL0     H23183   5.796   5.161   6.575  0.0934  1.2535  1.3341
  172MOL0     H23184   5.842   4.959   6.502  0.6413  0.6534 -0.2617
  172MOL0     H23185   5.884   5.039   6.350  2.9748 -0.9353 -2.5220
  172MOL0     H23186   6.039   4.815   6.483 -1.7195  2.3400  1.9160
  172MOL0     H23187   5.922   4.808   6.348 -0.1438  1.9983 -4.3036
  172MOL0     H23188   6.072   4.941   6.205 -1.6983 -1.4449 -1.6125
  172MOL0     H23189   6.188   4.961   6.335 -0.0794 -0.4916 -1.2519
  172MOL0     H23190   6.094   4.709   6.198  0.8440 -1.7901  0.3160
  172MOL0     H23191   6.214   4.693   6.327  0.5842 -1.2239 -0.2802
  172MOL0     H23192   6.368   4.838   6.217  2.0609 -0.1908 -3.5074
  172MOL0     H23193   6.274   4.863   6.076 -4.3727  0.0811  0.2284
  172MOL0     H23194   6.357   4.590   6.152 -0.2254 -0.8312 -1.5081
  172MOL0     H23195   6.289   4.651   5.992  0.6497 -0.5853 -0.9453
  172MOL0     H23196   6.538   4.603   6.002 -4.2384 -1.9852 -1.6646
  172MOL0     H23197   6.556   4.762   6.094  0.7345 -0.5438 -0.5542
  172MOL0     H23198   6.428   4.757   5.824 -0.6679  2.0445  1.0200
  172MOL0     H23199   6.471   4.898   5.909  2.4276  1.2107 -0.4554
  172MOL0     H23200   6.206   5.257   6.537 -0.1241 -0.8759  1.0576
  172MOL0     H23201   6.167   5.487   6.579  0.3563  0.0540 -0.4109
  172MOL0     H23202   6.082   5.928   6.468  0.5526 -1.2193 -0.6020
  172MOL0     H23203   6.002   6.164   6.528  2.0002 -0.1892  2.1765
  172MOL0     H23204   6.003   7.332   6.429 -0.7329 -1.9722 -1.0315
  172MOL0     H23205   6.009   7.248   6.189  1.3952  1.8813 -0.9671
  172MOL0     H23206   6.016   7.152   5.932 -0.7209 -0.6485 -0.1712
  172MOL0     H23207   5.870   7.175   5.765  0.7553 -1.0263 -0.2907
  172MOL0     H23208   5.754   7.333   5.609 -1.8030 -0.8116 -0.7077
  172MOL0     H23209   5.794   7.176   5.532  1.7610  0.4280 -0.4723
  172MOL0     H23210   5.798   7.294   5.308 -0.4273  0.1963  0.1940
  172MOL0     H23211   5.728   7.427   5.391  2.4297  0.8613 -1.1706
  172MOL0     H23212   5.544   7.250   5.473  1.9389 -0.2270  2.0161
  172MOL0     H23213   5.625   7.135   5.362  3.7430  0.3866  1.3666
  172MOL0     H23214   5.418   7.270   5.286 -0.0359  0.0522  0.6879
  172MOL0     H23215   5.506   7.410   5.279 -3.6358 -0.0973 -2.7436
  172MOL0     H23216   5.622   7.230   4.917  0.5748  0.6512 -0.4346
  172MOL0     H23217   6.183   7.386   5.539  1.9235  2.0111  1.5440
  172MOL0     H23218   6.403   7.415   5.624 -1.1757 -2.5842 -0.5050
  172MOL0     H23219   6.369   7.471   5.783  0.8722  1.3292 -1.4617
  172MOL0     H23220   6.443   7.310   5.758 -1.0248  1.3449  2.2208
  173MOL0     O23221  10.293  11.329   6.383 -0.0372  0.2819 -1.6197
  173MOL0     C23222  10.328  11.422   6.464  0.1802 -0.2671 -0.2522
  173MOL0     O23223  10.254  11.472   6.565  0.2254  0.2439  0.1440
  173MOL0     C23224  10.126  11.426   6.579 -0.6640 -0.7673  0.4470
  173MOL0     C23225  10.087  11.300   6.570  0.3832 -0.2197  0.5248
  173MOL0     C23226   9.955  11.267   6.593  0.8972 -0.8111  0.9983
  173MOL0     C23227   9.860  11.360   6.625  0.1401 -0.3807  0.5297
  173MOL0     O23228   9.722  11.320   6.635 -0.4539  0.8620 -0.3973
  173MOL0     C23229   9.628  11.425   6.644  1.1304 -1.2884 -0.5211
  173MOL0     C23230   9.491  11.349   6.689 -0.9533 -0.1361 -0.8922
  173MOL0     C23231   9.519  11.256   6.811  0.0349 -0.3335  0.0353
  173MOL0     C23232   9.387  11.226   6.886 -0.9501  0.1511 -1.3107
  173MOL0     C23233   9.295  11.145   6.787 -0.3112  0.0214  0.2830
  173MOL0     C23234   9.156  11.133   6.846 -0.2023  0.0553 -0.1502
  173MOL0     C23235   9.055  11.061   6.751  0.9585 -0.3982 -0.0367
  173MOL0     C23236   8.910  11.101   6.755  1.1542 -0.0464 -0.2598
  173MOL0     N23237   8.827  11.033   6.652 -0.5949  0.4719  0.7960
  173MOL0     C23238   8.857  10.917   6.587 -0.2105  0.6419  0.0171
  173MOL0     C23239   8.745  10.888   6.518 -0.3720  0.5542  0.7812
  173MOL0     C23240   8.730  10.803   6.393 -1.1901 -0.4707 -0.1854
  173MOL0     C23241   8.731  10.654   6.433  0.1142  0.9150 -0.0605
  173MOL0     C23242   8.599  10.615   6.504 -0.0906  0.0669  0.1707
  173MOL0     C23243   8.596  10.467   6.536  0.5639  0.6674  0.4307
  173MOL0     O23244   8.709  10.422   6.610  0.2052 -0.4347  1.0288
  173MOL0     C23245   8.721  10.279   6.622 -0.4597  1.2098 -0.1935
  173MOL0     C23246   8.611  10.195   6.637 -0.0802  0.9063  1.0164
  173MOL0     C23247   8.638  10.055   6.628  0.7223  0.3944  0.1424
  173MOL0     C23248   8.762   9.998   6.606 -0.1514 -1.3179 -0.5343
  173MOL0     C23249   8.774   9.860   6.576  0.3088  0.2726 -0.0980
  173MOL0     O23250   8.664   9.779   6.598  0.5497  0.4836  0.7169
  173MOL0     C23251   8.673   9.634   6.582 -0.3792 -0.6082 -0.1339
  173MOL0     C23252   8.762   9.567   6.665 -0.4444  0.1441  0.1966
  173MOL0     C23253   8.757   9.428   6.668  0.1222 -0.1014 -0.1436
  173MOL0     C23254   8.674   9.357   6.578 -0.5636 -0.2266 -0.3265
  173MOL0     O23255   8.700   9.227   6.558  0.5342  0.0395  0.0840
  173MOL0     C23256   8.590   9.139   6.530  0.0863  0.2887  0.6066
  173MOL0     C23257   8.617   8.995   6.580  0.4618 -0.3374  0.3412
  173MOL0     C23258   8.723   8.994   6.693  0.0723  0.6378  0.8934
  173MOL0     C23259   8.761   8.849   6.725 -0.0369 -0.8060 -0.0914
  173MOL0     C23260   8.838   8.855   6.866  0.1993 -0.0999  0.7783
  173MOL0     C23261   8.983   8.904   6.847 -0.5401  0.5519  0.0008
  173MOL0     C23262   9.077   8.871   6.971 -0.0096  0.7893  0.5826
  173MOL0     C23263   9.225   8.922   6.952 -1.4586  0.3334 -0.1456
  173MOL0    Cl23264   9.335   8.853   7.065  0.1751  0.6054  0.6563
  173MOL0     C23265   8.583   9.425   6.506 -0.3787 -0.9589  0.4192
  173MOL0     C23266   8.591   9.566   6.491  1.4346  0.2008 -0.0354
  173MOL0     O23267   8.868   9.830   6.514  0.0699 -0.2079  0.0519
  173MOL0     C23268   8.874  10.085   6.613 -0.2480  0.0248  0.9594
  173MOL0     C23269   8.852  10.226   6.630  0.7811  0.0568  1.0154
  173MOL0     N23270   8.649  10.973   6.557 -0.2035  0.2765  0.3501
  173MOL0     N23271   8.695  11.058   6.640  0.2958  1.0159  0.1134
  173MOL0     C23272   9.900  11.491   6.633 -0.3098 -0.9826 -0.0997
  173MOL0     C23273  10.033  11.523   6.612  0.3838 -0.0712 -0.4518
  173MOL0     C23274  10.464  11.484   6.452 -0.1789 -0.4734 -0.3808
  173MOL0     C23275  10.483  11.594   6.535 -0.3990  0.2451  0.3672
  173MOL0     C23276  10.611  11.657   6.540  0.0828  0.0183  0.7457
  173MOL0     C23277  10.713  11.620   6.459  0.1453 -0.2962 -0.2839
  173MOL0     O23278  10.839  11.677   6.438  0.3538 -0.1963 -0.5355
  173MOL0     C23279  10.844  11.823   6.434  0.3958  0.4507 -0.2825
  173MOL0     C23280  10.747  11.892   6.340  0.4624  0.2767 -0.0507
  173MOL0     C23281  10.749  12.037   6.378  1.1638 -0.6993  1.0125
  173MOL0     C23282  10.873  12.116   6.325 -0.1265 -0.2801  0.3844
  173MOL0     C23283  10.852  12.246   6.386 -0.3774  1.0414  0.1715
  173MOL0     C23284  10.828  12.356   6.421 -0.3722  0.1183 -0.5653
  173MOL0     C23285  10.680  11.519   6.361 -0.5292  0.0374 -0.4494
  173MOL0     C23286  10.557  11.446   6.354 -0.1259  0.5828  0.1278
  173MOL0     C23287  10.547  11.350   6.246 -0.0852  0.8008  0.1988
  173MOL0     H23288  10.148  11.223   6.522  0.5807  0.5328 -0.4679
  173MOL0     H23289   9.916  11.166   6.589 -1.7191  0.0578  2.1335
  173MOL0     H23290   9.654  11.505   6.713 -1.3728  1.6968 -2.7353
  173MOL0     H23291   9.623  11.471   6.545  0.7078 -1.7235 -0.7058
  173MOL0     H23292   9.464  11.289   6.602 -1.5086 -1.2271  0.0180
  173MOL0     H23293   9.411  11.419   6.716 -0.4642  0.0344  0.1994
  173MOL0     H23294   9.595  11.311   6.868  0.9983  0.4810 -1.9291
  173MOL0     H23295   9.559  11.164   6.767  1.0105  0.5543 -1.0128
  173MOL0     H23296   9.411  11.163   6.972 -1.3173 -0.6286 -1.7710
  173MOL0     H23297   9.350  11.320   6.928  2.4731  0.7281  0.8261
  173MOL0     H23298   9.281  11.200   6.693 -0.0849 -0.7106 -0.1884
  173MOL0     H23299   9.331  11.047   6.756 -1.4024  0.1733 -1.6320
  173MOL0     H23300   9.154  11.085   6.944  0.1430  2.0521  0.8769
  173MOL0     H23301   9.113  11.233   6.861  0.7336  0.2893  1.1192
  173MOL0     H23302   9.046  10.955   6.776 -1.2224 -0.4186 -0.7536
  173MOL0     H23303   9.091  11.072   6.648 -0.9409  1.2004 -0.5969
  173MOL0     H23304   8.855  11.076   6.846 -0.0830  0.9209 -0.7093
  173MOL0     H23305   8.902  11.210   6.749 -2.5881 -0.2188 -0.6388
  173MOL0     H23306   8.950  10.866   6.561 -1.7357 -2.3593  0.0418
  173MOL0     H23307   8.647  10.843   6.334  0.3759  0.3381 -1.9588
  173MOL0     H23308   8.819  10.808   6.329 -2.4035 -0.5545 -1.9605
  173MOL0     H23309   8.728  10.597   6.339 -4.2451  1.6315 -0.5673
  173MOL0     H23310   8.821  10.634   6.492  0.1613 -0.0884 -0.4469
  173MOL0     H23311   8.517  10.624   6.432 -1.7449 -1.7827  1.6999
  173MOL0     H23312   8.582  10.678   6.592 -2.0635  1.2666 -0.9971
  173MOL0     H23313   8.593  10.412   6.442  3.9600  0.8990  0.0767
  173MOL0     H23314   8.507  10.434   6.590 -1.2949  0.2972 -2.6435
  173MOL0     H23315   8.510  10.234   6.642 -0.2477  0.9509 -1.3797
  173MOL0     H23316   8.551   9.993   6.613  1.8411 -0.8581 -1.4600
  173MOL0     H23317   8.837   9.626   6.715  0.9887 -0.6110 -0.9578
  173MOL0     H23318   8.816   9.381   6.746  1.8192  3.3880  0.8951
  173MOL0     H23319   8.502   9.177   6.582  1.0903  1.1679  1.7188
  173MOL0     H23320   8.571   9.138   6.422  0.9250  2.0612  0.3974
  173MOL0     H23321   8.518   8.965   6.614  0.1881  3.2992  3.4224
  173MOL0     H23322   8.652   8.943   6.490  3.0117  0.8578  0.5592
  173MOL0     H23323   8.808   9.056   6.663 -0.8856  0.9216 -1.4714
  173MOL0     H23324   8.682   9.048   6.778 -3.5806  1.9992 -1.4711
  173MOL0     H23325   8.825   8.810   6.644 -0.6169 -2.3885  0.1698
  173MOL0     H23326   8.679   8.778   6.740 -1.7766  0.0887 -4.0769
  173MOL0     H23327   8.832   8.756   6.911 -0.8688 -0.7525 -0.7419
  173MOL0     H23328   8.779   8.926   6.925  0.0250 -0.1193  0.6237
  173MOL0     H23329   9.041   8.875   6.760 -0.2620 -2.5305  1.0909
  173MOL0     H23330   8.993   9.013   6.853  0.6104  0.5377 -1.2417
  173MOL0     H23331   9.089   8.762   6.975 -3.2322  0.3297  0.6383
  173MOL0     H23332   9.025   8.905   7.061 -2.0166  0.8109 -0.5208
  173MOL0     H23333   9.264   8.901   6.852  0.2648 -4.1457  1.2240
  173MOL0     H23334   9.215   9.030   6.968  3.7175  0.9017  0.9857
  173MOL0     H23335   8.523   9.365   6.438  1.3380 -1.3475 -0.8090
  173MOL0     H23336   8.522   9.616   6.424  1.8285 -1.0907 -1.4659
  173MOL0     H23337   8.974  10.046   6.604  0.1623  1.2450  0.0784
  173MOL0     H23338   8.933  10.298   6.634  1.6463 -0.3243 -3.8200
  173MOL0     H23339   9.829  11.573   6.631 -0.5170 -1.1643 -0.2272
  173MOL0     H23340  10.070  11.624   6.599  0.8565 -0.2943 -0.8633
  173MOL0     H23341  10.405  11.627   6.602 -1.0063 -0.3707 -0.0272
  173MOL0     H23342  10.649  11.732   6.608 -1.2301  2.3652 -0.9310
  173MOL0     H23343  10.944  11.863   6.414 -0.2130  2.0001 -0.3598
  173MOL0     H23344  10.826  11.848   6.540 -0.7072 -5.9229  1.4612
  173MOL0     H23345  10.644  11.861   6.357  0.7454 -0.3514  0.5704
  173MOL0     H23346  10.782  11.881   6.237  4.1591 -0.1584  1.1085
  173MOL0     H23347  10.749  12.046   6.487  1.9132  0.4167  0.9442
  173MOL0     H23348  10.657  12.084   6.343  0.4025 -2.0841  1.0873
  173MOL0     H23349  10.965  12.071   6.364  0.1088  0.2411  0.4410
  173MOL0     H23350  10.867  12.119   6.216  1.6291  0.3700  0.2754
  173MOL0     H23351  10.807  12.460   6.437 -1.6150 -0.4901  2.4729
  173MOL0     H23352  10.754  11.505   6.284  0.0461 -0.2160  0.1422
  173MOL0     H23353  10.455  11.360   6.188  0.6090 -1.2266 -1.3866
  173MOL0     H23354  10.629  11.357   6.174  0.2278 -1.5587  0.2721
  173MOL0     H23355  10.559  11.249   6.285  0.9359  0.8721  0.1132
  174MOL0     O23356   4.567   7.717   1.181 -0.1997  0.4736  0.5371
  174MOL0     C23357   4.469   7.693   1.258 -0.6836  0.2901  0.6351
  174MOL0     O23358   4.341   7.730   1.234 -0.6369  0.4067 -0.1038
  174MOL0     C23359   4.314   7.772   1.102  0.4110  0.1580 -0.3543
  174MOL0     C23360   4.267   7.679   1.014  0.7163 -0.0029  0.0098
  174MOL0     C23361   4.248   7.717   0.876  0.6673 -0.2602  0.4315
  174MOL0     C23362   4.257   7.849   0.839 -0.6936 -1.0994 -0.1422
  174MOL0     O23363   4.254   7.885   0.709  0.4299  1.3615  0.5628
  174MOL0     C23364   4.382   7.871   0.639 -0.4876  0.2694  0.1610
  174MOL0     C23365   4.386   7.745   0.558 -0.7847  0.8933 -0.3722
  174MOL0     C23366   4.271   7.728   0.457  0.7351  0.0150 -0.4654
  174MOL0     C23367   4.283   7.593   0.377  0.0594  0.3028 -0.3648
  174MOL0     C23368   4.161   7.545   0.311  0.0988  0.1012  0.5512
  174MOL0     C23369   4.116   7.646   0.205  0.9487 -0.0692  0.6219
  174MOL0     C23370   4.020   7.603   0.101  0.4975  1.1930  0.8414
  174MOL0     C23371   4.083   7.576  -0.041 -0.2717  0.3829 -0.2957
  174MOL0     N23372   4.213   7.506  -0.030 -0.1597 -0.5115 -0.3800
  174MOL0     C23373   4.233   7.370  -0.001  0.0327 -0.1080  0.3701
  174MOL0     C23374   4.366   7.351  -0.009  1.4324 -0.0814  0.1144
  174MOL0     C23375   4.442   7.232   0.012  1.2642  0.5040 -0.4087
  174MOL0     C23376   4.432   7.146   0.146 -0.1318 -0.2848 -0.5543
  174MOL0     C23377   4.396   7.243   0.276  0.2054  0.6499  0.6490
  174MOL0     C23378   4.412   7.191   0.410 -0.2398  1.0627 -0.7920
  174MOL0     O23379   4.358   7.272   0.513  0.1480  0.0296 -0.3426
  174MOL0     C23380   4.359   7.220   0.647  0.3935  0.9142 -0.6453
  174MOL0     C23381   4.357   7.305   0.762 -0.2500  0.2931 -0.7118
  174MOL0     C23382   4.350   7.265   0.892 -0.3043 -0.4976 -0.2137
  174MOL0     C23383   4.360   7.120   0.922 -0.6727 -0.3290  0.7178
  174MOL0     C23384   4.352   7.073   1.059  0.0979  0.9249 -0.1033
  174MOL0     O23385   4.328   6.938   1.072  0.0426  0.4256  0.6177
  174MOL0     C23386   4.340   6.873   1.197  0.5433  0.8635  0.5213
  174MOL0     C23387   4.356   6.928   1.325 -1.2279 -0.3095 -0.1834
  174MOL0     C23388   4.354   6.844   1.441  0.3513 -0.6556  0.2982
  174MOL0     C23389   4.349   6.704   1.435  1.0201 -0.1004 -0.2102
  174MOL0     O23390   4.329   6.626   1.553 -0.6061 -0.3347 -0.4983
  174MOL0     C23391   4.357   6.486   1.553  0.1683 -0.5646  0.3197
  174MOL0     C23392   4.276   6.413   1.656 -0.4947  1.4895 -0.0755
  174MOL0     C23393   4.331   6.453   1.800 -0.7287  0.1103  1.1386
  174MOL0     C23394   4.228   6.438   1.904  0.7753 -0.6081 -0.2277
  174MOL0     C23395   4.291   6.452   2.038 -0.7060 -0.0974  0.6099
  174MOL0     C23396   4.187   6.444   2.142  0.0060  0.1478  0.1222
  174MOL0     C23397   4.245   6.456   2.274 -0.1469 -0.1655  0.3012
  174MOL0     C23398   4.346   6.346   2.307 -0.6775 -0.3955 -0.0612
  174MOL0    Cl23399   4.291   6.183   2.266  0.2180  0.3645 -0.1481
  174MOL0     C23400   4.342   6.653   1.304  0.0670  0.2177 -0.5512
  174MOL0     C23401   4.336   6.736   1.189 -0.6708  1.2817 -0.4565
  174MOL0     O23402   4.358   7.150   1.150 -0.1468  0.0777 -0.1975
  174MOL0     C23403   4.367   7.030   0.808 -0.5227 -0.3320 -0.1244
  174MOL0     C23404   4.363   7.084   0.679  0.2197 -0.1832 -0.0660
  174MOL0     N23405   4.424   7.472  -0.034  0.0826 -0.1600 -0.4528
  174MOL0     N23406   4.335   7.560  -0.039 -0.6680 -0.5099 -0.1515
  174MOL0     C23407   4.283   7.947   0.937 -0.9464  0.4233  0.3965
  174MOL0     C23408   4.322   7.909   1.065  0.1203  0.2279  0.3259
  174MOL0     C23409   4.514   7.625   1.377  1.2176  0.6321 -0.6833
  174MOL0     C23410   4.640   7.683   1.433 -0.1981 -0.4839  1.4915
  174MOL0     C23411   4.685   7.628   1.557 -0.6320  0.9759  0.2466
  174MOL0     C23412   4.624   7.530   1.633  0.4854 -0.2486 -0.2240
  174MOL0     O23413   4.694   7.490   1.750  0.4892  0.2433 -0.6347
  174MOL0     C23414   4.665   7.360   1.819 -0.3198  0.1890  0.0025
  174MOL0     C23415   4.732   7.244   1.751 -0.0629  0.1720  0.4476
  174MOL0     C23416   4.664   7.182   1.626  0.9117  0.2551 -0.4495
  174MOL0     C23417   4.533   7.111   1.647  0.3119 -0.2352  0.6711
  174MOL0     C23418   4.546   7.010   1.749  0.0674  0.1359  0.1559
  174MOL0     C23419   4.548   6.938   1.850  0.5009 -0.4913 -0.2194
  174MOL0     C23420   4.497   7.491   1.581 -0.0381  0.2661 -0.0696
  174MOL0     C23421   4.438   7.540   1.457 -0.2694 -0.0296 -0.4163
  174MOL0     C23422   4.302   7.500   1.406  0.1775  0.3351 -0.0751
  174MOL0     H23423   4.234   7.582   1.048 -1.6509 -0.3398 -2.7950
  174MOL0     H23424   4.222   7.639   0.805 -2.4304  0.9560  0.1012
  174MOL0     H23425   4.392   7.955   0.570  2.5569 -0.1684 -0.0489
  174MOL0     H23426   4.458   7.866   0.717 -0.5179  2.8423  0.4133
  174MOL0     H23427   4.367   7.677   0.642  0.4481  2.0628  0.9135
  174MOL0     H23428   4.485   7.729   0.515 -0.3071  1.5303  0.4388
  174MOL0     H23429   4.272   7.811   0.386 -1.1162 -0.9741 -1.7609
  174MOL0     H23430   4.176   7.724   0.510  0.9532  1.5042  0.0804
  174MOL0     H23431   4.359   7.603   0.298  0.0922  0.7538 -0.2804
  174MOL0     H23432   4.303   7.508   0.443  2.6180  0.6111 -0.6430
  174MOL0     H23433   4.161   7.443   0.271 -2.8570 -0.0456  0.7182
  174MOL0     H23434   4.077   7.546   0.381  0.2037 -0.6243  0.6983
  174MOL0     H23435   4.062   7.726   0.257 -0.6191  0.4451 -1.6536
  174MOL0     H23436   4.202   7.693   0.155 -0.8683  1.8260 -0.9063
  174MOL0     H23437   3.947   7.685   0.099  0.3226  1.0384 -0.7074
  174MOL0     H23438   3.965   7.517   0.140 -2.6062  2.5432 -0.2731
  174MOL0     H23439   4.015   7.518  -0.103 -3.5724  0.4031  2.9809
  174MOL0     H23440   4.098   7.672  -0.092  0.1583  0.7915  0.5753
  174MOL0     H23441   4.160   7.290   0.009 -0.2795 -0.0522 -1.1938
  174MOL0     H23442   4.436   7.167  -0.075 -2.4146  1.5091 -1.0807
  174MOL0     H23443   4.545   7.269   0.007  0.1909  3.7521 -1.1144
  174MOL0     H23444   4.361   7.063   0.146 -1.1921  0.5547  1.4202
  174MOL0     H23445   4.530   7.099   0.157 -0.4508 -1.0899 -1.0605
  174MOL0     H23446   4.287   7.254   0.269 -0.1390 -1.1089  2.3325
  174MOL0     H23447   4.452   7.337   0.280  2.9482 -0.8019 -0.5816
  174MOL0     H23448   4.518   7.170   0.427 -0.6685 -3.1391 -2.2301
  174MOL0     H23449   4.358   7.097   0.405  0.2368  0.4455  2.9097
  174MOL0     H23450   4.343   7.412   0.758 -3.0983  0.1660  1.7823
  174MOL0     H23451   4.348   7.344   0.966  0.3562 -1.0019  0.3584
  174MOL0     H23452   4.362   7.034   1.347 -0.3921 -0.7748  2.0834
  174MOL0     H23453   4.330   6.898   1.532 -1.4067 -1.8628  0.5999
  174MOL0     H23454   4.338   6.443   1.454 -1.1810  0.4832  0.1000
  174MOL0     H23455   4.463   6.475   1.578 -0.2116 -0.6366  1.9688
  174MOL0     H23456   4.176   6.456   1.648 -1.0242  0.3050  0.1056
  174MOL0     H23457   4.272   6.307   1.630 -1.4352  1.5771 -0.3233
  174MOL0     H23458   4.419   6.390   1.816  1.1852  2.6523  1.1966
  174MOL0     H23459   4.379   6.551   1.812  2.6991 -0.7495 -2.9931
  174MOL0     H23460   4.174   6.343   1.901  1.8307 -1.2150 -2.6173
  174MOL0     H23461   4.151   6.514   1.887  0.4554 -1.0247 -0.6667
  174MOL0     H23462   4.334   6.551   2.054  0.0728 -0.7502  2.8078
  174MOL0     H23463   4.371   6.380   2.052 -1.9050 -1.8169 -0.8474
  174MOL0     H23464   4.111   6.520   2.124 -1.1536 -1.1636 -0.7008
  174MOL0     H23465   4.150   6.341   2.133  0.0500 -0.0277  1.7203
  174MOL0     H23466   4.170   6.449   2.353 -1.3730 -0.7951 -0.8737
  174MOL0     H23467   4.295   6.553   2.281 -0.3120 -0.1115  0.7804
  174MOL0     H23468   4.439   6.359   2.251 -2.3142  4.6225 -2.1277
  174MOL0     H23469   4.372   6.356   2.413 -1.7003  1.3487  0.0587
  174MOL0     H23470   4.320   6.550   1.278 -1.7143  0.8012 -1.5234
  174MOL0     H23471   4.331   6.691   1.091 -3.8764 -0.8806  0.5650
  174MOL0     H23472   4.377   6.922   0.822 -0.9291 -0.2781  0.6581
  174MOL0     H23473   4.373   7.008   0.601  0.7585 -0.0936 -0.0875
  174MOL0     H23474   4.288   8.054   0.918  0.4472 -0.0494 -2.5279
  174MOL0     H23475   4.367   7.984   1.130 -2.7775  1.1777  1.3743
  174MOL0     H23476   4.698   7.769   1.399 -1.0199  0.0030  1.2877
  174MOL0     H23477   4.781   7.672   1.584  0.3923 -0.6808 -0.5303
  174MOL0     H23478   4.560   7.334   1.830  0.2394 -2.0920  0.5126
  174MOL0     H23479   4.714   7.373   1.917  1.8081  0.6329 -1.0559
  174MOL0     H23480   4.750   7.163   1.822  1.8163  1.0146  0.9940
  174MOL0     H23481   4.825   7.278   1.706  0.0400 -2.0176 -1.1908
  174MOL0     H23482   4.735   7.127   1.564 -1.2856 -1.0608 -1.9471
  174MOL0     H23483   4.648   7.269   1.563 -0.3754 -0.7433 -1.5673
  174MOL0     H23484   4.451   7.180   1.667  1.1019  0.5315  1.3305
  174MOL0     H23485   4.508   7.066   1.550 -2.4389  0.9864  0.7257
  174MOL0     H23486   4.535   6.874   1.935  0.5592 -3.1727 -2.0860
  174MOL0     H23487   4.447   7.410   1.633 -1.0595 -0.1520 -1.6359
  174MOL0     H23488   4.221   7.555   1.456  0.7364  0.1909  1.0271
  174MOL0     H23489   4.281   7.501   1.299 -3.8602 -3.0720  0.4106
  174MOL0     H23490   4.287   7.396   1.439  1.6047  0.7724  2.2220
  175MOL0     O23491   0.417   2.302   3.177  0.0879 -0.5507  0.0909
  175MOL0     C23492   0.324   2.383   3.200  0.1142 -0.0172  0.1567
  175MOL0     O23493   0.332   2.492   3.274 -0.4578 -0.2106  0.4289
  175MOL0     C23494   0.441   2.545   3.333 -0.0571  0.1578  0.4362
  175MOL0     C23495   0.406   2.674   3.366 -0.5322 -0.2276  0.0768
  175MOL0     C23496   0.502   2.756   3.432 -0.1972 -0.6739 -0.0996
  175MOL0     C23497   0.636   2.710   3.457  0.2126  0.5655  0.4511
  175MOL0     O23498   0.733   2.797   3.498 -0.5908 -0.0973 -0.7730
  175MOL0     C23499   0.696   2.891   3.605 -0.0071 -0.1235 -0.2587
  175MOL0     C23500   0.826   2.958   3.669  0.5173 -0.1470  0.5822
  175MOL0     C23501   0.937   2.862   3.704 -0.0228  0.3941 -0.3497
  175MOL0     C23502   1.045   2.916   3.795 -0.2624  0.4975  0.8047
  175MOL0     C23503   1.150   2.810   3.806  1.1327  0.3516  0.2370
  175MOL0     C23504   1.252   2.834   3.911 -0.1851 -0.5778  0.5812
  175MOL0     C23505   1.361   2.933   3.865 -0.3778  0.3837  0.1578
  175MOL0     C23506   1.456   2.965   3.988  0.0982 -0.6723  0.3113
  175MOL0     N23507   1.564   3.049   3.940  0.9512  0.2982  0.8141
  175MOL0     C23508   1.614   3.161   4.002  0.2813  0.5423 -0.2215
  175MOL0     C23509   1.740   3.177   3.946  1.3005  0.3201  0.4126
  175MOL0     C23510   1.825   3.287   3.989 -0.1629  0.7581  1.0672
  175MOL0     C23511   1.939   3.234   4.069  0.0269 -0.5100  0.2572
  175MOL0     C23512   1.919   3.232   4.223 -0.1846 -0.8483  0.3308
  175MOL0     C23513   2.051   3.219   4.283  0.8240 -1.0758  0.1800
  175MOL0     O23514   2.025   3.239   4.423 -0.7646 -0.8113 -0.8563
  175MOL0     C23515   2.122   3.200   4.517 -0.4705 -0.2178  0.2765
  175MOL0     C23516   2.252   3.188   4.477  0.1006  0.2940  0.7312
  175MOL0     C23517   2.357   3.159   4.568 -0.3428  0.2970 -0.0912
  175MOL0     C23518   2.328   3.125   4.701 -0.1113  0.8915  0.1266
  175MOL0     C23519   2.440   3.095   4.792 -0.3520  0.0006 -0.0036
  175MOL0     O23520   2.572   3.107   4.743  0.0619 -0.3368 -0.6102
  175MOL0     C23521   2.661   3.090   4.852  0.3395  0.6442  0.6759
  175MOL0     C23522   2.749   3.193   4.877 -0.5048 -0.1322 -0.4899
  175MOL0     C23523   2.846   3.171   4.979 -0.0487 -0.0069  0.2703
  175MOL0     C23524   2.868   3.047   5.042 -0.0133  0.2583  0.2259
  175MOL0     O23525   2.973   3.050   5.134  0.4339  0.4528  1.2160
  175MOL0     C23526   2.984   2.928   5.211 -0.2669 -0.5410 -0.7048
  175MOL0     C23527   3.094   2.964   5.314 -0.2294  0.5413  0.7222
  175MOL0     C23528   3.224   2.965   5.243 -0.6207 -0.2360  0.1616
  175MOL0     C23529   3.338   3.001   5.338 -0.7813 -0.0345 -0.5773
  175MOL0     C23530   3.361   3.150   5.339 -0.4787  0.5457  0.5958
  175MOL0     C23531   3.484   3.185   5.423 -0.5487  0.6900 -0.1058
  175MOL0     C23532   3.505   3.333   5.441 -0.3278  0.1074  0.4957
  175MOL0     C23533   3.647   3.363   5.476  0.7186 -1.5534 -0.9564
  175MOL0    Cl23534   3.750   3.335   5.337  0.3181 -0.0466 -0.4301
  175MOL0     C23535   2.777   2.940   5.009 -0.4730 -0.6062 -1.0208
  175MOL0     C23536   2.680   2.964   4.911  0.0782 -0.1911  1.3198
  175MOL0     O23537   2.407   3.069   4.911  0.0836 -0.6058  0.2339
  175MOL0     C23538   2.185   3.127   4.733 -0.2450 -0.4701 -0.8035
  175MOL0     C23539   2.086   3.173   4.648  0.6915  0.1321 -0.1684
  175MOL0     N23540   1.754   3.082   3.851 -0.6618 -0.0172  0.3054
  175MOL0     N23541   1.659   2.996   3.854  0.6101  0.0996 -0.1780
  175MOL0     C23542   0.668   2.581   3.413 -0.1270  0.3755 -0.0833
  175MOL0     C23543   0.574   2.502   3.357  0.7165  0.4753  1.1412
  175MOL0     C23544   0.191   2.320   3.174 -0.1374 -0.6891  0.1346
  175MOL0     C23545   0.183   2.205   3.089 -0.1477  0.4193 -0.3668
  175MOL0     C23546   0.067   2.153   3.034  0.2866  0.4272 -0.5386
  175MOL0     C23547  -0.048   2.199   3.087 -0.8827  0.4886 -0.8548
  175MOL0     O23548  -0.155   2.144   3.036 -0.2503 -0.1506  0.0038
  175MOL0     C23549  -0.209   2.065   3.148 -0.0827  0.1970 -0.2861
  175MOL0     C23550  -0.268   1.932   3.089  0.5268 -0.7772 -0.4060
  175MOL0     C23551  -0.320   1.832   3.196  0.6998 -0.5067  0.3690
  175MOL0     C23552  -0.431   1.735   3.135  1.0305 -0.2459  0.1554
  175MOL0     C23553  -0.359   1.622   3.072  0.4931  0.1298  0.2980
  175MOL0     C23554  -0.278   1.533   3.039  0.5177  0.1295  0.2334
  175MOL0     C23555  -0.051   2.315   3.174 -0.2951 -0.3029  0.9917
  175MOL0     C23556   0.071   2.374   3.220 -0.4696 -0.8493  0.8844
  175MOL0     C23557   0.053   2.482   3.329 -0.3050  0.3889  0.3987
  175MOL0     H23558   0.303   2.704   3.355 -0.5224  0.2558  1.1421
  175MOL0     H23559   0.474   2.857   3.461  1.3113  0.1419 -1.3847
  175MOL0     H23560   0.628   2.971   3.574  1.6411  1.3893 -0.1607
  175MOL0     H23561   0.649   2.839   3.688  0.0900 -4.4509 -2.6572
  175MOL0     H23562   0.800   3.029   3.749 -1.2890 -1.1018  0.9072
  175MOL0     H23563   0.864   3.014   3.583  1.3054 -1.0852  0.3059
  175MOL0     H23564   0.975   2.832   3.606  2.7167 -1.5070  1.1450
  175MOL0     H23565   0.890   2.779   3.757 -0.7491 -0.1689 -1.8205
  175MOL0     H23566   1.084   3.008   3.751  1.3363 -1.1499 -1.4419
  175MOL0     H23567   1.002   2.943   3.892 -0.6577 -0.1395  0.8104
  175MOL0     H23568   1.102   2.713   3.826  0.5897  0.8337  1.3354
  175MOL0     H23569   1.192   2.812   3.705  0.7393  1.8571  0.0765
  175MOL0     H23570   1.207   2.877   4.001  0.0523  2.1357 -0.4995
  175MOL0     H23571   1.299   2.738   3.938 -1.4911 -0.9309  1.6951
  175MOL0     H23572   1.315   3.017   3.813 -0.6973 -0.1427 -0.4228
  175MOL0     H23573   1.430   2.897   3.788 -1.0775 -1.1426  0.2211
  175MOL0     H23574   1.388   3.009   4.062  0.6457  0.3210  0.2406
  175MOL0     H23575   1.496   2.868   4.018  0.3407 -1.4051 -2.1832
  175MOL0     H23576   1.574   3.214   4.088 -0.1589  2.6517 -1.6520
  175MOL0     H23577   1.862   3.343   3.903 -0.6782  1.2063  1.1315
  175MOL0     H23578   1.760   3.352   4.050 -0.3189  2.3071 -0.6651
  175MOL0     H23579   1.965   3.136   4.030 -3.5708 -1.0930 -1.0757
  175MOL0     H23580   2.013   3.310   4.043 -0.8606  0.7850  1.3404
  175MOL0     H23581   1.857   3.145   4.247 -2.8250  0.6879 -0.4433
  175MOL0     H23582   1.874   3.322   4.267  1.8617  0.1420  0.4998
  175MOL0     H23583   2.121   3.293   4.243 -1.3031  0.9458 -0.0124
  175MOL0     H23584   2.079   3.113   4.271  1.5011 -0.6366 -3.3162
  175MOL0     H23585   2.282   3.207   4.374  4.4524 -0.7691  1.6184
  175MOL0     H23586   2.461   3.173   4.538  0.2980  1.6113  2.5037
  175MOL0     H23587   2.739   3.280   4.813 -1.7787  0.9946  1.1767
  175MOL0     H23588   2.913   3.253   4.998 -0.8540  1.0428 -1.2335
  175MOL0     H23589   2.895   2.911   5.273  1.0602 -2.3222  0.8508
  175MOL0     H23590   3.013   2.832   5.169 -0.3032 -1.4697  1.2482
  175MOL0     H23591   3.083   3.065   5.353 -0.3545  0.8507 -0.1055
  175MOL0     H23592   3.094   2.897   5.401 -0.6415  0.5263  0.7155
  175MOL0     H23593   3.249   2.859   5.231  1.9721  0.2821  0.5268
  175MOL0     H23594   3.221   3.011   5.144  2.0664  0.0694  0.1709
  175MOL0     H23595   3.434   2.957   5.312  1.1759  1.3855  3.3983
  175MOL0     H23596   3.313   2.958   5.436  1.7213 -1.0977 -0.3342
  175MOL0     H23597   3.280   3.203   5.389  0.1045 -0.2313  2.4711
  175MOL0     H23598   3.363   3.181   5.234 -2.2163  0.4370  0.5148
  175MOL0     H23599   3.484   3.137   5.522  3.0699  1.1818  0.2673
  175MOL0     H23600   3.568   3.138   5.371 -0.1471  0.1851  0.9513
  175MOL0     H23601   3.441   3.380   5.516  1.0856  0.5547  1.4520
  175MOL0     H23602   3.483   3.384   5.346  1.0344 -0.4499 -0.1449
  175MOL0     H23603   3.654   3.470   5.496 -0.3374 -1.7395  0.5968
  175MOL0     H23604   3.672   3.307   5.567 -1.2020  1.6295  1.8136
  175MOL0     H23605   2.782   2.845   5.061 -0.7976 -1.4649 -2.4911
  175MOL0     H23606   2.603   2.890   4.889 -0.0862 -0.4640  2.6804
  175MOL0     H23607   2.171   3.089   4.834  0.1976  0.2365 -0.4694
  175MOL0     H23608   1.988   3.168   4.694  0.9003 -1.9175  0.1390
  175MOL0     H23609   0.775   2.563   3.410  0.0190  1.2545 -0.9489
  175MOL0     H23610   0.596   2.404   3.315 -0.3669  0.9209 -0.5672
  175MOL0     H23611   0.273   2.151   3.063 -0.3471 -0.1699  0.1333
  175MOL0     H23612   0.068   2.069   2.965 -0.0267 -1.5669  1.7682
  175MOL0     H23613  -0.284   2.127   3.198 -0.6994  0.5764 -1.6469
  175MOL0     H23614  -0.126   2.042   3.216  1.4999  3.0287 -1.0858
  175MOL0     H23615  -0.185   1.880   3.042  1.2543 -0.8764  0.9534
  175MOL0     H23616  -0.346   1.965   3.019  0.1979  2.4412  1.2691
  175MOL0     H23617  -0.364   1.892   3.277  1.6172  2.5242 -1.2044
  175MOL0     H23618  -0.231   1.782   3.235 -0.3680 -2.5669  0.2834
  175MOL0     H23619  -0.501   1.717   3.217 -0.7627  4.3350 -0.0622
  175MOL0     H23620  -0.490   1.792   3.062  0.4717 -1.6174 -0.4972
  175MOL0     H23621  -0.216   1.454   3.002  1.3065  1.8098 -2.2968
  175MOL0     H23622  -0.151   2.348   3.201 -0.5411  0.2557 -0.5120
  175MOL0     H23623   0.131   2.558   3.335 -1.1850  1.7601 -3.2919
  175MOL0     H23624  -0.037   2.541   3.311 -0.5960  0.9575  3.2638
  175MOL0     H23625   0.032   2.435   3.426 -0.4167  1.2586  0.7995
  176MOL0     O23626   6.763   9.170   9.144  0.1873  0.4583 -0.9848
  176MOL0     C23627   6.853   9.163   9.061  0.0355  0.0130 -0.4088
  176MOL0     O23628   6.966   9.244   9.058  0.6111  0.3366  0.3988
  176MOL0     C23629   6.997   9.310   9.169  0.3549  1.3315  0.0755
  176MOL0     C23630   7.006   9.247   9.295 -0.0477  0.2807 -1.7892
  176MOL0     C23631   7.073   9.301   9.404 -0.1288  0.7015  0.3256
  176MOL0     C23632   7.121   9.434   9.384 -0.0372  1.0434 -0.0044
  176MOL0     O23633   7.175   9.491   9.499  0.3219 -0.0692  0.6606
  176MOL0     C23634   7.222   9.624   9.507 -0.7951 -0.6098  0.8707
  176MOL0     C23635   7.243   9.672   9.651 -0.7586 -0.3570  0.3245
  176MOL0     C23636   7.386   9.694   9.681 -0.4445  0.6067  1.0409
  176MOL0     C23637   7.421   9.720   9.823  0.1637  0.4584 -0.9710
  176MOL0     C23638   7.552   9.798   9.847  0.7931  0.9094 -0.4245
  176MOL0     C23639   7.585   9.820   9.992  0.3600 -0.3474 -0.3796
  176MOL0     C23640   7.718   9.887  10.011 -0.4664  0.5256  0.1465
  176MOL0     C23641   7.764   9.897  10.149  0.2809 -0.3764  0.0613
  176MOL0     N23642   7.851  10.012  10.170  0.6172 -0.2626 -0.3698
  176MOL0     C23643   7.966  10.029  10.102  0.4011  0.7885 -0.4861
  176MOL0     C23644   8.020  10.140  10.154 -0.7646  0.2694 -1.1882
  176MOL0     C23645   8.156  10.201  10.133  0.1903 -0.3929  0.5752
  176MOL0     C23646   8.151  10.348  10.073  0.6086  0.9865 -0.1844
  176MOL0     C23647   8.126  10.463  10.166 -0.2697  0.3305 -0.3065
  176MOL0     C23648   8.236  10.463  10.275 -0.5422  0.0909  0.0475
  176MOL0     O23649   8.269  10.591  10.328 -0.3668 -0.2601  1.0599
  176MOL0     C23650   8.202  10.630  10.439 -0.3126 -0.3299 -0.0681
  176MOL0     C23651   8.077  10.625  10.483  0.2272 -0.3833  0.5160
  176MOL0     C23652   8.029  10.681  10.597 -1.7174 -0.7118  0.3862
  176MOL0     C23653   8.114  10.747  10.687 -0.6248  0.2499 -0.1892
  176MOL0     C23654   8.064  10.798  10.815 -0.0541  0.7503  0.2355
  176MOL0     O23655   7.940  10.840  10.816 -0.0388  0.4095 -0.1088
  176MOL0     C23656   7.878  10.861  10.937 -0.0000 -0.1826  0.7949
  176MOL0     C23657   7.844  10.749  11.022 -0.3707  0.0011 -0.1120
  176MOL0     C23658   7.795  10.764  11.149 -0.1189 -0.0581  1.1542
  176MOL0     C23659   7.757  10.893  11.199 -0.1701 -0.0965  0.2127
  176MOL0     O23660   7.697  10.909  11.327  0.1410  0.6012 -0.5352
  176MOL0     C23661   7.674  10.792  11.409  0.2590  0.8710  0.2257
  176MOL0     C23662   7.617  10.831  11.545  0.5398  0.4616 -0.0958
  176MOL0     C23663   7.503  10.928  11.540  0.0381  0.2151  0.0865
  176MOL0     C23664   7.381  10.865  11.463  1.3700 -0.1653 -0.2491
  176MOL0     C23665   7.242  10.927  11.518 -1.1844 -0.8490  0.4455
  176MOL0     C23666   7.222  11.071  11.466 -0.3188 -0.3363 -0.0417
  176MOL0     C23667   7.098  11.135  11.540  0.4681  0.6826  0.0225
  176MOL0     C23668   7.100  11.279  11.518 -0.2075  0.2811 -0.4930
  176MOL0    Cl23669   7.083  11.337  11.353  0.6205 -0.3445  0.0578
  176MOL0     C23670   7.792  11.008  11.122  0.9340  0.3129  0.0230
  176MOL0     C23671   7.852  10.990  10.990  0.3726  0.4892  0.3359
  176MOL0     O23672   8.143  10.806  10.919 -1.3178 -0.6057  0.2614
  176MOL0     C23673   8.256  10.747  10.654 -0.3253  1.0558  0.0787
  176MOL0     C23674   8.295  10.692  10.529  0.0466  0.6799  1.0540
  176MOL0     N23675   7.941  10.179  10.261  0.4097  0.4406 -0.4010
  176MOL0     N23676   7.843  10.104  10.269  0.4252 -0.1090 -0.4724
  176MOL0     C23677   7.114   9.495   9.255 -0.1163  0.6115  0.0671
  176MOL0     C23678   7.060   9.427   9.151 -0.1667  0.2443 -0.8105
  176MOL0     C23679   6.834   9.079   8.936  0.0318 -1.0172  0.2913
  176MOL0     C23680   6.762   8.961   8.952 -1.2228 -0.9418  0.3630
  176MOL0     C23681   6.715   8.881   8.852 -0.4187  0.8130  0.0662
  176MOL0     C23682   6.742   8.915   8.717 -0.2197  0.3190 -0.3979
  176MOL0     O23683   6.701   8.852   8.602  0.2494  0.4323 -0.2562
  176MOL0     C23684   6.609   8.743   8.614  0.1090  0.6430  0.1826
  176MOL0     C23685   6.686   8.612   8.646  0.8992  0.2176 -0.1468
  176MOL0     C23686   6.603   8.483   8.595 -0.5621 -0.3111 -0.8526
  176MOL0     C23687   6.672   8.356   8.644 -0.1839  0.4226 -0.5074
  176MOL0     C23688   6.623   8.242   8.574  0.0908 -0.4435 -0.0600
  176MOL0     C23689   6.592   8.145   8.513  0.1183  0.1420 -0.5760
  176MOL0     C23690   6.814   9.030   8.698  0.0211 -0.1741 -0.6788
  176MOL0     C23691   6.869   9.117   8.798  0.5723 -0.1614 -0.2706
  176MOL0     C23692   6.953   9.249   8.768 -0.3541 -0.1862 -0.0442
  176MOL0     H23693   6.959   9.152   9.318 -1.4582  1.0916 -1.2112
  176MOL0     H23694   7.089   9.255   9.501  1.0836 -0.3889 -0.3576
  176MOL0     H23695   7.312   9.641   9.446 -1.6752  3.5976  0.4102
  176MOL0     H23696   7.142   9.680   9.458  1.1033 -0.0045 -1.7972
  176MOL0     H23697   7.199   9.598   9.719 -2.0753  0.1754  0.0923
  176MOL0     H23698   7.176   9.756   9.673 -1.2196 -1.5492  4.1053
  176MOL0     H23699   7.414   9.778   9.617 -0.0450 -1.2145 -1.3138
  176MOL0     H23700   7.453   9.618   9.640  0.5845  2.1130 -0.2026
  176MOL0     H23701   7.341   9.784   9.862  3.3638  2.7164  2.6362
  176MOL0     H23702   7.435   9.623   9.870 -0.8991  0.5171 -0.5128
  176MOL0     H23703   7.631   9.737   9.802  0.9586 -1.9909  3.3147
  176MOL0     H23704   7.548   9.897   9.801  0.4169  1.8968  1.6208
  176MOL0     H23705   7.512   9.878  10.049 -2.4731 -1.6567 -2.4277
  176MOL0     H23706   7.578   9.731  10.056 -1.7147  0.3111  0.4074
  176MOL0     H23707   7.701   9.989   9.973  1.3544  0.2514 -1.6151
  176MOL0     H23708   7.800   9.855   9.946 -0.9237 -0.4918  0.0601
  176MOL0     H23709   7.689   9.908  10.228  1.5508  3.4072  0.9243
  176MOL0     H23710   7.804   9.801  10.184 -0.8681 -0.8243  0.1928
  176MOL0     H23711   8.000   9.958  10.027  3.6635  1.4169  0.2420
  176MOL0     H23712   8.203  10.185  10.230  2.8430  0.8119 -0.4430
  176MOL0     H23713   8.220  10.140  10.069 -1.0473 -0.8878 -0.2326
  176MOL0     H23714   8.248  10.360  10.024  1.2333 -2.7555 -0.1493
  176MOL0     H23715   8.071  10.353   9.998 -0.6801 -1.9025  0.8263
  176MOL0     H23716   8.031  10.441  10.217  0.6172 -1.8067  0.5632
  176MOL0     H23717   8.133  10.559  10.115  1.7329 -0.7757 -2.2513
  176MOL0     H23718   8.326  10.428  10.222  0.5363  2.1117  0.4596
  176MOL0     H23719   8.202  10.394  10.353 -0.3580 -1.0179 -0.8281
  176MOL0     H23720   8.012  10.582  10.407  0.6775 -0.4937  0.1921
  176MOL0     H23721   7.922  10.680  10.610 -1.7784  1.5812  0.4992
  176MOL0     H23722   7.853  10.647  10.986 -1.9363  0.1464 -0.9812
  176MOL0     H23723   7.778  10.672  11.205  3.3035  0.9579  4.2937
  176MOL0     H23724   7.603  10.722  11.364 -1.4114 -0.1224  3.9743
  176MOL0     H23725   7.765  10.735  11.428  0.2100  0.4156 -0.8706
  176MOL0     H23726   7.576  10.747  11.603 -1.1629 -1.6692 -3.9447
  176MOL0     H23727   7.696  10.878  11.604  2.1967 -0.5761 -1.4187
  176MOL0     H23728   7.468  10.945  11.642 -1.4839 -1.6298 -0.0704
  176MOL0     H23729   7.531  11.022  11.492  0.1714  0.4837  0.6881
  176MOL0     H23730   7.378  10.755  11.471  0.2086 -0.0476  1.6231
  176MOL0     H23731   7.393  10.892  11.358  0.2745  0.9479 -0.1040
  176MOL0     H23732   7.241  10.920  11.627  2.8785 -0.4692  0.6513
  176MOL0     H23733   7.157  10.885  11.463 -1.5318  0.3926 -0.0009
  176MOL0     H23734   7.315  11.123  11.491 -2.2244  2.9527  0.8162
  176MOL0     H23735   7.197  11.076  11.360  1.3829 -0.1747 -0.4702
  176MOL0     H23736   7.095  11.120  11.648 -1.2894  0.7405  0.0108
  176MOL0     H23737   7.010  11.103  11.483  0.7142  1.7274 -0.9886
  176MOL0     H23738   7.023  11.324  11.581 -1.3644  0.7823 -2.2001
  176MOL0     H23739   7.202  11.314  11.540  0.3026  0.1264 -2.4507
  176MOL0     H23740   7.786  11.107  11.166  2.1020  0.2699  0.3011
  176MOL0     H23741   7.880  11.072  10.924  2.0599 -0.8160 -0.6440
  176MOL0     H23742   8.339  10.779  10.716 -0.0559  2.3821 -0.9147
  176MOL0     H23743   8.402  10.681  10.514 -0.3068 -3.2643  0.5233
  176MOL0     H23744   7.170   9.585   9.236  2.7021  0.3122  5.2039
  176MOL0     H23745   7.054   9.476   9.054  2.1411  0.4495 -0.8881
  176MOL0     H23746   6.723   8.942   9.051 -3.1974 -4.6182 -0.9223
  176MOL0     H23747   6.656   8.797   8.888 -0.6031  0.8526 -0.1410
  176MOL0     H23748   6.568   8.731   8.513 -0.4909  1.5906  0.2967
  176MOL0     H23749   6.518   8.752   8.675 -1.6721 -3.1413 -1.5114
  176MOL0     H23750   6.704   8.593   8.752  1.2790 -1.1224 -0.4311
  176MOL0     H23751   6.782   8.627   8.597 -0.2971  1.2124 -2.3163
  176MOL0     H23752   6.601   8.472   8.486  2.3602 -4.8063 -0.7434
  176MOL0     H23753   6.503   8.487   8.637 -0.3984 -2.4377 -0.1083
  176MOL0     H23754   6.779   8.372   8.628 -0.1671  0.5585 -0.2753
  176MOL0     H23755   6.649   8.338   8.750 -0.2691  3.0928  0.0202
  176MOL0     H23756   6.563   8.064   8.449  0.2500  2.1746 -3.4048
  176MOL0     H23757   6.835   9.060   8.595  1.5426 -1.1127 -0.6702
  176MOL0     H23758   6.961   9.277   8.663  1.9673 -1.9594 -0.4096
  176MOL0     H23759   6.893   9.336   8.800 -0.1937  0.6910 -2.0040
  176MOL0     H23760   7.054   9.248   8.809 -0.5805  1.7982  0.6866
  177MOL0     O23761   7.467   8.911   2.118 -0.7288  0.1313 -0.9026
  177MOL0     C23762   7.528   8.858   2.219 -0.2424  0.1031 -0.1863
  177MOL0     O23763   7.500   8.744   2.280 -0.5321 -0.7405  0.4330
  177MOL0     C23764   7.407   8.657   2.226  0.2135 -0.2035  0.0905
  177MOL0     C23765   7.443   8.525   2.207  0.3709  0.6461 -0.2428
  177MOL0     C23766   7.342   8.441   2.168  0.4989  0.7276  0.2705
  177MOL0     C23767   7.206   8.483   2.164  0.4831  0.0857  0.0921
  177MOL0     O23768   7.135   8.371   2.132  0.2352  0.0985 -0.5762
  177MOL0     C23769   6.989   8.373   2.141  0.1805  0.2336  0.2553
  177MOL0     C23770   6.930   8.377   2.283  0.5014 -0.1903 -0.5356
  177MOL0     C23771   6.903   8.234   2.342  0.1407  0.0221 -0.4834
  177MOL0     C23772   6.831   8.237   2.477  0.8998 -0.1783  0.3900
  177MOL0     C23773   6.910   8.280   2.599 -0.4327 -0.0683  0.3295
  177MOL0     C23774   6.840   8.257   2.732  0.3892 -0.6373  0.3968
  177MOL0     C23775   6.755   8.372   2.789  0.5363 -0.0066  1.1007
  177MOL0     C23776   6.679   8.321   2.914  0.2654 -0.1607 -0.0605
  177MOL0     N23777   6.546   8.386   2.924 -1.1489  0.2460 -0.1650
  177MOL0     C23778   6.517   8.510   2.957 -0.3553 -0.0178 -0.1975
  177MOL0     C23779   6.389   8.535   2.922 -0.3953  1.2634  0.4952
  177MOL0     C23780   6.326   8.669   2.919 -0.7533 -0.1086  0.0421
  177MOL0     C23781   6.192   8.672   3.002  0.3293  0.6403 -0.8746
  177MOL0     C23782   6.105   8.785   2.945 -0.6504 -0.7633 -0.4560
  177MOL0     C23783   6.156   8.928   2.974  0.3288 -0.1574  0.6187
  177MOL0     O23784   6.208   8.950   3.107  0.0609  0.4126 -0.7172
  177MOL0     C23785   6.140   9.023   3.195 -0.2106  0.6014 -0.1524
  177MOL0     C23786   6.199   9.134   3.259  0.1237  0.8418 -0.4576
  177MOL0     C23787   6.125   9.202   3.349  0.2604 -0.4467 -0.6458
  177MOL0     C23788   5.993   9.169   3.389  0.2696  0.8179  0.5497
  177MOL0     C23789   5.920   9.252   3.486 -0.5884  0.6876 -0.4692
  177MOL0     O23790   5.977   9.375   3.514  0.6663  0.6898  0.8833
  177MOL0     C23791   5.922   9.472   3.595  0.4480  0.2414 -1.1265
  177MOL0     C23792   5.985   9.505   3.715  0.3246  0.2286 -0.4625
  177MOL0     C23793   5.932   9.606   3.796 -0.0408  0.2651 -0.4586
  177MOL0     C23794   5.819   9.679   3.759  0.5061  0.6913 -0.2659
  177MOL0     O23795   5.778   9.784   3.843  0.5936 -0.5224 -0.1703
  177MOL0     C23796   5.657   9.861   3.815  0.9140  0.8787  0.3637
  177MOL0     C23797   5.691   9.980   3.718 -0.1181  0.5839  0.3947
  177MOL0     C23798   5.583  10.077   3.686  0.3668  0.1262  0.4627
  177MOL0     C23799   5.513  10.148   3.800 -0.2730 -0.3008 -0.8733
  177MOL0     C23800   5.379  10.232   3.760 -0.0067 -0.0247 -0.3720
  177MOL0     C23801   5.400  10.339   3.650 -0.1934  0.8024  0.8770
  177MOL0     C23802   5.525  10.428   3.654 -0.3450 -0.9821 -0.1065
  177MOL0     C23803   5.486  10.574   3.607 -0.0609  0.8780 -0.1184
  177MOL0    Cl23804   5.461  10.560   3.437  0.0641  0.1082 -0.0562
  177MOL0     C23805   5.757   9.646   3.642 -0.0160 -0.4614  0.0819
  177MOL0     C23806   5.805   9.531   3.558  0.0549  0.1248 -0.4615
  177MOL0     O23807   5.821   9.204   3.540 -0.5306  0.4578  0.1961
  177MOL0     C23808   5.935   9.060   3.324  0.2238  0.2164  0.2590
  177MOL0     C23809   6.007   8.980   3.230 -1.0334 -0.2923 -0.3375
  177MOL0     N23810   6.343   8.415   2.869 -0.3598  0.2656  0.0877
  177MOL0     N23811   6.437   8.329   2.880 -0.1380 -1.1204  0.2837
  177MOL0     C23812   7.177   8.620   2.176 -0.6561  0.8160  0.1911
  177MOL0     C23813   7.275   8.706   2.219  0.2883 -0.0741  0.1349
  177MOL0     C23814   7.639   8.942   2.275  0.3484 -0.0287  0.0124
  177MOL0     C23815   7.761   8.878   2.313 -0.3585 -0.4784  0.5191
  177MOL0     C23816   7.872   8.956   2.366 -0.1012 -0.1934  0.1822
  177MOL0     C23817   7.870   9.085   2.371 -0.3501 -0.3582 -0.1583
  177MOL0     O23818   7.976   9.155   2.427 -0.6347  0.2675 -0.4491
  177MOL0     C23819   7.943   9.289   2.475  0.2288  0.4411  0.6331
  177MOL0     C23820   8.059   9.360   2.548 -0.1931  0.1495  0.6613
  177MOL0     C23821   8.127   9.456   2.442 -0.6554 -0.1050 -0.5880
  177MOL0     C23822   8.244   9.538   2.508 -0.8943  0.3821  0.1772
  177MOL0     C23823   8.370   9.476   2.529  0.1526  0.3368  0.4224
  177MOL0     C23824   8.475   9.409   2.544 -0.0495 -0.5793 -0.3970
  177MOL0     C23825   7.753   9.148   2.335  0.4799 -0.3164  0.0906
  177MOL0     C23826   7.630   9.081   2.298 -0.2204 -0.0738 -0.0155
  177MOL0     C23827   7.503   9.153   2.286 -0.5573 -0.6950  0.6974
  177MOL0     H23828   7.542   8.482   2.224 -1.0701 -3.5756 -1.2591
  177MOL0     H23829   7.361   8.337   2.147 -0.7616  0.7432 -1.0810
  177MOL0     H23830   6.954   8.455   2.077  3.9879  1.3062 -0.7186
  177MOL0     H23831   6.964   8.277   2.094 -0.2337  1.5708 -2.4716
  177MOL0     H23832   6.838   8.436   2.285  1.5375  1.6067  2.8253
  177MOL0     H23833   6.992   8.435   2.352 -0.5230 -0.5911  0.7609
  177MOL0     H23834   6.998   8.181   2.347  2.8861  4.2690 -2.0008
  177MOL0     H23835   6.844   8.175   2.271 -0.4252  1.3353 -1.1385
  177MOL0     H23836   6.747   8.306   2.461  0.9092 -0.9196 -3.9361
  177MOL0     H23837   6.785   8.142   2.505  0.1612 -0.6649 -2.1965
  177MOL0     H23838   7.005   8.228   2.619  1.2847  2.9751  0.7205
  177MOL0     H23839   6.944   8.383   2.587  1.3729 -0.8318 -1.9664
  177MOL0     H23840   6.756   8.190   2.712 -0.9562  1.7421 -2.7296
  177MOL0     H23841   6.905   8.206   2.804 -1.7977 -0.6374  2.4746
  177MOL0     H23842   6.684   8.407   2.713  2.0522  1.0481  0.0964
  177MOL0     H23843   6.817   8.451   2.832 -1.3313  1.4162  1.3062
  177MOL0     H23844   6.659   8.214   2.909  0.4415 -0.2222  0.4696
  177MOL0     H23845   6.738   8.335   3.006 -0.5205  0.3828  0.3708
  177MOL0     H23846   6.586   8.584   2.997 -1.2453  1.5473 -1.4231
  177MOL0     H23847   6.393   8.746   2.957 -0.4405  0.7745 -2.1467
  177MOL0     H23848   6.308   8.691   2.813 -2.5801  2.8944  0.8485
  177MOL0     H23849   6.142   8.578   2.975 -2.8776  2.2926 -1.2429
  177MOL0     H23850   6.205   8.681   3.110  3.4041 -0.3694 -1.0744
  177MOL0     H23851   6.007   8.781   2.995 -1.5622 -1.4814 -2.2283
  177MOL0     H23852   6.095   8.775   2.837 -2.5612 -0.3117 -0.3498
  177MOL0     H23853   6.070   8.995   2.964 -0.0351 -0.4683  1.5977
  177MOL0     H23854   6.233   8.950   2.899  0.6135 -0.5475  0.7994
  177MOL0     H23855   6.305   9.150   3.243  0.5483 -2.5557 -1.8930
  177MOL0     H23856   6.175   9.288   3.394 -2.1417  0.1967  1.0291
  177MOL0     H23857   6.069   9.445   3.750  0.1070  0.1843 -0.0087
  177MOL0     H23858   5.974   9.633   3.893 -1.8762  1.5479  0.0297
  177MOL0     H23859   5.578   9.800   3.771  0.9412 -2.6041  4.4616
  177MOL0     H23860   5.610   9.904   3.903  0.8084  1.9932 -0.2208
  177MOL0     H23861   5.777  10.028   3.767  1.7642 -1.5170 -0.6349
  177MOL0     H23862   5.721   9.942   3.620  0.0311  1.7560 -0.0267
  177MOL0     H23863   5.621  10.151   3.614  2.0776  0.0373  1.2305
  177MOL0     H23864   5.502  10.025   3.634 -1.8266  3.2034  0.5085
  177MOL0     H23865   5.576  10.218   3.855 -3.4034  2.6606 -0.6861
  177MOL0     H23866   5.470  10.078   3.873 -0.3754  1.4584  0.8285
  177MOL0     H23867   5.350  10.274   3.856 -1.5398  0.4276 -1.0095
  177MOL0     H23868   5.302  10.163   3.725  0.5914  0.1156 -2.0729
  177MOL0     H23869   5.398  10.287   3.553 -1.1189 -0.4413  1.5429
  177MOL0     H23870   5.311  10.402   3.656  0.4312  1.6030  5.5631
  177MOL0     H23871   5.605  10.383   3.596 -0.9271 -2.6271  0.3165
  177MOL0     H23872   5.550  10.447   3.759  1.6496  0.2293 -0.7501
  177MOL0     H23873   5.398  10.614   3.657 -2.4026 -2.9897 -0.7184
  177MOL0     H23874   5.574  10.635   3.631  2.3028 -2.3226  0.0401
  177MOL0     H23875   5.665   9.701   3.619  1.0168  2.6061  2.5762
  177MOL0     H23876   5.760   9.492   3.467 -0.4178 -2.5056  0.8219
  177MOL0     H23877   5.829   9.043   3.340 -0.0876  0.6685 -1.1133
  177MOL0     H23878   5.965   8.892   3.182  1.7108 -0.3734 -2.8246
  177MOL0     H23879   7.076   8.653   2.152 -0.6634 -0.1741 -1.2405
  177MOL0     H23880   7.254   8.810   2.240  0.2082 -0.3776  1.6567
  177MOL0     H23881   7.768   8.770   2.300  2.1347 -0.4167  0.7711
  177MOL0     H23882   7.953   8.895   2.406 -2.0086 -1.8547  1.7421
  177MOL0     H23883   7.867   9.274   2.552  1.9103 -4.0763  1.7174
  177MOL0     H23884   7.917   9.358   2.394 -1.6743  0.5080  1.2536
  177MOL0     H23885   8.147   9.308   2.586  1.4381  1.5823 -0.9376
  177MOL0     H23886   8.024   9.415   2.635 -1.3460  0.3289  0.0990
  177MOL0     H23887   8.060   9.531   2.398 -1.3367 -0.6421 -0.4829
  177MOL0     H23888   8.168   9.401   2.357 -1.3634  0.4217 -1.2805
  177MOL0     H23889   8.257   9.638   2.465 -0.1464  1.7849  3.3649
  177MOL0     H23890   8.207   9.553   2.610  3.2631  1.1408  1.7409
  177MOL0     H23891   8.569   9.359   2.558  1.4818  1.8412 -1.3707
  177MOL0     H23892   7.735   9.255   2.335 -3.4359 -0.8112 -0.1919
  177MOL0     H23893   7.508   9.197   2.186  2.9648  0.1148  1.1158
  177MOL0     H23894   7.412   9.093   2.298 -1.1620 -0.0759 -0.5856
  177MOL0     H23895   7.497   9.234   2.360  3.0212 -0.1164  0.5421
  178MOL0     O23896  10.109   5.924   9.942 -0.0655  0.0443 -0.1788
  178MOL0     C23897  10.223   5.871   9.937  0.4346 -0.8865 -0.0533
  178MOL0     O23898  10.338   5.935   9.960 -0.2209  1.0639 -0.2611
  178MOL0     C23899  10.342   6.055  10.019 -0.2937 -0.0267 -1.0741
  178MOL0     C23900  10.269   6.088  10.128 -0.9196 -0.5346 -0.4644
  178MOL0     C23901  10.272   6.214  10.182 -0.1479 -0.4246  1.0355
  178MOL0     C23902  10.357   6.319  10.129  0.1481 -0.4603  0.9832
  178MOL0     O23903  10.360   6.457  10.174  0.3045 -0.7027 -0.6456
  178MOL0     C23904  10.249   6.526  10.238  0.1416 -0.2042 -0.4960
  178MOL0     C23905  10.251   6.674  10.193 -0.1777  0.2894  0.8355
  178MOL0     C23906  10.135   6.753  10.264  0.3126  0.0071  0.3503
  178MOL0     C23907  10.007   6.772  10.182  0.0778 -0.7596 -0.7296
  178MOL0     C23908   9.913   6.652  10.181 -0.1641  0.0658 -0.0213
  178MOL0     C23909   9.847   6.626  10.320 -0.3491  0.0990 -0.3642
  178MOL0     C23910   9.721   6.530  10.299 -0.7057 -0.9224  0.0335
  178MOL0     C23911   9.774   6.386  10.265  1.1455  0.3822 -0.4459
  178MOL0     N23912   9.863   6.329  10.365 -0.6737 -0.2703  0.2843
  178MOL0     C23913   9.816   6.246  10.470  0.3052  0.5282  0.5221
  178MOL0     C23914   9.915   6.214  10.546 -0.3101  0.0994 -0.7999
  178MOL0     C23915   9.904   6.127  10.668 -0.1058  0.9021 -0.7436
  178MOL0     C23916   9.875   6.206  10.798 -0.1033 -0.0082 -1.3987
  178MOL0     C23917   9.970   6.179  10.915  0.3989 -0.6230 -0.3089
  178MOL0     C23918  10.099   6.257  10.898 -0.4871 -0.3595 -0.4875
  178MOL0     O23919  10.102   6.399  10.891  0.5909 -0.8804 -0.3485
  178MOL0     C23920  10.129   6.472  11.003  0.1354 -0.4963  1.4561
  178MOL0     C23921  10.105   6.428  11.126 -0.6841  0.1086 -0.2539
  178MOL0     C23922  10.130   6.513  11.237  0.1771 -0.1104 -0.9543
  178MOL0     C23923  10.162   6.654  11.221 -0.2998 -0.1291  0.1282
  178MOL0     C23924  10.168   6.741  11.335  0.2967  0.2434 -0.8548
  178MOL0     O23925  10.175   6.684  11.462 -0.2180 -0.8339 -0.3371
  178MOL0     C23926  10.222   6.759  11.563  0.2867  0.0970 -0.0596
  178MOL0     C23927  10.358   6.776  11.604 -1.3275 -0.1857 -0.5222
  178MOL0     C23928  10.394   6.856  11.713  0.8105 -0.5724  0.2334
  178MOL0     C23929  10.306   6.934  11.773 -0.0351  0.3866  0.0363
  178MOL0     O23930  10.353   7.032  11.859  0.5586  0.5311  1.0141
  178MOL0     C23931  10.344   6.981  11.984  0.6316  0.4666 -0.2174
  178MOL0     C23932  10.393   7.094  12.078 -0.1985  0.6991 -0.0161
  178MOL0     C23933  10.383   7.060  12.220  0.2207  0.4382 -0.9032
  178MOL0     C23934  10.427   7.164  12.312  0.1336 -0.0584  0.0365
  178MOL0     C23935  10.374   7.141  12.456  0.3323  0.1111  0.1404
  178MOL0     C23936  10.447   7.026  12.540 -1.0445 -0.2888  0.3381
  178MOL0     C23937  10.435   7.035  12.694  0.5576  0.2338 -0.0391
  178MOL0     C23938  10.286   7.036  12.733  0.0457 -0.7330  1.0469
  178MOL0    Cl23939  10.275   7.041  12.914  0.2116  0.3066  0.6494
  178MOL0     C23940  10.170   6.912  11.752 -0.2463 -0.1476  0.9810
  178MOL0     C23941  10.127   6.834  11.643  0.5554  0.3214  0.0703
  178MOL0     O23942  10.167   6.865  11.318  0.1487 -0.1264  0.2364
  178MOL0     C23943  10.164   6.702  11.088  0.1329  0.6855 -0.0467
  178MOL0     C23944  10.163   6.603  10.993 -0.1094 -0.5591 -0.7171
  178MOL0     N23945  10.025   6.266  10.484 -1.1088  1.2789 -0.2966
  178MOL0     N23946   9.993   6.333  10.373 -0.1853 -0.1146  0.0007
  178MOL0     C23947  10.439   6.281  10.023 -0.6519 -0.2200 -0.0813
  178MOL0     C23948  10.429   6.155   9.961 -0.3774  0.0685 -0.1888
  178MOL0     C23949  10.233   5.721   9.925  0.1513  0.3189  1.0994
  178MOL0     C23950  10.353   5.651   9.963  0.5423  0.1049 -0.4602
  178MOL0     C23951  10.363   5.516   9.958  0.4812  0.3575 -0.6957
  178MOL0     C23952  10.256   5.440   9.914  0.0388  0.1706  0.1583
  178MOL0     O23953  10.250   5.303   9.912  0.1108 -0.0212 -0.0541
  178MOL0     C23954  10.354   5.222   9.930 -0.6160 -0.1827 -0.1685
  178MOL0     C23955  10.307   5.073   9.909 -0.2940 -0.2331  0.7396
  178MOL0     C23956  10.414   4.984   9.853  0.0722 -0.0224 -0.0856
  178MOL0     C23957  10.378   4.824   9.853  0.0417  0.5402 -0.9173
  178MOL0     C23958  10.494   4.731   9.873 -0.2244  0.4513 -0.7241
  178MOL0     C23959  10.588   4.647   9.876 -0.6185  0.7280  0.3043
  178MOL0     C23960  10.148   5.497   9.852  0.0376  0.6706 -1.0613
  178MOL0     C23961  10.130   5.637   9.867  0.1299  0.0658  0.2309
  178MOL0     C23962   9.999   5.699   9.807 -0.1182  0.2446 -0.0758
  178MOL0     H23963  10.228   6.008  10.189 -2.9471  2.5069  2.4967
  178MOL0     H23964  10.207   6.236  10.266 -0.9669 -1.6065  0.7392
  178MOL0     H23965  10.153   6.479  10.217  0.1084 -2.7171  4.0996
  178MOL0     H23966  10.258   6.522  10.347 -0.4678 -1.6311 -0.4893
  178MOL0     H23967  10.233   6.679  10.085  0.0780  2.7756  0.8691
  178MOL0     H23968  10.343   6.726  10.220  0.8409 -0.9911 -0.0010
  178MOL0     H23969  10.183   6.852  10.269  2.6958 -1.1053  1.2356
  178MOL0     H23970  10.120   6.712  10.364 -0.9121  0.0379  0.1832
  178MOL0     H23971   9.954   6.860  10.221 -1.7443 -2.6593  1.3678
  178MOL0     H23972  10.025   6.802  10.079 -0.1631 -0.7306 -0.7644
  178MOL0     H23973   9.845   6.665  10.096  1.2612  0.1756 -1.1831
  178MOL0     H23974   9.968   6.562  10.153  2.2465  0.6664  2.3733
  178MOL0     H23975   9.914   6.579  10.392 -1.6867  1.0419  1.5528
  178MOL0     H23976   9.832   6.730  10.349  2.3773 -0.3668  3.3828
  178MOL0     H23977   9.650   6.564  10.223 -3.1110 -1.0126  2.1066
  178MOL0     H23978   9.666   6.517  10.393 -0.4767 -4.0167 -0.1319
  178MOL0     H23979   9.687   6.320  10.266  1.9573 -0.7171 -0.7626
  178MOL0     H23980   9.808   6.373  10.162  0.4461 -0.0301 -0.6327
  178MOL0     H23981   9.716   6.210  10.492  1.9884 -3.0575  3.6608
  178MOL0     H23982   9.819   6.062  10.647  0.2076 -0.0709  0.9024
  178MOL0     H23983   9.994   6.068  10.687 -2.5806 -2.1296  3.0103
  178MOL0     H23984   9.866   6.311  10.767  0.5436  0.7910  0.8872
  178MOL0     H23985   9.775   6.180  10.833  0.7360 -0.1607  1.0645
  178MOL0     H23986   9.992   6.075  10.938 -0.9575 -0.6890  0.8220
  178MOL0     H23987   9.917   6.209  11.007  1.6273  1.6559 -0.2731
  178MOL0     H23988  10.157   6.235  10.808  0.6296  1.5126 -0.2898
  178MOL0     H23989  10.156   6.223  10.984 -1.7683  0.5825  0.7811
  178MOL0     H23990  10.062   6.329  11.140 -0.6835 -0.4341 -3.3484
  178MOL0     H23991  10.121   6.469  11.336  0.8501 -0.6179 -1.1088
  178MOL0     H23992  10.434   6.713  11.561 -1.0393 -0.9192  0.9779
  178MOL0     H23993  10.496   6.861  11.750  1.1212 -0.0139 -0.6492
  178MOL0     H23994  10.238   6.965  12.008  0.1418  1.4505 -1.5999
  178MOL0     H23995  10.390   6.882  11.988  0.6960  0.5032 -0.0199
  178MOL0     H23996  10.498   7.115  12.055 -0.2391  0.4683 -0.4259
  178MOL0     H23997  10.333   7.185  12.065  1.3429  1.6180 -1.0398
  178MOL0     H23998  10.282   7.024  12.242  0.8523 -3.1885 -2.9755
  178MOL0     H23999  10.437   6.965  12.227 -0.6378 -0.1127 -1.4589
  178MOL0     H24000  10.376   7.258  12.286  1.3987  0.8304  0.6426
  178MOL0     H24001  10.533   7.192  12.313  0.7787 -2.3319 -0.2341
  178MOL0     H24002  10.266   7.123  12.445  0.2147  0.7495  0.2132
  178MOL0     H24003  10.382   7.229  12.521 -0.0209 -0.0875  0.4594
  178MOL0     H24004  10.418   6.926  12.508  0.7021 -1.2404  1.5205
  178MOL0     H24005  10.556   7.037  12.532 -0.8274 -2.7768 -1.4229
  178MOL0     H24006  10.481   7.129  12.727  1.6428  0.1528 -1.2371
  178MOL0     H24007  10.491   6.957  12.747  2.0082 -0.1604 -2.0544
  178MOL0     H24008  10.235   7.126  12.696 -1.5276 -0.9997  2.4446
  178MOL0     H24009  10.230   6.954  12.687 -0.3031 -0.1768  0.4603
  178MOL0     H24010  10.094   6.965  11.808  0.0541  1.3491  0.0299
  178MOL0     H24011  10.023   6.810  11.623  0.7670 -0.6189  0.0449
  178MOL0     H24012  10.172   6.805  11.055 -0.5811  0.5408 -0.6970
  178MOL0     H24013  10.175   6.633  10.889  0.0340  0.1323 -0.5077
  178MOL0     H24014  10.495   6.359   9.971  1.6883 -1.7227 -0.0039
  178MOL0     H24015  10.471   6.115   9.869  1.5165 -0.4272  0.8383
  178MOL0     H24016  10.422   5.708  10.024  0.9781 -0.2047 -0.6669
  178MOL0     H24017  10.444   5.468  10.012 -1.3110 -0.0657  1.7885
  178MOL0     H24018  10.406   5.232  10.025  0.1062 -1.8968 -0.3344
  178MOL0     H24019  10.431   5.245   9.855 -1.3509  0.8044 -0.6345
  178MOL0     H24020  10.211   5.075   9.855 -0.5440  2.8658  1.1377
  178MOL0     H24021  10.269   5.035  10.004 -2.0905  3.3558  1.6329
  178MOL0     H24022  10.503   4.987   9.917  0.2921 -1.2920 -0.3162
  178MOL0     H24023  10.445   5.005   9.750 -0.4688 -0.2572 -0.2988
  178MOL0     H24024  10.320   4.806   9.944  2.5205 -0.3955  0.5574
  178MOL0     H24025  10.312   4.796   9.770  2.4683 -0.8266 -2.4978
  178MOL0     H24026  10.677   4.589   9.876 -1.4515 -0.6204  1.8168
  178MOL0     H24027  10.067   5.430   9.823 -0.4305  1.7836 -2.4047
  178MOL0     H24028   9.952   5.630   9.737 -1.7170  0.5591  0.6533
  178MOL0     H24029   9.943   5.735   9.894  2.0122 -2.4510  2.6425
  178MOL0     H24030  10.032   5.783   9.745 -1.4965 -0.9556 -2.5725
  179MOL0     O24031   7.422   5.988   0.410  0.4249  0.3227 -0.4547
  179MOL0     C24032   7.322   5.935   0.366 -0.2062 -0.8285  0.2976
  179MOL0     O24033   7.313   5.850   0.258 -0.9055  0.4858 -0.1459
  179MOL0     C24034   7.396   5.839   0.150 -1.0043 -0.7012 -0.4183
  179MOL0     C24035   7.480   5.944   0.103 -0.3393  0.3619  0.4456
  179MOL0     C24036   7.538   5.952  -0.027  0.2289 -0.8235  0.9912
  179MOL0     C24037   7.531   5.831  -0.104  0.3886  0.7393  0.1806
  179MOL0     O24038   7.603   5.829  -0.227  0.4384 -0.6530  0.2926
  179MOL0     C24039   7.589   5.730  -0.326  0.1113  0.9160 -0.5752
  179MOL0     C24040   7.640   5.769  -0.462  0.0497  0.7028  0.0909
  179MOL0     C24041   7.626   5.644  -0.559  0.8596 -0.5769 -0.2188
  179MOL0     C24042   7.618   5.679  -0.712 -0.2759 -0.4430  0.3221
  179MOL0     C24043   7.600   5.559  -0.807  0.2690  0.6469  0.3896
  179MOL0     C24044   7.600   5.598  -0.958 -0.2007  0.9095  0.7590
  179MOL0     C24045   7.580   5.479  -1.049 -0.4341 -0.3113 -0.8864
  179MOL0     C24046   7.549   5.508  -1.205 -0.1629  1.1110 -0.7851
  179MOL0     N24047   7.558   5.379  -1.269 -0.2481  0.0316 -0.0461
  179MOL0     C24048   7.642   5.332  -1.357 -0.9281  0.8174  0.7659
  179MOL0     C24049   7.600   5.202  -1.378 -0.2261 -0.1719  0.4519
  179MOL0     C24050   7.648   5.107  -1.482  0.5704  0.2944  0.4938
  179MOL0     C24051   7.604   5.152  -1.625 -0.4742  0.1710  0.5586
  179MOL0     C24052   7.690   5.103  -1.743 -0.4887  0.2270 -0.2861
  179MOL0     C24053   7.834   5.152  -1.749 -0.1630 -0.1671 -0.0095
  179MOL0     O24054   7.911   5.095  -1.645  0.5014  1.2662  0.6150
  179MOL0     C24055   8.040   5.132  -1.627 -0.2462 -0.0180 -0.8748
  179MOL0     C24056   8.084   5.268  -1.648  0.0869  0.5503 -0.0469
  179MOL0     C24057   8.219   5.292  -1.639 -0.1145 -0.4921 -0.6266
  179MOL0     C24058   8.313   5.193  -1.598  0.4483 -0.2417 -0.2953
  179MOL0     C24059   8.462   5.220  -1.594  0.4800 -0.0860  0.0762
  179MOL0     O24060   8.545   5.108  -1.576  0.8203 -0.0909  1.0805
  179MOL0     C24061   8.675   5.119  -1.590  0.1496 -0.2869 -0.1034
  179MOL0     C24062   8.772   5.224  -1.621  0.3880 -0.3066  0.5138
  179MOL0     C24063   8.905   5.198  -1.637  0.3661 -0.1689  0.2825
  179MOL0     C24064   8.960   5.073  -1.602 -0.6754 -0.1625 -0.7306
  179MOL0     O24065   9.087   5.032  -1.617  0.1790 -0.1236 -0.5897
  179MOL0     C24066   9.184   5.141  -1.601  0.8453 -0.5558 -0.5813
  179MOL0     C24067   9.329   5.101  -1.572  0.7955 -0.7921 -0.8053
  179MOL0     C24068   9.362   5.074  -1.414  0.5481  0.8779 -0.2901
  179MOL0     C24069   9.399   4.934  -1.405 -0.4541 -0.4074  0.7890
  179MOL0     C24070   9.396   4.892  -1.257 -1.1230  0.2951  0.8562
  179MOL0     C24071   9.388   4.743  -1.238  0.9129  0.3012 -0.9596
  179MOL0     C24072   9.524   4.670  -1.286 -0.3190  0.4530 -1.0096
  179MOL0     C24073   9.492   4.579  -1.411 -0.7339 -0.1411  0.5953
  179MOL0    Cl24074   9.611   4.440  -1.419  0.1905 -0.1456  0.4892
  179MOL0     C24075   8.875   4.974  -1.559 -1.2157 -0.5831  0.4487
  179MOL0     C24076   8.736   4.997  -1.561 -0.2863  0.5631 -0.2773
  179MOL0     O24077   8.503   5.334  -1.599 -0.2531 -0.5844 -0.3046
  179MOL0     C24078   8.264   5.071  -1.558  0.4166  0.2631  0.1230
  179MOL0     C24079   8.129   5.033  -1.570 -0.0516 -0.2361 -0.4386
  179MOL0     N24080   7.483   5.184  -1.303  0.5904 -0.2915  0.4562
  179MOL0     N24081   7.454   5.292  -1.249 -0.1097  0.2522  0.2038
  179MOL0     C24082   7.457   5.721  -0.047  0.0367 -1.0023  0.5993
  179MOL0     C24083   7.399   5.724   0.076 -0.1603 -0.1798  0.3082
  179MOL0     C24084   7.205   5.926   0.454  0.1894 -0.0665  1.2618
  179MOL0     C24085   7.140   5.798   0.474 -0.0869 -0.2338  0.3213
  179MOL0     C24086   7.038   5.778   0.571  0.0664  0.6264  0.7400
  179MOL0     C24087   6.992   5.885   0.647  0.5470  0.6836  0.4397
  179MOL0     O24088   6.891   5.888   0.740  0.9915 -0.1130  0.1904
  179MOL0     C24089   6.773   5.812   0.702 -0.0834 -0.2291  0.7359
  179MOL0     C24090   6.667   5.801   0.811  0.7416  0.1935  0.6392
  179MOL0     C24091   6.615   5.928   0.875 -0.2629  0.4837 -0.4164
  179MOL0     C24092   6.495   5.915   0.966  0.6177  0.2360 -0.4070
  179MOL0     C24093   6.476   6.036   1.044 -0.6189  0.2371 -0.3168
  179MOL0     C24094   6.473   6.148   1.091 -0.4547  0.0291  0.1665
  179MOL0     C24095   7.054   6.007   0.621  0.0581 -0.3180  0.7351
  179MOL0     C24096   7.153   6.035   0.526 -0.2245  0.8741 -1.2021
  179MOL0     C24097   7.228   6.164   0.538  0.3968 -0.7540 -0.4427
  179MOL0     H24098   7.509   6.025   0.170  1.2935 -2.5849  3.5886
  179MOL0     H24099   7.587   6.044  -0.057  1.3222 -1.5677  0.3933
  179MOL0     H24100   7.649   5.644  -0.296 -0.2098  0.8863 -0.0123
  179MOL0     H24101   7.483   5.704  -0.321  0.4398 -0.3115  2.3669
  179MOL0     H24102   7.746   5.792  -0.470 -0.2229  1.5452 -1.9040
  179MOL0     H24103   7.577   5.852  -0.496  0.5150  1.3398  0.7829
  179MOL0     H24104   7.534   5.592  -0.532  1.6597 -0.7393  2.4985
  179MOL0     H24105   7.703   5.568  -0.548 -0.8370 -2.4636 -0.7620
  179MOL0     H24106   7.534   5.748  -0.728 -1.1364 -2.1575 -4.0526
  179MOL0     H24107   7.709   5.734  -0.739 -2.0912  1.8036 -1.7427
  179MOL0     H24108   7.677   5.483  -0.789  0.3263 -0.9452 -5.0166
  179MOL0     H24109   7.505   5.514  -0.775 -0.1808 -0.6789 -2.4746
  179MOL0     H24110   7.534   5.677  -0.995  0.0481 -0.8248 -4.2142
  179MOL0     H24111   7.699   5.636  -0.985 -0.4817 -1.4388 -4.9841
  179MOL0     H24112   7.506   5.412  -1.005  1.0878 -1.7085 -0.3246
  179MOL0     H24113   7.678   5.430  -1.042  0.0082  0.5199 -1.1064
  179MOL0     H24114   7.465   5.576  -1.216  0.7603  2.3171 -0.6160
  179MOL0     H24115   7.636   5.559  -1.248  2.7612 -2.6765  0.0435
  179MOL0     H24116   7.728   5.392  -1.386 -3.0203  2.6280 -2.2767
  179MOL0     H24117   7.753   5.079  -1.470  0.9375 -0.1524 -2.7841
  179MOL0     H24118   7.595   5.012  -1.476 -0.9323  0.9661 -1.2101
  179MOL0     H24119   7.501   5.117  -1.635 -0.1122 -1.3178  1.7647
  179MOL0     H24120   7.606   5.261  -1.631  0.1354  0.1458  0.2035
  179MOL0     H24121   7.632   5.116  -1.835  0.3699  0.9348 -0.7416
  179MOL0     H24122   7.699   4.996  -1.723 -3.6112  0.0377  0.5335
  179MOL0     H24123   7.832   5.261  -1.746 -2.6023 -0.1806  1.1476
  179MOL0     H24124   7.876   5.117  -1.844 -1.3174  0.0669 -0.6231
  179MOL0     H24125   8.010   5.345  -1.668  0.5647  2.3228  4.0763
  179MOL0     H24126   8.246   5.397  -1.648 -4.0479  0.6196 -1.3244
  179MOL0     H24127   8.722   5.319  -1.638 -2.3841 -2.1233 -2.6299
  179MOL0     H24128   8.970   5.282  -1.661  2.8636 -1.5804  1.7248
  179MOL0     H24129   9.178   5.189  -1.699 -2.4547 -1.2768 -0.8254
  179MOL0     H24130   9.153   5.210  -1.522  0.2599  0.0803 -1.3569
  179MOL0     H24131   9.350   5.016  -1.638  0.4848 -2.0760  0.6863
  179MOL0     H24132   9.395   5.181  -1.605 -0.3555 -0.0966 -1.4719
  179MOL0     H24133   9.444   5.135  -1.375 -1.6113  2.9051  1.3689
  179MOL0     H24134   9.278   5.096  -1.347  1.8622  0.6435  1.5350
  179MOL0     H24135   9.500   4.912  -1.443  0.0783  2.6372  0.2076
  179MOL0     H24136   9.327   4.883  -1.470 -2.5301  3.8537 -0.6369
  179MOL0     H24137   9.311   4.933  -1.203 -2.1342  0.4618 -0.8199
  179MOL0     H24138   9.486   4.936  -1.212 -1.4986  1.8257  0.1449
  179MOL0     H24139   9.381   4.719  -1.132 -1.9974  0.2405 -1.0830
  179MOL0     H24140   9.298   4.712  -1.292  1.8869 -2.9381 -0.9365
  179MOL0     H24141   9.548   4.600  -1.205 -2.5388 -2.1504 -2.4543
  179MOL0     H24142   9.601   4.745  -1.305  0.7565 -0.2221  0.4429
  179MOL0     H24143   9.388   4.545  -1.410 -1.2209  0.7698 -3.2260
  179MOL0     H24144   9.510   4.642  -1.499  2.2570  0.2613  1.3744
  179MOL0     H24145   8.926   4.887  -1.521 -0.8464  0.4262  2.3956
  179MOL0     H24146   8.681   4.908  -1.531  0.9682 -1.4067 -3.2533
  179MOL0     H24147   8.336   5.006  -1.509  0.2623  1.6541  2.3167
  179MOL0     H24148   8.084   4.937  -1.545 -0.5176  0.3087  0.9327
  179MOL0     H24149   7.455   5.625  -0.098 -0.1716 -1.1714  0.9190
  179MOL0     H24150   7.360   5.634   0.123 -0.4713  0.6490  1.7098
  179MOL0     H24151   7.170   5.717   0.408  2.3426  0.7288  0.1307
  179MOL0     H24152   6.998   5.678   0.575  1.9758 -0.1598  1.6496
  179MOL0     H24153   6.802   5.712   0.668 -1.8666 -0.6002  0.1754
  179MOL0     H24154   6.726   5.851   0.612  0.2656  0.1583  0.7227
  179MOL0     H24155   6.701   5.741   0.896  2.1126  0.9522  0.6613
  179MOL0     H24156   6.584   5.744   0.767 -3.0380  2.1261  4.5348
  179MOL0     H24157   6.591   6.010   0.807  0.9630  0.3189 -1.0709
  179MOL0     H24158   6.707   5.973   0.915 -0.4883  0.1604  0.4948
  179MOL0     H24159   6.400   5.890   0.917  1.9203  1.4099 -3.8684
  179MOL0     H24160   6.501   5.837   1.042  0.6307  0.4499 -0.1907
  179MOL0     H24161   6.462   6.245   1.136  1.8068 -0.0942  1.1461
  179MOL0     H24162   7.021   6.090   0.683  0.5986  1.1199 -0.8243
  179MOL0     H24163   7.183   6.234   0.467  0.7466 -0.3200 -0.2403
  179MOL0     H24164   7.209   6.212   0.634 -0.7699 -0.5361 -0.7680
  179MOL0     H24165   7.337   6.159   0.532  0.4841 -0.0346  0.3965
  180MOL0     O24166   4.198   1.655   3.414 -0.1761 -0.3730 -1.1302
  180MOL0     C24167   4.079   1.673   3.420  0.2305  1.3895  0.1290
  180MOL0     O24168   3.985   1.582   3.467 -0.4978 -0.0363 -0.0157
  180MOL0     C24169   4.020   1.466   3.537 -0.2780 -0.9790 -0.4096
  180MOL0     C24170   3.921   1.376   3.549 -0.6782 -0.0270 -0.6606
  180MOL0     C24171   3.933   1.266   3.635  0.4828 -0.5715 -1.1503
  180MOL0     C24172   4.046   1.243   3.715 -0.2724  0.1708  0.3552
  180MOL0     O24173   4.050   1.135   3.797  0.4724  0.3703 -0.2309
  180MOL0     C24174   4.171   1.079   3.860  0.3067  0.3542  0.8451
  180MOL0     C24175   4.166   0.940   3.906  0.2757  1.1775 -0.0707
  180MOL0     C24176   4.074   0.919   4.019 -0.2787  0.0589 -0.2757
  180MOL0     C24177   4.046   0.773   4.049  0.9692 -0.1873  0.5141
  180MOL0     C24178   3.972   0.773   4.185 -0.1524 -0.1441 -0.0630
  180MOL0     C24179   3.910   0.633   4.205  0.2625  0.3435 -0.5233
  180MOL0     C24180   3.828   0.626   4.336  0.4236  0.1777 -0.7882
  180MOL0     C24181   3.809   0.480   4.397 -0.6638 -0.4816 -0.2929
  180MOL0     N24182   3.714   0.474   4.511 -0.8121  0.9045  0.1432
  180MOL0     C24183   3.745   0.457   4.647  0.0138 -0.0309  1.2530
  180MOL0     C24184   3.628   0.483   4.714 -0.0624  0.3712  0.5191
  180MOL0     C24185   3.597   0.464   4.854 -1.2819 -0.4256  0.4333
  180MOL0     C24186   3.475   0.374   4.872  0.5866 -0.3861  1.0277
  180MOL0     C24187   3.450   0.358   5.023 -0.1613 -0.1553 -0.4949
  180MOL0     C24188   3.314   0.297   5.073  0.2942  0.0483 -1.1225
  180MOL0     O24189   3.204   0.370   4.995  0.1056  0.4411  0.3723
  180MOL0     C24190   3.076   0.333   5.014 -0.0168  0.7686 -0.1861
  180MOL0     C24191   2.985   0.422   4.972  0.1841 -0.5867  0.6670
  180MOL0     C24192   2.848   0.407   4.990 -0.5373 -0.6558 -0.5554
  180MOL0     C24193   2.793   0.304   5.062 -0.7795  0.0578  1.1624
  180MOL0     C24194   2.651   0.293   5.078  1.0908 -0.1996  0.8626
  180MOL0     O24195   2.608   0.206   5.183  0.2643 -0.1326 -0.5253
  180MOL0     C24196   2.487   0.213   5.247  0.4654  0.2004  0.3178
  180MOL0     C24197   2.369   0.283   5.201 -0.4731 -0.1475  0.1357
  180MOL0     C24198   2.257   0.301   5.281 -0.3898 -0.3118 -0.7417
  180MOL0     C24199   2.259   0.222   5.401 -1.9055 -1.0814  0.5020
  180MOL0     O24200   2.147   0.214   5.484  0.0095  0.0565  0.5542
  180MOL0     C24201   2.031   0.297   5.469  0.4952  0.2128  0.8884
  180MOL0     C24202   1.932   0.276   5.589 -0.6564  0.4110 -0.1031
  180MOL0     C24203   1.797   0.330   5.552 -0.1567  0.0765 -0.1951
  180MOL0     C24204   1.725   0.229   5.469  0.8518  0.6703  0.2473
  180MOL0     C24205   1.593   0.266   5.418  0.5465 -0.3106 -0.0761
  180MOL0     C24206   1.522   0.147   5.342 -0.7896  0.4396  0.3117
  180MOL0     C24207   1.374   0.178   5.342 -0.5983 -0.1372  0.8171
  180MOL0     C24208   1.297   0.087   5.241  0.0501 -0.5196  0.1489
  180MOL0    Cl24209   1.339   0.118   5.075 -0.2609  0.1753  0.6930
  180MOL0     C24210   2.369   0.154   5.446 -0.1935 -0.4067 -0.0514
  180MOL0     C24211   2.483   0.144   5.367  0.0064 -1.0676  0.4213
  180MOL0     O24212   2.581   0.358   5.003 -0.1340 -0.0338  0.3222
  180MOL0     C24213   2.890   0.216   5.117 -0.4092 -0.4291  0.5629
  180MOL0     C24214   3.027   0.224   5.084 -0.0221 -0.6422 -0.4141
  180MOL0     N24215   3.533   0.505   4.621  0.0333  0.1628  0.0820
  180MOL0     N24216   3.584   0.494   4.505 -0.2802 -0.6559  0.2047
  180MOL0     C24217   4.156   1.318   3.687 -0.6625  0.7879 -0.0136
  180MOL0     C24218   4.141   1.436   3.612 -0.2861  0.2029  0.5500
  180MOL0     C24219   4.037   1.805   3.381  0.4698  0.6741 -0.4713
  180MOL0     C24220   3.920   1.850   3.451 -0.3181  0.2710  0.3643
  180MOL0     C24221   3.852   1.967   3.416 -0.2397  0.0453  0.0412
  180MOL0     C24222   3.906   2.047   3.317  0.5415 -0.1835  0.5881
  180MOL0     O24223   3.851   2.167   3.273  0.0236  0.3097  0.1966
  180MOL0     C24224   3.720   2.210   3.304 -0.6898  0.5480 -0.6957
  180MOL0     C24225   3.623   2.124   3.218 -0.7777  0.4068 -1.0442
  180MOL0     C24226   3.509   2.215   3.193  0.3038  0.0087 -0.1659
  180MOL0     C24227   3.389   2.144   3.125  0.4937  0.1579  0.0470
  180MOL0     C24228   3.265   2.217   3.142 -0.1539  0.0517 -0.7881
  180MOL0     C24229   3.149   2.269   3.141 -0.3877  0.3247  0.3226
  180MOL0     C24230   4.023   2.003   3.248  0.1212 -0.9632  0.4227
  180MOL0     C24231   4.098   1.886   3.282 -0.0709  0.0190  0.1650
  180MOL0     C24232   4.219   1.850   3.198 -0.5156  0.5908  0.4171
  180MOL0     H24233   3.824   1.386   3.501 -0.7649  0.4017 -0.4001
  180MOL0     H24234   3.847   1.201   3.643 -0.6998  0.8992 -1.6293
  180MOL0     H24235   4.247   1.091   3.782 -0.8143 -0.3040 -0.4019
  180MOL0     H24236   4.194   1.143   3.945 -2.1783 -0.2202  2.0294
  180MOL0     H24237   4.266   0.906   3.935 -0.4840  0.8606  2.4164
  180MOL0     H24238   4.126   0.883   3.821 -0.4908  0.7698  0.5523
  180MOL0     H24239   3.989   0.986   4.003  0.6039  1.1882 -0.4216
  180MOL0     H24240   4.130   0.953   4.107  2.1159  2.6206 -2.5937
  180MOL0     H24241   3.987   0.737   3.964  1.3364  0.1027  0.1271
  180MOL0     H24242   4.140   0.717   4.059  0.2757 -1.4999 -0.1189
  180MOL0     H24243   4.042   0.798   4.266 -0.9670 -0.2463  0.6842
  180MOL0     H24244   3.901   0.856   4.190 -2.5150 -2.0925  0.6553
  180MOL0     H24245   3.845   0.616   4.119  0.9768  1.1327 -1.2332
  180MOL0     H24246   3.985   0.553   4.196 -3.0759 -3.3019  0.8704
  180MOL0     H24247   3.729   0.661   4.307  0.4597  0.8465 -0.1444
  180MOL0     H24248   3.883   0.693   4.403 -1.0648  0.0509  0.6296
  180MOL0     H24249   3.782   0.414   4.314  1.6366  3.1146 -4.2834
  180MOL0     H24250   3.904   0.438   4.433 -0.8704 -0.9789 -0.3253
  180MOL0     H24251   3.845   0.436   4.686  1.5924 -0.6309 -2.6712
  180MOL0     H24252   3.685   0.427   4.906 -0.0012  0.2572 -1.1643
  180MOL0     H24253   3.572   0.563   4.894 -2.1765 -1.1514  1.7753
  180MOL0     H24254   3.391   0.433   4.832  1.7355 -0.0921 -1.1111
  180MOL0     H24255   3.489   0.278   4.822 -0.6415 -0.6333  1.1149
  180MOL0     H24256   3.465   0.458   5.063  0.1735  1.3838 -4.0614
  180MOL0     H24257   3.531   0.292   5.057  0.3323 -0.5073 -2.2306
  180MOL0     H24258   3.308   0.308   5.181 -0.2477 -1.0329 -1.0318
  180MOL0     H24259   3.309   0.191   5.047  1.7522 -0.4575  0.4890
  180MOL0     H24260   3.006   0.507   4.909 -4.9991  0.1770 -0.5056
  180MOL0     H24261   2.789   0.491   4.953  1.7047  0.9855 -0.6456
  180MOL0     H24262   2.364   0.347   5.113 -2.8477 -0.5285 -0.0732
  180MOL0     H24263   2.177   0.371   5.257  0.8390  0.4305 -3.0315
  180MOL0     H24264   2.072   0.399   5.466  0.3216  0.2662 -0.2416
  180MOL0     H24265   1.988   0.284   5.369 -0.1350  1.9796  0.8951
  180MOL0     H24266   1.917   0.175   5.627 -0.6228  2.1900  5.5265
  180MOL0     H24267   1.966   0.324   5.681 -0.6935  0.8172 -0.2982
  180MOL0     H24268   1.751   0.346   5.650  0.5740 -0.2754  0.2179
  180MOL0     H24269   1.808   0.426   5.501 -0.0857 -0.5961 -1.4927
  180MOL0     H24270   1.716   0.139   5.532  0.1630 -0.3458 -1.2543
  180MOL0     H24271   1.781   0.198   5.381  0.8211 -2.5696  1.2392
  180MOL0     H24272   1.605   0.349   5.347 -2.7048 -2.0206 -2.9065
  180MOL0     H24273   1.534   0.297   5.504 -1.9712 -1.9087 -1.1168
  180MOL0     H24274   1.564   0.137   5.242 -0.6215 -3.8485  0.6490
  180MOL0     H24275   1.533   0.056   5.402 -2.0412 -0.6552 -1.0518
  180MOL0     H24276   1.370   0.284   5.314  3.2988  0.0075  0.2427
  180MOL0     H24277   1.346   0.176   5.448 -0.9961  2.0488  0.8102
  180MOL0     H24278   1.313  -0.019   5.264 -0.0248 -0.3134  1.2071
  180MOL0     H24279   1.190   0.107   5.248 -0.2810 -1.5386 -1.4488
  180MOL0     H24280   2.369   0.104   5.543 -2.7245 -2.8285 -1.1539
  180MOL0     H24281   2.572   0.085   5.390  1.6349  2.7456  5.9746
  180MOL0     H24282   2.874   0.130   5.182  0.2108  0.7336  2.3081
  180MOL0     H24283   3.093   0.152   5.132  0.9423 -0.4770 -1.4505
  180MOL0     H24284   4.253   1.293   3.731 -1.4817  0.7490  1.8799
  180MOL0     H24285   4.218   1.511   3.628  2.2507 -2.4637  1.6573
  180MOL0     H24286   3.874   1.783   3.523  0.8275 -0.2913  0.5902
  180MOL0     H24287   3.756   1.998   3.455  0.1724 -0.8759  1.9311
  180MOL0     H24288   3.708   2.316   3.277 -2.8256  0.7602  0.8123
  180MOL0     H24289   3.707   2.199   3.412 -0.2667  0.3031 -0.6709
  180MOL0     H24290   3.588   2.030   3.261 -1.2179  0.9377 -0.2124
  180MOL0     H24291   3.672   2.103   3.122  2.5305  0.4100  0.4965
  180MOL0     H24292   3.545   2.304   3.142  1.6536  0.8729  2.1546
  180MOL0     H24293   3.468   2.243   3.291  2.4198 -1.1853  1.1475
  180MOL0     H24294   3.411   2.120   3.021  1.6873 -1.3550  0.6027
  180MOL0     H24295   3.386   2.046   3.174  1.5583 -0.1498 -0.4829
  180MOL0     H24296   3.050   2.309   3.134 -0.7755 -0.4674  1.0446
  180MOL0     H24297   4.052   2.071   3.169  3.3352 -0.6929  1.6909
  180MOL0     H24298   4.218   1.901   3.101 -2.9351  2.0476  1.1475
  180MOL0     H24299   4.304   1.890   3.254 -0.6848  3.6263 -1.2651
  180MOL0     H24300   4.224   1.743   3.176  3.5925  0.6660  0.1347
  181MOL0     O24301   1.632   5.301   6.498 -0.4681 -0.1378  0.2396
  181MOL0     C24302   1.569   5.363   6.594 -0.2831  0.8257  0.8857
  181MOL0     O24303   1.623   5.461   6.661  0.6412  0.4400  0.0473
  181MOL0     C24304   1.744   5.505   6.618  0.2193  0.0558 -0.6936
  181MOL0     C24305   1.858   5.449   6.667 -1.0361  0.1095  0.9373
  181MOL0     C24306   1.976   5.507   6.624  0.3376  1.1262  0.3838
  181MOL0     C24307   1.983   5.605   6.527 -0.5241 -0.0859  0.0217
  181MOL0     O24308   2.097   5.678   6.490 -0.6413 -0.5155 -0.0338
  181MOL0     C24309   2.228   5.612   6.505  0.4894  0.3583  0.1927
  181MOL0     C24310   2.322   5.681   6.402 -0.1951  0.0105 -0.6832
  181MOL0     C24311   2.300   5.679   6.253  0.4076  0.1908  0.1146
  181MOL0     C24312   2.282   5.810   6.186 -1.0751 -0.1714 -0.3194
  181MOL0     C24313   2.280   5.808   6.038  0.5836 -0.4593 -0.3258
  181MOL0     C24314   2.383   5.715   5.955  0.4708 -0.6649  0.4717
  181MOL0     C24315   2.368   5.729   5.798  0.6380  0.5798  0.7847
  181MOL0     C24316   2.256   5.635   5.737  0.5658  0.0141  0.5558
  181MOL0     N24317   2.285   5.612   5.593  0.8499  1.2055 -0.5396
  181MOL0     C24318   2.308   5.707   5.500 -0.5094 -1.3130 -0.0307
  181MOL0     C24319   2.299   5.652   5.380 -0.2275  0.3249 -0.4831
  181MOL0     C24320   2.304   5.720   5.254  0.1627 -0.2261  0.2946
  181MOL0     C24321   2.166   5.722   5.183 -0.7806 -0.2570  0.6760
  181MOL0     C24322   2.079   5.828   5.244 -0.4487  0.5018  0.4815
  181MOL0     C24323   1.944   5.787   5.299  0.7239  0.2857 -0.0104
  181MOL0     O24324   1.875   5.703   5.203  0.6120 -0.1373  0.1895
  181MOL0     C24325   1.841   5.774   5.086  0.3940  0.7199 -0.1621
  181MOL0     C24326   1.777   5.904   5.081 -0.8020  0.3201  0.2233
  181MOL0     C24327   1.764   5.979   4.964  0.0228  0.4569 -1.0229
  181MOL0     C24328   1.819   5.936   4.841  0.3062 -0.0423 -0.5934
  181MOL0     C24329   1.809   6.015   4.719  0.2213 -0.4019 -0.7517
  181MOL0     O24330   1.697   6.078   4.703 -0.1654  0.0688 -0.3513
  181MOL0     C24331   1.690   6.181   4.612  0.5888 -0.5031  0.3539
  181MOL0     C24332   1.658   6.311   4.661  0.1286 -0.2812  0.1711
  181MOL0     C24333   1.653   6.416   4.570 -0.7767  0.5416 -0.7566
  181MOL0     C24334   1.679   6.394   4.434 -1.5495  0.0542  0.4758
  181MOL0     O24335   1.662   6.497   4.351 -0.0562 -0.6596  0.3658
  181MOL0     C24336   1.571   6.447   4.243 -0.1458  0.3142 -0.6316
  181MOL0     C24337   1.468   6.552   4.224  1.4468  0.2729  0.5310
  181MOL0     C24338   1.332   6.482   4.201  0.1239  1.2888  0.5658
  181MOL0     C24339   1.223   6.577   4.152  0.3038 -0.4519  0.6213
  181MOL0     C24340   1.100   6.501   4.099 -1.2137  0.4341 -0.2153
  181MOL0     C24341   0.984   6.592   4.044  0.1109 -0.2600 -1.1377
  181MOL0     C24342   0.952   6.712   4.147  0.0211  0.2980  0.8408
  181MOL0     C24343   0.811   6.758   4.125  0.0083  0.2014 -0.1377
  181MOL0    Cl24344   0.794   6.829   3.959  0.7432 -0.2820 -0.2454
  181MOL0     C24345   1.737   6.275   4.396 -0.6371  0.5468 -0.0903
  181MOL0     C24346   1.740   6.169   4.484  0.4831  0.2011  0.4076
  181MOL0     O24347   1.897   6.009   4.641 -1.0441  0.3694 -0.2524
  181MOL0     C24348   1.890   5.812   4.838  0.4723  0.5731 -0.0368
  181MOL0     C24349   1.885   5.725   4.955  0.7957 -0.4095  0.1813
  181MOL0     N24350   2.287   5.513   5.405  0.6278 -0.2755  0.1565
  181MOL0     N24351   2.282   5.492   5.539  0.2478 -0.5688  0.2089
  181MOL0     C24352   1.868   5.647   6.471  0.5756  0.6659  0.3163
  181MOL0     C24353   1.748   5.607   6.523 -0.1331  1.6180  0.0965
  181MOL0     C24354   1.441   5.312   6.638  0.3858 -0.6510 -0.0264
  181MOL0     C24355   1.402   5.337   6.778 -0.0570  0.2838 -0.8588
  181MOL0     C24356   1.276   5.287   6.824  0.1154 -0.0923  0.4221
  181MOL0     C24357   1.195   5.214   6.743 -0.5288  0.9166  0.7594
  181MOL0     O24358   1.062   5.182   6.777  0.0855  0.3993 -0.3197
  181MOL0     C24359   1.016   5.217   6.913  0.6995  0.0847 -0.9029
  181MOL0     C24360   0.894   5.133   6.939  0.7579  0.2063 -0.2370
  181MOL0     C24361   0.901   4.982   6.921 -0.0129 -0.3553 -0.3665
  181MOL0     C24362   0.801   4.926   6.826 -0.1877  0.6027 -0.1157
  181MOL0     C24363   0.798   4.773   6.843  1.0353 -0.9045  0.2409
  181MOL0     C24364   0.813   4.657   6.865 -0.4031  0.2569  0.1014
  181MOL0     C24365   1.232   5.197   6.615 -0.6339  0.7967 -0.3929
  181MOL0     C24366   1.349   5.231   6.555 -0.2550  0.5434  0.1605
  181MOL0     C24367   1.373   5.199   6.410  0.2918  0.4528 -0.3170
  181MOL0     H24368   1.853   5.360   6.729  2.4430 -2.6485 -2.2319
  181MOL0     H24369   2.063   5.476   6.682 -1.3001 -1.8942  1.4440
  181MOL0     H24370   2.278   5.615   6.602  2.8654 -3.1666 -0.7153
  181MOL0     H24371   2.224   5.509   6.469 -0.6953  0.0967  1.0260
  181MOL0     H24372   2.421   5.638   6.418  0.3948  2.0863  1.8064
  181MOL0     H24373   2.342   5.782   6.437 -1.1246 -0.0721  0.1227
  181MOL0     H24374   2.212   5.613   6.244 -0.2229  1.0157  0.1570
  181MOL0     H24375   2.387   5.633   6.204  1.1765  0.4335  1.2243
  181MOL0     H24376   2.202   5.869   6.233  1.0822  1.0632  2.0278
  181MOL0     H24377   2.378   5.854   6.214 -0.7109 -1.2116  0.0923
  181MOL0     H24378   2.177   5.790   6.004  1.1282 -1.2005 -1.6603
  181MOL0     H24379   2.301   5.913   6.014  2.2410  0.5539  4.4647
  181MOL0     H24380   2.485   5.750   5.970  0.6451  0.1014 -2.0328
  181MOL0     H24381   2.374   5.607   5.970 -0.7295 -0.5817  0.4523
  181MOL0     H24382   2.461   5.711   5.743 -0.5405 -1.5452 -0.6442
  181MOL0     H24383   2.361   5.835   5.774  4.2173  1.4838  2.9780
  181MOL0     H24384   2.238   5.538   5.784 -1.4929  1.2817  2.5994
  181MOL0     H24385   2.156   5.680   5.746  0.5401  0.7212 -2.2954
  181MOL0     H24386   2.318   5.813   5.520  0.3057 -1.3002 -0.4553
  181MOL0     H24387   2.342   5.822   5.266  0.4213  0.0432 -2.2200
  181MOL0     H24388   2.375   5.665   5.191  2.2763  2.1169  0.4960
  181MOL0     H24389   2.171   5.733   5.074 -2.6457  0.5978  0.6365
  181MOL0     H24390   2.110   5.629   5.198  0.0222 -1.0930 -1.2389
  181MOL0     H24391   2.068   5.915   5.178  2.9655 -0.3783 -1.4749
  181MOL0     H24392   2.125   5.854   5.340  0.1879 -5.4815  2.2216
  181MOL0     H24393   1.896   5.877   5.339  0.9050  0.1695  0.4647
  181MOL0     H24394   1.957   5.744   5.398  1.1398  0.3605 -0.0292
  181MOL0     H24395   1.739   5.954   5.170 -3.4348 -1.6031  0.3177
  181MOL0     H24396   1.727   6.081   4.964 -0.9315  0.1467 -2.8188
  181MOL0     H24397   1.615   6.324   4.759 -1.2031  1.6600 -0.6040
  181MOL0     H24398   1.605   6.508   4.602 -2.3321 -0.3183 -0.5220
  181MOL0     H24399   1.629   6.429   4.153  0.9395 -0.3567  0.1699
  181MOL0     H24400   1.520   6.357   4.278 -0.7744  0.7604 -0.3751
  181MOL0     H24401   1.463   6.616   4.312 -0.7278  1.4954 -0.4115
  181MOL0     H24402   1.488   6.611   4.134 -0.2168  1.2002  0.7417
  181MOL0     H24403   1.340   6.411   4.119 -3.2430  1.3192  0.0697
  181MOL0     H24404   1.294   6.425   4.286 -2.4169 -2.3744 -2.6702
  181MOL0     H24405   1.253   6.642   4.069 -0.3461 -3.0512 -1.7747
  181MOL0     H24406   1.188   6.634   4.238  0.0763  0.0292  0.2164
  181MOL0     H24407   1.075   6.430   4.179  1.2263  0.8280  0.9845
  181MOL0     H24408   1.114   6.416   4.032 -2.4011 -0.1947  0.2931
  181MOL0     H24409   1.005   6.640   3.948 -1.1893  0.7399 -0.9525
  181MOL0     H24410   0.892   6.536   4.027 -0.6797  1.1096 -1.5032
  181MOL0     H24411   1.019   6.796   4.128  0.8277 -0.7909 -1.5103
  181MOL0     H24412   0.969   6.697   4.254 -0.5515  1.3450  1.1001
  181MOL0     H24413   0.751   6.666   4.131  1.6185 -0.8827 -0.0952
  181MOL0     H24414   0.769   6.821   4.204  0.5586 -2.3272  2.3378
  181MOL0     H24415   1.781   6.258   4.298  3.2489  0.5246  1.4864
  181MOL0     H24416   1.790   6.079   4.449  1.6667  0.3259  1.6868
  181MOL0     H24417   1.937   5.772   4.749 -0.9770 -2.6206  0.4947
  181MOL0     H24418   1.929   5.625   4.955  1.9462  0.0745  0.8887
  181MOL0     H24419   1.865   5.719   6.390 -0.6224  0.3646  0.0789
  181MOL0     H24420   1.651   5.643   6.490 -0.5114 -0.9587 -1.9515
  181MOL0     H24421   1.455   5.398   6.849  1.4005 -1.6214 -0.2399
  181MOL0     H24422   1.248   5.309   6.926 -0.3423  1.0260  0.0644
  181MOL0     H24423   0.988   5.322   6.904  1.7147  0.5090  0.5263
  181MOL0     H24424   1.080   5.184   6.995 -0.1811 -3.6371 -1.5256
  181MOL0     H24425   0.812   5.175   6.880 -1.4330 -1.7894  1.2237
  181MOL0     H24426   0.865   5.152   7.043  0.3940  1.8449 -0.6052
  181MOL0     H24427   0.890   4.941   7.021 -4.9580  0.7585 -0.1945
  181MOL0     H24428   0.999   4.958   6.878  2.8927  2.2721  3.9532
  181MOL0     H24429   0.700   4.960   6.853  1.6833  2.7690  5.5095
  181MOL0     H24430   0.835   4.949   6.724  4.5130 -2.2845  0.5259
  181MOL0     H24431   0.810   4.550   6.876  1.7547  0.0846 -0.6234
  181MOL0     H24432   1.162   5.131   6.565 -1.3978 -0.3461  2.0034
  181MOL0     H24433   1.469   5.148   6.404 -0.2451 -0.8005  1.2529
  181MOL0     H24434   1.299   5.132   6.364 -0.1878 -0.9818  2.3868
  181MOL0     H24435   1.374   5.289   6.347 -0.6731  0.5642 -0.1962
  182MOL0     O24436   3.139  11.203   1.019 -0.1848 -0.1774 -0.2624
  182MOL0     C24437   3.075  11.149   1.111  0.2555  0.1068  0.8239
  182MOL0     O24438   3.053  11.022   1.117  0.7743 -0.5504  0.2283
  182MOL0     C24439   3.081  10.949   1.002 -0.3646  0.2064  0.4991
  182MOL0     C24440   2.980  10.857   0.961 -0.4826 -0.4390  0.0618
  182MOL0     C24441   2.984  10.770   0.851 -0.0369 -0.9519  0.8689
  182MOL0     C24442   3.096  10.778   0.768  1.1174  0.3413 -0.0946
  182MOL0     O24443   3.100  10.703   0.652 -0.0321 -0.4029 -0.3175
  182MOL0     C24444   2.980  10.635   0.605  0.2377  1.0854  0.8617
  182MOL0     C24445   2.949  10.493   0.661  0.0133 -0.4910 -0.0861
  182MOL0     C24446   3.046  10.386   0.604 -0.4979 -0.0399  0.3112
  182MOL0     C24447   3.189  10.390   0.666 -0.4484  0.8224 -0.1356
  182MOL0     C24448   3.257  10.258   0.628 -0.2500 -0.2825 -0.1028
  182MOL0     C24449   3.395  10.241   0.699 -0.7425  0.1427 -0.5027
  182MOL0     C24450   3.497  10.347   0.647 -0.2437  1.0786  0.1930
  182MOL0     C24451   3.527  10.465   0.742  0.2201  0.5981  1.0310
  182MOL0     N24452   3.576  10.583   0.676 -0.1170  0.3970  0.3556
  182MOL0     C24453   3.669  10.584   0.577 -0.0291 -0.0917 -0.2672
  182MOL0     C24454   3.698  10.720   0.585  1.0050 -0.0756  0.1586
  182MOL0     C24455   3.818  10.782   0.505  0.6313 -0.7282  0.2159
  182MOL0     C24456   3.774  10.884   0.400 -1.0287  0.5286 -0.7011
  182MOL0     C24457   3.887  10.945   0.330 -0.2965  0.4527 -0.0947
  182MOL0     C24458   3.846  11.064   0.246  0.9069 -0.1916 -0.2177
  182MOL0     O24459   3.764  11.016   0.132 -0.1071  0.1496 -0.6758
  182MOL0     C24460   3.632  11.069   0.140 -0.2786 -0.5016 -0.6134
  182MOL0     C24461   3.602  11.205   0.157  0.0646  1.2695 -0.0037
  182MOL0     C24462   3.475  11.259   0.159  0.0675 -0.8526  0.2031
  182MOL0     C24463   3.370  11.169   0.130 -0.4525  0.1422 -0.3003
  182MOL0     C24464   3.237  11.225   0.124  0.5983  0.1596  0.8304
  182MOL0     O24465   3.138  11.136   0.097  0.4654  0.7355 -0.2405
  182MOL0     C24466   3.013  11.158   0.033 -0.1799 -0.5382  0.7965
  182MOL0     C24467   2.948  11.050   0.003 -0.2188  0.6213  0.4708
  182MOL0     C24468   2.824  11.041  -0.047 -0.2196 -1.0337  0.0045
  182MOL0     C24469   2.756  11.157  -0.071 -0.2746  0.3621 -0.6071
  182MOL0     O24470   2.632  11.160  -0.115 -0.3126 -0.2818 -0.0326
  182MOL0     C24471   2.625  11.170  -0.256 -0.9111  0.9677  0.4390
  182MOL0     C24472   2.619  11.309  -0.320  0.5405 -0.4203  0.3571
  182MOL0     C24473   2.482  11.383  -0.292  0.3234  0.7502 -0.0045
  182MOL0     C24474   2.491  11.533  -0.325 -0.2215 -0.9841  0.5742
  182MOL0     C24475   2.367  11.621  -0.296 -0.3881  0.3059  0.4624
  182MOL0     C24476   2.342  11.618  -0.143 -0.7940  0.2982 -0.9628
  182MOL0     C24477   2.218  11.698  -0.102 -0.4187 -0.7474 -0.6899
  182MOL0     C24478   2.179  11.682   0.039  0.6464 -0.2739 -0.0043
  182MOL0    Cl24479   2.056  11.807   0.064  0.3764 -0.0635  0.1014
  182MOL0     C24480   2.822  11.284  -0.044  0.4727  0.6412  0.8070
  182MOL0     C24481   2.951  11.283   0.012  1.0609 -0.4122  0.7398
  182MOL0     O24482   3.224  11.346   0.112 -0.2987 -0.0978  0.2032
  182MOL0     C24483   3.401  11.028   0.121  0.0577 -0.1236  0.6001
  182MOL0     C24484   3.526  10.981   0.114 -0.3564  0.1140 -1.3094
  182MOL0     N24485   3.600  10.787   0.656 -0.2121  0.0138  0.5094
  182MOL0     N24486   3.525  10.702   0.704 -0.0784 -0.0797 -0.1837
  182MOL0     C24487   3.200  10.863   0.803 -0.3683  0.3040  0.0084
  182MOL0     C24488   3.199  10.946   0.925  0.4495  0.4125 -0.9971
  182MOL0     C24489   3.010  11.228   1.209 -0.1343  0.2145  0.1468
  182MOL0     C24490   2.906  11.163   1.280  0.2241  0.3017 -0.4958
  182MOL0     C24491   2.846  11.239   1.377 -0.2598 -0.2485 -1.0744
  182MOL0     C24492   2.871  11.372   1.405  0.3154  0.3611 -0.7723
  182MOL0     O24493   2.801  11.420   1.512  0.2578 -0.5180  0.1184
  182MOL0     C24494   2.808  11.560   1.533 -0.2280  0.6359 -0.4800
  182MOL0     C24495   2.736  11.594   1.663  0.5637  0.5318  0.9165
  182MOL0     C24496   2.612  11.505   1.688 -0.1041  0.6544  0.4872
  182MOL0     C24497   2.528  11.551   1.812  0.4201 -0.6326 -0.2417
  182MOL0     C24498   2.593  11.526   1.937 -0.5981  0.9496  0.0161
  182MOL0     C24499   2.635  11.511   2.046  0.6144  0.3711 -0.0317
  182MOL0     C24500   2.986  11.433   1.345 -0.8709  0.6479 -0.1940
  182MOL0     C24501   3.044  11.364   1.233 -0.6462 -0.2096  0.5607
  182MOL0     C24502   3.153  11.445   1.163 -0.5942  0.1222  0.2073
  182MOL0     H24503   2.898  10.848   1.032  1.2018 -2.5619  1.9081
  182MOL0     H24504   2.901  10.701   0.839 -0.3407 -0.2418 -1.7279
  182MOL0     H24505   2.898  10.706   0.615  1.0400  1.9501  1.4719
  182MOL0     H24506   2.978  10.625   0.496 -3.8036  0.2270  0.8453
  182MOL0     H24507   2.845  10.472   0.634 -0.1303  1.2121 -0.9758
  182MOL0     H24508   2.947  10.490   0.770 -3.3361 -0.9183 -0.0532
  182MOL0     H24509   3.055  10.395   0.496  2.8871  0.0154  0.4904
  182MOL0     H24510   3.004  10.288   0.628 -1.1514 -0.0832 -0.9474
  182MOL0     H24511   3.249  10.472   0.626 -1.4190  1.9578  0.6455
  182MOL0     H24512   3.176  10.395   0.775 -1.1194 -1.6125 -0.0364
  182MOL0     H24513   3.187  10.185   0.669 -1.3811  2.3763  3.2233
  182MOL0     H24514   3.261  10.240   0.520 -1.3973 -0.9732 -0.0490
  182MOL0     H24515   3.376  10.251   0.807 -0.4010  3.1689 -0.6325
  182MOL0     H24516   3.455  10.152   0.681  1.4658  0.4748  3.9015
  182MOL0     H24517   3.459  10.396   0.557  3.3871  2.2662 -0.8754
  182MOL0     H24518   3.590  10.306   0.604 -1.2689 -0.1281 -1.0060
  182MOL0     H24519   3.433  10.489   0.792  1.5102 -0.0215  3.9379
  182MOL0     H24520   3.594  10.435   0.823 -1.4930 -0.3021  2.1658
  182MOL0     H24521   3.728  10.510   0.523 -0.3197 -0.3669 -0.2109
  182MOL0     H24522   3.893  10.825   0.572  1.6789  0.2925 -1.5446
  182MOL0     H24523   3.879  10.700   0.466  2.4064  0.0236  1.2976
  182MOL0     H24524   3.713  10.839   0.321  1.4454 -0.2444 -2.2686
  182MOL0     H24525   3.714  10.957   0.455  1.4679  2.6189 -0.6123
  182MOL0     H24526   3.945  10.876   0.268  1.6261 -0.5930  2.6820
  182MOL0     H24527   3.961  10.984   0.401  0.2178 -1.8643  0.7116
  182MOL0     H24528   3.930  11.109   0.194  0.8647 -1.2409 -1.2358
  182MOL0     H24529   3.808  11.143   0.311 -0.3376 -1.3498  0.5243
  182MOL0     H24530   3.679  11.282   0.160 -0.8726  2.2231  0.7800
  182MOL0     H24531   3.460  11.364   0.178  0.3335 -0.5098 -1.3152
  182MOL0     H24532   2.995  10.956   0.029 -1.4481 -0.5918 -1.4288
  182MOL0     H24533   2.790  10.941  -0.069  1.8864 -1.7616 -0.0712
  182MOL0     H24534   2.710  11.119  -0.303 -0.9520 -0.7807  2.1449
  182MOL0     H24535   2.533  11.120  -0.285  1.0467 -2.2119 -0.7755
  182MOL0     H24536   2.702  11.370  -0.284 -0.3159  3.5141 -3.4943
  182MOL0     H24537   2.638  11.311  -0.428  1.0228 -2.0371  0.3797
  182MOL0     H24538   2.407  11.343  -0.361 -0.1921  0.6023  0.6406
  182MOL0     H24539   2.443  11.354  -0.194 -0.1348 -3.9919 -1.3423
  182MOL0     H24540   2.508  11.537  -0.433 -4.2117 -1.2524 -0.2272
  182MOL0     H24541   2.578  11.569  -0.269 -0.2881 -0.9416  0.6512
  182MOL0     H24542   2.278  11.576  -0.339  0.0883 -1.5565  1.3227
  182MOL0     H24543   2.387  11.716  -0.347 -2.9642  0.1654 -0.9386
  182MOL0     H24544   2.340  11.515  -0.106  2.4696 -0.0470 -1.4046
  182MOL0     H24545   2.426  11.664  -0.089 -0.4552 -1.5315  0.1471
  182MOL0     H24546   2.133  11.669  -0.165 -4.2837  3.7809  1.8031
  182MOL0     H24547   2.236  11.805  -0.117 -1.3162 -0.5462 -0.4013
  182MOL0     H24548   2.137  11.582   0.053  1.1860 -0.8009 -1.8777
  182MOL0     H24549   2.259  11.691   0.112 -1.3394  0.0576  2.2569
  182MOL0     H24550   2.763  11.376  -0.048  2.2137  1.8472  1.6073
  182MOL0     H24551   3.006  11.376   0.027 -0.4335  0.3456  1.7947
  182MOL0     H24552   3.321  10.955   0.115  0.5593 -0.5781 -1.6309
  182MOL0     H24553   3.529  10.874   0.097  0.2251 -0.3990  1.4739
  182MOL0     H24554   3.287  10.861   0.738 -2.4592 -0.2617 -2.9908
  182MOL0     H24555   3.285  11.007   0.950 -0.8860  1.5685  1.0385
  182MOL0     H24556   2.875  11.059   1.278  0.6789  0.1511 -2.9791
  182MOL0     H24557   2.761  11.191   1.426 -0.4476 -2.3239 -3.2763
  182MOL0     H24558   2.762  11.609   1.447  0.6515  0.8084 -0.8628
  182MOL0     H24559   2.914  11.584   1.545  0.5765 -2.3900 -0.8255
  182MOL0     H24560   2.703  11.699   1.660 -0.1670  0.3130  0.9898
  182MOL0     H24561   2.808  11.571   1.742  1.9623 -2.9126 -1.1722
  182MOL0     H24562   2.639  11.400   1.703 -0.0548  0.0675 -2.8385
  182MOL0     H24563   2.546  11.529   1.605 -0.6051 -0.6246  0.4886
  182MOL0     H24564   2.490  11.653   1.794 -0.6663 -1.1743 -1.1530
  182MOL0     H24565   2.436  11.492   1.817 -0.1196  0.3065  1.8199
  182MOL0     H24566   2.673  11.493   2.145 -1.9690  0.5517  1.0504
  182MOL0     H24567   3.022  11.532   1.373 -2.9361  0.8550  2.0020
  182MOL0     H24568   3.146  11.452   1.054  3.1526  2.9891 -0.0530
  182MOL0     H24569   3.143  11.551   1.185  0.2396 -0.0043  1.2553
  182MOL0     H24570   3.252  11.414   1.199  0.3083  2.7679  0.1837
  183MOL0     O24571   3.307   6.820  10.383  0.6955  0.0891 -0.3619
  183MOL0     C24572   3.336   6.906  10.465 -0.0922 -0.0238  0.3670
  183MOL0     O24573   3.321   6.904  10.595 -0.1972  0.0057  0.1779
  183MOL0     C24574   3.197   6.859  10.626  0.2008 -0.5508 -0.6633
  183MOL0     C24575   3.178   6.727  10.666 -0.1964  0.3036 -0.1347
  183MOL0     C24576   3.048   6.688  10.707  0.2029 -0.4514  0.6045
  183MOL0     C24577   2.944   6.780  10.713  0.2708  0.2970 -0.3816
  183MOL0     O24578   2.811   6.745  10.746 -0.1268 -0.2791  0.2530
  183MOL0     C24579   2.730   6.828  10.829  0.0294  0.0770 -0.1134
  183MOL0     C24580   2.644   6.747  10.918  0.8754  0.3578 -0.1934
  183MOL0     C24581   2.561   6.838  11.004 -0.0528 -0.4513  0.4127
  183MOL0     C24582   2.432   6.767  11.060 -0.2755  0.1460  0.8344
  183MOL0     C24583   2.341   6.880  11.128 -0.4572 -0.5435  0.0555
  183MOL0     C24584   2.187   6.834  11.153 -0.4731  0.0573 -0.0168
  183MOL0     C24585   2.098   6.923  11.234  0.2431 -0.3844  0.4279
  183MOL0     C24586   1.977   6.858  11.289  0.0558 -0.0393 -0.8647
  183MOL0     N24587   1.876   6.821  11.198  0.1027 -0.0858  0.1760
  183MOL0     C24588   1.871   6.702  11.143  0.8585  0.5598 -0.8467
  183MOL0     C24589   1.759   6.695  11.067 -0.1178 -0.0440  0.7197
  183MOL0     C24590   1.718   6.583  10.988 -0.7094 -0.3760  0.0476
  183MOL0     C24591   1.580   6.525  11.029  0.0014  0.9212 -0.6651
  183MOL0     C24592   1.541   6.410  10.943  0.1033 -0.5902  1.0107
  183MOL0     C24593   1.577   6.425  10.791 -0.1975 -0.2469  0.2526
  183MOL0     O24594   1.707   6.368  10.770 -0.3705  0.8206  0.0909
  183MOL0     C24595   1.713   6.232  10.767  0.0675  0.1777 -0.5102
  183MOL0     C24596   1.630   6.149  10.693  0.3526  0.1684 -0.1918
  183MOL0     C24597   1.646   6.013  10.693 -1.4688  0.0570 -0.8872
  183MOL0     C24598   1.755   5.947  10.754 -0.2412 -0.2773  0.7434
  183MOL0     C24599   1.774   5.806  10.734 -0.0861 -0.0120  0.2628
  183MOL0     O24600   1.694   5.746  10.637  0.3723 -0.8278 -0.1002
  183MOL0     C24601   1.675   5.609  10.655  0.4529 -0.8813  0.2108
  183MOL0     C24602   1.749   5.519  10.584 -0.1433  0.2153  0.8108
  183MOL0     C24603   1.732   5.375  10.597  0.1070  0.2010  0.1275
  183MOL0     C24604   1.629   5.331  10.675  1.2016  0.8892  0.3676
  183MOL0     O24605   1.609   5.196  10.695 -1.0199  0.0188 -0.1245
  183MOL0     C24606   1.722   5.127  10.770  0.0770 -0.5294 -0.3486
  183MOL0     C24607   1.708   4.981  10.757 -0.8347  0.6851 -0.3993
  183MOL0     C24608   1.588   4.927  10.836  0.1797  0.3690  0.1605
  183MOL0     C24609   1.568   4.781  10.790 -0.0853  0.5300 -0.2999
  183MOL0     C24610   1.432   4.735  10.825 -1.2784  0.6984 -0.3526
  183MOL0     C24611   1.416   4.587  10.812  0.2124 -1.1436  0.5812
  183MOL0     C24612   1.279   4.549  10.859  0.0807  1.1081  0.6434
  183MOL0     C24613   1.256   4.398  10.858  0.5709  0.0400 -0.0007
  183MOL0    Cl24614   1.362   4.306  10.959 -0.0943  0.2358 -0.0523
  183MOL0     C24615   1.549   5.416  10.756  0.1928 -0.2504 -0.6164
  183MOL0     C24616   1.578   5.555  10.741  1.1035  0.3162 -0.3664
  183MOL0     O24617   1.860   5.752  10.803 -0.3127 -0.1272 -0.4012
  183MOL0     C24618   1.837   6.025  10.843 -0.1553 -0.2060  0.3439
  183MOL0     C24619   1.818   6.167  10.843  0.3524  0.0284  1.7237
  183MOL0     N24620   1.710   6.826  11.062 -0.2583  0.0502  0.0042
  183MOL0     N24621   1.773   6.902  11.147 -1.2200 -0.7286  0.3123
  183MOL0     C24622   2.966   6.916  10.688  0.3084  0.3568  0.2094
  183MOL0     C24623   3.093   6.956  10.647 -0.9349  0.1653  0.4453
  183MOL0     C24624   3.430   7.015  10.423  0.4565 -0.3622  0.1360
  183MOL0     C24625   3.497   7.081  10.524  0.6081 -0.6675 -0.0463
  183MOL0     C24626   3.570   7.198  10.506 -0.6801  0.4894  0.6692
  183MOL0     C24627   3.590   7.245  10.376  0.7890 -0.5478 -0.8261
  183MOL0     O24628   3.675   7.360  10.371  0.4464 -0.2239  0.1136
  183MOL0     C24629   3.696   7.418  10.248 -0.0632 -0.6780  0.9769
  183MOL0     C24630   3.768   7.550  10.255 -0.4564  0.1953 -0.0724
  183MOL0     C24631   3.659   7.658  10.276  0.2656  0.3226 -0.3087
  183MOL0     C24632   3.714   7.793  10.263  0.0634 -0.7909  0.8551
  183MOL0     C24633   3.834   7.825  10.337 -0.3757 -0.1409 -0.4263
  183MOL0     C24634   3.931   7.866  10.403 -0.4818  0.0902  0.0954
  183MOL0     C24635   3.533   7.178  10.263 -0.9762  1.2721 -0.0032
  183MOL0     C24636   3.454   7.068  10.286 -0.5592  0.4993  0.1849
  183MOL0     C24637   3.387   7.006  10.162 -0.4319  0.0747  0.0461
  183MOL0     H24638   3.253   6.649  10.655 -1.5925 -1.5593  2.4538
  183MOL0     H24639   3.020   6.583  10.714 -2.1039 -0.2596 -2.9571
  183MOL0     H24640   2.799   6.894  10.881  4.2821 -2.8051 -1.5013
  183MOL0     H24641   2.657   6.880  10.767 -2.1827 -5.3799 -2.8204
  183MOL0     H24642   2.706   6.682  10.981 -0.4609 -1.2446 -0.4348
  183MOL0     H24643   2.583   6.688  10.848 -0.6437  1.7471 -0.0893
  183MOL0     H24644   2.523   6.925  10.949  0.5633  0.6113  1.6280
  183MOL0     H24645   2.614   6.876  11.091 -3.5507  1.6357  1.8601
  183MOL0     H24646   2.375   6.714  10.983  0.6461  1.1500 -0.5911
  183MOL0     H24647   2.457   6.689  11.133  2.6776 -0.7363 -0.9181
  183MOL0     H24648   2.380   6.891  11.230 -0.6091  0.0324  0.0508
  183MOL0     H24649   2.354   6.976  11.078 -0.7528 -0.2630  0.5141
  183MOL0     H24650   2.142   6.841  11.053  0.8018 -1.4427 -0.7485
  183MOL0     H24651   2.190   6.735  11.198 -0.7535 -0.6968 -1.5663
  183MOL0     H24652   2.063   7.002  11.166 -0.0061  2.4932  3.6173
  183MOL0     H24653   2.149   6.975  11.315 -1.0292 -2.8630  2.9907
  183MOL0     H24654   2.001   6.766  11.342  0.2629 -1.3395 -3.1175
  183MOL0     H24655   1.935   6.927  11.363 -0.4511 -0.8914 -0.3439
  183MOL0     H24656   1.907   6.609  11.184 -2.0785  0.6137  2.3372
  183MOL0     H24657   1.713   6.628  10.889 -0.3737  0.6091  0.4668
  183MOL0     H24658   1.794   6.505  10.975 -0.0707  0.2101  0.2588
  183MOL0     H24659   1.585   6.485  11.131 -0.0030 -2.0330 -1.7284
  183MOL0     H24660   1.492   6.590  11.019 -0.3761  0.4229 -0.6719
  183MOL0     H24661   1.434   6.389  10.949 -1.7249  5.6333 -1.5340
  183MOL0     H24662   1.603   6.328  10.981 -0.6061 -0.8819  1.5634
  183MOL0     H24663   1.584   6.533  10.774  0.5864 -0.1753  0.9556
  183MOL0     H24664   1.499   6.394  10.722 -0.4096  0.2790  0.2552
  183MOL0     H24665   1.562   6.192  10.620  2.3001 -0.1327 -2.3106
  183MOL0     H24666   1.588   5.952  10.624  0.7112 -2.3325 -0.7566
  183MOL0     H24667   1.827   5.553  10.517 -1.3077  1.3895 -0.0063
  183MOL0     H24668   1.792   5.306  10.539 -0.7756 -1.0033  0.6218
  183MOL0     H24669   1.819   5.163  10.734  0.6437 -0.5954  1.0557
  183MOL0     H24670   1.726   5.150  10.877  2.5731  0.8718 -0.6623
  183MOL0     H24671   1.705   4.963  10.649 -0.1809 -0.6737 -0.2089
  183MOL0     H24672   1.797   4.936  10.801 -0.9338 -2.7791 -3.3082
  183MOL0     H24673   1.603   4.935  10.944 -4.6170 -2.0514  1.2583
  183MOL0     H24674   1.505   4.994  10.811 -1.6545 -0.4106  3.5287
  183MOL0     H24675   1.643   4.715  10.834 -0.3917 -0.0558 -0.6399
  183MOL0     H24676   1.581   4.770  10.682  1.0106 -2.3524  0.0345
  183MOL0     H24677   1.357   4.788  10.765 -1.5458 -2.3474 -2.9045
  183MOL0     H24678   1.408   4.761  10.929  0.4535 -0.8005  0.4795
  183MOL0     H24679   1.431   4.556  10.708 -1.9126  3.7201 -1.4683
  183MOL0     H24680   1.484   4.531  10.877 -1.8414 -0.8054  3.1779
  183MOL0     H24681   1.201   4.596  10.798 -1.0974  1.6217  2.4253
  183MOL0     H24682   1.272   4.588  10.961  1.7502 -0.3081  1.3488
  183MOL0     H24683   1.154   4.383  10.895  0.3187 -2.1453 -1.3941
  183MOL0     H24684   1.248   4.367  10.754 -1.4575  0.7629 -0.1161
  183MOL0     H24685   1.483   5.375  10.832 -1.7747  1.5005 -1.2822
  183MOL0     H24686   1.530   5.638  10.790  0.0382 -0.4366 -0.0984
  183MOL0     H24687   1.917   5.974  10.895 -1.8423 -1.5051  1.7604
  183MOL0     H24688   1.886   6.223  10.906  0.8775  1.6140 -0.1441
  183MOL0     H24689   2.898   7.000  10.687 -2.7516 -1.9178 -2.3987
  183MOL0     H24690   3.120   7.061  10.637  2.7819 -0.7431 -0.4371
  183MOL0     H24691   3.492   7.054  10.629  2.0062 -0.0680  0.1939
  183MOL0     H24692   3.629   7.246  10.584  0.1731  1.6433 -0.6373
  183MOL0     H24693   3.607   7.443  10.189  0.8109  0.8151  0.2087
  183MOL0     H24694   3.756   7.350  10.186 -0.4770 -0.9964  0.9264
  183MOL0     H24695   3.810   7.574  10.157  1.4271  1.0472  0.8874
  183MOL0     H24696   3.856   7.548  10.320  0.6002  2.3822 -1.3160
  183MOL0     H24697   3.609   7.651  10.373  0.0528 -0.6434 -0.4787
  183MOL0     H24698   3.573   7.646  10.210  1.3186 -2.1590 -1.3448
  183MOL0     H24699   3.737   7.813  10.158  3.0203 -1.2555  1.3495
  183MOL0     H24700   3.639   7.865  10.297  0.8119  0.1152  0.6236
  183MOL0     H24701   4.027   7.893  10.442  0.2553 -0.0836 -1.5232
  183MOL0     H24702   3.562   7.199  10.161 -1.0154 -1.0542 -0.5311
  183MOL0     H24703   3.461   6.943  10.112  0.1185 -1.7130  2.8861
  183MOL0     H24704   3.289   6.962  10.184  0.2721 -1.3097  0.5259
  183MOL0     H24705   3.373   7.081  10.084 -1.1482 -0.9555 -0.8628
  184MOL0     O24706   8.314   8.646   4.169 -0.2175 -0.4690  0.2324
  184MOL0     C24707   8.303   8.672   4.285 -0.1931  0.9279 -0.5920
  184MOL0     O24708   8.180   8.679   4.346  0.4803 -0.1053  0.0885
  184MOL0     C24709   8.065   8.660   4.278 -0.7703 -0.0370  0.4847
  184MOL0     C24710   7.964   8.600   4.356  0.2026  0.3779  0.0654
  184MOL0     C24711   7.834   8.586   4.307  0.4566  0.3651 -0.3261
  184MOL0     C24712   7.799   8.631   4.171 -0.4239  0.6273  0.2759
  184MOL0     O24713   7.676   8.626   4.121  0.4052 -0.4520 -0.1637
  184MOL0     C24714   7.623   8.489   4.119  0.6395 -0.0075  0.1257
  184MOL0     C24715   7.553   8.449   3.992 -0.3740 -0.2524 -0.5881
  184MOL0     C24716   7.658   8.459   3.884 -0.2545 -0.4702 -0.6997
  184MOL0     C24717   7.597   8.410   3.751  0.5051  0.7561  0.2040
  184MOL0     C24718   7.690   8.425   3.636  0.6623 -0.8482  0.4719
  184MOL0     C24719   7.636   8.368   3.506 -0.2464 -0.5442  0.4172
  184MOL0     C24720   7.679   8.429   3.375 -0.5310 -0.1111  0.6510
  184MOL0     C24721   7.824   8.383   3.336  0.4599  0.0017  0.1585
  184MOL0     N24722   7.847   8.439   3.203 -0.4128  0.7801 -0.0686
  184MOL0     C24723   7.843   8.364   3.082 -0.5583  0.0157 -0.5675
  184MOL0     C24724   7.900   8.441   2.982 -0.0925  0.0620 -0.6814
  184MOL0     C24725   7.895   8.398   2.840 -0.3328  1.2419  0.6280
  184MOL0     C24726   7.746   8.382   2.786 -0.1874 -0.1047  1.1537
  184MOL0     C24727   7.751   8.345   2.636  0.6131 -0.0776 -0.8805
  184MOL0     C24728   7.790   8.463   2.548  0.0520 -0.0004  0.4112
  184MOL0     O24729   7.795   8.416   2.416 -1.0857  0.2817 -0.4637
  184MOL0     C24730   7.904   8.344   2.371 -0.3327 -0.3340  0.3097
  184MOL0     C24731   7.899   8.310   2.235 -0.3320  0.5435  0.2701
  184MOL0     C24732   8.006   8.230   2.182  0.3079 -0.5589  0.4267
  184MOL0     C24733   8.117   8.193   2.258 -1.2473 -0.1165 -0.1689
  184MOL0     C24734   8.229   8.111   2.197  0.4863 -0.0406  0.5089
  184MOL0     O24735   8.327   8.075   2.279 -0.9691  0.2889 -0.4668
  184MOL0     C24736   8.442   8.003   2.235 -0.3410 -0.1298  0.4260
  184MOL0     C24737   8.461   7.929   2.119 -0.3363 -0.1758  0.7858
  184MOL0     C24738   8.589   7.870   2.089 -1.4677  0.2241  0.3422
  184MOL0     C24739   8.697   7.893   2.176  0.1843 -0.2171 -0.6057
  184MOL0     O24740   8.807   7.818   2.151  0.2131  0.3364  0.4100
  184MOL0     C24741   8.920   7.812   2.244 -1.0354  0.4110 -0.5889
  184MOL0     C24742   9.040   7.744   2.183 -0.6750  0.2662 -0.2661
  184MOL0     C24743   9.042   7.595   2.207  0.0197 -0.6995  0.8344
  184MOL0     C24744   9.173   7.527   2.165  0.2370 -0.2034 -0.4719
  184MOL0     C24745   9.288   7.555   2.272  0.0033 -0.4492 -0.0294
  184MOL0     C24746   9.409   7.625   2.200 -0.1854 -0.0740 -0.1858
  184MOL0     C24747   9.519   7.641   2.305 -0.7817  0.0757  0.0766
  184MOL0     C24748   9.627   7.731   2.237  0.1508 -0.1518 -0.1895
  184MOL0    Cl24749   9.675   7.659   2.081 -0.1489 -0.0797  0.0428
  184MOL0     C24750   8.680   7.962   2.295 -0.4758  0.8632 -0.2752
  184MOL0     C24751   8.555   8.023   2.319 -0.2257  0.1033 -0.3187
  184MOL0     O24752   8.215   8.081   2.076  0.7934  0.4031 -0.6081
  184MOL0     C24753   8.119   8.227   2.396 -0.1827 -0.0452  0.5766
  184MOL0     C24754   8.014   8.304   2.443 -0.3313 -0.4332 -0.7982
  184MOL0     N24755   7.935   8.559   3.036 -0.5337  0.3231  0.2623
  184MOL0     N24756   7.907   8.560   3.166  0.7060 -0.1314 -0.1747
  184MOL0     C24757   7.900   8.691   4.097 -0.2307  0.2085  0.8128
  184MOL0     C24758   8.031   8.704   4.147  0.2679  0.7020  0.2343
  184MOL0     C24759   8.428   8.679   4.368 -0.1609 -0.2189  0.5252
  184MOL0     C24760   8.545   8.640   4.311 -0.5416 -0.2102 -0.3083
  184MOL0     C24761   8.667   8.646   4.375 -0.8107  0.0585 -1.1789
  184MOL0     C24762   8.677   8.691   4.505  0.9729 -0.5806 -0.3826
  184MOL0     O24763   8.802   8.694   4.560  0.0462 -0.0268 -0.8010
  184MOL0     C24764   8.840   8.599   4.667  0.5445 -0.3703 -0.1188
  184MOL0     C24765   8.888   8.677   4.801  0.1782  0.3438  0.7325
  184MOL0     C24766   8.989   8.791   4.771  0.6510  0.3162  0.0861
  184MOL0     C24767   9.127   8.734   4.732 -0.3970  0.8186  0.8501
  184MOL0     C24768   9.241   8.817   4.775 -0.2778  0.2353  0.6298
  184MOL0     C24769   9.330   8.893   4.810  0.4897 -0.7210  0.0127
  184MOL0     C24770   8.563   8.718   4.574  0.2788 -0.0294  0.8757
  184MOL0     C24771   8.435   8.711   4.506 -0.0399 -0.2371 -0.8604
  184MOL0     C24772   8.312   8.735   4.593 -0.1615 -0.2778 -0.6068
  184MOL0     H24773   7.983   8.563   4.457  0.4327 -0.2633 -0.2103
  184MOL0     H24774   7.763   8.524   4.361  0.8527  1.2315  1.2700
  184MOL0     H24775   7.705   8.418   4.131  2.1687  1.3957 -1.3749
  184MOL0     H24776   7.565   8.467   4.209  0.4331 -3.1769 -0.6934
  184MOL0     H24777   7.471   8.520   3.978 -1.7997 -1.7735 -0.3033
  184MOL0     H24778   7.525   8.343   3.991 -1.9542  0.1375 -1.4823
  184MOL0     H24779   7.727   8.379   3.909 -0.7228 -0.6304  0.1115
  184MOL0     H24780   7.708   8.555   3.872  1.4476 -1.3467 -0.8573
  184MOL0     H24781   7.569   8.305   3.763  1.8722  0.4972  1.4240
  184MOL0     H24782   7.506   8.469   3.742  3.1929  5.3738 -0.1120
  184MOL0     H24783   7.718   8.531   3.629  0.6656 -0.9705 -4.5238
  184MOL0     H24784   7.785   8.386   3.672 -0.9874 -1.8843  4.2400
  184MOL0     H24785   7.650   8.260   3.500  0.4599 -0.3880 -1.5420
  184MOL0     H24786   7.529   8.383   3.520 -0.0268  1.0089  0.5928
  184MOL0     H24787   7.670   8.538   3.375 -3.4527 -0.2624 -1.1021
  184MOL0     H24788   7.613   8.391   3.297  1.5962 -1.2152 -0.7184
  184MOL0     H24789   7.891   8.429   3.410 -1.3227 -1.5493  2.9047
  184MOL0     H24790   7.837   8.275   3.336  2.8202  0.2224 -0.7486
  184MOL0     H24791   7.801   8.264   3.080  1.9320 -1.1397  0.9785
  184MOL0     H24792   7.953   8.463   2.775  0.0537  0.2223 -0.0639
  184MOL0     H24793   7.937   8.298   2.824 -2.5826  0.4960 -1.2696
  184MOL0     H24794   7.694   8.301   2.838  0.7462 -0.2473  1.9081
  184MOL0     H24795   7.697   8.479   2.801  0.4960  0.3614  0.4553
  184MOL0     H24796   7.651   8.320   2.602 -0.2533  1.1701  0.6044
  184MOL0     H24797   7.820   8.261   2.620  0.5900  0.0348 -1.5663
  184MOL0     H24798   7.883   8.512   2.577 -0.5825  2.8325 -1.8584
  184MOL0     H24799   7.730   8.552   2.567  2.1664  0.7455  4.8239
  184MOL0     H24800   7.836   8.343   2.153 -1.4854 -5.2405 -1.6546
  184MOL0     H24801   8.014   8.224   2.074  0.8216 -2.7698  0.5259
  184MOL0     H24802   8.376   7.911   2.055 -0.8557  0.2567  1.3401
  184MOL0     H24803   8.602   7.816   1.996 -1.8364 -1.5752  1.2800
  184MOL0     H24804   8.955   7.912   2.271 -1.1962  1.2454 -3.1749
  184MOL0     H24805   8.905   7.748   2.331 -2.7367 -1.8108 -2.3848
  184MOL0     H24806   9.030   7.744   2.074 -1.7576 -5.1603 -0.4387
  184MOL0     H24807   9.133   7.790   2.218 -0.3013 -0.2834 -0.5267
  184MOL0     H24808   9.015   7.563   2.308  0.4897 -0.2377  1.1063
  184MOL0     H24809   8.964   7.553   2.141 -0.5769  1.6052 -0.0137
  184MOL0     H24810   9.193   7.571   2.067 -3.6174 -1.4533 -2.0030
  184MOL0     H24811   9.158   7.419   2.149 -2.1801 -0.3232  1.9099
  184MOL0     H24812   9.315   7.459   2.316 -0.0128 -0.9833 -1.1562
  184MOL0     H24813   9.235   7.607   2.352 -3.7635 -2.9550 -0.6531
  184MOL0     H24814   9.443   7.564   2.117  3.7248  1.1065  0.3695
  184MOL0     H24815   9.376   7.725   2.169  0.0745  1.2161  3.2379
  184MOL0     H24816   9.571   7.547   2.328 -2.2851 -0.7801  0.1153
  184MOL0     H24817   9.491   7.679   2.404  0.0735 -1.1230  0.7973
  184MOL0     H24818   9.577   7.828   2.226  1.1506  0.3622 -0.3039
  184MOL0     H24819   9.708   7.756   2.306  2.6974  0.6166 -3.2434
  184MOL0     H24820   8.753   7.951   2.375 -1.7044 -0.8074  0.6757
  184MOL0     H24821   8.545   8.072   2.416 -1.4619 -0.8500  0.0593
  184MOL0     H24822   8.209   8.206   2.453  1.1338  1.7374 -0.7602
  184MOL0     H24823   8.029   8.332   2.547 -1.8556 -2.7529  0.1311
  184MOL0     H24824   7.881   8.734   3.999  2.0930  2.9000  1.4131
  184MOL0     H24825   8.108   8.749   4.085  1.8653 -0.9553  0.9384
  184MOL0     H24826   8.529   8.593   4.214 -6.8894  0.1439  0.1440
  184MOL0     H24827   8.761   8.617   4.329 -1.7704 -0.0513 -3.2073
  184MOL0     H24828   8.929   8.537   4.653 -2.0441 -5.3208  2.4936
  184MOL0     H24829   8.757   8.529   4.682  0.6392 -0.7269 -1.2220
  184MOL0     H24830   8.934   8.611   4.874  0.8583  2.4885  2.3502
  184MOL0     H24831   8.806   8.725   4.856  1.0495  1.7945  0.8010
  184MOL0     H24832   8.997   8.852   4.861 -0.5874  1.4930 -0.5457
  184MOL0     H24833   8.953   8.860   4.693 -1.4795  1.9737  2.3940
  184MOL0     H24834   9.142   8.636   4.779 -0.7676  1.4995  2.4459
  184MOL0     H24835   9.120   8.721   4.624  0.0994 -0.6924  0.9719
  184MOL0     H24836   9.422   8.941   4.838 -1.1362  2.0752  1.0026
  184MOL0     H24837   8.569   8.727   4.682  0.6644 -4.5430  1.4105
  184MOL0     H24838   8.237   8.790   4.537  1.0691  0.7773 -1.2536
  184MOL0     H24839   8.269   8.635   4.609 -0.4637 -0.3986 -2.0393
  184MOL0     H24840   8.342   8.784   4.686  4.5739 -0.8675 -1.5766
  185MOL0     O24841   4.536   5.254   3.515 -0.4239  0.3988  0.7779
  185MOL0     C24842   4.461   5.246   3.419  0.3153  0.0692  1.0154
  185MOL0     O24843   4.469   5.310   3.299  0.9879 -0.4858 -0.0362
  185MOL0     C24844   4.562   5.401   3.277  0.2627 -0.1295 -0.3058
  185MOL0     C24845   4.535   5.541   3.312 -0.2352  0.1176  0.7469
  185MOL0     C24846   4.612   5.645   3.281 -1.1196  0.4540  1.1384
  185MOL0     C24847   4.740   5.618   3.220 -0.4254  0.1216 -0.3690
  185MOL0     O24848   4.817   5.721   3.189 -0.3300 -0.0494  0.6682
  185MOL0     C24849   4.942   5.704   3.122 -0.2884 -0.0565 -0.5602
  185MOL0     C24850   5.011   5.840   3.095 -0.5512 -0.4429  0.1017
  185MOL0     C24851   4.916   5.946   3.032  1.3539  0.1289 -0.1033
  185MOL0     C24852   4.926   5.940   2.879  0.0051  0.3076  0.2853
  185MOL0     C24853   4.868   6.061   2.809 -0.2864  0.8292 -0.3441
  185MOL0     C24854   4.919   6.093   2.671  0.1046 -0.4998  1.1329
  185MOL0     C24855   4.866   6.228   2.631  0.1759 -0.5863  0.1297
  185MOL0     C24856   4.708   6.236   2.636  0.1155  0.0766  1.0782
  185MOL0     N24857   4.656   6.358   2.562  0.7839 -0.4467 -0.4717
  185MOL0     C24858   4.686   6.397   2.431  0.1792 -0.0937 -0.5344
  185MOL0     C24859   4.637   6.523   2.422  0.9240 -0.5465  1.0117
  185MOL0     C24860   4.635   6.591   2.287  0.5625  0.2802 -0.4473
  185MOL0     C24861   4.758   6.681   2.249 -0.4918  0.8055 -0.1978
  185MOL0     C24862   4.810   6.762   2.361  0.2786  0.1444 -0.0672
  185MOL0     C24863   4.913   6.871   2.322 -0.2957  0.1397 -0.3205
  185MOL0     O24864   4.848   6.972   2.243  0.1924  0.3065 -0.2316
  185MOL0     C24865   4.756   7.054   2.291  0.8381 -0.0247 -0.8379
  185MOL0     C24866   4.666   7.109   2.197 -0.6505  0.1254 -0.0878
  185MOL0     C24867   4.581   7.210   2.236 -0.2508 -0.5038  0.3523
  185MOL0     C24868   4.584   7.252   2.378 -0.0527 -0.4126  0.4043
  185MOL0     C24869   4.492   7.348   2.426 -0.1727  0.0842  0.0087
  185MOL0     O24870   4.448   7.324   2.549  0.3019 -0.2201  0.3577
  185MOL0     C24871   4.344   7.392   2.596  0.4808 -0.1731  0.7566
  185MOL0     C24872   4.223   7.317   2.612  0.3665 -0.2622 -0.2049
  185MOL0     C24873   4.116   7.374   2.677 -0.5591  0.2897 -0.2720
  185MOL0     C24874   4.117   7.502   2.726 -0.7462  0.1257 -0.5898
  185MOL0     O24875   4.025   7.543   2.818  0.5472  0.2924  0.4985
  185MOL0     C24876   3.959   7.665   2.787 -0.4488  0.3716  0.1051
  185MOL0     C24877   3.968   7.787   2.885 -0.1040  0.3433 -0.7368
  185MOL0     C24878   3.841   7.878   2.869  0.1002 -0.2143  0.1255
  185MOL0     C24879   3.807   7.963   2.994  0.5970 -1.0990 -0.6346
  185MOL0     C24880   3.745   8.097   2.957 -0.4622 -0.3389  0.2615
  185MOL0     C24881   3.838   8.185   2.885 -0.2120 -0.6578 -0.2945
  185MOL0     C24882   3.766   8.311   2.835  0.1598  0.3565  0.9698
  185MOL0     C24883   3.859   8.433   2.799 -0.2852  1.2766 -0.6428
  185MOL0    Cl24884   3.955   8.375   2.656 -0.0012  0.0202 -0.1982
  185MOL0     C24885   4.229   7.586   2.695  0.2138 -0.3315  0.0293
  185MOL0     C24886   4.343   7.526   2.633  0.4469 -0.0323 -0.7896
  185MOL0     O24887   4.451   7.442   2.362  0.2203  0.4529  0.7632
  185MOL0     C24888   4.677   7.189   2.470  0.8777  0.4690  0.1330
  185MOL0     C24889   4.761   7.092   2.423  0.7879  0.5496  0.1131
  185MOL0     N24890   4.572   6.559   2.536 -0.5623  0.8964  0.1623
  185MOL0     N24891   4.583   6.457   2.622  0.5037 -0.9157  0.2813
  185MOL0     C24892   4.773   5.484   3.199  0.1316 -0.1249 -0.6687
  185MOL0     C24893   4.688   5.378   3.232  0.5536  0.2582 -0.4285
  185MOL0     C24894   4.334   5.164   3.438 -0.3896 -0.1513  0.6457
  185MOL0     C24895   4.322   5.072   3.338 -0.1312 -1.1069 -1.2363
  185MOL0     C24896   4.223   4.976   3.362  0.4684  0.4264  0.0549
  185MOL0     C24897   4.131   4.977   3.472 -1.1956  0.1179 -1.0317
  185MOL0     O24898   4.038   4.885   3.507  0.2114 -0.0269 -0.1522
  185MOL0     C24899   4.023   4.772   3.414  0.0029 -0.1339 -0.3215
  185MOL0     C24900   4.136   4.671   3.425  0.7873  0.4148  0.4215
  185MOL0     C24901   4.091   4.529   3.382  0.2585  0.6064  0.2701
  185MOL0     C24902   4.087   4.493   3.234  0.1846 -0.6230 -1.4605
  185MOL0     C24903   4.201   4.539   3.154  0.0773  0.2292 -0.8566
  185MOL0     C24904   4.284   4.590   3.084  0.8586 -1.5457  0.1189
  185MOL0     C24905   4.144   5.082   3.561  0.1522 -0.7374 -0.0595
  185MOL0     C24906   4.242   5.171   3.549  0.4536 -0.6416  0.7897
  185MOL0     C24907   4.234   5.289   3.641  0.6284 -0.0526 -0.1856
  185MOL0     H24908   4.446   5.573   3.365 -1.4517  2.9031 -2.6046
  185MOL0     H24909   4.599   5.748   3.314 -2.0746 -0.1707  2.7772
  185MOL0     H24910   5.020   5.647   3.173 -1.0463 -1.9937 -1.4959
  185MOL0     H24911   4.933   5.648   3.029 -0.0491  1.8458 -1.7842
  185MOL0     H24912   5.104   5.828   3.040 -0.4572  0.1719  0.1234
  185MOL0     H24913   5.033   5.873   3.197 -0.0882 -1.2072  0.2576
  185MOL0     H24914   4.953   6.044   3.062 -0.8676  1.7806 -2.4315
  185MOL0     H24915   4.811   5.946   3.063  1.2628  0.2576 -0.4123
  185MOL0     H24916   5.030   5.924   2.850 -0.2005 -0.0784 -0.2611
  185MOL0     H24917   4.874   5.847   2.855 -0.1191  0.1097  1.2940
  185MOL0     H24918   4.761   6.040   2.806  0.1109 -1.5636  0.0729
  185MOL0     H24919   4.894   6.146   2.872  0.0404 -0.0318  0.7153
  185MOL0     H24920   5.028   6.102   2.682  0.5871 -2.0973 -1.5653
  185MOL0     H24921   4.898   6.020   2.593  3.2096 -0.7473  0.4023
  185MOL0     H24922   4.897   6.242   2.528 -2.2177 -0.8753 -0.6853
  185MOL0     H24923   4.910   6.308   2.691 -1.0849  0.3647 -0.1772
  185MOL0     H24924   4.672   6.147   2.583  4.7566 -0.9813 -0.7662
  185MOL0     H24925   4.667   6.235   2.738 -1.0938 -1.5289  0.6080
  185MOL0     H24926   4.737   6.339   2.354 -0.8076  1.4880 -2.4726
  185MOL0     H24927   4.636   6.514   2.210 -3.4777 -0.0126 -0.4135
  185MOL0     H24928   4.543   6.651   2.276  0.2630  1.0586  4.3027
  185MOL0     H24929   4.832   6.610   2.211 -0.4107  0.6051  0.3302
  185MOL0     H24930   4.729   6.744   2.164 -1.4075  0.3074 -0.2719
  185MOL0     H24931   4.853   6.693   2.434 -1.4933 -1.7749 -0.7342
  185MOL0     H24932   4.721   6.815   2.397 -0.3760  0.0513 -1.4618
  185MOL0     H24933   4.997   6.827   2.266 -1.3368  1.3830 -3.0195
  185MOL0     H24934   4.959   6.921   2.407  2.8099 -0.7749 -1.3241
  185MOL0     H24935   4.659   7.085   2.092 -1.5595 -0.4045  0.0808
  185MOL0     H24936   4.518   7.256   2.161  0.9556  0.7153  0.0391
  185MOL0     H24937   4.223   7.212   2.585  0.2807 -1.1670  2.8828
  185MOL0     H24938   4.029   7.311   2.693  2.3728 -3.7728  1.2491
  185MOL0     H24939   3.997   7.714   2.698  1.7582  1.9869  1.8314
  185MOL0     H24940   3.856   7.631   2.774  0.6398 -3.2340 -0.1977
  185MOL0     H24941   3.969   7.755   2.990 -1.3988  1.5276 -0.3212
  185MOL0     H24942   4.058   7.845   2.868 -0.2755  2.0336  3.0979
  185MOL0     H24943   3.861   7.951   2.790  0.6059 -0.0322  0.4182
  185MOL0     H24944   3.747   7.824   2.850 -1.1579  0.5802  3.3295
  185MOL0     H24945   3.901   7.977   3.048  2.4078 -2.0494 -3.3426
  185MOL0     H24946   3.742   7.910   3.064  1.3295 -1.5834 -0.3021
  185MOL0     H24947   3.723   8.151   3.050  0.5071  0.7767 -0.1382
  185MOL0     H24948   3.648   8.095   2.907 -0.3805  0.2140  0.0757
  185MOL0     H24949   3.917   8.209   2.957 -0.8636 -0.8392  0.5028
  185MOL0     H24950   3.894   8.144   2.800  1.5717 -0.5057  0.7648
  185MOL0     H24951   3.687   8.334   2.908 -1.2367  0.4974 -0.5127
  185MOL0     H24952   3.707   8.282   2.747  3.2486 -0.0015 -1.1307
  185MOL0     H24953   3.799   8.521   2.775  0.7669  1.9858 -0.6872
  185MOL0     H24954   3.917   8.456   2.888 -0.2744  0.6415 -0.4762
  185MOL0     H24955   4.235   7.692   2.716  0.5495 -0.0392 -1.4236
  185MOL0     H24956   4.426   7.589   2.601  0.7685  1.0572  1.8901
  185MOL0     H24957   4.674   7.208   2.576  1.3131 -2.0345  0.6781
  185MOL0     H24958   4.835   7.044   2.486 -0.9990 -2.3952  0.1681
  185MOL0     H24959   4.868   5.446   3.163  0.3109 -0.6599  0.3245
  185MOL0     H24960   4.701   5.271   3.225 -1.1528  0.1177 -2.4755
  185MOL0     H24961   4.389   5.068   3.253 -0.9335 -0.8381 -1.8971
  185MOL0     H24962   4.213   4.889   3.297  0.9890 -0.8696  1.6555
  185MOL0     H24963   4.018   4.802   3.308  1.4038  3.4432  0.4656
  185MOL0     H24964   3.925   4.730   3.437 -0.3183  0.6226 -0.2706
  185MOL0     H24965   4.158   4.662   3.532 -1.6853 -1.3519  0.8788
  185MOL0     H24966   4.228   4.699   3.373  0.1728  0.1529 -0.8696
  185MOL0     H24967   3.995   4.506   3.429  0.4245  0.6087  0.6128
  185MOL0     H24968   4.155   4.463   3.441 -0.7367  1.0906  1.9844
  185MOL0     H24969   4.089   4.384   3.222 -1.7868 -0.4424 -4.3960
  185MOL0     H24970   3.991   4.532   3.201 -0.0966  0.8204  0.8737
  185MOL0     H24971   4.332   4.660   3.019 -0.1408  1.5751  2.5086
  185MOL0     H24972   4.085   5.090   3.652  4.0108 -0.7515  2.6556
  185MOL0     H24973   4.212   5.253   3.742  0.3008  3.4921  1.1567
  185MOL0     H24974   4.327   5.348   3.642 -0.3043  1.5368 -1.9004
  185MOL0     H24975   4.149   5.353   3.616  1.5872  0.4955 -2.2230
  186MOL0     O24976   3.244   8.690  10.656  0.1161 -0.7057  0.8713
  186MOL0     C24977   3.357   8.733  10.679  0.4762 -0.1868  0.3124
  186MOL0     O24978   3.432   8.677  10.780  0.6160 -0.0330 -0.1607
  186MOL0     C24979   3.392   8.582  10.870  0.0301 -0.0351  1.1055
  186MOL0     C24980   3.259   8.573  10.908 -0.4879 -0.7138  0.1395
  186MOL0     C24981   3.220   8.477  10.990  0.4629 -0.3260 -0.2971
  186MOL0     C24982   3.312   8.387  11.050  0.2182  0.3895 -0.7497
  186MOL0     O24983   3.287   8.307  11.161  0.1772 -0.2871 -0.3721
  186MOL0     C24984   3.175   8.216  11.150  0.8575 -0.1071 -0.1478
  186MOL0     C24985   3.141   8.180  11.285  0.0206 -0.9986 -0.1275
  186MOL0     C24986   3.030   8.072  11.307 -0.1828 -0.3618 -0.4855
  186MOL0     C24987   2.888   8.108  11.267  0.1481  0.7145 -0.0685
  186MOL0     C24988   2.803   7.981  11.272  0.6366  0.5696  1.1705
  186MOL0     C24989   2.658   8.016  11.255  0.4416  0.2325  0.6019
  186MOL0     C24990   2.564   7.899  11.216  0.3571 -0.3649 -0.0222
  186MOL0     C24991   2.581   7.769  11.301 -0.5968  0.5309 -0.8435
  186MOL0     N24992   2.475   7.670  11.274  0.0283 -0.4322  0.4001
  186MOL0     C24993   2.355   7.666  11.342 -0.4235  0.2349 -0.8501
  186MOL0     C24994   2.296   7.560  11.275 -0.5678 -0.6830  0.9574
  186MOL0     C24995   2.155   7.528  11.296  1.5794  0.4377 -0.3140
  186MOL0     C24996   2.113   7.422  11.188 -0.2878  1.0495 -1.1224
  186MOL0     C24997   2.048   7.504  11.069  0.1010  0.5550 -0.3987
  186MOL0     C24998   2.016   7.413  10.953  0.5115 -0.1842  0.1161
  186MOL0     O24999   1.928   7.308  10.988 -0.6543 -0.5377  0.5154
  186MOL0     C25000   1.850   7.247  10.896 -0.2995 -0.3680  0.6988
  186MOL0     C25001   1.888   7.225  10.762  0.5587 -0.1331  0.0623
  186MOL0     C25002   1.802   7.149  10.674  0.4055  0.3116 -0.4109
  186MOL0     C25003   1.683   7.088  10.721 -0.0878 -0.0400  0.7893
  186MOL0     C25004   1.603   6.992  10.641  0.2761 -0.7029  0.5042
  186MOL0     O25005   1.477   6.958  10.685 -0.5168 -0.5170 -0.5540
  186MOL0     C25006   1.389   6.887  10.614 -0.6618 -0.2245  0.0659
  186MOL0     C25007   1.255   6.932  10.597  0.2847  0.4186  0.7504
  186MOL0     C25008   1.161   6.854  10.516 -0.4412 -0.4166 -0.5317
  186MOL0     C25009   1.197   6.735  10.458 -0.1980 -0.3486 -0.5352
  186MOL0     O25010   1.107   6.672  10.388 -0.1622  0.5470 -0.1551
  186MOL0     C25011   1.143   6.595  10.271 -0.4672 -0.2686  0.5611
  186MOL0     C25012   1.024   6.613  10.182 -0.7216 -0.3941 -0.1260
  186MOL0     C25013   1.046   6.588  10.030 -0.1661  0.3197  0.8151
  186MOL0     C25014   1.023   6.442   9.972  0.3309  0.0107 -0.0949
  186MOL0     C25015   1.114   6.337  10.039 -0.3157  0.9045  0.6285
  186MOL0     C25016   1.095   6.204   9.966  0.0327  0.0578  0.7660
  186MOL0     C25017   1.085   6.075  10.047 -0.1024 -0.1370 -0.4884
  186MOL0     C25018   1.139   5.953   9.980  0.7225 -0.0478  0.1275
  186MOL0    Cl25019   1.014   5.904   9.858 -0.0298  0.3662 -0.2103
  186MOL0     C25020   1.332   6.688  10.489  0.2207  0.0407  0.3498
  186MOL0     C25021   1.422   6.760  10.565 -0.3887 -1.5106 -0.7346
  186MOL0     O25022   1.657   6.938  10.550 -0.1736 -0.2321 -0.4301
  186MOL0     C25023   1.655   7.098  10.852 -0.3209  0.8841  0.0203
  186MOL0     C25024   1.741   7.175  10.935  0.5647  0.6266 -0.5234
  186MOL0     N25025   2.374   7.497  11.188 -0.4820 -0.6067  0.6122
  186MOL0     N25026   2.485   7.566  11.180  0.8977 -0.3320 -0.0637
  186MOL0     C25027   3.446   8.391  11.017 -0.3224  0.0812 -0.8822
  186MOL0     C25028   3.478   8.483  10.911 -1.4629 -0.7391  0.0309
  186MOL0     C25029   3.396   8.856  10.598 -0.5593 -0.0010 -0.7730
  186MOL0     C25030   3.483   8.933  10.671  0.0049 -0.9352 -0.8115
  186MOL0     C25031   3.542   9.049  10.608 -0.4035  0.7217 -0.1581
  186MOL0     C25032   3.488   9.089  10.475  0.2837 -0.3883  0.0376
  186MOL0     O25033   3.540   9.191  10.392  0.4613 -0.0005 -1.3439
  186MOL0     C25034   3.598   9.296  10.471  0.5196 -0.1458 -0.3876
  186MOL0     C25035   3.630   9.421  10.379  0.0762  0.6647  0.4744
  186MOL0     C25036   3.692   9.529  10.461  0.3198  0.6168  0.0698
  186MOL0     C25037   3.761   9.640  10.371 -0.4214  0.9944 -0.2818
  186MOL0     C25038   3.663   9.724  10.298 -0.0020  0.1445 -0.2460
  186MOL0     C25039   3.579   9.797  10.254  0.1005  0.5777 -0.8493
  186MOL0     C25040   3.397   9.009  10.415 -0.7606 -1.4254 -0.2768
  186MOL0     C25041   3.356   8.886  10.468 -0.3718  0.6508  0.1088
  186MOL0     C25042   3.274   8.794  10.380 -0.0174 -0.5528 -0.0002
  186MOL0     H25043   3.186   8.646  10.875  0.7422 -0.7275 -2.9693
  186MOL0     H25044   3.113   8.467  11.006  0.7513  0.2069  2.5518
  186MOL0     H25045   3.089   8.267  11.106  1.2142  0.3585 -0.3053
  186MOL0     H25046   3.190   8.124  11.093 -0.7728  1.0104 -2.5269
  186MOL0     H25047   3.122   8.275  11.335 -0.0685 -1.7741  1.3626
  186MOL0     H25048   3.226   8.135  11.335  1.1336 -0.5022 -1.5070
  186MOL0     H25049   3.027   8.062  11.416  0.1151  1.4623 -0.2694
  186MOL0     H25050   3.055   7.979  11.256 -0.3240 -0.6371 -0.0536
  186MOL0     H25051   2.845   8.177  11.340  1.4577 -0.1975  1.6141
  186MOL0     H25052   2.895   8.156  11.168 -0.0484  0.5669 -0.1558
  186MOL0     H25053   2.825   7.906  11.196  3.4756  0.1347  2.3033
  186MOL0     H25054   2.821   7.943  11.373  1.6775  0.9864  1.1536
  186MOL0     H25055   2.618   8.073  11.339 -0.8595 -0.7522  0.6823
  186MOL0     H25056   2.641   8.091  11.177 -2.8136  0.8073  1.7028
  186MOL0     H25057   2.582   7.880  11.110 -0.0396 -0.2390 -0.1129
  186MOL0     H25058   2.465   7.945  11.220  0.7815  0.5859 -0.3170
  186MOL0     H25059   2.679   7.723  11.295 -0.5366  0.3308  1.0939
  186MOL0     H25060   2.582   7.811  11.402  4.4573  2.1233 -1.2771
  186MOL0     H25061   2.317   7.740  11.411 -0.7689  0.7078 -1.5329
  186MOL0     H25062   2.150   7.486  11.397  0.1830  2.1802  0.3800
  186MOL0     H25063   2.088   7.614  11.302 -1.2055 -1.6257  0.4434
  186MOL0     H25064   2.195   7.359  11.154 -0.4415  0.2583 -0.1005
  186MOL0     H25065   2.037   7.357  11.234  1.7272 -0.9494 -0.4461
  186MOL0     H25066   2.103   7.588  11.024 -3.0410  2.7957 -0.3598
  186MOL0     H25067   1.952   7.539  11.106  0.0097  1.9047 -1.8101
  186MOL0     H25068   2.105   7.361  10.916  1.6776 -1.0126  3.6644
  186MOL0     H25069   1.971   7.477  10.877 -0.0455  0.2584  0.8111
  186MOL0     H25070   1.979   7.271  10.726  0.3003 -0.1723 -0.6673
  186MOL0     H25071   1.820   7.150  10.567 -1.0960 -2.4425 -0.7657
  186MOL0     H25072   1.207   7.015  10.648 -0.9294 -2.0278  3.8975
  186MOL0     H25073   1.060   6.895  10.518 -0.9541 -1.6665  0.2171
  186MOL0     H25074   1.233   6.630  10.219  0.0047 -1.0146  0.8611
  186MOL0     H25075   1.154   6.489  10.293 -1.9882 -1.1672 -2.5716
  186MOL0     H25076   0.940   6.552  10.217  0.2869 -1.5568  0.3456
  186MOL0     H25077   0.984   6.714  10.194  1.9641  1.2804 -3.5530
  186MOL0     H25078   0.969   6.647   9.980 -2.2910 -1.1665  2.1894
  186MOL0     H25079   1.141   6.638  10.009  0.4992 -0.9030  0.8501
  186MOL0     H25080   1.018   6.443   9.862  0.3643  2.7857 -0.1487
  186MOL0     H25081   0.927   6.398  10.001 -1.5043  4.3932  1.4285
  186MOL0     H25082   1.092   6.318  10.145  0.5455 -2.2426  0.3415
  186MOL0     H25083   1.218   6.370  10.034  0.0894 -0.1884  1.3855
  186MOL0     H25084   1.011   6.212   9.897  0.0838 -2.0476  0.3901
  186MOL0     H25085   1.179   6.184   9.899 -1.3200  0.5941 -1.1651
  186MOL0     H25086   0.985   6.072  10.091  0.2240  1.9534  0.5355
  186MOL0     H25087   1.151   6.087  10.134  0.1534  3.6976 -1.0132
  186MOL0     H25088   1.235   5.972   9.931  0.2778 -1.7156 -1.5143
  186MOL0     H25089   1.150   5.869  10.049  1.0453 -1.5598 -1.6684
  186MOL0     H25090   1.350   6.589  10.448  1.3851 -0.5402  2.1146
  186MOL0     H25091   1.519   6.721  10.595  0.9160  2.4608  0.9206
  186MOL0     H25092   1.572   7.037  10.887 -2.7806  2.2076 -2.9761
  186MOL0     H25093   1.725   7.176  11.042  4.1688  1.8655  0.1370
  186MOL0     H25094   3.518   8.324  11.063  0.9656  0.4330 -2.2911
  186MOL0     H25095   3.571   8.467  10.858  0.2875  4.5279  0.9730
  186MOL0     H25096   3.513   8.901  10.770  2.8464 -1.5405 -1.7574
  186MOL0     H25097   3.630   9.088  10.658 -0.3041  0.2983  0.0002
  186MOL0     H25098   3.685   9.265  10.530 -0.1660  1.7873  1.7912
  186MOL0     H25099   3.522   9.332  10.540 -0.6857  1.9724 -2.6457
  186MOL0     H25100   3.537   9.460  10.337  0.8152  0.4665 -1.4710
  186MOL0     H25101   3.710   9.400  10.306 -2.2184  0.4923 -2.1521
  186MOL0     H25102   3.771   9.488  10.525  1.1189 -0.5819 -1.6157
  186MOL0     H25103   3.610   9.576  10.516  1.4363  0.9983  1.4659
  186MOL0     H25104   3.820   9.705  10.436  0.2034  1.0567 -0.8970
  186MOL0     H25105   3.841   9.592  10.313 -0.4455 -2.6483  2.3430
  186MOL0     H25106   3.518   9.879  10.219  0.7531  1.5570  0.2338
  186MOL0     H25107   3.361   9.038  10.317  2.3332  0.3867 -1.0027
  186MOL0     H25108   3.285   8.832  10.278  1.1863 -1.7768 -0.3577
  186MOL0     H25109   3.315   8.693  10.380  0.7862 -0.2308 -0.4398
  186MOL0     H25110   3.173   8.807  10.420  1.0427 -1.4910  3.3514
  187MOL0     O25111   5.264   4.196   7.759  0.1210  0.7617  0.3580
  187MOL0     C25112   5.210   4.285   7.826  1.1334  0.1923 -0.1961
  187MOL0     O25113   5.082   4.328   7.822 -0.2641 -1.0308  0.5229
  187MOL0     C25114   5.004   4.262   7.721  0.1050 -0.4284  0.6113
  187MOL0     C25115   4.992   4.296   7.583  0.0716  0.2548  0.0745
  187MOL0     C25116   4.913   4.210   7.498  0.0153 -0.3834  0.4377
  187MOL0     C25117   4.836   4.103   7.547  0.1164  0.6551 -0.2422
  187MOL0     O25118   4.748   4.036   7.471 -0.3426  0.5601  0.0008
  187MOL0     C25119   4.691   4.113   7.363  0.1614  0.0835 -0.8285
  187MOL0     C25120   4.564   4.049   7.302  0.8598 -0.8113 -0.0373
  187MOL0     C25121   4.506   4.120   7.182  1.4058  0.5146  1.0537
  187MOL0     C25122   4.569   4.047   7.063  0.2661  0.1428  1.0230
  187MOL0     C25123   4.463   3.939   7.008 -0.8207  0.3202  0.5365
  187MOL0     C25124   4.505   3.861   6.887 -0.8201 -1.0348  0.3622
  187MOL0     C25125   4.488   3.949   6.758 -0.5301  0.2926 -0.3297
  187MOL0     C25126   4.571   3.894   6.635  0.2291 -0.7412 -0.1275
  187MOL0     N25127   4.703   3.968   6.630  0.4814 -0.0824  0.1550
  187MOL0     C25128   4.806   3.936   6.718 -0.4004 -0.0281  0.3109
  187MOL0     C25129   4.888   4.044   6.718 -0.1941  0.1129  0.2278
  187MOL0     C25130   4.999   4.069   6.823  0.1303  0.1335  0.5243
  187MOL0     C25131   4.959   4.170   6.939 -0.4473  0.6090  0.5018
  187MOL0     C25132   4.960   4.319   6.895 -0.7153  0.7248  0.1523
  187MOL0     C25133   4.854   4.417   6.956 -0.7659 -0.0749 -1.2557
  187MOL0     O25134   4.882   4.556   6.935  0.9331  0.4036 -0.0050
  187MOL0     C25135   4.992   4.617   6.987 -0.4028 -0.5997  0.2065
  187MOL0     C25136   5.017   4.739   6.926  0.6308  0.6404 -0.7832
  187MOL0     C25137   5.124   4.823   6.977 -0.0349 -0.4641  0.6342
  187MOL0     C25138   5.196   4.784   7.099 -0.0143 -0.1745 -0.4365
  187MOL0     C25139   5.291   4.876   7.159 -0.2205 -0.3088 -0.3844
  187MOL0     O25140   5.310   4.994   7.092  0.0785 -0.4855  0.0119
  187MOL0     C25141   5.378   5.097   7.152 -0.7907 -0.3594 -0.0890
  187MOL0     C25142   5.303   5.198   7.217  0.2914  0.7285 -0.3745
  187MOL0     C25143   5.353   5.304   7.294 -0.3333  0.2784  0.0111
  187MOL0     C25144   5.492   5.307   7.307  0.4484 -0.4009 -0.0117
  187MOL0     O25145   5.547   5.403   7.395 -0.7622 -0.3104 -0.0784
  187MOL0     C25146   5.669   5.476   7.344  1.1113 -0.6832  0.3771
  187MOL0     C25147   5.659   5.560   7.217 -0.4892  0.4625 -0.0110
  187MOL0     C25148   5.782   5.644   7.193  0.4092  0.0252 -0.7792
  187MOL0     C25149   5.787   5.776   7.266 -0.6259 -1.4899  0.2095
  187MOL0     C25150   5.879   5.871   7.176  0.9949 -0.3714  0.5386
  187MOL0     C25151   5.886   6.002   7.262 -0.1444  0.2109  0.2345
  187MOL0     C25152   5.972   6.108   7.191  0.0401  0.5593  0.2957
  187MOL0     C25153   5.940   6.251   7.246 -0.5664  0.1341 -0.5028
  187MOL0    Cl25154   6.016   6.372   7.134  0.2299 -0.1885 -0.0064
  187MOL0     C25155   5.568   5.200   7.238  0.4009  0.4958 -0.1699
  187MOL0     C25156   5.512   5.092   7.173  0.7015 -0.0857  0.0477
  187MOL0     O25157   5.354   4.847   7.262  0.1552 -0.1255  0.2837
  187MOL0     C25158   5.174   4.647   7.146  0.0123  0.2826 -1.3089
  187MOL0     C25159   5.070   4.563   7.091 -0.7810 -0.1375  0.0480
  187MOL0     N25160   4.841   4.144   6.623  0.3281  0.3732 -0.6059
  187MOL0     N25161   4.733   4.086   6.572  0.8479 -0.3718  0.4616
  187MOL0     C25162   4.847   4.074   7.686  0.3486  0.0225 -0.1663
  187MOL0     C25163   4.937   4.149   7.769  0.2505 -0.0494 -0.0710
  187MOL0     C25164   5.306   4.372   7.914 -0.4791 -0.0133  0.0824
  187MOL0     C25165   5.250   4.473   7.993 -0.1583 -0.4011  0.5267
  187MOL0     C25166   5.334   4.557   8.068  1.1103  0.2007  0.4424
  187MOL0     C25167   5.474   4.544   8.058 -0.2586  0.3103 -0.2130
  187MOL0     O25168   5.555   4.624   8.134 -0.4561  0.3012  0.4906
  187MOL0     C25169   5.549   4.770   8.138 -0.1389  0.9636 -0.6849
  187MOL0     C25170   5.479   4.809   8.275  0.1774 -0.2340  0.3097
  187MOL0     C25171   5.579   4.790   8.391  0.8391 -0.1086  0.0160
  187MOL0     C25172   5.539   4.816   8.537  0.7699  0.7006 -0.1347
  187MOL0     C25173   5.620   4.738   8.639 -0.5501  0.8148 -0.0084
  187MOL0     C25174   5.672   4.657   8.712 -1.0380  0.1337  0.3558
  187MOL0     C25175   5.533   4.439   7.981  0.8247  0.0324  0.4618
  187MOL0     C25176   5.453   4.353   7.919 -0.5751  0.2452  0.8781
  187MOL0     C25177   5.534   4.242   7.837  0.7174 -0.6042  0.1041
  187MOL0     H25178   5.053   4.381   7.553 -1.9754  1.4009 -1.1127
  187MOL0     H25179   4.902   4.251   7.398 -1.9215  2.8084  1.8170
  187MOL0     H25180   4.675   4.215   7.398  2.5789 -0.6523  3.1221
  187MOL0     H25181   4.772   4.115   7.289  2.4575  0.5004  1.5469
  187MOL0     H25182   4.485   4.046   7.377  2.0504  1.4230  1.4085
  187MOL0     H25183   4.585   3.946   7.271 -0.5728 -1.0900 -0.1534
  187MOL0     H25184   4.536   4.225   7.173  0.3559  0.8061  0.7967
  187MOL0     H25185   4.398   4.111   7.197  1.1115 -0.6294 -1.3966
  187MOL0     H25186   4.580   4.123   6.985 -2.9687 -1.0600 -0.8005
  187MOL0     H25187   4.668   4.001   7.074 -1.7767 -6.3560 -2.2316
  187MOL0     H25188   4.445   3.856   7.077  2.0543 -1.9497 -1.1599
  187MOL0     H25189   4.368   3.991   6.995 -0.9513 -0.0736 -0.1423
  187MOL0     H25190   4.609   3.828   6.895  0.6293  3.3403  2.8141
  187MOL0     H25191   4.444   3.771   6.877 -1.8361 -0.2711 -0.5813
  187MOL0     H25192   4.519   4.052   6.780 -0.3392 -0.1165  1.4768
  187MOL0     H25193   4.381   3.934   6.740 -0.1784 -1.4013 -1.2232
  187MOL0     H25194   4.580   3.786   6.619  1.9423 -0.7190  0.4153
  187MOL0     H25195   4.523   3.926   6.542 -1.0103 -2.9478 -0.3130
  187MOL0     H25196   4.810   3.845   6.777 -1.5861  0.6591  1.5252
  187MOL0     H25197   5.022   3.964   6.845 -3.5946 -0.8518  0.4812
  187MOL0     H25198   5.085   4.103   6.766 -0.5588 -0.7286 -1.0963
  187MOL0     H25199   4.860   4.146   6.980 -1.3371  2.4930 -0.4097
  187MOL0     H25200   5.029   4.150   7.020 -1.7253 -0.2453  1.4463
  187MOL0     H25201   4.943   4.326   6.787  0.4370 -1.4248 -0.2306
  187MOL0     H25202   5.061   4.361   6.899  0.3139 -1.1184 -2.9160
  187MOL0     H25203   4.855   4.406   7.065  2.3210  0.0697 -1.1733
  187MOL0     H25204   4.756   4.399   6.910 -2.2193  1.1727  1.1411
  187MOL0     H25205   4.955   4.764   6.841 -1.5946  1.5649  1.0044
  187MOL0     H25206   5.147   4.918   6.930 -2.6884  0.2203  0.6108
  187MOL0     H25207   5.195   5.204   7.205  0.0052 -2.2478 -0.0884
  187MOL0     H25208   5.288   5.378   7.339 -0.8281 -0.8351  1.1729
  187MOL0     H25209   5.696   5.544   7.425  0.9242  0.9392 -0.8676
  187MOL0     H25210   5.753   5.408   7.328  0.9779 -0.7539 -0.0479
  187MOL0     H25211   5.645   5.489   7.135  0.3728 -0.5608  0.6974
  187MOL0     H25212   5.566   5.618   7.209  0.3972  2.1791  1.3641
  187MOL0     H25213   5.870   5.586   7.224  1.0452  1.6010  0.5390
  187MOL0     H25214   5.783   5.655   7.085 -3.4550  0.5244 -0.8892
  187MOL0     H25215   5.835   5.767   7.364 -1.5209  0.5763  0.8846
  187MOL0     H25216   5.688   5.810   7.297 -0.3002 -0.2741 -0.0131
  187MOL0     H25217   5.820   5.889   7.086  0.2655  0.6135  1.1788
  187MOL0     H25218   5.980   5.833   7.160  1.4802  1.5291 -1.3099
  187MOL0     H25219   5.787   6.046   7.278 -1.3686 -1.4384 -2.1380
  187MOL0     H25220   5.919   5.983   7.364 -1.5335  0.4737  0.7486
  187MOL0     H25221   5.956   6.126   7.084 -2.8741  2.4055  0.9111
  187MOL0     H25222   6.078   6.102   7.216  0.3762  3.3654 -0.0666
  187MOL0     H25223   5.832   6.268   7.250 -0.6039  0.3225 -1.9737
  187MOL0     H25224   5.974   6.256   7.350 -0.4737 -1.2743 -0.4444
  187MOL0     H25225   5.670   5.196   7.274 -0.2054 -0.8233  1.5324
  187MOL0     H25226   5.570   5.003   7.151 -3.9606 -3.9916  1.8997
  187MOL0     H25227   5.231   4.598   7.225 -1.6580 -1.9096 -1.3733
  187MOL0     H25228   5.055   4.458   7.114 -3.3180 -0.0870 -0.9909
  187MOL0     H25229   4.785   3.998   7.733 -2.1619  1.4026 -1.0639
  187MOL0     H25230   4.948   4.135   7.876  1.1160 -1.9473 -0.3740
  187MOL0     H25231   5.145   4.497   7.987 -0.6867 -2.7806 -1.1642
  187MOL0     H25232   5.295   4.622   8.146 -0.2012  1.7645 -1.3812
  187MOL0     H25233   5.486   4.798   8.052 -0.9905 -0.8795 -0.6965
  187MOL0     H25234   5.649   4.815   8.135  0.3788 -0.1980 -1.4423
  187MOL0     H25235   5.390   4.747   8.287 -0.1417  0.0083 -0.6852
  187MOL0     H25236   5.456   4.916   8.281  0.4217  0.0006 -1.9950
  187MOL0     H25237   5.668   4.849   8.366  2.7898 -2.2130  1.5318
  187MOL0     H25238   5.608   4.685   8.397  0.3106 -0.2738 -0.2327
  187MOL0     H25239   5.539   4.923   8.560 -2.5863  0.2067  3.2513
  187MOL0     H25240   5.438   4.777   8.555  1.3346 -0.5661  0.4212
  187MOL0     H25241   5.742   4.599   8.769  1.9067  0.7609 -2.3966
  187MOL0     H25242   5.638   4.418   7.964  0.1087 -1.2774 -3.3169
  187MOL0     H25243   5.640   4.234   7.865  0.7826  1.3659  0.5191
  187MOL0     H25244   5.473   4.151   7.843 -2.7879  1.3981 -1.9030
  187MOL0     H25245   5.541   4.258   7.729  0.0982 -1.9071 -0.1538
  188MOL0     O25246   8.682   4.444  10.534  0.1969  0.0231  0.1674
  188MOL0     C25247   8.592   4.410  10.612  0.0934  0.8876 -0.1350
  188MOL0     O25248   8.560   4.465  10.734 -0.1003 -0.6161  0.4088
  188MOL0     C25249   8.640   4.573  10.784  0.6029 -0.0843  0.0773
  188MOL0     C25250   8.686   4.566  10.913  0.8668  0.3412  0.3164
  188MOL0     C25251   8.784   4.655  10.957 -0.3200  0.6399  0.6461
  188MOL0     C25252   8.816   4.768  10.884 -0.7376  1.4376 -0.8717
  188MOL0     O25253   8.912   4.838  10.945  0.0858 -0.9795 -0.5075
  188MOL0     C25254   8.896   4.979  10.927 -0.6418  0.0104 -0.5019
  188MOL0     C25255   8.952   5.043  11.050 -0.5536 -0.3194  0.5102
  188MOL0     C25256   8.968   5.198  11.027  0.3180 -0.7223  0.1648
  188MOL0     C25257   9.027   5.273  11.149  0.4824 -0.0603 -0.1904
  188MOL0     C25258   9.092   5.410  11.116 -0.1149 -0.0292  0.2839
  188MOL0     C25259   8.985   5.513  11.046  0.1369  0.2544 -0.2832
  188MOL0     C25260   8.895   5.574  11.141 -0.5698 -0.1751 -0.8220
  188MOL0     C25261   8.809   5.677  11.064  0.3113 -0.1126 -0.4820
  188MOL0     N25262   8.714   5.753  11.150 -0.1817 -0.6893 -0.9741
  188MOL0     C25263   8.598   5.705  11.212  0.1160 -0.3121  0.7154
  188MOL0     C25264   8.548   5.807  11.284  0.2449 -0.1113 -0.3081
  188MOL0     C25265   8.441   5.804  11.390  0.4947  0.2888 -0.4082
  188MOL0     C25266   8.469   5.686  11.486  1.0995  0.1637  0.0310
  188MOL0     C25267   8.585   5.722  11.578 -1.4460 -0.5330 -0.3004
  188MOL0     C25268   8.572   5.631  11.704 -0.7613  1.0281 -0.1303
  188MOL0     O25269   8.617   5.498  11.669 -0.0779 -0.4637  0.5890
  188MOL0     C25270   8.590   5.408  11.765 -0.2721  0.6546  0.5506
  188MOL0     C25271   8.636   5.279  11.734  0.4624  0.2854 -0.6914
  188MOL0     C25272   8.628   5.168  11.826 -0.1915  0.3083  0.7806
  188MOL0     C25273   8.567   5.190  11.947 -0.6331 -0.6568 -0.0139
  188MOL0     C25274   8.563   5.084  12.054 -0.4827 -0.4927  0.3511
  188MOL0     O25275   8.526   4.958  12.007  0.2305  0.0833 -0.3211
  188MOL0     C25276   8.560   4.857  12.086 -0.8560 -0.0616  0.4238
  188MOL0     C25277   8.684   4.801  12.048  0.2814 -0.1715 -0.2966
  188MOL0     C25278   8.747   4.693  12.113  0.2997 -0.1268  0.2809
  188MOL0     C25279   8.675   4.625  12.211  0.6420  0.3507  0.4413
  188MOL0     O25280   8.729   4.522  12.280 -0.3069 -0.1143  0.8373
  188MOL0     C25281   8.868   4.527  12.328  0.3057  0.6091 -0.3576
  188MOL0     C25282   8.887   4.611  12.448 -0.6106  0.0033 -0.4097
  188MOL0     C25283   9.032   4.584  12.515 -0.5038  0.7206  0.7182
  188MOL0     C25284   9.017   4.459  12.599  0.0916  0.3939  0.0508
  188MOL0     C25285   9.148   4.438  12.682 -0.4088 -0.0441  0.5855
  188MOL0     C25286   9.169   4.287  12.712  0.1235 -0.1383 -0.2210
  188MOL0     C25287   9.268   4.257  12.821 -0.7209  0.0483 -0.7633
  188MOL0     C25288   9.236   4.307  12.950  0.0481  0.1530  0.3542
  188MOL0    Cl25289   9.364   4.301  13.067  0.0435  0.5241 -0.7089
  188MOL0     C25290   8.547   4.677  12.249 -0.0628  0.6358 -0.7896
  188MOL0     C25291   8.498   4.799  12.197 -0.3644  0.0324  0.5431
  188MOL0     O25292   8.585   5.111  12.174  0.6524  0.1172 -0.0866
  188MOL0     C25293   8.520   5.320  11.981  0.8885 -0.4940  0.7763
  188MOL0     C25294   8.524   5.427  11.889 -0.0516 -0.4116 -0.2945
  188MOL0     N25295   8.634   5.918  11.266 -0.1562  0.0370 -0.0003
  188MOL0     N25296   8.728   5.889  11.180  0.1779 -0.1661  0.6668
  188MOL0     C25297   8.771   4.779  10.748  0.2334  0.4827  0.2107
  188MOL0     C25298   8.673   4.683  10.705 -0.3661 -0.2964  0.2886
  188MOL0     C25299   8.515   4.281  10.588  0.5709  0.0814  0.7052
  188MOL0     C25300   8.385   4.270  10.639 -0.3133 -0.5511 -0.8616
  188MOL0     C25301   8.308   4.153  10.620 -0.4664  0.1267 -0.5564
  188MOL0     C25302   8.359   4.054  10.545  0.3299  0.3860  0.1835
  188MOL0     O25303   8.284   3.942  10.528 -0.5633 -0.7405  0.4679
  188MOL0     C25304   8.225   3.927  10.401  0.0779  0.6496  0.4425
  188MOL0     C25305   8.126   4.039  10.366 -0.5274  0.3046 -0.5369
  188MOL0     C25306   8.002   4.043  10.451 -0.6277  0.1557 -0.0579
  188MOL0     C25307   7.942   3.910  10.476 -0.3860  0.3712  1.3252
  188MOL0     C25308   7.881   3.867  10.355  0.1940 -0.4555 -0.5036
  188MOL0     C25309   7.842   3.831  10.240 -0.9651  0.6447 -0.9872
  188MOL0     C25310   8.486   4.065  10.489 -0.3926 -0.1994  0.5571
  188MOL0     C25311   8.563   4.176  10.501  0.3185 -0.5165 -0.7258
  188MOL0     C25312   8.690   4.166  10.428 -0.7083 -0.2031  0.2199
  188MOL0     H25313   8.666   4.488  10.985 -1.1678 -0.8972 -1.4612
  188MOL0     H25314   8.829   4.649  11.056 -0.1374 -2.2593  0.4854
  188MOL0     H25315   8.942   5.017  10.835  0.0804 -0.0606 -0.1739
  188MOL0     H25316   8.788   4.992  10.912 -1.1318 -2.7376  0.1654
  188MOL0     H25317   9.052   5.001  11.066 -0.3054 -1.9598 -3.8992
  188MOL0     H25318   8.890   5.025  11.138 -2.0643  0.0031 -0.4386
  188MOL0     H25319   8.871   5.228  10.986  1.2195  1.3041 -0.5615
  188MOL0     H25320   9.043   5.219  10.951  0.7567  3.3156  1.4917
  188MOL0     H25321   8.940   5.277  11.215  1.5232  0.5066  1.1750
  188MOL0     H25322   9.104   5.209  11.193  0.5328 -0.8708 -1.4155
  188MOL0     H25323   9.144   5.441  11.207  3.8112 -0.4817 -1.6314
  188MOL0     H25324   9.166   5.389  11.039 -0.2231 -0.8269  0.3896
  188MOL0     H25325   9.042   5.588  10.991 -0.6655  0.9695 -0.1475
  188MOL0     H25326   8.940   5.458  10.963  1.5038 -1.1615 -0.1481
  188MOL0     H25327   8.955   5.620  11.219 -1.0023  0.9418 -1.1265
  188MOL0     H25328   8.835   5.498  11.192 -0.1340  0.0387  0.0399
  188MOL0     H25329   8.872   5.747  11.008 -2.7719  1.0653 -2.7208
  188MOL0     H25330   8.752   5.619  10.990 -1.5710  0.9900  0.0408
  188MOL0     H25331   8.551   5.608  11.213 -0.2442 -0.1349  1.1091
  188MOL0     H25332   8.437   5.901  11.442 -0.8649 -0.0897  0.2142
  188MOL0     H25333   8.346   5.796  11.337  0.3265  3.6148 -0.8704
  188MOL0     H25334   8.382   5.695  11.552 -0.1346 -0.5280 -1.4477
  188MOL0     H25335   8.464   5.581  11.456 -0.4632  0.2794 -0.1637
  188MOL0     H25336   8.583   5.827  11.607  1.4236 -0.1148 -1.3239
  188MOL0     H25337   8.684   5.702  11.536 -1.5769 -3.2410  0.4896
  188MOL0     H25338   8.468   5.636  11.736 -0.2712  0.3165  1.6691
  188MOL0     H25339   8.632   5.669  11.787 -2.1718 -0.7141  1.7856
  188MOL0     H25340   8.677   5.258  11.635  1.0824  0.7403 -0.5335
  188MOL0     H25341   8.666   5.069  11.803  0.4757  0.8282 -0.4698
  188MOL0     H25342   8.734   4.854  11.967 -0.7833  3.1347  1.0294
  188MOL0     H25343   8.844   4.655  12.083 -0.0543 -1.2105  0.4703
  188MOL0     H25344   8.892   4.424  12.359 -0.4318  0.0030 -1.6993
  188MOL0     H25345   8.941   4.559  12.253 -0.8266  2.1139 -0.8633
  188MOL0     H25346   8.875   4.716  12.421 -2.3030  0.5477  2.0997
  188MOL0     H25347   8.813   4.582  12.524 -0.5713  2.2021  0.5499
  188MOL0     H25348   9.113   4.586  12.442 -1.0641  1.9322  0.0975
  188MOL0     H25349   9.055   4.668  12.582 -1.6356  0.3796  1.5734
  188MOL0     H25350   8.999   4.367  12.543  1.3781  0.8948 -1.2271
  188MOL0     H25351   8.933   4.464  12.670 -1.0155  0.0149 -1.1923
  188MOL0     H25352   9.147   4.506  12.768  0.8768 -0.0038  0.5978
  188MOL0     H25353   9.230   4.480  12.623 -1.8884  2.3272  0.0802
  188MOL0     H25354   9.073   4.246  12.744 -0.8006  0.6792 -1.8190
  188MOL0     H25355   9.199   4.238  12.619 -0.6674  0.5669 -0.8657
  188MOL0     H25356   9.360   4.308  12.788  0.1880 -2.1188 -1.8163
  188MOL0     H25357   9.292   4.150  12.816 -2.5058 -0.4899  1.0808
  188MOL0     H25358   9.229   4.415  12.936  3.4776  0.7003  1.6869
  188MOL0     H25359   9.144   4.262  12.987 -0.1880 -2.6865 -3.1285
  188MOL0     H25360   8.514   4.625  12.338  0.4500  0.7724 -0.5203
  188MOL0     H25361   8.413   4.861  12.224 -0.8603  0.5646 -1.9594
  188MOL0     H25362   8.476   5.339  12.078 -1.0974 -3.3762  0.5930
  188MOL0     H25363   8.493   5.526  11.922 -0.5760 -0.8459  0.5693
  188MOL0     H25364   8.804   4.864  10.689  0.2064 -0.9098 -1.9245
  188MOL0     H25365   8.637   4.707  10.605  3.2790 -2.9707 -1.9107
  188MOL0     H25366   8.358   4.352  10.705  1.4600 -0.2557 -0.4581
  188MOL0     H25367   8.213   4.141  10.671 -0.0335  1.9356  0.7867
  188MOL0     H25368   8.180   3.828  10.389 -1.3221  1.2874  0.2016
  188MOL0     H25369   8.307   3.935  10.330 -0.3109  2.7063  0.1751
  188MOL0     H25370   8.093   4.043  10.262  0.4571 -2.2078 -1.0128
  188MOL0     H25371   8.176   4.134  10.385  1.3098 -0.3469 -1.9030
  188MOL0     H25372   7.923   4.105  10.408 -1.8626 -0.9188  0.6126
  188MOL0     H25373   8.025   4.079  10.552  0.6544  0.8245 -0.5652
  188MOL0     H25374   8.015   3.833  10.501  4.1130  2.5223 -3.2462
  188MOL0     H25375   7.863   3.910  10.552 -2.5630 -4.9356 -0.4834
  188MOL0     H25376   7.805   3.801  10.144 -3.0352 -1.3215  0.3347
  188MOL0     H25377   8.526   3.977  10.438  2.1818  0.2699  1.6239
  188MOL0     H25378   8.713   4.059  10.422 -2.1636 -0.4742 -1.3081
  188MOL0     H25379   8.670   4.192  10.323 -0.4988  1.9922  0.6640
  188MOL0     H25380   8.778   4.209  10.478  1.8843 -2.8798 -1.6671
  189MOL0     O25381   3.718   1.458   6.155  0.2712 -0.4284  0.0102
  189MOL0     C25382   3.598   1.456   6.120 -0.4082  0.6508 -0.1827
  189MOL0     O25383   3.555   1.483   5.994 -0.3547 -0.5893 -0.1129
  189MOL0     C25384   3.645   1.538   5.899 -0.6832 -0.4886 -0.4145
  189MOL0     C25385   3.778   1.491   5.864  0.0027 -0.1440 -0.2013
  189MOL0     C25386   3.862   1.559   5.770  0.3258  0.1157  0.0310
  189MOL0     C25387   3.807   1.663   5.697  0.4517  0.6759 -0.6066
  189MOL0     O25388   3.875   1.733   5.599  0.3405  0.2433  0.2240
  189MOL0     C25389   4.000   1.690   5.558  0.5979  0.4821 -0.7919
  189MOL0     C25390   4.042   1.772   5.431 -0.4358  0.1587  0.2390
  189MOL0     C25391   4.171   1.717   5.377 -0.2744  1.7074  0.8219
  189MOL0     C25392   4.223   1.813   5.270 -0.3337  1.0754  0.2855
  189MOL0     C25393   4.295   1.932   5.339 -1.0637 -0.0981 -0.0352
  189MOL0     C25394   4.371   2.026   5.248  0.2599  0.1473  0.8034
  189MOL0     C25395   4.451   2.133   5.319 -0.0082  0.3010 -0.3001
  189MOL0     C25396   4.525   2.223   5.207  0.1817 -0.1356 -0.2955
  189MOL0     N25397   4.613   2.310   5.282 -0.9307 -0.2127 -0.6065
  189MOL0     C25398   4.755   2.293   5.271  0.4781 -1.3093  0.2073
  189MOL0     C25399   4.809   2.356   5.391 -0.2629  0.1703 -0.0895
  189MOL0     C25400   4.946   2.370   5.437  0.3515 -0.0940  0.2993
  189MOL0     C25401   5.015   2.499   5.373  0.0258 -0.5534 -0.1951
  189MOL0     C25402   5.167   2.477   5.381 -0.5074 -0.2931 -0.4735
  189MOL0     C25403   5.230   2.562   5.280 -0.5032 -0.1742 -0.5905
  189MOL0     O25404   5.367   2.542   5.260  0.1220 -0.2188 -0.1741
  189MOL0     C25405   5.465   2.577   5.352 -0.4713  0.0271  0.1309
  189MOL0     C25406   5.574   2.501   5.349 -0.5965  0.4691 -0.2477
  189MOL0     C25407   5.669   2.504   5.447 -0.8344  0.1281  1.0618
  189MOL0     C25408   5.658   2.584   5.556  0.8079  0.1744 -0.6595
  189MOL0     C25409   5.763   2.595   5.656 -0.6649  0.0050  0.3254
  189MOL0     O25410   5.754   2.704   5.746 -0.4637 -0.0528 -0.7049
  189MOL0     C25411   5.832   2.697   5.853  0.0487 -0.0475 -0.6960
  189MOL0     C25412   5.955   2.770   5.845  0.6816  0.4150  0.3600
  189MOL0     C25413   6.030   2.794   5.963 -1.1821  0.9587 -0.2036
  189MOL0     C25414   6.004   2.721   6.074 -0.8518 -0.2909 -1.0276
  189MOL0     O25415   6.075   2.753   6.188  0.4579 -0.2015 -0.8148
  189MOL0     C25416   6.201   2.691   6.192  0.2936  0.8236 -0.0955
  189MOL0     C25417   6.206   2.536   6.198  0.1194  0.4637 -0.3683
  189MOL0     C25418   6.345   2.483   6.200  0.0776  0.7012 -0.2931
  189MOL0     C25419   6.415   2.531   6.323  0.6949  1.0259  0.0077
  189MOL0     C25420   6.552   2.476   6.335 -0.5943  0.3392 -0.0870
  189MOL0     C25421   6.569   2.325   6.386  0.3261 -0.5924  0.1836
  189MOL0     C25422   6.702   2.305   6.447 -0.6998 -0.1483 -1.6615
  189MOL0     C25423   6.746   2.159   6.456  0.5543 -0.1199  0.7875
  189MOL0    Cl25424   6.923   2.137   6.406  0.2201  0.0966 -0.1579
  189MOL0     C25425   5.889   2.637   6.080 -0.0546 -0.4634  0.3986
  189MOL0     C25426   5.798   2.634   5.971  0.7832 -0.7323  0.2761
  189MOL0     O25427   5.854   2.511   5.646  0.7281 -0.4925 -0.8903
  189MOL0     C25428   5.546   2.672   5.555 -0.0147  0.2214 -0.2325
  189MOL0     C25429   5.453   2.666   5.458  0.1078 -0.3587  0.8909
  189MOL0     N25430   4.702   2.396   5.462  0.1151 -0.0869  0.5394
  189MOL0     N25431   4.589   2.380   5.402  0.4915  1.6169 -0.3851
  189MOL0     C25432   3.676   1.690   5.710  0.4263 -0.1242 -0.5979
  189MOL0     C25433   3.589   1.625   5.802  0.1010 -0.1946 -0.3288
  189MOL0     C25434   3.494   1.398   6.215 -0.3809  0.2044 -0.9400
  189MOL0     C25435   3.375   1.340   6.163 -0.5934  0.1539  0.2065
  189MOL0     C25436   3.271   1.303   6.239  0.2621 -1.2329  0.0167
  189MOL0     C25437   3.269   1.320   6.376 -0.7148  0.6526 -0.0388
  189MOL0     O25438   3.162   1.269   6.442  0.0198 -0.2848 -0.2386
  189MOL0     C25439   3.080   1.371   6.499 -0.4249 -0.1243  1.0037
  189MOL0     C25440   2.947   1.301   6.547 -0.2840 -0.0701  0.8333
  189MOL0     C25441   2.969   1.224   6.676  0.2277  0.3598 -0.2172
  189MOL0     C25442   3.039   1.303   6.783  0.1674  0.9320 -0.0949
  189MOL0     C25443   3.060   1.226   6.907  0.0423 -0.3194  0.2516
  189MOL0     C25444   3.062   1.162   7.008 -0.3250  0.9909 -0.2765
  189MOL0     C25445   3.378   1.386   6.430  0.4464  0.4165  1.0075
  189MOL0     C25446   3.498   1.421   6.354 -0.0673 -0.4007  0.5572
  189MOL0     C25447   3.615   1.480   6.430 -0.4191  0.9425 -0.3377
  189MOL0     H25448   3.817   1.402   5.913  0.0479  1.4029  2.8005
  189MOL0     H25449   3.956   1.511   5.747 -0.3789 -2.4244  1.8811
  189MOL0     H25450   4.074   1.725   5.631 -2.1557  1.8833  1.5086
  189MOL0     H25451   3.996   1.582   5.538 -2.9930  0.2268  0.5769
  189MOL0     H25452   4.046   1.876   5.464  0.5191  0.3230 -0.3444
  189MOL0     H25453   3.970   1.768   5.349  2.2615  0.0540 -2.2905
  189MOL0     H25454   4.166   1.614   5.340 -2.7458  2.6800 -1.9134
  189MOL0     H25455   4.235   1.713   5.466 -0.9988  0.5281  1.3106
  189MOL0     H25456   4.285   1.752   5.205 -2.3060  0.7584 -1.4121
  189MOL0     H25457   4.138   1.842   5.208 -2.9092 -2.2333  1.9177
  189MOL0     H25458   4.227   1.999   5.393  2.7061  1.7824  2.7850
  189MOL0     H25459   4.366   1.894   5.413 -0.3467  1.2245 -0.0383
  189MOL0     H25460   4.438   1.979   5.176  0.4185 -0.6630  1.4743
  189MOL0     H25461   4.287   2.072   5.194 -0.6859 -0.2329  1.9226
  189MOL0     H25462   4.518   2.082   5.389 -2.4302 -1.5497  0.8299
  189MOL0     H25463   4.368   2.186   5.367 -5.1927 -1.4350 -6.0837
  189MOL0     H25464   4.570   2.149   5.140 -2.6061 -2.7550  0.5256
  189MOL0     H25465   4.457   2.285   5.148  2.7156  2.9852 -0.2294
  189MOL0     H25466   4.820   2.258   5.191  1.2686 -0.4526  0.4570
  189MOL0     H25467   4.951   2.385   5.545 -1.7053  1.3412  0.2473
  189MOL0     H25468   4.996   2.281   5.397  2.6580  1.0144  0.5004
  189MOL0     H25469   4.989   2.513   5.268  1.6269 -1.3595 -0.7222
  189MOL0     H25470   4.976   2.580   5.436  1.4572 -1.4310  1.9473
  189MOL0     H25471   5.204   2.377   5.356  2.4698  0.4591  0.4711
  189MOL0     H25472   5.200   2.503   5.482 -1.4533  0.3662 -0.3233
  189MOL0     H25473   5.211   2.665   5.312  0.3663  0.3293 -1.6421
  189MOL0     H25474   5.179   2.544   5.185 -1.1314 -1.0841 -0.0946
  189MOL0     H25475   5.575   2.429   5.268  0.3866  2.1056 -1.7735
  189MOL0     H25476   5.751   2.434   5.435 -2.2688 -1.0938 -5.2038
  189MOL0     H25477   5.970   2.813   5.746 -1.6159  1.3312  0.3459
  189MOL0     H25478   6.118   2.856   5.971 -0.5362  0.2774 -1.6610
  189MOL0     H25479   6.261   2.737   6.113  2.8330 -0.3605  1.0561
  189MOL0     H25480   6.237   2.740   6.283 -2.5340  2.1334  0.4169
  189MOL0     H25481   6.154   2.497   6.286  3.4899 -0.9055  1.2082
  189MOL0     H25482   6.153   2.483   6.119 -1.8962 -1.0072  1.8283
  189MOL0     H25483   6.333   2.374   6.209  1.3257  0.6512  1.1142
  189MOL0     H25484   6.399   2.508   6.109  1.0668 -1.7546 -0.4494
  189MOL0     H25485   6.361   2.501   6.413 -0.4124 -1.3227 -1.3470
  189MOL0     H25486   6.422   2.640   6.320  1.3039  0.9923  0.0615
  189MOL0     H25487   6.608   2.525   6.415  1.9572 -2.4348  0.0282
  189MOL0     H25488   6.609   2.494   6.243 -0.1091 -0.0421  0.1329
  189MOL0     H25489   6.490   2.306   6.459 -2.1025 -1.1623 -2.3930
  189MOL0     H25490   6.564   2.247   6.309  1.0939 -1.1101  0.6536
  189MOL0     H25491   6.701   2.339   6.551  0.9575 -3.5085 -0.3888
  189MOL0     H25492   6.780   2.367   6.402 -0.9887  3.4222  2.2242
  189MOL0     H25493   6.725   2.132   6.560  0.3606  1.7448  1.2572
  189MOL0     H25494   6.697   2.090   6.387 -0.2734  0.5461  0.7032
  189MOL0     H25495   5.850   2.579   6.164 -2.2976  0.7057  0.2227
  189MOL0     H25496   5.696   2.599   5.977  0.3876  0.2969 -0.2090
  189MOL0     H25497   5.528   2.732   5.644  1.7691  3.1801 -1.7222
  189MOL0     H25498   5.370   2.736   5.463  1.8448  1.8054  0.7090
  189MOL0     H25499   3.645   1.772   5.645  0.2233 -0.9096 -1.5082
  189MOL0     H25500   3.489   1.661   5.823  0.3961  0.2036  0.4540
  189MOL0     H25501   3.370   1.328   6.056 -0.9132  0.0244  0.2335
  189MOL0     H25502   3.187   1.261   6.184 -2.1327 -3.3362  4.6415
  189MOL0     H25503   3.056   1.451   6.429  0.4380 -0.1218  0.7005
  189MOL0     H25504   3.121   1.429   6.583 -2.8081 -1.0402  2.9281
  189MOL0     H25505   2.891   1.232   6.484 -2.5526  1.5599  0.9580
  189MOL0     H25506   2.876   1.382   6.566  2.3367  3.2113 -1.9089
  189MOL0     H25507   3.022   1.130   6.661  0.3579  0.4435 -0.2893
  189MOL0     H25508   2.866   1.201   6.704  1.0553 -1.6872  1.4340
  189MOL0     H25509   3.142   1.328   6.756  0.2610  0.3281 -0.3162
  189MOL0     H25510   2.982   1.396   6.798  1.2014  1.3767  1.3095
  189MOL0     H25511   3.058   1.121   7.107  1.3307  1.3088 -0.0392
  189MOL0     H25512   3.380   1.401   6.537 -0.6099 -0.9834  1.2559
  189MOL0     H25513   3.667   1.565   6.385  0.0539  1.9108  1.8903
  189MOL0     H25514   3.580   1.517   6.527 -2.3081 -0.9465 -0.2162
  189MOL0     H25515   3.694   1.407   6.450 -2.0037 -1.0261 -0.9518
  190MOL0     O25516   4.076   7.203   3.825  0.4683  0.6365 -0.1023
  190MOL0     C25517   3.984   7.202   3.903  0.3229 -0.7010 -0.5871
  190MOL0     O25518   3.901   7.094   3.933 -0.2586 -0.6056 -0.0451
  190MOL0     C25519   3.899   6.976   3.862 -0.5265  0.5224  0.1609
  190MOL0     C25520   3.969   6.943   3.747  0.2440 -0.3871 -0.0351
  190MOL0     C25521   3.955   6.811   3.688 -0.6000  0.2203 -0.0588
  190MOL0     C25522   3.870   6.712   3.755 -0.1313 -0.4339  1.0876
  190MOL0     O25523   3.865   6.586   3.716 -0.7112 -0.3011  0.2432
  190MOL0     C25524   3.926   6.531   3.597  1.2019 -0.7566  0.2068
  190MOL0     C25525   3.906   6.376   3.605 -0.0729  0.1251 -0.7039
  190MOL0     C25526   3.942   6.295   3.483  0.0010 -0.4946  0.2032
  190MOL0     C25527   3.914   6.147   3.492 -0.2704 -0.8407  0.7822
  190MOL0     C25528   3.918   6.065   3.356  0.9306 -0.2491 -0.2688
  190MOL0     C25529   4.052   6.016   3.313 -0.4433 -0.3965  0.2053
  190MOL0     C25530   4.052   5.967   3.163 -0.5158  1.2664 -0.1744
  190MOL0     C25531   3.983   5.832   3.153  0.2178  0.3883 -0.1832
  190MOL0     N25532   3.945   5.818   3.018  0.1381  0.8630 -0.1074
  190MOL0     C25533   4.031   5.810   2.910 -0.3028 -1.1988 -0.7489
  190MOL0     C25534   3.946   5.819   2.805 -0.5750 -0.7746  1.1467
  190MOL0     C25535   3.982   5.838   2.661 -0.1223 -0.2963 -0.9642
  190MOL0     C25536   4.096   5.934   2.634  0.8001 -0.2812 -0.1323
  190MOL0     C25537   4.063   6.083   2.651 -0.9178  0.5489 -0.6713
  190MOL0     C25538   4.189   6.157   2.618 -0.3544 -0.1754  0.0314
  190MOL0     O25539   4.288   6.150   2.727 -0.7309  0.1355  0.4310
  190MOL0     C25540   4.254   6.212   2.848  0.4214  0.6948 -0.0136
  190MOL0     C25541   4.335   6.198   2.954  0.0266 -0.4166 -0.3939
  190MOL0     C25542   4.311   6.251   3.089  0.2284  0.6161 -0.4514
  190MOL0     C25543   4.203   6.341   3.108  0.1182  0.7034  0.2214
  190MOL0     C25544   4.186   6.420   3.238  0.7986 -0.4755  0.0482
  190MOL0     O25545   4.280   6.395   3.338  0.2927 -0.4646  0.2134
  190MOL0     C25546   4.280   6.479   3.454 -0.5172  0.6796 -0.0491
  190MOL0     C25547   4.260   6.620   3.460  0.8595 -0.4791 -0.4915
  190MOL0     C25548   4.270   6.673   3.583 -0.1552  0.0501 -0.3341
  190MOL0     C25549   4.308   6.609   3.700  0.3425  0.0088 -0.4461
  190MOL0     O25550   4.326   6.671   3.822 -0.1446 -0.4941  0.4522
  190MOL0     C25551   4.290   6.810   3.850  0.1516 -0.5333  0.1472
  190MOL0     C25552   4.337   6.852   3.988  0.6173  0.1848 -0.3797
  190MOL0     C25553   4.294   6.996   4.017  0.5980  0.1148 -0.4631
  190MOL0     C25554   4.324   7.043   4.159  0.1823  0.5701  0.6351
  190MOL0     C25555   4.271   7.185   4.201 -0.6429  0.4016  0.6088
  190MOL0     C25556   4.301   7.218   4.346 -0.3418 -0.6534 -0.3976
  190MOL0     C25557   4.227   7.351   4.366  0.0388 -1.0407  0.6615
  190MOL0     C25558   4.297   7.482   4.318  0.5757 -1.9498  0.1824
  190MOL0    Cl25559   4.235   7.617   4.416 -0.3568 -0.0511 -0.2440
  190MOL0     C25560   4.325   6.466   3.693  1.1982  0.6654 -0.5330
  190MOL0     C25561   4.317   6.405   3.573  0.4554  0.5157 -0.4947
  190MOL0     O25562   4.091   6.507   3.246  0.0804  0.0776 -0.5385
  190MOL0     C25563   4.125   6.375   2.992  0.4845  0.2335 -0.1206
  190MOL0     C25564   4.151   6.311   2.869 -0.0025  0.9003  0.2411
  190MOL0     N25565   3.818   5.821   2.847 -0.2981  0.3643 -0.9030
  190MOL0     N25566   3.820   5.822   2.972  0.2331  0.4832 -0.1532
  190MOL0     C25567   3.796   6.752   3.868 -1.5372  0.1767 -0.0427
  190MOL0     C25568   3.810   6.880   3.921 -0.7440 -0.4077 -0.3361
  190MOL0     C25569   3.958   7.328   3.982 -0.4060  0.1231 -0.3672
  190MOL0     C25570   3.844   7.337   4.062  0.8324 -0.0403 -0.0718
  190MOL0     C25571   3.834   7.443   4.156  0.7652 -0.4810 -1.0712
  190MOL0     C25572   3.904   7.562   4.124 -0.3351 -0.6360 -0.1730
  190MOL0     O25573   3.875   7.660   4.211  0.6408 -0.6035  0.4450
  190MOL0     C25574   3.922   7.788   4.183 -0.8772  0.3832 -0.9490
  190MOL0     C25575   3.871   7.855   4.048 -0.0141  0.4481  1.6900
  190MOL0     C25576   3.732   7.919   4.065 -0.0724  0.2014 -0.5140
  190MOL0     C25577   3.634   7.834   4.155 -0.3662 -0.8635 -0.4957
  190MOL0     C25578   3.498   7.888   4.146 -0.0933 -0.6581 -0.5604
  190MOL0     C25579   3.385   7.924   4.163 -1.3836  0.0651  0.9650
  190MOL0     C25580   4.010   7.564   4.035 -0.2969 -0.7760 -0.4042
  190MOL0     C25581   4.044   7.445   3.974  0.7271 -1.1832  0.4897
  190MOL0     C25582   4.168   7.464   3.898  0.5296  0.5936 -0.0128
  190MOL0     H25583   4.027   7.016   3.692 -0.6797  1.6691  1.6000
  190MOL0     H25584   4.011   6.781   3.600 -2.1920 -2.3286 -0.2797
  190MOL0     H25585   3.876   6.570   3.508 -0.0889 -0.4149  1.0518
  190MOL0     H25586   4.032   6.559   3.603  1.0409  0.3432 -1.4431
  190MOL0     H25587   3.802   6.360   3.637 -0.6141 -0.2623 -2.5227
  190MOL0     H25588   3.968   6.330   3.681  0.2724 -1.2990 -1.8131
  190MOL0     H25589   4.046   6.320   3.460 -0.2358 -1.5047 -2.1706
  190MOL0     H25590   3.895   6.340   3.396  0.9142  2.3072  1.0649
  190MOL0     H25591   3.997   6.115   3.555  0.0295 -0.8161  0.4031
  190MOL0     H25592   3.818   6.127   3.541 -0.9781 -0.7828 -0.5292
  190MOL0     H25593   3.857   5.976   3.371  0.4600  0.1204  0.0458
  190MOL0     H25594   3.869   6.129   3.282 -1.8880 -0.9861  0.8428
  190MOL0     H25595   4.119   6.101   3.327  0.7844 -1.5113  1.4287
  190MOL0     H25596   4.079   5.934   3.380  1.5580 -1.6539 -2.0169
  190MOL0     H25597   4.159   5.954   3.143 -1.1923 -0.9198 -3.1306
  190MOL0     H25598   4.022   6.038   3.085  3.1383  1.6243 -1.4604
  190MOL0     H25599   4.041   5.747   3.189 -0.0089  0.3550  0.1137
  190MOL0     H25600   3.892   5.826   3.214 -0.9240  1.0316 -1.7396
  190MOL0     H25601   4.139   5.814   2.913 -0.2582 -2.3074 -0.2475
  190MOL0     H25602   4.026   5.746   2.620 -0.4346 -1.4598  1.1398
  190MOL0     H25603   3.892   5.872   2.608  0.1468  0.1679 -1.1296
  190MOL0     H25604   4.188   5.914   2.690  0.5104  2.5695  1.5925
  190MOL0     H25605   4.119   5.912   2.530 -0.9747 -1.9622 -0.2258
  190MOL0     H25606   4.014   6.112   2.744 -2.3193  3.3074 -2.1461
  190MOL0     H25607   3.996   6.107   2.568 -0.3303  3.4328 -0.4255
  190MOL0     H25608   4.177   6.260   2.583 -2.0749 -1.5336 -3.9299
  190MOL0     H25609   4.224   6.117   2.522 -4.3753 -1.7216 -0.9897
  190MOL0     H25610   4.430   6.146   2.954  2.5378  3.5053  3.0941
  190MOL0     H25611   4.383   6.225   3.166  0.4133 -2.0223 -1.4131
  190MOL0     H25612   4.249   6.679   3.370 -0.2413 -1.9200 -1.3247
  190MOL0     H25613   4.260   6.781   3.582 -2.6837 -0.1333 -1.6775
  190MOL0     H25614   4.334   6.881   3.779 -1.9912  0.6334 -0.1021
  190MOL0     H25615   4.183   6.831   3.839  0.3333  0.0836 -0.5627
  190MOL0     H25616   4.295   6.776   4.055  1.9859 -1.5783 -1.4317
  190MOL0     H25617   4.443   6.840   4.012 -0.0093 -1.5597  1.9051
  190MOL0     H25618   4.339   7.068   3.948 -0.2496 -0.0882 -1.2560
  190MOL0     H25619   4.185   7.006   4.014  0.5127 -0.1796  0.9245
  190MOL0     H25620   4.429   7.025   4.183  0.5633  2.5455  0.6145
  190MOL0     H25621   4.272   6.980   4.232 -2.1534  1.2779 -0.3336
  190MOL0     H25622   4.162   7.178   4.194 -0.6734 -4.4810  2.1002
  190MOL0     H25623   4.307   7.257   4.127 -1.3358 -1.1990 -1.4026
  190MOL0     H25624   4.243   7.148   4.407 -2.5401  3.0523  2.1995
  190MOL0     H25625   4.409   7.218   4.363 -0.3350  2.4022  0.1468
  190MOL0     H25626   4.221   7.360   4.475 -2.6369  3.0658  0.4045
  190MOL0     H25627   4.129   7.366   4.319 -0.2335  3.5318  2.1150
  190MOL0     H25628   4.406   7.476   4.328  0.8665  0.3301 -0.9508
  190MOL0     H25629   4.276   7.513   4.215  1.1342 -0.2148  0.5524
  190MOL0     H25630   4.367   6.415   3.779  0.5831  1.5566  0.3309
  190MOL0     H25631   4.322   6.297   3.561 -1.9323  0.4234 -1.0532
  190MOL0     H25632   4.054   6.458   2.985 -2.0199 -1.6906  0.7109
  190MOL0     H25633   4.083   6.347   2.793 -0.8094  2.5046  1.6406
  190MOL0     H25634   3.734   6.681   3.922 -0.2916 -0.1419  1.0141
  190MOL0     H25635   3.752   6.900   4.011 -1.3845  0.7505 -0.9800
  190MOL0     H25636   3.777   7.253   4.075  1.0456 -0.0410  1.1374
  190MOL0     H25637   3.760   7.447   4.235  0.3639  0.2522 -1.4801
  190MOL0     H25638   4.030   7.804   4.180 -0.6529 -1.1489 -2.0071
  190MOL0     H25639   3.889   7.858   4.261  0.0722  0.8722 -0.9719
  190MOL0     H25640   3.854   7.779   3.971 -2.5449 -0.3707  2.9373
  190MOL0     H25641   3.941   7.931   4.011 -4.1568  3.1300 -1.5470
  190MOL0     H25642   3.686   7.921   3.966 -0.6469 -1.1916 -0.3026
  190MOL0     H25643   3.739   8.024   4.096 -0.9074  0.5193 -1.3577
  190MOL0     H25644   3.639   7.730   4.122 -1.6584 -1.6215  1.5881
  190MOL0     H25645   3.666   7.825   4.259  1.2223 -0.6853 -0.9286
  190MOL0     H25646   3.285   7.957   4.182 -0.8531  3.4524 -1.2278
  190MOL0     H25647   4.079   7.647   4.018  3.4238 -3.7265 -1.0040
  190MOL0     H25648   4.211   7.561   3.873  4.9062 -1.1689 -0.3257
  190MOL0     H25649   4.242   7.409   3.957  0.4773  0.4801 -0.0525
  190MOL0     H25650   4.150   7.409   3.805  1.4027 -1.2171  0.8283
  191MOL0     O25651   9.716   6.206   0.507  0.4755  0.8422  0.7710
  191MOL0     C25652   9.695   6.270   0.402  0.6038  0.4708 -0.0519
  191MOL0     O25653   9.615   6.380   0.403  0.8355 -0.7395 -0.2966
  191MOL0     C25654   9.569   6.440   0.513  0.0331 -1.2422  0.1113
  191MOL0     C25655   9.486   6.379   0.598  0.5313  0.0047  0.4529
  191MOL0     C25656   9.422   6.452   0.704  0.2811 -0.1187  0.3509
  191MOL0     C25657   9.476   6.578   0.747  1.0581 -0.1888 -0.4667
  191MOL0     O25658   9.436   6.636   0.861 -0.6980  0.1987 -0.3056
  191MOL0     C25659   9.524   6.727   0.934 -0.3424 -0.0788 -0.7371
  191MOL0     C25660   9.442   6.778   1.054  0.8718 -0.0677 -0.6439
  191MOL0     C25661   9.389   6.665   1.150 -0.0107 -0.7358  0.9628
  191MOL0     C25662   9.335   6.723   1.274 -0.7263 -0.0108 -0.2607
  191MOL0     C25663   9.293   6.620   1.381 -0.4263 -0.6483  1.0530
  191MOL0     C25664   9.404   6.550   1.451 -0.6942 -0.2344  0.0398
  191MOL0     C25665   9.361   6.465   1.572  0.5993 -0.0658 -0.3489
  191MOL0     C25666   9.475   6.438   1.669 -0.6331 -0.9067  1.5291
  191MOL0     N25667   9.441   6.369   1.784 -0.0936  0.4962  0.4126
  191MOL0     C25668   9.316   6.324   1.819  0.7205  0.4335  0.8568
  191MOL0     C25669   9.344   6.231   1.912 -0.0132 -0.1171 -0.9521
  191MOL0     C25670   9.248   6.146   1.982  0.8935 -0.2049  0.6541
  191MOL0     C25671   9.191   6.027   1.894  0.1723  0.1023 -0.2968
  191MOL0     C25672   9.298   5.927   1.840 -0.6420  0.0842  0.3708
  191MOL0     C25673   9.364   5.831   1.933 -0.5635 -0.2622 -0.8659
  191MOL0     O25674   9.270   5.757   2.004 -0.0490  0.3953  0.1365
  191MOL0     C25675   9.314   5.662   2.098  0.6993 -0.6124  0.0926
  191MOL0     C25676   9.447   5.627   2.125  0.6975  0.3181  1.2056
  191MOL0     C25677   9.477   5.540   2.232  1.0614 -0.1736  1.0180
  191MOL0     C25678   9.374   5.479   2.298 -0.8019  0.4632 -0.4034
  191MOL0     C25679   9.416   5.386   2.415 -0.1175 -0.2378 -0.5317
  191MOL0     O25680   9.544   5.331   2.409 -0.6396  0.3891 -0.0126
  191MOL0     C25681   9.577   5.197   2.433 -0.2810  0.3492 -0.1166
  191MOL0     C25682   9.477   5.098   2.422  0.1745  0.7135  0.5783
  191MOL0     C25683   9.510   4.966   2.445 -0.0804  0.4107  1.1291
  191MOL0     C25684   9.634   4.922   2.479 -0.0570 -0.6239  0.0021
  191MOL0     O25685   9.658   4.787   2.481  0.0827  0.0328 -0.9798
  191MOL0     C25686   9.745   4.727   2.377  0.5386 -0.0795  0.2502
  191MOL0     C25687   9.769   4.573   2.395  1.6317 -0.2838 -0.1549
  191MOL0     C25688   9.645   4.487   2.370 -0.2114  0.5745 -0.2147
  191MOL0     C25689   9.683   4.338   2.401 -0.7929 -0.0771 -0.4307
  191MOL0     C25690   9.669   4.296   2.552  0.3426 -0.2645 -0.0229
  191MOL0     C25691   9.782   4.193   2.581 -0.9921 -0.6262 -0.6139
  191MOL0     C25692   9.776   4.136   2.717 -0.2830  0.4786  0.1951
  191MOL0     C25693   9.738   4.223   2.836 -0.3867  0.5646 -0.8616
  191MOL0    Cl25694   9.834   4.370   2.863 -0.3058 -0.1082  0.0064
  191MOL0     C25695   9.734   5.018   2.494  1.0745  0.2466  0.1145
  191MOL0     C25696   9.699   5.155   2.470 -0.2894  1.5034  0.1787
  191MOL0     O25697   9.323   5.351   2.488  0.0406 -0.3037 -0.6494
  191MOL0     C25698   9.241   5.517   2.272  1.1137 -0.2482  0.0658
  191MOL0     C25699   9.210   5.610   2.177 -0.2378 -0.6272  1.3075
  191MOL0     N25700   9.477   6.222   1.928  0.1604  0.4927 -0.6776
  191MOL0     N25701   9.533   6.308   1.858 -0.0748 -0.3798 -0.0951
  191MOL0     C25702   9.572   6.637   0.659 -0.2367 -0.3713 -0.0548
  191MOL0     C25703   9.609   6.571   0.542 -0.4101 -1.4113  0.0285
  191MOL0     C25704   9.721   6.211   0.265 -0.2846 -0.2201  0.1968
  191MOL0     C25705   9.663   6.261   0.138  1.5099 -0.1788 -0.4314
  191MOL0     C25706   9.699   6.210   0.021 -0.2729  0.2266 -0.4971
  191MOL0     C25707   9.786   6.095   0.005 -0.3206 -0.8486 -0.7957
  191MOL0     O25708   9.829   6.060  -0.111  0.2284  0.3973  0.0007
  191MOL0     C25709   9.948   6.124  -0.147 -0.1254 -0.3081  0.2512
  191MOL0     C25710  10.004   6.044  -0.267  0.6881  0.1387  0.3295
  191MOL0     C25711  10.091   5.920  -0.212  0.9113  0.7564  1.1226
  191MOL0     C25712  10.159   5.865  -0.336  0.1290  0.0907 -0.2003
  191MOL0     C25713  10.075   5.755  -0.404 -1.5273 -0.5413  0.4672
  191MOL0     C25714  10.002   5.666  -0.451  0.3056 -0.5122  0.6120
  191MOL0     C25715   9.826   6.035   0.124 -1.0225  0.2007  0.3228
  191MOL0     C25716   9.797   6.090   0.254 -0.2167  0.2100 -0.0274
  191MOL0     C25717   9.857   5.999   0.366  0.1671 -0.1423  0.4989
  191MOL0     H25718   9.455   6.276   0.582 -4.2252  1.8108 -5.2334
  191MOL0     H25719   9.343   6.407   0.763  0.7946 -0.1225  1.0558
  191MOL0     H25720   9.613   6.678   0.976 -0.0820 -0.5161 -1.7652
  191MOL0     H25721   9.545   6.806   0.861  0.7331 -0.6977 -1.1152
  191MOL0     H25722   9.357   6.833   1.013  0.9711  0.7058  0.1578
  191MOL0     H25723   9.498   6.849   1.116 -1.2200  2.0107 -1.0085
  191MOL0     H25724   9.469   6.594   1.172  1.8245  0.9574  0.0636
  191MOL0     H25725   9.303   6.616   1.102  0.6900 -2.2816  1.2263
  191MOL0     H25726   9.415   6.782   1.320  0.1199 -0.4154 -1.1819
  191MOL0     H25727   9.257   6.788   1.235  1.3201  2.0198 -1.2041
  191MOL0     H25728   9.232   6.676   1.454 -4.3615 -2.6536 -0.3876
  191MOL0     H25729   9.255   6.532   1.330  1.4747 -1.5294  1.0858
  191MOL0     H25730   9.471   6.488   1.389 -2.2338 -1.6318 -0.2995
  191MOL0     H25731   9.467   6.635   1.478 -1.2560  1.8924 -4.4659
  191MOL0     H25732   9.321   6.369   1.536  0.6804  0.3071 -1.4601
  191MOL0     H25733   9.278   6.516   1.622  0.0528 -2.0092  0.8624
  191MOL0     H25734   9.559   6.385   1.624 -2.3296 -1.8287 -0.7325
  191MOL0     H25735   9.509   6.540   1.689  1.7220 -1.4108  0.4765
  191MOL0     H25736   9.211   6.343   1.797 -0.0217 -1.7874  2.2329
  191MOL0     H25737   9.301   6.098   2.066  0.2912 -0.0616  1.1198
  191MOL0     H25738   9.165   6.194   2.033  0.4152  0.1038 -0.4000
  191MOL0     H25739   9.119   5.973   1.956  0.9603 -1.2145 -0.4833
  191MOL0     H25740   9.126   6.064   1.815 -2.2075 -3.7298 -0.3901
  191MOL0     H25741   9.378   5.970   1.779 -1.0697  1.4665  0.7639
  191MOL0     H25742   9.250   5.857   1.770  0.5107 -1.9758  1.5284
  191MOL0     H25743   9.430   5.882   2.004 -2.7239  1.5148 -0.0153
  191MOL0     H25744   9.423   5.765   1.868 -4.0574 -1.8925 -2.6337
  191MOL0     H25745   9.536   5.660   2.073  2.2494 -3.3361  1.2277
  191MOL0     H25746   9.582   5.533   2.258  1.5591  2.8045  0.2092
  191MOL0     H25747   9.377   5.128   2.392 -0.0304 -0.4175  0.0508
  191MOL0     H25748   9.438   4.885   2.436 -3.8815  3.1503  3.8381
  191MOL0     H25749   9.707   4.750   2.277 -0.1487 -2.1744 -0.0059
  191MOL0     H25750   9.844   4.772   2.392  1.4864 -2.2688  0.9806
  191MOL0     H25751   9.857   4.546   2.335  1.7160  0.8200 -0.5687
  191MOL0     H25752   9.801   4.567   2.499  0.5824 -0.7255  0.1460
  191MOL0     H25753   9.573   4.525   2.443 -1.2575 -0.3285 -0.7457
  191MOL0     H25754   9.616   4.506   2.266  0.9223 -2.7733 -1.2724
  191MOL0     H25755   9.782   4.316   2.361 -0.5010 -0.1011  0.2864
  191MOL0     H25756   9.614   4.272   2.348 -1.4080 -0.7004  1.0654
  191MOL0     H25757   9.570   4.252   2.564  0.6173 -0.9952 -0.3679
  191MOL0     H25758   9.666   4.381   2.620  1.6634 -0.5342  0.3959
  191MOL0     H25759   9.775   4.104   2.518  1.5230 -0.8841 -0.6447
  191MOL0     H25760   9.881   4.239   2.571 -0.9120  1.2469  5.3216
  191MOL0     H25761   9.872   4.084   2.728  0.7953  1.7818 -2.2912
  191MOL0     H25762   9.704   4.054   2.711  0.5002 -0.3384  1.4629
  191MOL0     H25763   9.636   4.257   2.820 -0.8459  0.4160  1.4658
  191MOL0     H25764   9.734   4.173   2.933  0.5248  2.5267  0.2362
  191MOL0     H25765   9.838   4.993   2.515  0.6714 -0.3083  1.5973
  191MOL0     H25766   9.778   5.228   2.485 -0.8985  1.8243  2.0590
  191MOL0     H25767   9.160   5.490   2.339 -0.1033 -3.4708 -2.4191
  191MOL0     H25768   9.111   5.654   2.172 -0.6435 -1.6415 -0.3107
  191MOL0     H25769   9.623   6.732   0.669  0.5171 -0.5979 -1.4182
  191MOL0     H25770   9.689   6.617   0.485 -0.7915  0.5046  0.9312
  191MOL0     H25771   9.596   6.343   0.159 -0.2509 -1.2392 -1.6074
  191MOL0     H25772   9.648   6.238  -0.070 -0.7328  2.2596  0.3367
  191MOL0     H25773  10.019   6.141  -0.066  0.9065 -1.0668 -0.4644
  191MOL0     H25774   9.934   6.230  -0.169  2.2054  0.3951  1.8006
  191MOL0     H25775  10.073   6.110  -0.321 -0.2693  1.6455  0.8915
  191MOL0     H25776   9.921   6.013  -0.330 -2.6287  2.4351  3.1827
  191MOL0     H25777  10.034   5.836  -0.170 -1.7537  0.7011 -2.2207
  191MOL0     H25778  10.173   5.953  -0.147  0.5995  0.0388  1.9038
  191MOL0     H25779  10.187   5.941  -0.410  1.8802  0.1088  0.4560
  191MOL0     H25780  10.252   5.815  -0.308 -0.5106  0.1727  2.2478
  191MOL0     H25781   9.952   5.576  -0.481  4.1660 -2.3415 -1.0542
  191MOL0     H25782   9.899   5.956   0.108  0.0642  1.1136  0.6474
  191MOL0     H25783   9.917   5.916   0.329  1.3778  1.6203 -1.7212
  191MOL0     H25784   9.912   6.052   0.444  2.1887 -1.8309  0.3025
  191MOL0     H25785   9.767   5.952   0.408 -0.1945  0.9347  0.9670
  192MOL0     O25786   3.476   3.778   5.754 -0.9318  0.5001 -0.2759
  192MOL0     C25787   3.499   3.723   5.864 -0.4567 -0.1685  0.5039
  192MOL0     O25788   3.573   3.785   5.965  0.2414 -1.0882 -0.4299
  192MOL0     C25789   3.526   3.915   5.996  0.4084 -0.9267  1.1040
  192MOL0     C25790   3.410   3.939   6.061 -0.2059 -0.4040 -0.9040
  192MOL0     C25791   3.359   4.065   6.074  0.9764  0.3049  0.3842
  192MOL0     C25792   3.427   4.169   6.011 -0.0442 -0.7831  0.3543
  192MOL0     O25793   3.393   4.297   6.051 -0.1310  0.4824  0.2954
  192MOL0     C25794   3.319   4.368   5.941 -0.5790  0.7063 -0.8155
  192MOL0     C25795   3.174   4.317   5.917  0.6988  0.3025  0.0586
  192MOL0     C25796   3.105   4.383   5.797  0.4446  0.4414 -0.9661
  192MOL0     C25797   3.074   4.523   5.844  0.3244 -0.1739 -0.1314
  192MOL0     C25798   3.009   4.614   5.736  0.8732  0.4699  0.3858
  192MOL0     C25799   2.880   4.553   5.663  0.1867  0.0093 -0.1893
  192MOL0     C25800   2.837   4.644   5.554  0.0898  0.4612  0.7836
  192MOL0     C25801   2.795   4.783   5.595 -0.7444  0.5072  0.4736
  192MOL0     N25802   2.672   4.784   5.672 -0.3129 -0.4650 -0.0701
  192MOL0     C25803   2.550   4.814   5.625  0.5345 -1.2948 -0.3855
  192MOL0     C25804   2.472   4.812   5.739  0.6388  0.1004 -0.8697
  192MOL0     C25805   2.320   4.812   5.745  0.5418 -0.4327 -0.9005
  192MOL0     C25806   2.261   4.951   5.755  0.4682 -0.0539  0.1288
  192MOL0     C25807   2.273   5.010   5.892  0.5481 -0.2570  0.2496
  192MOL0     C25808   2.197   5.138   5.909 -1.1481  0.1947  0.5895
  192MOL0     O25809   2.062   5.123   5.881  0.1875 -0.3354 -0.1673
  192MOL0     C25810   1.981   5.208   5.791  0.3183  0.8401 -0.5166
  192MOL0     C25811   1.844   5.207   5.836  0.2367  0.3157 -0.0386
  192MOL0     C25812   1.756   5.309   5.798 -0.0599 -0.1687 -0.1094
  192MOL0     C25813   1.809   5.415   5.725 -0.4234  0.3585 -0.0651
  192MOL0     C25814   1.729   5.537   5.689  0.0756 -0.1178 -0.6051
  192MOL0     O25815   1.795   5.626   5.612 -0.3885  0.2641 -0.6769
  192MOL0     C25816   1.728   5.723   5.548  0.3353  0.7369  0.0078
  192MOL0     C25817   1.754   5.856   5.578  0.4046  0.0825  0.7336
  192MOL0     C25818   1.677   5.953   5.520 -0.2004  0.0824 -0.1112
  192MOL0     C25819   1.599   5.928   5.408  0.3505  0.2090 -0.2306
  192MOL0     O25820   1.566   6.039   5.333 -0.4233 -0.4434 -0.4103
  192MOL0     C25821   1.442   6.044   5.264 -1.3184  0.0037 -0.6040
  192MOL0     C25822   1.434   6.168   5.168 -0.2636  0.7792  0.0670
  192MOL0     C25823   1.473   6.302   5.230  1.1941 -0.1963  0.7433
  192MOL0     C25824   1.421   6.421   5.146  0.1470  0.1271  0.7983
  192MOL0     C25825   1.524   6.461   5.039  0.7267  0.0644  0.3975
  192MOL0     C25826   1.485   6.593   4.962  0.1504  0.3196 -0.0956
  192MOL0     C25827   1.454   6.720   5.049  0.0329  0.9569 -0.1658
  192MOL0     C25828   1.570   6.748   5.134 -2.0245 -0.3970 -0.4614
  192MOL0    Cl25829   1.697   6.826   5.029  0.7186 -0.1996 -0.1733
  192MOL0     C25830   1.561   5.798   5.376 -0.1437 -0.8546 -0.1204
  192MOL0     C25831   1.620   5.696   5.450 -0.3164 -0.6151 -0.7297
  192MOL0     O25832   1.616   5.547   5.726  0.3529 -0.1765 -0.6512
  192MOL0     C25833   1.945   5.416   5.683  0.3009  0.5856 -0.4225
  192MOL0     C25834   2.034   5.308   5.713 -0.7112  0.2436 -0.0077
  192MOL0     N25835   2.544   4.794   5.850 -1.0486 -0.9945  0.2034
  192MOL0     N25836   2.670   4.780   5.811  0.9986 -0.4371 -0.1727
  192MOL0     C25837   3.550   4.152   5.950 -0.0935 -0.0136 -0.5384
  192MOL0     C25838   3.593   4.019   5.940 -0.2171  0.4995 -0.6968
  192MOL0     C25839   3.480   3.572   5.850 -0.1337 -0.1691 -0.3920
  192MOL0     C25840   3.585   3.496   5.899 -0.4112  1.1383 -0.2153
  192MOL0     C25841   3.598   3.357   5.863 -0.0929 -0.0841  0.5390
  192MOL0     C25842   3.483   3.300   5.808  0.1436 -0.7947  0.3365
  192MOL0     O25843   3.460   3.167   5.788 -0.8275  0.7588  0.6588
  192MOL0     C25844   3.573   3.078   5.778 -0.7627  0.1941  0.0450
  192MOL0     C25845   3.527   2.926   5.763  0.3987  0.1381 -1.1817
  192MOL0     C25846   3.609   2.844   5.858 -0.1275  0.1754 -0.1205
  192MOL0     C25847   3.753   2.822   5.804  0.7555 -0.2348 -1.0368
  192MOL0     C25848   3.835   2.759   5.909  0.3147  0.6045  0.4767
  192MOL0     C25849   3.909   2.709   5.995 -0.2702 -0.0280 -0.0379
  192MOL0     C25850   3.375   3.376   5.758  0.4063  0.1307  0.6045
  192MOL0     C25851   3.375   3.512   5.772 -0.0646 -0.3771 -0.0245
  192MOL0     C25852   3.265   3.585   5.712  0.4406  0.4116 -0.1548
  192MOL0     H25853   3.356   3.853   6.099  0.9867  0.3291  2.7925
  192MOL0     H25854   3.279   4.091   6.143 -0.8210 -0.0527 -1.4360
  192MOL0     H25855   3.324   4.473   5.970 -2.5133  0.6791 -0.2576
  192MOL0     H25856   3.375   4.352   5.848 -0.7118 -0.5999 -0.6889
  192MOL0     H25857   3.111   4.328   6.006  1.5347 -1.1051  0.8643
  192MOL0     H25858   3.170   4.209   5.905 -1.1611  0.3403  0.0171
  192MOL0     H25859   3.023   4.316   5.769  2.8037 -2.7598 -0.7954
  192MOL0     H25860   3.170   4.377   5.709 -0.8413  3.5190 -2.2632
  192MOL0     H25861   3.009   4.511   5.932 -1.1277 -3.6171 -1.4826
  192MOL0     H25862   3.161   4.579   5.877 -0.8478  3.4068 -2.5475
  192MOL0     H25863   2.982   4.709   5.783 -0.8918  0.3497 -0.2895
  192MOL0     H25864   3.082   4.626   5.655  1.4548 -2.1895  0.4079
  192MOL0     H25865   2.881   4.447   5.636 -1.1500  0.4904 -2.3802
  192MOL0     H25866   2.797   4.542   5.734 -0.3891 -1.3817 -1.0417
  192MOL0     H25867   2.747   4.605   5.506  1.7181 -1.0393 -1.2403
  192MOL0     H25868   2.918   4.658   5.482 -0.8775 -0.8688 -0.6158
  192MOL0     H25869   2.878   4.833   5.647  0.7753 -1.1318 -0.2690
  192MOL0     H25870   2.779   4.830   5.498  3.1401  2.5546  0.6155
  192MOL0     H25871   2.514   4.831   5.524 -3.4609 -0.4747  0.9995
  192MOL0     H25872   2.274   4.758   5.662 -2.6625 -4.2285  2.8993
  192MOL0     H25873   2.288   4.753   5.832 -0.8080  1.1981 -0.2342
  192MOL0     H25874   2.317   5.016   5.687  0.2054 -0.3594 -0.3881
  192MOL0     H25875   2.160   4.954   5.714  0.6310  1.4400 -0.2208
  192MOL0     H25876   2.380   5.031   5.906  0.0787  2.7582 -0.0712
  192MOL0     H25877   2.241   4.933   5.962 -3.5875 -1.3986 -2.5643
  192MOL0     H25878   2.248   5.220   5.857  4.3265 -1.0062  3.3234
  192MOL0     H25879   2.208   5.162   6.015  1.2177 -0.2008  0.4905
  192MOL0     H25880   1.812   5.127   5.902 -2.2110  1.5516  0.3894
  192MOL0     H25881   1.651   5.314   5.828 -1.1746  2.5027 -3.7486
  192MOL0     H25882   1.833   5.881   5.648 -0.5359  3.9818  0.6416
  192MOL0     H25883   1.697   6.054   5.556  2.5830 -0.8147  1.1175
  192MOL0     H25884   1.424   5.947   5.217  2.6117 -2.4108  2.1955
  192MOL0     H25885   1.368   6.051   5.344  1.0996 -0.1051  1.7883
  192MOL0     H25886   1.501   6.150   5.083 -3.4396 -2.0423 -2.1138
  192MOL0     H25887   1.334   6.163   5.124  0.1836  2.2646 -1.2256
  192MOL0     H25888   1.437   6.316   5.332  0.1267  2.0052  0.1163
  192MOL0     H25889   1.582   6.310   5.229  1.3020 -1.3921  1.4849
  192MOL0     H25890   1.403   6.505   5.215  0.3971 -0.4221  1.5443
  192MOL0     H25891   1.329   6.395   5.093  0.2462  1.6939 -0.2012
  192MOL0     H25892   1.527   6.376   4.970  0.9372 -0.1171  0.6274
  192MOL0     H25893   1.624   6.480   5.078  0.2697  1.3215  0.9963
  192MOL0     H25894   1.557   6.628   4.888 -0.6349 -2.1416 -2.1610
  192MOL0     H25895   1.395   6.567   4.906  0.0603 -0.5486  0.4293
  192MOL0     H25896   1.368   6.692   5.110  1.9923 -3.6418  0.9335
  192MOL0     H25897   1.437   6.811   4.992 -0.5543  0.0061 -1.5716
  192MOL0     H25898   1.542   6.822   5.210 -1.7095  0.5706 -1.2706
  192MOL0     H25899   1.606   6.666   5.197  1.1881 -0.3531 -2.0399
  192MOL0     H25900   1.498   5.774   5.291 -1.6171  1.4955  0.1988
  192MOL0     H25901   1.599   5.591   5.434 -0.1552 -0.7166 -0.2684
  192MOL0     H25902   1.971   5.500   5.620 -0.0067  1.3604  0.4538
  192MOL0     H25903   2.141   5.310   5.695 -0.3784 -0.7652  1.6700
  192MOL0     H25904   3.601   4.234   5.901 -2.2489  2.2248  0.7612
  192MOL0     H25905   3.690   4.005   5.894 -0.2524 -1.0025 -0.3754
  192MOL0     H25906   3.665   3.544   5.954  0.3443 -0.3434  0.0365
  192MOL0     H25907   3.679   3.289   5.887  0.0844 -0.9526 -2.1252
  192MOL0     H25908   3.633   3.090   5.869 -4.2234  0.3255  2.5139
  192MOL0     H25909   3.635   3.088   5.688  3.9420  1.9914  3.0730
  192MOL0     H25910   3.523   2.890   5.660 -0.3796 -1.6418 -0.5630
  192MOL0     H25911   3.428   2.927   5.809  0.9509 -2.3975  0.2124
  192MOL0     H25912   3.561   2.747   5.874  0.4350 -0.3652 -1.5357
  192MOL0     H25913   3.623   2.903   5.949 -0.4061  2.5704 -1.5493
  192MOL0     H25914   3.743   2.764   5.712 -0.9955 -0.3510 -0.7929
  192MOL0     H25915   3.803   2.917   5.782  1.5893 -0.2217  0.7237
  192MOL0     H25916   3.973   2.665   6.068 -0.6194 -2.1828 -0.9461
  192MOL0     H25917   3.285   3.347   5.705 -0.5594  2.8338  0.5905
  192MOL0     H25918   3.174   3.524   5.713 -0.5397  1.5446 -3.7215
  192MOL0     H25919   3.249   3.675   5.771  2.8576  0.5936  0.3169
  192MOL0     H25920   3.286   3.626   5.613 -1.8715  4.1810  0.7172
  193MOL0     O25921   4.548   6.048   0.997 -0.1402 -0.0711 -0.4989
  193MOL0     C25922   4.671   6.075   0.979 -0.0852 -0.3166 -0.2488
  193MOL0     O25923   4.752   6.153   1.058  0.2213  0.0310 -0.1965
  193MOL0     C25924   4.775   6.122   1.190  0.1072  0.6041 -0.5112
  193MOL0     C25925   4.747   5.997   1.236  0.4719 -1.4438  0.1788
  193MOL0     C25926   4.778   5.965   1.376  0.2971 -0.7977  0.3165
  193MOL0     C25927   4.834   6.068   1.456  0.3622 -1.4986 -0.3744
  193MOL0     O25928   4.880   6.066   1.589  0.1850 -0.0621  0.2121
  193MOL0     C25929   4.842   5.944   1.661  0.1106  0.4198  0.1147
  193MOL0     C25930   4.898   5.954   1.800  0.0255  0.4868  0.1596
  193MOL0     C25931   4.895   5.808   1.863 -0.2081  0.0337  0.4054
  193MOL0     C25932   5.033   5.734   1.839 -0.2938 -1.1582 -0.1900
  193MOL0     C25933   5.053   5.591   1.906  0.0091 -0.2812  0.1879
  193MOL0     C25934   5.197   5.548   1.877 -0.2855 -0.0484  0.0494
  193MOL0     C25935   5.231   5.413   1.930 -0.8164  0.9865  0.3969
  193MOL0     C25936   5.195   5.395   2.077 -0.0037 -0.4808 -0.1263
  193MOL0     N25937   5.273   5.293   2.150  0.2401 -0.3536  0.8054
  193MOL0     C25938   5.398   5.232   2.122  0.0969  0.0097 -0.4710
  193MOL0     C25939   5.404   5.122   2.199  0.4816  0.1248 -0.3333
  193MOL0     C25940   5.499   5.007   2.194 -0.4428 -0.1629 -0.0371
  193MOL0     C25941   5.648   5.057   2.212 -0.7715  0.7822 -0.0723
  193MOL0     C25942   5.744   4.966   2.142 -0.0841 -0.3604  0.0197
  193MOL0     C25943   5.886   5.005   2.175 -0.1019 -0.3389 -0.8476
  193MOL0     O25944   5.934   5.102   2.085  0.1347 -0.7632 -0.1932
  193MOL0     C25945   6.068   5.107   2.078  0.2818  0.5010 -0.6002
  193MOL0     C25946   6.159   5.066   2.176 -0.2972  0.5403 -0.4250
  193MOL0     C25947   6.298   5.088   2.157 -0.4749  0.5960  0.3474
  193MOL0     C25948   6.348   5.142   2.038  0.0858  0.5805  0.9962
  193MOL0     C25949   6.490   5.161   2.019 -0.0460 -0.1231  0.2747
  193MOL0     O25950   6.574   5.106   2.116 -0.1413  0.0098  0.0662
  193MOL0     C25951   6.704   5.093   2.088  0.2183  0.7302 -0.0172
  193MOL0     C25952   6.761   4.960   2.086  0.9347 -0.5801 -0.4467
  193MOL0     C25953   6.899   4.946   2.099 -0.7777  0.1901  0.3991
  193MOL0     C25954   6.989   5.053   2.089 -0.5831 -0.3894  0.3546
  193MOL0     O25955   7.122   5.025   2.085 -0.3675 -0.5985 -0.5071
  193MOL0     C25956   7.204   5.103   1.994  0.2136 -0.2888 -0.4755
  193MOL0     C25957   7.352   5.071   2.020  0.7793  0.1908  0.3637
  193MOL0     C25958   7.444   5.123   1.907  0.3336 -0.5342  0.1848
  193MOL0     C25959   7.599   5.126   1.925 -0.2999  0.3839 -0.5177
  193MOL0     C25960   7.667   5.216   1.818  0.1683 -0.1008 -0.7407
  193MOL0     C25961   7.820   5.236   1.835 -0.2822 -0.7600 -0.6553
  193MOL0     C25962   7.898   5.127   1.759 -0.2482 -0.4036  1.0110
  193MOL0     C25963   8.055   5.133   1.777 -0.0738  1.5670  0.6780
  193MOL0    Cl25964   8.151   4.989   1.712  0.2576  0.0083  0.0083
  193MOL0     C25965   6.931   5.182   2.070 -0.3839  0.4779 -0.6468
  193MOL0     C25966   6.792   5.200   2.082  0.2144 -0.0791 -0.4955
  193MOL0     O25967   6.525   5.219   1.914  0.4727  0.6097  0.3550
  193MOL0     C25968   6.249   5.191   1.947  0.0967  0.2250  0.4097
  193MOL0     C25969   6.115   5.174   1.961  0.4172  0.0311  0.3600
  193MOL0     N25970   5.278   5.109   2.266  0.2136 -0.0084  1.0582
  193MOL0     N25971   5.198   5.210   2.231  0.1213  0.4501 -0.1753
  193MOL0     C25972   4.876   6.184   1.394 -0.6230 -0.2721  0.1677
  193MOL0     C25973   4.843   6.214   1.268 -0.7973 -0.7025  1.2596
  193MOL0     C25974   4.747   6.025   0.854 -0.0920 -0.1765  0.3237
  193MOL0     C25975   4.852   6.093   0.801 -0.7335 -1.0013  0.3507
  193MOL0     C25976   4.930   6.046   0.700  0.0910  0.8160 -0.1710
  193MOL0     C25977   4.900   5.935   0.622 -0.4797 -0.0047  0.5595
  193MOL0     O25978   4.992   5.909   0.520  0.6479  0.4422  1.0974
  193MOL0     C25979   4.952   5.812   0.422 -0.1016  0.3534 -0.3737
  193MOL0     C25980   4.876   5.863   0.301  0.0200 -0.2219  0.6713
  193MOL0     C25981   4.939   5.995   0.239 -0.7544 -0.3759 -0.6291
  193MOL0     C25982   4.890   6.052   0.105 -0.4123 -0.5780  1.5289
  193MOL0     C25983   4.738   6.033   0.085 -0.0227  0.8326 -0.0864
  193MOL0     C25984   4.618   6.033   0.075  0.3376  0.5177 -0.3706
  193MOL0     C25985   4.777   5.875   0.663 -1.0720  0.3376 -0.1664
  193MOL0     C25986   4.705   5.910   0.781 -1.1268  0.1735 -0.3953
  193MOL0     C25987   4.590   5.830   0.825 -1.2037  0.3710 -0.2463
  193MOL0     H25988   4.695   5.934   1.164 -1.9201 -0.3168  0.8154
  193MOL0     H25989   4.758   5.871   1.427 -2.7898 -1.3199 -1.5686
  193MOL0     H25990   4.733   5.943   1.671  0.0603  1.6123 -0.1410
  193MOL0     H25991   4.866   5.847   1.619  1.6075 -0.5228  2.8788
  193MOL0     H25992   4.845   6.021   1.867 -1.6640 -0.4232 -0.2059
  193MOL0     H25993   4.999   5.995   1.803  0.3265 -0.2989  1.9027
  193MOL0     H25994   4.809   5.746   1.833 -1.5308  2.3257 -0.8024
  193MOL0     H25995   4.885   5.824   1.971  0.4034 -2.4649  0.9171
  193MOL0     H25996   5.043   5.728   1.730 -2.5348  0.4220 -0.5640
  193MOL0     H25997   5.118   5.797   1.868  0.6350 -1.8973 -1.2049
  193MOL0     H25998   5.039   5.588   2.014  0.0210  1.7289  0.2748
  193MOL0     H25999   4.975   5.525   1.866 -0.4622  1.6493 -2.3612
  193MOL0     H26000   5.218   5.555   1.770  1.1975 -1.5120  0.2036
  193MOL0     H26001   5.263   5.612   1.937 -2.0344  1.7139  0.1950
  193MOL0     H26002   5.338   5.400   1.909 -1.0147 -1.0396  0.4542
  193MOL0     H26003   5.171   5.338   1.877  0.9019 -1.9449  2.2898
  193MOL0     H26004   5.218   5.492   2.121 -0.5124  1.2079 -3.3241
  193MOL0     H26005   5.089   5.368   2.085  0.3367 -2.5054 -1.5837
  193MOL0     H26006   5.478   5.262   2.055  1.3319  0.4456  1.1222
  193MOL0     H26007   5.476   4.932   2.270 -0.3569  0.1840  0.3353
  193MOL0     H26008   5.483   4.963   2.095 -0.1884  4.5310 -2.4276
  193MOL0     H26009   5.674   5.155   2.171 -2.5067  1.7866  1.0910
  193MOL0     H26010   5.673   5.073   2.317  1.8852  0.3508 -0.5713
  193MOL0     H26011   5.726   4.979   2.035 -0.8141 -2.8635 -0.2226
  193MOL0     H26012   5.731   4.861   2.171  0.1849 -0.7652 -1.2536
  193MOL0     H26013   5.941   4.913   2.154  0.7803 -0.0612  0.1452
  193MOL0     H26014   5.888   5.037   2.280 -1.0267  0.9066 -1.1828
  193MOL0     H26015   6.123   5.018   2.266  1.9174  1.1633  0.8699
  193MOL0     H26016   6.372   5.048   2.224  0.3596  1.0806 -0.2663
  193MOL0     H26017   6.697   4.872   2.081 -0.1680  0.2390 -1.3159
  193MOL0     H26018   6.930   4.842   2.106  1.9264  0.9729  1.4798
  193MOL0     H26019   7.175   5.078   1.892 -0.7071 -1.1192 -0.0253
  193MOL0     H26020   7.197   5.211   2.011  3.9695 -0.2131  2.0000
  193MOL0     H26021   7.378   5.119   2.115  2.6067 -0.4811  0.2487
  193MOL0     H26022   7.363   4.963   2.027 -2.3242 -0.3337 -1.0415
  193MOL0     H26023   7.416   5.077   1.812 -2.3262  1.5989 -0.2066
  193MOL0     H26024   7.419   5.227   1.884  0.9444 -0.4278 -0.0055
  193MOL0     H26025   7.638   5.025   1.936 -3.7599 -0.7964  3.4815
  193MOL0     H26026   7.608   5.180   2.019  1.8651  1.0902 -1.0853
  193MOL0     H26027   7.621   5.315   1.829 -0.5537 -0.2672 -2.0877
  193MOL0     H26028   7.651   5.173   1.719  2.9790  0.1077 -1.3605
  193MOL0     H26029   7.860   5.331   1.799  1.7661 -0.2293  2.6167
  193MOL0     H26030   7.842   5.230   1.941 -0.3792 -0.3987 -0.6122
  193MOL0     H26031   7.881   5.122   1.651 -0.7004 -0.2464  1.0742
  193MOL0     H26032   7.862   5.032   1.801  1.9267 -2.1648 -0.8150
  193MOL0     H26033   8.105   5.217   1.729  4.8943  1.7417  5.2572
  193MOL0     H26034   8.073   5.130   1.885  2.9072 -0.8235  0.2573
  193MOL0     H26035   6.999   5.264   2.050 -0.6012  0.1893 -2.7682
  193MOL0     H26036   6.750   5.300   2.072 -3.0614 -1.4722 -2.1385
  193MOL0     H26037   6.282   5.239   1.856  0.2598 -3.3908 -1.6232
  193MOL0     H26038   6.047   5.216   1.887  1.5572  0.2187 -0.6120
  193MOL0     H26039   4.936   6.252   1.453 -1.9518  1.5885 -0.5451
  193MOL0     H26040   4.892   6.305   1.237  2.1205 -2.1361  1.3283
  193MOL0     H26041   4.894   6.183   0.845 -2.2638 -0.7387  1.3440
  193MOL0     H26042   5.015   6.103   0.664  0.6778  0.6978  0.9713
  193MOL0     H26043   4.896   5.727   0.464  1.0289 -2.0345 -3.3644
  193MOL0     H26044   5.046   5.772   0.383 -2.3397 -2.0776 -3.9150
  193MOL0     H26045   4.775   5.886   0.337  0.4070 -1.4977  2.7392
  193MOL0     H26046   4.872   5.791   0.219  0.6030  0.7554 -0.2435
  193MOL0     H26047   5.046   5.976   0.229 -0.9265 -0.9290 -1.5091
  193MOL0     H26048   4.913   6.070   0.315  0.3280 -0.7884  0.1763
  193MOL0     H26049   4.935   6.149   0.082  1.2635 -1.7501 -0.5637
  193MOL0     H26050   4.930   5.985   0.028 -0.5405  0.7074  0.3037
  193MOL0     H26051   4.512   6.022   0.078  0.1363  0.8148 -3.4551
  193MOL0     H26052   4.736   5.802   0.594 -0.8452  0.8804 -0.8748
  193MOL0     H26053   4.589   5.806   0.932 -1.0178  1.4635  0.0152
  193MOL0     H26054   4.505   5.893   0.798 -2.8021 -1.5930  0.0242
  193MOL0     H26055   4.597   5.745   0.758  2.6440  0.7373 -0.5418
  194MOL0     O26056  10.707   0.423   7.685  0.0511 -0.6021 -0.1964
  194MOL0     C26057  10.627   0.359   7.612 -0.5581 -1.3548 -0.1059
  194MOL0     O26058  10.633   0.348   7.472 -0.1218  0.3680  0.3649
  194MOL0     C26059  10.749   0.370   7.401  0.1227  0.4576 -0.5816
  194MOL0     C26060  10.828   0.488   7.421  0.2630  0.0430 -0.0787
  194MOL0     C26061  10.934   0.522   7.335 -0.5812 -0.0435 -0.2270
  194MOL0     C26062  10.965   0.433   7.228 -0.2275  0.0474  0.3972
  194MOL0     O26063  11.082   0.464   7.154 -0.1247 -0.4549 -0.4497
  194MOL0     C26064  11.181   0.368   7.189 -0.1490 -0.5807 -0.6921
  194MOL0     C26065  11.311   0.436   7.160 -0.2492 -0.0662 -0.1421
  194MOL0     C26066  11.428   0.334   7.147 -0.7212  0.4949  0.4927
  194MOL0     C26067  11.425   0.203   7.226 -0.2385  0.0414 -0.1908
  194MOL0     C26068  11.544   0.123   7.192  0.0632  0.8471  0.0476
  194MOL0     C26069  11.573   0.022   7.310  0.0349  0.6615  0.3455
  194MOL0     C26070  11.616  -0.113   7.248  0.9625  0.0856  0.4820
  194MOL0     C26071  11.650  -0.219   7.349  1.0429 -0.5072 -1.0152
  194MOL0     N26072  11.529  -0.263   7.425  0.5857 -0.6735  0.6708
  194MOL0     C26073  11.497  -0.243   7.555 -0.4547 -0.2991 -0.2767
  194MOL0     C26074  11.372  -0.291   7.569  0.4684  0.5350 -0.1677
  194MOL0     C26075  11.294  -0.261   7.704  1.0331 -0.0855  0.1466
  194MOL0     C26076  11.376  -0.311   7.822  0.2711 -1.1552  0.2977
  194MOL0     C26077  11.335  -0.459   7.853 -0.3381 -0.4809 -0.4791
  194MOL0     C26078  11.227  -0.481   7.965 -1.0299  0.5686  0.2545
  194MOL0     O26079  11.128  -0.375   7.991 -0.6032  0.2555  0.7310
  194MOL0     C26080  11.037  -0.403   8.078 -0.2574  0.5593 -0.2387
  194MOL0     C26081  10.928  -0.329   8.063  0.1765 -0.2067 -0.9069
  194MOL0     C26082  10.812  -0.350   8.148  0.3280  1.0270  0.3167
  194MOL0     C26083  10.813  -0.451   8.249 -0.5107  0.5259  0.7856
  194MOL0     C26084  10.691  -0.485   8.331  0.3485 -0.0325  0.2173
  194MOL0     O26085  10.568  -0.466   8.279 -0.2416  0.7196  0.1660
  194MOL0     C26086  10.458  -0.455   8.354  0.1022  0.7080 -0.2823
  194MOL0     C26087  10.397  -0.569   8.404 -0.0453 -0.4393  0.6566
  194MOL0     C26088  10.285  -0.562   8.489  0.3376  0.2292  0.1141
  194MOL0     C26089  10.216  -0.440   8.509  0.3844 -0.4503 -0.3593
  194MOL0     O26090  10.099  -0.416   8.585  0.9035 -0.4930 -0.3416
  194MOL0     C26091  10.031  -0.531   8.656  0.0839  0.0554 -1.7634
  194MOL0     C26092   9.896  -0.504   8.735 -0.1603 -0.1262 -0.3970
  194MOL0     C26093   9.888  -0.374   8.806  0.5523  0.8503 -0.8598
  194MOL0     C26094   9.757  -0.351   8.883  0.5871 -0.0044  0.3116
  194MOL0     C26095   9.714  -0.208   8.928 -0.6750  0.5254 -0.5488
  194MOL0     C26096   9.668  -0.110   8.815 -0.5349 -0.1251  0.3483
  194MOL0     C26097   9.616   0.013   8.876  1.6115  0.3080 -0.1799
  194MOL0     C26098   9.606   0.135   8.778 -0.4309  0.1058 -0.6106
  194MOL0    Cl26099   9.767   0.210   8.743 -0.0068 -0.1612  0.1568
  194MOL0     C26100  10.273  -0.321   8.442 -0.8834 -0.7950 -0.3883
  194MOL0     C26101  10.405  -0.327   8.377  0.0620  0.5036  0.9848
  194MOL0     O26102  10.717  -0.511   8.448 -0.4596 -0.6112  0.7123
  194MOL0     C26103  10.939  -0.516   8.274 -0.1035 -0.0005  0.3433
  194MOL0     C26104  11.043  -0.491   8.190 -0.7854 -0.0162 -0.4352
  194MOL0     N26105  11.346  -0.369   7.453 -0.9605 -0.3464 -0.7297
  194MOL0     N26106  11.436  -0.343   7.366 -0.4808 -1.2126 -0.1095
  194MOL0     C26107  10.891   0.315   7.207  0.4329  0.4727 -0.2599
  194MOL0     C26108  10.784   0.279   7.295 -1.0134  0.2019  0.1950
  194MOL0     C26109  10.521   0.288   7.688  0.0087  0.0321 -0.1161
  194MOL0     C26110  10.417   0.216   7.616 -0.2451  0.1837  0.4653
  194MOL0     C26111  10.302   0.166   7.678 -0.2184  1.4201 -0.6518
  194MOL0     C26112  10.282   0.176   7.816 -0.6067  0.0793  0.0582
  194MOL0     O26113  10.170   0.123   7.871  0.0446 -0.1803  0.3667
  194MOL0     C26114  10.193  -0.009   7.920  0.1438 -0.5336 -0.5838
  194MOL0     C26115  10.091  -0.096   7.847 -0.5514 -0.5488  1.0470
  194MOL0     C26116   9.953  -0.034   7.870 -0.0438  0.9566 -0.0521
  194MOL0     C26117   9.846  -0.120   7.805  0.0175  0.5820  0.0306
  194MOL0     C26118   9.710  -0.074   7.832 -0.6295 -0.0285 -0.0154
  194MOL0     C26119   9.595  -0.033   7.841  0.2304 -1.1895  0.2961
  194MOL0     C26120  10.387   0.235   7.891 -0.2729  1.0382 -0.9254
  194MOL0     C26121  10.500   0.298   7.835 -0.0975 -0.8465 -0.7879
  194MOL0     C26122  10.594   0.376   7.926  1.1627  0.3836  0.8346
  194MOL0     H26123  10.810   0.559   7.501  1.1326  1.2421 -0.9116
  194MOL0     H26124  11.001   0.607   7.345  1.0652 -1.1995 -1.0373
  194MOL0     H26125  11.192   0.335   7.293  0.6707 -3.0178 -1.4994
  194MOL0     H26126  11.167   0.272   7.141  2.5540 -2.2669  1.5597
  194MOL0     H26127  11.339   0.506   7.239 -1.6360  3.4844 -2.5512
  194MOL0     H26128  11.310   0.497   7.069  0.7497 -0.0173 -0.1333
  194MOL0     H26129  11.527   0.377   7.164  1.4003 -4.1899  1.6243
  194MOL0     H26130  11.425   0.312   7.040 -1.9440  1.2526  0.3572
  194MOL0     H26131  11.414   0.209   7.335 -0.5724 -0.7887 -0.1645
  194MOL0     H26132  11.331   0.152   7.202 -0.6069  0.4283  0.4058
  194MOL0     H26133  11.530   0.067   7.099 -0.5924 -0.3741  0.8597
  194MOL0     H26134  11.636   0.183   7.191  0.1161  0.7807 -1.3764
  194MOL0     H26135  11.660   0.059   7.365  0.7988  0.2288 -0.5506
  194MOL0     H26136  11.488   0.009   7.378  0.3119  4.5124  1.6716
  194MOL0     H26137  11.705  -0.102   7.186  0.7041  2.5487  0.4362
  194MOL0     H26138  11.539  -0.150   7.178  2.1638 -2.8361  0.5609
  194MOL0     H26139  11.689  -0.312   7.307 -0.6104 -2.2799  1.0892
  194MOL0     H26140  11.715  -0.170   7.421  2.9217 -1.3911 -2.0422
  194MOL0     H26141  11.552  -0.184   7.627  0.0102  0.5463 -1.3037
  194MOL0     H26142  11.275  -0.153   7.713 -0.6384 -0.4062  0.8094
  194MOL0     H26143  11.193  -0.302   7.700  0.5591  0.8308  1.6334
  194MOL0     H26144  11.483  -0.296   7.803 -0.0684  2.4797  0.6461
  194MOL0     H26145  11.353  -0.241   7.902  2.5993 -1.4228  1.2654
  194MOL0     H26146  11.424  -0.498   7.903 -0.8002  0.4541  1.1461
  194MOL0     H26147  11.291  -0.524   7.777 -4.2107 -1.8568  2.5790
  194MOL0     H26148  11.278  -0.498   8.060  0.1062 -1.3915 -0.6393
  194MOL0     H26149  11.170  -0.571   7.940  0.8358 -0.5043 -0.3167
  194MOL0     H26150  10.925  -0.266   7.975 -1.5216  1.3583  0.1760
  194MOL0     H26151  10.720  -0.299   8.122  0.7835  1.9648  0.4985
  194MOL0     H26152  10.467  -0.651   8.389  2.7228  1.4565  2.2372
  194MOL0     H26153  10.251  -0.660   8.524  3.6769 -2.4560 -3.2625
  194MOL0     H26154  10.013  -0.608   8.580  1.4876  0.2301 -2.2968
  194MOL0     H26155  10.108  -0.563   8.727  1.1919  1.1116 -2.4546
  194MOL0     H26156   9.819  -0.509   8.658  1.6337  0.5526 -2.3559
  194MOL0     H26157   9.883  -0.580   8.812 -1.1099 -0.0396 -0.4672
  194MOL0     H26158   9.968  -0.353   8.878  0.6774  1.8752 -1.2720
  194MOL0     H26159   9.890  -0.285   8.742 -1.1127  0.5067 -1.4472
  194MOL0     H26160   9.756  -0.421   8.967 -1.6298  0.8785  1.1053
  194MOL0     H26161   9.677  -0.393   8.820  0.0773  0.1655  0.8388
  194MOL0     H26162   9.806  -0.166   8.970  0.3188 -2.5749  0.5851
  194MOL0     H26163   9.636  -0.217   9.004 -0.9325  0.7236 -0.7853
  194MOL0     H26164   9.752  -0.089   8.747  0.9449 -1.8295  1.5546
  194MOL0     H26165   9.594  -0.161   8.753 -0.5912  0.9355 -0.4975
  194MOL0     H26166   9.670   0.048   8.965 -1.5257  0.9297  1.6373
  194MOL0     H26167   9.515  -0.008   8.914  1.3259  0.0315 -1.0915
  194MOL0     H26168   9.562   0.110   8.681  0.3622 -2.5808 -0.3679
  194MOL0     H26169   9.548   0.214   8.827  2.8840  1.8523  0.8782
  194MOL0     H26170  10.217  -0.228   8.449  0.4084 -0.0697  0.9735
  194MOL0     H26171  10.447  -0.236   8.337 -0.3754  0.1525 -0.3399
  194MOL0     H26172  10.951  -0.587   8.355  2.7281 -0.8531 -0.7298
  194MOL0     H26173  11.138  -0.533   8.222 -1.1538 -0.1413  0.5415
  194MOL0     H26174  10.908   0.248   7.123 -3.9066 -0.5530 -0.5516
  194MOL0     H26175  10.746   0.183   7.262  0.2368 -0.1779 -0.1941
  194MOL0     H26176  10.429   0.182   7.514 -2.0647 -2.1562  0.9505
  194MOL0     H26177  10.233   0.107   7.618 -0.8360  1.7509 -0.2862
  194MOL0     H26178  10.173  -0.005   8.027 -2.8469  1.8989 -1.0648
  194MOL0     H26179  10.296  -0.037   7.899  1.0790  0.9646  1.6271
  194MOL0     H26180  10.093  -0.188   7.906  3.2597 -1.1678  0.2692
  194MOL0     H26181  10.113  -0.121   7.743  0.2594  1.6144  0.6392
  194MOL0     H26182   9.946   0.072   7.847  0.2092  0.7550 -1.1024
  194MOL0     H26183   9.949  -0.045   7.979 -0.9087  1.2571 -0.0490
  194MOL0     H26184   9.872  -0.122   7.699  1.9416  0.5572  0.4519
  194MOL0     H26185   9.853  -0.224   7.838 -1.8357 -0.3525 -2.2187
  194MOL0     H26186   9.491  -0.007   7.835  0.0764  0.1307  4.7707
  194MOL0     H26187  10.370   0.235   7.998 -1.2082 -1.4439 -0.9981
  194MOL0     H26188  10.547   0.369   8.025  2.9812  1.2999  1.8035
  194MOL0     H26189  10.695   0.335   7.925  1.4524  1.1013 -0.1425
  194MOL0     H26190  10.617   0.474   7.885  2.8019  0.4575  1.8604
  195MOL0     O26191   0.141  10.741   7.668  0.2678  0.0833 -0.0620
  195MOL0     C26192   0.158  10.696   7.781 -0.3278  0.5096  0.5210
  195MOL0     O26193   0.276  10.662   7.842 -0.6182 -0.2089 -0.2568
  195MOL0     C26194   0.400  10.674   7.770  0.0007  0.0391  0.4761
  195MOL0     C26195   0.515  10.694   7.842  1.0707  0.5697 -0.2701
  195MOL0     C26196   0.646  10.690   7.787  0.4728  0.4097  0.3291
  195MOL0     C26197   0.656  10.681   7.648 -0.1808 -0.3826 -0.3177
  195MOL0     O26198   0.769  10.679   7.576  0.5316 -0.0567 -0.1706
  195MOL0     C26199   0.898  10.689   7.634 -0.9596  0.3661 -0.1033
  195MOL0     C26200   1.009  10.671   7.526  0.6869  0.3401 -0.5324
  195MOL0     C26201   1.145  10.629   7.589 -0.0892 -0.0593 -0.1030
  195MOL0     C26202   1.221  10.739   7.668 -0.3549 -0.3749 -0.3461
  195MOL0     C26203   1.351  10.684   7.735  0.7548 -0.1000  1.3132
  195MOL0     C26204   1.429  10.581   7.649  1.7489  0.1758  0.2199
  195MOL0     C26205   1.566  10.565   7.698  0.0056  0.4912 -0.4522
  195MOL0     C26206   1.594  10.484   7.827 -1.1725 -0.1788 -0.3574
  195MOL0     N26207   1.566  10.561   7.954 -0.3479  0.6546 -0.1774
  195MOL0     C26208   1.526  10.508   8.072 -1.1613  0.2189 -0.2701
  195MOL0     C26209   1.561  10.597   8.161  0.2179 -1.0437 -1.0474
  195MOL0     C26210   1.532  10.591   8.308 -0.8698 -0.1038  0.1756
  195MOL0     C26211   1.648  10.632   8.395 -0.0830  0.3181 -0.6156
  195MOL0     C26212   1.709  10.512   8.476  0.0237 -0.2548  0.3886
  195MOL0     C26213   1.784  10.546   8.603 -0.4824 -0.5282 -0.4379
  195MOL0     O26214   1.691  10.617   8.682  0.5086 -0.1294  0.6333
  195MOL0     C26215   1.751  10.716   8.755 -0.1345 -1.1343  0.4011
  195MOL0     C26216   1.710  10.847   8.729  0.7276 -0.4140 -0.4016
  195MOL0     C26217   1.768  10.955   8.798 -0.7385 -0.9311  0.3368
  195MOL0     C26218   1.853  10.927   8.911  0.5796 -0.1436 -0.3853
  195MOL0     C26219   1.912  11.033   8.995 -0.0662 -1.3460 -0.4935
  195MOL0     O26220   1.886  11.157   8.951 -0.2215 -0.7088 -0.4765
  195MOL0     C26221   1.928  11.254   9.032  0.6049 -0.2977  0.5719
  195MOL0     C26222   2.054  11.313   9.025 -0.3853 -0.4706 -0.0996
  195MOL0     C26223   2.090  11.420   9.110 -0.6580  0.3629 -0.9164
  195MOL0     C26224   1.992  11.474   9.199 -0.2134 -1.2027  0.2259
  195MOL0     O26225   2.042  11.586   9.266 -0.0198  0.0214  0.2402
  195MOL0     C26226   1.940  11.674   9.323  0.4560  0.7184  0.1751
  195MOL0     C26227   2.014  11.795   9.390 -0.0088  0.3885  0.7625
  195MOL0     C26228   1.916  11.874   9.484  0.2900 -0.3963  0.5113
  195MOL0     C26229   1.988  11.984   9.567 -0.8107 -0.6712 -0.6603
  195MOL0     C26230   1.891  12.052   9.667 -0.2249 -0.4512  0.1220
  195MOL0     C26231   1.777  12.139   9.610  0.2594 -0.4074 -0.2689
  195MOL0     C26232   1.688  12.187   9.727  0.1736 -0.5733  0.7094
  195MOL0     C26233   1.604  12.300   9.699 -0.6041 -0.0804 -0.8386
  195MOL0    Cl26234   1.703  12.447   9.673 -0.1646 -0.0341 -0.1700
  195MOL0     C26235   1.865  11.424   9.194 -0.0183  0.7734 -0.8805
  195MOL0     C26236   1.826  11.316   9.116  0.3303 -0.4408  0.7223
  195MOL0     O26237   1.989  11.000   9.078  0.5149  0.1944 -0.4826
  195MOL0     C26238   1.895  10.791   8.928 -0.0211 -0.0855  0.4389
  195MOL0     C26239   1.847  10.687   8.851  0.2081  0.2574  0.3077
  195MOL0     N26240   1.625  10.703   8.095  0.8633  0.4882  0.2926
  195MOL0     N26241   1.624  10.683   7.970  0.2235 -0.4165  0.6951
  195MOL0     C26242   0.536  10.685   7.570 -0.5978  0.1354  0.4527
  195MOL0     C26243   0.414  10.677   7.629 -0.4087  0.3132  0.1900
  195MOL0     C26244   0.038  10.654   7.868  0.4468  0.1191  0.9527
  195MOL0     C26245   0.060  10.618   8.000  0.0721 -0.4819 -0.5957
  195MOL0     C26246  -0.040  10.577   8.093 -0.2221  0.0243 -0.1425
  195MOL0     C26247  -0.160  10.588   8.049 -0.0455 -0.4373  0.7717
  195MOL0     O26248  -0.264  10.541   8.120  0.6452 -0.6199  1.1266
  195MOL0     C26249  -0.309  10.614   8.236 -0.8088 -0.2594  1.1143
  195MOL0     C26250  -0.404  10.539   8.320  0.3944 -0.0989 -0.3181
  195MOL0     C26251  -0.333  10.454   8.427  0.6810 -0.3941 -0.2468
  195MOL0     C26252  -0.430  10.394   8.526 -0.7079 -0.4398 -0.8893
  195MOL0     C26253  -0.534  10.306   8.465 -0.1817 -0.2678 -0.4374
  195MOL0     C26254  -0.624  10.236   8.413  0.6915 -0.1195 -0.7485
  195MOL0     C26255  -0.189  10.601   7.912 -0.4143  0.1224  0.2003
  195MOL0     C26256  -0.092  10.637   7.821 -0.2540  0.9675  0.4804
  195MOL0     C26257  -0.130  10.649   7.668 -0.3996  0.4054 -0.2111
  195MOL0     H26258   0.505  10.706   7.950 -2.1398  1.2944 -0.5250
  195MOL0     H26259   0.735  10.718   7.843  1.4211 -2.2848  0.3275
  195MOL0     H26260   0.905  10.784   7.687  1.3618  0.7706 -1.0353
  195MOL0     H26261   0.914  10.605   7.702 -2.1302  1.1717  1.2077
  195MOL0     H26262   1.012  10.755   7.456 -1.5613  1.9954  1.2093
  195MOL0     H26263   0.974  10.585   7.468 -0.8453  1.8733 -2.0080
  195MOL0     H26264   1.211  10.588   7.512  2.2959 -0.5321  2.0144
  195MOL0     H26265   1.120  10.548   7.659 -3.0994  0.4584 -0.4449
  195MOL0     H26266   1.255  10.824   7.607 -0.7166  1.1296  1.4478
  195MOL0     H26267   1.154  10.785   7.741  0.7154  1.8712 -0.6826
  195MOL0     H26268   1.405  10.774   7.762 -0.1512  0.5297  1.0890
  195MOL0     H26269   1.321  10.624   7.822 -1.7378  2.6162  2.4803
  195MOL0     H26270   1.372  10.487   7.651  0.0019  1.1526 -0.8277
  195MOL0     H26271   1.419  10.616   7.546 -0.7040  1.2537  0.7528
  195MOL0     H26272   1.606  10.666   7.712  0.2572  0.3652 -0.2428
  195MOL0     H26273   1.628  10.514   7.624  2.0786 -0.9431  2.0831
  195MOL0     H26274   1.525  10.400   7.827 -2.0798  0.5482 -0.5434
  195MOL0     H26275   1.698  10.452   7.835 -1.4522 -0.7464  1.6126
  195MOL0     H26276   1.479  10.413   8.097  0.5370  0.0672  2.9631
  195MOL0     H26277   1.438  10.647   8.315 -0.7344  0.3419 -1.2935
  195MOL0     H26278   1.503  10.490   8.339 -1.8791  0.0631 -0.1797
  195MOL0     H26279   1.726  10.672   8.329  0.0004 -0.8839 -1.2744
  195MOL0     H26280   1.619  10.706   8.469  2.2185 -0.1442  0.8530
  195MOL0     H26281   1.768  10.444   8.413  1.3739 -3.4090  4.6307
  195MOL0     H26282   1.622  10.460   8.516 -0.5714  0.9334  0.6614
  195MOL0     H26283   1.873  10.605   8.578 -0.9652  2.2197  3.3629
  195MOL0     H26284   1.809  10.454   8.657 -0.8680  0.8614  2.3158
  195MOL0     H26285   1.633  10.872   8.657 -0.1998 -2.5760 -0.2371
  195MOL0     H26286   1.738  11.055   8.767  0.9765 -1.2088 -2.6909
  195MOL0     H26287   2.135  11.276   8.962  0.8607  0.8500  0.6391
  195MOL0     H26288   2.184  11.473   9.100 -0.9089  1.0976  0.3298
  195MOL0     H26289   1.872  11.707   9.244 -0.7763 -1.0770  0.4414
  195MOL0     H26290   1.880  11.633   9.405 -0.3807  1.6945  0.0633
  195MOL0     H26291   2.106  11.763   9.439  0.7010  0.9299 -0.1932
  195MOL0     H26292   2.046  11.846   9.299  2.1159 -1.8026  0.1724
  195MOL0     H26293   1.840  11.924   9.423 -0.0423 -1.2477  0.2194
  195MOL0     H26294   1.850  11.813   9.547 -2.7504  2.4552  0.4057
  195MOL0     H26295   2.033  12.060   9.502  1.7367  1.7281  3.4841
  195MOL0     H26296   2.071  11.936   9.619  0.2837  0.4848 -1.2867
  195MOL0     H26297   1.951  12.127   9.718 -1.8322  0.7943  0.2466
  195MOL0     H26298   1.851  11.977   9.736 -1.7107 -0.0322 -0.2495
  195MOL0     H26299   1.824  12.225   9.561  1.4339 -1.3226 -0.7912
  195MOL0     H26300   1.724  12.085   9.531  0.0688 -0.5674 -0.0318
  195MOL0     H26301   1.747  12.211   9.816  0.4059 -0.4019  0.5122
  195MOL0     H26302   1.616  12.109   9.753 -1.9654  1.2778  0.6109
  195MOL0     H26303   1.534  12.274   9.619 -2.8193 -1.2510  1.3696
  195MOL0     H26304   1.542  12.307   9.788  1.7477 -0.2316  0.8956
  195MOL0     H26305   1.786  11.463   9.257  1.5020  0.7892  1.1291
  195MOL0     H26306   1.726  11.274   9.122  0.6580 -1.4216 -0.1434
  195MOL0     H26307   1.964  10.776   9.011 -1.0420 -1.0738  1.1335
  195MOL0     H26308   1.892  10.591   8.873  3.1133  2.0565  3.0774
  195MOL0     H26309   0.559  10.689   7.464 -0.1995 -2.5153  0.3927
  195MOL0     H26310   0.331  10.679   7.558  2.0020  2.2386 -2.8131
  195MOL0     H26311   0.158  10.620   8.046 -0.9794  0.2942  1.7320
  195MOL0     H26312  -0.006  10.558   8.194 -4.2319  2.0981  1.8190
  195MOL0     H26313  -0.350  10.705   8.190 -0.7794 -1.5551 -1.6622
  195MOL0     H26314  -0.225  10.639   8.301  1.0368 -0.8711 -0.9398
  195MOL0     H26315  -0.480  10.479   8.270  0.7225 -3.4267  2.7615
  195MOL0     H26316  -0.468  10.610   8.374 -1.2064 -0.5758 -1.4993
  195MOL0     H26317  -0.264  10.522   8.480  0.8861 -1.4233  0.8440
  195MOL0     H26318  -0.264  10.382   8.383  1.7030  1.3812 -1.7284
  195MOL0     H26319  -0.371  10.338   8.599  0.9834 -1.2550 -2.7866
  195MOL0     H26320  -0.484  10.466   8.588 -2.2214  0.1792 -2.8239
  195MOL0     H26321  -0.705  10.182   8.369 -0.4044  0.0094  1.0327
  195MOL0     H26322  -0.288  10.577   7.876 -0.0412 -3.8660  1.3540
  195MOL0     H26323  -0.122  10.552   7.619 -0.4434 -0.8477  2.1411
  195MOL0     H26324  -0.236  10.675   7.665 -1.2259 -2.6203 -2.6374
  195MOL0     H26325  -0.080  10.731   7.615  0.6527 -2.1342 -3.4895
  196MOL0     O26326   1.042   8.247   4.922 -0.6480  0.0178 -0.9971
  196MOL0     C26327   1.100   8.221   4.818 -0.0619  0.4018 -0.7141
  196MOL0     O26328   1.083   8.103   4.742 -0.4981  0.2475 -0.0329
  196MOL0     C26329   0.974   8.020   4.780  0.4483 -0.8176 -0.1284
  196MOL0     C26330   0.845   8.062   4.797  0.8660 -0.6156 -0.0023
  196MOL0     C26331   0.744   7.982   4.845  0.0898  0.3318 -0.7157
  196MOL0     C26332   0.763   7.855   4.877  0.1229  0.1797 -0.2651
  196MOL0     O26333   0.667   7.771   4.920  0.3856  0.3734  0.0485
  196MOL0     C26334   0.688   7.654   4.996 -0.7553  0.5286  0.5072
  196MOL0     C26335   0.564   7.609   5.065 -0.7847  0.0145 -0.2551
  196MOL0     C26336   0.493   7.498   4.991  0.0689  0.7548 -0.4085
  196MOL0     C26337   0.357   7.482   5.055  0.7222 -0.3560  0.1030
  196MOL0     C26338   0.256   7.400   4.963  0.0300 -0.7834  0.0843
  196MOL0     C26339   0.125   7.352   5.034  0.0899 -0.2164  0.2120
  196MOL0     C26340   0.017   7.305   4.935 -0.3600 -0.4842  0.2688
  196MOL0     C26341   0.045   7.164   4.873 -0.5922  0.5302 -0.0505
  196MOL0     N26342  -0.086   7.107   4.830  0.4878  0.1145 -0.3031
  196MOL0     C26343  -0.173   7.141   4.724  0.3223 -0.4093  0.7372
  196MOL0     C26344  -0.288   7.073   4.744 -0.4426 -0.7275 -0.9149
  196MOL0     C26345  -0.415   7.072   4.658 -0.6921  0.0337  0.9685
  196MOL0     C26346  -0.423   6.962   4.550  0.2136  0.1782 -0.1931
  196MOL0     C26347  -0.414   6.820   4.602  0.0420 -0.1464  0.3941
  196MOL0     C26348  -0.535   6.800   4.688  0.3781  0.3950 -0.3322
  196MOL0     O26349  -0.539   6.659   4.711 -0.2063  0.1495  0.0664
  196MOL0     C26350  -0.651   6.602   4.772  0.1224  0.6031  0.1322
  196MOL0     C26351  -0.758   6.670   4.831 -0.3316 -0.4935 -0.3695
  196MOL0     C26352  -0.866   6.584   4.873  0.0412 -0.4780 -0.9894
  196MOL0     C26353  -0.864   6.449   4.865  0.2585  0.0663  0.8130
  196MOL0     C26354  -0.968   6.368   4.924  0.5053  0.4159 -0.6606
  196MOL0     O26355  -0.989   6.241   4.872  0.2402  0.6235  0.3743
  196MOL0     C26356  -1.084   6.157   4.927 -0.8424  0.6410  0.0026
  196MOL0     C26357  -1.214   6.157   4.869  0.4397 -0.2835 -0.0437
  196MOL0     C26358  -1.302   6.045   4.889  0.3215 -0.0871 -1.1111
  196MOL0     C26359  -1.276   5.953   4.996 -0.1043  0.7147  0.7985
  196MOL0     O26360  -1.363   5.842   5.023 -0.5284  0.9407  0.1541
  196MOL0     C26361  -1.292   5.720   5.029 -0.3936  0.0478 -0.0739
  196MOL0     C26362  -1.392   5.602   5.032 -0.4754 -0.5424 -0.5330
  196MOL0     C26363  -1.436   5.542   5.163 -0.0506 -0.2498  0.4624
  196MOL0     C26364  -1.559   5.456   5.145 -0.1318 -0.2338 -0.5124
  196MOL0     C26365  -1.604   5.396   5.279 -0.9852 -0.8406  1.2160
  196MOL0     C26366  -1.498   5.297   5.324  0.2386 -0.0211 -0.2289
  196MOL0     C26367  -1.561   5.191   5.432 -0.3146  0.0689  0.6931
  196MOL0     C26368  -1.623   5.260   5.548 -0.3056  0.5564  0.2405
  196MOL0    Cl26369  -1.494   5.338   5.655 -0.1804  0.3965  0.5730
  196MOL0     C26370  -1.153   5.961   5.065  1.0139  0.0088  0.1572
  196MOL0     C26371  -1.052   6.055   5.029 -0.0961 -0.0192  0.7618
  196MOL0     O26372  -1.026   6.417   5.023 -0.1600  0.8816 -0.3185
  196MOL0     C26373  -0.759   6.384   4.795 -0.0818  0.2512  0.8050
  196MOL0     C26374  -0.647   6.461   4.763  0.0644  0.3171  0.0998
  196MOL0     N26375  -0.260   6.989   4.842  0.5430 -0.2305 -0.8470
  196MOL0     N26376  -0.141   6.999   4.891 -0.1734  0.0816 -0.0008
  196MOL0     C26377   0.889   7.798   4.857  0.0851 -0.7174 -0.0815
  196MOL0     C26378   0.986   7.880   4.798  0.0446  0.6885 -0.3803
  196MOL0     C26379   1.202   8.325   4.768  0.7393 -0.8218  0.3267
  196MOL0     C26380   1.292   8.289   4.671  0.3921 -1.4307  0.2071
  196MOL0     C26381   1.397   8.365   4.632  0.4541 -0.5896 -0.9271
  196MOL0     C26382   1.433   8.484   4.698  0.4396 -0.3092 -0.5782
  196MOL0     O26383   1.539   8.564   4.677 -0.3844  0.0876 -0.7327
  196MOL0     C26384   1.632   8.511   4.586 -0.3927 -1.2039 -0.8763
  196MOL0     C26385   1.766   8.589   4.597  0.7555  0.7420  0.3813
  196MOL0     C26386   1.821   8.623   4.738  0.5392  0.9824 -0.1339
  196MOL0     C26387   1.945   8.534   4.772 -0.4482 -0.4616 -0.2810
  196MOL0     C26388   1.934   8.391   4.735  2.0604 -1.1776  0.1963
  196MOL0     C26389   1.942   8.273   4.709 -0.8137 -0.3674 -0.4497
  196MOL0     C26390   1.336   8.528   4.786  0.4937 -0.6422 -0.1688
  196MOL0     C26391   1.225   8.454   4.828  0.1036  0.6510 -0.7895
  196MOL0     C26392   1.147   8.506   4.940  0.7167 -0.5715 -0.8566
  196MOL0     H26393   0.825   8.166   4.775  1.9245 -0.4845 -0.3775
  196MOL0     H26394   0.644   8.023   4.852 -0.8584 -1.7390 -1.3840
  196MOL0     H26395   0.720   7.575   4.927  0.5188  0.4697  1.1328
  196MOL0     H26396   0.763   7.684   5.070  1.7800 -0.8283 -1.3686
  196MOL0     H26397   0.503   7.697   5.086  1.6315  1.6830  0.2003
  196MOL0     H26398   0.607   7.568   5.158  4.1558  0.0963 -2.2043
  196MOL0     H26399   0.548   7.404   4.983  0.7084  1.1823 -1.1654
  196MOL0     H26400   0.487   7.541   4.891 -2.2367 -0.8445 -1.0297
  196MOL0     H26401   0.376   7.418   5.141  1.0406  0.2766  0.5128
  196MOL0     H26402   0.304   7.572   5.089  1.0213  1.4562 -3.7134
  196MOL0     H26403   0.225   7.470   4.885  2.4719 -0.9732 -1.1473
  196MOL0     H26404   0.311   7.315   4.922  0.4002  0.2988 -1.7919
  196MOL0     H26405   0.142   7.273   5.107 -0.4554  2.3569  3.3295
  196MOL0     H26406   0.096   7.434   5.100  1.9057  1.3366 -0.8336
  196MOL0     H26407  -0.004   7.383   4.861  1.5429 -0.1860  0.0069
  196MOL0     H26408  -0.080   7.290   4.985 -1.0825 -1.5431 -1.3613
  196MOL0     H26409   0.116   7.174   4.791 -2.1165  1.0449 -1.3618
  196MOL0     H26410   0.089   7.100   4.950 -3.4966 -1.0278  0.4677
  196MOL0     H26411  -0.143   7.206   4.642  1.5728 -0.5870  1.0267
  196MOL0     H26412  -0.492   7.074   4.736 -2.0045  1.3233 -0.2928
  196MOL0     H26413  -0.423   7.171   4.612 -2.0162  0.8017  2.7281
  196MOL0     H26414  -0.508   6.990   4.488 -1.2243 -2.7434  0.2683
  196MOL0     H26415  -0.333   6.983   4.491  0.8127 -1.4189  0.0903
  196MOL0     H26416  -0.323   6.801   4.660  0.6253  1.7901  0.1741
  196MOL0     H26417  -0.431   6.751   4.518 -0.7074  0.6186 -0.0980
  196MOL0     H26418  -0.628   6.843   4.651  1.3622  2.9481 -0.0383
  196MOL0     H26419  -0.512   6.854   4.781  1.9035 -2.0076  0.7825
  196MOL0     H26420  -0.740   6.777   4.841  0.0825 -0.6203  0.3094
  196MOL0     H26421  -0.939   6.637   4.932  1.4132  3.5430 -2.5174
  196MOL0     H26422  -1.242   6.235   4.800  1.6303  0.4119  0.2361
  196MOL0     H26423  -1.387   6.030   4.823  0.3407 -1.5070 -0.8436
  196MOL0     H26424  -1.234   5.718   4.936  0.6984  0.8385  0.5651
  196MOL0     H26425  -1.224   5.726   5.114 -0.4009 -0.8348  0.0098
  196MOL0     H26426  -1.484   5.623   4.978 -1.2196  2.2016  1.5829
  196MOL0     H26427  -1.361   5.513   4.976  0.2283 -0.0819 -0.8990
  196MOL0     H26428  -1.351   5.485   5.200  0.4724  0.1341 -0.1099
  196MOL0     H26429  -1.463   5.617   5.238 -2.1647 -0.2724 -0.2231
  196MOL0     H26430  -1.548   5.369   5.081  1.2919 -1.4608  1.2880
  196MOL0     H26431  -1.635   5.522   5.103  1.7022  1.5968 -1.1400
  196MOL0     H26432  -1.695   5.337   5.271 -0.8203 -0.8544 -2.0426
  196MOL0     H26433  -1.610   5.481   5.348  0.4832  2.2290 -2.0711
  196MOL0     H26434  -1.447   5.247   5.242 -0.0025  3.4278 -2.6965
  196MOL0     H26435  -1.422   5.361   5.370 -1.5137  2.6653 -0.8240
  196MOL0     H26436  -1.485   5.120   5.466 -1.9702 -3.3514 -2.0673
  196MOL0     H26437  -1.628   5.124   5.377  0.4206  0.2450 -0.4558
  196MOL0     H26438  -1.688   5.335   5.502 -1.6423 -1.8730 -2.0600
  196MOL0     H26439  -1.685   5.199   5.614 -1.5925 -0.4919 -1.8400
  196MOL0     H26440  -1.123   5.901   5.150  0.4442 -1.3698 -0.5665
  196MOL0     H26441  -0.950   6.063   5.063 -1.3148  0.8694  4.6624
  196MOL0     H26442  -0.759   6.277   4.778  0.2217  0.3106  0.4043
  196MOL0     H26443  -0.557   6.408   4.733 -0.9418 -2.7657  2.0677
  196MOL0     H26444   0.906   7.691   4.865  1.3657 -0.5639 -0.4977
  196MOL0     H26445   1.086   7.839   4.788  1.0371  3.4473 -3.1578
  196MOL0     H26446   1.274   8.204   4.605  2.5389  0.9193 -3.7872
  196MOL0     H26447   1.463   8.315   4.562 -0.2733  1.0695 -2.9072
  196MOL0     H26448   1.591   8.517   4.485  1.0083 -0.2505 -1.4242
  196MOL0     H26449   1.661   8.408   4.606 -0.3668 -1.4591 -2.1811
  196MOL0     H26450   1.745   8.684   4.547 -1.2009  0.6139  0.8864
  196MOL0     H26451   1.836   8.532   4.535 -1.2706 -0.3885 -0.9940
  196MOL0     H26452   1.740   8.583   4.800  2.3094 -4.3902 -0.6892
  196MOL0     H26453   1.834   8.728   4.763  3.9189  0.2747  1.7922
  196MOL0     H26454   2.038   8.575   4.733 -0.6235  0.6531  0.4313
  196MOL0     H26455   1.950   8.537   4.881 -1.7644 -2.8783 -0.0839
  196MOL0     H26456   1.958   8.170   4.684  3.1696  0.2363 -1.0143
  196MOL0     H26457   1.359   8.609   4.855  1.6960 -2.0151  1.1234
  196MOL0     H26458   1.040   8.497   4.917  0.1581  1.4728  0.6399
  196MOL0     H26459   1.176   8.462   5.036  0.3352  0.6440 -0.1694
  196MOL0     H26460   1.158   8.614   4.946  0.6272 -0.6332  1.0279
  197MOL0     O26461   5.692   3.590   4.615 -0.4992 -0.3856 -0.2818
  197MOL0     C26462   5.601   3.556   4.691 -0.9563  0.2211  0.1965
  197MOL0     O26463   5.475   3.526   4.652 -0.2318 -0.2864 -0.1032
  197MOL0     C26464   5.451   3.472   4.526 -0.2334 -0.7439 -0.1201
  197MOL0     C26465   5.377   3.549   4.434  0.1459 -0.3720 -0.2797
  197MOL0     C26466   5.343   3.494   4.310  0.2407 -0.5984  0.0569
  197MOL0     C26467   5.359   3.354   4.286  0.3494 -0.9427  0.7250
  197MOL0     O26468   5.300   3.303   4.180 -0.0419  0.8973 -0.1711
  197MOL0     C26469   5.238   3.165   4.186 -0.4208  0.3476 -0.0927
  197MOL0     C26470   5.127   3.144   4.274  0.5311 -0.9601  0.2986
  197MOL0     C26471   5.006   3.230   4.248  0.3499 -0.4383  0.0546
  197MOL0     C26472   4.895   3.188   4.347 -0.0139 -0.0510  0.3138
  197MOL0     C26473   4.763   3.254   4.329  0.4764 -0.6450 -0.2769
  197MOL0     C26474   4.660   3.179   4.421 -0.1347 -0.1012  0.2823
  197MOL0     C26475   4.538   3.270   4.430 -0.4450  0.1920 -0.9976
  197MOL0     C26476   4.539   3.366   4.553 -0.5543  0.2400 -0.8483
  197MOL0     N26477   4.407   3.424   4.579 -0.3648 -0.0078 -0.8928
  197MOL0     C26478   4.359   3.549   4.534  0.1046 -0.2711  0.4591
  197MOL0     C26479   4.230   3.558   4.563  0.2838 -0.4895  0.9690
  197MOL0     C26480   4.137   3.671   4.532  0.6515  0.2122  0.0172
  197MOL0     C26481   4.142   3.722   4.388 -0.7988  0.7198  0.1022
  197MOL0     C26482   4.109   3.614   4.278 -0.4613 -0.2903  0.2966
  197MOL0     C26483   4.165   3.643   4.134  0.9442 -0.7271 -0.0425
  197MOL0     O26484   4.137   3.544   4.036 -0.8919  0.2283 -0.4087
  197MOL0     C26485   4.223   3.534   3.929  0.6036  0.0778  0.1010
  197MOL0     C26486   4.334   3.615   3.896 -1.0969 -0.1692  0.3661
  197MOL0     C26487   4.417   3.577   3.795  0.4254 -0.3098  0.4666
  197MOL0     C26488   4.386   3.466   3.713  0.1366 -0.5727  0.3238
  197MOL0     C26489   4.453   3.435   3.581  0.3388  0.0228 -0.0793
  197MOL0     O26490   4.541   3.526   3.535 -0.0131 -0.7504  0.4118
  197MOL0     C26491   4.634   3.493   3.440  0.1946 -0.0682 -0.0537
  197MOL0     C26492   4.774   3.523   3.460 -0.6819 -0.4778 -0.2719
  197MOL0     C26493   4.856   3.510   3.346 -0.8924 -0.1655 -0.5635
  197MOL0     C26494   4.811   3.479   3.216  1.5382 -0.1094  0.1317
  197MOL0     O26495   4.902   3.472   3.107  0.2617  0.5461 -0.4456
  197MOL0     C26496   5.037   3.519   3.108 -0.1814  0.3231 -0.2413
  197MOL0     C26497   5.092   3.499   2.965  0.2142 -0.4988  0.0157
  197MOL0     C26498   5.178   3.629   2.914  0.6062  1.1894 -0.2311
  197MOL0     C26499   5.178   3.638   2.761  0.1985  0.7941  0.0887
  197MOL0     C26500   5.256   3.756   2.702  0.5917  0.3400 -0.7508
  197MOL0     C26501   5.195   3.892   2.733  0.6242  0.0669 -0.3951
  197MOL0     C26502   5.261   4.011   2.653 -0.6785  1.2870  0.1299
  197MOL0     C26503   5.188   4.142   2.684 -0.3043  0.2888  0.6972
  197MOL0    Cl26504   5.174   4.176   2.856 -0.5622 -0.5384 -0.3093
  197MOL0     C26505   4.676   3.428   3.215 -0.4337 -0.7355  0.8018
  197MOL0     C26506   4.597   3.435   3.318  1.0829  0.2653  0.2749
  197MOL0     O26507   4.451   3.313   3.556 -0.7538 -0.2001 -0.1665
  197MOL0     C26508   4.267   3.391   3.742  0.4357 -0.5328  0.4587
  197MOL0     C26509   4.184   3.421   3.845 -0.1096  0.4312 -0.0668
  197MOL0     N26510   4.206   3.448   4.651  0.2343  0.4159 -0.7150
  197MOL0     N26511   4.309   3.365   4.646 -0.0403  0.6652 -0.1784
  197MOL0     C26512   5.439   3.281   4.378 -0.3465 -0.3348  0.0336
  197MOL0     C26513   5.485   3.345   4.493  0.5938  0.8749  0.4296
  197MOL0     C26514   5.620   3.571   4.837 -0.0105  0.2713 -0.0849
  197MOL0     C26515   5.721   3.666   4.884  0.3615  0.0760  0.2835
  197MOL0     C26516   5.743   3.679   5.019 -1.3025  0.0253 -0.2786
  197MOL0     C26517   5.685   3.584   5.109  0.4384  0.1700 -0.4737
  197MOL0     O26518   5.717   3.592   5.239 -0.1875  0.4972  0.1453
  197MOL0     C26519   5.793   3.484   5.303 -0.9572 -1.5560 -0.2241
  197MOL0     C26520   5.711   3.396   5.394 -0.3470 -0.5656  0.1171
  197MOL0     C26521   5.805   3.314   5.488  0.0446 -0.0510 -0.1774
  197MOL0     C26522   5.709   3.227   5.567  1.2846  0.1384 -0.0645
  197MOL0     C26523   5.773   3.124   5.648 -0.9573  1.2573 -0.3834
  197MOL0     C26524   5.801   3.052   5.739  0.2906  0.3372 -0.0190
  197MOL0     C26525   5.599   3.490   5.062  0.7180 -0.5704 -0.7259
  197MOL0     C26526   5.558   3.481   4.929 -0.4645  0.1778 -0.1793
  197MOL0     C26527   5.457   3.379   4.887 -0.0247  0.7760 -0.9956
  197MOL0     H26528   5.351   3.649   4.468 -1.4587 -1.3264  1.5053
  197MOL0     H26529   5.289   3.553   4.237 -0.1820  1.0935  1.6415
  197MOL0     H26530   5.196   3.152   4.086 -3.1075 -0.4326  1.0384
  197MOL0     H26531   5.317   3.091   4.204 -1.3644 -0.9998 -1.2830
  197MOL0     H26532   5.166   3.158   4.375  0.4133 -0.4753  0.2793
  197MOL0     H26533   5.095   3.039   4.263 -0.7004 -0.9160  2.6839
  197MOL0     H26534   4.971   3.199   4.149 -0.7728  1.6568 -0.2660
  197MOL0     H26535   5.018   3.338   4.237 -1.9884 -0.1441 -0.0189
  197MOL0     H26536   4.876   3.081   4.334  0.2199 -0.3982  2.5310
  197MOL0     H26537   4.925   3.208   4.450 -0.7988  1.5828  0.2638
  197MOL0     H26538   4.778   3.350   4.378  1.5643 -0.8069 -0.2833
  197MOL0     H26539   4.731   3.234   4.226  0.4425 -4.7968  0.3473
  197MOL0     H26540   4.636   3.075   4.395 -2.2021 -0.4481  3.0869
  197MOL0     H26541   4.696   3.171   4.525 -0.2766  2.5197  0.6098
  197MOL0     H26542   4.455   3.205   4.458  0.0659  0.7265  2.0589
  197MOL0     H26543   4.506   3.328   4.342 -0.3267  1.2776 -0.3469
  197MOL0     H26544   4.570   3.307   4.639 -0.2578 -0.9120 -1.7118
  197MOL0     H26545   4.616   3.443   4.546  2.6010 -2.7653 -2.0798
  197MOL0     H26546   4.401   3.629   4.474 -1.7278  1.7285  1.6806
  197MOL0     H26547   4.039   3.635   4.567  0.2273 -0.9610 -2.1882
  197MOL0     H26548   4.170   3.761   4.584 -2.2150  1.7306 -0.5411
  197MOL0     H26549   4.077   3.810   4.376 -4.2098 -1.6492 -0.1256
  197MOL0     H26550   4.241   3.766   4.377 -0.5267  0.2429  0.6210
  197MOL0     H26551   4.000   3.605   4.278 -0.4197 -0.8172  0.8407
  197MOL0     H26552   4.152   3.519   4.310  1.5141  1.2641  2.5619
  197MOL0     H26553   4.273   3.652   4.145  0.5111  2.5101  4.1148
  197MOL0     H26554   4.110   3.730   4.097 -2.9687 -2.0859  1.9756
  197MOL0     H26555   4.350   3.706   3.954  1.8476  0.2589 -0.9582
  197MOL0     H26556   4.495   3.647   3.769 -0.2897 -0.1656 -1.4659
  197MOL0     H26557   4.829   3.556   3.548  2.0145  1.1820 -2.4427
  197MOL0     H26558   4.961   3.534   3.355 -0.4645 -2.0929  0.0523
  197MOL0     H26559   5.046   3.627   3.125 -0.1646  0.6304 -1.9786
  197MOL0     H26560   5.073   3.455   3.188 -0.8895 -1.1040 -1.0146
  197MOL0     H26561   5.165   3.418   2.963 -0.0361 -0.7194 -2.3925
  197MOL0     H26562   5.017   3.481   2.888 -0.9815  4.2583 -0.2152
  197MOL0     H26563   5.129   3.717   2.956 -1.0050  0.6948 -0.9883
  197MOL0     H26564   5.279   3.620   2.956 -0.8379 -1.1230  3.2355
  197MOL0     H26565   5.081   3.633   2.711  0.9937 -0.3341 -1.4007
  197MOL0     H26566   5.234   3.553   2.722  0.2923  1.5252 -1.4175
  197MOL0     H26567   5.257   3.734   2.595 -1.7250  0.7503 -0.9123
  197MOL0     H26568   5.359   3.755   2.738  0.9812 -0.1689 -1.8294
  197MOL0     H26569   5.088   3.891   2.709  0.7768  1.5644 -1.3164
  197MOL0     H26570   5.206   3.913   2.840 -0.9450  0.2100 -0.2448
  197MOL0     H26571   5.263   3.989   2.546  0.5481 -0.7039  0.5027
  197MOL0     H26572   5.364   4.021   2.689 -0.2599 -0.6229 -0.4054
  197MOL0     H26573   5.227   4.235   2.643 -0.7862  0.4638  0.6257
  197MOL0     H26574   5.094   4.124   2.631  1.6145 -1.1692 -2.4964
  197MOL0     H26575   4.636   3.387   3.123  1.3186  1.5661 -1.1011
  197MOL0     H26576   4.494   3.406   3.297  1.0130 -1.5407  2.6581
  197MOL0     H26577   4.244   3.316   3.666 -0.6439  0.5990 -0.3759
  197MOL0     H26578   4.096   3.368   3.878  0.1561 -1.1191 -1.7213
  197MOL0     H26579   5.464   3.178   4.355 -0.0447 -0.0400 -1.0508
  197MOL0     H26580   5.566   3.293   4.543  0.9574  1.2699  0.2632
  197MOL0     H26581   5.769   3.739   4.820  0.4546  0.1367  0.4242
  197MOL0     H26582   5.816   3.743   5.067  1.5297 -1.7562 -1.9366
  197MOL0     H26583   5.881   3.515   5.360 -0.9921 -2.3585  0.2822
  197MOL0     H26584   5.845   3.430   5.223 -1.5814  1.4814 -2.8907
  197MOL0     H26585   5.647   3.343   5.324 -1.6093  2.6650 -1.3902
  197MOL0     H26586   5.657   3.467   5.458  1.2787 -0.2848  1.2616
  197MOL0     H26587   5.860   3.382   5.553  0.9804 -0.6363 -0.3452
  197MOL0     H26588   5.868   3.247   5.429 -0.2410 -2.6828  2.2843
  197MOL0     H26589   5.641   3.296   5.619  0.2452 -0.4015 -0.6650
  197MOL0     H26590   5.640   3.171   5.503  0.1669  0.3717  0.8844
  197MOL0     H26591   5.823   3.006   5.833  1.5197  1.1116  0.0980
  197MOL0     H26592   5.561   3.420   5.137 -4.7564  1.7962 -0.8047
  197MOL0     H26593   5.448   3.302   4.965  0.3413 -0.1064 -1.8095
  197MOL0     H26594   5.358   3.421   4.871 -0.5514  0.9748  2.0406
  197MOL0     H26595   5.500   3.330   4.800  2.3498  0.6905  0.1199
  198MOL0     O26596   2.161   0.337  10.879 -0.3986  0.2882 -0.3538
  198MOL0     C26597   2.106   0.439  10.918  0.3069 -0.0978  1.0768
  198MOL0     O26598   2.163   0.540  10.989  0.2277  0.3630  0.4763
  198MOL0     C26599   2.298   0.557  10.990  0.0411  0.6656 -0.1641
  198MOL0     C26600   2.361   0.540  11.112  0.1275 -0.2103 -0.1577
  198MOL0     C26601   2.501   0.511  11.125  0.5479  0.6452 -0.5565
  198MOL0     C26602   2.577   0.545  11.019 -0.1492 -0.3625  0.1849
  198MOL0     O26603   2.712   0.527  11.001 -0.7954 -0.0338 -0.1955
  198MOL0     C26604   2.800   0.499  11.114 -0.1661 -0.8313  0.5510
  198MOL0     C26605   2.795   0.346  11.122  0.0650 -0.2186  0.2734
  198MOL0     C26606   2.923   0.283  11.193 -0.4782 -0.3446  0.0380
  198MOL0     C26607   2.942   0.142  11.143  0.6845  0.0200  0.5978
  198MOL0     C26608   3.062   0.078  11.202  0.1613  0.9985  0.1348
  198MOL0     C26609   3.070  -0.072  11.159  0.7532 -0.8462  0.1822
  198MOL0     C26610   3.179  -0.151  11.224  0.3769  0.9877 -0.5528
  198MOL0     C26611   3.174  -0.301  11.182 -0.5868  0.4170  0.4237
  198MOL0     N26612   3.145  -0.334  11.040 -0.7197  0.1797 -0.2418
  198MOL0     C26613   3.234  -0.303  10.942 -0.3650 -0.8947  0.0411
  198MOL0     C26614   3.170  -0.355  10.831  1.1446 -0.0640 -0.2156
  198MOL0     C26615   3.230  -0.327  10.700  0.4053  0.0227  0.4112
  198MOL0     C26616   3.169  -0.400  10.579  0.3747 -0.5383 -0.5654
  198MOL0     C26617   3.155  -0.557  10.581 -0.2424 -1.4023 -0.4425
  198MOL0     C26618   3.061  -0.607  10.478  0.7768 -0.1170  0.0672
  198MOL0     O26619   3.030  -0.742  10.509  0.9037  0.3408  1.0588
  198MOL0     C26620   2.939  -0.803  10.424  0.5470  0.4062 -0.1372
  198MOL0     C26621   2.914  -0.947  10.455  0.1301 -0.2244  0.2575
  198MOL0     C26622   2.835  -1.027  10.358 -1.0912  0.2679 -0.5241
  198MOL0     C26623   2.771  -0.962  10.251  0.9238 -1.4561  0.5696
  198MOL0     C26624   2.679  -1.033  10.154  0.9660 -0.9166  0.3918
  198MOL0     O26625   2.592  -0.973  10.069  0.3468 -0.0125  0.4212
  198MOL0     C26626   2.555  -1.046   9.960 -0.2367  0.5349 -0.0756
  198MOL0     C26627   2.640  -1.054   9.849  0.0752 -0.3586 -0.0380
  198MOL0     C26628   2.590  -1.112   9.732 -0.1921 -0.8524 -0.4567
  198MOL0     C26629   2.465  -1.179   9.731  0.2070  0.5036 -0.6318
  198MOL0     O26630   2.410  -1.230   9.612  0.5702 -0.3317 -0.3413
  198MOL0     C26631   2.264  -1.236   9.608  0.2313 -0.1173  0.2183
  198MOL0     C26632   2.230  -1.243   9.451 -0.5778 -0.8255 -0.5672
  198MOL0     C26633   2.079  -1.241   9.426  0.7650  0.5284  0.8129
  198MOL0     C26634   2.045  -1.200   9.274  0.1302 -0.5001 -0.9324
  198MOL0     C26635   2.065  -1.327   9.183  0.4347 -0.9799  0.2968
  198MOL0     C26636   2.020  -1.286   9.035  0.0367  0.1180  0.4755
  198MOL0     C26637   2.152  -1.267   8.952  0.2951  1.0863 -0.3626
  198MOL0     C26638   2.137  -1.151   8.856  1.2883  0.1651  0.1973
  198MOL0    Cl26639   2.016  -1.206   8.730  0.0383  0.2633 -0.0449
  198MOL0     C26640   2.394  -1.183   9.848 -0.2571  0.2451 -0.0434
  198MOL0     C26641   2.439  -1.126   9.967  0.9607  1.0060 -0.0670
  198MOL0     O26642   2.691  -1.151  10.169 -1.1317  0.3254  0.8691
  198MOL0     C26643   2.788  -0.825  10.237 -0.0370 -0.0464 -0.5335
  198MOL0     C26644   2.873  -0.748  10.314  0.6493  0.0755  0.5302
  198MOL0     N26645   3.047  -0.400  10.870  0.2671 -0.4221  0.1422
  198MOL0     N26646   3.037  -0.396  10.996  0.8268 -0.2951  0.3687
  198MOL0     C26647   2.514   0.573  10.898  0.1341 -0.0714  0.1787
  198MOL0     C26648   2.377   0.572  10.876  1.1767 -0.6392 -0.8341
  198MOL0     C26649   1.963   0.462  10.878 -0.9141  0.3232 -1.0993
  198MOL0     C26650   1.913   0.591  10.870 -0.2491 -0.7918 -0.9149
  198MOL0     C26651   1.777   0.616  10.835  0.5970 -0.2706 -0.7298
  198MOL0     C26652   1.701   0.505  10.795 -0.3151  0.1885  0.9149
  198MOL0     O26653   1.572   0.527  10.749 -0.3103 -0.6054  0.1369
  198MOL0     C26654   1.494   0.641  10.796 -0.0628 -0.8510  0.8130
  198MOL0     C26655   1.449   0.616  10.942  0.7298 -0.6013  0.0587
  198MOL0     C26656   1.363   0.723  10.993 -0.1236 -0.1365 -0.0539
  198MOL0     C26657   1.317   0.704  11.138  0.0615  0.3839  0.1882
  198MOL0     C26658   1.230   0.819  11.191 -0.3346 -0.1982 -1.0218
  198MOL0     C26659   1.165   0.920  11.220  0.2470  0.0749  0.7194
  198MOL0     C26660   1.749   0.375  10.795 -0.4691 -0.5610  1.7680
  198MOL0     C26661   1.871   0.353  10.857 -0.1640 -1.0273  0.0644
  198MOL0     C26662   1.904   0.211  10.892  0.2759  0.0634 -0.2747
  198MOL0     H26663   2.289   0.545  11.193  1.4961  0.1469  1.0849
  198MOL0     H26664   2.541   0.479  11.220  1.2411  1.5941 -0.5139
  198MOL0     H26665   2.900   0.521  11.073  0.4221 -3.7906  0.1641
  198MOL0     H26666   2.785   0.558  11.204  2.7775  1.0722 -0.0747
  198MOL0     H26667   2.794   0.296  11.025  0.2215 -1.1083  0.7193
  198MOL0     H26668   2.703   0.311  11.170  0.5636 -0.3801  1.1475
  198MOL0     H26669   2.917   0.285  11.302  4.3673 -0.6240  0.5327
  198MOL0     H26670   3.009   0.348  11.175 -1.9571  1.9089  0.6472
  198MOL0     H26671   2.859   0.078  11.176 -0.4732 -0.4562 -2.7949
  198MOL0     H26672   2.958   0.137  11.035  2.0680 -0.1346  0.7905
  198MOL0     H26673   3.152   0.131  11.171  1.3771 -1.3788 -0.6688
  198MOL0     H26674   3.047   0.078  11.310  0.0249  2.4705  0.1401
  198MOL0     H26675   2.971  -0.114  11.181  0.3424 -1.4142 -2.4439
  198MOL0     H26676   3.080  -0.066  11.050 -3.1994  3.7151 -0.2692
  198MOL0     H26677   3.182  -0.157  11.333  2.0943 -1.0862 -0.6595
  198MOL0     H26678   3.275  -0.112  11.188  0.6640 -0.4743 -1.4308
  198MOL0     H26679   3.262  -0.356  11.215 -1.2935 -0.2660  1.2288
  198MOL0     H26680   3.098  -0.347  11.247  1.2163 -3.0360  0.2868
  198MOL0     H26681   3.337  -0.270  10.943 -0.2274 -1.3164  0.4278
  198MOL0     H26682   3.223  -0.219  10.682  0.2777 -0.1471 -0.6518
  198MOL0     H26683   3.332  -0.368  10.697 -0.1303 -1.4098  0.9785
  198MOL0     H26684   3.068  -0.362  10.567  0.5645  1.2455  2.4109
  198MOL0     H26685   3.217  -0.380  10.482 -1.9187 -0.7330 -1.7990
  198MOL0     H26686   3.118  -0.582  10.681 -2.3868  2.1401 -0.1725
  198MOL0     H26687   3.249  -0.608  10.561  0.2494 -0.6892  0.0067
  198MOL0     H26688   3.114  -0.598  10.383  2.1551  2.0990  0.9693
  198MOL0     H26689   2.967  -0.552  10.465 -0.6257 -2.8025 -2.3909
  198MOL0     H26690   2.971  -0.993  10.534  0.4912  4.1722  2.8294
  198MOL0     H26691   2.822  -1.133  10.374 -3.7988  0.7219  0.9124
  198MOL0     H26692   2.740  -1.013   9.847 -0.9501  2.3019 -0.6708
  198MOL0     H26693   2.641  -1.113   9.636 -0.2127 -3.6210 -0.5355
  198MOL0     H26694   2.221  -1.323   9.659 -2.5562  0.6293 -0.6767
  198MOL0     H26695   2.223  -1.146   9.656 -3.0164 -1.7521  0.7774
  198MOL0     H26696   2.281  -1.165   9.393 -2.4895  0.6541 -0.3611
  198MOL0     H26697   2.275  -1.336   9.417 -3.4327 -1.2534 -3.7093
  198MOL0     H26698   2.037  -1.340   9.443 -0.9704  0.7200 -1.7504
  198MOL0     H26699   2.034  -1.167   9.493 -0.6445 -0.3775  0.9062
  198MOL0     H26700   2.112  -1.126   9.230  4.2923 -3.7305 -0.7686
  198MOL0     H26701   1.940  -1.172   9.279  0.3494  0.3724  4.0249
  198MOL0     H26702   1.987  -1.399   9.208  0.1474 -0.9768 -0.5409
  198MOL0     H26703   2.165  -1.372   9.184 -0.1968 -2.4498  1.8953
  198MOL0     H26704   1.969  -1.373   8.994  1.2121 -2.7865  4.5349
  198MOL0     H26705   1.959  -1.194   9.035  1.0671  0.8334 -0.6887
  198MOL0     H26706   2.187  -1.360   8.908  0.7922  2.0851 -2.1768
  198MOL0     H26707   2.235  -1.241   9.020  0.2547 -5.4572  2.9930
  198MOL0     H26708   2.092  -1.066   8.908 -2.1314  0.9730 -3.5341
  198MOL0     H26709   2.233  -1.126   8.811  1.2969 -0.7827 -0.3379
  198MOL0     H26710   2.306  -1.248   9.849 -1.4769  1.8384  0.2557
  198MOL0     H26711   2.382  -1.132  10.059 -0.2260 -2.6884 -0.8957
  198MOL0     H26712   2.722  -0.781  10.163  1.4847  0.7387 -1.4747
  198MOL0     H26713   2.875  -0.643  10.286 -1.2731 -0.5202 -2.3481
  198MOL0     H26714   2.581   0.578  10.813  2.4644 -1.9417  1.7680
  198MOL0     H26715   2.325   0.584  10.782 -0.8736 -0.3098  0.2965
  198MOL0     H26716   1.971   0.678  10.900  0.3541  0.1642 -4.4183
  198MOL0     H26717   1.731   0.713  10.850  0.5900 -0.3896  0.0112
  198MOL0     H26718   1.406   0.635  10.732  0.2555 -2.2895  0.4730
  198MOL0     H26719   1.544   0.737  10.779  0.7844 -1.6606 -1.5164
  198MOL0     H26720   1.544   0.621  10.995  0.7948 -2.5679  0.1727
  198MOL0     H26721   1.398   0.521  10.960 -1.6512  0.9393  2.1103
  198MOL0     H26722   1.269   0.718  10.936 -1.4694 -2.5192  2.1672
  198MOL0     H26723   1.416   0.817  10.976  1.5672 -1.4778 -2.9897
  198MOL0     H26724   1.249   0.618  11.141 -0.7296  1.0045  0.3734
  198MOL0     H26725   1.414   0.703  11.190  1.1691  1.9903 -1.7403
  198MOL0     H26726   1.104   1.000  11.256 -1.6993 -1.3137  0.6870
  198MOL0     H26727   1.691   0.288  10.765 -1.1741 -0.3048  2.3393
  198MOL0     H26728   1.812   0.152  10.884 -1.7049  2.9707 -0.8472
  198MOL0     H26729   1.978   0.172  10.822  2.9392 -0.6693  2.7372
  198MOL0     H26730   1.943   0.206  10.994  1.2279 -0.8944 -0.6696
  199MOL0     O26731   3.135   4.632   0.528  0.6713  0.2069  0.0794
  199MOL0     C26732   3.155   4.622   0.401  0.0025 -0.1502 -0.0926
  199MOL0     O26733   3.073   4.545   0.308  0.2352 -0.1190 -0.6555
  199MOL0     C26734   2.964   4.477   0.356  0.5124 -0.4355 -0.4862
  199MOL0     C26735   2.873   4.553   0.436  0.0061 -0.3676 -0.3947
  199MOL0     C26736   2.770   4.477   0.502 -0.3009 -0.0642  0.6816
  199MOL0     C26737   2.741   4.342   0.471 -0.0304 -0.0813 -0.1925
  199MOL0     O26738   2.629   4.276   0.516 -0.1104 -0.1834 -0.1341
  199MOL0     C26739   2.607   4.260   0.663 -0.4689 -0.0928 -0.0991
  199MOL0     C26740   2.478   4.177   0.678 -0.5729 -0.4059  0.7396
  199MOL0     C26741   2.483   4.032   0.631  0.2444  0.3562 -0.5442
  199MOL0     C26742   2.575   3.930   0.710  0.5087 -0.5416 -0.2864
  199MOL0     C26743   2.544   3.784   0.674 -0.0907  0.2857  0.2648
  199MOL0     C26744   2.407   3.740   0.731  0.1198 -0.7759  0.1280
  199MOL0     C26745   2.375   3.591   0.692  0.1112 -1.0263 -0.7753
  199MOL0     C26746   2.302   3.578   0.557 -0.5802  1.0288  0.2808
  199MOL0     N26747   2.254   3.443   0.525  0.5325  0.5389 -0.3309
  199MOL0     C26748   2.318   3.324   0.562 -0.3414  0.8323 -0.5245
  199MOL0     C26749   2.237   3.228   0.517 -0.3841 -1.7358 -0.1240
  199MOL0     C26750   2.257   3.079   0.510 -0.1401  0.7454  0.1896
  199MOL0     C26751   2.263   3.022   0.369  0.2140 -0.1441  0.6342
  199MOL0     C26752   2.258   2.872   0.344  0.5193  0.6765  0.2642
  199MOL0     C26753   2.356   2.792   0.431 -0.2457 -0.4446 -0.3240
  199MOL0     O26754   2.473   2.773   0.355 -0.9781 -0.1943  0.1743
  199MOL0     C26755   2.489   2.667   0.265  1.6422  0.1405 -0.6044
  199MOL0     C26756   2.386   2.575   0.237  0.6831 -0.7322 -0.6096
  199MOL0     C26757   2.406   2.475   0.147  0.5218  0.2118  0.4527
  199MOL0     C26758   2.526   2.448   0.094 -0.0018 -0.1565 -0.7171
  199MOL0     C26759   2.542   2.325   0.005  0.1376  0.1017 -1.0629
  199MOL0     O26760   2.675   2.296  -0.037 -0.4410  0.4385 -0.3378
  199MOL0     C26761   2.675   2.173  -0.099 -0.0272  0.4142  0.3176
  199MOL0     C26762   2.641   2.155  -0.240  0.6304  0.0775  0.0144
  199MOL0     C26763   2.650   2.034  -0.308 -0.5041 -0.5172 -1.4824
  199MOL0     C26764   2.683   1.917  -0.231  0.2392 -0.1809  1.3169
  199MOL0     O26765   2.673   1.790  -0.275 -0.4424 -0.3983  0.7606
  199MOL0     C26766   2.703   1.758  -0.418 -0.1348 -0.4145 -0.0030
  199MOL0     C26767   2.766   1.617  -0.432 -0.5750  0.2327 -0.1847
  199MOL0     C26768   2.884   1.603  -0.325  0.1108 -0.7643  1.2892
  199MOL0     C26769   2.938   1.462  -0.344 -0.8088 -1.0440  0.9755
  199MOL0     C26770   3.063   1.418  -0.263  0.1624 -0.3922 -0.3690
  199MOL0     C26771   3.070   1.256  -0.265  0.8988 -0.0099 -0.4385
  199MOL0     C26772   3.210   1.201  -0.264 -0.6742  1.6333  0.1424
  199MOL0     C26773   3.209   1.057  -0.215 -0.0779 -0.2080  0.3779
  199MOL0    Cl26774   3.140   1.025  -0.044 -0.1134  0.4165 -0.6595
  199MOL0     C26775   2.700   1.932  -0.095  0.3934  0.3876  0.2362
  199MOL0     C26776   2.706   2.055  -0.028  0.4291  0.9732 -0.5710
  199MOL0     O26777   2.438   2.265  -0.037 -0.3494 -0.3065  0.0381
  199MOL0     C26778   2.633   2.542   0.117  0.1508  0.1276  0.5828
  199MOL0     C26779   2.611   2.653   0.195  1.4421  0.4703 -0.5434
  199MOL0     N26780   2.131   3.282   0.457 -0.1616 -0.0666  0.4289
  199MOL0     N26781   2.141   3.409   0.462  0.3611  0.5447 -0.1605
  199MOL0     C26782   2.817   4.276   0.376 -0.3992  0.2519  0.0792
  199MOL0     C26783   2.930   4.338   0.328 -0.5346  0.7215  0.1577
  199MOL0     C26784   3.267   4.700   0.333 -0.0421  0.3945 -0.7727
  199MOL0     C26785   3.260   4.729   0.194 -0.3623 -0.7196 -0.0882
  199MOL0     C26786   3.352   4.814   0.135  0.2543  0.6183 -0.9457
  199MOL0     C26787   3.461   4.860   0.210  0.0296 -0.1060  0.6343
  199MOL0     O26788   3.559   4.951   0.165 -0.4116 -0.0397  0.2755
  199MOL0     C26789   3.644   4.907   0.053  0.4187 -0.5161  0.4875
  199MOL0     C26790   3.581   4.982  -0.072 -0.4115  0.3412  0.7667
  199MOL0     C26791   3.677   4.993  -0.194  1.3180  0.2188 -0.4861
  199MOL0     C26792   3.626   5.120  -0.274  0.2719  0.2008  0.3984
  199MOL0     C26793   3.490   5.106  -0.338 -0.9712  0.0893 -0.1649
  199MOL0     C26794   3.370   5.102  -0.365 -0.3408  0.6731 -0.3153
  199MOL0     C26795   3.467   4.827   0.340  0.9490  0.8848 -0.6054
  199MOL0     C26796   3.369   4.754   0.407  0.1244 -0.1348  1.0597
  199MOL0     C26797   3.388   4.742   0.562 -0.7797  0.5761  0.6611
  199MOL0     H26798   2.886   4.653   0.477 -0.1011 -0.2450 -0.6580
  199MOL0     H26799   2.704   4.538   0.564  1.2550  3.3796 -0.7750
  199MOL0     H26800   2.697   4.204   0.687  0.6229  0.6392 -2.2542
  199MOL0     H26801   2.613   4.353   0.719  1.2107 -0.5120  0.4536
  199MOL0     H26802   2.395   4.225   0.626 -0.6960  1.3966  2.4837
  199MOL0     H26803   2.444   4.182   0.782 -0.6648  3.5153  0.6829
  199MOL0     H26804   2.512   4.032   0.525  0.1706 -0.4884 -0.5697
  199MOL0     H26805   2.382   3.991   0.629  1.1273 -1.9209 -0.7099
  199MOL0     H26806   2.678   3.951   0.683  0.0771  0.2563 -1.3846
  199MOL0     H26807   2.552   3.945   0.816 -1.5813 -2.3551 -0.4019
  199MOL0     H26808   2.539   3.769   0.566 -2.0595 -1.9679  0.5767
  199MOL0     H26809   2.624   3.721   0.715 -0.3078 -0.7054 -0.8032
  199MOL0     H26810   2.417   3.743   0.840  0.7125  0.9150  0.0585
  199MOL0     H26811   2.326   3.811   0.711  0.0486 -0.4473  1.5302
  199MOL0     H26812   2.302   3.558   0.766  0.7914 -1.3070 -0.2229
  199MOL0     H26813   2.464   3.528   0.693  1.7707  1.1769 -1.8712
  199MOL0     H26814   2.219   3.649   0.568  0.5559  2.4296  0.1242
  199MOL0     H26815   2.368   3.611   0.476  0.0406  1.9456  1.1277
  199MOL0     H26816   2.414   3.302   0.608 -0.7089 -0.3547 -0.2849
  199MOL0     H26817   2.340   3.043   0.571 -0.6855 -1.0853 -0.0735
  199MOL0     H26818   2.171   3.037   0.564  0.6429  0.7197  1.4565
  199MOL0     H26819   2.200   3.074   0.297  3.3830  0.8032 -1.6611
  199MOL0     H26820   2.360   3.043   0.323  2.4460 -3.1365  3.5164
  199MOL0     H26821   2.272   2.862   0.236  0.5105  1.3477  0.2015
  199MOL0     H26822   2.160   2.827   0.360  0.9506 -0.8530 -1.0451
  199MOL0     H26823   2.308   2.695   0.443 -0.1375 -0.7711 -2.1197
  199MOL0     H26824   2.380   2.829   0.530  4.4041  1.4647 -1.8907
  199MOL0     H26825   2.288   2.577   0.283  0.9216  0.8722 -0.1000
  199MOL0     H26826   2.318   2.416   0.122  1.9705 -2.4347  1.1971
  199MOL0     H26827   2.614   2.243  -0.298  0.1892 -0.7965 -1.1315
  199MOL0     H26828   2.618   2.027  -0.412 -0.5554  3.0816 -1.8261
  199MOL0     H26829   2.608   1.763  -0.472 -0.4999  0.3566  0.6873
  199MOL0     H26830   2.766   1.830  -0.471 -1.2850  0.5488 -0.1059
  199MOL0     H26831   2.676   1.558  -0.415 -0.2901 -0.0146  0.4839
  199MOL0     H26832   2.803   1.592  -0.532  1.8166 -0.3749  0.7831
  199MOL0     H26833   2.967   1.672  -0.337  1.5673 -2.9432 -3.1934
  199MOL0     H26834   2.838   1.615  -0.226 -1.1121  0.2874  0.6266
  199MOL0     H26835   2.964   1.448  -0.450 -0.8956 -1.1070  0.9626
  199MOL0     H26836   2.857   1.392  -0.320 -0.6132 -0.6484  2.8852
  199MOL0     H26837   3.061   1.449  -0.158 -1.9456 -3.2419  0.5647
  199MOL0     H26838   3.153   1.464  -0.304  0.4471  0.7783  1.4595
  199MOL0     H26839   3.015   1.227  -0.175  0.7648  1.5548  0.0068
  199MOL0     H26840   3.026   1.198  -0.346  0.2600 -2.0442  1.2473
  199MOL0     H26841   3.279   1.258  -0.201 -1.9390  1.9201  1.3255
  199MOL0     H26842   3.242   1.194  -0.369 -1.7319 -1.3963 -0.0737
  199MOL0     H26843   3.155   1.000  -0.290  0.6824  1.6667 -1.7092
  199MOL0     H26844   3.312   1.020  -0.215  0.4091  1.0505 -0.8086
  199MOL0     H26845   2.718   1.834  -0.052 -1.9737 -0.3734 -0.3384
  199MOL0     H26846   2.720   2.048   0.080  1.7292 -0.6496 -0.8106
  199MOL0     H26847   2.728   2.531   0.065 -0.5754  0.9716 -1.0164
  199MOL0     H26848   2.691   2.725   0.210  0.8690  0.9281  0.3775
  199MOL0     H26849   2.792   4.172   0.358  2.8862 -0.7666  0.7449
  199MOL0     H26850   2.999   4.276   0.273 -0.8138  0.4742  0.0788
  199MOL0     H26851   3.170   4.696   0.143 -2.0469  3.8022 -0.5202
  199MOL0     H26852   3.338   4.818   0.027 -0.7680 -0.2493 -0.8670
  199MOL0     H26853   3.654   4.800   0.035  1.3016 -0.5720  1.2262
  199MOL0     H26854   3.747   4.941   0.068  1.6386 -3.3409 -0.7758
  199MOL0     H26855   3.532   5.075  -0.043 -2.5695 -0.8260  1.0995
  199MOL0     H26856   3.490   4.924  -0.093 -2.8893  3.9891  0.5700
  199MOL0     H26857   3.685   4.900  -0.251  0.1989  1.1932 -2.3143
  199MOL0     H26858   3.781   5.014  -0.164  0.8202  0.5222  1.1320
  199MOL0     H26859   3.611   5.203  -0.205 -0.5973  0.0099  0.4452
  199MOL0     H26860   3.703   5.132  -0.351 -2.8250  3.2005 -2.5396
  199MOL0     H26861   3.276   5.073  -0.406  0.5823 -2.6566 -0.4083
  199MOL0     H26862   3.554   4.870   0.389  3.3425 -0.3716 -3.4981
  199MOL0     H26863   3.491   4.766   0.588  1.6675 -1.7809 -5.0414
  199MOL0     H26864   3.327   4.823   0.601 -0.2926  1.1867  0.1802
  199MOL0     H26865   3.362   4.642   0.597  1.2582  0.8995  3.3779
  200MOL0     O26866   7.576   2.506   4.509  0.2823 -0.1924 -0.0174
  200MOL0     C26867   7.488   2.425   4.545 -0.1036  0.8225  0.5656
  200MOL0     O26868   7.373   2.452   4.600  0.8458  1.0909 -0.1415
  200MOL0     C26869   7.330   2.578   4.623 -0.5769 -0.0320 -0.4244
  200MOL0     C26870   7.212   2.609   4.553  0.2306 -0.0941  0.6335
  200MOL0     C26871   7.150   2.730   4.560  0.1781  0.8478  0.0345
  200MOL0     C26872   7.204   2.829   4.639 -0.9957  0.2977 -0.5414
  200MOL0     O26873   7.128   2.944   4.639 -0.0465  0.1280 -0.4947
  200MOL0     C26874   7.168   3.055   4.717 -0.7495  0.0572 -0.1965
  200MOL0     C26875   7.098   3.044   4.855 -0.0605  0.2203 -0.7146
  200MOL0     C26876   7.116   3.149   4.965  0.0185  0.2977  0.0028
  200MOL0     C26877   7.257   3.185   4.989 -0.9363  0.2450 -0.0298
  200MOL0     C26878   7.295   3.231   5.127  0.2721  0.7496 -0.3234
  200MOL0     C26879   7.259   3.126   5.236 -0.3188  0.3224  0.5020
  200MOL0     C26880   7.321   3.140   5.380  0.1324 -1.4255  1.2033
  200MOL0     C26881   7.223   3.083   5.490  0.0708 -0.2769  0.6129
  200MOL0     N26882   7.275   3.106   5.625 -0.5267  0.4217 -0.0804
  200MOL0     C26883   7.376   3.031   5.682 -0.2033  0.3800 -0.5924
  200MOL0     C26884   7.379   3.052   5.814  0.3848  0.2150 -1.0949
  200MOL0     C26885   7.467   3.004   5.928 -0.5682  0.0040  0.5744
  200MOL0     C26886   7.615   3.054   5.927  0.7757 -0.9920 -0.3423
  200MOL0     C26887   7.619   3.202   5.980 -1.1318 -1.0858  0.9255
  200MOL0     C26888   7.565   3.313   5.880 -0.4490 -0.5478 -0.9604
  200MOL0     O26889   7.617   3.281   5.750 -0.8248 -0.5717 -0.2891
  200MOL0     C26890   7.565   3.345   5.640 -0.8949 -0.1842  0.3898
  200MOL0     C26891   7.436   3.410   5.632  0.6019  0.8581  0.2383
  200MOL0     C26892   7.400   3.475   5.512 -0.2053  0.7484  0.3038
  200MOL0     C26893   7.486   3.481   5.398 -0.2634  0.4744  0.0294
  200MOL0     C26894   7.448   3.554   5.280  0.0975  0.3369  0.8339
  200MOL0     O26895   7.349   3.653   5.286  0.0294 -0.1753  0.1722
  200MOL0     C26896   7.308   3.706   5.164 -0.5331 -0.8187  0.3781
  200MOL0     C26897   7.367   3.820   5.106 -0.7941 -0.6175 -0.8928
  200MOL0     C26898   7.317   3.876   4.990 -0.2494 -0.3984  0.5149
  200MOL0     C26899   7.206   3.825   4.933  0.2604 -0.0141  0.4992
  200MOL0     O26900   7.166   3.880   4.813 -0.1638 -0.6362 -0.5949
  200MOL0     C26901   7.020   3.881   4.796  0.0694  0.0394 -0.1714
  200MOL0     C26902   6.987   4.006   4.713 -0.7253 -0.3568 -0.2834
  200MOL0     C26903   6.860   4.007   4.630 -0.2539  0.8241  0.1638
  200MOL0     C26904   6.820   4.149   4.591 -0.3445 -0.0504  0.1022
  200MOL0     C26905   6.671   4.153   4.572  0.4901  0.7404  0.1104
  200MOL0     C26906   6.614   4.297   4.582 -0.7792  0.4668 -0.0539
  200MOL0     C26907   6.462   4.291   4.548  0.0727 -0.1275 -0.1875
  200MOL0     C26908   6.396   4.424   4.526 -0.5350 -0.7761  0.7545
  200MOL0    Cl26909   6.215   4.411   4.488  0.1470  0.3026  0.3596
  200MOL0     C26910   7.150   3.702   4.978 -0.4273 -0.1272 -0.0903
  200MOL0     C26911   7.201   3.633   5.096 -0.3551 -0.9797 -0.1654
  200MOL0     O26912   7.509   3.507   5.179  0.6091 -0.3875 -0.0161
  200MOL0     C26913   7.612   3.421   5.408  0.8124  0.3233 -0.3414
  200MOL0     C26914   7.650   3.355   5.527 -0.4605 -0.2826  0.4146
  200MOL0     N26915   7.276   3.143   5.837  0.3748  0.2669 -0.1657
  200MOL0     N26916   7.214   3.175   5.726 -0.1519 -0.0516  0.4966
  200MOL0     C26917   7.327   2.802   4.710 -0.6123 -0.5727  0.9770
  200MOL0     C26918   7.385   2.675   4.707 -0.7651 -0.5890  0.7398
  200MOL0     C26919   7.517   2.280   4.508  0.4899  0.0828  0.7696
  200MOL0     C26920   7.438   2.182   4.564  0.3931  1.4299  0.5021
  200MOL0     C26921   7.448   2.044   4.529 -0.5168 -1.0904  0.1221
  200MOL0     C26922   7.553   2.004   4.452 -0.8604  0.4694  0.1296
  200MOL0     O26923   7.547   1.871   4.406  0.4366 -0.3507 -0.4163
  200MOL0     C26924   7.643   1.819   4.311 -0.1729  0.1998  0.2533
  200MOL0     C26925   7.569   1.719   4.226  1.2977 -1.2209  0.3079
  200MOL0     C26926   7.441   1.782   4.159  0.7356  0.6229  0.4987
  200MOL0     C26927   7.341   1.665   4.146  0.8828 -0.0564  0.8296
  200MOL0     C26928   7.372   1.575   4.036  0.9639  0.6221  0.3012
  200MOL0     C26929   7.396   1.491   3.949 -0.3823  0.2431  0.8465
  200MOL0     C26930   7.651   2.097   4.405 -0.5781 -0.1506 -0.4297
  200MOL0     C26931   7.631   2.236   4.430  0.5769  0.1311 -0.6656
  200MOL0     C26932   7.732   2.331   4.357  0.6323  0.6209 -0.4657
  200MOL0     H26933   7.167   2.528   4.496 -3.7635  2.3644 -0.1734
  200MOL0     H26934   7.063   2.741   4.497  0.5172  1.8006 -0.2801
  200MOL0     H26935   7.276   3.053   4.737 -1.0026 -0.1511  1.2070
  200MOL0     H26936   7.132   3.149   4.674 -0.4080  1.2063  1.9174
  200MOL0     H26937   7.122   2.948   4.900 -1.1969  1.3859  2.7497
  200MOL0     H26938   6.989   3.046   4.847 -0.3973  1.5683  2.7568
  200MOL0     H26939   7.059   3.110   5.050 -2.5948  1.2781 -1.1642
  200MOL0     H26940   7.058   3.240   4.946  2.1074  1.9254  1.0577
  200MOL0     H26941   7.328   3.106   4.963  0.1022  0.9419  0.6324
  200MOL0     H26942   7.263   3.272   4.923 -1.6496  1.7785  1.8567
  200MOL0     H26943   7.399   3.265   5.128  0.8947 -0.7810  3.3159
  200MOL0     H26944   7.233   3.316   5.157  2.2780  2.2740 -0.2296
  200MOL0     H26945   7.151   3.112   5.243 -0.0946 -3.8291 -1.3561
  200MOL0     H26946   7.292   3.029   5.196 -0.7151  1.0116 -1.6365
  200MOL0     H26947   7.331   3.248   5.396  0.5778 -1.5841  2.0274
  200MOL0     H26948   7.418   3.091   5.394  1.5925  1.9372  4.7481
  200MOL0     H26949   7.127   3.132   5.473  0.5214  0.5529  0.4064
  200MOL0     H26950   7.186   2.982   5.470 -1.4731  0.4353 -0.2796
  200MOL0     H26951   7.455   2.980   5.629  3.8473  3.4297  1.8557
  200MOL0     H26952   7.429   3.041   6.023 -0.7383  1.6265 -0.0845
  200MOL0     H26953   7.470   2.896   5.914 -2.1388  0.0339 -0.1982
  200MOL0     H26954   7.665   2.987   5.997  0.8951 -1.2139 -0.6402
  200MOL0     H26955   7.664   3.042   5.830  0.0940  1.5094 -1.0754
  200MOL0     H26956   7.723   3.228   6.001  0.0689 -0.9777 -3.9258
  200MOL0     H26957   7.559   3.224   6.069 -1.3339  0.6565  0.4020
  200MOL0     H26958   7.572   3.418   5.908  1.0795 -1.0794  0.8483
  200MOL0     H26959   7.459   3.287   5.867 -0.4834 -1.1698  0.3906
  200MOL0     H26960   7.358   3.417   5.707 -1.6693  0.1815 -1.9637
  200MOL0     H26961   7.303   3.526   5.510 -1.1542 -0.9959 -1.2202
  200MOL0     H26962   7.447   3.861   5.168 -1.8973  1.7421 -0.8960
  200MOL0     H26963   7.366   3.968   4.960  0.6406 -1.5093 -1.6231
  200MOL0     H26964   6.983   3.799   4.733 -1.7994 -2.4257  3.7178
  200MOL0     H26965   6.956   3.877   4.884  0.6829  0.7565  0.3137
  200MOL0     H26966   6.977   4.096   4.775 -3.6694  0.8468 -2.2771
  200MOL0     H26967   7.072   4.026   4.648 -0.7735  0.5245 -0.0892
  200MOL0     H26968   6.869   3.945   4.541  1.3992  3.3160 -1.5427
  200MOL0     H26969   6.783   3.960   4.692 -0.2061  3.5786  2.5365
  200MOL0     H26970   6.882   4.181   4.506  1.3479 -2.6323  0.2613
  200MOL0     H26971   6.849   4.216   4.673 -2.2021 -0.3648  1.0743
  200MOL0     H26972   6.620   4.089   4.645 -0.2615  1.4602  0.2363
  200MOL0     H26973   6.649   4.098   4.480 -1.9440  1.2720  0.3074
  200MOL0     H26974   6.636   4.337   4.682 -2.7376  0.6950  0.3236
  200MOL0     H26975   6.670   4.356   4.509 -2.7047  0.7542 -1.3711
  200MOL0     H26976   6.406   4.257   4.635 -3.8986  4.9463 -0.2827
  200MOL0     H26977   6.459   4.231   4.457  5.1915  0.7764 -1.3027
  200MOL0     H26978   6.410   4.485   4.616  2.4605  1.2664 -0.9081
  200MOL0     H26979   6.439   4.487   4.447  0.5334  1.0856  2.7234
  200MOL0     H26980   7.059   3.671   4.926 -1.1956 -0.2912  1.3136
  200MOL0     H26981   7.148   3.545   5.131 -1.9301 -0.5319 -1.2979
  200MOL0     H26982   7.679   3.429   5.323  0.1641 -1.7390 -1.1232
  200MOL0     H26983   7.755   3.327   5.530  1.0056  4.3745  0.4989
  200MOL0     H26984   7.387   2.878   4.758  0.0170  2.3871 -3.8929
  200MOL0     H26985   7.476   2.655   4.762  1.2847  1.4259 -1.6834
  200MOL0     H26986   7.355   2.214   4.625  0.2409  3.3970 -0.6431
  200MOL0     H26987   7.382   1.965   4.561 -0.2540 -1.0740  0.7119
  200MOL0     H26988   7.723   1.772   4.368 -1.9868 -2.3651  0.8317
  200MOL0     H26989   7.678   1.893   4.238  1.0266  1.0599  1.6521
  200MOL0     H26990   7.537   1.632   4.283 -0.9675  0.5337  1.9036
  200MOL0     H26991   7.632   1.682   4.145 -0.5189  0.2217 -1.9125
  200MOL0     H26992   7.464   1.827   4.062 -1.5724  0.5102 -0.1690
  200MOL0     H26993   7.393   1.866   4.209  0.2964  0.8532 -0.2860
  200MOL0     H26994   7.324   1.618   4.243 -1.3108  1.6420  1.3616
  200MOL0     H26995   7.239   1.702   4.127  0.3532 -1.0153  1.7040
  200MOL0     H26996   7.422   1.427   3.866 -3.8752  0.8319 -0.8854
  200MOL0     H26997   7.730   2.068   4.336  0.0050  1.6341 -0.5836
  200MOL0     H26998   7.822   2.336   4.419  2.2700 -3.6736 -2.1060
  200MOL0     H26999   7.762   2.272   4.270  3.2095  0.0412  0.7394
  200MOL0     H27000   7.690   2.427   4.323 -1.6730  0.3549  1.3445
  201MOL0     O27001   7.186  10.058   0.071 -0.1032  0.2891 -0.8730
  201MOL0     C27002   7.227  10.108   0.175  0.3760 -0.4787 -0.9273
  201MOL0     O27003   7.293  10.229   0.184  0.9648  0.5997  0.3987
  201MOL0     C27004   7.314  10.302   0.079  0.1444 -0.4727 -0.0347
  201MOL0     C27005   7.230  10.411   0.056 -0.2790  0.8404 -0.7240
  201MOL0     C27006   7.250  10.484  -0.058 -0.1386  0.5386  0.0235
  201MOL0     C27007   7.350  10.449  -0.150  0.8759  1.1444  0.4882
  201MOL0     O27008   7.342  10.526  -0.272  0.3223 -0.1095 -0.3193
  201MOL0     C27009   7.449  10.509  -0.368  0.5218 -0.3630  0.6449
  201MOL0     C27010   7.423  10.604  -0.489  0.0242  0.7086  0.1039
  201MOL0     C27011   7.458  10.748  -0.461 -1.2961  0.8357 -0.1310
  201MOL0     C27012   7.482  10.826  -0.588 -0.0648 -0.4455  0.0938
  201MOL0     C27013   7.510  10.974  -0.557 -0.0348  0.4031 -0.0542
  201MOL0     C27014   7.382  11.060  -0.547  0.1036  1.0552  0.1587
  201MOL0     C27015   7.358  11.150  -0.429  0.5590 -0.8664 -0.8820
  201MOL0     C27016   7.484  11.240  -0.395  0.0234 -0.6272 -1.1709
  201MOL0     N27017   7.444  11.314  -0.266 -0.4152 -0.5777  0.4741
  201MOL0     C27018   7.398  11.449  -0.259 -0.7912  0.1883  0.5128
  201MOL0     C27019   7.413  11.489  -0.128  0.6680 -0.8346  1.3329
  201MOL0     C27020   7.389  11.626  -0.065 -0.0984  0.6035 -0.2757
  201MOL0     C27021   7.473  11.737  -0.135 -0.3405 -0.4433 -0.1948
  201MOL0     C27022   7.441  11.876  -0.082 -0.1793 -0.1689  0.0601
  201MOL0     C27023   7.471  11.878   0.070 -0.4487  0.8752 -0.4472
  201MOL0     O27024   7.509  12.004   0.111  0.1016  0.1255  0.6177
  201MOL0     C27025   7.434  12.063   0.213  0.2192 -0.7548 -0.1988
  201MOL0     C27026   7.432  11.996   0.334  0.6115 -0.5665  1.0372
  201MOL0     C27027   7.354  12.066   0.440 -1.2078  0.6999  0.7635
  201MOL0     C27028   7.292  12.187   0.428 -0.6022  0.1888  0.1359
  201MOL0     C27029   7.220  12.260   0.541 -0.5580  0.3868 -0.0724
  201MOL0     O27030   7.220  12.392   0.539 -0.4901 -0.4694  0.8266
  201MOL0     C27031   7.138  12.458   0.623  0.5242  0.5054 -1.2119
  201MOL0     C27032   7.175  12.585   0.673  0.2157 -0.3272  0.6370
  201MOL0     C27033   7.089  12.659   0.762  0.0514  0.2248  0.5429
  201MOL0     C27034   6.973  12.592   0.811  0.4323  0.4615 -0.0838
  201MOL0     O27035   6.897  12.651   0.914  0.0761 -0.5693 -0.5562
  201MOL0     C27036   6.844  12.565   1.018  0.3154  0.0379  0.6317
  201MOL0     C27037   6.752  12.644   1.101  0.2414  0.0016 -0.4907
  201MOL0     C27038   6.710  12.572   1.231  0.8304  0.6302 -1.4442
  201MOL0     C27039   6.606  12.657   1.311  0.2589  0.7289  0.7694
  201MOL0     C27040   6.537  12.596   1.431 -0.8892  0.0487 -0.1574
  201MOL0     C27041   6.633  12.525   1.519 -0.0609  0.9376 -0.3887
  201MOL0     C27042   6.559  12.489   1.651 -0.8987 -0.2396 -0.0716
  201MOL0     C27043   6.632  12.375   1.711  0.1946  0.1691 -0.4632
  201MOL0    Cl27044   6.577  12.363   1.878  0.1420  0.0086  0.3204
  201MOL0     C27045   6.933  12.466   0.758 -0.0159 -0.1527 -0.3166
  201MOL0     C27046   7.012  12.408   0.665 -0.6007 -1.0175 -0.3066
  201MOL0     O27047   7.170  12.187   0.632 -0.7379  0.0226  0.4948
  201MOL0     C27048   7.301  12.250   0.300  0.3896 -0.5369  0.9924
  201MOL0     C27049   7.373  12.192   0.194 -0.6169  0.6308 -0.1327
  201MOL0     N27050   7.456  11.378  -0.056  0.0828  0.4619 -0.2249
  201MOL0     N27051   7.475  11.281  -0.133  0.8791 -1.0741  0.3679
  201MOL0     C27052   7.446  10.357  -0.120 -0.0228  0.2644 -0.3859
  201MOL0     C27053   7.421  10.284  -0.007  0.3687  0.1189  0.2294
  201MOL0     C27054   7.198  10.038   0.301  0.1515  0.4968 -0.5566
  201MOL0     C27055   7.067   9.983   0.307 -0.6497 -0.2121  0.0067
  201MOL0     C27056   7.029   9.936   0.423 -0.1523 -0.3618  0.2526
  201MOL0     C27057   7.105   9.927   0.542  0.2161 -0.7734  0.3126
  201MOL0     O27058   7.037   9.906   0.653  0.5165  0.3664 -0.3504
  201MOL0     C27059   7.096   9.825   0.755  0.3533 -0.1593  0.8663
  201MOL0     C27060   7.013   9.829   0.879 -0.3678 -0.9043 -0.8305
  201MOL0     C27061   7.100   9.788   1.001 -1.0672  0.1004  0.2975
  201MOL0     C27062   7.028   9.763   1.137 -0.4217  0.3257  0.8544
  201MOL0     C27063   6.919   9.669   1.127  0.8218 -0.3031  0.6433
  201MOL0     C27064   6.836   9.581   1.127  0.7188 -0.2461  0.1012
  201MOL0     C27065   7.236   9.973   0.529 -0.5337  0.6016  0.2289
  201MOL0     C27066   7.283  10.017   0.413  1.9459 -0.8606  0.6786
  201MOL0     C27067   7.432  10.059   0.415 -0.2692 -0.2748  0.5286
  201MOL0     H27068   7.147  10.439   0.120  1.6741 -0.9416  2.9325
  201MOL0     H27069   7.189  10.569  -0.088 -3.3618 -1.6220  0.0005
  201MOL0     H27070   7.547  10.533  -0.326  1.1419  1.3318 -1.5968
  201MOL0     H27071   7.449  10.401  -0.386  0.2999 -0.2926  0.2182
  201MOL0     H27072   7.322  10.584  -0.528  0.2921  0.0521 -0.2704
  201MOL0     H27073   7.492  10.573  -0.568 -1.5477 -0.8215 -0.7351
  201MOL0     H27074   7.554  10.746  -0.409 -0.5195 -2.3536 -1.4498
  201MOL0     H27075   7.387  10.789  -0.389 -0.6496 -1.3136  1.8494
  201MOL0     H27076   7.569  10.787  -0.643  0.6323  1.6911 -0.4098
  201MOL0     H27077   7.393  10.824  -0.651 -1.7490  5.3817  1.6255
  201MOL0     H27078   7.570  10.980  -0.466 -0.1446  1.6544 -0.0581
  201MOL0     H27079   7.577  11.015  -0.633 -0.2041  0.9065  0.0715
  201MOL0     H27080   7.384  11.125  -0.635  0.6880  5.5889  3.2335
  201MOL0     H27081   7.298  10.996  -0.579  3.0557 -1.3872 -3.7973
  201MOL0     H27082   7.348  11.088  -0.340  1.5802 -0.4597 -0.4758
  201MOL0     H27083   7.268  11.210  -0.446  2.0091  1.7427  0.2022
  201MOL0     H27084   7.583  11.195  -0.380 -0.5533 -2.0405 -1.4110
  201MOL0     H27085   7.494  11.302  -0.484 -0.7033  0.2948 -0.6271
  201MOL0     H27086   7.367  11.509  -0.344 -0.5171 -2.7406 -1.8450
  201MOL0     H27087   7.287  11.655  -0.090  0.5493  3.3228 -0.0203
  201MOL0     H27088   7.385  11.626   0.045  0.1098  3.2208 -0.2161
  201MOL0     H27089   7.576  11.710  -0.110 -0.2229 -1.9432 -2.0463
  201MOL0     H27090   7.467  11.746  -0.244  1.5874  2.0879 -0.1709
  201MOL0     H27091   7.338  11.910  -0.101 -0.2133 -1.1712 -1.8328
  201MOL0     H27092   7.507  11.940  -0.140  0.7912 -1.5616 -0.4297
  201MOL0     H27093   7.548  11.811   0.108 -2.3916 -1.6266 -0.6739
  201MOL0     H27094   7.383  11.844   0.124  1.9323 -1.6034  2.2130
  201MOL0     H27095   7.483  11.901   0.350 -1.6696 -2.2020 -0.6268
  201MOL0     H27096   7.346  12.019   0.537 -2.3002  0.7007  0.6845
  201MOL0     H27097   7.262  12.632   0.628 -0.1877 -1.9014 -2.0211
  201MOL0     H27098   7.115  12.759   0.795  0.7072  0.4520 -0.6254
  201MOL0     H27099   6.794  12.472   0.990 -1.2836  0.5683  1.5617
  201MOL0     H27100   6.927  12.542   1.085 -0.6793  1.0826  2.3100
  201MOL0     H27101   6.799  12.740   1.128 -1.3105  0.6392  0.0247
  201MOL0     H27102   6.669  12.648   1.030  1.0847 -0.0515 -1.4990
  201MOL0     H27103   6.675  12.469   1.218 -3.7912  1.4473  1.7350
  201MOL0     H27104   6.793  12.565   1.302 -1.5337  1.1602  1.5856
  201MOL0     H27105   6.529  12.671   1.234 -0.3848 -1.9180  0.8525
  201MOL0     H27106   6.643  12.757   1.336 -0.6045  0.8450  1.6478
  201MOL0     H27107   6.466  12.521   1.393 -0.9414 -0.5696  1.1135
  201MOL0     H27108   6.480  12.676   1.481  2.8861  1.5859  2.1515
  201MOL0     H27109   6.656  12.436   1.460 -2.8472  0.6352 -1.1725
  201MOL0     H27110   6.717  12.593   1.539 -2.7706  3.8377  2.2913
  201MOL0     H27111   6.453  12.465   1.639 -0.6526 -0.5584 -1.8378
  201MOL0     H27112   6.573  12.578   1.713 -2.0893  1.5335 -2.2133
  201MOL0     H27113   6.598  12.278   1.676 -0.1437 -0.3027  1.0916
  201MOL0     H27114   6.739  12.388   1.694  1.5904 -4.3268  2.8772
  201MOL0     H27115   6.842  12.411   0.783  0.4254 -1.2240 -1.0098
  201MOL0     H27116   6.979  12.307   0.645  2.1677 -3.2624  4.5890
  201MOL0     H27117   7.250  12.343   0.278  2.6889  0.8109  1.0783
  201MOL0     H27118   7.372  12.232   0.093  1.4576  1.4698  0.1178
  201MOL0     H27119   7.526  10.328  -0.187  2.5260  4.8498  0.2277
  201MOL0     H27120   7.492  10.206   0.021 -0.4868 -0.6183  0.3757
  201MOL0     H27121   7.000  10.001   0.224  0.1483  2.6708 -0.0953
  201MOL0     H27122   6.924   9.915   0.443 -0.0931  0.1028  1.0852
  201MOL0     H27123   7.198   9.858   0.778  0.2491  2.6129 -1.9186
  201MOL0     H27124   7.101   9.719   0.729 -3.3686 -0.6586  1.6301
  201MOL0     H27125   6.932   9.756   0.870  1.0876 -2.7007  0.1170
  201MOL0     H27126   6.979   9.931   0.900  2.1548 -0.5078  2.0217
  201MOL0     H27127   7.172   9.871   1.006 -1.5053  1.0842 -4.6905
  201MOL0     H27128   7.167   9.707   0.970  0.9479  1.8745 -0.2166
  201MOL0     H27129   7.095   9.715   1.208  1.0395 -0.2155 -0.8291
  201MOL0     H27130   7.005   9.855   1.193  1.3601  0.9715  0.5931
  201MOL0     H27131   6.767   9.503   1.150  0.3246 -0.7317 -2.4559
  201MOL0     H27132   7.308   9.969   0.610 -1.3139  0.2072  0.9205
  201MOL0     H27133   7.474  10.082   0.316 -0.6872 -1.2086  0.1260
  201MOL0     H27134   7.453  10.146   0.479  2.1904 -0.1914 -0.2856
  201MOL0     H27135   7.494   9.979   0.455 -0.4106 -0.1173  1.0736
  202MOL0     O27136   7.815   0.656   3.637  0.5499  0.7297  0.3013
  202MOL0     C27137   7.767   0.729   3.555 -0.6179 -0.0684  0.3020
  202MOL0     O27138   7.790   0.718   3.425  0.5363 -0.4989  0.5049
  202MOL0     C27139   7.840   0.606   3.375 -0.2862  0.8452  0.1826
  202MOL0     C27140   7.755   0.517   3.318  0.7503  0.4701 -0.3017
  202MOL0     C27141   7.803   0.395   3.271 -0.0247  0.1954  0.4987
  202MOL0     C27142   7.941   0.371   3.256 -1.2487  0.4662 -0.5138
  202MOL0     O27143   7.985   0.252   3.199  0.1428  0.2713 -0.1933
  202MOL0     C27144   8.107   0.244   3.122  0.5029  0.3793 -0.4094
  202MOL0     C27145   8.161   0.098   3.119 -0.1389  0.1915  0.1331
  202MOL0     C27146   8.296   0.084   3.042  0.1554 -0.8158  0.0247
  202MOL0     C27147   8.343  -0.056   3.061  0.2118 -0.3103 -0.2295
  202MOL0     C27148   8.502  -0.070   3.052  0.4402 -0.3037  0.5400
  202MOL0     C27149   8.546  -0.210   3.087  0.8852 -0.5692  0.1308
  202MOL0     C27150   8.688  -0.205   3.116 -0.2515 -1.2332  0.3097
  202MOL0     C27151   8.728  -0.168   3.254 -0.3412 -0.5931  0.7050
  202MOL0     N27152   8.855  -0.098   3.250 -0.1866 -0.8048  0.0511
  202MOL0     C27153   8.965  -0.150   3.184  0.4952 -0.2798  0.2767
  202MOL0     C27154   9.056  -0.050   3.197  1.6188  0.3278  0.3385
  202MOL0     C27155   9.202  -0.059   3.141 -0.2183 -0.3483 -0.2808
  202MOL0     C27156   9.239   0.016   3.018 -0.7259 -1.1561  0.5813
  202MOL0     C27157   9.178  -0.043   2.891  0.2959  0.1886 -0.6281
  202MOL0     C27158   9.274  -0.032   2.765 -0.0234 -1.4241 -0.7795
  202MOL0     O27159   9.376  -0.132   2.768 -0.0020 -0.4394  0.6183
  202MOL0     C27160   9.325  -0.260   2.742 -0.4154  0.4599  0.1785
  202MOL0     C27161   9.314  -0.345   2.851 -0.1114  0.3341 -1.1094
  202MOL0     C27162   9.268  -0.473   2.834  1.6788  0.5955 -0.4355
  202MOL0     C27163   9.223  -0.526   2.705 -0.8873  0.9563  0.8082
  202MOL0     C27164   9.179  -0.665   2.685 -0.3533 -0.2395  0.1277
  202MOL0     O27165   9.123  -0.745   2.789  0.1661 -0.6563  0.4676
  202MOL0     C27166   9.056  -0.859   2.758 -0.2648 -0.9262  1.0049
  202MOL0     C27167   9.101  -0.976   2.822  0.5583 -0.5396  0.9219
  202MOL0     C27168   9.047  -1.094   2.784  0.2993  0.4954  0.0013
  202MOL0     C27169   8.959  -1.111   2.684  0.8119  0.3453  0.3194
  202MOL0     O27170   8.917  -1.236   2.633 -0.1067 -0.5690 -0.7813
  202MOL0     C27171   8.777  -1.253   2.617 -0.4194 -0.0495 -0.1331
  202MOL0     C27172   8.747  -1.373   2.704  0.2634 -0.9627  0.8391
  202MOL0     C27173   8.595  -1.401   2.679 -0.5595  0.5207 -0.9710
  202MOL0     C27174   8.563  -1.538   2.709 -0.5443  0.5517 -0.6811
  202MOL0     C27175   8.604  -1.601   2.843  0.5155 -0.7128 -0.3034
  202MOL0     C27176   8.515  -1.723   2.864  0.4462 -0.3013  0.4798
  202MOL0     C27177   8.555  -1.779   3.000  0.1189  0.1115  0.2891
  202MOL0     C27178   8.431  -1.848   3.047 -0.2198  0.1377 -0.5495
  202MOL0    Cl27179   8.328  -1.724   3.120 -0.3342 -0.0270 -0.0271
  202MOL0     C27180   8.899  -0.992   2.633  0.6451 -0.7264  0.0672
  202MOL0     C27181   8.950  -0.865   2.663 -0.5059 -0.7323  0.1449
  202MOL0     O27182   9.203  -0.712   2.574  0.2131 -0.0989 -0.5954
  202MOL0     C27183   9.251  -0.440   2.592  0.0672  0.5015 -0.8050
  202MOL0     C27184   9.300  -0.307   2.609  0.9002  0.3383  0.7667
  202MOL0     N27185   9.005   0.051   3.284 -0.1329 -0.2665  0.5182
  202MOL0     N27186   8.884   0.023   3.306 -0.8077  0.9359  0.1066
  202MOL0     C27187   8.034   0.467   3.295  0.4013 -0.3197 -0.9259
  202MOL0     C27188   7.979   0.582   3.368  0.4627 -0.4608 -0.6963
  202MOL0     C27189   7.678   0.843   3.583 -0.6748  1.9819 -0.1995
  202MOL0     C27190   7.623   0.903   3.468 -0.2513 -0.6294 -0.8668
  202MOL0     C27191   7.532   1.013   3.488 -0.3470 -0.4127 -0.1566
  202MOL0     C27192   7.497   1.055   3.618  0.6882 -0.4416  0.2639
  202MOL0     O27193   7.405   1.145   3.652 -1.2279 -0.4761  0.1959
  202MOL0     C27194   7.377   1.258   3.560  0.2258  0.4784  0.0214
  202MOL0     C27195   7.244   1.334   3.586 -0.0043  0.0648 -0.2998
  202MOL0     C27196   7.236   1.478   3.508 -1.3462  1.3298  0.3274
  202MOL0     C27197   7.108   1.553   3.519 -0.7279  1.3331  0.5455
  202MOL0     C27198   7.100   1.614   3.641 -0.3928 -0.7794 -0.3657
  202MOL0     C27199   7.099   1.670   3.752  0.1887  0.1890 -0.3932
  202MOL0     C27200   7.556   0.995   3.729  0.5713  0.6465 -0.4839
  202MOL0     C27201   7.641   0.894   3.709 -0.9197  0.2485 -0.3690
  202MOL0     C27202   7.685   0.841   3.840 -0.5071  0.5096  0.1599
  202MOL0     H27203   7.649   0.536   3.332  0.4513 -0.5742 -1.1188
  202MOL0     H27204   7.741   0.310   3.244 -1.7344 -0.3019  5.1314
  202MOL0     H27205   8.102   0.281   3.019 -1.0693  0.0308 -0.4889
  202MOL0     H27206   8.183   0.312   3.162 -0.9899  1.5107  0.6130
  202MOL0     H27207   8.092   0.029   3.070  0.0944 -0.0749  0.1758
  202MOL0     H27208   8.175   0.086   3.227  0.4381 -1.0080 -0.0656
  202MOL0     H27209   8.366   0.161   3.077 -3.2501  2.4553  0.1750
  202MOL0     H27210   8.288   0.099   2.934  1.8671 -1.0512 -0.1730
  202MOL0     H27211   8.314  -0.093   3.160 -1.0506 -0.4555 -0.6282
  202MOL0     H27212   8.301  -0.132   2.994  4.4947 -3.3784  0.1436
  202MOL0     H27213   8.538  -0.048   2.951  1.3167 -2.6017  0.2840
  202MOL0     H27214   8.550   0.007   3.113  1.5876  0.4348 -1.2122
  202MOL0     H27215   8.492  -0.232   3.179  0.5700 -2.8976 -0.5402
  202MOL0     H27216   8.527  -0.285   3.010  0.1908  0.9234 -1.2085
  202MOL0     H27217   8.734  -0.142   3.039 -2.6072 -0.6169 -0.6841
  202MOL0     H27218   8.722  -0.307   3.096 -0.4382 -0.9932 -1.4295
  202MOL0     H27219   8.652  -0.106   3.302  0.5204 -0.4085  1.8964
  202MOL0     H27220   8.751  -0.260   3.308  2.2455  0.0920  0.8967
  202MOL0     H27221   8.968  -0.239   3.122  1.5204  1.9530 -3.2039
  202MOL0     H27222   9.266  -0.015   3.219 -2.4356  1.1560  0.7856
  202MOL0     H27223   9.221  -0.165   3.123 -2.4500 -1.1090  1.4304
  202MOL0     H27224   9.192   0.113   3.036 -0.7084 -1.3741  1.8920
  202MOL0     H27225   9.347   0.026   3.012 -0.6125 -0.9453  2.3605
  202MOL0     H27226   9.095   0.019   2.858  0.3730 -0.3479 -1.8780
  202MOL0     H27227   9.136  -0.143   2.908 -0.4055  0.1748 -2.2641
  202MOL0     H27228   9.325   0.064   2.759  0.7003 -1.8378 -1.4175
  202MOL0     H27229   9.209  -0.045   2.678 -0.7907  0.3775 -0.5138
  202MOL0     H27230   9.333  -0.318   2.954 -3.5839 -1.8900  0.2917
  202MOL0     H27231   9.279  -0.541   2.918  0.6179 -1.1968 -1.6661
  202MOL0     H27232   9.182  -0.973   2.895  0.7402 -0.7508  0.7306
  202MOL0     H27233   9.092  -1.180   2.832 -0.3717 -0.7466 -1.5087
  202MOL0     H27234   8.716  -1.169   2.654 -0.4351 -1.0119  2.1932
  202MOL0     H27235   8.760  -1.272   2.511 -0.2089  1.4282 -0.4547
  202MOL0     H27236   8.812  -1.459   2.686  0.7860 -0.4311  0.1342
  202MOL0     H27237   8.761  -1.342   2.808 -0.6131 -2.3374  1.3856
  202MOL0     H27238   8.539  -1.343   2.753 -0.1002  1.5327 -1.4015
  202MOL0     H27239   8.569  -1.364   2.579  0.2705 -0.1172 -1.4364
  202MOL0     H27240   8.607  -1.601   2.630  2.6963 -2.7781  3.2845
  202MOL0     H27241   8.455  -1.552   2.716 -0.2715 -1.4193  0.2199
  202MOL0     H27242   8.587  -1.531   2.926  3.9897  0.5900 -0.5430
  202MOL0     H27243   8.710  -1.628   2.844  1.3894  2.3205 -0.9539
  202MOL0     H27244   8.407  -1.704   2.865  0.6686  1.8349  4.3433
  202MOL0     H27245   8.542  -1.804   2.796  2.2929  0.3264  0.4088
  202MOL0     H27246   8.585  -1.701   3.070  0.8659  1.8604 -1.8806
  202MOL0     H27247   8.637  -1.849   2.983 -1.7612 -3.1267  3.0706
  202MOL0     H27248   8.388  -1.913   2.971  0.5670 -3.2557  1.6787
  202MOL0     H27249   8.468  -1.906   3.132  0.4024 -1.5489 -1.9273
  202MOL0     H27250   8.818  -1.002   2.561  0.5972  1.0615 -0.1600
  202MOL0     H27251   8.920  -0.770   2.619 -1.0757 -2.2050 -2.9740
  202MOL0     H27252   9.237  -0.464   2.487  0.5990 -2.5540 -0.2672
  202MOL0     H27253   9.315  -0.253   2.517 -0.1866  1.2284  1.0883
  202MOL0     H27254   8.139   0.457   3.269  0.0960 -0.2819 -2.1915
  202MOL0     H27255   8.042   0.653   3.421  0.0305 -1.4722  1.2460
  202MOL0     H27256   7.640   0.895   3.362 -2.7614  4.1920 -1.9401
  202MOL0     H27257   7.488   1.048   3.395  2.5149  0.2590 -1.3877
  202MOL0     H27258   7.367   1.220   3.458  0.0358  0.9051 -0.1185
  202MOL0     H27259   7.451   1.339   3.566 -0.4023  0.9412  2.4489
  202MOL0     H27260   7.250   1.380   3.685 -1.9464 -1.8995  0.8071
  202MOL0     H27261   7.155   1.271   3.591  0.8088 -1.0881  0.0413
  202MOL0     H27262   7.248   1.457   3.401 -0.2708  2.4452  0.2137
  202MOL0     H27263   7.319   1.543   3.533 -1.9899  1.6347  1.7930
  202MOL0     H27264   7.107   1.631   3.442  0.1651  2.5624  1.7354
  202MOL0     H27265   7.018   1.492   3.507 -1.9090  2.8003  1.5502
  202MOL0     H27266   7.073   1.724   3.841 -2.1053  0.7033 -1.3138
  202MOL0     H27267   7.524   1.028   3.828 -1.1395  0.8426 -1.0681
  202MOL0     H27268   7.794   0.833   3.839 -0.4557  0.7111 -2.1103
  202MOL0     H27269   7.656   0.905   3.924  1.4778 -2.0660  3.0267
  202MOL0     H27270   7.648   0.740   3.861  1.1819 -0.6011 -1.8392
  203MOL0     O27271   8.162   2.005   5.697 -0.3887 -0.3790  0.2397
  203MOL0     C27272   8.257   2.007   5.614  0.2869 -0.9156 -0.3954
  203MOL0     O27273   8.234   1.980   5.482 -0.6553 -0.0521  0.1715
  203MOL0     C27274   8.110   1.942   5.443 -0.0134  0.4060  0.4522
  203MOL0     C27275   8.036   2.033   5.367  0.0637 -0.1542  0.2062
  203MOL0     C27276   7.912   1.999   5.316 -0.6046 -1.0293 -0.4781
  203MOL0     C27277   7.854   1.875   5.359  0.0567 -0.2483  0.8769
  203MOL0     O27278   7.724   1.830   5.330 -0.7519  0.3054 -0.6437
  203MOL0     C27279   7.648   1.897   5.237 -0.4232  0.4066  0.8510
  203MOL0     C27280   7.539   1.808   5.192  0.0126  0.6055 -1.2368
  203MOL0     C27281   7.442   1.902   5.119 -0.4602  0.3707  0.2953
  203MOL0     C27282   7.336   1.827   5.045  0.0293  0.7841  0.3084
  203MOL0     C27283   7.388   1.758   4.913  0.5058  0.1050 -0.2442
  203MOL0     C27284   7.272   1.752   4.808  1.2466  0.1791 -0.7401
  203MOL0     C27285   7.345   1.685   4.690  0.1402 -0.1507  0.3908
  203MOL0     C27286   7.266   1.646   4.563  0.1729 -0.1232 -0.1972
  203MOL0     N27287   7.152   1.567   4.565  0.7262  0.3823 -0.4847
  203MOL0     C27288   7.114   1.454   4.643  0.2934  0.0301  0.6114
  203MOL0     C27289   6.997   1.424   4.598  1.3187  0.7218 -1.5511
  203MOL0     C27290   6.908   1.316   4.653  0.8406 -0.2694  0.1173
  203MOL0     C27291   6.776   1.363   4.715 -0.0935  0.1665  0.0764
  203MOL0     C27292   6.790   1.436   4.851 -0.3067 -0.0118 -0.4164
  203MOL0     C27293   6.855   1.366   4.964 -0.7215  0.2668  0.1167
  203MOL0     O27294   6.803   1.397   5.094 -0.2689  0.0682 -0.2325
  203MOL0     C27295   6.688   1.319   5.133  0.2091  0.9185 -1.0112
  203MOL0     C27296   6.692   1.251   5.257 -0.5390 -0.0997  0.7599
  203MOL0     C27297   6.585   1.196   5.316  0.0840 -0.0546 -0.0307
  203MOL0     C27298   6.468   1.194   5.242  0.8725  0.6356 -0.0024
  203MOL0     C27299   6.350   1.121   5.301  0.8711  0.4194  0.3026
  203MOL0     O27300   6.245   1.097   5.219  0.6510 -1.0559  0.1649
  203MOL0     C27301   6.151   1.002   5.254 -0.0750  1.3620 -0.5915
  203MOL0     C27302   6.190   0.874   5.282 -0.4775  0.5111  1.4244
  203MOL0     C27303   6.092   0.781   5.305  0.4258  0.2423 -0.4827
  203MOL0     C27304   5.955   0.821   5.323 -1.1797  0.7333  0.6260
  203MOL0     O27305   5.855   0.730   5.333 -0.5074 -0.6032 -0.3942
  203MOL0     C27306   5.801   0.701   5.202  0.6231 -0.7667  0.4851
  203MOL0     C27307   5.718   0.569   5.208  0.1107  1.0372  0.2442
  203MOL0     C27308   5.563   0.598   5.231  0.2282 -0.4089 -0.1680
  203MOL0     C27309   5.496   0.471   5.291 -0.1806 -0.7925  0.9867
  203MOL0     C27310   5.339   0.467   5.280 -0.3597 -0.4723 -0.6206
  203MOL0     C27311   5.267   0.464   5.142 -0.5698 -1.2521  0.2890
  203MOL0     C27312   5.300   0.343   5.057  0.4617  0.6559  0.2465
  203MOL0     C27313   5.190   0.337   4.961 -0.7367  0.7028  0.2677
  203MOL0    Cl27314   5.260   0.229   4.833 -0.0466  0.4773  0.0204
  203MOL0     C27315   5.930   0.948   5.311  0.7711 -0.2426  0.0506
  203MOL0     C27316   6.028   1.039   5.285  0.5413 -0.3589  0.9506
  203MOL0     O27317   6.355   1.093   5.424 -0.5226  0.1592  0.3211
  203MOL0     C27318   6.462   1.226   5.106 -0.0663 -0.4327 -0.3555
  203MOL0     C27319   6.572   1.297   5.060  0.7404 -1.1469 -0.4347
  203MOL0     N27320   6.950   1.513   4.510  0.0225 -0.0822 -0.1098
  203MOL0     N27321   7.054   1.595   4.485 -0.1692  0.2927  0.2721
  203MOL0     C27322   7.930   1.782   5.430 -0.5764  0.2732  0.2303
  203MOL0     C27323   8.068   1.812   5.459  0.0625 -0.5832 -0.4116
  203MOL0     C27324   8.392   2.051   5.651 -0.4097 -0.2856 -0.4782
  203MOL0     C27325   8.401   2.109   5.788  0.0391 -0.0844 -0.2666
  203MOL0     C27326   8.527   2.136   5.840  0.0939  0.0345  0.4799
  203MOL0     C27327   8.639   2.113   5.757 -0.0350  0.5635  0.5034
  203MOL0     O27328   8.771   2.144   5.794 -0.0367 -0.0360  0.5519
  203MOL0     C27329   8.801   2.221   5.917  0.0675  0.2360  0.1975
  203MOL0     C27330   8.800   2.139   6.048 -0.0511 -0.0909 -0.1848
  203MOL0     C27331   8.920   2.036   6.044  0.4285  0.1018  0.0414
  203MOL0     C27332   8.970   1.994   6.179 -0.0585  0.9541  0.2126
  203MOL0     C27333   9.052   2.099   6.240 -0.0792 -0.2092  0.1577
  203MOL0     C27334   9.109   2.182   6.302 -0.1284  0.1305  0.5546
  203MOL0     C27335   8.629   2.063   5.628 -0.6605 -0.7788 -0.3847
  203MOL0     C27336   8.511   2.025   5.571  0.0971 -0.9198  0.0218
  203MOL0     C27337   8.519   1.975   5.436 -0.0824  0.3214  0.7504
  203MOL0     H27338   8.073   2.134   5.354  0.7752 -0.7521 -4.0014
  203MOL0     H27339   7.864   2.070   5.250  3.3452  0.6576 -1.8171
  203MOL0     H27340   7.613   1.990   5.285  1.0381  1.6613 -0.4069
  203MOL0     H27341   7.707   1.928   5.151 -1.5377 -0.7665 -0.3849
  203MOL0     H27342   7.492   1.754   5.274  0.6683  1.5033 -0.2342
  203MOL0     H27343   7.579   1.729   5.128 -0.6725  0.1370 -1.0992
  203MOL0     H27344   7.496   1.963   5.046  3.1638 -1.0567  1.5716
  203MOL0     H27345   7.390   1.974   5.184  0.6876  1.8655 -0.3872
  203MOL0     H27346   7.290   1.752   5.111 -0.5128  0.4068 -0.4858
  203MOL0     H27347   7.249   1.889   5.019 -1.7764 -1.6216  0.2622
  203MOL0     H27348   7.478   1.806   4.875  0.6760 -0.7560 -0.9572
  203MOL0     H27349   7.405   1.652   4.938 -2.1291 -1.7587 -5.0181
  203MOL0     H27350   7.192   1.685   4.842  2.3478 -0.8303 -0.0315
  203MOL0     H27351   7.224   1.849   4.792 -0.5926 -0.9205 -2.4086
  203MOL0     H27352   7.377   1.586   4.722 -1.7682  0.0252  3.1449
  203MOL0     H27353   7.421   1.761   4.669 -2.4283  2.1582 -1.2772
  203MOL0     H27354   7.243   1.745   4.522  3.2624  0.3049 -1.2317
  203MOL0     H27355   7.336   1.608   4.487  1.7216  2.0048  0.0434
  203MOL0     H27356   7.165   1.392   4.716 -1.5152 -0.8275  1.1778
  203MOL0     H27357   6.883   1.243   4.576  2.4205 -0.9933  0.2376
  203MOL0     H27358   6.978   1.267   4.721 -0.4295 -0.9893  0.9308
  203MOL0     H27359   6.717   1.415   4.640  1.3381 -0.3422 -1.4758
  203MOL0     H27360   6.721   1.272   4.742 -0.5240  0.4386  0.1262
  203MOL0     H27361   6.696   1.486   4.876 -0.0566 -0.4911  1.6060
  203MOL0     H27362   6.858   1.522   4.837  1.1580 -1.1826 -0.7659
  203MOL0     H27363   6.960   1.395   4.970  0.1939 -2.1258 -2.1040
  203MOL0     H27364   6.860   1.259   4.939  1.4859  0.4826 -0.5326
  203MOL0     H27365   6.781   1.243   5.320 -0.9652 -3.9502  1.0800
  203MOL0     H27366   6.590   1.157   5.417  0.4302 -1.0109 -0.4004
  203MOL0     H27367   6.294   0.846   5.269  1.0332  5.4407  0.8136
  203MOL0     H27368   6.096   0.676   5.332  0.9074  1.3854  5.2066
  203MOL0     H27369   5.724   0.775   5.177  1.6478  0.1857  0.0507
  203MOL0     H27370   5.875   0.679   5.124 -0.2563 -3.8420  0.4089
  203MOL0     H27371   5.740   0.513   5.117 -0.2931  3.0623 -1.1699
  203MOL0     H27372   5.757   0.512   5.292 -0.6226  0.2965  0.0913
  203MOL0     H27373   5.552   0.685   5.297  0.4657 -1.2017  0.9394
  203MOL0     H27374   5.511   0.638   5.143 -0.8434  1.1450  1.0953
  203MOL0     H27375   5.533   0.466   5.394 -2.9299  0.2979  2.1095
  203MOL0     H27376   5.543   0.386   5.240  2.1213  1.3196 -0.6104
  203MOL0     H27377   5.311   0.563   5.322 -1.5659 -1.0489 -0.0682
  203MOL0     H27378   5.289   0.394   5.344  1.9018 -0.2229  1.5806
  203MOL0     H27379   5.160   0.470   5.166 -0.0612  0.8582  2.5470
  203MOL0     H27380   5.302   0.550   5.083 -0.0053 -1.9026 -0.3331
  203MOL0     H27381   5.311   0.255   5.122  1.7176 -0.9440 -2.0040
  203MOL0     H27382   5.395   0.347   5.004  0.6188 -1.3607  0.3163
  203MOL0     H27383   5.099   0.285   4.993 -0.2072 -1.8101 -1.9580
  203MOL0     H27384   5.174   0.430   4.907  2.0770  0.1781 -1.6870
  203MOL0     H27385   5.823   0.966   5.316  1.2500  2.8973  1.9213
  203MOL0     H27386   6.002   1.145   5.282 -0.3495 -0.5718 -2.3791
  203MOL0     H27387   6.367   1.236   5.054  0.7275 -1.8905 -2.2113
  203MOL0     H27388   6.577   1.345   4.962 -3.0530  0.0519 -0.1772
  203MOL0     H27389   7.889   1.683   5.444  0.5708 -0.2585 -0.0139
  203MOL0     H27390   8.130   1.732   5.498  0.5186 -0.2643 -0.4835
  203MOL0     H27391   8.308   2.126   5.841 -0.2210  0.0080 -0.7492
  203MOL0     H27392   8.530   2.188   5.935  1.9139  0.8687  0.0189
  203MOL0     H27393   8.736   2.309   5.924 -0.0718  0.1385  0.1452
  203MOL0     H27394   8.899   2.269   5.926  0.5366 -0.7072  0.1961
  203MOL0     H27395   8.709   2.077   6.045  0.9060 -1.5636  0.4321
  203MOL0     H27396   8.787   2.203   6.135 -3.1024 -0.6149 -0.1148
  203MOL0     H27397   9.004   2.081   5.991 -0.9622  2.0016 -0.6888
  203MOL0     H27398   8.893   1.945   5.990  0.9870  1.3646 -2.5355
  203MOL0     H27399   8.888   1.954   6.239 -1.4209  1.1171 -1.4844
  203MOL0     H27400   9.039   1.911   6.159 -1.6221 -0.4504  0.4370
  203MOL0     H27401   9.149   2.259   6.364 -0.6713 -0.2406  1.3727
  203MOL0     H27402   8.724   2.070   5.576 -1.7993  3.0561 -2.3050
  203MOL0     H27403   8.453   1.888   5.435 -1.8917  1.6002  1.4384
  203MOL0     H27404   8.486   2.047   5.361  2.9398  1.1141  0.0434
  203MOL0     H27405   8.620   1.950   5.402 -0.2573  2.1226 -1.3309
  204MOL0     O27406   8.320   8.508   9.789 -0.3926  0.5884  0.7767
  204MOL0     C27407   8.395   8.435   9.848  1.0083 -0.1597 -0.5812
  204MOL0     O27408   8.487   8.351   9.797  0.5112  0.5572  0.4306
  204MOL0     C27409   8.505   8.359   9.662 -0.0220 -1.3259 -0.1953
  204MOL0     C27410   8.398   8.353   9.569 -0.6696 -0.6656  0.3135
  204MOL0     C27411   8.431   8.357   9.434 -0.0389 -1.1140 -0.7040
  204MOL0     C27412   8.564   8.368   9.385  1.2790  0.2839 -0.2981
  204MOL0     O27413   8.605   8.365   9.251 -0.4017  0.6373 -0.3517
  204MOL0     C27414   8.539   8.278   9.160  0.7848  0.9685 -0.3626
  204MOL0     C27415   8.583   8.301   9.015  0.4213  1.2361  0.6882
  204MOL0     C27416   8.719   8.230   8.994  0.3758  0.5404  0.4426
  204MOL0     C27417   8.755   8.216   8.848  0.7927  0.1858  1.0554
  204MOL0     C27418   8.897   8.183   8.824 -1.2256  1.2502  0.0162
  204MOL0     C27419   8.924   8.089   8.701  0.2040  0.1053  0.1162
  204MOL0     C27420   8.909   8.169   8.566  0.1762  0.1774 -0.4608
  204MOL0     C27421   8.926   8.072   8.445  0.5431 -0.7721  0.1619
  204MOL0     N27422   8.800   8.007   8.410 -0.5416  0.8886 -0.0237
  204MOL0     C27423   8.682   8.002   8.488 -0.3248 -0.7698  0.5167
  204MOL0     C27424   8.599   7.919   8.423 -0.5301  0.7107  0.1083
  204MOL0     C27425   8.453   7.915   8.469  0.0711  0.1159  1.5069
  204MOL0     C27426   8.367   7.804   8.398 -0.3494  0.1267 -1.1729
  204MOL0     C27427   8.241   7.766   8.470  0.3723  0.1733  0.3069
  204MOL0     C27428   8.161   7.658   8.405  0.1439  0.5919  0.1760
  204MOL0     O27429   8.054   7.644   8.497 -0.6340 -0.0635 -0.1001
  204MOL0     C27430   7.965   7.540   8.487 -0.1132 -0.3798  0.7382
  204MOL0     C27431   7.860   7.545   8.569 -0.1643 -0.3217 -0.8718
  204MOL0     C27432   7.770   7.436   8.581 -0.1422  1.5635  1.3655
  204MOL0     C27433   7.770   7.343   8.481  0.1350  0.6276  1.1512
  204MOL0     C27434   7.666   7.243   8.476 -0.0736 -0.0791 -0.6073
  204MOL0     O27435   7.557   7.276   8.536  0.3112 -0.1102 -0.3803
  204MOL0     C27436   7.458   7.180   8.562 -0.1922  0.6683  0.0890
  204MOL0     C27437   7.474   7.037   8.573  0.2332  0.3476 -1.1043
  204MOL0     C27438   7.360   6.961   8.605  0.6722  1.8199 -0.7996
  204MOL0     C27439   7.239   7.015   8.636 -0.5222 -0.1956  0.0862
  204MOL0     O27440   7.142   6.928   8.688  0.6863  0.0743 -0.4250
  204MOL0     C27441   7.000   6.969   8.696  0.7056  0.0845 -1.3653
  204MOL0     C27442   6.939   6.914   8.834 -0.2035 -0.2691  0.2366
  204MOL0     C27443   6.995   6.979   8.952  0.1149  0.1666 -1.2458
  204MOL0     C27444   7.018   6.883   9.073  0.7604 -0.4746 -0.2197
  204MOL0     C27445   7.105   6.956   9.179 -0.2568  0.0330 -0.1973
  204MOL0     C27446   7.036   7.068   9.248  0.5500 -0.1740  0.0268
  204MOL0     C27447   7.138   7.163   9.326  0.3601  1.4590  0.1588
  204MOL0     C27448   7.081   7.222   9.459 -0.3775 -0.1377 -0.0133
  204MOL0    Cl27449   7.059   7.092   9.578 -0.3391 -0.2993 -0.3155
  204MOL0     C27450   7.225   7.151   8.620  0.7039  0.5877  0.1159
  204MOL0     C27451   7.328   7.234   8.584 -1.1045 -0.0574 -0.7490
  204MOL0     O27452   7.689   7.141   8.404 -0.3338  0.3843  0.7009
  204MOL0     C27453   7.873   7.340   8.390  0.2474 -0.0312 -0.0882
  204MOL0     C27454   7.970   7.441   8.386  0.3016  0.6639 -1.2132
  204MOL0     N27455   8.668   7.858   8.314  0.0141 -0.5017  0.0798
  204MOL0     N27456   8.777   7.929   8.301  0.2493  0.3061  0.0815
  204MOL0     C27457   8.663   8.361   9.480  0.1701  0.0325  0.8343
  204MOL0     C27458   8.636   8.367   9.618  0.3815  0.5240 -0.2639
  204MOL0     C27459   8.401   8.450   9.994 -0.3225  0.7783  0.5357
  204MOL0     C27460   8.516   8.415  10.063  0.1467 -0.8224 -0.0580
  204MOL0     C27461   8.540   8.442  10.196 -0.0194 -0.9699  0.0322
  204MOL0     C27462   8.443   8.512  10.269  0.3294  0.7459 -0.0691
  204MOL0     O27463   8.467   8.537  10.401 -0.3950 -0.0745 -0.5266
  204MOL0     C27464   8.349   8.521  10.482  0.3381 -0.6584 -0.1506
  204MOL0     C27465   8.377   8.537  10.629  0.2338  0.2381 -0.0175
  204MOL0     C27466   8.496   8.445  10.683  0.7221 -0.2133  0.0740
  204MOL0     C27467   8.539   8.500  10.816 -0.7509  0.1166 -0.2882
  204MOL0     C27468   8.664   8.441  10.862  0.7787  0.3034  0.2064
  204MOL0     C27469   8.768   8.407  10.903 -0.4308 -0.5326 -0.7368
  204MOL0     C27470   8.323   8.540  10.206  0.2756 -0.2884 -0.4122
  204MOL0     C27471   8.298   8.514  10.072  0.9624  0.0339  0.7077
  204MOL0     C27472   8.165   8.552  10.017 -0.8008 -0.5446 -0.7199
  204MOL0     H27473   8.293   8.339   9.593 -1.6295 -1.2469 -3.5056
  204MOL0     H27474   8.353   8.373   9.361  0.6182  0.2372 -1.1375
  204MOL0     H27475   8.548   8.176   9.198 -0.6231  0.8804 -0.1903
  204MOL0     H27476   8.434   8.308   9.153  1.0616  1.6736 -1.7620
  204MOL0     H27477   8.594   8.407   8.992 -0.4067  1.4555  1.2973
  204MOL0     H27478   8.510   8.251   8.951  0.6479  0.9788  0.6269
  204MOL0     H27479   8.722   8.127   9.029 -0.0143  0.5204  0.4208
  204MOL0     H27480   8.794   8.284   9.052 -0.9720 -0.4680  3.3355
  204MOL0     H27481   8.687   8.155   8.788  0.3729  3.2950 -1.8965
  204MOL0     H27482   8.741   8.315   8.804 -1.3116 -0.7964 -0.6789
  204MOL0     H27483   8.955   8.275   8.822  0.7374  0.0655 -0.1517
  204MOL0     H27484   8.936   8.125   8.909 -4.5938 -1.9732 -0.3683
  204MOL0     H27485   9.025   8.048   8.709  0.1848 -0.0533 -0.4278
  204MOL0     H27486   8.848   8.011   8.711  0.0786  0.2084 -0.0258
  204MOL0     H27487   9.001   8.228   8.557  1.5855 -1.7786  0.2524
  204MOL0     H27488   8.816   8.226   8.557  0.0677  0.3425  1.3383
  204MOL0     H27489   8.957   8.132   8.359  2.2898 -1.3406  0.3469
  204MOL0     H27490   8.994   7.989   8.463 -3.2359 -3.5492  3.3112
  204MOL0     H27491   8.664   8.070   8.571 -1.1398  3.4691 -2.7330
  204MOL0     H27492   8.444   7.906   8.577 -0.3643  0.1619  1.4753
  204MOL0     H27493   8.415   8.010   8.431 -1.6619 -1.0857  0.0876
  204MOL0     H27494   8.354   7.838   8.295 -0.8984 -0.9741 -1.4911
  204MOL0     H27495   8.438   7.722   8.385  2.8356  2.2347  1.3812
  204MOL0     H27496   8.179   7.856   8.471  1.6116  1.0393  0.1429
  204MOL0     H27497   8.247   7.740   8.576 -1.3465  0.3881  0.4964
  204MOL0     H27498   8.217   7.564   8.399 -0.8576  0.0849 -1.8685
  204MOL0     H27499   8.133   7.687   8.304 -1.1937  0.4628  0.4933
  204MOL0     H27500   7.852   7.623   8.644 -0.5998 -2.3149  1.2708
  204MOL0     H27501   7.688   7.430   8.651  1.1314 -3.2517  2.8410
  204MOL0     H27502   7.572   6.992   8.560  1.0772  2.1170 -1.1865
  204MOL0     H27503   7.358   6.853   8.617 -1.4150  1.8575 -0.4687
  204MOL0     H27504   6.984   7.076   8.681  0.7981  0.2976 -0.0098
  204MOL0     H27505   6.957   6.917   8.610  5.8531 -3.0951 -2.4650
  204MOL0     H27506   6.831   6.928   8.835 -0.1661  0.0375  0.0905
  204MOL0     H27507   6.956   6.806   8.837 -1.7699 -0.6173 -1.5758
  204MOL0     H27508   7.085   7.038   8.930  1.1440  0.1211  2.1948
  204MOL0     H27509   6.924   7.058   8.981  0.0574 -0.1411 -0.5405
  204MOL0     H27510   7.074   6.792   9.052 -3.7643 -3.9192  1.0399
  204MOL0     H27511   6.921   6.857   9.118  1.0120 -0.6617  0.2239
  204MOL0     H27512   7.189   6.994   9.120  0.9095 -2.8980 -0.6440
  204MOL0     H27513   7.144   6.885   9.254 -0.4301  1.6507  1.4852
  204MOL0     H27514   6.993   7.147   9.187  3.3880  2.0532  0.7117
  204MOL0     H27515   6.961   7.017   9.310  0.6529  0.3533  0.5929
  204MOL0     H27516   7.169   7.241   9.256 -2.6431  2.6442  0.0226
  204MOL0     H27517   7.233   7.117   9.357  1.1647  2.0276 -1.3315
  204MOL0     H27518   7.139   7.304   9.501 -1.6166  1.4736 -1.3156
  204MOL0     H27519   6.978   7.257   9.446 -0.8070 -1.2738  0.2425
  204MOL0     H27520   7.129   7.196   8.640 -0.5327  0.3566 -4.2576
  204MOL0     H27521   7.307   7.338   8.566  0.5280  0.2273 -1.1963
  204MOL0     H27522   7.874   7.259   8.318  3.3436 -0.1538 -0.0341
  204MOL0     H27523   8.042   7.449   8.305 -0.4913  1.8704 -1.8210
  204MOL0     H27524   8.768   8.373   9.456  0.7119 -0.5924  2.7283
  204MOL0     H27525   8.711   8.368   9.696 -0.4953 -0.4778  0.6239
  204MOL0     H27526   8.599   8.391   9.998  1.8735  0.8711  1.4013
  204MOL0     H27527   8.632   8.395  10.229  0.5605  0.7534  0.9875
  204MOL0     H27528   8.315   8.418  10.465  4.1359 -1.9847 -0.9837
  204MOL0     H27529   8.275   8.597  10.458  2.3653  1.5763  0.3240
  204MOL0     H27530   8.292   8.524  10.696  1.2586 -2.3876  0.8682
  204MOL0     H27531   8.412   8.640  10.638 -1.0877  0.8049 -0.9165
  204MOL0     H27532   8.575   8.462  10.610 -1.4708 -0.2019 -2.4766
  204MOL0     H27533   8.476   8.338  10.693  0.7472 -0.2147  0.1135
  204MOL0     H27534   8.559   8.606  10.797  1.1055  0.1292  1.3618
  204MOL0     H27535   8.460   8.479  10.889 -1.2010 -0.4113 -0.9185
  204MOL0     H27536   8.866   8.375  10.934  0.3906  0.2334 -2.3910
  204MOL0     H27537   8.239   8.593  10.251 -0.2294  0.5860 -2.2969
  204MOL0     H27538   8.172   8.636   9.948 -2.1883 -1.7528 -2.4286
  204MOL0     H27539   8.119   8.479   9.950 -2.1363  1.6860 -2.3895
  204MOL0     H27540   8.095   8.589  10.092  0.8458  0.1857  0.5225
  205MOL0     O27541   9.362   9.675   0.063 -0.8061  0.0101  0.2716
  205MOL0     C27542   9.393   9.582   0.137  0.0308  0.3933  0.6496
  205MOL0     O27543   9.397   9.453   0.093 -0.8130  0.8064  0.4925
  205MOL0     C27544   9.369   9.443  -0.044  1.0732  0.1882  0.0288
  205MOL0     C27545   9.459   9.483  -0.138 -0.2834 -0.3816 -0.6785
  205MOL0     C27546   9.434   9.484  -0.277 -0.1928  0.1672  0.2165
  205MOL0     C27547   9.319   9.433  -0.326  0.3575  0.2198 -0.0669
  205MOL0     O27548   9.316   9.424  -0.466 -0.7241  0.4977 -0.1144
  205MOL0     C27549   9.205   9.363  -0.537 -0.5930  0.2747  0.3288
  205MOL0     C27550   9.201   9.402  -0.676 -0.5486 -0.9394  0.7860
  205MOL0     C27551   9.203   9.554  -0.698 -0.7333  0.2966 -0.3908
  205MOL0     C27552   9.244   9.606  -0.840  0.6802 -0.0555 -0.7323
  205MOL0     C27553   9.203   9.760  -0.853  0.1887 -0.2727  0.5739
  205MOL0     C27554   9.275   9.852  -0.772 -1.0711 -0.5567 -0.2207
  205MOL0     C27555   9.425   9.861  -0.789 -0.4736  0.4172  0.4013
  205MOL0     C27556   9.474  10.003  -0.780 -0.5707 -0.3957 -0.1591
  205MOL0     N27557   9.618  10.014  -0.766 -1.0037  0.2557  0.3219
  205MOL0     C27558   9.710  10.057  -0.855 -0.4761  0.2213  0.3780
  205MOL0     C27559   9.826  10.071  -0.790  0.1652  0.1323  0.6470
  205MOL0     C27560   9.953  10.108  -0.843  0.2904  0.0071  0.9480
  205MOL0     C27561  10.001  10.244  -0.793  0.3322 -0.1070 -0.2141
  205MOL0     C27562  10.111  10.314  -0.872 -0.2967  0.6608 -0.6480
  205MOL0     C27563  10.233  10.217  -0.888  0.3789  0.1733 -0.3476
  205MOL0     O27564  10.285  10.185  -0.750 -0.2481  0.6376 -0.2051
  205MOL0     C27565  10.401  10.244  -0.721  0.2412  0.0389  0.0150
  205MOL0     C27566  10.522  10.195  -0.747  0.0458  0.0767 -0.2656
  205MOL0     C27567  10.644  10.254  -0.711  0.1302 -0.5101  0.7288
  205MOL0     C27568  10.646  10.385  -0.655 -0.4047 -0.4029  0.2197
  205MOL0     C27569  10.778  10.455  -0.626  0.0232 -0.7352  0.1051
  205MOL0     O27570  10.770  10.580  -0.570  0.0730 -0.5999 -0.9163
  205MOL0     C27571  10.888  10.647  -0.565 -0.7628  0.6127  0.3433
  205MOL0     C27572  10.925  10.732  -0.667 -0.4183 -0.8634 -0.9158
  205MOL0     C27573  11.056  10.797  -0.660  0.4493 -0.2287  0.4003
  205MOL0     C27574  11.147  10.768  -0.561  0.2571  0.1986  0.3330
  205MOL0     O27575  11.269  10.827  -0.569 -0.0561 -0.1942 -0.1606
  205MOL0     C27576  11.380  10.783  -0.494  0.6826  0.6703  0.1783
  205MOL0     C27577  11.447  10.652  -0.560  0.8513 -0.0326  0.0208
  205MOL0     C27578  11.581  10.623  -0.487  0.3336  0.0720 -0.4928
  205MOL0     C27579  11.669  10.540  -0.567  0.6014  0.2282 -0.2525
  205MOL0     C27580  11.807  10.507  -0.500 -0.2601  0.5201 -0.3266
  205MOL0     C27581  11.782  10.375  -0.421 -0.2631 -0.0905 -0.0188
  205MOL0     C27582  11.897  10.342  -0.323  0.1168 -0.2075 -0.4541
  205MOL0     C27583  11.870  10.243  -0.214  1.8025  0.2673 -0.1563
  205MOL0    Cl27584  12.012  10.229  -0.112  0.3857  0.1054  0.5693
  205MOL0     C27585  11.107  10.671  -0.461 -0.1858 -1.0545  0.2986
  205MOL0     C27586  10.987  10.612  -0.468  0.3482 -0.5659  0.2403
  205MOL0     O27587  10.875  10.393  -0.659 -0.4625 -0.0014  0.8756
  205MOL0     C27588  10.516  10.434  -0.618  0.5246 -0.0899 -0.1061
  205MOL0     C27589  10.399  10.366  -0.645  0.3461  0.5267 -0.5602
  205MOL0     N27590   9.800  10.035  -0.658  0.4851  0.8325 -0.3740
  205MOL0     N27591   9.676   9.993  -0.646 -0.7300  0.6644 -0.4677
  205MOL0     C27592   9.226   9.380  -0.235  0.1745  0.8848  0.8881
  205MOL0     C27593   9.247   9.392  -0.090  0.4663 -0.5501 -0.4808
  205MOL0     C27594   9.455   9.618   0.262 -0.1232 -0.2557 -0.1619
  205MOL0     C27595   9.419   9.740   0.327 -0.5077  0.3422  0.2443
  205MOL0     C27596   9.483   9.780   0.444 -0.5626  0.1229  0.2366
  205MOL0     C27597   9.578   9.706   0.519 -0.3418 -0.8212 -0.5090
  205MOL0     O27598   9.617   9.740   0.645 -1.0733  0.7230 -0.3639
  205MOL0     C27599   9.615   9.867   0.696 -0.1683  0.0709 -0.6677
  205MOL0     C27600   9.702   9.860   0.823  0.3411 -0.8144 -0.0476
  205MOL0     C27601   9.740  10.004   0.872 -0.4531  0.9469  0.1669
  205MOL0     C27602   9.866  10.015   0.955 -0.7199  0.0300 -0.6897
  205MOL0     C27603   9.874   9.912   1.055 -0.1578 -0.3238 -0.5523
  205MOL0     C27604   9.899   9.841   1.154 -0.2409  0.2117 -0.1764
  205MOL0     C27605   9.600   9.575   0.472 -0.0133  0.3206  0.0636
  205MOL0     C27606   9.555   9.535   0.336 -0.8009 -0.0045 -0.1718
  205MOL0     C27607   9.620   9.408   0.278  0.1797  0.2867 -0.0105
  205MOL0     H27608   9.548   9.528  -0.095  1.2515 -4.2059  0.5878
  205MOL0     H27609   9.507   9.532  -0.342 -0.6183 -1.3989 -1.5019
  205MOL0     H27610   9.205   9.254  -0.538 -1.3123  0.2765 -0.2936
  205MOL0     H27611   9.107   9.392  -0.498  0.1158  4.5605 -0.6024
  205MOL0     H27612   9.122   9.353  -0.732  1.5333 -1.5502 -1.8280
  205MOL0     H27613   9.295   9.363  -0.716 -2.2905 -4.9731  0.2412
  205MOL0     H27614   9.270   9.595  -0.622  0.0401 -0.2876 -0.7418
  205MOL0     H27615   9.094   9.563  -0.692 -1.4050 -3.9096 -2.6063
  205MOL0     H27616   9.352   9.597  -0.854  0.5494 -0.3320 -1.6448
  205MOL0     H27617   9.199   9.536  -0.911  0.8064 -3.0538  1.9269
  205MOL0     H27618   9.206   9.790  -0.958 -1.3875 -2.9016 -0.3288
  205MOL0     H27619   9.098   9.763  -0.822  0.9757 -1.5567  3.6586
  205MOL0     H27620   9.223   9.947  -0.787 -0.7599 -0.5101 -1.0357
  205MOL0     H27621   9.269   9.825  -0.666  3.8732  1.1118  0.7349
  205MOL0     H27622   9.463   9.820  -0.883  2.1080 -1.4117  2.0960
  205MOL0     H27623   9.473   9.800  -0.712 -0.4427 -2.3632 -1.6588
  205MOL0     H27624   9.445  10.058  -0.870 -2.9271 -1.5534 -0.1901
  205MOL0     H27625   9.438  10.046  -0.686  0.1113 -3.2077  1.4931
  205MOL0     H27626   9.694  10.073  -0.961  1.2018 -2.5442 -0.3845
  205MOL0     H27627  10.022  10.027  -0.814  0.2969 -0.5423 -0.5156
  205MOL0     H27628   9.944  10.107  -0.952 -1.7632 -1.5245  1.0842
  205MOL0     H27629   9.918  10.316  -0.797  1.4415  1.5739  3.1125
  205MOL0     H27630  10.033  10.240  -0.689 -0.5991 -0.1388  0.0834
  205MOL0     H27631  10.149  10.401  -0.817  3.7341 -1.0620 -0.3670
  205MOL0     H27632  10.064  10.336  -0.969 -0.1406 -4.0842 -2.0630
  205MOL0     H27633  10.315  10.268  -0.940  2.7453 -2.4524  0.5438
  205MOL0     H27634  10.202  10.127  -0.942  2.7920  0.7118 -2.8725
  205MOL0     H27635  10.534  10.107  -0.809  0.6856 -0.7587  0.9931
  205MOL0     H27636  10.735  10.200  -0.731  0.4287  0.1104  0.3698
  205MOL0     H27637  10.845  10.760  -0.734 -1.2474 -0.8021  0.0740
  205MOL0     H27638  11.090  10.868  -0.735  2.5486 -1.1342  0.4348
  205MOL0     H27639  11.452  10.865  -0.505 -0.9803  1.8573 -4.0022
  205MOL0     H27640  11.346  10.772  -0.391  1.3811 -0.8240  0.2736
  205MOL0     H27641  11.378  10.568  -0.564  0.5585  0.2258 -0.4237
  205MOL0     H27642  11.474  10.678  -0.663 -4.3660 -2.4934 -2.2934
  205MOL0     H27643  11.640  10.715  -0.481  1.2938 -0.6539  2.1689
  205MOL0     H27644  11.562  10.586  -0.386  1.9744 -2.1281 -0.9319
  205MOL0     H27645  11.690  10.584  -0.665 -0.2948 -1.1426 -1.0961
  205MOL0     H27646  11.624  10.444  -0.593  0.2986  0.8582 -2.2511
  205MOL0     H27647  11.839  10.588  -0.433 -0.8032  3.5427 -3.4481
  205MOL0     H27648  11.875  10.492  -0.584 -0.6641  2.3575 -1.0332
  205MOL0     H27649  11.685  10.381  -0.371 -0.4088  1.8793 -0.4391
  205MOL0     H27650  11.773  10.297  -0.498 -1.5958  0.5112 -0.4966
  205MOL0     H27651  11.925  10.439  -0.281  1.7503 -1.6102  1.9259
  205MOL0     H27652  11.988  10.307  -0.372 -0.3878 -2.9519  0.3817
  205MOL0     H27653  11.782  10.286  -0.164  0.6988  0.5937 -2.2543
  205MOL0     H27654  11.842  10.145  -0.254  0.7845  0.8065 -0.7979
  205MOL0     H27655  11.173  10.642  -0.380  0.2875 -2.7414 -0.6559
  205MOL0     H27656  10.946  10.553  -0.386  0.6174 -0.7138  0.2690
  205MOL0     H27657  10.509  10.529  -0.565  1.0186 -0.8214  1.3334
  205MOL0     H27658  10.304  10.410  -0.619  1.1805  1.9381  0.2538
  205MOL0     H27659   9.129   9.349  -0.274  0.3932  1.3358 -0.0429
  205MOL0     H27660   9.176   9.353  -0.019  2.2430 -2.3074  0.4200
  205MOL0     H27661   9.346   9.804   0.278 -1.7130 -1.2650 -0.1336
  205MOL0     H27662   9.444   9.877   0.475 -2.8273 -0.7939  0.5036
  205MOL0     H27663   9.517   9.905   0.726 -0.8768 -1.6235 -0.7691
  205MOL0     H27664   9.671   9.933   0.628  0.6337 -0.0832 -0.1678
  205MOL0     H27665   9.792   9.802   0.802  1.0153  0.9004 -2.3282
  205MOL0     H27666   9.643   9.814   0.903  0.7691  1.5755  1.7442
  205MOL0     H27667   9.661  10.022   0.946 -0.8862 -2.1963  0.6103
  205MOL0     H27668   9.736  10.078   0.791 -1.4021  0.2407 -0.4628
  205MOL0     H27669   9.953   9.998   0.891 -0.3546  0.1743 -0.2379
  205MOL0     H27670   9.869  10.113   1.003 -1.3519 -0.6518  0.8064
  205MOL0     H27671   9.931   9.787   1.241 -2.1752 -2.3398 -0.9248
  205MOL0     H27672   9.663   9.508   0.530  0.2667 -0.9153 -1.5856
  205MOL0     H27673   9.642   9.417   0.172 -1.0836  2.7794 -0.1572
  205MOL0     H27674   9.716   9.387   0.326  0.0167 -3.5839 -1.0866
  205MOL0     H27675   9.560   9.318   0.294 -0.1319  0.6792  1.2173
  206MOL0     O27676  10.073   3.044   0.957  0.5498 -0.1144  0.2500
  206MOL0     C27677  10.073   3.031   1.078 -0.2038 -0.8644 -0.2118
  206MOL0     O27678   9.959   3.023   1.159  0.7138  0.1752 -0.2005
  206MOL0     C27679   9.839   2.997   1.090  0.0025 -0.0620  0.9334
  206MOL0     C27680   9.720   3.061   1.141 -0.9658  0.4333  0.0643
  206MOL0     C27681   9.598   3.040   1.073 -0.0599 -0.6900 -0.3985
  206MOL0     C27682   9.593   2.938   0.975  0.0435 -0.6044  0.0848
  206MOL0     O27683   9.469   2.903   0.925  0.2693 -0.0887  0.2042
  206MOL0     C27684   9.424   2.784   0.988 -0.3633  0.2674 -0.4773
  206MOL0     C27685   9.345   2.698   0.893  1.0106  0.3493 -0.9713
  206MOL0     C27686   9.316   2.554   0.950 -0.3838 -1.0833 -0.2048
  206MOL0     C27687   9.195   2.501   0.884 -0.6186  0.6561 -0.1365
  206MOL0     C27688   9.113   2.432   1.000 -0.0876 -1.6359 -0.8250
  206MOL0     C27689   8.981   2.360   0.953 -0.2496 -0.2063 -0.0373
  206MOL0     C27690   8.891   2.308   1.067  0.7066 -0.4124 -0.2769
  206MOL0     C27691   8.743   2.319   1.019  0.8541 -0.9481  0.3000
  206MOL0     N27692   8.665   2.229   1.094  0.5779  0.8234  0.7052
  206MOL0     C27693   8.577   2.264   1.195 -0.1880  0.4572 -0.9809
  206MOL0     C27694   8.508   2.147   1.220 -0.0978  0.3556  0.1897
  206MOL0     C27695   8.377   2.126   1.288 -0.9848 -0.1217  0.3396
  206MOL0     C27696   8.353   1.980   1.339  0.2426 -0.0801  0.4594
  206MOL0     C27697   8.228   1.985   1.420 -0.5109 -0.1419  0.4036
  206MOL0     C27698   8.172   1.857   1.480  0.4348  0.3384  0.0132
  206MOL0     O27699   8.070   1.900   1.578  0.0533  0.7075 -0.1251
  206MOL0     C27700   7.967   1.807   1.602  0.0849  0.5800  0.5172
  206MOL0     C27701   7.863   1.855   1.673 -0.4319  0.7710 -0.7529
  206MOL0     C27702   7.753   1.768   1.726  0.0456  0.0300  0.6670
  206MOL0     C27703   7.752   1.635   1.671  0.1672  0.1347 -0.0597
  206MOL0     C27704   7.649   1.536   1.711 -0.8985  0.4055 -0.2309
  206MOL0     O27705   7.635   1.424   1.629  0.1499 -0.0174 -0.3531
  206MOL0     C27706   7.529   1.353   1.658  0.1520 -0.7254  0.5187
  206MOL0     C27707   7.413   1.372   1.583 -1.3834  0.0395 -0.5818
  206MOL0     C27708   7.299   1.305   1.618 -0.2662  0.4091 -0.8400
  206MOL0     C27709   7.296   1.222   1.734  0.6631 -1.0511 -0.2495
  206MOL0     O27710   7.189   1.158   1.789 -0.0937 -0.2442  0.6462
  206MOL0     C27711   7.066   1.152   1.713 -0.1282 -0.2010  0.2338
  206MOL0     C27712   6.949   1.109   1.793 -0.0810  0.5844 -0.8062
  206MOL0     C27713   6.938   1.190   1.917  0.4697 -0.4207 -0.2720
  206MOL0     C27714   6.809   1.146   1.986  1.1220  0.1026  0.6428
  206MOL0     C27715   6.779   1.233   2.101  0.6106 -0.4503 -0.8437
  206MOL0     C27716   6.642   1.196   2.166 -1.0663  0.1380 -0.4194
  206MOL0     C27717   6.522   1.207   2.064 -0.2603  0.0009 -0.1734
  206MOL0     C27718   6.392   1.228   2.131  0.9423  0.0620  0.7007
  206MOL0    Cl27719   6.258   1.298   2.035 -0.1177 -0.1625 -0.1635
  206MOL0     C27720   7.417   1.202   1.805 -0.2318  0.9598 -0.3294
  206MOL0     C27721   7.532   1.259   1.763  0.0966 -0.7560  0.2749
  206MOL0     O27722   7.576   1.565   1.805 -1.0375 -0.1287  0.3789
  206MOL0     C27723   7.864   1.582   1.598 -0.2376 -0.7541  0.4334
  206MOL0     C27724   7.971   1.670   1.563 -1.6233 -0.0629  0.0354
  206MOL0     N27725   8.554   2.043   1.138  0.0639  0.5279  0.7028
  206MOL0     N27726   8.652   2.091   1.060  1.0653  0.1239 -1.3459
  206MOL0     C27727   9.706   2.864   0.939 -1.3570  0.0266  0.2195
  206MOL0     C27728   9.831   2.896   0.995 -0.9437 -1.2423  0.2722
  206MOL0     C27729  10.193   3.026   1.155 -0.6493  0.1583 -0.9711
  206MOL0     C27730  10.183   3.081   1.290  0.3838 -0.1459 -0.2342
  206MOL0     C27731  10.293   3.085   1.379 -0.1834  0.1783  0.7387
  206MOL0     C27732  10.406   3.018   1.339  0.1059  0.3786 -0.3102
  206MOL0     O27733  10.518   3.027   1.422 -0.4261 -0.2115  0.2353
  206MOL0     C27734  10.609   2.923   1.423 -0.3128  0.6900 -1.4558
  206MOL0     C27735  10.709   2.945   1.528 -0.3353 -0.1550 -0.5046
  206MOL0     C27736  10.661   2.955   1.678  0.1469 -0.6642 -0.1281
  206MOL0     C27737  10.656   2.813   1.746  0.0008 -0.0506 -0.0076
  206MOL0     C27738  10.534   2.746   1.702  0.4910  0.3467 -0.5595
  206MOL0     C27739  10.444   2.669   1.689  0.1164 -0.2212  0.1771
  206MOL0     C27740  10.413   2.961   1.208 -0.4242 -0.4076 -1.3847
  206MOL0     C27741  10.318   2.964   1.110  0.4070 -0.8441  0.3601
  206MOL0     C27742  10.345   2.905   0.974 -0.6100 -0.1696 -0.8794
  206MOL0     H27743   9.745   3.132   1.220  1.2170 -0.2739  0.0543
  206MOL0     H27744   9.517   3.099   1.114  1.0967 -0.1767  1.2225
  206MOL0     H27745   9.504   2.728   1.037 -0.7085 -1.9807 -2.3329
  206MOL0     H27746   9.356   2.822   1.065 -0.9870 -0.5863 -0.5942
  206MOL0     H27747   9.393   2.693   0.795  2.8922 -5.3570 -0.1175
  206MOL0     H27748   9.252   2.753   0.872 -0.6389 -1.3398  1.3690
  206MOL0     H27749   9.311   2.563   1.059  1.8397  0.9970 -0.1896
  206MOL0     H27750   9.404   2.490   0.938 -1.0327 -1.6588 -2.3155
  206MOL0     H27751   9.137   2.574   0.826 -1.2974 -1.6307 -2.5384
  206MOL0     H27752   9.223   2.433   0.803  2.9054  0.0577  1.4015
  206MOL0     H27753   9.182   2.373   1.060  1.0329  0.7445  0.3887
  206MOL0     H27754   9.089   2.522   1.058  0.9787 -1.3639 -0.7943
  206MOL0     H27755   8.923   2.423   0.886  0.7304 -1.3051 -1.9948
  206MOL0     H27756   9.008   2.276   0.888  0.4110  1.9071 -2.6750
  206MOL0     H27757   8.903   2.372   1.155  0.6907  1.9202 -1.9001
  206MOL0     H27758   8.923   2.204   1.083  1.7732 -0.2614 -1.3014
  206MOL0     H27759   8.697   2.418   1.022 -0.0366 -1.3488  0.3946
  206MOL0     H27760   8.746   2.291   0.913  0.3367 -0.7052  0.2153
  206MOL0     H27761   8.546   2.360   1.234 -0.4083  0.2782 -0.7063
  206MOL0     H27762   8.374   2.190   1.376  2.6480 -0.0083  0.5426
  206MOL0     H27763   8.302   2.172   1.223  0.3389 -0.3968 -1.4614
  206MOL0     H27764   8.344   1.915   1.251 -1.3942  2.4201 -1.3967
  206MOL0     H27765   8.428   1.948   1.411 -1.6310 -3.7292  1.0298
  206MOL0     H27766   8.153   2.024   1.351  1.4667  1.4900 -0.9248
  206MOL0     H27767   8.236   2.061   1.498 -1.2718 -1.9002  2.2846
  206MOL0     H27768   8.256   1.806   1.529  1.6705  2.5189  0.2895
  206MOL0     H27769   8.140   1.800   1.392  2.5556  1.9460 -1.9462
  206MOL0     H27770   7.863   1.956   1.714  1.4720  0.0115  1.2993
  206MOL0     H27771   7.665   1.800   1.781 -0.1424  2.0173 -0.6863
  206MOL0     H27772   7.418   1.438   1.497 -1.2078  0.7043 -0.0658
  206MOL0     H27773   7.228   1.329   1.539  2.8978  2.5384 -3.3124
  206MOL0     H27774   7.058   1.255   1.676  3.9631  0.1779 -0.0277
  206MOL0     H27775   7.079   1.079   1.632 -2.1641 -1.5477  1.0169
  206MOL0     H27776   6.857   1.102   1.734 -1.5742  1.2188  1.3226
  206MOL0     H27777   6.960   1.005   1.824 -2.8591 -0.4589 -2.8782
  206MOL0     H27778   7.021   1.187   1.989 -0.4399  0.2887  0.8389
  206MOL0     H27779   6.921   1.291   1.877 -2.6203 -1.4683 -1.9316
  206MOL0     H27780   6.820   1.047   2.032 -1.4597 -0.3017  0.5578
  206MOL0     H27781   6.722   1.141   1.920  0.1932  1.1375  1.7225
  206MOL0     H27782   6.776   1.338   2.068 -4.0521 -0.1886 -0.1571
  206MOL0     H27783   6.856   1.227   2.179 -1.0518  0.4872  0.9658
  206MOL0     H27784   6.663   1.099   2.211  0.4978  1.1897  1.2729
  206MOL0     H27785   6.623   1.267   2.248  1.1979  1.2969 -0.8305
  206MOL0     H27786   6.507   1.114   2.009  0.5108 -1.3103  1.7268
  206MOL0     H27787   6.532   1.284   1.988 -2.0736  0.4389 -0.0055
  206MOL0     H27788   6.351   1.146   2.191 -0.1073  0.9036  1.1557
  206MOL0     H27789   6.399   1.312   2.200  2.1771  0.3758  0.2271
  206MOL0     H27790   7.429   1.153   1.902  0.4599  2.2562  0.2551
  206MOL0     H27791   7.622   1.252   1.823  1.4339  0.3111 -1.5002
  206MOL0     H27792   7.872   1.482   1.558 -1.8144 -0.5347 -0.4971
  206MOL0     H27793   8.062   1.636   1.515 -0.2425  0.3542  2.2241
  206MOL0     H27794   9.692   2.783   0.869 -0.4145  1.2116 -1.4125
  206MOL0     H27795   9.917   2.834   0.970  0.0248 -0.1220  0.7123
  206MOL0     H27796  10.089   3.120   1.328  2.0474 -0.7204  5.2505
  206MOL0     H27797  10.283   3.128   1.478  1.4375  0.7620  0.6767
  206MOL0     H27798  10.648   2.907   1.323 -0.4693  0.7078 -1.5206
  206MOL0     H27799  10.552   2.838   1.462  0.8063  1.0307  1.1448
  206MOL0     H27800  10.751   3.045   1.511 -2.3950  1.5722  3.2688
  206MOL0     H27801  10.785   2.867   1.527  1.0128  1.0744  0.4398
  206MOL0     H27802  10.565   3.005   1.688  0.1672 -0.6766  0.1479
  206MOL0     H27803  10.736   3.016   1.728 -1.6826  2.4512 -0.9569
  206MOL0     H27804  10.748   2.757   1.725  1.6058  1.4392  2.5094
  206MOL0     H27805  10.645   2.824   1.854  1.3550 -2.4934  0.4635
  206MOL0     H27806  10.368   2.607   1.646  2.1237 -2.3704 -0.4891
  206MOL0     H27807  10.507   2.913   1.183  1.3681  1.5368  1.0912
  206MOL0     H27808  10.397   2.972   0.905  0.1336 -0.9015 -1.0517
  206MOL0     H27809  10.419   2.825   0.988 -2.6400 -1.6980  2.4989
  206MOL0     H27810  10.251   2.864   0.934  0.1224 -3.4200  0.3590
  207MOL0     O27811   5.023   8.413   0.785  0.7426 -0.5210  0.4878
  207MOL0     C27812   5.029   8.526   0.842 -0.7048 -0.9886 -0.4448
  207MOL0     O27813   5.054   8.646   0.785  0.9892 -0.0247  0.0298
  207MOL0     C27814   5.063   8.643   0.648  0.0598  0.0328  0.0843
  207MOL0     C27815   4.966   8.691   0.571  1.3308  0.4408 -0.0562
  207MOL0     C27816   4.972   8.706   0.433 -0.5179 -0.1760  0.2012
  207MOL0     C27817   5.084   8.659   0.367 -1.2265 -0.7703  1.4785
  207MOL0     O27818   5.116   8.657   0.230  0.3241 -0.2746  0.4281
  207MOL0     C27819   5.006   8.633   0.133 -0.1345  0.2741 -0.5330
  207MOL0     C27820   5.083   8.657   0.003  0.7404  0.0538 -0.2044
  207MOL0     C27821   5.127   8.796  -0.013 -0.3153  0.2736 -0.0741
  207MOL0     C27822   5.210   8.819  -0.133  0.1927  0.1115  0.3620
  207MOL0     C27823   5.250   8.968  -0.146  1.4104 -1.0107  0.2799
  207MOL0     C27824   5.354   8.985  -0.253 -0.1423 -0.0987  0.6816
  207MOL0     C27825   5.363   9.143  -0.289 -0.3881 -0.2970 -0.1448
  207MOL0     C27826   5.476   9.171  -0.385  0.2804  0.0459 -0.1674
  207MOL0     N27827   5.448   9.115  -0.519  0.0086  0.0377 -1.1808
  207MOL0     C27828   5.495   8.995  -0.573  0.3878 -0.3509  0.2666
  207MOL0     C27829   5.469   8.994  -0.704 -0.2222 -1.0820 -0.3886
  207MOL0     C27830   5.506   8.891  -0.801  1.1556 -0.0922  0.3279
  207MOL0     C27831   5.650   8.893  -0.848 -0.3305 -0.0571 -0.2841
  207MOL0     C27832   5.660   8.772  -0.939  0.0270  0.0905  0.3893
  207MOL0     C27833   5.800   8.740  -0.989 -0.2603 -0.5218 -0.3750
  207MOL0     O27834   5.829   8.842  -1.089  0.0544 -0.8926 -0.7065
  207MOL0     C27835   5.935   8.824  -1.169  0.0416  0.4723  1.1984
  207MOL0     C27836   6.025   8.714  -1.163  0.0161  0.0047 -0.1588
  207MOL0     C27837   6.114   8.687  -1.265 -0.7430 -0.2435 -0.3655
  207MOL0     C27838   6.137   8.775  -1.375  1.0114 -1.3311  0.0465
  207MOL0     C27839   6.232   8.742  -1.480  0.0936  0.2630  0.8565
  207MOL0     O27840   6.254   8.832  -1.587 -0.9353 -0.2904 -0.0122
  207MOL0     C27841   6.339   8.802  -1.693 -0.3287  0.0017  0.2110
  207MOL0     C27842   6.474   8.847  -1.699 -0.2133 -0.2603 -0.1007
  207MOL0     C27843   6.554   8.807  -1.803  0.2432  0.2027  0.3231
  207MOL0     C27844   6.510   8.719  -1.901  0.4430  0.0765 -0.1904
  207MOL0     O27845   6.599   8.679  -1.989  0.1879  0.8322  0.3113
  207MOL0     C27846   6.586   8.540  -2.038 -0.2643 -0.0323  0.7002
  207MOL0     C27847   6.718   8.483  -2.085 -0.2564 -0.0868 -0.0130
  207MOL0     C27848   6.768   8.559  -2.205  0.1086  0.1803  0.1122
  207MOL0     C27849   6.900   8.510  -2.239 -0.0103  0.2351  0.0641
  207MOL0     C27850   6.955   8.576  -2.376 -0.2153  1.0783  0.7244
  207MOL0     C27851   7.099   8.530  -2.402 -0.0996 -0.1251 -0.5867
  207MOL0     C27852   7.180   8.621  -2.493  0.4843  0.3780 -0.3557
  207MOL0     C27853   7.178   8.588  -2.641 -0.9842 -0.5935 -0.2280
  207MOL0    Cl27854   7.023   8.643  -2.725  0.4862  0.2169  0.0462
  207MOL0     C27855   6.378   8.667  -1.894 -0.3876 -0.8099  0.0738
  207MOL0     C27856   6.295   8.703  -1.784  0.6585  0.1588 -0.5947
  207MOL0     O27857   6.287   8.631  -1.481  0.5765 -1.2762 -0.0227
  207MOL0     C27858   6.052   8.884  -1.383 -0.0148 -1.1158 -0.0104
  207MOL0     C27859   5.945   8.908  -1.282 -0.0572 -0.6628 -0.8732
  207MOL0     N27860   5.390   9.108  -0.734 -0.6508 -0.8889 -1.1261
  207MOL0     N27861   5.385   9.181  -0.618  1.0398  0.9342  0.1902
  207MOL0     C27862   5.192   8.612   0.442 -0.4745 -0.8956 -0.3114
  207MOL0     C27863   5.178   8.599   0.579  0.1390 -0.1013  0.3466
  207MOL0     C27864   5.016   8.534   0.987 -0.1897  0.4116  0.0348
  207MOL0     C27865   4.956   8.639   1.048 -0.2447 -0.2928 -0.4163
  207MOL0     C27866   4.940   8.656   1.188  0.1671 -0.3707 -0.0017
  207MOL0     C27867   4.972   8.558   1.273 -0.1194  0.6513 -0.0342
  207MOL0     O27868   4.971   8.580   1.409 -0.1688 -0.7868 -0.1372
  207MOL0     C27869   5.031   8.491   1.505  0.1684 -0.0400  0.2504
  207MOL0     C27870   4.908   8.427   1.576 -0.0507  0.4649  0.1321
  207MOL0     C27871   4.860   8.505   1.695 -0.3786 -0.1158  0.2365
  207MOL0     C27872   4.861   8.658   1.694  0.1739 -0.2524 -0.1035
  207MOL0     C27873   4.808   8.713   1.825 -0.5293  0.3864 -0.3786
  207MOL0     C27874   4.734   8.759   1.910  0.2745  0.9113 -0.2325
  207MOL0     C27875   5.026   8.437   1.215  0.4861  0.4415 -0.1350
  207MOL0     C27876   5.044   8.423   1.078 -0.7845 -0.1851  0.3009
  207MOL0     C27877   5.117   8.301   1.034 -0.7494  0.0085  0.0241
  207MOL0     H27878   4.871   8.722   0.611  0.6673  0.9523 -1.9050
  207MOL0     H27879   4.885   8.757   0.391 -2.8637 -5.6924 -2.6675
  207MOL0     H27880   4.966   8.533   0.148 -0.0742  0.6909  3.2987
  207MOL0     H27881   4.925   8.705   0.149  0.8451  1.1496  0.7126
  207MOL0     H27882   5.022   8.616  -0.078 -1.3260  0.9316  0.8293
  207MOL0     H27883   5.179   8.605   0.007  0.9843  0.1936  6.3396
  207MOL0     H27884   5.193   8.820   0.071 -0.2650  0.6810 -0.2250
  207MOL0     H27885   5.043   8.865  -0.002 -0.9889 -0.6695  0.9162
  207MOL0     H27886   5.302   8.759  -0.128 -0.7470 -1.6692 -1.9954
  207MOL0     H27887   5.149   8.779  -0.214  3.5598 -0.2730 -2.2537
  207MOL0     H27888   5.163   9.028  -0.174  2.8376  0.8794 -0.3274
  207MOL0     H27889   5.296   9.010  -0.056  1.3055 -1.9931  0.7973
  207MOL0     H27890   5.452   8.951  -0.219  0.0181 -1.5603 -1.1147
  207MOL0     H27891   5.333   8.919  -0.338 -0.9797  0.4881  0.4124
  207MOL0     H27892   5.386   9.202  -0.199  3.3181  0.8358 -1.6339
  207MOL0     H27893   5.263   9.168  -0.327 -0.3035 -2.5194 -1.9897
  207MOL0     H27894   5.491   9.276  -0.410  2.2062 -0.3773 -1.0074
  207MOL0     H27895   5.569   9.129  -0.344  0.4922  0.5640 -0.1170
  207MOL0     H27896   5.557   8.933  -0.509  1.0237 -0.2445 -0.2336
  207MOL0     H27897   5.473   8.798  -0.754 -1.1872  0.2967 -0.4489
  207MOL0     H27898   5.440   8.893  -0.887 -2.8041 -4.6514  2.7947
  207MOL0     H27899   5.683   8.979  -0.908  0.9219 -1.9426 -2.5103
  207MOL0     H27900   5.717   8.887  -0.762  0.4338  2.0890 -0.6652
  207MOL0     H27901   5.596   8.777  -1.028  1.2496 -1.3440 -0.6311
  207MOL0     H27902   5.636   8.683  -0.880  0.1038  0.4276  0.9295
  207MOL0     H27903   5.803   8.637  -1.024  0.9087 -0.5768 -0.1466
  207MOL0     H27904   5.870   8.756  -0.907 -2.1988 -0.3371  1.3357
  207MOL0     H27905   6.023   8.651  -1.074  3.7639  0.9421  0.7644
  207MOL0     H27906   6.183   8.604  -1.254  1.4188  1.6074  1.1981
  207MOL0     H27907   6.511   8.916  -1.624  0.2975 -0.9283  0.2746
  207MOL0     H27908   6.654   8.850  -1.806  1.1004 -1.3613  2.8573
  207MOL0     H27909   6.552   8.471  -1.960 -0.8351  1.1245  1.5152
  207MOL0     H27910   6.520   8.539  -2.126  0.3452 -1.8715  0.2178
  207MOL0     H27911   6.791   8.488  -2.004 -4.3216  0.8487  4.0635
  207MOL0     H27912   6.716   8.375  -2.099  0.6448 -0.1703  0.4530
  207MOL0     H27913   6.711   8.532  -2.294  2.3844 -1.1513 -1.0486
  207MOL0     H27914   6.758   8.668  -2.200 -0.9977  0.0371  1.6618
  207MOL0     H27915   6.899   8.401  -2.249  0.1502  0.2314  0.0888
  207MOL0     H27916   6.980   8.530  -2.167  1.9995 -2.4053 -1.2517
  207MOL0     H27917   6.961   8.685  -2.368  1.2726  1.1685 -1.0538
  207MOL0     H27918   6.904   8.549  -2.469 -0.8594  0.5998  1.2017
  207MOL0     H27919   7.155   8.518  -2.309  0.2187 -2.8701 -1.0240
  207MOL0     H27920   7.105   8.433  -2.453  3.7998  1.2362 -3.1188
  207MOL0     H27921   7.282   8.596  -2.464 -0.0373 -3.3590 -1.3204
  207MOL0     H27922   7.162   8.726  -2.468 -0.1707  0.7565 -2.2594
  207MOL0     H27923   7.270   8.622  -2.690 -0.5891 -2.0390 -0.5310
  207MOL0     H27924   7.177   8.479  -2.648  1.2417 -0.7239  0.6417
  207MOL0     H27925   6.346   8.586  -1.959  1.7642  1.0632 -3.6606
  207MOL0     H27926   6.195   8.663  -1.768  1.0687 -0.4769  0.4266
  207MOL0     H27927   6.049   8.954  -1.465  0.4946 -1.9393 -0.7469
  207MOL0     H27928   5.876   8.992  -1.291 -2.1476 -2.3709 -1.5063
  207MOL0     H27929   5.288   8.585   0.399  0.3833 -0.9160  1.5108
  207MOL0     H27930   5.256   8.552   0.638  0.2914  0.3942  0.5436
  207MOL0     H27931   4.914   8.726   0.998 -2.9011  1.4187  4.1504
  207MOL0     H27932   4.905   8.747   1.236 -3.5029 -0.4958 -2.0227
  207MOL0     H27933   5.078   8.551   1.584 -0.0404 -0.7018  0.8963
  207MOL0     H27934   5.100   8.421   1.457 -1.7903 -1.0529 -1.2197
  207MOL0     H27935   4.946   8.335   1.621 -1.5890  0.3900  1.3589
  207MOL0     H27936   4.836   8.394   1.501  0.8426  0.7961 -0.9036
  207MOL0     H27937   4.926   8.481   1.779 -2.8139 -2.1409  1.7160
  207MOL0     H27938   4.762   8.466   1.725 -0.8366  0.5305 -0.4143
  207MOL0     H27939   4.961   8.699   1.680  0.6006 -1.0464  0.5568
  207MOL0     H27940   4.802   8.698   1.611 -2.3356  0.7919  2.0473
  207MOL0     H27941   4.665   8.813   1.971 -0.7266  0.9823 -1.3930
  207MOL0     H27942   5.047   8.352   1.279 -2.0770  2.1127  3.2536
  207MOL0     H27943   5.192   8.327   0.958 -1.6710 -1.7832 -1.5809
  207MOL0     H27944   5.166   8.239   1.110 -0.6311  0.4943  0.3523
  207MOL0     H27945   5.048   8.237   0.979  2.0317 -3.3469  0.0678
  208MOL0     O27946   9.893   1.725   8.072 -0.6444  0.0765  0.1238
  208MOL0     C27947  10.000   1.777   8.111  0.6884 -0.5977  0.1498
  208MOL0     O27948  10.069   1.738   8.225 -0.6919  0.0317  0.8822
  208MOL0     C27949  10.001   1.675   8.322  0.2326  0.0686  0.0354
  208MOL0     C27950   9.892   1.730   8.393 -0.4208  0.2331  0.2566
  208MOL0     C27951   9.836   1.660   8.498 -0.3863 -0.0078  0.6193
  208MOL0     C27952   9.892   1.542   8.550 -0.8869 -0.0944 -0.3842
  208MOL0     O27953   9.829   1.477   8.658  0.8456  0.0370 -0.5969
  208MOL0     C27954   9.885   1.354   8.711  0.3425 -0.3315 -0.0221
  208MOL0     C27955   9.800   1.281   8.809 -0.9561 -1.1322  0.3180
  208MOL0     C27956   9.829   1.329   8.949 -0.1800  0.3464  0.5114
  208MOL0     C27957   9.725   1.282   9.053 -0.1632 -0.1815  1.2755
  208MOL0     C27958   9.772   1.323   9.196  1.2901  0.6749 -0.3390
  208MOL0     C27959   9.674   1.240   9.288 -0.1386  0.0537 -0.4717
  208MOL0     C27960   9.696   1.300   9.424 -0.0667 -1.0076 -0.7007
  208MOL0     C27961   9.793   1.230   9.508  0.5350 -0.0070  0.3582
  208MOL0     N27962   9.785   1.259   9.649  0.6224  0.3018  0.6995
  208MOL0     C27963   9.858   1.356   9.707 -0.0967  0.4259 -0.3489
  208MOL0     C27964   9.869   1.322   9.843  0.4030 -1.3614  0.5848
  208MOL0     C27965   9.929   1.400   9.945  0.1202 -0.5215  0.3349
  208MOL0     C27966   9.835   1.412  10.066  0.3736  0.4256 -0.4774
  208MOL0     C27967   9.905   1.496  10.174 -0.5559 -0.0043  0.4354
  208MOL0     C27968   9.804   1.491  10.290 -0.2871 -0.4121 -0.1850
  208MOL0     O27969   9.828   1.582  10.399 -0.3260  0.5482  0.8380
  208MOL0     C27970   9.743   1.628  10.491 -0.1936 -1.1679 -0.2898
  208MOL0     C27971   9.793   1.712  10.592  0.3664 -1.2027  0.2819
  208MOL0     C27972   9.712   1.779  10.686  0.0009 -1.3844  0.4996
  208MOL0     C27973   9.567   1.763  10.668  0.0507 -0.1990 -0.4088
  208MOL0     C27974   9.464   1.843  10.746  0.2044  0.1787  0.2227
  208MOL0     O27975   9.336   1.831  10.696  0.7371 -0.5899  0.0283
  208MOL0     C27976   9.267   1.943  10.706 -0.5404 -0.0749 -1.1439
  208MOL0     C27977   9.142   1.927  10.758 -0.1808 -0.6751  0.4788
  208MOL0     C27978   9.055   2.042  10.762  0.6329  0.0536  0.5634
  208MOL0     C27979   9.102   2.160  10.715 -0.2802 -0.2395 -0.2772
  208MOL0     O27980   9.021   2.273  10.726 -0.1627  0.1375 -0.5234
  208MOL0     C27981   9.024   2.324  10.858 -0.7457  0.0726  0.5355
  208MOL0     C27982   8.910   2.421  10.872 -0.0230  0.0545 -0.2089
  208MOL0     C27983   8.904   2.484  11.018 -0.6074  1.1631  0.6623
  208MOL0     C27984   8.827   2.613  11.020 -0.0274  0.0768  0.2050
  208MOL0     C27985   8.819   2.666  11.162  0.1661  1.3522  0.5913
  208MOL0     C27986   8.745   2.791  11.184  0.3632 -0.2523  0.7979
  208MOL0     C27987   8.721   2.824  11.336 -0.5892 -0.5531 -0.2497
  208MOL0     C27988   8.618   2.930  11.373 -0.0810 -0.8020  0.2394
  208MOL0    Cl27989   8.628   2.955  11.558  0.7889 -0.0557 -0.4839
  208MOL0     C27990   9.229   2.175  10.667 -0.5758  0.4906  1.0759
  208MOL0     C27991   9.307   2.066  10.648 -1.3962 -0.1654  0.0481
  208MOL0     O27992   9.500   1.900  10.851  0.1943  0.1278  0.8107
  208MOL0     C27993   9.515   1.681  10.566  1.1822  0.6833 -0.2783
  208MOL0     C27994   9.611   1.614  10.479 -0.7216  0.7289 -1.2169
  208MOL0     N27995   9.793   1.205   9.860 -0.1986  0.7687 -0.5790
  208MOL0     N27996   9.726   1.187   9.753  0.0489  0.3553 -0.1855
  208MOL0     C27997  10.012   1.511   8.492  1.2150  1.0555 -0.2979
  208MOL0     C27998  10.064   1.568   8.383  0.4992 -0.4837  0.2783
  208MOL0     C27999  10.063   1.887   8.028  0.2353  0.2746  0.1460
  208MOL0     C28000  10.191   1.921   8.057 -1.1252 -0.3227  0.1183
  208MOL0     C28001  10.273   2.022   7.989  0.3099 -0.2197 -0.1621
  208MOL0     C28002  10.206   2.074   7.874 -0.4134  0.1315 -0.1471
  208MOL0     O28003  10.296   2.154   7.802  0.5752 -0.0978  0.9971
  208MOL0     C28004  10.297   2.142   7.653 -1.0317  0.3129 -0.2046
  208MOL0     C28005  10.298   2.005   7.599  0.5896  0.3959  1.0205
  208MOL0     C28006  10.305   1.990   7.442 -0.7301 -0.0951 -0.6616
  208MOL0     C28007  10.422   2.055   7.368  0.2326 -0.8203  0.4090
  208MOL0     C28008  10.556   2.017   7.408 -1.0014  0.9541 -0.1449
  208MOL0     C28009  10.673   1.996   7.424  0.9813 -0.9016 -0.5195
  208MOL0     C28010  10.077   2.043   7.833  0.4247 -0.3830  0.6930
  208MOL0     C28011  10.001   1.953   7.916  0.8242 -0.4322  0.2090
  208MOL0     C28012   9.865   1.925   7.863 -0.3852 -0.5436  0.1544
  208MOL0     H28013   9.840   1.823   8.375  0.5466  0.3778 -2.1882
  208MOL0     H28014   9.745   1.700   8.541  0.7522  3.5021  0.1056
  208MOL0     H28015   9.905   1.286   8.628  0.6438 -1.1294  0.6914
  208MOL0     H28016   9.981   1.380   8.756 -0.0563  1.9627 -0.3624
  208MOL0     H28017   9.819   1.174   8.795 -0.8950 -1.3950  2.2137
  208MOL0     H28018   9.692   1.286   8.790 -0.7768 -0.4352 -0.6259
  208MOL0     H28019   9.831   1.438   8.947 -1.8049  0.3999 -1.4241
  208MOL0     H28020   9.934   1.305   8.968 -0.4477 -1.2542  0.1425
  208MOL0     H28021   9.627   1.327   9.033 -0.7938 -1.7066  0.8004
  208MOL0     H28022   9.708   1.174   9.054  1.5715 -0.5155 -0.1163
  208MOL0     H28023   9.877   1.313   9.223  1.1586  3.3789  1.5689
  208MOL0     H28024   9.761   1.429   9.217  4.1762  0.7014  1.4631
  208MOL0     H28025   9.572   1.250   9.251 -0.7633  0.6360  1.2807
  208MOL0     H28026   9.711   1.137   9.287 -1.7341 -0.5567 -1.8680
  208MOL0     H28027   9.604   1.295   9.483  1.3242  1.3402  1.9330
  208MOL0     H28028   9.729   1.405   9.418  0.5609 -0.8699  2.9091
  208MOL0     H28029   9.762   1.126   9.497  1.4488 -0.0797 -2.3382
  208MOL0     H28030   9.895   1.247   9.471  0.7178  0.8075  1.2029
  208MOL0     H28031   9.902   1.447   9.666 -0.1284  0.3065 -0.6554
  208MOL0     H28032  10.017   1.342   9.975 -0.5614 -1.5296  0.4195
  208MOL0     H28033   9.965   1.497   9.908 -0.0326  0.1847  1.9310
  208MOL0     H28034   9.739   1.458  10.040  0.9965  3.4532  2.0118
  208MOL0     H28035   9.808   1.315  10.108 -2.4414  2.1154  2.0433
  208MOL0     H28036   9.929   1.594  10.130  2.7704 -0.5836  0.6898
  208MOL0     H28037   9.998   1.451  10.210 -0.7105 -0.6103  0.0943
  208MOL0     H28038   9.800   1.388  10.328 -0.7648 -0.3778 -0.1321
  208MOL0     H28039   9.710   1.528  10.248  0.6171  1.5843 -0.5726
  208MOL0     H28040   9.901   1.722  10.584  0.1642  0.3812 -0.9312
  208MOL0     H28041   9.745   1.845  10.765 -0.1468  0.2557 -0.7540
  208MOL0     H28042   9.099   1.829  10.780  0.8245 -0.5553  3.4930
  208MOL0     H28043   8.949   2.032  10.785  0.5045  3.1775  1.7424
  208MOL0     H28044   9.016   2.246  10.934 -0.6582 -0.7891 -0.3256
  208MOL0     H28045   9.125   2.364  10.870 -0.4375 -0.6051  0.2477
  208MOL0     H28046   8.915   2.498  10.796  0.4493 -0.2220 -0.4643
  208MOL0     H28047   8.817   2.366  10.857 -1.3332  1.0281  3.3190
  208MOL0     H28048   8.860   2.407  11.083 -2.3615  2.4033  1.0197
  208MOL0     H28049   9.011   2.498  11.037 -0.5236  4.7555 -1.6473
  208MOL0     H28050   8.727   2.597  10.979  0.0926  2.5805 -1.2865
  208MOL0     H28051   8.880   2.684  10.955 -3.4560  1.2800 -1.5447
  208MOL0     H28052   8.918   2.687  11.203 -0.3243 -1.5205  3.6932
  208MOL0     H28053   8.778   2.592  11.231 -1.3660  3.0081  1.5438
  208MOL0     H28054   8.791   2.873  11.126 -1.5047  0.1063 -0.2694
  208MOL0     H28055   8.649   2.771  11.136  0.2192  1.1440  0.4611
  208MOL0     H28056   8.820   2.843  11.378 -0.6475 -2.7584  0.9823
  208MOL0     H28057   8.686   2.735  11.388  1.9156 -2.5590 -1.7652
  208MOL0     H28058   8.651   3.020  11.320 -2.6839 -0.6475 -1.2740
  208MOL0     H28059   8.523   2.899  11.329 -0.3462  1.1917 -0.6790
  208MOL0     H28060   9.257   2.273  10.629  0.2730  0.4956  1.6712
  208MOL0     H28061   9.400   2.074  10.592 -0.7767  0.9577  1.1879
  208MOL0     H28062   9.410   1.669  10.543  0.7260  0.0837  1.9256
  208MOL0     H28063   9.573   1.552  10.398  2.1873  0.4878 -2.5206
  208MOL0     H28064  10.073   1.425   8.521 -0.1317 -0.0146 -0.5390
  208MOL0     H28065  10.145   1.534   8.320 -1.0400  1.2432 -2.8651
  208MOL0     H28066  10.244   1.880   8.142  1.8075  0.1940 -1.3334
  208MOL0     H28067  10.376   2.039   8.019  0.5408 -3.2338  1.1528
  208MOL0     H28068  10.394   2.184   7.626 -0.3242  0.4851  2.2917
  208MOL0     H28069  10.211   2.198   7.616 -2.9394 -0.0981  3.1411
  208MOL0     H28070  10.203   1.959   7.629 -0.3084  0.9758 -0.7919
  208MOL0     H28071  10.385   1.952   7.639 -0.5715 -2.0254  0.4952
  208MOL0     H28072  10.206   2.021   7.408  0.0113 -0.1455 -3.0203
  208MOL0     H28073  10.313   1.883   7.423 -4.1389 -0.5142 -0.4594
  208MOL0     H28074  10.419   2.046   7.259  0.9235 -0.2802  0.3433
  208MOL0     H28075  10.420   2.161   7.395  1.2766 -0.8723  0.7360
  208MOL0     H28076  10.780   1.993   7.413  1.2142 -2.1938  1.7008
  208MOL0     H28077  10.040   2.090   7.742  3.1498 -2.1114 -1.4922
  208MOL0     H28078   9.790   1.941   7.941  1.2878  2.4900  1.2984
  208MOL0     H28079   9.843   1.991   7.779 -1.8767 -1.7259 -0.4425
  208MOL0     H28080   9.868   1.822   7.825  3.0098  0.0310 -1.4962
  209MOL0     O28081   0.982   0.463   4.111  0.2135 -0.3421 -0.4924
  209MOL0     C28082   0.886   0.391   4.075 -0.3214  0.1308  0.7213
  209MOL0     O28083   0.751   0.417   4.093  0.0667  0.3600  0.9541
  209MOL0     C28084   0.708   0.535   4.153 -0.1381  0.5773 -0.3129
  209MOL0     C28085   0.601   0.594   4.102 -0.3881  0.7375 -0.1161
  209MOL0     C28086   0.547   0.712   4.154 -0.4594  0.8031  0.0277
  209MOL0     C28087   0.607   0.777   4.259  0.2051  0.3215 -0.7074
  209MOL0     O28088   0.561   0.903   4.285  0.0287  0.1944  0.2786
  209MOL0     C28089   0.629   0.990   4.390 -0.4550  0.6393  0.4646
  209MOL0     C28090   0.566   0.960   4.523 -0.1387 -0.0783  0.0286
  209MOL0     C28091   0.603   1.076   4.630 -0.4147 -0.1965  0.3817
  209MOL0     C28092   0.763   1.079   4.653  1.1849 -0.6128  0.8082
  209MOL0     C28093   0.801   1.202   4.734  0.2293  0.2113 -0.3311
  209MOL0     C28094   0.951   1.234   4.734  0.0020 -0.0377 -0.9685
  209MOL0     C28095   0.996   1.341   4.832  0.6927 -0.9871  0.0511
  209MOL0     C28096   1.127   1.411   4.788 -0.4029 -0.3899  0.6249
  209MOL0     N28097   1.188   1.505   4.884  0.2495  0.0997  0.4799
  209MOL0     C28098   1.232   1.484   5.010  0.2573 -0.5106  0.1994
  209MOL0     C28099   1.295   1.603   5.045 -1.0504 -0.1803  1.4362
  209MOL0     C28100   1.378   1.626   5.176 -0.4496 -0.1966  0.6527
  209MOL0     C28101   1.529   1.661   5.144  0.5466  0.4627 -0.3677
  209MOL0     C28102   1.604   1.669   5.282  0.2314  0.5881  1.2142
  209MOL0     C28103   1.748   1.686   5.247 -0.8726 -0.2238 -0.4672
  209MOL0     O28104   1.813   1.574   5.188 -0.3628  0.3367  0.0362
  209MOL0     C28105   1.918   1.508   5.250 -0.9129  0.2559 -0.0430
  209MOL0     C28106   1.992   1.432   5.167  0.7158  0.3278  0.5249
  209MOL0     C28107   2.102   1.352   5.201  0.2274 -0.3823  0.2659
  209MOL0     C28108   2.147   1.354   5.335  0.9210 -0.9144 -0.5344
  209MOL0     C28109   2.268   1.285   5.371 -0.1331  0.6668  1.0920
  209MOL0     O28110   2.308   1.285   5.504 -0.3971 -0.4671  0.3430
  209MOL0     C28111   2.414   1.212   5.547  0.2091 -0.0573 -0.7046
  209MOL0     C28112   2.463   1.258   5.671 -0.3153 -0.2385 -0.7676
  209MOL0     C28113   2.538   1.175   5.757 -0.9331 -0.4609  0.0384
  209MOL0     C28114   2.578   1.047   5.713 -0.0834  0.0118  0.4350
  209MOL0     O28115   2.655   0.963   5.798  0.2020 -0.9156  0.2631
  209MOL0     C28116   2.613   0.904   5.921 -0.1296  0.5582  0.4577
  209MOL0     C28117   2.488   0.822   5.900  0.3488  0.1029 -0.4724
  209MOL0     C28118   2.425   0.798   6.042 -0.3351  0.1906  0.3890
  209MOL0     C28119   2.273   0.798   6.050  1.0270  0.4242  0.2794
  209MOL0     C28120   2.212   0.774   6.191  0.1589 -1.0526 -0.3041
  209MOL0     C28121   2.091   0.682   6.197 -0.4923 -0.7287  0.5563
  209MOL0     C28122   1.987   0.703   6.090 -0.5009 -0.0427  0.6453
  209MOL0     C28123   1.878   0.602   6.103 -0.1699 -0.4331 -0.8262
  209MOL0    Cl28124   1.767   0.607   5.952  0.3563 -0.3845 -0.0446
  209MOL0     C28125   2.545   1.008   5.584 -0.0290  0.0719  0.2056
  209MOL0     C28126   2.466   1.083   5.503  0.5445 -0.3395  0.5811
  209MOL0     O28127   2.336   1.233   5.276  0.4267  0.1638 -0.1781
  209MOL0     C28128   2.077   1.452   5.418 -0.3847  0.8438  0.5062
  209MOL0     C28129   1.957   1.508   5.382 -0.2125  0.0687  0.7244
  209MOL0     N28130   1.310   1.682   4.928 -0.5770  0.2048  0.3282
  209MOL0     N28131   1.238   1.622   4.839 -0.5218  1.0070 -0.5917
  209MOL0     C28132   0.703   0.711   4.330 -0.6111 -0.3528 -0.6876
  209MOL0     C28133   0.764   0.592   4.269  0.5681  0.0399 -0.0781
  209MOL0     C28134   0.914   0.265   3.989 -0.3700 -0.2830 -0.7160
  209MOL0     C28135   0.807   0.229   3.902 -0.9394 -0.2029  0.2722
  209MOL0     C28136   0.833   0.117   3.812  0.4764 -0.9296  0.8602
  209MOL0     C28137   0.950   0.037   3.807 -0.0011 -0.2320 -0.7303
  209MOL0     O28138   0.975  -0.057   3.707 -0.0949 -0.6644 -0.1600
  209MOL0     C28139   1.034  -0.020   3.587 -0.8969  0.5640  0.8340
  209MOL0     C28140   0.967   0.062   3.472  0.8688 -0.2829 -0.9928
  209MOL0     C28141   0.831  -0.007   3.442  0.2954  0.4589  0.7390
  209MOL0     C28142   0.857  -0.102   3.312 -0.1104  0.9189  0.7482
  209MOL0     C28143   0.864  -0.024   3.186  0.5178  0.3752  0.7307
  209MOL0     C28144   0.870   0.036   3.084  0.6294  0.4772  0.1799
  209MOL0     C28145   1.050   0.075   3.899  0.3445  0.3507  0.8027
  209MOL0     C28146   1.032   0.184   3.987 -0.3494  0.2966 -0.2017
  209MOL0     C28147   1.150   0.226   4.072  0.2652 -0.1837  0.7232
  209MOL0     H28148   0.559   0.541   4.017  0.4039 -1.4596  0.8031
  209MOL0     H28149   0.460   0.761   4.110  0.7951  0.0044 -3.7376
  209MOL0     H28150   0.737   0.975   4.384 -1.0337 -5.3144 -0.6027
  209MOL0     H28151   0.596   1.091   4.364 -2.7526 -0.6291 -2.0774
  209MOL0     H28152   0.605   0.867   4.566  2.3157  1.0177  0.3154
  209MOL0     H28153   0.459   0.949   4.502  0.3347  0.8116 -3.5129
  209MOL0     H28154   0.548   1.044   4.718 -0.4863  0.4405  0.5703
  209MOL0     H28155   0.558   1.168   4.593  1.3243  0.1037 -1.1888
  209MOL0     H28156   0.792   0.984   4.699 -1.0280 -2.6029 -1.5937
  209MOL0     H28157   0.822   1.083   4.562  1.7378 -1.7422  1.0998
  209MOL0     H28158   0.738   1.284   4.700 -0.3411  0.6351  1.6232
  209MOL0     H28159   0.778   1.170   4.836 -2.4037  0.3578 -0.8211
  209MOL0     H28160   1.000   1.140   4.762 -1.7863 -0.3837  1.3705
  209MOL0     H28161   0.979   1.266   4.633  0.4923  1.9134 -0.2570
  209MOL0     H28162   1.006   1.301   4.934  0.8631  2.3118  1.4389
  209MOL0     H28163   0.914   1.413   4.842  0.3255 -1.4320  0.3096
  209MOL0     H28164   1.204   1.340   4.759 -1.6129 -1.1431 -0.8893
  209MOL0     H28165   1.108   1.459   4.692 -1.2085  0.9790  1.4435
  209MOL0     H28166   1.224   1.397   5.074 -1.3258 -1.1627 -0.8404
  209MOL0     H28167   1.335   1.702   5.242  0.0807 -0.1999  1.0071
  209MOL0     H28168   1.384   1.540   5.242 -1.1283  1.4287  2.9430
  209MOL0     H28169   1.563   1.583   5.076 -3.3952 -0.2327 -1.8081
  209MOL0     H28170   1.519   1.758   5.094 -2.4203 -0.0158 -0.9139
  209MOL0     H28171   1.581   1.578   5.339 -0.9538 -0.7637 -1.2520
  209MOL0     H28172   1.571   1.762   5.328  1.2913  0.9726  1.2249
  209MOL0     H28173   1.798   1.734   5.332 -0.0637 -0.3758 -0.8483
  209MOL0     H28174   1.753   1.767   5.174 -0.5427  0.3117  0.1345
  209MOL0     H28175   1.973   1.440   5.060 -3.1696 -0.1118  1.0572
  209MOL0     H28176   2.167   1.304   5.128  2.4630  2.6495  0.0761
  209MOL0     H28177   2.434   1.358   5.703  0.3605 -0.1876 -0.2780
  209MOL0     H28178   2.566   1.214   5.854 -0.7433 -0.1411 -0.1387
  209MOL0     H28179   2.699   0.861   5.974 -2.5880  0.3607  4.7401
  209MOL0     H28180   2.591   0.982   5.995  3.1408  0.4106  1.7593
  209MOL0     H28181   2.407   0.871   5.846 -1.1878  1.5537  2.8263
  209MOL0     H28182   2.517   0.730   5.848  0.1536 -2.3488  3.2850
  209MOL0     H28183   2.461   0.701   6.077  1.7020  0.2998 -1.2201
  209MOL0     H28184   2.467   0.874   6.109  3.7644  0.0998 -1.7575
  209MOL0     H28185   2.251   0.712   5.986  0.0624  0.9256 -0.0641
  209MOL0     H28186   2.239   0.893   6.009  1.4225  1.2578  1.8130
  209MOL0     H28187   2.181   0.873   6.228  0.0635  0.2206 -3.4367
  209MOL0     H28188   2.295   0.743   6.255  0.9614 -0.3121 -0.9514
  209MOL0     H28189   2.140   0.584   6.204  2.0066  0.5027  2.0315
  209MOL0     H28190   2.045   0.706   6.293 -1.4158  1.1577 -0.3125
  209MOL0     H28191   2.036   0.702   5.992 -0.9278  1.4294  0.3927
  209MOL0     H28192   1.940   0.800   6.109 -0.1318  0.0714  0.9907
  209MOL0     H28193   1.928   0.505   6.096  0.3697 -0.0731 -2.5814
  209MOL0     H28194   1.815   0.624   6.189  0.0617  0.4732 -0.8775
  209MOL0     H28195   2.567   0.907   5.552 -1.9678  0.3777 -2.4442
  209MOL0     H28196   2.438   1.043   5.406 -0.8476  0.5095  0.5955
  209MOL0     H28197   2.109   1.458   5.522 -1.1425  1.8973  0.6947
  209MOL0     H28198   1.898   1.566   5.453 -0.4127  0.5958  0.1364
  209MOL0     H28199   0.740   0.749   4.425 -1.8745 -3.3615  1.1568
  209MOL0     H28200   0.844   0.535   4.313 -0.0041 -1.3914 -0.8278
  209MOL0     H28201   0.711   0.280   3.891 -1.5452 -0.4185  3.6461
  209MOL0     H28202   0.761   0.102   3.733 -1.1101  1.8029  1.6448
  209MOL0     H28203   1.076  -0.109   3.539  1.8322  0.1842  3.6232
  209MOL0     H28204   1.127   0.031   3.614  2.0776 -3.5968 -0.4766
  209MOL0     H28205   1.039   0.069   3.390  5.0699 -3.6495  1.9363
  209MOL0     H28206   0.951   0.166   3.504  1.3509  0.2774 -2.5072
  209MOL0     H28207   0.752   0.061   3.410  1.6014  1.0761 -1.3718
  209MOL0     H28208   0.799  -0.062   3.531  1.2203  1.1853  1.5484
  209MOL0     H28209   0.955  -0.149   3.324 -0.5717  0.3722  2.8388
  209MOL0     H28210   0.781  -0.180   3.296  0.5854 -0.2914  2.8754
  209MOL0     H28211   0.898   0.091   2.997 -1.4506  2.2878  0.5787
  209MOL0     H28212   1.143   0.019   3.902 -0.8620 -1.7746  1.3071
  209MOL0     H28213   1.120   0.227   4.177 -1.2172  2.3678  0.3458
  209MOL0     H28214   1.230   0.153   4.055  1.7634  0.9882  2.4045
  209MOL0     H28215   1.188   0.325   4.046  0.9713 -1.0475 -1.8336
  210MOL0     O28216   3.516   0.593  10.559  0.0269 -0.9222 -0.5196
  210MOL0     C28217   3.414   0.613  10.492  0.0283  0.7233  0.9661
  210MOL0     O28218   3.371   0.739  10.454 -0.3112 -0.1062 -0.2091
  210MOL0     C28219   3.464   0.833  10.421  0.5059  0.2795  0.8858
  210MOL0     C28220   3.602   0.825  10.413 -0.1255  0.3890 -0.4622
  210MOL0     C28221   3.668   0.923  10.341 -0.0239 -0.6475  0.5316
  210MOL0     C28222   3.613   1.045  10.308 -0.2122  0.4808  0.2427
  210MOL0     O28223   3.689   1.146  10.255 -0.1166 -0.1266  0.6713
  210MOL0     C28224   3.798   1.184  10.352  0.4367  0.6764  0.3609
  210MOL0     C28225   3.878   1.267  10.270 -0.0608  0.6674  0.9384
  210MOL0     C28226   3.934   1.220  10.121  0.5810 -0.1701 -0.6247
  210MOL0     C28227   4.043   1.303  10.074 -1.3935  0.0076 -0.4944
  210MOL0     C28228   4.075   1.274   9.923 -0.7479 -0.8720 -0.4949
  210MOL0     C28229   4.166   1.390   9.870  0.5678 -0.7497  0.1890
  210MOL0     C28230   4.177   1.383   9.714 -0.3078  0.9401  0.0781
  210MOL0     C28231   4.271   1.272   9.668 -1.0092  0.3416  0.8784
  210MOL0     N28232   4.295   1.267   9.525  0.4011 -0.4864  0.8886
  210MOL0     C28233   4.401   1.330   9.462  0.8049 -1.0947  0.0351
  210MOL0     C28234   4.377   1.322   9.325  0.6088  0.0388  0.0908
  210MOL0     C28235   4.473   1.372   9.227  0.0279 -0.1658  0.1584
  210MOL0     C28236   4.406   1.428   9.096 -0.0897  0.7098 -0.5222
  210MOL0     C28237   4.304   1.543   9.113 -0.6472 -0.3654 -0.0760
  210MOL0     C28238   4.283   1.635   8.989 -0.6763 -0.2372 -0.2412
  210MOL0     O28239   4.421   1.664   8.942  0.1331  0.1266 -0.4404
  210MOL0     C28240   4.503   1.744   9.015 -0.0798  0.1898 -1.2117
  210MOL0     C28241   4.461   1.846   9.107  0.8292  0.5220 -0.0075
  210MOL0     C28242   4.562   1.922   9.176  0.3023 -0.3265  0.6079
  210MOL0     C28243   4.701   1.911   9.157 -0.5172  0.5977 -0.5307
  210MOL0     C28244   4.803   2.007   9.222  0.6029  0.5218  0.6237
  210MOL0     O28245   4.935   1.968   9.211 -0.2168  0.1185 -0.3795
  210MOL0     C28246   5.033   2.054   9.257 -1.3303  0.2448  0.7878
  210MOL0     C28247   5.024   2.111   9.385 -0.1292  0.0285  1.1732
  210MOL0     C28248   5.127   2.186   9.441  0.3436 -0.3546 -0.0334
  210MOL0     C28249   5.240   2.220   9.375 -0.5616  0.3379 -0.2855
  210MOL0     O28250   5.334   2.310   9.445 -0.0527  0.1366 -0.0875
  210MOL0     C28251   5.452   2.358   9.370  0.0138 -0.8374  0.6106
  210MOL0     C28252   5.560   2.264   9.400  0.2949 -0.1361  0.3237
  210MOL0     C28253   5.604   2.281   9.542 -0.2498 -0.2789 -0.5788
  210MOL0     C28254   5.698   2.164   9.590 -0.1373  0.5438 -0.2917
  210MOL0     C28255   5.842   2.194   9.559  0.0774  0.8252 -0.3363
  210MOL0     C28256   5.936   2.100   9.625 -0.9484 -0.0623 -0.8421
  210MOL0     C28257   5.938   1.966   9.551 -0.2497 -0.4851  0.2235
  210MOL0     C28258   6.043   1.862   9.598  0.0878  0.3525 -0.2636
  210MOL0    Cl28259   6.197   1.922   9.660  0.3160  0.3304 -0.0321
  210MOL0     C28260   5.262   2.153   9.255 -0.0513 -0.1005 -0.0896
  210MOL0     C28261   5.155   2.080   9.185  0.5719 -1.2018 -0.2314
  210MOL0     O28262   4.753   2.113   9.253  0.6549 -0.5245  0.2111
  210MOL0     C28263   4.737   1.794   9.081 -0.3325  0.2342  0.1758
  210MOL0     C28264   4.636   1.719   9.006 -0.3728  0.1934  0.3750
  210MOL0     N28265   4.255   1.259   9.312  0.1519  1.0202 -0.5035
  210MOL0     N28266   4.208   1.222   9.429  0.4234  0.0989  0.0256
  210MOL0     C28267   3.478   1.068  10.322  1.0100  0.4304  0.5646
  210MOL0     C28268   3.406   0.962  10.385 -0.3320 -0.1364  0.1332
  210MOL0     C28269   3.329   0.494  10.461  0.5647 -0.4051 -1.0760
  210MOL0     C28270   3.369   0.368  10.502 -0.8748  0.8094 -0.4904
  210MOL0     C28271   3.292   0.258  10.468  0.4761 -0.2138 -0.7556
  210MOL0     C28272   3.172   0.274  10.404 -0.1393  0.4169  0.1300
  210MOL0     O28273   3.109   0.159  10.363  0.2755 -0.5307  0.2299
  210MOL0     C28274   2.965   0.147  10.374  0.1715 -0.0968 -0.3603
  210MOL0     C28275   2.936   0.027  10.464 -0.0821  0.5929 -0.4221
  210MOL0     C28276   2.789  -0.019  10.460 -0.8138 -0.6222 -0.0792
  210MOL0     C28277   2.756  -0.115  10.571 -0.2845 -0.3111 -0.6534
  210MOL0     C28278   2.762  -0.050  10.700  0.3189 -0.5197  0.8760
  210MOL0     C28279   2.777  -0.008  10.815 -0.6113 -0.0158 -0.0495
  210MOL0     C28280   3.127   0.398  10.362  0.4200  0.9538 -0.2735
  210MOL0     C28281   3.211   0.510  10.389  0.2261 -0.9420  0.3680
  210MOL0     C28282   3.156   0.641  10.343 -0.6111 -0.3088 -0.4802
  210MOL0     H28283   3.666   0.740  10.436  0.1782  0.4940 -0.8937
  210MOL0     H28284   3.774   0.911  10.324 -0.1185  1.0938 -1.8744
  210MOL0     H28285   3.770   1.233  10.445 -1.3995  1.4951 -0.5792
  210MOL0     H28286   3.860   1.096  10.371  0.2598  0.3586 -0.4875
  210MOL0     H28287   3.967   1.288  10.330  0.1213 -1.5577  1.5250
  210MOL0     H28288   3.820   1.359  10.261 -1.1347 -0.1602 -1.3927
  210MOL0     H28289   3.854   1.226  10.047  0.5127  2.1539 -0.4160
  210MOL0     H28290   3.975   1.118  10.129  1.4549  0.3255  2.3304
  210MOL0     H28291   4.008   1.406  10.085 -0.8169  0.7218 -4.1871
  210MOL0     H28292   4.132   1.286  10.135  0.8655 -4.0123 -4.3756
  210MOL0     H28293   4.118   1.174   9.912  0.1331 -1.0031  2.8298
  210MOL0     H28294   3.990   1.274   9.855  0.7816  0.0128 -2.4952
  210MOL0     H28295   4.120   1.488   9.888 -0.6281 -1.1728 -0.4349
  210MOL0     H28296   4.261   1.393   9.924 -0.7114 -2.3846  2.7050
  210MOL0     H28297   4.218   1.473   9.667 -0.9336  0.5785 -1.2069
  210MOL0     H28298   4.081   1.353   9.671  0.2004  1.5240 -1.5309
  210MOL0     H28299   4.366   1.300   9.715  0.8924 -3.5573 -0.2273
  210MOL0     H28300   4.255   1.170   9.704  0.7705 -0.7686 -1.2735
  210MOL0     H28301   4.468   1.390   9.523  1.1814 -1.7775  0.3111
  210MOL0     H28302   4.539   1.441   9.281 -0.7113 -2.0110  3.6721
  210MOL0     H28303   4.543   1.296   9.191 -1.4626 -1.8173  0.6517
  210MOL0     H28304   4.493   1.450   9.034  2.2974  1.3110  2.7511
  210MOL0     H28305   4.351   1.347   9.047  0.7246  0.5448 -1.1963
  210MOL0     H28306   4.342   1.606   9.194 -2.0450  0.7457 -0.2414
  210MOL0     H28307   4.206   1.507   9.145 -2.4528  1.6757 -2.8622
  210MOL0     H28308   4.219   1.723   9.002  0.1876  0.4060 -0.2658
  210MOL0     H28309   4.230   1.572   8.917 -0.5462  0.1356 -0.6690
  210MOL0     H28310   4.354   1.855   9.125  0.6733 -1.7962  0.5127
  210MOL0     H28311   4.535   1.997   9.249  1.3192  1.5823 -0.8734
  210MOL0     H28312   4.948   2.077   9.455  0.4090 -0.7177  1.4111
  210MOL0     H28313   5.113   2.218   9.544  0.2639  0.3496 -0.2602
  210MOL0     H28314   5.432   2.363   9.262 -0.3935 -0.0717  0.7174
  210MOL0     H28315   5.481   2.456   9.407 -0.5706 -0.9186  1.3140
  210MOL0     H28316   5.523   2.163   9.378  1.5579  0.0505 -3.4734
  210MOL0     H28317   5.640   2.285   9.328 -0.2846  1.4871  0.1160
  210MOL0     H28318   5.644   2.379   9.566 -2.8606  1.0477 -1.2960
  210MOL0     H28319   5.510   2.276   9.597 -0.7543  0.9768 -1.3038
  210MOL0     H28320   5.665   2.072   9.540  1.1170 -1.9572  3.1307
  210MOL0     H28321   5.682   2.155   9.698  1.5358  0.9831  0.0084
  210MOL0     H28322   5.873   2.297   9.574  0.1848  0.7444  0.0063
  210MOL0     H28323   5.860   2.186   9.451  2.1856 -1.0987  0.0710
  210MOL0     H28324   6.039   2.135   9.622 -0.2606 -1.8540  0.1199
  210MOL0     H28325   5.925   2.079   9.732  1.0335  1.0107 -0.3691
  210MOL0     H28326   5.961   2.001   9.450 -0.7411 -1.6657 -0.3212
  210MOL0     H28327   5.835   1.928   9.552 -0.0584 -1.1538 -1.8360
  210MOL0     H28328   5.995   1.795   9.670 -1.4244  1.2100 -0.4305
  210MOL0     H28329   6.074   1.791   9.521 -0.6063 -2.1158  1.5610
  210MOL0     H28330   5.356   2.173   9.203  0.9856 -0.3630  1.5948
  210MOL0     H28331   5.174   2.044   9.085  0.3178 -2.0107  0.0019
  210MOL0     H28332   4.842   1.772   9.068  0.6851  1.6882  4.5565
  210MOL0     H28333   4.680   1.642   8.944 -0.3837 -0.0235  0.6364
  210MOL0     H28334   3.435   1.162  10.290  1.2678  0.0087 -1.0854
  210MOL0     H28335   3.298   0.975  10.381  0.0381  4.8008 -1.4137
  210MOL0     H28336   3.464   0.348  10.550 -1.5104  1.3288  1.0457
  210MOL0     H28337   3.308   0.157  10.504 -2.7105 -0.3911  0.4950
  210MOL0     H28338   2.927   0.125  10.274 -1.3441  0.4911  0.0606
  210MOL0     H28339   2.910   0.238  10.402  0.4691  0.1886 -0.6869
  210MOL0     H28340   2.974   0.047  10.565  0.6490  3.2595 -1.1592
  210MOL0     H28341   2.988  -0.063  10.429 -0.6534  0.2694 -0.4574
  210MOL0     H28342   2.778  -0.066  10.362 -1.1564  1.0527 -0.8854
  210MOL0     H28343   2.717   0.063  10.469 -1.3452 -1.2032  1.2630
  210MOL0     H28344   2.653  -0.149  10.557  0.2499 -1.8756 -0.9511
  210MOL0     H28345   2.818  -0.205  10.576  0.7222  0.4353  1.0883
  210MOL0     H28346   2.771   0.041  10.911  0.2350 -0.9572  0.5140
  210MOL0     H28347   3.035   0.408  10.306  0.0332 -0.0373  0.1544
  210MOL0     H28348   3.215   0.689  10.265 -2.1345  0.3117 -1.2857
  210MOL0     H28349   3.060   0.613  10.299  0.2236 -2.1848 -1.2259
  210MOL0     H28350   3.133   0.721  10.414 -0.0918 -0.2897 -0.3268
  211MOL0     O28351   0.826   2.755   8.004  0.1458 -0.1730 -0.3643
  211MOL0     C28352   0.770   2.700   8.103 -0.2560  0.2586  0.1676
  211MOL0     O28353   0.837   2.601   8.176  0.4332 -0.7272  0.0522
  211MOL0     C28354   0.954   2.556   8.114 -0.4118  0.5372  0.1998
  211MOL0     C28355   1.082   2.612   8.118  0.1629  0.0738 -0.2479
  211MOL0     C28356   1.192   2.550   8.045 -0.4752 -0.4136  0.0033
  211MOL0     C28357   1.174   2.438   7.957 -0.3512  0.1052 -1.2209
  211MOL0     O28358   1.268   2.363   7.896 -0.0451 -0.7773 -0.3208
  211MOL0     C28359   1.379   2.442   7.845  0.2196  0.3791 -0.6020
  211MOL0     C28360   1.483   2.351   7.789 -0.3278 -0.1739 -0.9963
  211MOL0     C28361   1.617   2.410   7.747  0.4389 -0.0010  0.5223
  211MOL0     C28362   1.601   2.527   7.649 -0.0773 -0.9697 -0.8405
  211MOL0     C28363   1.730   2.570   7.568  0.5612 -0.2482 -0.5063
  211MOL0     C28364   1.742   2.478   7.449  0.0177 -0.7934 -0.0013
  211MOL0     C28365   1.839   2.555   7.356 -0.4328  0.3624 -0.2500
  211MOL0     C28366   1.815   2.513   7.213  0.4806  0.0676  0.1702
  211MOL0     N28367   1.722   2.606   7.139 -0.9346  0.2488 -0.4875
  211MOL0     C28368   1.585   2.605   7.142 -0.0763  0.0698 -1.1414
  211MOL0     C28369   1.539   2.700   7.064 -0.0475  1.0747  0.1764
  211MOL0     C28370   1.386   2.718   7.046  0.6338  0.2438  0.3275
  211MOL0     C28371   1.346   2.794   6.917  0.1818  0.3687 -0.6459
  211MOL0     C28372   1.192   2.816   6.913 -0.5170 -0.4987  0.4545
  211MOL0     C28373   1.142   2.878   6.779 -0.7134  0.5356  0.6109
  211MOL0     O28374   1.187   2.809   6.656  0.5303  0.0803 -0.7128
  211MOL0     C28375   1.091   2.792   6.552  0.8672 -0.1662  0.2534
  211MOL0     C28376   0.969   2.859   6.535 -0.5516 -0.2429 -0.7730
  211MOL0     C28377   0.877   2.820   6.438  0.2283 -0.0254  0.4816
  211MOL0     C28378   0.896   2.697   6.376  0.1585 -0.5409  0.0800
  211MOL0     C28379   0.792   2.664   6.273 -0.7213 -0.0099 -0.4990
  211MOL0     O28380   0.771   2.536   6.254  0.0602  0.3530  0.1298
  211MOL0     C28381   0.699   2.484   6.149 -0.0968 -0.2887 -0.3850
  211MOL0     C28382   0.720   2.540   6.023 -0.2409 -0.1226  0.1172
  211MOL0     C28383   0.627   2.509   5.917 -0.3694 -0.3263  0.6641
  211MOL0     C28384   0.524   2.412   5.945  0.5365  0.2808  0.3310
  211MOL0     O28385   0.444   2.388   5.831  0.1400  0.6503 -0.0732
  211MOL0     C28386   0.418   2.256   5.782 -0.2030 -0.3665 -0.4932
  211MOL0     C28387   0.273   2.241   5.756  0.5213  0.8752  0.4002
  211MOL0     C28388   0.252   2.097   5.709  1.1752  0.1402  0.0658
  211MOL0     C28389   0.100   2.059   5.699 -0.0450  0.9725  0.1762
  211MOL0     C28390   0.058   1.928   5.629 -0.2664 -0.0181 -0.9456
  211MOL0     C28391   0.128   1.903   5.494  0.3371 -0.0340  0.3756
  211MOL0     C28392   0.066   1.784   5.409  0.4673 -0.1375 -0.8935
  211MOL0     C28393   0.094   1.647   5.472 -0.6328 -0.1019 -0.4695
  211MOL0    Cl28394   0.265   1.607   5.465  0.1312  0.1824 -0.2484
  211MOL0     C28395   0.514   2.342   6.064  0.7008  0.0055  0.0873
  211MOL0     C28396   0.598   2.383   6.173  0.7065 -0.2847  0.5980
  211MOL0     O28397   0.729   2.750   6.216  0.1532  0.2068  1.5125
  211MOL0     C28398   1.006   2.626   6.393 -0.5616 -0.8511 -0.4789
  211MOL0     C28399   1.111   2.672   6.473  0.8556 -0.3687 -1.6041
  211MOL0     N28400   1.653   2.770   7.021  0.4746 -0.3449  0.3164
  211MOL0     N28401   1.761   2.707   7.061 -0.3604 -0.6495  0.3752
  211MOL0     C28402   1.043   2.388   7.963 -0.7386  0.3681 -1.4260
  211MOL0     C28403   0.936   2.437   8.042  0.4111 -0.1251  0.3971
  211MOL0     C28404   0.635   2.752   8.129 -0.4919 -0.6387  0.1282
  211MOL0     C28405   0.543   2.675   8.209  0.0850 -0.6475  0.7508
  211MOL0     C28406   0.413   2.724   8.224  0.8129  0.5790 -0.0241
  211MOL0     C28407   0.366   2.845   8.171  0.2495 -0.4092  0.2104
  211MOL0     O28408   0.237   2.891   8.181 -0.2785 -0.9267  0.5495
  211MOL0     C28409   0.139   2.806   8.234  0.7730  0.4533  0.2456
  211MOL0     C28410  -0.006   2.848   8.197 -0.2665  0.4407 -0.7421
  211MOL0     C28411  -0.114   2.738   8.231  1.1163  0.0636  0.6193
  211MOL0     C28412  -0.188   2.724   8.367 -0.8240  0.2273 -0.5224
  211MOL0     C28413  -0.094   2.663   8.464 -0.6523  0.1522  0.4776
  211MOL0     C28414  -0.008   2.613   8.533 -0.0409 -0.1732  0.7249
  211MOL0     C28415   0.455   2.931   8.118 -0.1141  0.4797 -0.0565
  211MOL0     C28416   0.586   2.888   8.098 -1.1560 -0.0825  1.0967
  211MOL0     C28417   0.687   2.998   8.062  0.5690 -1.0470 -0.4768
  211MOL0     H28418   1.107   2.705   8.167  1.4556 -0.4742  0.1780
  211MOL0     H28419   1.287   2.600   8.063  0.7197 -1.3392 -3.0154
  211MOL0     H28420   1.339   2.521   7.781 -1.6612 -1.2299 -1.5355
  211MOL0     H28421   1.422   2.489   7.933  0.2754 -3.4658  1.6444
  211MOL0     H28422   1.449   2.302   7.697  2.8787 -0.0543 -2.3925
  211MOL0     H28423   1.505   2.270   7.860  1.2149 -0.2345 -1.5017
  211MOL0     H28424   1.675   2.336   7.691  0.1161 -0.8246  1.2445
  211MOL0     H28425   1.672   2.437   7.837  0.3008  2.7264 -0.1297
  211MOL0     H28426   1.519   2.520   7.578  2.2588 -0.1803 -3.8157
  211MOL0     H28427   1.568   2.609   7.713  1.8584  1.2849 -2.5844
  211MOL0     H28428   1.733   2.677   7.545  0.5263  0.0644  0.8833
  211MOL0     H28429   1.812   2.553   7.638  0.5416  0.2233 -0.3636
  211MOL0     H28430   1.780   2.378   7.474  2.5292 -0.6505 -2.7238
  211MOL0     H28431   1.640   2.472   7.412 -0.6651  2.6512  1.0352
  211MOL0     H28432   1.943   2.534   7.385 -0.8919 -0.0033  1.2169
  211MOL0     H28433   1.822   2.663   7.361 -1.6909  0.1897 -0.5691
  211MOL0     H28434   1.915   2.514   7.169  0.5762 -2.3134  0.1801
  211MOL0     H28435   1.777   2.410   7.210 -1.4905  0.4706  4.4196
  211MOL0     H28436   1.532   2.527   7.196 -0.0070 -0.1127 -1.3353
  211MOL0     H28437   1.351   2.615   7.038 -0.2809  0.6877 -2.4133
  211MOL0     H28438   1.344   2.764   7.136  0.7298  0.8710  0.0570
  211MOL0     H28439   1.384   2.896   6.920  3.1751 -0.6622 -0.9129
  211MOL0     H28440   1.386   2.739   6.832  1.4868 -0.7438  0.6426
  211MOL0     H28441   1.156   2.880   6.993 -1.9970  3.1711 -2.8701
  211MOL0     H28442   1.146   2.717   6.920  1.9477 -1.6711  1.5746
  211MOL0     H28443   1.169   2.984   6.772 -0.9246  0.7623  2.6051
  211MOL0     H28444   1.034   2.871   6.787 -0.5656  0.4906  3.6566
  211MOL0     H28445   0.946   2.950   6.590 -3.1263  0.0820 -2.2550
  211MOL0     H28446   0.790   2.882   6.419 -0.3383 -0.8885  0.2281
  211MOL0     H28447   0.797   2.610   5.991  0.5422 -0.4174  1.3014
  211MOL0     H28448   0.644   2.539   5.814  0.2317  2.3730  1.4617
  211MOL0     H28449   0.468   2.250   5.685 -0.7273  2.6810 -1.0612
  211MOL0     H28450   0.464   2.181   5.847 -1.7538 -0.4318  0.5856
  211MOL0     H28451   0.221   2.259   5.851  1.1098  1.0038  0.7041
  211MOL0     H28452   0.243   2.324   5.692  0.9617  1.5632  1.0702
  211MOL0     H28453   0.299   2.076   5.612  1.5292 -0.7242  0.4055
  211MOL0     H28454   0.295   2.029   5.783  0.1676  2.2958  2.8223
  211MOL0     H28455   0.048   2.147   5.658 -1.2847  0.9264  1.5583
  211MOL0     H28456   0.056   2.050   5.798 -0.0741 -1.7287 -0.0176
  211MOL0     H28457  -0.048   1.942   5.607 -0.3835  0.1755 -0.2731
  211MOL0     H28458   0.069   1.841   5.695 -1.8341  0.2257 -0.3194
  211MOL0     H28459   0.119   1.991   5.430  0.8036 -1.1679 -1.3175
  211MOL0     H28460   0.235   1.890   5.510  1.1293  2.7095 -1.8720
  211MOL0     H28461   0.100   1.757   5.308 -1.2507 -1.2923 -1.2094
  211MOL0     H28462  -0.042   1.796   5.408  0.3848 -0.7177  0.1316
  211MOL0     H28463   0.068   1.649   5.578  3.2392  0.7374  0.6525
  211MOL0     H28464   0.035   1.564   5.434 -2.8718  0.6952  1.0733
  211MOL0     H28465   0.432   2.271   6.068  1.4006 -0.8079  3.9181
  211MOL0     H28466   0.585   2.352   6.277 -1.8420 -2.6948 -0.3202
  211MOL0     H28467   1.013   2.536   6.332  0.9864 -0.9857 -0.1457
  211MOL0     H28468   1.197   2.618   6.512 -0.6838  0.9786  4.6884
  211MOL0     H28469   1.026   2.304   7.896 -0.4428  1.6596 -3.2045
  211MOL0     H28470   0.836   2.395   8.040  0.0397  0.6975  1.3950
  211MOL0     H28471   0.571   2.578   8.248 -1.0339 -1.9427 -1.4414
  211MOL0     H28472   0.341   2.654   8.264  0.6143 -1.5651 -3.6481
  211MOL0     H28473   0.143   2.810   8.344 -2.3705  1.1965  0.4181
  211MOL0     H28474   0.155   2.702   8.205  1.7718 -0.4295  3.4878
  211MOL0     H28475  -0.018   2.853   8.088  0.7796 -0.1481 -0.8925
  211MOL0     H28476  -0.033   2.946   8.239 -2.7187 -0.7364  0.6621
  211MOL0     H28477  -0.087   2.639   8.195 -0.1105  0.0017 -0.2061
  211MOL0     H28478  -0.195   2.760   8.161 -2.3652 -1.8597  3.6821
  211MOL0     H28479  -0.220   2.822   8.405  3.8444  1.5328  0.7649
  211MOL0     H28480  -0.274   2.657   8.358 -0.3169 -0.2917 -1.7223
  211MOL0     H28481   0.074   2.572   8.589  0.2236 -1.2791 -0.4183
  211MOL0     H28482   0.433   3.031   8.084 -0.9154  0.1068 -0.6736
  211MOL0     H28483   0.792   2.993   8.094  0.3377  1.3504  0.8848
  211MOL0     H28484   0.682   3.014   7.954 -0.6489  0.0508 -0.2878
  211MOL0     H28485   0.664   3.088   8.120  2.8238 -1.1486  0.7088
  212MOL0     O28486  11.090   6.958   0.166 -0.3535  0.0538  0.5963
  212MOL0     C28487  11.118   6.940   0.281 -0.5832  0.3704  0.0009
  212MOL0     O28488  11.191   6.832   0.326  0.1321  0.1620 -0.4555
  212MOL0     C28489  11.248   6.752   0.229  0.2089  0.1480 -1.2378
  212MOL0     C28490  11.372   6.781   0.172 -0.2941 -0.0654 -0.5028
  212MOL0     C28491  11.445   6.699   0.090 -0.2229  0.6402 -0.2996
  212MOL0     C28492  11.389   6.580   0.049 -0.3154 -0.2105  0.1007
  212MOL0     O28493  11.447   6.496  -0.042 -0.1673  1.4076  0.0042
  212MOL0     C28494  11.524   6.547  -0.153 -0.2823  0.3681 -0.1655
  212MOL0     C28495  11.559   6.437  -0.259 -0.1141  0.0410  0.6476
  212MOL0     C28496  11.637   6.481  -0.376  0.2776 -0.3339  0.8007
  212MOL0     C28497  11.638   6.373  -0.488 -0.2624 -0.4018  0.0873
  212MOL0     C28498  11.731   6.405  -0.613  0.0168 -0.2210 -0.0441
  212MOL0     C28499  11.706   6.290  -0.713 -0.2013  0.1982  1.0767
  212MOL0     C28500  11.699   6.338  -0.856  0.1542  1.0522  0.8003
  212MOL0     C28501  11.818   6.414  -0.925  0.2091 -0.3696 -0.4746
  212MOL0     N28502  11.788   6.481  -1.054 -0.0616  0.0878  0.8613
  212MOL0     C28503  11.728   6.422  -1.159 -0.0141 -0.7272  0.2247
  212MOL0     C28504  11.743   6.523  -1.258 -0.4981  0.0873  0.9355
  212MOL0     C28505  11.694   6.533  -1.401 -0.6744 -0.2790 -0.3742
  212MOL0     C28506  11.590   6.632  -1.407 -0.1940 -0.3228  0.2249
  212MOL0     C28507  11.466   6.593  -1.322 -0.1557  0.1299 -0.1925
  212MOL0     C28508  11.393   6.470  -1.366  0.4440  0.2173 -0.4310
  212MOL0     O28509  11.299   6.432  -1.270 -0.1582  0.8660 -0.7773
  212MOL0     C28510  11.331   6.317  -1.202  0.3434 -0.4292 -0.1256
  212MOL0     C28511  11.322   6.193  -1.258 -0.2763 -0.5463  0.2323
  212MOL0     C28512  11.339   6.076  -1.193  0.0920 -0.4413  0.0206
  212MOL0     C28513  11.358   6.081  -1.053 -0.1349  0.7017 -1.0419
  212MOL0     C28514  11.379   5.954  -0.983  0.8551  0.6888 -0.1306
  212MOL0     O28515  11.326   5.847  -1.048 -0.0659 -0.0503  0.0891
  212MOL0     C28516  11.357   5.720  -1.001 -0.1589  0.1285 -0.5586
  212MOL0     C28517  11.423   5.625  -1.086 -0.2829  0.8344 -0.0890
  212MOL0     C28518  11.453   5.494  -1.042 -1.4153 -0.3320  0.0393
  212MOL0     C28519  11.413   5.455  -0.911 -0.7453 -0.0528  0.7895
  212MOL0     O28520  11.445   5.323  -0.868  0.6596  0.3806 -0.3953
  212MOL0     C28521  11.330   5.263  -0.799  0.6068 -0.5525  0.1479
  212MOL0     C28522  11.353   5.124  -0.745 -0.2442  1.0810 -0.0634
  212MOL0     C28523  11.447   5.037  -0.831 -0.9010 -0.5918  0.1994
  212MOL0     C28524  11.520   4.937  -0.744 -0.6824  0.2979 -0.5305
  212MOL0     C28525  11.578   4.825  -0.839  0.3991  0.6197 -0.6553
  212MOL0     C28526  11.635   4.712  -0.755 -0.8796  0.6584  0.4079
  212MOL0     C28527  11.672   4.591  -0.839  0.6335  0.8096 -0.1367
  212MOL0     C28528  11.704   4.465  -0.761  0.0237  0.6514  0.6262
  212MOL0    Cl28529  11.698   4.319  -0.867  0.7563  0.2630 -0.2062
  212MOL0     C28530  11.358   5.553  -0.830 -0.5184 -0.1443  0.6351
  212MOL0     C28531  11.326   5.677  -0.869  0.7093 -0.0273 -0.1236
  212MOL0     O28532  11.447   5.946  -0.878 -0.2605 -0.5181 -0.4319
  212MOL0     C28533  11.378   6.213  -0.991  0.8465 -0.4698  0.4159
  212MOL0     C28534  11.362   6.327  -1.069  0.4348 -0.4240  1.4494
  212MOL0     N28535  11.823   6.625  -1.205 -0.8565  1.0888 -0.6862
  212MOL0     N28536  11.844   6.595  -1.076  0.8606 -0.9889  0.1062
  212MOL0     C28537  11.260   6.545   0.110  0.2190 -0.0909  0.9148
  212MOL0     C28538  11.209   6.625   0.211  0.7242  0.4776 -0.6188
  212MOL0     C28539  11.066   7.042   0.384 -0.8189  0.1492 -0.0273
  212MOL0     C28540  11.124   7.038   0.513  0.1226  0.4102  0.1617
  212MOL0     C28541  11.086   7.118   0.626  0.9524  1.3158  0.7496
  212MOL0     C28542  10.974   7.201   0.613 -0.8580 -0.6948  0.4125
  212MOL0     O28543  10.928   7.268   0.730  0.5474  0.1419 -0.3593
  212MOL0     C28544  10.817   7.356   0.714  0.0767 -0.9385 -0.6357
  212MOL0     C28545  10.740   7.382   0.844  0.2848  0.5001 -0.0499
  212MOL0     C28546  10.810   7.481   0.939 -0.0125 -0.9751  0.2904
  212MOL0     C28547  10.789   7.621   0.885  0.9881 -0.1362  0.3720
  212MOL0     C28548  10.856   7.722   0.963 -0.1308  0.6271 -0.2188
  212MOL0     C28549  10.924   7.811   1.007 -0.5000 -0.2867 -0.7461
  212MOL0     C28550  10.919   7.215   0.482 -0.4255 -0.2495 -0.5328
  212MOL0     C28551  10.957   7.125   0.376  0.2091  0.1054  0.7487
  212MOL0     C28552  10.893   7.150   0.240  0.4528 -1.0236  0.4208
  212MOL0     H28553  11.430   6.868   0.199  1.9206 -1.8002  0.6841
  212MOL0     H28554  11.542   6.717   0.043  0.8276 -0.1988  1.4536
  212MOL0     H28555  11.464   6.622  -0.206 -0.5234 -1.3796 -2.5323
  212MOL0     H28556  11.615   6.591  -0.112 -2.2247  3.6888  0.9931
  212MOL0     H28557  11.463   6.401  -0.297  0.1885 -0.2698  0.1766
  212MOL0     H28558  11.604   6.350  -0.210  0.2923  0.0358  0.2707
  212MOL0     H28559  11.741   6.499  -0.347  0.3766 -1.4460  1.1925
  212MOL0     H28560  11.588   6.574  -0.407  0.7535 -0.3686 -0.0656
  212MOL0     H28561  11.666   6.272  -0.459 -1.1712 -0.4736  0.7603
  212MOL0     H28562  11.535   6.371  -0.524 -0.3859  0.2342  0.3823
  212MOL0     H28563  11.719   6.501  -0.663  0.7547  0.1292  0.4323
  212MOL0     H28564  11.837   6.396  -0.585  0.0877 -4.2654 -0.9863
  212MOL0     H28565  11.794   6.225  -0.705 -0.0030 -0.0562 -1.8238
  212MOL0     H28566  11.607   6.246  -0.701 -0.8294  0.7473 -1.4766
  212MOL0     H28567  11.606   6.391  -0.882  0.2835  1.0459  0.3159
  212MOL0     H28568  11.681   6.243  -0.908 -0.6605  0.0760  2.7630
  212MOL0     H28569  11.853   6.476  -0.842 -0.4264 -0.0170 -0.4688
  212MOL0     H28570  11.904   6.351  -0.948 -1.6367 -3.2357  0.0220
  212MOL0     H28571  11.679   6.325  -1.157 -0.1220 -0.7758 -2.1237
  212MOL0     H28572  11.772   6.557  -1.474 -2.4852  1.0241 -1.9902
  212MOL0     H28573  11.650   6.438  -1.433 -3.5072 -0.4400  3.3030
  212MOL0     H28574  11.625   6.724  -1.358  0.8458 -2.3574  3.6879
  212MOL0     H28575  11.578   6.656  -1.513  0.7362  4.6741  0.9879
  212MOL0     H28576  11.404   6.682  -1.337  3.4783  3.1357  1.3421
  212MOL0     H28577  11.489   6.580  -1.216 -0.6763 -2.3456 -0.3034
  212MOL0     H28578  11.463   6.389  -1.390  0.4845 -0.4965  1.8899
  212MOL0     H28579  11.325   6.500  -1.447 -0.2990 -1.5032 -0.4993
  212MOL0     H28580  11.307   6.183  -1.365  0.8327 -2.0078  0.1827
  212MOL0     H28581  11.338   5.984  -1.251  3.0342  0.5857 -1.9015
  212MOL0     H28582  11.452   5.646  -1.188  2.0976 -0.8879  0.1492
  212MOL0     H28583  11.487   5.414  -1.107  0.1987 -0.6452  1.1901
  212MOL0     H28584  11.292   5.320  -0.713  1.4545 -2.0277  1.5414
  212MOL0     H28585  11.254   5.253  -0.878  1.9355 -3.2923 -0.8994
  212MOL0     H28586  11.399   5.127  -0.645 -0.4888 -2.8072  0.3217
  212MOL0     H28587  11.253   5.079  -0.739 -0.3330  1.4527  3.0881
  212MOL0     H28588  11.374   4.993  -0.899 -2.1638  1.2410  0.3036
  212MOL0     H28589  11.515   5.091  -0.899 -0.9722  0.0474  0.6212
  212MOL0     H28590  11.454   4.883  -0.676 -0.2272  1.3764  0.8190
  212MOL0     H28591  11.593   4.985  -0.677 -0.6180  3.2967 -2.5432
  212MOL0     H28592  11.652   4.867  -0.908  0.1276  0.5620 -0.9842
  212MOL0     H28593  11.501   4.786  -0.906  0.2409  2.3744 -1.5540
  212MOL0     H28594  11.721   4.741  -0.695  0.6100  1.2268 -1.8512
  212MOL0     H28595  11.559   4.681  -0.682 -0.0060 -2.0501  0.2820
  212MOL0     H28596  11.762   4.612  -0.897  0.4296 -0.8625 -1.1405
  212MOL0     H28597  11.592   4.562  -0.909  1.5170  0.1838 -0.9024
  212MOL0     H28598  11.806   4.461  -0.721  0.9097  0.6945 -1.4705
  212MOL0     H28599  11.631   4.447  -0.682  1.5764  2.8250  2.7232
  212MOL0     H28600  11.339   5.523  -0.728 -1.2940 -2.4818 -0.1330
  212MOL0     H28601  11.278   5.752  -0.806 -2.1372 -2.1526  0.4411
  212MOL0     H28602  11.389   6.207  -0.883 -2.0063  0.6561  0.8732
  212MOL0     H28603  11.364   6.426  -1.024  3.8364 -0.1779  0.9946
  212MOL0     H28604  11.220   6.449   0.076  0.3147  1.2621 -3.5787
  212MOL0     H28605  11.121   6.582   0.257 -0.7234  1.1075 -2.6106
  212MOL0     H28606  11.204   6.970   0.538  1.6895  1.6009 -1.3562
  212MOL0     H28607  11.140   7.105   0.719  3.9915 -1.4886 -1.1621
  212MOL0     H28608  10.740   7.307   0.653  2.3522 -2.0959 -2.7184
  212MOL0     H28609  10.845   7.450   0.666 -3.3090  0.9974  0.8364
  212MOL0     H28610  10.717   7.291   0.901 -1.1613  0.7180 -0.2688
  212MOL0     H28611  10.645   7.420   0.808  0.7749 -0.5271 -2.6255
  212MOL0     H28612  10.917   7.458   0.941  0.0408 -0.8940 -1.0216
  212MOL0     H28613  10.767   7.473   1.039 -3.7254 -0.0198 -1.0879
  212MOL0     H28614  10.807   7.638   0.778  0.8542  2.0200  0.6356
  212MOL0     H28615  10.682   7.642   0.898  0.6951  0.9599 -2.7951
  212MOL0     H28616  11.006   7.866   1.048 -1.0294  0.6907 -0.9703
  212MOL0     H28617  10.844   7.292   0.467 -3.1342 -2.0584  2.3859
  212MOL0     H28618  10.868   7.057   0.189 -0.4651 -1.0527  0.9029
  212MOL0     H28619  10.797   7.203   0.246  0.7363 -0.4421 -0.1023
  212MOL0     H28620  10.958   7.210   0.177 -1.5838 -0.1580 -0.9753
  213MOL0     O28621   4.166   5.224   0.115  0.0908 -0.0997  0.4669
  213MOL0     C28622   4.216   5.188   0.223  0.0260 -1.2996 -0.6561
  213MOL0     O28623   4.320   5.090   0.233  0.3207  0.3586  0.3915
  213MOL0     C28624   4.371   5.027   0.113 -0.1642  0.5662 -1.2379
  213MOL0     C28625   4.512   5.020   0.103  1.1107  1.0810 -0.5978
  213MOL0     C28626   4.571   4.942   0.008  0.0019  0.6637  0.1331
  213MOL0     C28627   4.493   4.884  -0.099  0.3919 -0.7822 -0.7669
  213MOL0     O28628   4.533   4.812  -0.210  0.2867 -0.5421  0.5516
  213MOL0     C28629   4.671   4.802  -0.254  0.6418  1.2514 -0.1687
  213MOL0     C28630   4.743   4.667  -0.214  0.7155 -0.5252 -0.0305
  213MOL0     C28631   4.796   4.656  -0.074  0.1124 -0.3850 -1.1636
  213MOL0     C28632   4.843   4.523  -0.022 -0.4005 -0.4387  1.3029
  213MOL0     C28633   4.902   4.546   0.119  0.5589  0.0773  0.2557
  213MOL0     C28634   4.806   4.612   0.228 -0.1640  0.7287 -0.0978
  213MOL0     C28635   4.670   4.534   0.245 -0.2075  0.4155 -0.5506
  213MOL0     C28636   4.580   4.591   0.345 -0.5058 -0.2444  0.4016
  213MOL0     N28637   4.448   4.527   0.336  0.7988 -0.3982  0.2146
  213MOL0     C28638   4.410   4.392   0.339  0.5788  0.8031 -0.5490
  213MOL0     C28639   4.287   4.395   0.385 -1.2832  0.4385 -1.0161
  213MOL0     C28640   4.221   4.275   0.433 -0.1032 -0.1881 -1.0193
  213MOL0     C28641   4.202   4.175   0.324 -0.1642 -0.0124 -0.0951
  213MOL0     C28642   4.101   4.220   0.212 -0.8732 -0.0347  0.2660
  213MOL0     C28643   4.085   4.132   0.089 -0.0977  1.0595  0.0379
  213MOL0     O28644   4.019   4.012   0.133 -0.1290  0.0937  0.3486
  213MOL0     C28645   3.996   3.917   0.030  0.3529  0.7648 -0.7949
  213MOL0     C28646   3.938   3.791   0.071 -0.3491 -0.3661  0.0753
  213MOL0     C28647   3.896   3.701  -0.027 -0.6681 -0.6732 -0.0070
  213MOL0     C28648   3.918   3.726  -0.161 -0.8560  0.1638 -0.5272
  213MOL0     C28649   3.883   3.621  -0.258  0.5729  0.1094 -0.4480
  213MOL0     O28650   3.870   3.497  -0.206  0.0265  0.4408 -0.1694
  213MOL0     C28651   3.802   3.397  -0.274 -0.0424 -1.2578 -0.2727
  213MOL0     C28652   3.658   3.402  -0.300  0.1223  0.0966 -0.4131
  213MOL0     C28653   3.596   3.301  -0.384 -0.7835  0.0964 -0.1051
  213MOL0     C28654   3.673   3.186  -0.419 -0.0130  0.1680 -0.2475
  213MOL0     O28655   3.603   3.077  -0.471 -0.2982 -0.6583 -0.0470
  213MOL0     C28656   3.681   2.962  -0.499 -0.1985 -0.5762 -0.1496
  213MOL0     C28657   3.586   2.852  -0.538  0.0086 -0.6451 -0.4132
  213MOL0     C28658   3.663   2.733  -0.589 -0.1121 -0.2601 -0.3216
  213MOL0     C28659   3.579   2.607  -0.565  0.4511  0.4103  0.3183
  213MOL0     C28660   3.642   2.481  -0.624 -0.1081  1.0087  0.1808
  213MOL0     C28661   3.546   2.362  -0.627  0.0127 -0.7577 -0.4483
  213MOL0     C28662   3.620   2.233  -0.686  0.0509 -0.0428 -0.5450
  213MOL0     C28663   3.530   2.109  -0.652 -1.0329 -0.7451 -1.1238
  213MOL0    Cl28664   3.592   1.944  -0.700 -0.4163  0.0006  0.3058
  213MOL0     C28665   3.811   3.183  -0.382  0.2873 -0.3472  0.1583
  213MOL0     C28666   3.872   3.290  -0.310  0.0564  1.0172  0.2736
  213MOL0     O28667   3.873   3.642  -0.379  0.3166 -0.7481  0.1596
  213MOL0     C28668   3.982   3.840  -0.201 -0.1770  0.4817  0.1564
  213MOL0     C28669   4.028   3.934  -0.107  0.0336 -0.1448  0.6889
  213MOL0     N28670   4.246   4.530   0.416  0.5127 -0.3434 -0.4781
  213MOL0     N28671   4.334   4.606   0.363 -0.0568 -0.1056  0.2189
  213MOL0     C28672   4.359   4.900  -0.095  0.2518  0.7152 -0.0483
  213MOL0     C28673   4.292   4.970   0.008  0.1655 -0.6749 -0.4123
  213MOL0     C28674   4.174   5.249   0.355  0.3352  0.1832 -0.5107
  213MOL0     C28675   4.263   5.249   0.462 -0.1710 -0.6574  1.2639
  213MOL0     C28676   4.233   5.278   0.594  0.9563 -0.4568  0.2118
  213MOL0     C28677   4.103   5.329   0.621  0.3668  0.6500 -0.1111
  213MOL0     O28678   4.091   5.368   0.748  0.1804  0.0263  0.4053
  213MOL0     C28679   3.952   5.390   0.798 -0.6119 -0.0489 -0.6002
  213MOL0     C28680   3.947   5.349   0.945  0.2225  0.1896  0.0475
  213MOL0     C28681   4.041   5.430   1.035 -0.3928  0.6161  0.3442
  213MOL0     C28682   4.012   5.393   1.182  0.3069  0.8065 -0.5710
  213MOL0     C28683   3.884   5.445   1.228 -0.4708  0.3348  1.5476
  213MOL0     C28684   3.775   5.484   1.249  0.7285 -0.7508  0.0220
  213MOL0     C28685   4.010   5.331   0.516  0.4847 -0.1231  0.3650
  213MOL0     C28686   4.042   5.298   0.381 -0.7584 -0.6046  0.1279
  213MOL0     C28687   3.940   5.325   0.275 -0.4277  0.2597  0.1503
  213MOL0     H28688   4.552   5.080   0.185  2.9556  2.2003 -2.2373
  213MOL0     H28689   4.675   4.926   0.034 -0.1611 -1.1977 -0.1821
  213MOL0     H28690   4.668   4.814  -0.363  3.6163 -1.4014 -0.6883
  213MOL0     H28691   4.728   4.891  -0.225  0.9177  1.5018 -1.4301
  213MOL0     H28692   4.835   4.665  -0.274  0.7264  2.6903 -0.3101
  213MOL0     H28693   4.686   4.578  -0.242  1.0132 -1.5311  2.2630
  213MOL0     H28694   4.712   4.693  -0.015  0.7872  3.5635 -2.4035
  213MOL0     H28695   4.868   4.737  -0.064  0.4938 -1.0510  3.5903
  213MOL0     H28696   4.758   4.455  -0.016  0.3359 -1.2885  3.4271
  213MOL0     H28697   4.921   4.481  -0.085  0.5495  3.7594 -0.7105
  213MOL0     H28698   4.927   4.448   0.161 -2.8721 -0.6436  0.8929
  213MOL0     H28699   4.987   4.612   0.100 -0.0432  0.3754 -1.6726
  213MOL0     H28700   4.849   4.618   0.329 -2.6845 -3.2759  1.4331
  213MOL0     H28701   4.797   4.720   0.211  1.7281  0.5511 -2.8802
  213MOL0     H28702   4.694   4.432   0.277 -2.0988 -0.0235 -0.4176
  213MOL0     H28703   4.623   4.536   0.146  2.3731  2.7621 -1.8765
  213MOL0     H28704   4.628   4.581   0.443  0.3943  3.3425  0.4480
  213MOL0     H28705   4.566   4.698   0.330  0.9270 -0.1284 -0.3074
  213MOL0     H28706   4.463   4.298   0.330 -0.5299 -0.0856  1.4505
  213MOL0     H28707   4.270   4.231   0.520 -0.7086 -0.4643 -0.8165
  213MOL0     H28708   4.125   4.310   0.471 -1.6628 -1.9567 -3.0309
  213MOL0     H28709   4.299   4.158   0.276  0.0831  2.0838 -0.4330
  213MOL0     H28710   4.162   4.082   0.365  2.0775 -1.4158 -0.8973
  213MOL0     H28711   4.131   4.318   0.175 -1.0917 -0.4422 -1.0428
  213MOL0     H28712   4.007   4.220   0.269 -1.0122  0.3403  0.0380
  213MOL0     H28713   4.187   4.114   0.054 -1.0272 -2.3071 -1.3574
  213MOL0     H28714   4.030   4.182   0.009  0.7499  1.6736 -0.1697
  213MOL0     H28715   3.922   3.779   0.177 -2.2583  2.8930  0.2928
  213MOL0     H28716   3.838   3.612  -0.005 -3.0387 -0.1666 -3.4595
  213MOL0     H28717   3.604   3.491  -0.271 -1.0150 -1.0277  1.0904
  213MOL0     H28718   3.490   3.317  -0.395 -1.1354 -1.1714  1.1453
  213MOL0     H28719   3.756   2.978  -0.577  0.5323 -3.3890 -0.1198
  213MOL0     H28720   3.735   2.937  -0.407  0.1269  2.3721  0.5621
  213MOL0     H28721   3.523   2.824  -0.453  0.0412  0.8197  0.1326
  213MOL0     H28722   3.507   2.885  -0.606  0.1605 -0.7178 -0.6253
  213MOL0     H28723   3.695   2.743  -0.693  0.3045 -3.1594 -0.5477
  213MOL0     H28724   3.748   2.721  -0.522  1.1248  1.1253 -1.5774
  213MOL0     H28725   3.481   2.622  -0.610  0.9550  5.0149  0.2487
  213MOL0     H28726   3.571   2.593  -0.456 -0.8288  1.5266  0.3967
  213MOL0     H28727   3.730   2.459  -0.562  0.6967 -1.9506 -1.8007
  213MOL0     H28728   3.684   2.501  -0.723 -2.4415  2.7243 -0.5591
  213MOL0     H28729   3.506   2.341  -0.527 -2.5882  0.0340 -1.2513
  213MOL0     H28730   3.460   2.387  -0.689 -0.9249  1.0143  1.4187
  213MOL0     H28731   3.722   2.218  -0.648  0.4573 -0.3456 -1.7088
  213MOL0     H28732   3.628   2.233  -0.795  0.8403 -0.8454 -0.4985
  213MOL0     H28733   3.523   2.100  -0.543  0.6320 -2.0506 -1.1032
  213MOL0     H28734   3.447   2.146  -0.714 -0.0378 -0.4856 -2.3329
  213MOL0     H28735   3.872   3.101  -0.417  0.5867  1.3261 -3.8187
  213MOL0     H28736   3.977   3.288  -0.283 -0.7806  0.7692  4.0963
  213MOL0     H28737   4.004   3.852  -0.306 -1.0521 -0.0700 -0.1007
  213MOL0     H28738   4.078   4.023  -0.144  1.0340  0.4129  3.1984
  213MOL0     H28739   4.306   4.858  -0.180 -0.2157  0.8404  0.1763
  213MOL0     H28740   4.185   4.981   0.017  0.1004 -0.5177 -1.3009
  213MOL0     H28741   4.364   5.217   0.436 -0.4455 -0.2878 -0.3266
  213MOL0     H28742   4.317   5.268   0.663 -0.2937 -2.0123  1.6050
  213MOL0     H28743   3.866   5.341   0.751  0.0149 -0.7871 -1.0028
  213MOL0     H28744   3.929   5.497   0.790 -3.1985 -0.6451 -3.0071
  213MOL0     H28745   3.967   5.244   0.967  0.8265  0.7274  2.2971
  213MOL0     H28746   3.845   5.362   0.983 -0.4670 -4.8796  0.5900
  213MOL0     H28747   4.050   5.538   1.028  1.2921  0.5029  0.1340
  213MOL0     H28748   4.141   5.398   1.003 -0.5203  0.3370  0.2216
  213MOL0     H28749   4.018   5.284   1.188 -3.0983  0.5555  0.3864
  213MOL0     H28750   4.092   5.434   1.244  2.3869 -1.4864 -1.5562
  213MOL0     H28751   3.681   5.535   1.259  1.6352  0.6262  2.3488
  213MOL0     H28752   3.910   5.367   0.536  1.9973  3.4936  2.2909
  213MOL0     H28753   3.886   5.234   0.246 -3.5993  1.4300  1.9208
  213MOL0     H28754   3.866   5.399   0.305 -0.4358  0.8542 -1.2811
  213MOL0     H28755   3.985   5.368   0.186 -1.6876 -1.2668 -1.3004
  214MOL0     O28756   9.738   0.105   9.589  0.2285 -0.1432 -0.0741
  214MOL0     C28757   9.668   0.127   9.691  0.0436  0.4865  0.2913
  214MOL0     O28758   9.692   0.076   9.822  0.3471 -0.3331  0.5154
  214MOL0     C28759   9.785  -0.030   9.809  0.3370 -1.1420  0.4567
  214MOL0     C28760   9.751  -0.168   9.785 -0.1171  0.1789  0.2272
  214MOL0     C28761   9.839  -0.276   9.800 -0.3768  0.0727  0.6564
  214MOL0     C28762   9.964  -0.239   9.842 -0.5374  0.1499 -0.3627
  214MOL0     O28763  10.051  -0.345   9.871  0.1703  0.1775 -1.2538
  214MOL0     C28764  10.130  -0.382   9.760  0.0289 -0.3413  0.2990
  214MOL0     C28765  10.282  -0.360   9.812  0.8413 -0.2442  0.9537
  214MOL0     C28766  10.396  -0.382   9.711  0.8417  1.0034 -0.3976
  214MOL0     C28767  10.413  -0.537   9.687  0.5053 -0.2141 -0.2185
  214MOL0     C28768  10.535  -0.566   9.595 -1.1816  0.4526  0.1569
  214MOL0     C28769  10.679  -0.560   9.666 -0.2918  0.2385 -0.8590
  214MOL0     C28770  10.781  -0.652   9.601 -0.3902 -0.3012 -0.1213
  214MOL0     C28771  10.917  -0.586   9.593  1.0071 -0.6849 -0.1698
  214MOL0     N28772  11.007  -0.645   9.497 -1.2286  0.3840  0.0081
  214MOL0     C28773  11.123  -0.584   9.470  0.6688 -0.3589 -0.3965
  214MOL0     C28774  11.174  -0.670   9.376  0.0052 -0.3235  0.3575
  214MOL0     C28775  11.306  -0.652   9.314 -0.1729 -0.1905 -0.2793
  214MOL0     C28776  11.405  -0.747   9.380  0.3904  0.0547  0.5633
  214MOL0     C28777  11.390  -0.890   9.326  0.2421  0.2876  0.0888
  214MOL0     C28778  11.444  -0.982   9.434 -0.6070  0.2976  0.6756
  214MOL0     O28779  11.359  -0.989   9.550 -0.1795 -0.6426  0.3930
  214MOL0     C28780  11.238  -1.046   9.525 -1.3564 -0.6410 -0.4109
  214MOL0     C28781  11.134  -1.003   9.599  0.5750  0.4847 -0.2489
  214MOL0     C28782  11.015  -1.078   9.601 -0.2845  0.6973  0.3317
  214MOL0     C28783  10.985  -1.180   9.507 -0.2210 -0.0060 -0.2907
  214MOL0     C28784  10.862  -1.261   9.515 -0.2630 -0.5587  0.3597
  214MOL0     O28785  10.804  -1.319   9.402 -0.7369 -0.2709  0.5915
  214MOL0     C28786  10.696  -1.400   9.416  0.6658  0.4565 -1.0729
  214MOL0     C28787  10.692  -1.505   9.508 -0.2405  0.6584  0.1447
  214MOL0     C28788  10.585  -1.593   9.520  0.8350 -0.1935  0.2724
  214MOL0     C28789  10.485  -1.584   9.426  1.0006 -0.4242 -0.3498
  214MOL0     O28790  10.368  -1.656   9.429  0.2573  0.9304 -0.5941
  214MOL0     C28791  10.383  -1.798   9.480  0.7545 -0.7102  0.2171
  214MOL0     C28792  10.249  -1.873   9.456 -1.1136  0.6151  0.0305
  214MOL0     C28793  10.127  -1.802   9.510 -0.4302 -0.2487 -0.3512
  214MOL0     C28794   9.999  -1.884   9.484 -0.6401  0.5430 -0.0363
  214MOL0     C28795   9.868  -1.796   9.519 -0.7643  0.3395 -0.2080
  214MOL0     C28796   9.859  -1.752   9.667 -0.5617  0.0356  0.6078
  214MOL0     C28797   9.727  -1.667   9.675  0.7716 -0.2707  0.4534
  214MOL0     C28798   9.713  -1.623   9.818 -0.2231 -0.4563 -0.8644
  214MOL0    Cl28799   9.574  -1.524   9.817 -0.0474 -0.0560  0.1752
  214MOL0     C28800  10.490  -1.486   9.324 -0.8130 -0.1043 -0.6919
  214MOL0     C28801  10.604  -1.399   9.316  0.6618  0.6350 -0.2103
  214MOL0     O28802  10.804  -1.265   9.622  0.1254  0.3066  0.4570
  214MOL0     C28803  11.083  -1.213   9.411  0.6501 -0.7041  0.0088
  214MOL0     C28804  11.208  -1.148   9.422 -0.0956 -0.4471 -0.3133
  214MOL0     N28805  11.084  -0.769   9.334  0.8324 -0.6073 -0.0216
  214MOL0     N28806  10.991  -0.757   9.428 -0.2807 -0.5783  0.4590
  214MOL0     C28807  10.006  -0.110   9.865  0.5623  0.5232  0.8972
  214MOL0     C28808   9.920  -0.001   9.842 -0.0111  0.4943  0.3676
  214MOL0     C28809   9.541   0.201   9.689  0.5506 -1.0983 -0.8282
  214MOL0     C28810   9.472   0.224   9.814 -0.0101 -0.0870 -0.8112
  214MOL0     C28811   9.342   0.279   9.817 -0.1212 -0.0320 -0.1178
  214MOL0     C28812   9.280   0.317   9.705  0.1709  0.1278 -0.1422
  214MOL0     O28813   9.154   0.356   9.717  0.1489  0.5676 -0.1827
  214MOL0     C28814   9.105   0.492   9.674  0.5525  0.2821  0.2965
  214MOL0     C28815   9.100   0.603   9.783 -0.4198  1.2305  0.1876
  214MOL0     C28816   9.064   0.733   9.708 -0.2197  0.4141 -0.0490
  214MOL0     C28817   9.181   0.791   9.623  0.2481 -0.8339  0.0331
  214MOL0     C28818   9.288   0.820   9.708 -0.4105  0.4041 -0.0212
  214MOL0     C28819   9.370   0.861   9.784  0.1396  0.7228 -0.3166
  214MOL0     C28820   9.334   0.277   9.578  0.6722 -0.3431 -0.1451
  214MOL0     C28821   9.460   0.219   9.568  0.3269 -0.0100 -0.3904
  214MOL0     C28822   9.491   0.164   9.431  0.2350  0.2057  0.3858
  214MOL0     H28823   9.649  -0.192   9.757 -1.1321  1.2394  2.6211
  214MOL0     H28824   9.810  -0.380   9.785  2.6473 -0.9829  1.2619
  214MOL0     H28825  10.107  -0.489   9.749  1.0277 -0.5360 -0.0435
  214MOL0     H28826  10.104  -0.332   9.666 -0.9074  2.8869  2.1408
  214MOL0     H28827  10.289  -0.428   9.897 -1.8741 -2.9628 -0.7839
  214MOL0     H28828  10.297  -0.261   9.857  0.0010  0.2894  0.1013
  214MOL0     H28829  10.488  -0.337   9.749  2.0834 -2.0252  0.5222
  214MOL0     H28830  10.366  -0.347   9.611 -1.6038 -2.8368 -1.2422
  214MOL0     H28831  10.428  -0.585   9.784  0.3907  2.3486  1.1551
  214MOL0     H28832  10.320  -0.578   9.647  0.2237  0.2272 -0.0256
  214MOL0     H28833  10.510  -0.666   9.557 -0.7373  0.4706 -0.1929
  214MOL0     H28834  10.529  -0.505   9.504 -1.6069  0.1770  0.0007
  214MOL0     H28835  10.706  -0.454   9.663  1.0762 -0.0870 -0.7125
  214MOL0     H28836  10.660  -0.601   9.766 -0.6665 -2.5623 -1.9964
  214MOL0     H28837  10.743  -0.661   9.499 -1.4820  1.3526  0.0834
  214MOL0     H28838  10.787  -0.745   9.657  1.8555 -1.1914 -1.7019
  214MOL0     H28839  10.903  -0.480   9.572 -0.8125 -1.1646 -1.6400
  214MOL0     H28840  10.959  -0.600   9.693 -1.8452 -2.0459  0.9778
  214MOL0     H28841  11.173  -0.501   9.519  0.9088 -0.7383  0.0123
  214MOL0     H28842  11.297  -0.675   9.207 -3.5503  0.4062 -0.2192
  214MOL0     H28843  11.334  -0.550   9.343 -2.7805  0.2635  0.8497
  214MOL0     H28844  11.511  -0.723   9.373  1.0668 -2.5912  0.5817
  214MOL0     H28845  11.381  -0.744   9.486 -1.7424 -0.3329  0.1496
  214MOL0     H28846  11.445  -0.895   9.232 -0.8778  1.6463 -0.6893
  214MOL0     H28847  11.288  -0.913   9.294  1.5524 -3.6756 -1.9227
  214MOL0     H28848  11.546  -0.960   9.468  0.1189 -1.7918 -0.0043
  214MOL0     H28849  11.457  -1.079   9.386  0.7880  2.2710 -3.4464
  214MOL0     H28850  11.159  -0.924   9.669  2.1859  0.2231 -0.4784
  214MOL0     H28851  10.949  -1.049   9.682 -0.4692  0.4863  0.2571
  214MOL0     H28852  10.765  -1.515   9.588  0.4406 -0.5680 -0.6091
  214MOL0     H28853  10.573  -1.661   9.603 -0.2056  1.2392  1.3457
  214MOL0     H28854  10.464  -1.844   9.423  1.2965 -1.0412  1.2335
  214MOL0     H28855  10.405  -1.803   9.587 -0.2601 -0.4085  0.4525
  214MOL0     H28856  10.238  -1.861   9.348  1.4228  4.1483  0.0005
  214MOL0     H28857  10.265  -1.979   9.475  2.6907  1.2349  1.0776
  214MOL0     H28858  10.143  -1.762   9.610  2.5237 -1.0161 -0.4239
  214MOL0     H28859  10.117  -1.703   9.465 -1.5984  1.2671  2.8913
  214MOL0     H28860  10.003  -1.981   9.534 -1.3708  0.1876 -0.6331
  214MOL0     H28861   9.991  -1.911   9.378 -1.6943  0.7409 -0.0262
  214MOL0     H28862   9.776  -1.851   9.496 -0.1319 -0.0653 -1.9322
  214MOL0     H28863   9.866  -1.708   9.455 -0.8072 -1.5648 -3.0484
  214MOL0     H28864   9.846  -1.845   9.724 -0.0723 -1.3746 -1.4537
  214MOL0     H28865   9.945  -1.694   9.703 -0.0144 -1.2196  1.4020
  214MOL0     H28866   9.647  -1.729   9.633 -0.2668  2.2092 -1.4964
  214MOL0     H28867   9.737  -1.577   9.614 -0.9980 -0.2860  0.0763
  214MOL0     H28868   9.703  -1.718   9.871 -0.4831  1.4046  2.7383
  214MOL0     H28869   9.801  -1.568   9.852  1.0165 -0.1416 -4.2378
  214MOL0     H28870  10.421  -1.481   9.240 -1.2434 -1.5291 -0.4455
  214MOL0     H28871  10.614  -1.336   9.228 -2.4840  2.6563  0.6939
  214MOL0     H28872  11.075  -1.303   9.352 -1.1129  0.9379 -2.4535
  214MOL0     H28873  11.287  -1.166   9.350  2.3335  0.9848  1.8582
  214MOL0     H28874  10.100  -0.070   9.903  1.0738  1.2944 -1.0461
  214MOL0     H28875   9.946   0.103   9.856  0.5845  0.0726  3.0512
  214MOL0     H28876   9.511   0.212   9.915 -5.1146 -2.5271  1.2484
  214MOL0     H28877   9.297   0.301   9.914  0.1262 -2.6825  0.6831
  214MOL0     H28878   9.006   0.490   9.628  0.4752 -2.8913  0.3577
  214MOL0     H28879   9.174   0.524   9.596 -0.3539  0.6334 -0.3726
  214MOL0     H28880   9.196   0.606   9.836  1.3406  0.5931 -2.7728
  214MOL0     H28881   9.014   0.572   9.843 -0.7308  1.0130 -0.3625
  214MOL0     H28882   9.032   0.809   9.779 -0.4794 -1.3573  1.8029
  214MOL0     H28883   8.975   0.714   9.646 -0.8014 -1.2992  1.2381
  214MOL0     H28884   9.216   0.727   9.542  0.3344 -0.2232 -0.4217
  214MOL0     H28885   9.141   0.878   9.570  2.2726 -1.0554 -2.0155
  214MOL0     H28886   9.438   0.901   9.857  0.7789  0.2718 -0.6575
  214MOL0     H28887   9.277   0.303   9.490  3.0370  1.2617 -1.2909
  214MOL0     H28888   9.550   0.233   9.370  0.6268 -1.9675 -1.8670
  214MOL0     H28889   9.547   0.070   9.441  0.5722  0.5067  1.4493
  214MOL0     H28890   9.396   0.139   9.383 -1.3960  4.4084  0.9890
  215MOL0     O28891   9.117   9.743   5.897  0.1621 -0.2725  0.2014
  215MOL0     C28892   9.064   9.766   6.002  0.1806  0.4765 -0.0106
  215MOL0     O28893   9.128   9.815   6.112  0.1843 -0.5247  0.1970
  215MOL0     C28894   9.261   9.851   6.102 -0.2819  0.3036  0.4737
  215MOL0     C28895   9.349   9.802   6.197  0.5850 -0.8659 -0.7749
  215MOL0     C28896   9.487   9.841   6.196 -0.3650  0.4240  0.0481
  215MOL0     C28897   9.538   9.931   6.107  1.5245  0.1205  1.0459
  215MOL0     O28898   9.670   9.965   6.095 -0.0901 -0.2017 -0.5203
  215MOL0     C28899   9.751   9.917   6.196 -0.0048  0.4684 -0.3173
  215MOL0     C28900   9.872  10.006   6.189  0.2555  1.3358  0.4349
  215MOL0     C28901   9.974   9.966   6.303 -0.1125 -0.4813 -0.3958
  215MOL0     C28902  10.083  10.074   6.320 -0.5721 -0.2161  0.6593
  215MOL0     C28903  10.198  10.031   6.416  0.5049 -0.0627 -0.7290
  215MOL0     C28904  10.285  10.156   6.453 -0.5828  0.7511 -0.0681
  215MOL0     C28905  10.386  10.124   6.552 -0.4319 -1.4758  0.4182
  215MOL0     C28906  10.477  10.247   6.614 -0.0346  1.4186 -0.2544
  215MOL0     N28907  10.568  10.328   6.522  1.2328  0.7858  0.5438
  215MOL0     C28908  10.675  10.411   6.556 -0.4263 -0.3053 -0.0578
  215MOL0     C28909  10.728  10.453   6.437  0.2774  1.1533 -0.3071
  215MOL0     C28910  10.858  10.537   6.425  0.4549  0.9526  0.8934
  215MOL0     C28911  10.984  10.454   6.442  1.3587  0.2645  0.0290
  215MOL0     C28912  10.993  10.318   6.369 -0.2794  0.4297  0.0954
  215MOL0     C28913  11.097  10.223   6.422 -0.3479  0.7162 -0.0547
  215MOL0     O28914  11.230  10.283   6.450 -0.3452 -0.1966  0.5664
  215MOL0     C28915  11.305  10.275   6.340 -0.1470 -0.7224 -0.8684
  215MOL0     C28916  11.384  10.161   6.321  0.0707 -0.2462  0.7088
  215MOL0     C28917  11.486  10.158   6.228 -0.2143 -0.0753 -0.4586
  215MOL0     C28918  11.503  10.269   6.149  0.6352  0.1835  0.0385
  215MOL0     C28919  11.610  10.270   6.044  0.3424 -0.1017 -0.0113
  215MOL0     O28920  11.631  10.148   5.978 -0.3491 -0.6732 -0.1263
  215MOL0     C28921  11.710  10.150   5.862  0.6123  0.2309  0.8067
  215MOL0     C28922  11.777  10.033   5.834  0.1691  0.4861 -0.6854
  215MOL0     C28923  11.849  10.013   5.714  0.1394  0.7242 -0.1632
  215MOL0     C28924  11.855  10.115   5.617 -0.3482 -0.1197 -0.4715
  215MOL0     O28925  11.916  10.113   5.498  0.0931  1.1889  0.0221
  215MOL0     C28926  12.002   9.998   5.466  0.4754  0.2826 -0.8452
  215MOL0     C28927  12.052  10.032   5.328 -0.7178 -0.4916  0.0424
  215MOL0     C28928  11.949  10.052   5.211  0.1569  0.8227  0.3133
  215MOL0     C28929  11.878   9.921   5.172 -0.1831  0.4422 -1.2408
  215MOL0     C28930  11.786   9.936   5.043  0.9644  0.6114  0.1093
  215MOL0     C28931  11.857   9.967   4.917 -0.5910  0.1657 -0.7617
  215MOL0     C28932  11.757   9.985   4.802 -0.8174 -0.6495 -0.0976
  215MOL0     C28933  11.714   9.850   4.757 -0.7059 -0.2936 -0.3871
  215MOL0    Cl28934  11.626   9.841   4.600  0.5079  0.2545  0.2858
  215MOL0     C28935  11.786  10.235   5.650 -0.2047  0.1018  0.6355
  215MOL0     C28936  11.714  10.246   5.765 -0.1659 -0.7387  0.0620
  215MOL0     O28937  11.678  10.373   6.026  0.7328  0.2207  0.3205
  215MOL0     C28938  11.429  10.385   6.167 -0.0344  0.3375 -0.1407
  215MOL0     C28939  11.321  10.385   6.259 -0.2285 -0.5385 -0.0842
  215MOL0     N28940  10.647  10.400   6.336 -0.7249  0.0594  0.3481
  215MOL0     N28941  10.560  10.322   6.386  1.0555 -0.4405 -0.4470
  215MOL0     C28942   9.447   9.987   6.008  0.2021  1.0157  0.3392
  215MOL0     C28943   9.308   9.947   6.011 -0.4713 -0.7998 -0.2530
  215MOL0     C28944   8.913   9.757   6.014  0.2729 -0.6911  0.1901
  215MOL0     C28945   8.855   9.770   6.144  0.4900  0.6856 -0.3122
  215MOL0     C28946   8.719   9.739   6.164 -1.0998 -0.5302 -0.7936
  215MOL0     C28947   8.636   9.704   6.060 -0.8822  0.9696 -0.4412
  215MOL0     O28948   8.504   9.687   6.074  0.1399  0.0457 -0.5923
  215MOL0     C28949   8.415   9.625   5.985  0.6093  0.1161 -0.2288
  215MOL0     C28950   8.414   9.474   5.991  0.4287 -0.4985  0.1484
  215MOL0     C28951   8.414   9.411   6.132  0.4413  0.1856 -0.0999
  215MOL0     C28952   8.268   9.413   6.180 -0.5833  0.6409  0.0716
  215MOL0     C28953   8.256   9.352   6.316 -0.0619  0.0037 -0.0945
  215MOL0     C28954   8.240   9.315   6.428 -0.1764  0.2439  0.3772
  215MOL0     C28955   8.694   9.702   5.931 -0.4372 -0.1939  0.5098
  215MOL0     C28956   8.830   9.731   5.904  0.7708 -0.3750  0.5649
  215MOL0     C28957   8.884   9.730   5.766 -0.6858 -0.3225  0.2357
  215MOL0     H28958   9.313   9.724   6.263 -1.1546  0.4254 -0.1170
  215MOL0     H28959   9.549   9.777   6.258  1.1097 -0.0058 -1.7660
  215MOL0     H28960   9.705   9.916   6.295 -1.1139 -2.0147 -0.7975
  215MOL0     H28961   9.761   9.811   6.173  0.9001  0.6851 -1.0032
  215MOL0     H28962   9.830  10.107   6.192  0.5817  1.4562  1.4500
  215MOL0     H28963   9.920   9.996   6.092 -1.5664  1.3688 -0.5183
  215MOL0     H28964  10.024   9.876   6.265 -0.1213 -0.8953  0.5601
  215MOL0     H28965   9.930   9.938   6.399  1.1435  0.4555  0.4869
  215MOL0     H28966  10.122  10.089   6.219 -0.1146 -0.3353  0.8158
  215MOL0     H28967  10.044  10.170   6.356 -2.1645 -0.0885 -1.2639
  215MOL0     H28968  10.144   9.999   6.506 -1.2585  0.8420 -1.4296
  215MOL0     H28969  10.257   9.948   6.375 -1.0125 -1.5981  0.0086
  215MOL0     H28970  10.322  10.188   6.356 -0.4717  0.7918 -0.0122
  215MOL0     H28971  10.221  10.234   6.497  2.3529  1.8364  2.7221
  215MOL0     H28972  10.456  10.051   6.513 -0.4415 -2.1585  1.6347
  215MOL0     H28973  10.328  10.090   6.639 -2.3282  0.3222 -0.0405
  215MOL0     H28974  10.410  10.320   6.661  1.1333  2.8858 -0.7659
  215MOL0     H28975  10.546  10.198   6.684  3.1885 -0.6851 -4.4391
  215MOL0     H28976  10.709  10.432   6.657 -1.8632  0.3690  0.3036
  215MOL0     H28977  10.852  10.593   6.331 -0.1996  0.2337  0.4875
  215MOL0     H28978  10.861  10.611   6.505  1.9283  0.7673  1.0307
  215MOL0     H28979  11.076  10.504   6.410  2.5761 -1.1297  1.1895
  215MOL0     H28980  10.987  10.433   6.549  0.4483 -0.9999 -0.1712
  215MOL0     H28981  11.015  10.338   6.263 -1.8002 -1.6820 -0.6844
  215MOL0     H28982  10.897  10.266   6.369 -0.4471  0.7113  1.2816
  215MOL0     H28983  11.092  10.138   6.353 -0.5956 -0.4044  1.2911
  215MOL0     H28984  11.081  10.184   6.523  0.6516 -0.5831 -0.3631
  215MOL0     H28985  11.358  10.081   6.389 -4.7168  1.2269  1.0169
  215MOL0     H28986  11.544  10.067   6.217 -2.2136 -1.5642  0.6537
  215MOL0     H28987  11.785   9.952   5.906  3.9452  0.0561 -1.3808
  215MOL0     H28988  11.900   9.919   5.696 -1.7076 -0.7584  1.8314
  215MOL0     H28989  12.089   9.980   5.530  0.1908 -0.7009 -0.7119
  215MOL0     H28990  11.940   9.908   5.457 -1.8900  1.9120 -1.7990
  215MOL0     H28991  12.119  10.118   5.334  1.7675 -2.2714 -0.3811
  215MOL0     H28992  12.121   9.951   5.304  1.2775  0.0790  3.3269
  215MOL0     H28993  11.880  10.136   5.226 -1.5007  0.2378 -3.0888
  215MOL0     H28994  12.017  10.079   5.130 -0.3082 -2.4340 -1.3276
  215MOL0     H28995  11.825   9.868   5.251  2.2341  2.2311  1.8034
  215MOL0     H28996  11.958   9.849   5.152 -0.6609 -1.1008  1.8369
  215MOL0     H28997  11.722  10.023   5.062  0.5195  0.1499  0.7483
  215MOL0     H28998  11.732   9.841   5.037  0.4198  0.8413  1.0807
  215MOL0     H28999  11.909  10.063   4.912 -3.0536  1.6906  0.8435
  215MOL0     H29000  11.934   9.895   4.888 -1.9989 -1.6483 -0.2369
  215MOL0     H29001  11.815  10.032   4.721  0.8457 -2.1596  0.1526
  215MOL0     H29002  11.680  10.057   4.831 -0.2531  0.8391 -2.0746
  215MOL0     H29003  11.803   9.786   4.764  1.3674  2.1936 -2.1817
  215MOL0     H29004  11.644   9.807   4.829  1.4489 -0.2841  1.8570
  215MOL0     H29005  11.776  10.312   5.575 -0.7338  0.0345  0.6303
  215MOL0     H29006  11.647  10.331   5.775 -0.7893 -0.6964 -3.2010
  215MOL0     H29007  11.449  10.465   6.096  2.5403 -2.2193 -2.5613
  215MOL0     H29008  11.261  10.474   6.276  0.1051 -0.1530 -0.9041
  215MOL0     H29009   9.478  10.065   5.939  2.5402  2.4373  2.7957
  215MOL0     H29010   9.242   9.996   5.941 -1.0131 -1.2228 -0.0367
  215MOL0     H29011   8.911   9.782   6.237 -2.3832 -2.0673  1.9893
  215MOL0     H29012   8.676   9.745   6.263  1.4253 -1.1120  0.4396
  215MOL0     H29013   8.438   9.652   5.881 -1.5134 -3.1260 -1.7160
  215MOL0     H29014   8.314   9.662   6.003  1.5608  2.4910  0.5531
  215MOL0     H29015   8.512   9.446   5.950  1.3281  0.2893  1.6510
  215MOL0     H29016   8.339   9.435   5.921  0.8293 -1.0937  0.0377
  215MOL0     H29017   8.479   9.460   6.204 -1.9869  1.7392  1.1902
  215MOL0     H29018   8.446   9.307   6.136  0.0640  0.0428  4.3941
  215MOL0     H29019   8.217   9.510   6.173  1.5286  1.7857 -0.2799
  215MOL0     H29020   8.205   9.348   6.118 -3.5714  2.3939  1.0745
  215MOL0     H29021   8.234   9.273   6.526  0.8917 -1.9135 -0.4192
  215MOL0     H29022   8.640   9.691   5.837  0.7735  3.3640 -0.7518
  215MOL0     H29023   8.954   9.647   5.755 -0.0344  0.2214  0.1979
  215MOL0     H29024   8.809   9.724   5.686  1.1599  2.3424 -1.9029
  215MOL0     H29025   8.931   9.826   5.741  2.5899 -1.7590  0.4130
  216MOL0     O29026  10.493  10.372   3.862  0.1301  0.3476  0.3110
  216MOL0     C29027  10.594  10.337   3.808 -0.4862 -0.0605 -0.2191
  216MOL0     O29028  10.605  10.283   3.677 -0.3811 -0.0126 -0.1554
  216MOL0     C29029  10.496  10.277   3.600 -0.4567  0.3833  0.0441
  216MOL0     C29030  10.411  10.167   3.617 -0.4474  0.3097  0.1459
  216MOL0     C29031  10.292  10.164   3.543 -0.5240  0.6234  0.1056
  216MOL0     C29032  10.254  10.268   3.462  0.3288 -0.1160 -0.2035
  216MOL0     O29033  10.126  10.259   3.434  0.1897 -0.0638 -0.5362
  216MOL0     C29034  10.086  10.346   3.327 -0.1287 -0.1791  0.1613
  216MOL0     C29035   9.938  10.313   3.294 -0.0396 -0.1378 -0.5413
  216MOL0     C29036   9.835  10.379   3.392 -0.0219 -0.3258 -0.3307
  216MOL0     C29037   9.689  10.355   3.351 -0.2475  0.0474 -0.8615
  216MOL0     C29038   9.628  10.248   3.440 -0.5869 -0.6402  0.7041
  216MOL0     C29039   9.475  10.217   3.404  0.4024  0.0430 -0.4036
  216MOL0     C29040   9.442  10.256   3.262  0.1384  0.0133  0.3076
  216MOL0     C29041   9.485  10.142   3.165  0.2960  0.0229 -0.7248
  216MOL0     N29042   9.460  10.193   3.024  0.4545  0.7849  0.8203
  216MOL0     C29043   9.539  10.274   2.946  0.6012 -0.2395  0.1421
  216MOL0     C29044   9.461  10.318   2.838  0.1315  0.4563 -0.4023
  216MOL0     C29045   9.488  10.404   2.725  0.5463  0.8833 -1.1722
  216MOL0     C29046   9.516  10.550   2.757 -0.4623 -0.9749 -0.4713
  216MOL0     C29047   9.543  10.629   2.630  0.4373  0.3091 -0.1828
  216MOL0     C29048   9.578  10.771   2.647 -0.0346 -0.1023 -0.4138
  216MOL0     O29049   9.698  10.772   2.730  0.0104 -0.2532 -0.2383
  216MOL0     C29050   9.742  10.893   2.777  0.3926 -0.7940  0.5779
  216MOL0     C29051   9.856  10.901   2.856 -0.5566 -0.8214  0.1772
  216MOL0     C29052   9.902  11.021   2.917  0.1435  0.4231  0.4334
  216MOL0     C29053   9.833  11.137   2.904 -0.1081 -0.2944 -0.6719
  216MOL0     C29054   9.878  11.269   2.965 -0.3546  0.5730 -0.4562
  216MOL0     O29055   9.999  11.262   3.034  0.1209  0.0166  0.3323
  216MOL0     C29056  10.056  11.376   3.081 -0.3405 -1.0677 -0.2189
  216MOL0     C29057  10.134  11.453   3.001 -0.7846 -0.2868  0.1188
  216MOL0     C29058  10.186  11.578   3.041 -0.5026  0.5937 -0.4709
  216MOL0     C29059  10.160  11.615   3.176 -0.1159  0.7818 -0.6298
  216MOL0     O29060  10.222  11.725   3.227  0.1865 -0.5081  0.1077
  216MOL0     C29061  10.229  11.845   3.139 -0.9988 -0.4259 -0.8156
  216MOL0     C29062  10.247  11.965   3.227 -0.3978 -0.3177 -0.2441
  216MOL0     C29063  10.383  11.972   3.283 -0.7460 -0.3818  0.7084
  216MOL0     C29064  10.388  12.119   3.350  0.4913  0.2402  0.3171
  216MOL0     C29065  10.523  12.133   3.418 -0.3118 -0.2561  0.9184
  216MOL0     C29066  10.519  12.084   3.561 -0.4810  0.6436 -0.1795
  216MOL0     C29067  10.663  12.089   3.615 -0.1430  0.8544  0.7222
  216MOL0     C29068  10.684  12.047   3.757  0.4093 -0.8245 -0.9468
  216MOL0    Cl29069  10.853  12.091   3.806  0.0799 -0.4537 -0.1054
  216MOL0     C29070  10.085  11.530   3.258  0.4779 -0.1149  0.5375
  216MOL0     C29071  10.027  11.411   3.212 -0.6343 -0.0044  0.0081
  216MOL0     O29072   9.816  11.365   2.939  0.5234 -0.7990 -0.2939
  216MOL0     C29073   9.703  11.132   2.841 -0.8355  0.5998 -0.4736
  216MOL0     C29074   9.668  11.016   2.775 -0.2570 -0.5865  0.1608
  216MOL0     N29075   9.348  10.242   2.838 -0.0045 -0.0999 -0.6063
  216MOL0     N29076   9.343  10.182   2.946 -0.6053  0.4698 -0.0091
  216MOL0     C29077  10.330  10.381   3.444  0.3219  0.0393  0.1731
  216MOL0     C29078  10.451  10.388   3.516  0.2456 -0.4422 -0.2278
  216MOL0     C29079  10.721  10.341   3.881 -0.1450 -0.3966 -1.1746
  216MOL0     C29080  10.846  10.318   3.811 -0.0277 -0.3611 -0.1770
  216MOL0     C29081  10.972  10.335   3.862  1.4728 -0.1369 -0.5822
  216MOL0     C29082  10.980  10.394   3.992  0.2754  0.0169 -0.1491
  216MOL0     O29083  11.104  10.428   4.042 -0.1890 -0.1430 -0.3794
  216MOL0     C29084  11.165  10.297   4.075  0.3828  0.1362 -0.4137
  216MOL0     C29085  11.284  10.316   4.161  0.3105 -0.0970 -0.4669
  216MOL0     C29086  11.365  10.435   4.134 -0.2865  0.6347  0.8157
  216MOL0     C29087  11.509  10.417   4.187  0.2505  0.3434 -0.9894
  216MOL0     C29088  11.582  10.541   4.187 -1.1848  0.5530 -0.7162
  216MOL0     C29089  11.663  10.641   4.190  0.0020  1.2014 -0.0658
  216MOL0     C29090  10.861  10.408   4.062 -0.6837  0.0012  0.3047
  216MOL0     C29091  10.731  10.383   4.017  0.5741 -0.1156  0.4698
  216MOL0     C29092  10.619  10.405   4.117 -0.8954  0.2173  0.4937
  216MOL0     H29093  10.429  10.079   3.677  0.9357  0.8981  0.6490
  216MOL0     H29094  10.228  10.076   3.549  1.7208 -1.0978  0.4038
  216MOL0     H29095  10.098  10.450   3.361  0.8452  0.3643 -1.7251
  216MOL0     H29096  10.139  10.332   3.233 -0.4039  4.7897 -1.0103
  216MOL0     H29097   9.925  10.205   3.300  1.4959 -0.3521 -0.7398
  216MOL0     H29098   9.919  10.334   3.188 -2.0193 -1.0883 -0.4174
  216MOL0     H29099   9.848  10.487   3.376 -2.8228  0.0379 -0.7185
  216MOL0     H29100   9.854  10.348   3.495  0.8352 -3.2370 -1.2870
  216MOL0     H29101   9.641  10.452   3.371  1.7199  0.9407 -0.3032
  216MOL0     H29102   9.685  10.333   3.244 -0.7848  1.9550 -1.2810
  216MOL0     H29103   9.679  10.158   3.404  1.2357  0.2332  0.9815
  216MOL0     H29104   9.643  10.254   3.548  0.1084 -2.2241  0.7332
  216MOL0     H29105   9.458  10.109   3.416  2.5647 -0.3755 -0.7660
  216MOL0     H29106   9.418  10.285   3.468 -0.6123  0.9867 -2.2408
  216MOL0     H29107   9.474  10.357   3.236  1.6032 -0.5240 -0.0613
  216MOL0     H29108   9.334  10.267   3.249  0.0038 -0.1610  1.2604
  216MOL0     H29109   9.591  10.124   3.182  0.5536  2.0426  0.1323
  216MOL0     H29110   9.425  10.057   3.200 -1.6877  2.2297  1.6170
  216MOL0     H29111   9.645  10.294   2.955  0.9198 -0.8207 -1.9729
  216MOL0     H29112   9.581  10.367   2.682  0.5718 -0.4032 -0.0967
  216MOL0     H29113   9.399  10.394   2.662  0.2219 -0.9071 -0.5150
  216MOL0     H29114   9.431  10.590   2.813  0.8465 -2.4214  2.7701
  216MOL0     H29115   9.607  10.560   2.816 -0.1131  2.0766 -1.3212
  216MOL0     H29116   9.464  10.614   2.557  0.2104  3.5169 -0.7538
  216MOL0     H29117   9.623  10.569   2.586  0.5375  0.4633 -0.2136
  216MOL0     H29118   9.498  10.825   2.699  2.2960  1.1485  2.1135
  216MOL0     H29119   9.602  10.806   2.546  0.0090  2.2532  0.3526
  216MOL0     H29120   9.913  10.815   2.890 -0.9629 -0.3174  2.3322
  216MOL0     H29121   9.992  11.019   2.978  1.5050  1.6109 -1.4265
  216MOL0     H29122  10.153  11.422   2.899  1.0698 -1.4422  0.7644
  216MOL0     H29123  10.234  11.651   2.976 -0.7396  0.4441 -0.8167
  216MOL0     H29124  10.296  11.843   3.052 -1.1774  3.6552 -1.2197
  216MOL0     H29125  10.131  11.868   3.097 -0.7029  1.4720 -0.5550
  216MOL0     H29126  10.208  12.054   3.177 -2.2174  1.2049  3.4995
  216MOL0     H29127  10.182  11.959   3.315 -0.6621 -0.4903 -0.4499
  216MOL0     H29128  10.388  11.905   3.369  1.4527 -0.5213  0.5297
  216MOL0     H29129  10.456  11.936   3.211  0.0756 -1.6121  2.1018
  216MOL0     H29130  10.314  12.130   3.430  2.2068  4.2153  1.6405
  216MOL0     H29131  10.383  12.206   3.284  0.4679  1.1266  1.4367
  216MOL0     H29132  10.544  12.240   3.419  0.9420 -0.4932  0.8754
  216MOL0     H29133  10.609  12.089   3.368 -1.7067 -0.6725 -1.2204
  216MOL0     H29134  10.447  12.151   3.611 -2.1017 -0.0008 -1.5385
  216MOL0     H29135  10.484  11.982   3.577 -0.6222  0.6638 -0.3540
  216MOL0     H29136  10.688  12.195   3.607 -1.0135  1.0753  0.8638
  216MOL0     H29137  10.729  12.035   3.547 -2.2254 -0.8789 -0.0067
  216MOL0     H29138  10.607  12.085   3.825  1.5963  0.3969 -0.2276
  216MOL0     H29139  10.669  11.939   3.755  2.0902 -1.0965 -0.1333
  216MOL0     H29140  10.074  11.569   3.358  1.8897  0.6044  0.4316
  216MOL0     H29141   9.979  11.348   3.286  3.1229 -1.6362  1.2971
  216MOL0     H29142   9.646  11.224   2.841 -0.0925  1.1317 -2.4576
  216MOL0     H29143   9.575  11.038   2.723  1.0850  3.3373 -0.8753
  216MOL0     H29144  10.295  10.461   3.380 -1.3303  1.4346  2.6309
  216MOL0     H29145  10.514  10.475   3.506  0.6330 -0.3072  2.5849
  216MOL0     H29146  10.855  10.293   3.705  2.7967 -1.3918  0.2228
  216MOL0     H29147  11.060  10.318   3.801  0.5786 -0.3491 -1.8369
  216MOL0     H29148  11.196  10.262   3.976 -0.3807  2.5870 -1.6074
  216MOL0     H29149  11.088  10.229   4.111 -1.1523 -0.3476 -4.1661
  216MOL0     H29150  11.348  10.228   4.161 -1.3266 -1.3486 -0.6716
  216MOL0     H29151  11.245  10.331   4.262  1.2118 -0.3439 -0.0710
  216MOL0     H29152  11.318  10.525   4.175 -1.8191  0.6902 -0.9302
  216MOL0     H29153  11.373  10.450   4.026 -0.2054 -0.3187  0.6768
  216MOL0     H29154  11.506  10.391   4.294 -1.7481  0.6407 -0.9482
  216MOL0     H29155  11.554  10.344   4.119 -1.1564 -0.1987 -1.3705
  216MOL0     H29156  11.731  10.724   4.191 -0.4605  1.6113 -0.9600
  216MOL0     H29157  10.865  10.461   4.157  0.1495  0.1790  0.1794
  216MOL0     H29158  10.654  10.419   4.219 -1.3899  0.1732  0.6740
  216MOL0     H29159  10.565  10.495   4.087  0.9438  0.9142 -0.8771
  216MOL0     H29160  10.549  10.320   4.117  0.9651 -1.3830 -0.1377
  217MOL0     O29161   7.076   5.629   8.018  0.5043  0.4042  0.0540
  217MOL0     C29162   7.179   5.669   8.070 -0.0417 -0.4197 -0.4143
  217MOL0     O29163   7.296   5.628   8.033 -0.0550  1.0094 -0.2593
  217MOL0     C29164   7.309   5.500   7.983  0.7672 -0.5119  0.3957
  217MOL0     C29165   7.241   5.387   8.035  0.1252 -0.0213  0.5150
  217MOL0     C29166   7.243   5.267   7.957 -0.8622 -0.3615  0.4132
  217MOL0     C29167   7.330   5.250   7.837 -1.3113  0.2171  0.2972
  217MOL0     O29168   7.333   5.135   7.757  0.0498  0.1050 -0.0132
  217MOL0     C29169   7.269   5.015   7.815 -0.2157  0.0898  0.7598
  217MOL0     C29170   7.274   4.897   7.714  0.4868  0.2430  0.3892
  217MOL0     C29171   7.400   4.823   7.727  0.0553  0.0437  0.2483
  217MOL0     C29172   7.412   4.702   7.632  0.6819  0.5239  0.4885
  217MOL0     C29173   7.558   4.655   7.647  0.3229  0.1279 -0.3050
  217MOL0     C29174   7.575   4.500   7.601  0.0485 -0.3843  0.2532
  217MOL0     C29175   7.561   4.486   7.446 -0.1950 -1.0370 -0.7924
  217MOL0     C29176   7.691   4.530   7.379  0.1051  0.3282  0.4693
  217MOL0     N29177   7.800   4.439   7.395  0.7031  0.7027  0.2845
  217MOL0     C29178   7.786   4.298   7.387  0.6185  0.0713  0.0364
  217MOL0     C29179   7.911   4.247   7.416 -0.2610 -0.2111  0.3371
  217MOL0     C29180   7.936   4.106   7.403 -0.3590  0.2697 -0.9855
  217MOL0     C29181   7.958   4.044   7.543 -0.8351  1.3427  0.4587
  217MOL0     C29182   7.834   4.046   7.634  0.5239  0.7994 -0.5482
  217MOL0     C29183   7.863   4.008   7.784 -0.3149  0.0494 -0.5688
  217MOL0     O29184   7.978   4.078   7.825  0.4141 -0.1227 -0.3880
  217MOL0     C29185   7.956   4.207   7.881 -0.0763  0.9339 -0.0334
  217MOL0     C29186   7.900   4.222   8.012  0.6755  0.2298  0.4094
  217MOL0     C29187   7.875   4.341   8.067  0.7585 -0.4780 -0.8811
  217MOL0     C29188   7.906   4.456   7.994 -0.3661 -0.1977  0.4664
  217MOL0     C29189   7.872   4.590   8.055 -0.4425  1.0386 -0.7557
  217MOL0     O29190   7.860   4.685   7.964 -1.0309  0.1155 -0.2215
  217MOL0     C29191   7.857   4.812   8.004 -0.0154 -0.6750  0.6766
  217MOL0     C29192   7.945   4.870   8.091  0.7877 -0.1030 -0.6528
  217MOL0     C29193   7.930   5.011   8.115 -0.3123 -0.0846 -0.7908
  217MOL0     C29194   7.814   5.080   8.063 -0.7326  0.1532 -0.7710
  217MOL0     O29195   7.796   5.207   8.107 -0.1487 -0.9361 -0.1679
  217MOL0     C29196   7.738   5.305   8.018  0.4770  0.1093 -0.1158
  217MOL0     C29197   7.809   5.443   8.027 -0.1029 -0.2230  0.4074
  217MOL0     C29198   7.800   5.505   8.168  0.0062  0.5019  0.4360
  217MOL0     C29199   7.658   5.564   8.185 -0.0321  0.0859 -1.4435
  217MOL0     C29200   7.610   5.539   8.331 -0.3309  0.5140  0.0890
  217MOL0     C29201   7.461   5.573   8.355  0.5540 -1.1262 -0.1947
  217MOL0     C29202   7.414   5.539   8.491 -0.6941  0.0138 -0.1293
  217MOL0     C29203   7.283   5.604   8.529 -0.1812 -0.5244  0.6295
  217MOL0    Cl29204   7.169   5.524   8.410 -0.0394  0.0319  0.5242
  217MOL0     C29205   7.730   5.016   7.970  0.0402 -0.4812 -0.1092
  217MOL0     C29206   7.754   4.885   7.936  0.1426 -0.2317  0.5035
  217MOL0     O29207   7.861   4.602   8.177 -0.0639  0.0282  0.5629
  217MOL0     C29208   7.966   4.452   7.868  0.7994 -0.6473  0.9595
  217MOL0     C29209   7.990   4.317   7.815  0.2757 -0.6083  0.3645
  217MOL0     N29210   7.992   4.352   7.461  0.0946 -0.0655  0.1273
  217MOL0     N29211   7.924   4.454   7.450  0.4762 -0.4226  0.4088
  217MOL0     C29212   7.393   5.368   7.792 -0.4698 -0.2734 -1.1262
  217MOL0     C29213   7.377   5.490   7.870  0.7579  0.2008  1.1453
  217MOL0     C29214   7.173   5.776   8.176  1.0653  0.3592  0.0200
  217MOL0     C29215   7.283   5.845   8.220 -0.5161 -0.0141 -0.4917
  217MOL0     C29216   7.290   5.950   8.312  0.2708  0.7118  1.1766
  217MOL0     C29217   7.174   5.981   8.381 -0.0807 -0.6182  0.2136
  217MOL0     O29218   7.185   6.087   8.470  0.4169  0.4426 -0.0199
  217MOL0     C29219   7.089   6.105   8.580 -0.0439 -0.2262  0.3087
  217MOL0     C29220   7.043   6.245   8.623  0.2151 -0.1557  0.2370
  217MOL0     C29221   7.149   6.345   8.658  0.2936 -0.2694 -0.6760
  217MOL0     C29222   7.086   6.462   8.731 -0.4850 -0.6945 -0.6526
  217MOL0     C29223   7.185   6.564   8.786 -0.8567 -0.4500 -0.1283
  217MOL0     C29224   7.253   6.645   8.843 -0.5961 -1.1449  0.4130
  217MOL0     C29225   7.059   5.915   8.356 -0.4421  0.4777  0.2622
  217MOL0     C29226   7.057   5.811   8.254  0.4115  0.7459  0.3020
  217MOL0     C29227   6.945   5.715   8.269  0.2836  0.0280 -0.0333
  217MOL0     H29228   7.174   5.408   8.118 -0.5877 -1.2515  0.2780
  217MOL0     H29229   7.191   5.180   7.998 -0.3371  0.6216  3.4690
  217MOL0     H29230   7.324   4.979   7.902  1.3775  1.3839  0.3473
  217MOL0     H29231   7.163   5.039   7.828 -0.5046  1.7098 -3.1096
  217MOL0     H29232   7.258   4.931   7.612  0.6397 -1.2468 -0.1485
  217MOL0     H29233   7.191   4.829   7.733 -0.6916  0.7308 -2.5416
  217MOL0     H29234   7.406   4.791   7.832 -1.4550  1.5960  0.8534
  217MOL0     H29235   7.481   4.893   7.708 -0.0774 -0.0912 -0.8778
  217MOL0     H29236   7.342   4.620   7.651  1.0949  0.7722  3.6392
  217MOL0     H29237   7.385   4.730   7.530  0.4128  0.5343  0.5630
  217MOL0     H29238   7.635   4.723   7.608  0.1886  0.9614  0.8342
  217MOL0     H29239   7.570   4.663   7.756  1.4972  1.0827 -0.4818
  217MOL0     H29240   7.679   4.469   7.610  1.0271  2.0382 -1.4410
  217MOL0     H29241   7.501   4.443   7.657  1.5215 -0.9360  1.7131
  217MOL0     H29242   7.481   4.553   7.415  1.7982  2.2186  0.5289
  217MOL0     H29243   7.547   4.384   7.409 -2.2500 -0.8380 -0.6444
  217MOL0     H29244   7.664   4.543   7.274  0.0089 -1.6057  0.2161
  217MOL0     H29245   7.725   4.628   7.414 -1.4183  0.9725  0.2254
  217MOL0     H29246   7.703   4.249   7.337  0.6640  0.8184 -0.7904
  217MOL0     H29247   7.849   4.057   7.358 -0.3561 -1.3970  0.6777
  217MOL0     H29248   8.018   4.090   7.333  0.4091  2.1783 -0.5960
  217MOL0     H29249   7.972   3.938   7.522  0.8345  1.1763  2.0960
  217MOL0     H29250   8.047   4.080   7.596 -0.0938  3.0452 -1.7706
  217MOL0     H29251   7.755   3.981   7.596 -1.8914  2.4656  1.3242
  217MOL0     H29252   7.785   4.143   7.645 -2.0451 -0.4463 -0.4171
  217MOL0     H29253   7.878   3.900   7.791 -1.7319 -0.1794 -0.7937
  217MOL0     H29254   7.775   4.047   7.837  0.7564  2.2233 -0.2878
  217MOL0     H29255   7.882   4.132   8.071  0.0688  0.2940  0.3288
  217MOL0     H29256   7.832   4.343   8.166  2.1649 -0.7681 -0.2364
  217MOL0     H29257   8.031   4.817   8.132  1.2232  1.6990  0.9716
  217MOL0     H29258   7.996   5.062   8.184 -1.8393  0.6153  0.2176
  217MOL0     H29259   7.756   5.265   7.918 -0.2182 -1.4323  0.3413
  217MOL0     H29260   7.630   5.315   8.036  0.3229 -1.4798 -0.0527
  217MOL0     H29261   7.909   5.421   7.987  0.8448  0.3532  2.3492
  217MOL0     H29262   7.765   5.514   7.956 -0.2039 -2.2894 -1.7508
  217MOL0     H29263   7.822   5.427   8.241 -3.0512  0.7499  1.8059
  217MOL0     H29264   7.868   5.588   8.188 -0.3738  1.6166 -2.4627
  217MOL0     H29265   7.576   5.512   8.133 -1.1185  1.2565 -0.9572
  217MOL0     H29266   7.657   5.668   8.151 -3.1055  0.2411 -1.1408
  217MOL0     H29267   7.684   5.584   8.398  1.3959  1.9066 -2.5935
  217MOL0     H29268   7.621   5.432   8.352  0.1018  0.0727 -2.0975
  217MOL0     H29269   7.454   5.682   8.348  0.5616 -0.8425  2.9033
  217MOL0     H29270   7.415   5.525   8.269  1.2714  0.7743 -1.7271
  217MOL0     H29271   7.492   5.576   8.557 -0.7015  0.5332 -0.4072
  217MOL0     H29272   7.410   5.430   8.500  2.6879 -0.2628 -0.6951
  217MOL0     H29273   7.255   5.569   8.629 -1.3415 -0.7463  0.2498
  217MOL0     H29274   7.285   5.714   8.522  0.5065 -0.2271  3.8955
  217MOL0     H29275   7.646   5.065   7.921 -0.8448 -2.5005 -0.7454
  217MOL0     H29276   7.693   4.853   7.853 -2.2655  0.2486  1.9918
  217MOL0     H29277   7.983   4.547   7.819  0.7025  0.0244  2.1746
  217MOL0     H29278   8.039   4.307   7.719  0.8798 -0.1473  0.6257
  217MOL0     H29279   7.461   5.368   7.708  1.1989 -0.7487  0.1722
  217MOL0     H29280   7.426   5.582   7.843 -0.9451 -0.0887 -4.0441
  217MOL0     H29281   7.379   5.831   8.171 -1.0376 -1.8640 -1.0520
  217MOL0     H29282   7.384   6.000   8.335  0.8718 -1.3666  3.7166
  217MOL0     H29283   7.134   6.060   8.669  0.2745  1.8947  1.2785
  217MOL0     H29284   6.994   6.056   8.557 -0.5076  0.7208  0.1493
  217MOL0     H29285   6.968   6.250   8.703 -1.6520 -2.5426 -1.2501
  217MOL0     H29286   6.991   6.268   8.530  0.6199 -3.8300 -1.0454
  217MOL0     H29287   7.205   6.380   8.571  0.8958 -2.0251 -1.0212
  217MOL0     H29288   7.220   6.296   8.724 -0.0029 -1.9611 -1.5663
  217MOL0     H29289   7.024   6.518   8.661  2.1112  1.3385 -1.5005
  217MOL0     H29290   7.029   6.418   8.813  2.2103 -3.5968 -0.1421
  217MOL0     H29291   7.303   6.723   8.897 -0.2735 -1.6304  0.8272
  217MOL0     H29292   6.968   5.924   8.414  0.7441 -0.8982  2.4331
  217MOL0     H29293   6.899   5.724   8.367 -2.1072 -0.7909 -1.0166
  217MOL0     H29294   6.871   5.734   8.192 -0.9090  2.7600  1.6625
  217MOL0     H29295   6.984   5.613   8.265  1.2802  0.4239 -0.8425
  218MOL0     O29296   7.256   7.181   1.109  0.6778 -0.1369  0.1247
  218MOL0     C29297   7.164   7.125   1.055  0.7752 -0.3055  0.7853
  218MOL0     O29298   7.181   7.023   0.961 -0.5475 -0.4984 -0.0459
  218MOL0     C29299   7.313   6.976   0.937  0.2085  0.4135 -0.0683
  218MOL0     C29300   7.374   7.014   0.819 -1.2305 -0.7215 -0.0187
  218MOL0     C29301   7.502   6.983   0.773  0.7268 -0.0749 -0.4033
  218MOL0     C29302   7.572   6.883   0.851  0.7204 -0.2036  1.3752
  218MOL0     O29303   7.683   6.836   0.793 -0.0164 -0.1527  0.0793
  218MOL0     C29304   7.751   6.727   0.855 -0.5442 -0.5257 -0.4897
  218MOL0     C29305   7.862   6.680   0.762  0.4498 -0.1260  0.3607
  218MOL0     C29306   7.845   6.530   0.736 -0.2726  0.3071 -0.3163
  218MOL0     C29307   7.950   6.478   0.637 -0.6085  0.1770  0.3653
  218MOL0     C29308   7.963   6.323   0.655 -0.2045  0.3511 -0.5598
  218MOL0     C29309   8.067   6.257   0.559 -0.7576 -1.2282 -1.2706
  218MOL0     C29310   8.086   6.107   0.592  0.1628 -0.1740  0.3560
  218MOL0     C29311   8.170   6.052   0.481 -0.5122  0.2656  1.0453
  218MOL0     N29312   8.204   5.908   0.500 -1.1297 -0.1226 -0.0221
  218MOL0     C29313   8.136   5.802   0.551 -0.0086  1.1998  0.6112
  218MOL0     C29314   8.205   5.686   0.520 -0.5966  0.1005 -0.9307
  218MOL0     C29315   8.147   5.549   0.540  0.0689  0.5417  0.4026
  218MOL0     C29316   8.158   5.456   0.416 -1.5516  1.1468  0.2390
  218MOL0     C29317   8.173   5.312   0.466 -0.1597  0.1141  1.2804
  218MOL0     C29318   8.224   5.217   0.355 -0.6624 -0.3773  0.5776
  218MOL0     O29319   8.110   5.184   0.276  0.0363 -0.4001 -0.0725
  218MOL0     C29320   8.086   5.248   0.147  0.0281  0.3054 -0.1020
  218MOL0     C29321   8.167   5.344   0.093 -0.2081  0.8569 -0.3332
  218MOL0     C29322   8.128   5.413  -0.025  0.4801 -0.0461  0.7710
  218MOL0     C29323   8.013   5.384  -0.092 -0.2131  0.6445 -0.0891
  218MOL0     C29324   7.991   5.437  -0.227 -0.8137 -0.9863  1.0067
  218MOL0     O29325   8.091   5.507  -0.285 -0.0280 -0.6000  0.6558
  218MOL0     C29326   8.088   5.558  -0.419 -0.2288  0.5443 -0.0619
  218MOL0     C29327   8.002   5.518  -0.526 -0.2676  0.0717 -0.1143
  218MOL0     C29328   8.026   5.572  -0.654 -0.0161  0.4305 -0.5826
  218MOL0     C29329   8.130   5.666  -0.680 -0.4446 -0.3216 -0.2870
  218MOL0     O29330   8.144   5.711  -0.809 -0.3028  0.1297  0.3826
  218MOL0     C29331   8.170   5.851  -0.832  0.7852 -0.3420  0.5800
  218MOL0     C29332   8.296   5.849  -0.915  0.1852 -0.2047 -0.3887
  218MOL0     C29333   8.282   5.773  -1.046 -0.6060 -0.8161  0.2791
  218MOL0     C29334   8.383   5.821  -1.154  0.1381  0.9934  0.2171
  218MOL0     C29335   8.356   5.741  -1.289 -0.9821  0.2287 -0.5205
  218MOL0     C29336   8.446   5.799  -1.397  0.1462  1.1940  0.5187
  218MOL0     C29337   8.430   5.718  -1.526  0.0282  0.1877 -0.4810
  218MOL0     C29338   8.564   5.703  -1.597 -0.1088 -0.0234  0.5386
  218MOL0    Cl29339   8.642   5.874  -1.626 -0.3946 -0.4236  0.3702
  218MOL0     C29340   8.204   5.707  -0.570  0.2851 -0.4332 -0.0781
  218MOL0     C29341   8.184   5.652  -0.442 -0.4507 -0.4260  0.0788
  218MOL0     O29342   7.881   5.418  -0.272 -0.0308  0.3843 -0.1878
  218MOL0     C29343   7.925   5.292  -0.041  0.1502 -0.7930 -0.4691
  218MOL0     C29344   7.964   5.216   0.078 -0.2496  0.2046 -0.0318
  218MOL0     N29345   8.325   5.726   0.472 -0.0920 -0.3093  0.3141
  218MOL0     N29346   8.320   5.854   0.454  0.0951 -0.0782  0.7674
  218MOL0     C29347   7.511   6.837   0.970  0.7259 -0.2985  0.3468
  218MOL0     C29348   7.385   6.881   1.018 -0.1872  0.3598 -0.0799
  218MOL0     C29349   7.017   7.144   1.101 -0.7766 -0.7090 -0.1473
  218MOL0     C29350   6.936   7.034   1.081 -1.1114  0.5834  0.5650
  218MOL0     C29351   6.820   7.032   1.152  0.1264  0.4851  0.8357
  218MOL0     C29352   6.767   7.144   1.214 -0.9602  0.9830  0.1728
  218MOL0     O29353   6.647   7.146   1.280 -0.4798  0.2850  0.0104
  218MOL0     C29354   6.552   7.041   1.256 -0.5401 -1.0861  0.2665
  218MOL0     C29355   6.422   7.086   1.323  0.5850 -0.4264  0.6052
  218MOL0     C29356   6.440   7.122   1.469 -0.1001  0.4818  0.0797
  218MOL0     C29357   6.520   7.022   1.564 -0.5672 -0.3551  0.4878
  218MOL0     C29358   6.491   6.879   1.527  0.1851 -0.3455 -0.0689
  218MOL0     C29359   6.456   6.767   1.495 -0.7121 -0.0811  0.3073
  218MOL0     C29360   6.846   7.255   1.228  0.3842  0.1618  0.4231
  218MOL0     C29361   6.974   7.255   1.168 -0.5121 -0.8667 -0.3903
  218MOL0     C29362   7.060   7.382   1.166 -1.3702  0.0244  0.8601
  218MOL0     H29363   7.310   7.067   0.748 -1.0421 -0.4483  0.0129
  218MOL0     H29364   7.528   7.004   0.670  1.2329  2.0525  0.1096
  218MOL0     H29365   7.801   6.767   0.944 -0.3752  0.8912 -1.1830
  218MOL0     H29366   7.681   6.650   0.887 -2.4669  0.8821 -1.1543
  218MOL0     H29367   7.963   6.701   0.797 -0.6283  2.7831  2.0663
  218MOL0     H29368   7.850   6.735   0.667 -0.1746  2.5220  1.8722
  218MOL0     H29369   7.744   6.510   0.700 -0.2101  1.1633 -1.0074
  218MOL0     H29370   7.863   6.487   0.835  1.9371  1.0760 -0.3243
  218MOL0     H29371   7.915   6.484   0.534 -3.0378  1.3654  1.1790
  218MOL0     H29372   8.045   6.532   0.646 -1.2810  1.8380 -1.7244
  218MOL0     H29373   7.995   6.298   0.756  0.0914 -0.2541 -0.7988
  218MOL0     H29374   7.862   6.284   0.640 -0.8379  1.7209 -0.0930
  218MOL0     H29375   8.039   6.280   0.456  0.9442  1.1820 -1.2768
  218MOL0     H29376   8.169   6.296   0.568 -1.0468 -0.7823  0.3460
  218MOL0     H29377   7.992   6.053   0.600  0.8585 -1.2636  1.4054
  218MOL0     H29378   8.137   6.085   0.686 -0.6000 -2.0612  0.3745
  218MOL0     H29379   8.113   6.073   0.391  0.3300 -1.5896  0.0171
  218MOL0     H29380   8.265   6.106   0.472  0.4898 -0.6649  4.5083
  218MOL0     H29381   8.048   5.802   0.613  1.6753 -1.3636  3.2469
  218MOL0     H29382   8.198   5.512   0.630 -0.8862  2.2557  1.7085
  218MOL0     H29383   8.043   5.573   0.567  0.7217  2.3379  1.4530
  218MOL0     H29384   8.072   5.468   0.350  0.3927 -2.2974 -3.3764
  218MOL0     H29385   8.245   5.489   0.360 -2.5025  1.0671 -1.3513
  218MOL0     H29386   8.077   5.270   0.499  0.7847 -1.4427  2.1633
  218MOL0     H29387   8.249   5.308   0.544 -1.5208  2.1753  2.8127
  218MOL0     H29388   8.278   5.126   0.385  1.8731  0.7654 -0.2446
  218MOL0     H29389   8.308   5.259   0.298 -3.5064  3.6518 -1.1001
  218MOL0     H29390   8.264   5.362   0.140  2.2808 -2.5509 -3.5335
  218MOL0     H29391   8.190   5.495  -0.060  0.1499  0.2970  0.9900
  218MOL0     H29392   7.920   5.447  -0.514  1.3431 -2.5903 -3.3547
  218MOL0     H29393   7.973   5.531  -0.739  2.5901 -2.5179 -0.9858
  218MOL0     H29394   8.085   5.907  -0.872  0.6957 -1.4677 -0.9140
  218MOL0     H29395   8.196   5.897  -0.737  0.0660 -1.4900  1.3550
  218MOL0     H29396   8.323   5.955  -0.918 -0.7894  0.2831  3.1484
  218MOL0     H29397   8.377   5.800  -0.860  1.6172  0.8649 -1.4790
  218MOL0     H29398   8.303   5.669  -1.020  0.9446 -0.5991  0.0227
  218MOL0     H29399   8.179   5.782  -1.081 -0.8118  1.3690  1.2581
  218MOL0     H29400   8.486   5.823  -1.120 -0.3100 -0.6310  1.8264
  218MOL0     H29401   8.358   5.927  -1.166  2.3197  1.8091  2.1254
  218MOL0     H29402   8.252   5.754  -1.320 -1.1885  0.6330  0.3282
  218MOL0     H29403   8.376   5.636  -1.268 -2.4950  0.0665  0.2148
  218MOL0     H29404   8.430   5.906  -1.416  1.1674  1.1496 -0.7835
  218MOL0     H29405   8.547   5.785  -1.358 -1.2628  0.6313  4.4045
  218MOL0     H29406   8.369   5.780  -1.591 -1.1091  0.4927  0.8342
  218MOL0     H29407   8.371   5.628  -1.508  1.9826 -0.8015  1.5206
  218MOL0     H29408   8.628   5.632  -1.543 -1.4332 -0.1618  2.0155
  218MOL0     H29409   8.543   5.665  -1.697  0.4854  0.5729  0.1841
  218MOL0     H29410   8.288   5.774  -0.585 -0.1844  0.0097 -0.8154
  218MOL0     H29411   8.255   5.677  -0.364 -0.1734 -0.7990 -0.0513
  218MOL0     H29412   7.834   5.272  -0.096 -1.1637 -0.8964  1.6177
  218MOL0     H29413   7.905   5.140   0.128  2.6707 -0.7543  2.3112
  218MOL0     H29414   7.562   6.766   1.033  0.8384 -0.2632  0.2951
  218MOL0     H29415   7.338   6.844   1.108 -0.2970  1.8510  0.5018
  218MOL0     H29416   6.964   6.941   1.034  1.8658  0.9739  1.3877
  218MOL0     H29417   6.770   6.936   1.147  4.2893 -1.9467  1.0403
  218MOL0     H29418   6.598   6.950   1.297  0.0102 -1.9127 -2.0093
  218MOL0     H29419   6.535   7.026   1.149 -0.5822  1.3635 -0.1098
  218MOL0     H29420   6.346   7.007   1.329  1.1675 -1.2345 -1.3988
  218MOL0     H29421   6.381   7.173   1.271  2.2676  0.2694  0.3591
  218MOL0     H29422   6.341   7.126   1.514  0.6111  0.6945  1.6948
  218MOL0     H29423   6.467   7.228   1.467 -0.4718  0.6340 -3.0522
  218MOL0     H29424   6.628   7.044   1.558 -0.7276  1.2642  2.2375
  218MOL0     H29425   6.496   7.034   1.670  1.0488 -2.1096  1.1180
  218MOL0     H29426   6.426   6.668   1.465 -0.5076  0.2563 -1.0851
  218MOL0     H29427   6.823   7.342   1.289  2.1751  0.1739  1.1497
  218MOL0     H29428   7.150   7.369   1.227 -0.7654 -0.9816 -0.2231
  218MOL0     H29429   7.106   7.411   1.072 -3.1826 -0.2178 -0.1458
  218MOL0     H29430   7.000   7.464   1.209 -0.1882 -0.5257  3.7785
  219MOL0     O29431   6.604   8.165   3.843  0.5835  1.1066  0.0466
  219MOL0     C29432   6.594   8.055   3.900  0.0135 -0.5842 -0.6421
  219MOL0     O29433   6.512   8.029   4.003 -0.1750  0.9818 -0.4534
  219MOL0     C29434   6.414   8.127   4.026 -0.5497 -0.3787 -0.5458
  219MOL0     C29435   6.281   8.088   4.047 -0.5874  0.2127  0.4483
  219MOL0     C29436   6.171   8.182   4.062 -0.1673 -0.7142 -0.0086
  219MOL0     C29437   6.204   8.319   4.061 -0.1559  0.5359 -1.2358
  219MOL0     O29438   6.118   8.418   4.090  0.0019  0.1731 -0.3915
  219MOL0     C29439   6.010   8.423   4.003  0.0419  0.4349 -0.3999
  219MOL0     C29440   5.929   8.555   4.002 -0.4344 -0.0544  0.1257
  219MOL0     C29441   6.026   8.668   4.016  0.2719 -0.7832 -0.1084
  219MOL0     C29442   5.938   8.794   4.045  0.1119 -0.0977  0.2059
  219MOL0     C29443   6.008   8.927   4.015  0.2753  0.5178  0.4835
  219MOL0     C29444   5.913   9.044   4.048 -0.9000 -0.1884 -1.4044
  219MOL0     C29445   5.962   9.162   3.964 -0.3606 -1.1131 -0.1824
  219MOL0     C29446   5.892   9.300   3.999  0.9583  0.1221 -0.6181
  219MOL0     N29447   5.753   9.293   3.953  0.0282  0.2254  0.1055
  219MOL0     C29448   5.704   9.325   3.832  0.1548  0.8379  0.2891
  219MOL0     C29449   5.569   9.332   3.851  0.1280 -0.1034  0.6909
  219MOL0     C29450   5.475   9.345   3.731 -0.4325  0.3938  0.0326
  219MOL0     C29451   5.391   9.470   3.738 -0.3203 -0.2430 -0.1923
  219MOL0     C29452   5.335   9.504   3.599  0.8200 -0.9830 -0.8906
  219MOL0     C29453   5.202   9.584   3.618  1.0062  0.4771  0.2199
  219MOL0     O29454   5.182   9.662   3.495 -0.4587  0.4219 -0.0962
  219MOL0     C29455   5.071   9.744   3.492 -0.4119  0.7510  0.4460
  219MOL0     C29456   5.018   9.781   3.365 -0.3080 -0.2086 -0.0410
  219MOL0     C29457   4.906   9.854   3.362 -0.4328  0.3303  0.5182
  219MOL0     C29458   4.830   9.886   3.472 -0.5000  0.0598  0.7129
  219MOL0     C29459   4.703   9.967   3.459 -0.2179 -0.6288 -0.4429
  219MOL0     O29460   4.622   9.965   3.566 -0.4219  0.4895 -0.1519
  219MOL0     C29461   4.512  10.057   3.569  0.8545 -0.2685  0.5223
  219MOL0     C29462   4.398  10.041   3.490  0.3922 -0.3565  0.3442
  219MOL0     C29463   4.289  10.133   3.502  0.4797  0.5599  0.2280
  219MOL0     C29464   4.301  10.251   3.577  0.6387  0.5566  0.2551
  219MOL0     O29465   4.197  10.345   3.575  0.4190  0.5258  0.2951
  219MOL0     C29466   4.243  10.477   3.560 -0.2772 -0.3401 -0.4078
  219MOL0     C29467   4.129  10.580   3.565 -0.4353 -0.7296 -0.3368
  219MOL0     C29468   4.030  10.581   3.683 -0.9465 -0.9839  0.9188
  219MOL0     C29469   4.105  10.659   3.789  0.4175 -0.6792  0.6592
  219MOL0     C29470   4.017  10.703   3.911 -0.2694 -0.4064  0.8048
  219MOL0     C29471   4.098  10.785   4.016  0.1398  0.0208  0.5099
  219MOL0     C29472   4.014  10.838   4.125 -0.1032 -0.7205  0.7462
  219MOL0     C29473   3.906  10.939   4.083 -0.7333 -0.1108 -0.1327
  219MOL0    Cl29474   3.817  10.978   4.232  0.1990  0.0472  0.0615
  219MOL0     C29475   4.417  10.265   3.655  0.1553 -0.2375  0.6768
  219MOL0     C29476   4.520  10.168   3.657 -0.0914  0.4788  0.4122
  219MOL0     O29477   4.697  10.039   3.370 -0.3078 -0.7559  1.4032
  219MOL0     C29478   4.882   9.852   3.601  0.1481  0.9001 -0.0778
  219MOL0     C29479   5.002   9.773   3.613  0.3488 -0.3323 -0.2484
  219MOL0     N29480   5.539   9.322   3.990 -0.4529  0.5428  0.5373
  219MOL0     N29481   5.650   9.287   4.045  1.0283 -0.3897 -0.2479
  219MOL0     C29482   6.336   8.356   4.063 -0.2416 -0.2481 -0.3384
  219MOL0     C29483   6.435   8.265   4.035 -0.2171 -0.4839  1.0009
  219MOL0     C29484   6.688   7.957   3.852  0.2320  0.5553 -0.5360
  219MOL0     C29485   6.745   7.970   3.720 -1.5939 -0.3381 -0.6961
  219MOL0     C29486   6.840   7.880   3.678 -0.2491  0.2228  0.2515
  219MOL0     C29487   6.886   7.782   3.763  1.0117 -0.2196 -0.4693
  219MOL0     O29488   6.981   7.697   3.715  0.3268 -0.4289 -0.0876
  219MOL0     C29489   7.048   7.596   3.785  0.4719  0.8275  0.3080
  219MOL0     C29490   6.958   7.470   3.768 -0.1118 -0.9348 -0.8307
  219MOL0     C29491   6.974   7.417   3.622  0.4333  0.1360  0.4070
  219MOL0     C29492   6.855   7.322   3.583  0.2057  0.4483 -0.2580
  219MOL0     C29493   6.879   7.278   3.442  0.1408 -0.3735 -0.7908
  219MOL0     C29494   6.903   7.231   3.337 -0.0554  0.1359 -0.4699
  219MOL0     C29495   6.836   7.775   3.893  0.1380 -0.3413  0.0105
  219MOL0     C29496   6.737   7.858   3.943 -0.6755  0.0003  0.2651
  219MOL0     C29497   6.714   7.845   4.091  0.0392  0.8974 -0.0285
  219MOL0     H29498   6.270   7.980   4.042  1.9799 -0.1438  1.2436
  219MOL0     H29499   6.071   8.143   4.078 -2.2358  2.3063 -3.8182
  219MOL0     H29500   6.054   8.401   3.906 -0.7851 -0.3244 -0.6174
  219MOL0     H29501   5.938   8.342   4.019  1.2580 -0.8593 -1.2269
  219MOL0     H29502   5.861   8.552   4.088 -1.8860  0.1060 -0.9734
  219MOL0     H29503   5.868   8.558   3.911  0.6777 -2.4917 -0.7947
  219MOL0     H29504   6.081   8.676   3.922  1.4006 -2.4191  0.3624
  219MOL0     H29505   6.099   8.658   4.097 -0.6417  1.6099  1.1294
  219MOL0     H29506   5.853   8.787   3.976  1.6850  2.2559 -2.1337
  219MOL0     H29507   5.900   8.804   4.147 -1.1846 -1.3662 -0.1099
  219MOL0     H29508   6.107   8.929   4.063  0.6069  1.0248 -0.2104
  219MOL0     H29509   6.044   8.939   3.913  0.2184  0.0419  0.4059
  219MOL0     H29510   5.808   9.023   4.028 -3.6044  6.0126  3.0336
  219MOL0     H29511   5.922   9.059   4.156 -0.1451  1.1109 -1.6307
  219MOL0     H29512   5.957   9.121   3.863  1.3636 -2.8487  0.3893
  219MOL0     H29513   6.070   9.175   3.979 -0.6225  0.4973  0.5632
  219MOL0     H29514   5.910   9.332   4.102  2.5907 -2.1647 -0.1194
  219MOL0     H29515   5.942   9.371   3.932  2.6846 -0.9655 -0.5295
  219MOL0     H29516   5.766   9.324   3.743 -1.5530 -0.3746 -0.9479
  219MOL0     H29517   5.535   9.331   3.641  2.2202 -2.6939  2.0189
  219MOL0     H29518   5.408   9.259   3.730 -2.1068  1.4396  3.9017
  219MOL0     H29519   5.314   9.462   3.815 -0.5273  0.9530 -0.2440
  219MOL0     H29520   5.450   9.557   3.769 -0.9420  1.9091 -4.2686
  219MOL0     H29521   5.325   9.417   3.534  0.5715  0.0407 -2.2751
  219MOL0     H29522   5.402   9.569   3.543 -1.3534  3.1056  0.7812
  219MOL0     H29523   5.197   9.640   3.711  0.3006  0.1208  0.4073
  219MOL0     H29524   5.118   9.514   3.625  0.2509  1.4777  1.4792
  219MOL0     H29525   5.065   9.756   3.271 -0.6875  0.5966 -0.4487
  219MOL0     H29526   4.872   9.888   3.265 -2.2677  0.2756  1.1029
  219MOL0     H29527   4.366   9.954   3.434  1.4109 -0.7287  0.3261
  219MOL0     H29528   4.204  10.111   3.438 -1.0930 -1.5596  2.8425
  219MOL0     H29529   4.313  10.497   3.641 -1.8891 -1.9184  1.4806
  219MOL0     H29530   4.298  10.493   3.467  0.6543 -0.6257  0.0784
  219MOL0     H29531   4.169  10.682   3.553 -1.2633 -0.6280 -2.9434
  219MOL0     H29532   4.066  10.567   3.476  1.8214  1.8710 -2.5492
  219MOL0     H29533   3.934  10.630   3.664  0.6810  2.1330 -0.0714
  219MOL0     H29534   4.023  10.474   3.705 -1.1350 -0.7165  2.2416
  219MOL0     H29535   4.156  10.750   3.754 -1.0467 -0.0866  0.0041
  219MOL0     H29536   4.183  10.599   3.837  2.9605  1.9256  0.0817
  219MOL0     H29537   3.969  10.615   3.954 -1.0118 -1.5250 -2.0414
  219MOL0     H29538   3.935  10.758   3.864 -2.3628 -2.5580  1.7434
  219MOL0     H29539   4.177  10.727   4.064 -1.3444 -2.4996  0.1070
  219MOL0     H29540   4.132  10.873   3.961 -0.9916  0.0147 -0.2418
  219MOL0     H29541   4.081  10.878   4.202 -0.1607 -0.7562  0.8171
  219MOL0     H29542   3.981  10.742   4.167 -2.3671 -2.6197 -4.5381
  219MOL0     H29543   3.952  11.030   4.045 -0.9710  1.7873  3.7132
  219MOL0     H29544   3.844  10.893   4.005 -0.6192  1.4918 -1.2060
  219MOL0     H29545   4.439  10.347   3.723 -0.3928 -1.0703  1.8974
  219MOL0     H29546   4.604  10.178   3.725  2.5038 -0.9475 -2.3215
  219MOL0     H29547   4.804   9.865   3.675 -2.6846  1.2262 -2.9062
  219MOL0     H29548   5.027   9.740   3.714 -1.0293  2.4809  1.1474
  219MOL0     H29549   6.362   8.461   4.073 -0.4881 -0.0110 -1.8599
  219MOL0     H29550   6.531   8.312   4.018 -1.9590  3.0882  0.0030
  219MOL0     H29551   6.702   8.046   3.655  0.2433  2.3828  1.0329
  219MOL0     H29552   6.877   7.878   3.576  1.0746 -0.3076  0.7298
  219MOL0     H29553   7.061   7.625   3.889 -1.7287  3.7193 -0.0774
  219MOL0     H29554   7.150   7.588   3.746  1.6808  1.3578  3.1696
  219MOL0     H29555   6.853   7.488   3.793 -0.0725 -2.0302  0.2254
  219MOL0     H29556   7.004   7.400   3.838  1.6923  1.9084  1.0281
  219MOL0     H29557   7.066   7.361   3.603 -1.0753 -1.6249 -2.2306
  219MOL0     H29558   6.979   7.506   3.558  2.4971 -0.6903 -0.6851
  219MOL0     H29559   6.843   7.245   3.659 -1.5839  1.7990  0.9036
  219MOL0     H29560   6.765   7.381   3.601  0.7066  0.4714  2.7519
  219MOL0     H29561   6.927   7.189   3.241  0.0947  1.7574 -1.1809
  219MOL0     H29562   6.865   7.694   3.959 -0.5007  1.4793  2.6518
  219MOL0     H29563   6.779   7.770   4.137  0.5713  0.8544 -0.8375
  219MOL0     H29564   6.738   7.942   4.135 -2.4532  1.1825  0.9010
  219MOL0     H29565   6.609   7.818   4.105 -0.8765  3.3011 -1.6627
  220MOL0     O29566   7.355  10.519   1.211  0.2080  0.0093 -0.1428
  220MOL0     C29567   7.452  10.515   1.289 -0.5458  0.5940  0.3314
  220MOL0     O29568   7.459  10.477   1.419 -0.3085 -0.6425  0.4317
  220MOL0     C29569   7.353  10.421   1.481 -0.1131  0.2096 -0.3926
  220MOL0     C29570   7.223  10.372   1.429 -0.5602  1.2991 -0.2220
  220MOL0     C29571   7.140  10.298   1.515  0.1213  0.4967 -0.1634
  220MOL0     C29572   7.170  10.275   1.644  0.3508  0.3806 -0.1748
  220MOL0     O29573   7.091  10.210   1.732  0.0789 -0.0171  0.1621
  220MOL0     C29574   7.094  10.067   1.713  0.4612  0.2645  0.4754
  220MOL0     C29575   7.083  10.000   1.854 -0.0778 -0.6112  0.0346
  220MOL0     C29576   7.044   9.855   1.858 -0.7149  0.2284  0.2305
  220MOL0     C29577   6.900   9.831   1.802  0.0237  0.0483 -0.2994
  220MOL0     C29578   6.865   9.675   1.798 -0.2412 -0.7600 -0.4502
  220MOL0     C29579   6.966   9.597   1.706  0.5979 -0.7362 -0.6007
  220MOL0     C29580   6.990   9.654   1.565  0.5189  0.1003 -0.2404
  220MOL0     C29581   7.073   9.556   1.474 -0.5464 -0.0655  0.2743
  220MOL0     N29582   6.989   9.438   1.460  0.1842  0.8226  0.0977
  220MOL0     C29583   6.857   9.425   1.427 -0.1269 -1.0161  1.1062
  220MOL0     C29584   6.828   9.292   1.426 -0.0767  0.5690  0.2268
  220MOL0     C29585   6.690   9.245   1.390  0.0251 -0.1529  0.5065
  220MOL0     C29586   6.588   9.254   1.502  0.0347 -0.4305  0.8567
  220MOL0     C29587   6.608   9.191   1.639 -0.2251  0.7286 -1.2172
  220MOL0     C29588   6.680   9.265   1.751 -0.2947  0.0479 -0.2197
  220MOL0     O29589   6.605   9.374   1.801 -0.2105  0.6441  1.1497
  220MOL0     C29590   6.640   9.440   1.907  0.6905 -0.5368 -0.5336
  220MOL0     C29591   6.553   9.546   1.941 -1.2766  0.0886 -0.0260
  220MOL0     C29592   6.580   9.619   2.056 -0.3848  0.0572 -0.5196
  220MOL0     C29593   6.685   9.579   2.151 -0.3090 -0.0282 -0.0071
  220MOL0     C29594   6.724   9.653   2.272  1.5111  0.4537  0.5899
  220MOL0     O29595   6.622   9.735   2.304  0.0315  0.1165 -0.1857
  220MOL0     C29596   6.609   9.789   2.427  0.1043 -0.1186 -1.0443
  220MOL0     C29597   6.718   9.835   2.503 -0.7753 -0.5411  0.6101
  220MOL0     C29598   6.694   9.905   2.621  0.2902  0.2636 -0.3807
  220MOL0     C29599   6.564   9.925   2.680 -0.1030 -0.0142 -1.1284
  220MOL0     O29600   6.540  10.012   2.791 -0.5131  0.5126  0.5927
  220MOL0     C29601   6.653  10.043   2.884  0.6320 -0.5057  0.6515
  220MOL0     C29602   6.605  10.138   2.992 -0.1135 -0.0236 -0.1063
  220MOL0     C29603   6.470  10.093   3.070 -0.5009  0.1925 -0.0049
  220MOL0     C29604   6.446  10.182   3.186  0.6702  0.0467 -0.3095
  220MOL0     C29605   6.418  10.333   3.148 -0.0051  0.2164  0.8535
  220MOL0     C29606   6.408  10.405   3.287 -0.2939  0.2422  0.1746
  220MOL0     C29607   6.367  10.557   3.274 -0.1575 -0.5378 -0.7362
  220MOL0     C29608   6.424  10.639   3.387 -0.6968  0.2356 -0.8658
  220MOL0    Cl29609   6.355  10.562   3.541 -0.7708 -0.2495 -0.5779
  220MOL0     C29610   6.465   9.879   2.598 -0.2366 -0.3640 -0.5460
  220MOL0     C29611   6.479   9.806   2.479 -0.8765 -0.8811  1.1442
  220MOL0     O29612   6.826   9.637   2.336  0.1924  0.2772  0.2789
  220MOL0     C29613   6.763   9.467   2.113 -0.3922  0.6307  0.3488
  220MOL0     C29614   6.748   9.404   1.990  0.3740 -0.1069 -0.7107
  220MOL0     N29615   6.950   9.220   1.446 -0.2479 -0.7830 -0.6683
  220MOL0     N29616   7.043   9.311   1.474  0.2521  0.4197  0.1521
  220MOL0     C29617   7.286  10.331   1.700 -1.2006 -0.2151 -0.3076
  220MOL0     C29618   7.384  10.394   1.618  0.7738  0.5074  0.2252
  220MOL0     C29619   7.577  10.579   1.241  0.2268  0.5666  0.5089
  220MOL0     C29620   7.625  10.680   1.331 -0.4061  0.0773  0.3664
  220MOL0     C29621   7.749  10.737   1.297 -0.3552 -0.2393 -0.4208
  220MOL0     C29622   7.819  10.708   1.183  0.0226  0.3401 -0.0424
  220MOL0     O29623   7.932  10.782   1.156  0.5701  1.4451  0.0273
  220MOL0     C29624   8.053  10.763   1.224  0.1353 -0.2766  0.4675
  220MOL0     C29625   8.075  10.619   1.295  1.3522  0.2002 -0.5364
  220MOL0     C29626   8.207  10.592   1.358 -0.8114  0.1484  0.8728
  220MOL0     C29627   8.250  10.455   1.310 -0.7111  0.0011  0.4487
  220MOL0     C29628   8.363  10.422   1.394 -0.5883  1.3653 -0.8371
  220MOL0     C29629   8.464  10.387   1.447 -0.2363 -0.4118 -0.1191
  220MOL0     C29630   7.773  10.608   1.098  0.5052 -0.1057  0.8284
  220MOL0     C29631   7.643  10.544   1.120  0.2883 -0.5754 -0.8598
  220MOL0     C29632   7.609  10.428   1.023 -1.0576  0.0823  0.2658
  220MOL0     H29633   7.187  10.386   1.328  1.0288  3.9134 -0.5176
  220MOL0     H29634   7.042  10.267   1.479  0.0734  0.7874 -0.2905
  220MOL0     H29635   7.014  10.036   1.644 -0.4591  0.9986  1.1838
  220MOL0     H29636   7.192  10.043   1.670  3.2708  0.1485  6.0988
  220MOL0     H29637   7.007  10.046   1.917 -0.0492  0.2605 -0.5435
  220MOL0     H29638   7.178  10.002   1.908  0.6622 -3.0142 -1.0200
  220MOL0     H29639   7.044   9.826   1.964  1.4612  0.0789  0.2326
  220MOL0     H29640   7.115   9.788   1.809 -0.4579  0.9519 -0.4094
  220MOL0     H29641   6.830   9.887   1.866  0.9121  2.9905 -1.7326
  220MOL0     H29642   6.889   9.863   1.698  0.8541 -0.5931 -0.5994
  220MOL0     H29643   6.870   9.634   1.899  0.5567  0.0140 -0.1571
  220MOL0     H29644   6.762   9.666   1.762 -0.6402 -0.1130  0.4727
  220MOL0     H29645   7.063   9.583   1.754  1.1757 -2.2924 -2.0823
  220MOL0     H29646   6.929   9.494   1.702 -2.1577  0.1042  0.9183
  220MOL0     H29647   7.049   9.746   1.567 -0.8314  1.0588 -1.6857
  220MOL0     H29648   6.899   9.683   1.510  0.0090 -2.5077 -0.9055
  220MOL0     H29649   7.092   9.600   1.376 -1.4516  0.2988  0.2530
  220MOL0     H29650   7.172   9.532   1.514  0.2409  0.0312 -1.5428
  220MOL0     H29651   6.798   9.505   1.383  1.6214  0.1251  0.7222
  220MOL0     H29652   6.653   9.313   1.312  1.9342 -0.4606 -0.7365
  220MOL0     H29653   6.698   9.141   1.356 -2.5554 -0.6165  1.1252
  220MOL0     H29654   6.568   9.359   1.528 -0.1268  0.1262 -1.3057
  220MOL0     H29655   6.490   9.228   1.460  0.4492  1.8236 -1.7642
  220MOL0     H29656   6.657   9.097   1.612  0.0240  1.3316 -3.0017
  220MOL0     H29657   6.508   9.158   1.669 -0.4198 -0.9371 -3.4319
  220MOL0     H29658   6.782   9.297   1.728 -0.1226 -0.8281 -0.7140
  220MOL0     H29659   6.701   9.194   1.832  0.6502  0.8708  0.2753
  220MOL0     H29660   6.466   9.569   1.880 -1.4276  2.4237  0.9542
  220MOL0     H29661   6.514   9.703   2.076 -1.0933 -0.2482 -1.5221
  220MOL0     H29662   6.824   9.828   2.480 -0.3670  0.3512  2.0785
  220MOL0     H29663   6.777   9.964   2.659  1.3246 -1.4509  0.1536
  220MOL0     H29664   6.689   9.951   2.932 -1.7407 -1.1667  1.2733
  220MOL0     H29665   6.730  10.102   2.834 -2.0716  2.0324 -0.8382
  220MOL0     H29666   6.684  10.145   3.068 -0.9997 -0.8564  0.9176
  220MOL0     H29667   6.580  10.225   2.931  2.4940  0.0026 -1.2996
  220MOL0     H29668   6.388  10.107   2.999 -0.5077 -0.4885 -0.1327
  220MOL0     H29669   6.473   9.987   3.098  2.4866  0.6495  1.8243
  220MOL0     H29670   6.527  10.175   3.259  1.4626  1.4398 -1.0137
  220MOL0     H29671   6.356  10.138   3.230  0.4853  1.3531  0.6561
  220MOL0     H29672   6.326  10.343   3.091 -0.1810  4.1708  1.5941
  220MOL0     H29673   6.512  10.362   3.100 -2.1619  3.8657 -1.5924
  220MOL0     H29674   6.335  10.354   3.350 -1.4321  1.9595  0.3377
  220MOL0     H29675   6.509  10.412   3.329 -0.3956  3.8348  0.1488
  220MOL0     H29676   6.259  10.572   3.279 -0.5849 -3.3581  0.0473
  220MOL0     H29677   6.402  10.604   3.182  0.4032  0.1354 -0.1960
  220MOL0     H29678   6.533  10.635   3.400 -0.8812 -0.3703  0.7209
  220MOL0     H29679   6.406  10.745   3.365 -0.3617  0.0150 -2.2921
  220MOL0     H29680   6.363   9.894   2.632  0.0602  0.0390  0.1747
  220MOL0     H29681   6.402   9.753   2.423 -1.1397 -0.0427  0.6958
  220MOL0     H29682   6.828   9.427   2.191  1.0196 -0.3784 -1.2784
  220MOL0     H29683   6.812   9.322   1.957 -0.6820 -1.7028  1.0144
  220MOL0     H29684   7.309  10.304   1.803  2.3934  2.2499 -0.2660
  220MOL0     H29685   7.480  10.424   1.659  0.6240  0.6411  0.4805
  220MOL0     H29686   7.575  10.697   1.426 -2.7455 -0.3444 -0.7273
  220MOL0     H29687   7.786  10.817   1.360 -0.2430 -0.1912 -0.5467
  220MOL0     H29688   8.068  10.836   1.305  1.2929  0.2636 -0.2124
  220MOL0     H29689   8.136  10.769   1.153 -1.6391 -3.4875 -2.1798
  220MOL0     H29690   8.046  10.547   1.218 -2.8752  0.5279  0.4723
  220MOL0     H29691   7.998  10.602   1.371  1.3227 -0.1267 -0.6392
  220MOL0     H29692   8.192  10.601   1.466  0.0853 -0.0426  1.0269
  220MOL0     H29693   8.281  10.671   1.340  1.0480 -0.5801  4.3368
  220MOL0     H29694   8.174  10.378   1.327 -2.1350  1.4759  1.0769
  220MOL0     H29695   8.276  10.448   1.204 -1.2343 -2.5548  0.4104
  220MOL0     H29696   8.558  10.366   1.492 -2.2216 -1.3517  4.1322
  220MOL0     H29697   7.847  10.583   1.023  1.1390  0.9265  1.0968
  220MOL0     H29698   7.695  10.367   0.993 -1.0032 -1.1615  2.6955
  220MOL0     H29699   7.538  10.366   1.079 -0.2713 -0.3318  0.8134
  220MOL0     H29700   7.562  10.480   0.938  2.0406 -0.5637 -2.0041
  221MOL0     O29701   9.907   5.564   7.216 -0.0817  0.4519 -0.3026
  221MOL0     C29702   9.867   5.586   7.098 -0.1159 -0.5540  0.1746
  221MOL0     O29703   9.907   5.689   7.019 -0.3992 -0.3719  0.0849
  221MOL0     C29704   9.991   5.794   7.065 -0.3353  0.7119  0.2515
  221MOL0     C29705  10.123   5.760   7.113  0.7051 -0.6484  0.5775
  221MOL0     C29706  10.200   5.868   7.155 -0.7701  0.6908  0.1106
  221MOL0     C29707  10.147   6.005   7.155 -0.7702  0.4063 -1.1721
  221MOL0     O29708  10.230   6.113   7.185 -0.4294 -0.5059  0.1228
  221MOL0     C29709  10.328   6.116   7.289  0.5294 -0.3084 -0.4659
  221MOL0     C29710  10.292   6.222   7.391  0.3874 -0.3318 -0.6146
  221MOL0     C29711  10.308   6.376   7.352 -0.5136  0.1563  0.1992
  221MOL0     C29712  10.448   6.410   7.311 -0.0686 -0.1267  0.4276
  221MOL0     C29713  10.451   6.553   7.252 -0.5891  0.8866  0.3169
  221MOL0     C29714  10.409   6.664   7.347  0.3205 -0.4542  0.0031
  221MOL0     C29715  10.409   6.804   7.278  0.1028  0.2037  0.7576
  221MOL0     C29716  10.354   6.910   7.355 -0.2290 -0.4155  0.6817
  221MOL0     N29717  10.418   7.039   7.320  0.4062  0.6122  0.4348
  221MOL0     C29718  10.548   7.073   7.335 -0.5411  0.3191 -0.0795
  221MOL0     C29719  10.566   7.198   7.291 -0.1035 -0.1341  0.8965
  221MOL0     C29720  10.692   7.275   7.294  0.9493  0.1620  0.4615
  221MOL0     C29721  10.743   7.299   7.438 -0.0785 -0.5296  0.4078
  221MOL0     C29722  10.822   7.180   7.499 -0.1392 -0.9313 -0.0329
  221MOL0     C29723  10.931   7.106   7.407 -0.4224 -0.9223  0.6560
  221MOL0     O29724  10.879   6.996   7.319  0.4357 -0.5331 -0.6740
  221MOL0     C29725  10.862   6.871   7.365  0.4062  0.3377  0.1480
  221MOL0     C29726  10.886   6.820   7.489  0.5893 -0.1770 -0.4724
  221MOL0     C29727  10.879   6.682   7.516  0.1946 -0.3727  0.6108
  221MOL0     C29728  10.844   6.592   7.420 -0.1931 -0.4415  0.5742
  221MOL0     C29729  10.839   6.442   7.435 -0.4001 -0.3672 -0.4450
  221MOL0     O29730  10.800   6.358   7.332  0.3226  0.1712 -0.3046
  221MOL0     C29731  10.785   6.222   7.343 -0.3662 -0.1323 -0.6226
  221MOL0     C29732  10.718   6.174   7.450  0.4284  0.8066 -0.3127
  221MOL0     C29733  10.652   6.048   7.438 -0.1065 -0.2267 -0.6822
  221MOL0     C29734  10.653   5.973   7.318 -0.1342  0.3551 -0.5497
  221MOL0     O29735  10.590   5.848   7.323 -0.0790 -0.2876  0.1043
  221MOL0     C29736  10.631   5.755   7.216  0.0887 -0.8610  0.5774
  221MOL0     C29737  10.537   5.633   7.227 -0.2223  0.1772  0.6096
  221MOL0     C29738  10.499   5.595   7.374 -0.3768 -0.0435  0.4104
  221MOL0     C29739  10.469   5.447   7.369  0.4785 -0.5077  0.8163
  221MOL0     C29740  10.592   5.354   7.405  0.1381 -0.2473  0.0229
  221MOL0     C29741  10.571   5.212   7.377 -0.1242 -0.1018 -0.4174
  221MOL0     C29742  10.690   5.120   7.388 -1.0390 -0.1455  0.2151
  221MOL0     C29743  10.793   5.102   7.273 -0.5741  0.2327 -0.1067
  221MOL0    Cl29744  10.936   4.999   7.303  0.4077  0.6613 -0.0320
  221MOL0     C29745  10.733   6.029   7.206  0.6783  0.0802  0.9433
  221MOL0     C29746  10.797   6.148   7.220 -0.3194 -0.1108  0.3608
  221MOL0     O29747  10.878   6.402   7.538  0.0732 -0.1740  0.5004
  221MOL0     C29748  10.813   6.645   7.291  0.5985  0.0893  1.0466
  221MOL0     C29749  10.830   6.779   7.260  0.0740 -0.2977 -0.9507
  221MOL0     N29750  10.439   7.245   7.258 -1.0166  0.5569  0.0295
  221MOL0     N29751  10.356   7.145   7.262  0.2962 -0.6689 -0.2223
  221MOL0     C29752  10.011   6.025   7.124 -0.3000  0.1705  0.1648
  221MOL0     C29753   9.937   5.924   7.075  0.1127  0.2493  0.3520
  221MOL0     C29754   9.768   5.489   7.043 -0.0061  0.2982 -0.3868
  221MOL0     C29755   9.725   5.517   6.907  0.2878 -0.5858 -0.7332
  221MOL0     C29756   9.652   5.424   6.836 -1.2686  1.2592  0.6258
  221MOL0     C29757   9.608   5.300   6.895  0.2789 -0.2306 -0.2535
  221MOL0     O29758   9.539   5.200   6.827 -0.1754  0.2929 -0.1808
  221MOL0     C29759   9.497   5.201   6.694  0.4669  0.4892  0.3987
  221MOL0     C29760   9.602   5.174   6.587  0.2053 -0.0915 -0.1699
  221MOL0     C29761   9.540   5.132   6.458 -1.3565  0.0114 -0.5513
  221MOL0     C29762   9.650   5.159   6.342  0.3316  0.9035 -0.6116
  221MOL0     C29763   9.755   5.057   6.333  0.5762 -0.5415 -0.3966
  221MOL0     C29764   9.832   4.967   6.315 -0.0006  0.6640  0.1701
  221MOL0     C29765   9.639   5.280   7.033  0.4229  0.7106 -0.5338
  221MOL0     C29766   9.712   5.372   7.112 -0.3008  0.6026 -0.4238
  221MOL0     C29767   9.724   5.337   7.258 -1.0363 -0.0380  0.1695
  221MOL0     H29768  10.168   5.664   7.137 -0.7565 -1.6882 -0.5789
  221MOL0     H29769  10.301   5.843   7.184 -1.7705 -2.6077  1.1465
  221MOL0     H29770  10.343   6.021   7.342  0.7623  1.2678  2.5060
  221MOL0     H29771  10.428   6.130   7.247 -0.3595  1.8901 -2.0338
  221MOL0     H29772  10.363   6.202   7.472 -0.0986  0.7048  0.1024
  221MOL0     H29773  10.186   6.221   7.419  0.5503  1.8131  0.3319
  221MOL0     H29774  10.300   6.431   7.446  3.7665  2.4222 -0.5475
  221MOL0     H29775  10.237   6.400   7.273  0.2496  0.8951 -0.2713
  221MOL0     H29776  10.506   6.403   7.404  3.4180  2.0710 -1.3904
  221MOL0     H29777  10.499   6.340   7.245 -2.5631  1.6989 -3.8298
  221MOL0     H29778  10.554   6.569   7.216 -0.0041 -1.6345  0.6899
  221MOL0     H29779  10.390   6.568   7.162  2.6370 -1.2214 -2.5230
  221MOL0     H29780  10.303   6.647   7.367  0.1262 -1.5538 -1.7882
  221MOL0     H29781  10.463   6.662   7.443 -0.3819 -1.3182  0.3935
  221MOL0     H29782  10.367   6.808   7.177  1.0004  2.6519  0.4066
  221MOL0     H29783  10.515   6.829   7.262 -0.4306  2.2118  0.0267
  221MOL0     H29784  10.244   6.906   7.351 -0.3863  2.5835 -1.7588
  221MOL0     H29785  10.373   6.899   7.462 -0.1194  1.6681  0.9178
  221MOL0     H29786  10.624   7.007   7.377 -1.4937 -1.4728 -1.0516
  221MOL0     H29787  10.767   7.216   7.241  0.1190 -1.2967  0.8552
  221MOL0     H29788  10.672   7.376   7.258 -1.3815  0.0433  1.2045
  221MOL0     H29789  10.807   7.387   7.442 -0.1385 -0.4879  0.4563
  221MOL0     H29790  10.661   7.326   7.505 -1.6793  3.0775 -2.5957
  221MOL0     H29791  10.754   7.102   7.533 -0.5018  0.3233  2.3297
  221MOL0     H29792  10.880   7.206   7.588  1.4361  0.5102 -1.3978
  221MOL0     H29793  11.006   7.058   7.470  0.5018 -2.0995 -1.2677
  221MOL0     H29794  10.984   7.181   7.346 -0.9097 -0.4738  0.7689
  221MOL0     H29795  10.924   6.878   7.572  2.3834 -0.3474 -1.1398
  221MOL0     H29796  10.913   6.639   7.611 -1.3298 -2.0227  0.4564
  221MOL0     H29797  10.714   6.229   7.543 -2.6725  0.9363 -0.4215
  221MOL0     H29798  10.590   6.016   7.521  1.4397  1.0881  1.0512
  221MOL0     H29799  10.629   5.800   7.116  0.8111 -1.7014  0.1728
  221MOL0     H29800  10.734   5.719   7.229 -1.0320 -3.9762  1.7129
  221MOL0     H29801  10.440   5.663   7.185 -0.3975 -0.0734  0.8321
  221MOL0     H29802  10.586   5.557   7.166  1.8548  1.1128  1.0005
  221MOL0     H29803  10.582   5.608   7.444  0.4555  0.4699 -0.6489
  221MOL0     H29804  10.421   5.653   7.425 -1.2661 -2.0731  1.4923
  221MOL0     H29805  10.430   5.411   7.273 -1.4211  2.6144  0.2853
  221MOL0     H29806  10.394   5.424   7.444  1.0289  0.3711  1.6511
  221MOL0     H29807  10.615   5.353   7.512 -3.0443 -4.2097  0.8910
  221MOL0     H29808  10.676   5.377   7.338 -0.1386 -1.7199 -0.8923
  221MOL0     H29809  10.496   5.176   7.447 -0.9682 -2.0493 -2.2171
  221MOL0     H29810  10.513   5.206   7.284 -4.0892 -1.0154  1.8900
  221MOL0     H29811  10.648   5.021   7.407 -2.0824  0.1418 -0.5184
  221MOL0     H29812  10.746   5.153   7.476 -0.3059 -0.5427 -0.0841
  221MOL0     H29813  10.724   5.085   7.191  0.1735  1.3277 -1.0022
  221MOL0     H29814  10.827   5.204   7.251  2.3139 -1.0066 -2.0047
  221MOL0     H29815  10.740   5.968   7.117  0.4661  3.9090 -1.9475
  221MOL0     H29816  10.836   6.195   7.131 -1.0850 -1.0450 -0.5033
  221MOL0     H29817  10.796   6.577   7.209 -2.2099 -0.1370  1.7170
  221MOL0     H29818  10.807   6.816   7.161  0.4026  3.0801  0.1097
  221MOL0     H29819   9.978   6.128   7.132 -0.0809  0.1720  1.2974
  221MOL0     H29820   9.834   5.946   7.051 -0.5535 -1.6856  1.2718
  221MOL0     H29821   9.754   5.613   6.866 -2.0002  1.1459  1.3983
  221MOL0     H29822   9.624   5.450   6.735 -1.3820  1.3415  0.6782
  221MOL0     H29823   9.446   5.294   6.667 -2.0704 -1.1136 -0.6389
  221MOL0     H29824   9.423   5.122   6.688  0.2032  0.8307 -1.8370
  221MOL0     H29825   9.677   5.098   6.612  0.9785 -0.9375 -4.3227
  221MOL0     H29826   9.660   5.266   6.577 -0.3710  0.0469 -3.7646
  221MOL0     H29827   9.450   5.188   6.430 -1.1943 -0.5455 -2.3201
  221MOL0     H29828   9.507   5.029   6.443 -1.1184  0.0242 -1.1720
  221MOL0     H29829   9.595   5.151   6.248  0.2935  2.6589 -0.7762
  221MOL0     H29830   9.701   5.254   6.363 -0.4164  0.9525  1.1415
  221MOL0     H29831   9.890   4.877   6.316 -1.2252 -0.1648  2.3027
  221MOL0     H29832   9.601   5.188   7.075  0.0588  1.9205  2.0027
  221MOL0     H29833   9.813   5.274   7.270 -0.9750 -0.3555 -1.6966
  221MOL0     H29834   9.732   5.430   7.316  3.0905  0.4167 -0.8515
  221MOL0     H29835   9.633   5.288   7.294 -1.0610 -0.4151 -0.4001
  222MOL0     O29836   6.926   4.848   0.790 -0.1825  0.2156  0.1349
  222MOL0     C29837   6.981   4.955   0.799 -0.6997  0.0730  0.1569
  222MOL0     O29838   6.923   5.069   0.845 -0.8957 -0.1841  0.0088
  222MOL0     C29839   6.795   5.085   0.849  0.3832  0.1129 -0.7455
  222MOL0     C29840   6.702   5.036   0.759 -0.2036  0.9071  0.9697
  222MOL0     C29841   6.566   5.059   0.769  0.9157 -0.8150 -0.3851
  222MOL0     C29842   6.519   5.143   0.867  0.7253 -0.7450  0.2743
  222MOL0     O29843   6.384   5.186   0.886  0.5162  0.2329  0.3168
  222MOL0     C29844   6.293   5.138   0.781 -0.0529 -0.6167 -0.5474
  222MOL0     C29845   6.156   5.169   0.818  0.9118 -0.5556 -0.4976
  222MOL0     C29846   6.068   5.124   0.699 -0.2097 -0.2454 -1.0699
  222MOL0     C29847   5.919   5.116   0.708 -0.8882  0.2625 -0.1521
  222MOL0     C29848   5.875   5.067   0.571  0.5894 -0.3052 -0.4107
  222MOL0     C29849   5.719   5.051   0.575 -1.0177  0.0834 -0.0107
  222MOL0     C29850   5.641   5.181   0.585  0.2061  0.8459 -0.0688
  222MOL0     C29851   5.530   5.196   0.697  0.4631 -0.3512 -0.9989
  222MOL0     N29852   5.414   5.117   0.661  0.5849  0.0839  0.0421
  222MOL0     C29853   5.402   5.021   0.560 -0.3471  0.1346 -0.1463
  222MOL0     C29854   5.266   4.993   0.556 -0.1577  0.4084  0.4473
  222MOL0     C29855   5.187   4.897   0.461 -0.1309  0.1993  0.1139
  222MOL0     C29856   5.268   4.774   0.445 -0.7097 -0.3508  0.3836
  222MOL0     C29857   5.183   4.684   0.355 -0.6974 -0.0258 -0.0901
  222MOL0     C29858   5.260   4.545   0.345 -0.1471  0.2696  0.5456
  222MOL0     O29859   5.259   4.468   0.468  0.6586 -0.0425  0.6852
  222MOL0     C29860   5.131   4.423   0.491 -0.6203  0.7474 -0.6949
  222MOL0     C29861   5.073   4.460   0.615  0.0437 -0.0798  0.9483
  222MOL0     C29862   4.937   4.430   0.632  0.6670 -0.2002 -0.7380
  222MOL0     C29863   4.865   4.362   0.541  0.4766 -0.0681  0.2979
  222MOL0     C29864   4.715   4.338   0.566  0.0034  0.3509  0.4399
  222MOL0     O29865   4.649   4.419   0.653  0.3571  0.0860  0.2452
  222MOL0     C29866   4.514   4.410   0.689  0.8296 -0.6296 -0.9685
  222MOL0     C29867   4.455   4.295   0.723  0.2700  0.1771  0.7922
  222MOL0     C29868   4.322   4.279   0.767  0.1832  0.6003 -0.7950
  222MOL0     C29869   4.242   4.392   0.774  0.0131 -0.1591  1.0329
  222MOL0     O29870   4.116   4.382   0.816  0.4322  0.1853  0.3556
  222MOL0     C29871   4.046   4.496   0.869 -0.5221  0.1987  0.1254
  222MOL0     C29872   3.933   4.449   0.961 -0.5163  1.0733  0.3928
  222MOL0     C29873   3.896   4.546   1.068  0.2811  0.7330  0.2821
  222MOL0     C29874   3.893   4.695   1.025  0.6637  0.2501  1.0613
  222MOL0     C29875   3.889   4.785   1.147 -0.2108  0.3775  0.1103
  222MOL0     C29876   3.869   4.935   1.107 -0.0384 -0.1951 -0.6632
  222MOL0     C29877   3.830   5.008   1.228  0.8615 -0.2177 -0.5079
  222MOL0     C29878   3.707   5.094   1.209 -0.3851  0.0468  1.1248
  222MOL0    Cl29879   3.652   5.144   1.373 -0.1958  0.0647  0.1104
  222MOL0     C29880   4.300   4.514   0.736 -0.0899 -0.5165  0.2019
  222MOL0     C29881   4.432   4.519   0.693 -0.1101 -0.8204 -0.5128
  222MOL0     O29882   4.657   4.248   0.510 -0.1927  0.3756 -0.1821
  222MOL0     C29883   4.931   4.310   0.428 -0.6030 -0.1818 -0.2775
  222MOL0     C29884   5.064   4.337   0.402 -0.0222  0.9086  0.0010
  222MOL0     N29885   5.202   5.085   0.641 -0.4366  0.4945 -0.6548
  222MOL0     N29886   5.295   5.167   0.692 -0.3793  0.4786  0.4344
  222MOL0     C29887   6.606   5.183   0.965 -0.0738 -0.0793 -0.0089
  222MOL0     C29888   6.744   5.167   0.951  0.9968  0.0406  0.0820
  222MOL0     C29889   7.125   4.966   0.756 -0.7982 -0.3983  0.8432
  222MOL0     C29890   7.182   5.096   0.728 -0.6768 -0.4830 -0.0611
  222MOL0     C29891   7.313   5.119   0.688  0.2511  0.6905 -0.1754
  222MOL0     C29892   7.396   5.008   0.672  0.0670 -0.4500 -0.4947
  222MOL0     O29893   7.513   5.028   0.608 -0.3011 -0.4670  0.0641
  222MOL0     C29894   7.597   5.146   0.640 -0.4538 -0.1247  0.0272
  222MOL0     C29895   7.738   5.096   0.606  0.2662  0.2354  0.1518
  222MOL0     C29896   7.774   4.971   0.698 -0.3312 -0.4568 -0.6977
  222MOL0     C29897   7.928   4.941   0.696 -0.0173  0.5382  0.7009
  222MOL0     C29898   7.971   4.907   0.558  0.1231 -0.8696 -0.1132
  222MOL0     C29899   7.984   4.862   0.441  0.0705 -0.0941  0.0184
  222MOL0     C29900   7.353   4.884   0.706 -0.1898  0.2353 -0.1158
  222MOL0     C29901   7.218   4.856   0.745  0.4599 -0.2851  0.0154
  222MOL0     C29902   7.178   4.708   0.753  0.5103  0.0612 -0.0311
  222MOL0     H29903   6.754   4.988   0.677  3.5285  3.9868  1.2279
  222MOL0     H29904   6.510   5.008   0.690  0.3441 -0.5614 -0.1539
  222MOL0     H29905   6.320   5.176   0.682 -0.9020 -2.9720 -1.7785
  222MOL0     H29906   6.289   5.029   0.796 -0.6682 -0.4784  0.3419
  222MOL0     H29907   6.141   5.275   0.837  2.5617 -0.6246  1.5650
  222MOL0     H29908   6.114   5.110   0.900  0.8003  0.4742  0.2033
  222MOL0     H29909   6.106   5.031   0.656 -0.6459  0.3591 -2.8594
  222MOL0     H29910   6.080   5.198   0.619  0.5826  1.3400  0.4511
  222MOL0     H29911   5.899   5.046   0.790  0.5692 -0.0271 -0.0203
  222MOL0     H29912   5.876   5.212   0.737 -0.0837  0.2955  1.0226
  222MOL0     H29913   5.898   5.143   0.497  2.6232 -0.5229 -0.0702
  222MOL0     H29914   5.919   4.969   0.552  3.7520  0.8037  0.5463
  222MOL0     H29915   5.685   5.002   0.484 -0.2737 -0.0540 -0.2188
  222MOL0     H29916   5.699   4.994   0.667 -1.5998 -1.5815 -1.1166
  222MOL0     H29917   5.597   5.202   0.487  2.8655 -0.4102 -1.6512
  222MOL0     H29918   5.709   5.262   0.611  0.9444  0.3173 -0.3005
  222MOL0     H29919   5.568   5.162   0.794 -0.7115 -0.4253 -0.5593
  222MOL0     H29920   5.492   5.297   0.713 -0.1868 -0.3707 -2.3106
  222MOL0     H29921   5.482   4.987   0.495 -1.6724  1.4691 -2.6271
  222MOL0     H29922   5.090   4.866   0.500  0.5642 -1.2002  0.8235
  222MOL0     H29923   5.186   4.948   0.364  0.8021 -0.6726 -0.3691
  222MOL0     H29924   5.367   4.795   0.404 -1.1330 -2.2254 -1.7959
  222MOL0     H29925   5.281   4.723   0.541  0.0971 -0.5713  0.1674
  222MOL0     H29926   5.177   4.720   0.252 -1.2588  1.4573  0.4434
  222MOL0     H29927   5.081   4.668   0.392 -0.5116 -1.5520 -0.1531
  222MOL0     H29928   5.367   4.554   0.325 -0.3664 -2.4583 -2.7455
  222MOL0     H29929   5.221   4.493   0.257  0.1665  1.2328 -0.1751
  222MOL0     H29930   5.136   4.516   0.684  2.0423 -3.2771  1.9396
  222MOL0     H29931   4.899   4.459   0.730 -0.1648 -2.1510 -0.4450
  222MOL0     H29932   4.523   4.210   0.720  2.6029  1.8481 -4.1332
  222MOL0     H29933   4.280   4.183   0.795 -0.5027  0.9336 -0.6546
  222MOL0     H29934   4.127   4.545   0.925 -0.7110  2.0449 -1.1440
  222MOL0     H29935   4.014   4.556   0.784  1.8964 -0.7299 -1.5420
  222MOL0     H29936   3.847   4.424   0.899 -2.9644  2.2067  3.1185
  222MOL0     H29937   3.966   4.367   1.025  0.1573 -0.7216 -2.0996
  222MOL0     H29938   3.800   4.519   1.114  0.8127 -4.5234 -1.0448
  222MOL0     H29939   3.962   4.531   1.154  0.9364 -2.4894 -0.6661
  222MOL0     H29940   3.803   4.696   0.963  1.3258  2.2489  0.0357
  222MOL0     H29941   3.983   4.710   0.964  1.0645  2.1428  2.0731
  222MOL0     H29942   3.976   4.774   1.213  0.5220  1.5893 -0.6064
  222MOL0     H29943   3.806   4.758   1.212 -0.2800  2.4598  0.9947
  222MOL0     H29944   3.957   4.982   1.061 -1.3022 -1.2644 -4.6236
  222MOL0     H29945   3.803   4.952   1.022  1.7738  4.1960 -1.4754
  222MOL0     H29946   3.911   5.076   1.258  1.6501 -0.4348 -2.0524
  222MOL0     H29947   3.814   4.941   1.313  3.4523 -2.1063 -1.3720
  222MOL0     H29948   3.724   5.185   1.151 -1.4736 -0.1261  0.5112
  222MOL0     H29949   3.623   5.046   1.160 -0.8624  0.2022  1.7685
  222MOL0     H29950   4.237   4.603   0.735 -1.8275 -1.6800  1.1952
  222MOL0     H29951   4.474   4.617   0.671  1.0964 -0.5067  2.6301
  222MOL0     H29952   4.871   4.244   0.366 -0.8447  0.9933 -1.3335
  222MOL0     H29953   5.118   4.298   0.316  0.1534  0.5510  0.2723
  222MOL0     H29954   6.568   5.222   1.059 -3.1531 -0.8838 -0.8232
  222MOL0     H29955   6.809   5.188   1.035  1.0474  2.7331 -0.5460
  222MOL0     H29956   7.117   5.184   0.729 -2.3783 -1.6730 -0.7364
  222MOL0     H29957   7.350   5.216   0.658  3.5759  0.1305  1.6243
  222MOL0     H29958   7.583   5.174   0.745 -0.5299 -0.0178 -0.0106
  222MOL0     H29959   7.586   5.237   0.581  2.2105  0.8405  0.8543
  222MOL0     H29960   7.811   5.176   0.621  0.2888  0.4235 -0.9331
  222MOL0     H29961   7.728   5.067   0.501 -3.2909  1.1389  0.1077
  222MOL0     H29962   7.718   4.881   0.668 -2.1570  1.0918 -2.1610
  222MOL0     H29963   7.743   4.998   0.799 -0.8790 -0.6984 -0.8001
  222MOL0     H29964   7.979   5.028   0.738 -0.6601 -0.6392  4.3273
  222MOL0     H29965   7.965   4.856   0.754  0.5004 -0.4351 -0.9842
  222MOL0     H29966   8.013   4.820   0.347 -1.5628  1.0365 -1.0332
  222MOL0     H29967   7.423   4.805   0.682 -0.3158  0.5817 -1.7072
  222MOL0     H29968   7.244   4.653   0.822 -1.1269 -1.5102  0.3605
  222MOL0     H29969   7.079   4.674   0.783  1.1705 -0.4669  1.7390
  222MOL0     H29970   7.193   4.665   0.654 -1.2988 -2.6787  0.7842
  223MOL0     O29971   2.549   3.284   7.278  0.7041 -0.2493  0.2567
  223MOL0     C29972   2.477   3.347   7.353 -1.1521 -0.1998 -0.1146
  223MOL0     O29973   2.422   3.302   7.465  0.2212  0.1990  0.1221
  223MOL0     C29974   2.459   3.183   7.512  0.1676  1.0271  0.2809
  223MOL0     C29975   2.385   3.064   7.492  0.1735 -0.2995  0.4675
  223MOL0     C29976   2.414   2.940   7.555  0.1456  0.0982 -0.9042
  223MOL0     C29977   2.519   2.942   7.660  0.5075  0.1648  0.7786
  223MOL0     O29978   2.538   2.849   7.759  0.5903  0.1754 -0.0662
  223MOL0     C29979   2.463   2.722   7.770 -0.8475 -1.1033 -0.0097
  223MOL0     C29980   2.330   2.738   7.846  0.4492 -0.3208 -0.2839
  223MOL0     C29981   2.343   2.748   7.997 -0.8776 -0.2955  0.1938
  223MOL0     C29982   2.213   2.807   8.054  1.2194  0.4591  0.6097
  223MOL0     C29983   2.214   2.801   8.206 -0.7720 -0.7312  0.8031
  223MOL0     C29984   2.173   2.662   8.251 -0.7954 -0.0115 -0.3858
  223MOL0     C29985   2.193   2.645   8.407  0.0153 -0.7917 -1.2282
  223MOL0     C29986   2.344   2.629   8.461  0.8252 -0.1924 -0.7854
  223MOL0     N29987   2.346   2.595   8.602  0.3133 -0.1553  0.2635
  223MOL0     C29988   2.322   2.676   8.705  0.3320 -0.2916  0.0790
  223MOL0     C29989   2.331   2.593   8.815 -0.2600  0.6221 -0.7008
  223MOL0     C29990   2.324   2.628   8.967 -0.2498 -0.4350  0.5126
  223MOL0     C29991   2.176   2.599   9.005  0.1278  0.0663 -0.1066
  223MOL0     C29992   2.175   2.598   9.160  0.4736  0.2505  0.3977
  223MOL0     C29993   2.053   2.515   9.216 -0.1336 -0.4885 -0.0680
  223MOL0     O29994   2.064   2.521   9.360  0.3388  0.2991  0.4711
  223MOL0     C29995   1.959   2.463   9.435 -0.0228  0.1850 -1.3678
  223MOL0     C29996   1.834   2.412   9.390 -0.7893 -0.2180  0.9976
  223MOL0     C29997   1.735   2.351   9.457  0.0120 -0.3848 -0.7455
  223MOL0     C29998   1.755   2.351   9.597 -0.0117 -0.1345  0.1407
  223MOL0     C29999   1.660   2.283   9.686 -1.0078 -0.1337 -0.4452
  223MOL0     O30000   1.574   2.196   9.624  0.7044 -0.5438 -0.2254
  223MOL0     C30001   1.523   2.098   9.695  0.3939  0.5471 -0.2750
  223MOL0     C30002   1.595   2.012   9.771 -0.8037  0.3164 -0.2157
  223MOL0     C30003   1.534   1.909   9.844  0.6384 -0.1681 -0.2517
  223MOL0     C30004   1.396   1.890   9.829  0.2657 -1.0657 -1.0695
  223MOL0     O30005   1.332   1.781   9.888  0.1402  0.1464 -0.1746
  223MOL0     C30006   1.397   1.664   9.941 -0.3730  0.3780  0.2025
  223MOL0     C30007   1.299   1.569  10.015  0.2630  0.2354 -0.2906
  223MOL0     C30008   1.183   1.528   9.915  0.0237  0.5300  0.0479
  223MOL0     C30009   1.068   1.454   9.981 -0.8762  0.1854 -0.6518
  223MOL0     C30010   1.109   1.312  10.024  0.1104 -0.8708 -0.5839
  223MOL0     C30011   1.033   1.271  10.156  1.1116  0.0194  0.7584
  223MOL0     C30012   1.026   1.114  10.175  1.3957 -0.6180  0.4519
  223MOL0     C30013   0.936   1.089  10.300 -0.5705  0.1742  0.3181
  223MOL0    Cl30014   1.037   1.109  10.439  0.5429 -0.4719 -0.3539
  223MOL0     C30015   1.321   1.990   9.758 -0.2224  0.1786  0.3047
  223MOL0     C30016   1.385   2.080   9.683 -0.9572 -0.8945  0.3162
  223MOL0     O30017   1.684   2.294   9.805 -0.0390  0.5373  0.5489
  223MOL0     C30018   1.872   2.405   9.654 -0.2843 -0.2881 -0.2215
  223MOL0     C30019   1.969   2.468   9.572 -0.6659  0.3927 -0.6670
  223MOL0     N30020   2.343   2.464   8.782 -0.1867  1.1071  0.3559
  223MOL0     N30021   2.370   2.473   8.657  0.2359  0.3790 -0.0827
  223MOL0     C30022   2.589   3.061   7.674  0.1931  0.0149 -0.1490
  223MOL0     C30023   2.559   3.178   7.600 -0.1151 -0.2401 -0.5907
  223MOL0     C30024   2.446   3.482   7.319 -0.5886 -0.0351  0.3073
  223MOL0     C30025   2.384   3.502   7.198  0.0664 -0.0674 -1.3254
  223MOL0     C30026   2.365   3.632   7.157  0.0317  1.0403  0.5502
  223MOL0     C30027   2.392   3.731   7.236 -0.4785 -0.6130  0.3116
  223MOL0     O30028   2.371   3.858   7.200 -0.0584 -0.4429  0.2815
  223MOL0     C30029   2.237   3.905   7.206  0.3839  0.4573  0.2397
  223MOL0     C30030   2.225   4.049   7.244 -0.6439  0.0329 -0.7239
  223MOL0     C30031   2.093   4.125   7.215 -0.4592  0.7096  0.3850
  223MOL0     C30032   1.967   4.053   7.220  0.4693  0.6595 -0.4022
  223MOL0     C30033   1.929   4.036   7.362  0.6004  0.2005  0.1587
  223MOL0     C30034   1.899   4.034   7.480  0.2792 -0.2936 -0.4984
  223MOL0     C30035   2.442   3.716   7.366 -0.7327  0.0361  0.0572
  223MOL0     C30036   2.477   3.590   7.405 -0.0745  0.2119 -0.8077
  223MOL0     C30037   2.554   3.580   7.536  0.1937 -0.2902  0.5432
  223MOL0     H30038   2.296   3.076   7.431  0.2877  1.1508  0.5602
  223MOL0     H30039   2.358   2.850   7.530  0.3875  1.1533 -6.6063
  223MOL0     H30040   2.438   2.689   7.669 -2.2726 -0.9324  0.2596
  223MOL0     H30041   2.534   2.645   7.802 -1.2595 -3.4969 -4.1059
  223MOL0     H30042   2.263   2.654   7.828 -0.7318  0.1177  1.8064
  223MOL0     H30043   2.264   2.816   7.809 -0.6610 -0.2087  1.8058
  223MOL0     H30044   2.425   2.815   8.026 -1.5406  0.1268  1.1437
  223MOL0     H30045   2.372   2.659   8.053  0.7716  2.6788  4.5690
  223MOL0     H30046   2.202   2.910   8.019  3.7901  0.9360  1.0042
  223MOL0     H30047   2.124   2.758   8.014  1.0015  2.8099 -2.0513
  223MOL0     H30048   2.316   2.823   8.239  0.1978  0.5952 -2.5606
  223MOL0     H30049   2.144   2.879   8.237 -0.9783 -0.3104 -0.6198
  223MOL0     H30050   2.068   2.645   8.224 -0.5524 -1.0692 -0.7226
  223MOL0     H30051   2.231   2.583   8.202 -2.2142 -1.7864  0.6818
  223MOL0     H30052   2.150   2.545   8.422 -2.2943  0.4871  1.7532
  223MOL0     H30053   2.138   2.727   8.454  1.2293 -2.5970  4.0516
  223MOL0     H30054   2.385   2.538   8.416 -0.0877 -1.5119  0.9259
  223MOL0     H30055   2.399   2.718   8.428 -0.7991  1.4978  0.8375
  223MOL0     H30056   2.318   2.783   8.689  1.8248 -0.1731  0.3513
  223MOL0     H30057   2.397   2.560   9.013 -0.5996 -1.2300 -0.0683
  223MOL0     H30058   2.361   2.729   8.987  2.0420 -1.3542  1.2696
  223MOL0     H30059   2.109   2.674   8.961  1.0411 -0.6477 -2.9424
  223MOL0     H30060   2.131   2.505   8.973 -2.9929  0.5164  2.4582
  223MOL0     H30061   2.179   2.700   9.199 -2.4831  2.0521 -3.3889
  223MOL0     H30062   2.254   2.532   9.198  2.5527  3.1456  1.5101
  223MOL0     H30063   2.059   2.414   9.175 -0.2552 -0.4785 -0.1113
  223MOL0     H30064   1.958   2.561   9.187 -0.2322  2.1108  3.6390
  223MOL0     H30065   1.813   2.414   9.284  1.0530  0.2873  0.6101
  223MOL0     H30066   1.645   2.315   9.408 -0.4270  1.2445 -1.1693
  223MOL0     H30067   1.704   2.016   9.772 -0.4917 -2.4847  3.7092
  223MOL0     H30068   1.595   1.841   9.904  2.5084  1.7756  0.1591
  223MOL0     H30069   1.459   1.610   9.869 -0.1080 -0.6519  1.1692
  223MOL0     H30070   1.464   1.699  10.021  0.4540 -1.4274  0.3390
  223MOL0     H30071   1.346   1.474  10.040  0.2044  0.2721 -0.0363
  223MOL0     H30072   1.264   1.612  10.109 -1.6873 -2.4638  0.3463
  223MOL0     H30073   1.144   1.624   9.878 -0.2606  0.3004 -0.2457
  223MOL0     H30074   1.219   1.469   9.831 -1.7585 -0.5536 -0.0067
  223MOL0     H30075   0.981   1.453   9.915 -1.9778 -1.3707  0.7314
  223MOL0     H30076   1.047   1.506  10.074  0.8893  0.1862 -0.2148
  223MOL0     H30077   1.215   1.310  10.053 -0.4052  0.1611  1.5508
  223MOL0     H30078   1.094   1.240   9.944 -1.5288 -2.7652  1.3114
  223MOL0     H30079   1.084   1.309  10.244  3.7310  2.7181 -1.6951
  223MOL0     H30080   0.929   1.305  10.149  0.0930 -2.7747  1.0425
  223MOL0     H30081   1.126   1.073  10.187  1.6916 -0.5187 -1.3842
  223MOL0     H30082   0.990   1.067  10.083 -1.2113  2.2442 -0.1698
  223MOL0     H30083   0.840   1.143  10.305 -1.5120 -1.5145  2.7395
  223MOL0     H30084   0.914   0.982  10.300 -0.3681  0.1314  0.0323
  223MOL0     H30085   1.214   1.990   9.735 -0.1736 -1.8140 -0.1028
  223MOL0     H30086   1.330   2.161   9.637 -0.6841  0.3565  2.0827
  223MOL0     H30087   1.892   2.397   9.760  1.0047 -2.1958 -0.5429
  223MOL0     H30088   2.060   2.512   9.613 -2.0300  2.8499 -0.0669
  223MOL0     H30089   2.676   3.071   7.738 -0.2739 -2.1499  0.9409
  223MOL0     H30090   2.610   3.268   7.634 -3.9710  1.6803  0.7757
  223MOL0     H30091   2.340   3.425   7.137 -1.5705 -2.5626  2.5829
  223MOL0     H30092   2.316   3.646   7.061 -1.4271  1.4390  1.3313
  223MOL0     H30093   2.182   3.859   7.289  0.0948  1.1900  0.4631
  223MOL0     H30094   2.188   3.891   7.109 -0.5245  0.1602  0.7348
  223MOL0     H30095   2.310   4.102   7.200 -0.9414  0.6762 -0.5292
  223MOL0     H30096   2.238   4.057   7.352 -0.9806  4.9488 -0.8374
  223MOL0     H30097   2.104   4.159   7.111  1.0990  0.3752  0.4233
  223MOL0     H30098   2.089   4.225   7.258 -1.9959  1.3921 -1.2218
  223MOL0     H30099   1.888   4.113   7.173  0.3530 -0.8396 -2.2679
  223MOL0     H30100   1.969   3.954   7.174 -0.2128  1.4923 -2.3364
  223MOL0     H30101   1.865   4.044   7.581  0.0537 -0.3268 -0.5694
  223MOL0     H30102   2.449   3.802   7.432  0.4656 -0.6109  0.7990
  223MOL0     H30103   2.489   3.533   7.611 -1.2247  0.7887  0.0475
  223MOL0     H30104   2.630   3.503   7.525 -0.6017 -1.1352  0.8077
  223MOL0     H30105   2.597   3.679   7.554 -1.8221  1.6586 -3.8069
  224MOL0     O30106   8.755   3.338   8.995  0.3254 -0.6773 -0.1272
  224MOL0     C30107   8.719   3.227   9.027 -0.5278  0.6075 -0.7677
  224MOL0     O30108   8.598   3.195   9.081 -0.3383  0.2735  0.5646
  224MOL0     C30109   8.494   3.279   9.032 -0.2908  0.5420 -0.5009
  224MOL0     C30110   8.447   3.383   9.108 -0.2340 -0.1383  0.4035
  224MOL0     C30111   8.338   3.453   9.068 -0.0880 -0.9507 -0.2319
  224MOL0     C30112   8.272   3.434   8.944 -0.6631  0.1534 -0.1104
  224MOL0     O30113   8.164   3.518   8.923 -0.2592 -0.3750  0.0068
  224MOL0     C30114   8.055   3.477   8.840 -0.0208  0.1141  0.3000
  224MOL0     C30115   7.995   3.346   8.896  0.0662 -0.0754 -0.4813
  224MOL0     C30116   7.881   3.309   8.808 -0.5129 -0.0961  0.8732
  224MOL0     C30117   7.816   3.188   8.867 -0.0542 -0.8061 -0.6259
  224MOL0     C30118   7.728   3.117   8.761 -0.3602  0.3318 -0.5424
  224MOL0     C30119   7.638   3.022   8.833 -0.2259  0.2088  0.8802
  224MOL0     C30120   7.602   2.894   8.743  1.3725  0.2668 -0.4959
  224MOL0     C30121   7.723   2.816   8.689 -0.6365  0.3892 -0.4354
  224MOL0     N30122   7.684   2.681   8.641 -0.0543 -0.5793 -0.8587
  224MOL0     C30123   7.561   2.626   8.670  0.7667 -0.0675  0.0161
  224MOL0     C30124   7.579   2.493   8.637  0.2819 -1.1741  0.1488
  224MOL0     C30125   7.473   2.393   8.633 -0.5257  0.1182 -0.2149
  224MOL0     C30126   7.422   2.367   8.486 -0.2442  0.1412 -0.1173
  224MOL0     C30127   7.304   2.262   8.486 -0.3070 -0.1757 -0.0192
  224MOL0     C30128   7.354   2.115   8.468  0.4236 -0.4894 -0.3457
  224MOL0     O30129   7.446   2.077   8.572 -0.5285  0.0118 -0.7317
  224MOL0     C30130   7.396   1.968   8.638 -0.5107 -0.8152 -1.4698
  224MOL0     C30131   7.394   1.841   8.583  0.0040  0.7569  0.3015
  224MOL0     C30132   7.322   1.737   8.653 -0.9455  0.6474  0.0876
  224MOL0     C30133   7.268   1.757   8.780 -0.4473  0.5293 -0.1750
  224MOL0     C30134   7.202   1.644   8.849 -1.0595  0.0425 -0.4242
  224MOL0     O30135   7.213   1.653   8.982  0.2195 -0.0690 -0.5565
  224MOL0     C30136   7.154   1.553   9.067  0.1095  0.6109  0.5855
  224MOL0     C30137   7.137   1.589   9.200  0.2577 -0.3681 -0.2554
  224MOL0     C30138   7.085   1.491   9.287  0.1976 -0.2859 -0.1323
  224MOL0     C30139   7.045   1.370   9.245  0.1414  0.2727  0.5051
  224MOL0     O30140   7.014   1.266   9.333 -0.0287  0.8578 -0.6054
  224MOL0     C30141   7.117   1.242   9.433  0.6080  0.1310 -1.3082
  224MOL0     C30142   7.041   1.243   9.573 -0.0896  0.0581 -0.5012
  224MOL0     C30143   6.923   1.140   9.576  0.1913 -0.3407 -0.3111
  224MOL0     C30144   6.972   1.003   9.535  0.5671  0.2164 -0.5840
  224MOL0     C30145   6.854   0.909   9.530 -0.3686 -0.2290  0.6202
  224MOL0     C30146   6.771   0.944   9.402  0.3874  0.1178  0.2204
  224MOL0     C30147   6.695   0.803   9.377 -0.0840 -0.8729 -0.6089
  224MOL0     C30148   6.571   0.824   9.300 -0.9164 -0.2714  0.4164
  224MOL0    Cl30149   6.474   0.676   9.297  0.4220 -0.0876  0.2282
  224MOL0     C30150   7.067   1.330   9.114 -0.3284 -0.4559  0.2106
  224MOL0     C30151   7.117   1.422   9.021 -0.2379 -0.5981  0.1106
  224MOL0     O30152   7.144   1.562   8.788 -0.6159 -0.3735  0.8078
  224MOL0     C30153   7.276   1.889   8.832  0.1028 -0.3210 -0.2291
  224MOL0     C30154   7.335   1.993   8.765 -1.3686  0.4830  0.0810
  224MOL0     N30155   7.712   2.471   8.596 -0.3287  0.2115 -0.5474
  224MOL0     N30156   7.773   2.584   8.600 -0.1133 -0.6020 -0.4203
  224MOL0     C30157   8.325   3.332   8.863 -0.0202 -0.7938  0.1310
  224MOL0     C30158   8.424   3.255   8.906 -0.5968  0.7194 -0.6673
  224MOL0     C30159   8.820   3.119   9.002  0.2029 -1.6005  0.2078
  224MOL0     C30160   8.899   3.134   8.886  0.4672 -0.2961 -1.7495
  224MOL0     C30161   8.989   3.036   8.857 -0.0152 -0.9632 -0.5283
  224MOL0     C30162   9.000   2.925   8.935 -0.9497  0.2797 -0.1393
  224MOL0     O30163   9.095   2.839   8.885  0.8552 -0.5852 -0.0547
  224MOL0     C30164   9.116   2.709   8.928  0.5935 -1.0008  0.3183
  224MOL0     C30165   9.259   2.692   8.976 -0.1153  0.6625  0.8300
  224MOL0     C30166   9.274   2.747   9.119 -0.7383  0.4301  1.0259
  224MOL0     C30167   9.203   2.660   9.230 -0.6811 -0.5326 -0.1587
  224MOL0     C30168   9.252   2.520   9.243 -1.6987  0.5979  0.0443
  224MOL0     C30169   9.293   2.399   9.251  0.7946 -0.0150  0.0646
  224MOL0     C30170   8.930   2.914   9.051  0.7288 -0.7000  0.6029
  224MOL0     C30171   8.836   3.011   9.083  0.7248  1.1279 -0.0326
  224MOL0     C30172   8.756   2.985   9.207  0.1021  0.8136 -0.3648
  224MOL0     H30173   8.491   3.415   9.202 -1.4878  0.9398  0.6660
  224MOL0     H30174   8.290   3.525   9.133 -1.0647 -1.5148 -0.2985
  224MOL0     H30175   7.982   3.558   8.835  0.7627  0.7292 -2.0658
  224MOL0     H30176   8.081   3.468   8.735 -3.3117 -0.4904 -0.5861
  224MOL0     H30177   7.971   3.365   9.000 -0.1184  2.0826 -0.8764
  224MOL0     H30178   8.072   3.267   8.894  0.1406 -0.0027 -0.5292
  224MOL0     H30179   7.926   3.291   8.710 -0.5956  0.7287  0.6827
  224MOL0     H30180   7.802   3.382   8.795 -1.3171 -1.3434 -1.9516
  224MOL0     H30181   7.898   3.120   8.892  0.8779  0.1523 -0.9904
  224MOL0     H30182   7.753   3.221   8.949  0.7255 -0.7787 -0.0220
  224MOL0     H30183   7.674   3.186   8.695 -2.5895 -0.4966  0.3376
  224MOL0     H30184   7.794   3.068   8.688  3.4220  1.6505  1.6570
  224MOL0     H30185   7.682   2.979   8.924  1.7940  0.3857  0.0458
  224MOL0     H30186   7.547   3.076   8.859 -3.2265 -2.5116 -2.8607
  224MOL0     H30187   7.535   2.931   8.665 -0.0313 -0.0493  0.5094
  224MOL0     H30188   7.548   2.826   8.810 -2.1841  3.6523  0.4822
  224MOL0     H30189   7.763   2.880   8.610  1.0183  0.2733  0.2517
  224MOL0     H30190   7.809   2.805   8.756 -1.0538 -1.6947 -0.1495
  224MOL0     H30191   7.476   2.679   8.711 -0.4487 -1.6608 -0.3358
  224MOL0     H30192   7.518   2.307   8.683 -3.4373 -0.6060  1.3364
  224MOL0     H30193   7.385   2.428   8.686 -0.6422  0.2765 -0.5075
  224MOL0     H30194   7.378   2.458   8.446 -1.2005  0.8306  2.2925
  224MOL0     H30195   7.501   2.342   8.415  0.6979  0.5669  0.7510
  224MOL0     H30196   7.228   2.278   8.408  2.2383  2.8263 -2.1402
  224MOL0     H30197   7.266   2.270   8.588 -1.9237  2.7758 -0.7170
  224MOL0     H30198   7.391   2.102   8.366  0.3246 -0.8073 -0.3419
  224MOL0     H30199   7.262   2.055   8.468  1.2884 -1.8575 -0.3896
  224MOL0     H30200   7.432   1.818   8.484  1.6807 -1.2735  1.3376
  224MOL0     H30201   7.307   1.639   8.609 -0.7491  0.7432 -0.1973
  224MOL0     H30202   7.162   1.689   9.236  1.9545 -1.3098  1.3277
  224MOL0     H30203   7.069   1.514   9.392  3.2454  0.1987  0.3037
  224MOL0     H30204   7.154   1.140   9.426  0.4212 -0.4175  3.2161
  224MOL0     H30205   7.193   1.320   9.445 -2.3851  2.8935  2.5005
  224MOL0     H30206   7.111   1.210   9.650  0.4598  1.2299 -0.4718
  224MOL0     H30207   7.008   1.345   9.595  0.1249  0.0006  0.1057
  224MOL0     H30208   6.887   1.134   9.680  0.8860 -1.1976 -0.1105
  224MOL0     H30209   6.840   1.179   9.516 -1.0735 -0.5512  1.2259
  224MOL0     H30210   7.043   0.960   9.606 -1.4847 -3.2163 -0.4232
  224MOL0     H30211   7.014   1.007   9.434 -1.1205  0.4158 -1.3027
  224MOL0     H30212   6.784   0.928   9.613  1.4703 -0.6264  2.3398
  224MOL0     H30213   6.890   0.806   9.524 -1.6386 -0.6468 -0.3240
  224MOL0     H30214   6.695   1.010   9.445  0.1428 -0.0269  0.0090
  224MOL0     H30215   6.827   0.973   9.312  0.3091  0.1529  0.1840
  224MOL0     H30216   6.648   0.760   9.466  0.5710 -2.5585 -1.0471
  224MOL0     H30217   6.764   0.732   9.331 -2.4172 -2.7724 -1.3227
  224MOL0     H30218   6.507   0.892   9.357 -3.0802 -1.3296 -0.5913
  224MOL0     H30219   6.605   0.870   9.207  1.2800 -1.6937  0.4524
  224MOL0     H30220   7.036   1.233   9.077  2.5779 -2.0174  1.6103
  224MOL0     H30221   7.139   1.384   8.921  0.9426 -0.0122  0.1281
  224MOL0     H30222   7.238   1.911   8.931  1.8741 -0.7777  0.5987
  224MOL0     H30223   7.346   2.097   8.796 -0.5571  0.3050  0.4133
  224MOL0     H30224   8.277   3.300   8.772  0.9845 -3.0785  0.3365
  224MOL0     H30225   8.466   3.170   8.853  1.8010 -0.3656  2.6040
  224MOL0     H30226   8.876   3.221   8.826 -2.5852  1.8001  1.9732
  224MOL0     H30227   9.053   3.051   8.770  0.1476 -1.0851 -0.4285
  224MOL0     H30228   9.098   2.641   8.845  2.5370 -0.2262 -0.8094
  224MOL0     H30229   9.043   2.676   9.002  0.1362 -2.9156 -0.9419
  224MOL0     H30230   9.335   2.737   8.911 -0.6154  0.5012  0.1199
  224MOL0     H30231   9.280   2.585   8.981  0.6856  0.8069  0.8058
  224MOL0     H30232   9.229   2.846   9.127 -3.7521 -0.9298  2.8103
  224MOL0     H30233   9.375   2.766   9.156 -1.1714  0.0322  2.4668
  224MOL0     H30234   9.223   2.702   9.329 -0.4906 -1.9868  0.4453
  224MOL0     H30235   9.096   2.651   9.212 -0.8621 -0.6259  0.9035
  224MOL0     H30236   9.334   2.301   9.264  0.6507 -0.1435 -0.4324
  224MOL0     H30237   8.945   2.836   9.124  0.5197 -1.5554 -0.2488
  224MOL0     H30238   8.748   3.078   9.263  2.4989  0.5976  0.4521
  224MOL0     H30239   8.655   2.953   9.178  1.2788 -1.6694 -2.0737
  224MOL0     H30240   8.797   2.898   9.259  0.4762  0.7073 -0.8406
  225MOL0     O30241   8.157  10.576   4.633 -0.4852 -0.7002  0.0508
  225MOL0     C30242   8.248  10.531   4.700 -0.1570  0.3690 -0.0352
  225MOL0     O30243   8.234  10.424   4.782  0.3285 -0.2228 -0.3568
  225MOL0     C30244   8.111  10.355   4.785  0.5097  0.7657 -0.0191
  225MOL0     C30245   8.116  10.213   4.779 -0.9169  0.1860 -0.0141
  225MOL0     C30246   7.995  10.147   4.789  0.2762  1.0164  0.4466
  225MOL0     C30247   7.874  10.214   4.823 -0.4521 -0.0302  0.8975
  225MOL0     O30248   7.760  10.137   4.827 -0.1219 -0.4122  0.4157
  225MOL0     C30249   7.651  10.194   4.912 -0.2595  1.0256  0.4537
  225MOL0     C30250   7.525  10.095   4.917 -1.0967  0.2982 -0.5030
  225MOL0     C30251   7.438  10.114   5.037 -0.0713 -0.4145 -0.0001
  225MOL0     C30252   7.321  10.017   5.008  0.0306  0.3452 -0.0859
  225MOL0     C30253   7.218  10.018   5.123 -0.6184  0.1107  0.2133
  225MOL0     C30254   7.252   9.975   5.268 -0.0188  0.4684 -0.5423
  225MOL0     C30255   7.337   9.845   5.271  0.2879 -0.2245  0.7437
  225MOL0     C30256   7.332   9.776   5.406 -0.5504 -0.0781  0.5952
  225MOL0     N30257   7.194   9.730   5.443  0.2232 -0.5842  0.1989
  225MOL0     C30258   7.115   9.634   5.380 -0.2801 -0.8269  0.4820
  225MOL0     C30259   7.002   9.639   5.459 -0.4794 -0.0119  0.5492
  225MOL0     C30260   6.882   9.556   5.461 -0.7057  0.3530 -0.1876
  225MOL0     C30261   6.818   9.549   5.318  0.6024  0.5350  0.1087
  225MOL0     C30262   6.763   9.685   5.266 -0.2255  0.6861  0.0958
  225MOL0     C30263   6.635   9.722   5.328  0.2488  1.1192 -0.3811
  225MOL0     O30264   6.546   9.805   5.248 -0.0562 -0.2145 -0.1781
  225MOL0     C30265   6.456   9.869   5.328  0.3141  0.9547 -0.9292
  225MOL0     C30266   6.479   9.981   5.395  0.1154 -0.2951 -0.0410
  225MOL0     C30267   6.382  10.035   5.490  0.7425  0.4263 -0.3838
  225MOL0     C30268   6.267   9.954   5.518 -0.8448  0.2003 -1.0160
  225MOL0     C30269   6.168   9.992   5.622  1.0121 -0.2775  0.7567
  225MOL0     O30270   6.167  10.129   5.645 -0.0681  0.2045 -0.4059
  225MOL0     C30271   6.116  10.185   5.760  0.4546 -0.5259  0.2626
  225MOL0     C30272   6.124  10.323   5.769 -0.4905 -0.1491 -0.1445
  225MOL0     C30273   6.096  10.397   5.882  0.5291 -0.3681 -1.1737
  225MOL0     C30274   6.033  10.336   5.995  0.9069  0.3070 -0.2725
  225MOL0     O30275   5.993  10.416   6.099 -0.5444  0.6530  0.1766
  225MOL0     C30276   6.006  10.350   6.228  0.5480 -0.5874 -0.6681
  225MOL0     C30277   6.149  10.368   6.282 -0.2700  1.2481  0.7458
  225MOL0     C30278   6.174  10.510   6.333  1.1306 -0.5584 -0.0498
  225MOL0     C30279   6.261  10.588   6.243  0.0745 -0.0066 -0.1197
  225MOL0     C30280   6.274  10.735   6.286 -0.8281  0.0857 -0.4088
  225MOL0     C30281   6.336  10.766   6.417  0.4742  0.0545  0.1079
  225MOL0     C30282   6.480  10.713   6.418 -0.2083 -0.5121  0.1672
  225MOL0     C30283   6.556  10.775   6.536  0.5709 -0.4240  0.4869
  225MOL0    Cl30284   6.531  10.961   6.547 -0.4224  0.0459  0.4870
  225MOL0     C30285   6.018  10.190   5.984  0.8930 -0.1937 -1.1380
  225MOL0     C30286   6.056  10.126   5.869  0.1044 -0.2694  0.1484
  225MOL0     O30287   6.108   9.908   5.682 -0.5497  0.5951 -0.1475
  225MOL0     C30288   6.246   9.831   5.454 -0.1170  0.1778 -0.8044
  225MOL0     C30289   6.342   9.791   5.360 -1.2646  0.3760  0.2785
  225MOL0     N30290   7.011   9.735   5.555  0.2129  0.1239 -0.5483
  225MOL0     N30291   7.132   9.773   5.555  0.1078  0.3968 -0.9488
  225MOL0     C30292   7.874  10.353   4.831 -0.1116 -0.0404 -0.2905
  225MOL0     C30293   7.989  10.422   4.813  0.9071 -0.3386  0.5286
  225MOL0     C30294   8.368  10.605   4.698  1.2795  1.2216  0.1783
  225MOL0     C30295   8.448  10.615   4.812 -0.4323  0.2063  0.1546
  225MOL0     C30296   8.568  10.681   4.798  0.2319 -0.2435 -0.0987
  225MOL0     C30297   8.618  10.740   4.680  0.2444 -0.2943  0.1255
  225MOL0     O30298   8.742  10.810   4.681  0.3501 -0.3936 -0.0183
  225MOL0     C30299   8.798  10.874   4.566  0.5661  0.2274  1.0143
  225MOL0     C30300   8.905  10.792   4.510 -0.8421  0.3363  0.7573
  225MOL0     C30301   9.025  10.774   4.590  0.0656 -0.4341 -0.3861
  225MOL0     C30302   9.152  10.719   4.514  1.4913 -0.2018  1.1714
  225MOL0     C30303   9.244  10.827   4.466  0.8571 -0.8976 -0.2958
  225MOL0     C30304   9.320  10.918   4.434  0.3577 -0.3243  0.1943
  225MOL0     C30305   8.538  10.726   4.568 -0.8083 -1.4101 -0.3301
  225MOL0     C30306   8.424  10.654   4.575 -0.5728  0.4375 -0.1238
  225MOL0     C30307   8.356  10.616   4.438  0.1635 -0.6157 -0.4650
  225MOL0     H30308   8.210  10.159   4.773 -1.8442 -1.6475  1.1138
  225MOL0     H30309   7.986  10.038   4.787 -2.8308  1.2005 -0.2704
  225MOL0     H30310   7.689  10.212   5.013  2.4901  1.3696 -0.5546
  225MOL0     H30311   7.619  10.293   4.877 -0.2160  2.2243  3.4895
  225MOL0     H30312   7.566   9.994   4.923  1.1350  1.1939  0.1968
  225MOL0     H30313   7.472  10.095   4.821  1.4253  1.2877 -1.9796
  225MOL0     H30314   7.395  10.215   5.040 -0.0918 -0.3870 -0.9553
  225MOL0     H30315   7.486  10.086   5.131 -0.3844 -0.8925  0.0243
  225MOL0     H30316   7.264  10.049   4.921 -1.3014  0.0497  0.6518
  225MOL0     H30317   7.354   9.913   5.000  1.6560  0.8371 -0.1116
  225MOL0     H30318   7.181  10.121   5.121 -3.2348 -0.7642 -0.1780
  225MOL0     H30319   7.145   9.949   5.079 -0.3858 -0.5429  0.8315
  225MOL0     H30320   7.309  10.045   5.329 -0.0837  1.4048 -1.5332
  225MOL0     H30321   7.151   9.950   5.303  1.1733 -4.9705 -0.0131
  225MOL0     H30322   7.441   9.865   5.243  0.4759 -1.7882  0.2194
  225MOL0     H30323   7.306   9.786   5.184  0.7587 -0.0150  0.4244
  225MOL0     H30324   7.397   9.689   5.417 -1.0170 -0.1815  3.0844
  225MOL0     H30325   7.357   9.830   5.497 -0.9777 -2.0046  1.9139
  225MOL0     H30326   7.142   9.574   5.294  1.6610 -0.4238  0.7645
  225MOL0     H30327   6.919   9.462   5.504 -0.3420  0.6240  0.0977
  225MOL0     H30328   6.811   9.601   5.530  0.6990  2.4431  0.0044
  225MOL0     H30329   6.879   9.512   5.236 -1.1989 -0.1089 -1.0161
  225MOL0     H30330   6.733   9.482   5.334  2.2157 -1.8311 -0.7557
  225MOL0     H30331   6.751   9.659   5.160 -0.0026 -0.3980  0.3263
  225MOL0     H30332   6.835   9.767   5.269  0.4679  0.0774  0.2676
  225MOL0     H30333   6.666   9.774   5.419 -0.7730  1.1780 -0.0490
  225MOL0     H30334   6.599   9.626   5.367  3.2062  0.1961  0.2858
  225MOL0     H30335   6.574  10.028   5.372 -0.8717  1.3186 -1.0422
  225MOL0     H30336   6.385  10.134   5.536 -0.8593 -0.8304  2.7194
  225MOL0     H30337   6.157  10.395   5.695  1.7053  0.2892  1.1694
  225MOL0     H30338   6.108  10.503   5.898  0.3168 -0.7257  2.3752
  225MOL0     H30339   5.942  10.398   6.303  0.8694 -0.6889 -0.3277
  225MOL0     H30340   5.986  10.243   6.233 -6.9408  0.2617 -1.3377
  225MOL0     H30341   6.164  10.290   6.357 -2.2739 -0.9938 -1.0368
  225MOL0     H30342   6.226  10.346   6.208 -0.4241  0.3039  0.8480
  225MOL0     H30343   6.077  10.560   6.327  0.5379 -1.7517 -1.0621
  225MOL0     H30344   6.207  10.510   6.437  0.6272 -2.1284  0.1334
  225MOL0     H30345   6.239  10.585   6.136  6.3680  2.9065 -1.9953
  225MOL0     H30346   6.360  10.542   6.251 -0.6140 -1.4258  0.5573
  225MOL0     H30347   6.175  10.781   6.288 -1.0303 -0.2948 -1.3903
  225MOL0     H30348   6.334  10.781   6.207  1.6249 -1.1840  0.5828
  225MOL0     H30349   6.330  10.874   6.434  0.2767  0.4146 -2.0384
  225MOL0     H30350   6.279  10.726   6.501 -1.5123  0.0377 -1.1796
  225MOL0     H30351   6.542  10.729   6.329 -0.5288  0.3670  0.0926
  225MOL0     H30352   6.486  10.605   6.435  0.6395 -0.9204 -2.2595
  225MOL0     H30353   6.521  10.729   6.629  2.5681  2.0038  2.6029
  225MOL0     H30354   6.661  10.752   6.519  0.4449  0.6407 -2.0248
  225MOL0     H30355   5.962  10.133   6.057 -0.0626  1.4074 -0.5834
  225MOL0     H30356   6.043  10.019   5.875 -0.7997 -0.0905  3.8649
  225MOL0     H30357   6.161   9.770   5.483 -0.4105  1.8085  2.1458
  225MOL0     H30358   6.330   9.695   5.311 -1.9681 -2.0753  4.6702
  225MOL0     H30359   7.783  10.409   4.851 -0.1458  1.5986 -4.0546
  225MOL0     H30360   7.989  10.530   4.828 -1.4052 -0.0906 -0.6998
  225MOL0     H30361   8.422  10.575   4.909  1.7182  0.2133  0.7710
  225MOL0     H30362   8.624  10.681   4.891  0.6536  1.5428 -0.3238
  225MOL0     H30363   8.842  10.971   4.591 -3.8017  3.2946 -1.7205
  225MOL0     H30364   8.723  10.906   4.494  1.9868  1.1478 -0.1119
  225MOL0     H30365   8.943  10.844   4.422 -2.2186 -1.9123 -1.2920
  225MOL0     H30366   8.860  10.698   4.477 -0.1188  0.3825 -0.4412
  225MOL0     H30367   9.002  10.702   4.670 -2.1032 -0.7216 -1.2074
  225MOL0     H30368   9.040  10.872   4.636 -2.3381 -0.8766  1.6150
  225MOL0     H30369   9.205  10.646   4.576 -0.7387 -3.3191 -0.3132
  225MOL0     H30370   9.121  10.660   4.427  2.3318 -1.3862  1.6411
  225MOL0     H30371   9.368  11.014   4.441  1.0983 -0.6139 -0.7397
  225MOL0     H30372   8.565  10.773   4.474 -1.2630 -1.0627 -0.2927
  225MOL0     H30373   8.251  10.646   4.436  0.8361  2.0250  0.0839
  225MOL0     H30374   8.395  10.682   4.360 -5.1056  1.1536 -2.0334
  225MOL0     H30375   8.370  10.511   4.410 -3.5696 -0.8330 -2.1151
  226MOL0     O30376   7.087   2.336   4.154  0.2660  0.5765  0.3188
  226MOL0     C30377   7.026   2.272   4.239  0.6469  0.2549  1.2224
  226MOL0     O30378   6.946   2.328   4.338  0.0736 -0.5688  0.8291
  226MOL0     C30379   6.909   2.463   4.353 -0.4235  0.5203  0.7613
  226MOL0     C30380   6.804   2.501   4.447  0.1354  0.4142 -0.0769
  226MOL0     C30381   6.755   2.632   4.446 -1.3775  0.2608  0.5217
  226MOL0     C30382   6.812   2.735   4.364  1.0318 -0.3258 -0.2913
  226MOL0     O30383   6.754   2.857   4.379 -0.3493  0.0504 -0.3201
  226MOL0     C30384   6.845   2.970   4.366  0.4761 -0.2301 -0.1539
  226MOL0     C30385   6.795   3.089   4.450  0.0551 -0.3917  0.1499
  226MOL0     C30386   6.883   3.213   4.417  0.3994 -0.0292 -0.5089
  226MOL0     C30387   6.843   3.347   4.497  0.1140  1.1304 -0.4735
  226MOL0     C30388   6.829   3.336   4.645  0.5606 -0.3993  0.3786
  226MOL0     C30389   6.780   3.467   4.712 -0.2736 -0.8204 -0.4161
  226MOL0     C30390   6.812   3.465   4.863  0.8064  0.4980 -0.3800
  226MOL0     C30391   6.736   3.366   4.938  0.5618 -1.0688  0.7064
  226MOL0     N30392   6.777   3.356   5.078  0.3572  0.3808 -0.2674
  226MOL0     C30393   6.702   3.375   5.194  0.0909 -0.4206  0.3778
  226MOL0     C30394   6.790   3.386   5.293  1.0201  0.2379 -1.0332
  226MOL0     C30395   6.764   3.423   5.435  0.1814  0.7021 -0.1263
  226MOL0     C30396   6.725   3.306   5.510 -0.1894 -0.0944 -0.5705
  226MOL0     C30397   6.657   3.350   5.637 -0.2830 -0.3827 -0.5007
  226MOL0     C30398   6.586   3.224   5.704 -0.0033 -0.0781  0.3372
  226MOL0     O30399   6.536   3.249   5.840 -0.2749  0.4369 -0.2342
  226MOL0     C30400   6.629   3.288   5.933 -0.3812 -1.0529 -0.5515
  226MOL0     C30401   6.766   3.269   5.930 -0.2358 -0.1913 -0.3010
  226MOL0     C30402   6.845   3.328   6.026 -0.1008 -0.2179 -0.0339
  226MOL0     C30403   6.799   3.407   6.128  0.9476 -0.0193  0.0517
  226MOL0     C30404   6.870   3.468   6.241  0.1986 -0.4306  0.3911
  226MOL0     O30405   6.823   3.577   6.293 -1.2609 -0.1531  0.8676
  226MOL0     C30406   6.902   3.640   6.380  0.2173  1.3751  0.7340
  226MOL0     C30407   6.909   3.614   6.517  0.4286  0.4885  0.4456
  226MOL0     C30408   6.983   3.700   6.599 -0.9120  0.3463  0.4068
  226MOL0     C30409   7.070   3.795   6.543  1.2294 -0.0159 -0.2251
  226MOL0     O30410   7.150   3.858   6.633  0.4987  0.2151 -0.7393
  226MOL0     C30411   7.243   3.957   6.586  0.5610  0.1709  0.6251
  226MOL0     C30412   7.328   4.011   6.699 -0.1450 -0.7012 -0.5288
  226MOL0     C30413   7.424   4.122   6.649 -0.3256 -0.1802 -0.4878
  226MOL0     C30414   7.506   4.162   6.769 -0.0351 -0.2050 -0.2306
  226MOL0     C30415   7.553   4.308   6.751  0.2841  0.8190 -0.8786
  226MOL0     C30416   7.623   4.368   6.876 -0.4368 -0.3931  0.6434
  226MOL0     C30417   7.607   4.511   6.911  0.6660 -0.1964 -0.7110
  226MOL0     C30418   7.682   4.626   6.822  0.1354 -0.7889 -0.2204
  226MOL0    Cl30419   7.687   4.599   6.649  0.0703  0.5184 -0.4247
  226MOL0     C30420   7.080   3.814   6.400  0.4877 -0.2999 -0.3852
  226MOL0     C30421   6.987   3.739   6.323 -0.2140 -1.0455 -0.9043
  226MOL0     O30422   6.969   3.402   6.272  0.5344  0.0489 -0.2586
  226MOL0     C30423   6.657   3.427   6.138  1.0643  0.2555  0.7676
  226MOL0     C30424   6.579   3.362   6.044  1.1456  1.1797  0.5852
  226MOL0     N30425   6.919   3.364   5.247 -0.4878 -0.4102 -0.0821
  226MOL0     N30426   6.908   3.354   5.117  0.4283 -0.2357 -0.0020
  226MOL0     C30427   6.908   2.696   4.280  0.2936 -0.1589 -0.2430
  226MOL0     C30428   6.964   2.568   4.278  0.9936 -0.0646  1.1022
  226MOL0     C30429   7.013   2.123   4.222  0.4850  0.6535 -0.9185
  226MOL0     C30430   6.920   2.045   4.293 -0.2497 -0.0401 -0.1422
  226MOL0     C30431   6.890   1.913   4.266  0.5613 -1.1682  0.5583
  226MOL0     C30432   6.958   1.841   4.170 -1.0670  0.4810 -0.5698
  226MOL0     O30433   6.941   1.711   4.131  0.2117  0.5384  0.1050
  226MOL0     C30434   6.831   1.640   4.195 -1.0680  0.0285 -0.6357
  226MOL0     C30435   6.799   1.498   4.155  0.6989  0.1985 -1.3799
  226MOL0     C30436   6.929   1.416   4.149 -0.2687 -0.4520 -0.1712
  226MOL0     C30437   6.998   1.419   4.009 -0.5255 -0.0477 -0.1781
  226MOL0     C30438   7.050   1.294   3.960  0.9630  0.4812 -1.2263
  226MOL0     C30439   7.088   1.190   3.905 -0.1639 -0.0107 -0.7078
  226MOL0     C30440   7.063   1.912   4.111 -0.3657  0.3562  0.7619
  226MOL0     C30441   7.094   2.048   4.132  0.3870  0.9144 -0.0306
  226MOL0     C30442   7.215   2.108   4.071  0.0629  0.1896 -1.2329
  226MOL0     H30443   6.760   2.423   4.508  1.3790 -2.5493 -2.6248
  226MOL0     H30444   6.672   2.660   4.511 -2.2145  0.3977 -0.5753
  226MOL0     H30445   6.947   2.953   4.401  1.0088  0.6253 -1.2480
  226MOL0     H30446   6.842   2.991   4.259 -5.1892  2.2198  0.1005
  226MOL0     H30447   6.796   3.072   4.558  2.1300 -2.8245 -0.1466
  226MOL0     H30448   6.688   3.095   4.429 -0.0981 -2.8287 -0.0769
  226MOL0     H30449   6.871   3.235   4.310 -0.6959  2.9084  0.1155
  226MOL0     H30450   6.986   3.183   4.437  1.0126  2.3435  0.1937
  226MOL0     H30451   6.921   3.416   4.465 -1.3903  1.4096 -3.9407
  226MOL0     H30452   6.747   3.381   4.456 -0.4770 -0.6553 -0.6586
  226MOL0     H30453   6.759   3.254   4.665  0.2497 -0.5414 -1.1629
  226MOL0     H30454   6.930   3.313   4.679  0.1495 -1.8008  0.7185
  226MOL0     H30455   6.837   3.553   4.677 -0.8342 -0.2044  0.1427
  226MOL0     H30456   6.676   3.492   4.686  0.2936  0.6920 -1.3319
  226MOL0     H30457   6.805   3.565   4.906  0.5600 -0.7254  2.6856
  226MOL0     H30458   6.916   3.434   4.875  0.5470 -0.0022  0.6522
  226MOL0     H30459   6.627   3.364   4.922  0.7626  0.4635 -1.2692
  226MOL0     H30460   6.767   3.272   4.892 -3.1764 -1.8952 -0.5365
  226MOL0     H30461   6.594   3.380   5.198  0.1695  1.0552  2.7093
  226MOL0     H30462   6.838   3.481   5.491  0.6479 -1.7504  1.9793
  226MOL0     H30463   6.673   3.481   5.419  1.1557  1.4802 -3.8330
  226MOL0     H30464   6.658   3.242   5.451  2.1575 -3.3860  0.0385
  226MOL0     H30465   6.803   3.234   5.538  0.0390 -0.2353 -1.5386
  226MOL0     H30466   6.581   3.428   5.624 -0.5750 -0.4195  0.8372
  226MOL0     H30467   6.734   3.401   5.695 -1.2073 -0.3897  0.7873
  226MOL0     H30468   6.656   3.140   5.698 -1.3846 -1.1822 -3.0148
  226MOL0     H30469   6.508   3.215   5.627 -0.3128  3.1534  0.1548
  226MOL0     H30470   6.815   3.196   5.866 -1.9399 -1.2118 -0.5037
  226MOL0     H30471   6.949   3.298   6.033  0.1412  0.0567 -1.8957
  226MOL0     H30472   6.837   3.546   6.560 -3.5980  1.9462 -3.1878
  226MOL0     H30473   7.000   3.678   6.704  2.3446 -2.7921 -0.5836
  226MOL0     H30474   7.303   3.911   6.507 -0.9989 -1.2777  0.2195
  226MOL0     H30475   7.188   4.040   6.541 -2.9625 -2.6437 -0.8068
  226MOL0     H30476   7.266   4.049   6.781  0.6000 -2.4103  0.8904
  226MOL0     H30477   7.386   3.925   6.735 -0.6544  0.5292  3.7510
  226MOL0     H30478   7.488   4.083   6.569  0.4279  0.9084 -0.4407
  226MOL0     H30479   7.374   4.202   6.593  2.4830  1.8168 -0.3719
  226MOL0     H30480   7.592   4.099   6.793 -1.1510 -1.6236  0.1577
  226MOL0     H30481   7.440   4.160   6.856 -1.1531 -0.2637 -1.0659
  226MOL0     H30482   7.461   4.364   6.736 -0.2272  0.1862 -0.1550
  226MOL0     H30483   7.627   4.315   6.671  2.3793  0.4159  0.9150
  226MOL0     H30484   7.602   4.314   6.968 -0.1147 -0.5596  0.6195
  226MOL0     H30485   7.730   4.351   6.860 -0.4598 -0.3102  0.3843
  226MOL0     H30486   7.637   4.528   7.015 -1.3435  2.1214 -0.4214
  226MOL0     H30487   7.500   4.531   6.911  1.0215  2.8107  3.1570
  226MOL0     H30488   7.637   4.726   6.824  0.0610 -0.7174 -2.8004
  226MOL0     H30489   7.779   4.625   6.871 -0.7905 -1.0353  1.6958
  226MOL0     H30490   7.145   3.880   6.344  2.3866 -2.2195 -0.5843
  226MOL0     H30491   6.979   3.761   6.217 -0.4656 -0.9689 -0.8693
  226MOL0     H30492   6.601   3.480   6.214  1.6387 -0.5947  1.8152
  226MOL0     H30493   6.470   3.371   6.043  0.5740 -3.1681  0.5416
  226MOL0     H30494   6.949   2.775   4.217 -1.1037  2.5440  1.9902
  226MOL0     H30495   7.032   2.556   4.194 -3.0032  0.4819 -2.5690
  226MOL0     H30496   6.845   2.090   4.358  1.1233  0.8682  0.8818
  226MOL0     H30497   6.812   1.861   4.321  0.7577 -1.9225  0.1481
  226MOL0     H30498   6.744   1.702   4.174 -3.3243 -2.0876  1.8054
  226MOL0     H30499   6.835   1.648   4.304 -2.9422 -0.8002 -0.4746
  226MOL0     H30500   6.739   1.494   4.064  0.9871  2.2929 -1.7171
  226MOL0     H30501   6.725   1.473   4.232  0.2992 -0.9191 -2.1085
  226MOL0     H30502   6.912   1.314   4.185  0.9647  0.0803  2.0466
  226MOL0     H30503   7.006   1.465   4.209 -0.0282 -0.1145 -0.7451
  226MOL0     H30504   6.919   1.445   3.937 -2.6618 -0.0935  2.0079
  226MOL0     H30505   7.066   1.504   4.007  0.5544 -0.8564  1.0162
  226MOL0     H30506   7.126   1.108   3.847  1.1534 -0.7079  1.0559
  226MOL0     H30507   7.107   1.854   4.030 -3.6870 -2.7203  0.9138
  226MOL0     H30508   7.186   2.184   3.998 -2.6829  0.1499 -0.3225
  226MOL0     H30509   7.293   2.131   4.144  1.3002 -0.4031 -2.3190
  226MOL0     H30510   7.258   2.020   4.022 -1.7127 -0.9746 -0.7915
  227MOL0     O30511   3.921  11.025   2.784 -0.2704  0.4683 -0.4326
  227MOL0     C30512   3.895  10.910   2.790 -0.3452 -1.1451 -0.3483
  227MOL0     O30513   3.771  10.860   2.835  0.1789  0.0326  0.8100
  227MOL0     C30514   3.672  10.942   2.874 -0.0187  0.4848  0.5069
  227MOL0     C30515   3.672  11.019   2.991 -0.3951  1.0021 -0.4234
  227MOL0     C30516   3.557  11.102   3.028  0.0097  0.6961  0.6087
  227MOL0     C30517   3.451  11.104   2.938  0.4118 -0.2253 -0.3770
  227MOL0     O30518   3.345  11.185   2.963  0.4368 -0.5343 -0.7663
  227MOL0     C30519   3.214  11.152   2.922 -0.3676 -0.7787  0.3393
  227MOL0     C30520   3.097  11.235   2.975 -0.2486 -0.9387 -0.3591
  227MOL0     C30521   3.084  11.366   2.893 -0.1033 -0.2960 -0.6518
  227MOL0     C30522   3.001  11.347   2.773  0.3861  0.6843  0.2511
  227MOL0     C30523   2.913  11.461   2.737 -1.3542  0.3126  0.1119
  227MOL0     C30524   2.990  11.555   2.651  0.1264  0.3984 -1.1223
  227MOL0     C30525   2.911  11.683   2.616 -0.0207  0.4945 -0.0482
  227MOL0     C30526   3.005  11.785   2.561 -0.2033  0.6234 -0.2618
  227MOL0     N30527   2.938  11.891   2.496  0.3866 -0.5212  0.6784
  227MOL0     C30528   2.939  12.020   2.552  0.2586  0.3083 -0.7812
  227MOL0     C30529   2.866  12.083   2.463  0.2329  0.3484 -0.2098
  227MOL0     C30530   2.802  12.220   2.479  0.6323  1.0060 -0.3522
  227MOL0     C30531   2.732  12.232   2.619  0.2004  0.3570  0.1425
  227MOL0     C30532   2.583  12.190   2.612  0.7903  0.5312 -0.8364
  227MOL0     C30533   2.561  12.046   2.574 -0.3770 -0.1979 -0.4153
  227MOL0     O30534   2.602  11.974   2.692 -0.2571  0.6869  0.4195
  227MOL0     C30535   2.576  11.837   2.701  0.4931  1.2355 -0.4650
  227MOL0     C30536   2.522  11.760   2.593 -0.8166 -0.1787 -0.4950
  227MOL0     C30537   2.494  11.621   2.616  0.4728  0.2765 -1.8905
  227MOL0     C30538   2.542  11.564   2.740  0.0459 -1.7745 -0.6173
  227MOL0     C30539   2.527  11.423   2.774 -0.2971 -0.2689 -0.1994
  227MOL0     O30540   2.536  11.389   2.907  0.1717 -0.0280  0.8223
  227MOL0     C30541   2.556  11.256   2.925 -0.5285  0.0515  0.0758
  227MOL0     C30542   2.688  11.210   2.941  0.9910 -0.0617  1.3283
  227MOL0     C30543   2.711  11.073   2.965 -0.5156  1.0218  0.2957
  227MOL0     C30544   2.600  10.981   2.963  0.7729 -0.2945  0.3743
  227MOL0     O30545   2.616  10.848   2.991 -0.3955  0.2517  0.0857
  227MOL0     C30546   2.586  10.765   2.878 -0.2502 -0.1548  0.2838
  227MOL0     C30547   2.645  10.621   2.910 -0.0704 -0.0291  0.5111
  227MOL0     C30548   2.632  10.503   2.816  0.4785  0.3696  1.0044
  227MOL0     C30549   2.480  10.478   2.784 -0.6463 -0.2773  0.0165
  227MOL0     C30550   2.454  10.354   2.691  1.1340 -0.6091  0.3358
  227MOL0     C30551   2.306  10.363   2.658 -0.6062  0.2153  0.4499
  227MOL0     C30552   2.258  10.244   2.569  0.1194 -0.7920  0.2469
  227MOL0     C30553   2.307  10.236   2.427  0.2167 -0.4388 -0.6012
  227MOL0    Cl30554   2.215  10.101   2.335 -0.4976  0.0333 -0.0644
  227MOL0     C30555   2.470  11.024   2.943  0.4056  0.1779  0.1543
  227MOL0     C30556   2.441  11.166   2.928 -0.3561  0.8688 -0.7230
  227MOL0     O30557   2.509  11.350   2.681 -0.1289  0.0268  0.3807
  227MOL0     C30558   2.587  11.643   2.845 -1.2445 -0.0705 -0.2369
  227MOL0     C30559   2.601  11.777   2.821 -1.0303  0.0770 -0.7491
  227MOL0     N30560   2.835  11.999   2.355  0.5170 -0.7543 -0.4673
  227MOL0     N30561   2.881  11.888   2.369 -0.3049 -0.3544  0.1314
  227MOL0     C30562   3.454  11.025   2.826 -0.4766  1.0246  0.9014
  227MOL0     C30563   3.562  10.945   2.793  0.6203  0.0613 -0.5373
  227MOL0     C30564   3.994  10.806   2.748 -0.6128  0.2290  0.0260
  227MOL0     C30565   3.997  10.683   2.808 -0.1424  0.5719 -0.5426
  227MOL0     C30566   4.091  10.589   2.784  0.4558  0.0476 -0.0729
  227MOL0     C30567   4.191  10.606   2.683 -0.1123  0.0189 -0.9971
  227MOL0     O30568   4.274  10.511   2.635 -0.0900  0.1335 -0.4015
  227MOL0     C30569   4.290  10.397   2.723 -0.3626  0.5877  0.2839
  227MOL0     C30570   4.399  10.301   2.662  0.7158  0.2880  0.5391
  227MOL0     C30571   4.533  10.371   2.641 -0.7762 -0.0687  0.2262
  227MOL0     C30572   4.635  10.270   2.576  0.8642  0.3914  0.0952
  227MOL0     C30573   4.768  10.329   2.585 -0.2510 -1.0792 -0.3698
  227MOL0     C30574   4.875  10.381   2.608  0.4504 -0.1707  0.3249
  227MOL0     C30575   4.190  10.726   2.617 -1.0420 -0.4103  0.6933
  227MOL0     C30576   4.089  10.825   2.645 -0.6561 -0.1321 -0.2585
  227MOL0     C30577   4.098  10.953   2.569 -0.9698  0.0802  0.1947
  227MOL0     H30578   3.756  11.010   3.058  1.0847  3.0179 -1.8715
  227MOL0     H30579   3.558  11.156   3.122 -3.1465 -0.3221  1.3444
  227MOL0     H30580   3.214  11.165   2.813  0.0051 -0.9613  0.3137
  227MOL0     H30581   3.192  11.050   2.953  1.2938 -0.6511  2.0933
  227MOL0     H30582   3.107  11.262   3.080 -3.2160  4.3330 -1.0606
  227MOL0     H30583   3.002  11.183   2.965 -0.8611  0.4018 -1.9697
  227MOL0     H30584   3.179  11.408   2.860 -1.0393  1.4128 -1.2826
  227MOL0     H30585   3.024  11.430   2.959 -0.6920 -1.3135 -0.1814
  227MOL0     H30586   3.058  11.316   2.686  0.9717 -0.0801  0.8928
  227MOL0     H30587   2.931  11.264   2.785  0.8783  0.6540  4.6804
  227MOL0     H30588   2.825  11.433   2.678 -1.3670  1.8606 -0.6684
  227MOL0     H30589   2.866  11.511   2.823  1.2049 -1.9636  3.0545
  227MOL0     H30590   3.082  11.588   2.701  1.2908 -2.9585 -0.8075
  227MOL0     H30591   3.031  11.512   2.559 -0.7566 -4.5978  0.5482
  227MOL0     H30592   2.850  11.726   2.696 -2.3491 -0.6045 -1.1347
  227MOL0     H30593   2.830  11.654   2.549 -1.9973 -0.3214  2.5185
  227MOL0     H30594   3.057  11.831   2.646 -2.0986  4.0999 -0.7757
  227MOL0     H30595   3.079  11.738   2.496  1.1708  0.2496  1.4999
  227MOL0     H30596   2.982  12.051   2.647  1.6164  0.9669 -1.5943
  227MOL0     H30597   2.876  12.300   2.465 -0.7754  2.7563  1.6038
  227MOL0     H30598   2.729  12.225   2.398  0.7777 -1.5016 -0.7156
  227MOL0     H30599   2.789  12.196   2.705 -1.9506  1.5772  2.1880
  227MOL0     H30600   2.720  12.337   2.647  2.5564 -0.2657  4.2997
  227MOL0     H30601   2.533  12.263   2.547  1.9916  1.0486 -1.2100
  227MOL0     H30602   2.539  12.196   2.712  0.9064 -1.0472 -0.6674
  227MOL0     H30603   2.603  12.023   2.476 -1.0967 -0.4563 -0.6714
  227MOL0     H30604   2.453  12.033   2.560 -0.5392  2.1248 -1.6427
  227MOL0     H30605   2.504  11.820   2.505 -0.7150  1.0123  0.2592
  227MOL0     H30606   2.451  11.552   2.544 -1.5285  2.1346 -2.5872
  227MOL0     H30607   2.770  11.282   2.946 -0.1354  1.3168  0.7421
  227MOL0     H30608   2.816  11.046   2.956 -0.2109  2.0675  0.6106
  227MOL0     H30609   2.481  10.739   2.860  0.6179 -1.9263 -2.8130
  227MOL0     H30610   2.630  10.809   2.788  1.7750 -0.0275  1.2862
  227MOL0     H30611   2.753  10.629   2.898 -0.2675  0.7963 -1.0662
  227MOL0     H30612   2.621  10.593   3.013  0.4972 -0.8941  0.4230
  227MOL0     H30613   2.688  10.513   2.723  0.2671 -0.9650  0.7101
  227MOL0     H30614   2.675  10.411   2.858  0.0601 -1.3759 -2.0508
  227MOL0     H30615   2.444  10.568   2.733 -1.3116 -1.1342 -1.0550
  227MOL0     H30616   2.432  10.455   2.880 -0.1648 -0.1864  0.2874
  227MOL0     H30617   2.485  10.262   2.740  0.0601 -1.5189 -0.6435
  227MOL0     H30618   2.515  10.359   2.601  0.8044 -1.0202  0.0896
  227MOL0     H30619   2.247  10.377   2.748 -1.8555  1.4702 -0.5200
  227MOL0     H30620   2.287  10.448   2.591 -0.6775 -1.1513 -1.3639
  227MOL0     H30621   2.150  10.239   2.578  0.0502 -3.0306 -1.0590
  227MOL0     H30622   2.290  10.148   2.613 -0.1938 -2.8917 -3.6569
  227MOL0     H30623   2.283  10.331   2.379  2.2391  1.7884  2.4191
  227MOL0     H30624   2.416  10.225   2.427  0.3449  0.0187  2.3295
  227MOL0     H30625   2.388  10.952   2.945 -2.0351  2.7876  0.6869
  227MOL0     H30626   2.337  11.197   2.921 -0.6658  0.0631  0.1459
  227MOL0     H30627   2.609  11.602   2.943  2.1257 -1.1299 -1.2810
  227MOL0     H30628   2.641  11.841   2.899  5.1437 -2.1879 -1.5517
  227MOL0     H30629   3.370  11.005   2.761 -1.3024  0.3448  2.1403
  227MOL0     H30630   3.550  10.873   2.713  0.8978 -0.4285 -0.1461
  227MOL0     H30631   3.935  10.651   2.891  2.7072 -2.8741  0.5185
  227MOL0     H30632   4.083  10.500   2.845  0.3061 -0.1795 -0.4177
  227MOL0     H30633   4.194  10.345   2.724  0.0561 -0.2014  0.4196
  227MOL0     H30634   4.327  10.428   2.821  1.8379 -3.0657  0.7921
  227MOL0     H30635   4.358  10.271   2.565 -0.6684  0.5210  1.0243
  227MOL0     H30636   4.398  10.211   2.725  2.4091 -0.7569 -0.8440
  227MOL0     H30637   4.572  10.397   2.740  0.5894  0.5727 -0.4501
  227MOL0     H30638   4.531  10.464   2.584  0.9124  0.6740  1.2815
  227MOL0     H30639   4.629  10.179   2.634 -2.8903  0.7223  0.4773
  227MOL0     H30640   4.612  10.247   2.471  1.2683 -1.3641  0.3648
  227MOL0     H30641   4.977  10.413   2.602  0.7636 -0.9497  1.2318
  227MOL0     H30642   4.271  10.740   2.546 -3.0572  2.0773 -1.3112
  227MOL0     H30643   4.180  10.945   2.497 -0.0895  1.1894  1.0473
  227MOL0     H30644   4.007  10.962   2.509 -0.6809  3.6537  0.0935
  227MOL0     H30645   4.099  11.043   2.631  0.1219 -1.5747  2.7460
  228MOL0     O30646  10.572   1.003   6.980  0.8591  0.2339 -0.2609
  228MOL0     C30647  10.493   0.949   6.896  0.9393 -0.6587  0.9976
  228MOL0     O30648  10.423   0.833   6.903  0.1236 -0.4845 -1.0637
  228MOL0     C30649  10.406   0.767   7.020 -0.1134 -0.2038 -0.8657
  228MOL0     C30650  10.281   0.776   7.084  0.7846 -0.0747 -0.0899
  228MOL0     C30651  10.260   0.727   7.214 -0.1259 -0.6540 -0.5716
  228MOL0     C30652  10.365   0.656   7.285  0.5986  0.2269  0.0501
  228MOL0     O30653  10.355   0.584   7.400  0.9239  0.4383  0.2817
  228MOL0     C30654  10.243   0.612   7.494 -0.1884  0.2730  0.1665
  228MOL0     C30655  10.265   0.510   7.611 -0.6423  0.1601 -0.6597
  228MOL0     C30656  10.175   0.517   7.730  0.6697 -0.1267 -0.5364
  228MOL0     C30657  10.198   0.644   7.821  0.1168  0.4093 -0.7609
  228MOL0     C30658  10.074   0.685   7.906  0.0698 -0.4613 -1.0191
  228MOL0     C30659  10.004   0.593   8.013  0.1815 -0.1424 -1.1238
  228MOL0     C30660  10.095   0.568   8.135  0.4234 -0.8553  0.0042
  228MOL0     C30661  10.084   0.674   8.244  0.1151 -0.0850 -0.9922
  228MOL0     N30662   9.968   0.678   8.320 -0.7774 -0.1994 -0.1438
  228MOL0     C30663   9.917   0.571   8.385  0.4583 -0.6170  0.2726
  228MOL0     C30664   9.815   0.626   8.455  0.4381  0.9079  0.4721
  228MOL0     C30665   9.724   0.545   8.546  0.4142  0.4463 -0.6354
  228MOL0     C30666   9.609   0.501   8.444  0.5354 -0.6026 -0.3373
  228MOL0     C30667   9.468   0.488   8.519 -1.1568  0.4068 -0.8407
  228MOL0     C30668   9.388   0.376   8.468  0.1102  0.4332 -1.0964
  228MOL0     O30669   9.260   0.382   8.543 -0.9357 -0.3509 -0.5717
  228MOL0     C30670   9.163   0.302   8.497 -0.5092 -0.2283  0.5952
  228MOL0     C30671   9.052   0.291   8.576  0.5539 -0.5403 -1.3491
  228MOL0     C30672   8.940   0.213   8.535 -0.4884 -0.1236 -0.2757
  228MOL0     C30673   8.936   0.152   8.408  0.3013  0.0468 -0.5072
  228MOL0     C30674   8.816   0.076   8.370  0.4977  0.2173  0.0411
  228MOL0     O30675   8.712   0.090   8.460  0.2264  0.4110 -0.5139
  228MOL0     C30676   8.588   0.053   8.413  0.1019  0.1934 -0.2704
  228MOL0     C30677   8.563  -0.073   8.351  0.4675 -0.8282 -0.2335
  228MOL0     C30678   8.437  -0.102   8.301 -0.7231  0.1541 -0.0431
  228MOL0     C30679   8.329  -0.010   8.309 -1.0519  0.0980 -0.0464
  228MOL0     O30680   8.201  -0.050   8.283  0.1678 -0.4875  1.1863
  228MOL0     C30681   8.184  -0.138   8.167 -0.7110  0.9239 -0.5250
  228MOL0     C30682   8.048  -0.133   8.118  0.5403  0.1614  0.0775
  228MOL0     C30683   8.016   0.013   8.063 -0.5615 -0.3198  0.7520
  228MOL0     C30684   7.944   0.097   8.161 -0.0385  0.1951  0.5779
  228MOL0     C30685   7.953   0.251   8.125 -0.0087  0.4027 -0.9969
  228MOL0     C30686   7.903   0.278   7.984  0.0958  0.4133  0.0714
  228MOL0     C30687   7.864   0.419   7.972  0.4267 -0.2878  0.5569
  228MOL0     C30688   7.880   0.475   7.834 -0.3726 -0.0375 -0.1889
  228MOL0    Cl30689   7.775   0.402   7.714  0.1444 -0.5581 -0.4178
  228MOL0     C30690   8.353   0.119   8.360 -0.5111  0.2964  0.3335
  228MOL0     C30691   8.483   0.148   8.423 -0.5870  0.7875  0.3242
  228MOL0     O30692   8.818   0.005   8.270  0.2824 -0.2597 -0.2871
  228MOL0     C30693   9.043   0.172   8.318  0.1579 -0.3057 -0.2410
  228MOL0     C30694   9.152   0.250   8.358  0.7722  0.5441 -0.1793
  228MOL0     N30695   9.801   0.756   8.422  0.7007 -0.1036 -0.4429
  228MOL0     N30696   9.893   0.787   8.338  0.6293 -0.0259 -0.2995
  228MOL0     C30697  10.482   0.638   7.212  0.6149 -0.0350 -0.6055
  228MOL0     C30698  10.508   0.698   7.085 -0.2760 -0.4924  0.0205
  228MOL0     C30699  10.491   1.027   6.760  0.0791 -0.1086 -0.3647
  228MOL0     C30700  10.469   0.946   6.640 -0.2573 -0.2769 -0.8033
  228MOL0     C30701  10.448   1.007   6.512  0.6410 -0.1062 -0.5955
  228MOL0     C30702  10.484   1.141   6.496 -0.2948 -1.0684  0.1573
  228MOL0     O30703  10.463   1.184   6.365  0.1891  0.4927 -0.2990
  228MOL0     C30704  10.479   1.325   6.346  0.3929  0.4633  0.0272
  228MOL0     C30705  10.435   1.356   6.196 -0.6793  0.0174 -0.5511
  228MOL0     C30706  10.441   1.510   6.178 -0.2310 -0.3796 -0.6144
  228MOL0     C30707  10.387   1.555   6.043 -0.4608 -0.1458  0.0131
  228MOL0     C30708  10.424   1.694   6.012 -0.2750 -0.6447  0.1996
  228MOL0     C30709  10.486   1.789   5.965 -0.7081  0.1039  0.5256
  228MOL0     C30710  10.513   1.223   6.611 -0.6353 -0.2090  0.2840
  228MOL0     C30711  10.504   1.167   6.743  0.6955  0.1839 -0.9067
  228MOL0     C30712  10.504   1.255   6.861 -0.4093  0.5088  0.2749
  228MOL0     H30713  10.208   0.845   7.045  1.3344  2.1408  2.4857
  228MOL0     H30714  10.164   0.735   7.263  0.5529 -0.9189  0.8497
  228MOL0     H30715  10.233   0.718   7.521  0.7733  0.4967 -0.3248
  228MOL0     H30716  10.149   0.576   7.453  1.2407 -1.3680 -1.8926
  228MOL0     H30717  10.367   0.532   7.646 -0.1106 -1.1995 -1.2699
  228MOL0     H30718  10.262   0.408   7.571  1.9534 -0.0371 -0.5538
  228MOL0     H30719  10.164   0.425   7.788  0.4123 -1.3913 -2.4908
  228MOL0     H30720  10.072   0.527   7.696  0.8943  0.3653 -1.0874
  228MOL0     H30721  10.285   0.619   7.883  1.7632 -1.3046 -3.5214
  228MOL0     H30722  10.216   0.726   7.751 -1.5323  0.6756 -0.9161
  228MOL0     H30723  10.089   0.781   7.955  0.3613  0.0112 -2.0109
  228MOL0     H30724  10.004   0.711   7.826 -2.0887 -0.1014  0.8998
  228MOL0     H30725   9.915   0.634   8.062  0.1595 -1.6922  0.2283
  228MOL0     H30726   9.982   0.496   7.966  1.9361 -1.3669  0.4442
  228MOL0     H30727  10.197   0.564   8.096  1.0142 -4.4834  1.4561
  228MOL0     H30728  10.079   0.467   8.175  1.0036 -1.2190 -0.6732
  228MOL0     H30729  10.175   0.666   8.304  1.1915  3.2019 -1.9695
  228MOL0     H30730  10.087   0.774   8.200 -0.6446 -1.1360 -3.6480
  228MOL0     H30731   9.942   0.465   8.382 -1.1326 -0.9962 -0.2677
  228MOL0     H30732   9.773   0.467   8.605 -0.4434  1.1014  1.0121
  228MOL0     H30733   9.677   0.607   8.624  3.1391 -0.4231  1.8845
  228MOL0     H30734   9.598   0.567   8.358 -3.7282 -2.1962 -1.2518
  228MOL0     H30735   9.627   0.405   8.396 -0.9228 -2.0165  1.7612
  228MOL0     H30736   9.408   0.578   8.507 -2.8254 -0.7003 -1.1253
  228MOL0     H30737   9.490   0.458   8.622  2.4428 -1.7155 -2.0345
  228MOL0     H30738   9.430   0.276   8.486  1.9118  1.4718  0.8432
  228MOL0     H30739   9.369   0.377   8.361  0.5261 -2.8771 -1.3175
  228MOL0     H30740   9.042   0.345   8.669  0.7482 -0.1016 -1.5789
  228MOL0     H30741   8.857   0.210   8.604 -0.9358  4.9889 -0.2284
  228MOL0     H30742   8.647  -0.139   8.335  0.7095 -0.5909  0.0562
  228MOL0     H30743   8.416  -0.201   8.263  0.4317  0.5027 -1.6816
  228MOL0     H30744   8.252  -0.109   8.087 -1.5375 -1.6769 -2.3078
  228MOL0     H30745   8.218  -0.235   8.205  1.7081  2.2404  0.8843
  228MOL0     H30746   8.029  -0.197   8.031 -1.5131 -1.5234  1.6403
  228MOL0     H30747   7.980  -0.161   8.199  1.0855  1.8160  1.1512
  228MOL0     H30748   8.111   0.059   8.033 -0.3806 -1.2657 -0.1618
  228MOL0     H30749   7.949   0.004   7.977  0.2856 -0.6884  0.1121
  228MOL0     H30750   7.985   0.081   8.261 -0.4364 -0.9947  0.5610
  228MOL0     H30751   7.843   0.057   8.158 -0.2624  0.8112 -1.3051
  228MOL0     H30752   8.056   0.285   8.143 -0.6064  1.6602  0.2399
  228MOL0     H30753   7.894   0.310   8.196  0.8498 -2.4209  2.3799
  228MOL0     H30754   7.979   0.256   7.908 -1.4095 -2.2075 -0.7809
  228MOL0     H30755   7.813   0.225   7.952  0.4742  0.4686 -1.1447
  228MOL0     H30756   7.924   0.480   8.041 -1.2835  1.9035  0.2125
  228MOL0     H30757   7.762   0.436   8.008 -1.0372 -3.3030 -1.7016
  228MOL0     H30758   7.855   0.581   7.835 -1.3180 -0.2509 -0.5582
  228MOL0     H30759   7.981   0.463   7.794  0.0285  5.0656 -1.3244
  228MOL0     H30760   8.283   0.201   8.367  0.1316  0.8873  0.0090
  228MOL0     H30761   8.500   0.240   8.477 -2.3208  2.0007 -1.0915
  228MOL0     H30762   9.049   0.119   8.223  0.8677 -3.9436  1.6650
  228MOL0     H30763   9.227   0.269   8.282 -1.4590  1.9347 -2.1655
  228MOL0     H30764  10.562   0.571   7.240  0.6908  0.4915  0.4749
  228MOL0     H30765  10.605   0.683   7.038 -0.8463  0.1713 -1.4134
  228MOL0     H30766  10.475   0.837   6.641  0.2080 -0.3127  2.3355
  228MOL0     H30767  10.411   0.948   6.429 -0.4036  3.2492 -2.6665
  228MOL0     H30768  10.583   1.354   6.361  0.9214 -1.9632  1.5449
  228MOL0     H30769  10.424   1.383   6.421  1.2770  3.6643 -1.5983
  228MOL0     H30770  10.334   1.315   6.182 -2.1374  0.6943  5.3016
  228MOL0     H30771  10.504   1.305   6.129  0.5487 -2.0335  2.0648
  228MOL0     H30772  10.542   1.550   6.190 -0.9790  1.0294  1.6092
  228MOL0     H30773  10.392   1.562   6.261  2.1373 -0.1064  0.7107
  228MOL0     H30774  10.427   1.498   5.958  1.2048  0.1947  0.5369
  228MOL0     H30775  10.280   1.540   6.054 -0.7933 -2.1849 -4.0010
  228MOL0     H30776  10.548   1.866   5.924  1.0067 -0.9937  0.9466
  228MOL0     H30777  10.536   1.329   6.607 -3.0415  0.3442 -1.1270
  228MOL0     H30778  10.444   1.220   6.945  0.7250 -1.4901  0.3353
  228MOL0     H30779  10.605   1.272   6.901 -0.8594  1.8042  0.9116
  228MOL0     H30780  10.467   1.351   6.824 -1.4622 -0.3263 -0.9406
  229MOL0     O30781  10.521   0.738   7.945  0.0665 -0.9380 -0.3481
  229MOL0     C30782  10.632   0.781   7.974  0.1970 -0.4844  0.0453
  229MOL0     O30783  10.676   0.787   8.098 -0.3398 -0.2144  0.3396
  229MOL0     C30784  10.589   0.752   8.198  0.4662 -0.2149 -0.2378
  229MOL0     C30785  10.522   0.850   8.269 -0.0802 -0.0362  1.3686
  229MOL0     C30786  10.457   0.818   8.387  1.3417 -0.0796 -0.2165
  229MOL0     C30787  10.452   0.685   8.436 -0.5275  0.5177 -0.0744
  229MOL0     O30788  10.394   0.623   8.539 -0.2190 -0.4543 -0.5729
  229MOL0     C30789  10.307   0.700   8.629 -0.3310  0.9414  0.3725
  229MOL0     C30790  10.259   0.606   8.729 -0.1086  0.6427  0.3845
  229MOL0     C30791  10.153   0.519   8.663  0.0105 -0.3870 -0.0654
  229MOL0     C30792  10.086   0.408   8.746 -0.5383 -0.4593  0.6264
  229MOL0     C30793  10.188   0.301   8.764  0.3116  0.4027 -2.0343
  229MOL0     C30794  10.123   0.177   8.819 -0.6403  0.3610  0.2475
  229MOL0     C30795  10.231   0.074   8.881 -0.3735 -0.5518  0.0460
  229MOL0     C30796  10.175  -0.052   8.952  1.0894  0.4190  0.1983
  229MOL0     N30797  10.274  -0.163   8.934 -0.0658 -0.0918 -0.0791
  229MOL0     C30798  10.294  -0.245   8.820 -0.3009  0.1104 -0.8195
  229MOL0     C30799  10.386  -0.341   8.864 -0.3877 -0.6809 -0.1604
  229MOL0     C30800  10.455  -0.456   8.787  0.3241 -0.3359 -0.1761
  229MOL0     C30801  10.405  -0.583   8.866 -0.5661  0.2162 -0.3901
  229MOL0     C30802  10.464  -0.713   8.814  0.1942 -0.2665 -0.2665
  229MOL0     C30803  10.488  -0.823   8.926 -0.5057  0.3959  0.1905
  229MOL0     O30804  10.540  -0.948   8.868  0.0222  0.5295 -0.2481
  229MOL0     C30805  10.497  -1.071   8.915  0.5524  0.3726 -0.8439
  229MOL0     C30806  10.390  -1.093   9.008 -0.2728  1.1887 -0.0803
  229MOL0     C30807  10.338  -1.222   9.040 -0.7184  0.0480  0.0159
  229MOL0     C30808  10.391  -1.328   8.965  0.0587  0.2808 -0.2608
  229MOL0     C30809  10.360  -1.468   8.999 -0.2416  0.4734  0.6908
  229MOL0     O30810  10.246  -1.505   9.066  0.2606 -0.2259  0.5965
  229MOL0     C30811  10.168  -1.616   9.023 -0.4336 -0.9429 -0.7908
  229MOL0     C30812  10.157  -1.664   8.889  0.2156 -0.5111  0.3187
  229MOL0     C30813  10.044  -1.748   8.859  0.5891  0.0951  1.0342
  229MOL0     C30814   9.961  -1.796   8.953  0.5532 -0.1650 -0.3275
  229MOL0     O30815   9.840  -1.867   8.916 -0.2193  0.0550  0.5645
  229MOL0     C30816   9.813  -1.882   8.769 -0.5610  0.0464  0.6876
  229MOL0     C30817   9.690  -1.962   8.734  0.2219 -0.0078  0.5230
  229MOL0     C30818   9.576  -1.903   8.801 -0.0471 -0.3839 -0.0458
  229MOL0     C30819   9.443  -1.952   8.744  0.9972 -0.8012  0.1302
  229MOL0     C30820   9.328  -1.904   8.836 -0.5960 -0.3945 -0.3054
  229MOL0     C30821   9.275  -1.768   8.786  0.3951  0.8855 -0.6522
  229MOL0     C30822   9.153  -1.719   8.856 -0.0937 -0.4554  0.0431
  229MOL0     C30823   9.144  -1.562   8.844 -0.1504 -0.4648  0.6676
  229MOL0    Cl30824   8.989  -1.515   8.914  0.1249 -0.0639 -0.1667
  229MOL0     C30825   9.973  -1.753   9.077  1.1442 -0.2643  0.5722
  229MOL0     C30826  10.068  -1.656   9.120 -0.6034  1.1018  0.0525
  229MOL0     O30827  10.436  -1.555   8.948  0.4256  0.1427  0.0922
  229MOL0     C30828  10.498  -1.306   8.865  1.0472  0.3634  0.2102
  229MOL0     C30829  10.544  -1.172   8.844  0.2292  0.2691 -0.3826
  229MOL0     N30830  10.406  -0.320   9.004 -0.2582  0.3518  0.8081
  229MOL0     N30831  10.341  -0.212   9.038  0.1554 -0.5163  0.6229
  229MOL0     C30832  10.519   0.596   8.359 -0.0393  0.0244  0.6643
  229MOL0     C30833  10.589   0.627   8.241 -0.2646 -0.3369 -0.2197
  229MOL0     C30834  10.730   0.853   7.877 -0.4588  0.1772  0.1969
  229MOL0     C30835  10.850   0.894   7.931 -0.0760  0.3418  0.0639
  229MOL0     C30836  10.939   0.984   7.853 -0.0726  0.5937 -0.0576
  229MOL0     C30837  10.906   1.007   7.719 -0.6052 -0.1786 -0.4376
  229MOL0     O30838  10.985   1.084   7.626  0.3139  0.3779 -0.2041
  229MOL0     C30839  11.097   1.150   7.666 -0.3304  0.2274 -0.2175
  229MOL0     C30840  11.151   1.229   7.550 -1.0335 -1.0218  0.5607
  229MOL0     C30841  11.067   1.352   7.504  0.3145 -0.1650 -0.3361
  229MOL0     C30842  11.131   1.432   7.390  0.6091 -0.9887 -0.2077
  229MOL0     C30843  11.240   1.511   7.449  0.3091 -0.5929 -0.4752
  229MOL0     C30844  11.332   1.580   7.493  0.1484  0.1005 -0.5196
  229MOL0     C30845  10.793   0.949   7.662 -0.1719 -0.7822  0.8443
  229MOL0     C30846  10.696   0.882   7.737  0.3574  0.6319  0.2223
  229MOL0     C30847  10.576   0.819   7.666  0.5226 -1.0660 -0.6565
  229MOL0     H30848  10.517   0.952   8.232  0.7176 -0.6243 -0.4680
  229MOL0     H30849  10.393   0.892   8.435  2.7894  1.9822 -1.3177
  229MOL0     H30850  10.360   0.782   8.676  0.6356  1.0149 -0.7844
  229MOL0     H30851  10.213   0.737   8.586 -2.7074 -0.8536  3.5510
  229MOL0     H30852  10.210   0.663   8.808  0.4994  1.6124  0.0780
  229MOL0     H30853  10.342   0.541   8.758  1.1745  0.9503 -2.2999
  229MOL0     H30854  10.195   0.473   8.573  1.9205  0.3373  0.3871
  229MOL0     H30855  10.073   0.592   8.647  1.8470  0.9266 -5.4063
  229MOL0     H30856  10.067   0.445   8.847  2.5411 -3.2353  2.3977
  229MOL0     H30857   9.995   0.380   8.691  0.0055  1.6476 -1.5288
  229MOL0     H30858  10.239   0.286   8.669  3.3186  5.7891 -1.6894
  229MOL0     H30859  10.268   0.334   8.831  1.5667 -1.2522 -2.6332
  229MOL0     H30860  10.059   0.213   8.900  2.7033  1.1750  2.7535
  229MOL0     H30861  10.079   0.127   8.733  1.6801 -0.0892 -0.7354
  229MOL0     H30862  10.291   0.133   8.951 -0.7596 -0.1742  0.0635
  229MOL0     H30863  10.292   0.040   8.797 -1.0988 -0.0811 -0.6873
  229MOL0     H30864  10.156  -0.025   9.056  0.4117  1.2709 -0.1379
  229MOL0     H30865  10.084  -0.088   8.901  1.7517  1.8697 -2.1596
  229MOL0     H30866  10.246  -0.236   8.723  1.1836  0.5671 -1.5540
  229MOL0     H30867  10.442  -0.457   8.678 -0.9213 -1.3781 -0.0405
  229MOL0     H30868  10.564  -0.450   8.793  0.5843 -1.3300 -2.6712
  229MOL0     H30869  10.438  -0.568   8.969  3.6559 -2.3365 -1.1335
  229MOL0     H30870  10.295  -0.587   8.863 -0.5385 -0.4851 -0.6137
  229MOL0     H30871  10.560  -0.674   8.778 -0.8733  2.5881 -0.2585
  229MOL0     H30872  10.411  -0.752   8.727  0.4334  1.8081 -1.4018
  229MOL0     H30873  10.404  -0.835   8.996  0.8013  3.5842  2.5409
  229MOL0     H30874  10.561  -0.777   8.993  2.4611 -3.3150 -0.1717
  229MOL0     H30875  10.332  -1.008   9.043 -0.2434  1.1329  0.1041
  229MOL0     H30876  10.264  -1.234   9.118 -1.0245 -1.4143 -0.4842
  229MOL0     H30877  10.216  -1.616   8.811  1.4516 -0.1505  1.4454
  229MOL0     H30878  10.035  -1.764   8.752 -0.0670  2.1416  0.7402
  229MOL0     H30879   9.817  -1.784   8.723  0.8804 -0.1759  0.3109
  229MOL0     H30880   9.889  -1.937   8.714  1.8606  3.9483 -0.1802
  229MOL0     H30881   9.671  -1.953   8.627  0.0445  0.1659  0.5696
  229MOL0     H30882   9.692  -2.070   8.752  1.4901 -0.6704 -2.8549
  229MOL0     H30883   9.574  -1.934   8.906 -2.8204 -0.8006 -0.1358
  229MOL0     H30884   9.576  -1.794   8.800  1.6820 -0.3668 -1.0530
  229MOL0     H30885   9.442  -2.061   8.742  0.0337 -0.8639  1.9700
  229MOL0     H30886   9.425  -1.916   8.643  0.1037  0.9380  0.8775
  229MOL0     H30887   9.357  -1.899   8.942  0.0671  1.5256 -0.5303
  229MOL0     H30888   9.257  -1.985   8.821  1.3888 -2.2045 -0.4637
  229MOL0     H30889   9.357  -1.699   8.808 -0.6025  1.8779  0.0920
  229MOL0     H30890   9.259  -1.768   8.678  2.6304  0.0777 -1.0376
  229MOL0     H30891   9.150  -1.743   8.963  1.4172 -2.5580 -0.3222
  229MOL0     H30892   9.064  -1.755   8.803 -1.0762  0.4302  1.0356
  229MOL0     H30893   9.229  -1.509   8.886  1.6205  0.7800 -3.8536
  229MOL0     H30894   9.140  -1.533   8.738 -2.3735  0.0388  0.8451
  229MOL0     H30895   9.892  -1.777   9.145 -1.4102  0.4271 -2.0530
  229MOL0     H30896  10.058  -1.617   9.221 -2.1950 -0.4628  0.5547
  229MOL0     H30897  10.546  -1.387   8.811  0.2258 -1.8333  2.5472
  229MOL0     H30898  10.632  -1.158   8.783  0.8231  3.3969  0.9788
  229MOL0     H30899  10.524   0.494   8.397 -2.5223 -1.6469 -2.8860
  229MOL0     H30900  10.646   0.553   8.185 -0.2229 -1.4825  1.2811
  229MOL0     H30901  10.889   0.863   8.027  3.9565 -2.7399 -2.2746
  229MOL0     H30902  11.032   1.024   7.892 -0.4037  0.6166  0.7389
  229MOL0     H30903  11.167   1.074   7.700 -1.5673  0.1721  2.4551
  229MOL0     H30904  11.086   1.210   7.757  1.9105 -0.1151  0.3375
  229MOL0     H30905  11.161   1.161   7.465  2.0739 -0.3419  0.2642
  229MOL0     H30906  11.247   1.267   7.586  0.1503 -2.0432 -1.3089
  229MOL0     H30907  11.047   1.431   7.578 -0.8978  0.0419 -0.8601
  229MOL0     H30908  10.971   1.317   7.464  0.3728  1.1379 -1.6983
  229MOL0     H30909  11.172   1.362   7.317 -0.1030 -1.6219 -0.0058
  229MOL0     H30910  11.059   1.499   7.341 -0.6231 -0.6747  1.9382
  229MOL0     H30911  11.411   1.631   7.543 -1.6319  0.4707  2.1299
  229MOL0     H30912  10.768   0.965   7.558  2.1645  1.8742  0.5669
  229MOL0     H30913  10.564   0.716   7.703  0.6750 -0.8522 -0.0066
  229MOL0     H30914  10.483   0.873   7.686  0.5700 -1.6012  1.1542
  229MOL0     H30915  10.600   0.814   7.559 -0.5296  1.3158 -1.0764
  230MOL0     O30916   0.986  10.837   0.808 -0.4732 -0.1469  0.8152
  230MOL0     C30917   0.984  10.730   0.866 -0.0068  0.3698  0.1706
  230MOL0     O30918   0.927  10.711   0.996  0.6820  0.8164  0.4169
  230MOL0     C30919   0.943  10.799   1.087  0.4598 -0.6360 -0.0653
  230MOL0     C30920   0.846  10.898   1.108  0.7213  0.8276  0.0360
  230MOL0     C30921   0.864  11.005   1.193  0.8448 -0.3502 -0.3213
  230MOL0     C30922   0.975  11.015   1.273  0.3820 -0.2879  0.6010
  230MOL0     O30923   0.990  11.130   1.342 -0.9195  0.4804  0.1416
  230MOL0     C30924   1.114  11.152   1.408 -0.1940 -1.0258  0.3116
  230MOL0     C30925   1.114  11.294   1.467  0.3520  0.5696 -0.3802
  230MOL0     C30926   1.156  11.403   1.368 -0.6239 -0.3845 -0.1336
  230MOL0     C30927   1.044  11.461   1.273 -1.1150  0.0259  0.0733
  230MOL0     C30928   0.990  11.570   1.352  0.2505 -0.3501 -1.1178
  230MOL0     C30929   0.865  11.645   1.287  0.3424  0.8375 -0.0939
  230MOL0     C30930   0.822  11.770   1.372  0.6524  0.1212  0.4772
  230MOL0     C30931   0.722  11.731   1.472 -0.2210  0.1960 -0.1710
  230MOL0     N30932   0.669  11.856   1.533  0.1623 -0.6891 -0.2887
  230MOL0     C30933   0.627  11.972   1.470  0.3410  0.2466  0.0554
  230MOL0     C30934   0.554  12.033   1.565 -0.4184 -0.7586  0.1813
  230MOL0     C30935   0.466  12.148   1.534 -0.5201  0.1019 -0.5465
  230MOL0     C30936   0.434  12.238   1.658 -0.3188  0.2266  0.5645
  230MOL0     C30937   0.329  12.188   1.746  0.0599 -0.0542  0.7220
  230MOL0     C30938   0.319  12.254   1.884  0.1518 -0.1956 -0.4320
  230MOL0     O30939   0.301  12.395   1.871 -0.9049 -0.5126 -0.5333
  230MOL0     C30940   0.181  12.440   1.826  0.4163  0.4158 -1.2760
  230MOL0     C30941   0.050  12.396   1.875 -1.1021 -0.0963 -0.0193
  230MOL0     C30942  -0.067  12.451   1.828  0.3009  0.5510 -0.3894
  230MOL0     C30943  -0.072  12.556   1.736  0.2856 -0.3862  0.7256
  230MOL0     C30944  -0.202  12.627   1.684  0.2057 -0.9550  0.2314
  230MOL0     O30945  -0.183  12.751   1.627 -0.0792 -0.5174 -0.3680
  230MOL0     C30946  -0.284  12.833   1.586  0.1731 -0.9823 -0.5322
  230MOL0     C30947  -0.233  12.959   1.540  0.2063 -0.6651 -0.1435
  230MOL0     C30948  -0.329  13.050   1.480 -0.5673  0.9584 -0.2294
  230MOL0     C30949  -0.466  13.021   1.482 -0.3723  0.2092  0.2170
  230MOL0     O30950  -0.571  13.098   1.432  0.1901 -0.3344  0.5255
  230MOL0     C30951  -0.551  13.173   1.310  0.6188 -0.1925  0.3129
  230MOL0     C30952  -0.598  13.085   1.188  0.0262  0.1979 -0.5334
  230MOL0     C30953  -0.736  13.013   1.211  0.5415  0.1484  0.4779
  230MOL0     C30954  -0.738  12.891   1.108 -0.1841 -0.4726 -0.9431
  230MOL0     C30955  -0.858  12.807   1.123  1.4031 -0.1543  0.1917
  230MOL0     C30956  -0.979  12.875   1.070  0.1432  0.0063 -0.7596
  230MOL0     C30957  -1.103  12.772   1.071 -0.5191 -0.0637 -0.2522
  230MOL0     C30958  -1.224  12.845   1.014  0.0755 -0.4370  0.6143
  230MOL0    Cl30959  -1.300  12.946   1.141 -0.2067 -0.5582 -0.2193
  230MOL0     C30960  -0.509  12.903   1.538  0.1043  0.8063 -0.1830
  230MOL0     C30961  -0.421  12.809   1.579  0.2568  0.1843  0.4772
  230MOL0     O30962  -0.310  12.560   1.698 -0.0051  0.0994 -0.1982
  230MOL0     C30963   0.056  12.605   1.691  0.9472 -0.6938  0.2350
  230MOL0     C30964   0.177  12.544   1.738 -0.6141  0.1965  0.4246
  230MOL0     N30965   0.571  11.967   1.682 -0.6830  0.5990 -0.1309
  230MOL0     N30966   0.637  11.857   1.663 -0.7509  0.4061 -0.0778
  230MOL0     C30967   1.075  10.907   1.263 -0.0468 -0.6273 -0.4561
  230MOL0     C30968   1.059  10.802   1.168 -0.1750  0.1958 -0.3932
  230MOL0     C30969   1.032  10.610   0.790  0.5001 -1.3484 -0.1120
  230MOL0     C30970   0.947  10.493   0.806  0.0304 -0.5293  0.0696
  230MOL0     C30971   0.981  10.367   0.748 -0.7452  0.3030  0.1348
  230MOL0     C30972   1.100  10.349   0.680  0.1090 -0.0766  0.0821
  230MOL0     O30973   1.161  10.232   0.641 -0.0610  0.1084  0.3058
  230MOL0     C30974   1.081  10.144   0.555  0.7169 -1.1781 -0.6970
  230MOL0     C30975   1.182  10.075   0.457 -1.1804  0.5563  1.2652
  230MOL0     C30976   1.224  10.177   0.344  0.2910 -0.8007 -0.8009
  230MOL0     C30977   1.325  10.113   0.246  0.2597 -0.2448  0.1432
  230MOL0     C30978   1.459  10.122   0.306  0.2589 -0.2109 -0.9665
  230MOL0     C30979   1.559  10.129   0.374  0.4776 -0.2593  0.1623
  230MOL0     C30980   1.181  10.459   0.667  0.3900 -0.7812  0.0257
  230MOL0     C30981   1.144  10.590   0.712 -0.2818 -1.0433  1.3525
  230MOL0     C30982   1.238  10.705   0.687  0.6285 -0.9268 -0.3329
  230MOL0     H30983   0.759  10.903   1.044 -0.7848 -0.2515  1.8942
  230MOL0     H30984   0.794  11.088   1.189  0.6196 -0.5466 -0.4584
  230MOL0     H30985   1.131  11.078   1.487 -1.8444 -0.8409  0.8805
  230MOL0     H30986   1.195  11.134   1.337 -1.3925 -1.2790 -1.0339
  230MOL0     H30987   1.195  11.295   1.541 -0.3613  2.1714  0.4340
  230MOL0     H30988   1.017  11.321   1.511 -0.3361 -2.9806  0.6097
  230MOL0     H30989   1.242  11.364   1.313  0.7921  1.9034  0.3087
  230MOL0     H30990   1.194  11.492   1.421  0.4264  0.0158 -1.4948
  230MOL0     H30991   1.103  11.499   1.190 -0.3669 -1.6143 -0.1853
  230MOL0     H30992   0.968  11.385   1.252 -0.2515 -1.0723  0.7608
  230MOL0     H30993   0.953  11.528   1.446  0.6410  1.0112 -0.3236
  230MOL0     H30994   1.064  11.644   1.384 -0.1498 -0.6419  0.5565
  230MOL0     H30995   0.902  11.684   1.192  0.2875  1.7282  0.2386
  230MOL0     H30996   0.781  11.576   1.275 -2.1549  3.3690  1.5912
  230MOL0     H30997   0.785  11.852   1.310 -2.2889 -0.9147  0.7142
  230MOL0     H30998   0.913  11.801   1.425  1.9382 -2.7324  0.1439
  230MOL0     H30999   0.641  11.674   1.427  0.7554 -2.5917  1.3796
  230MOL0     H31000   0.775  11.664   1.540  0.8716  0.0142 -1.1695
  230MOL0     H31001   0.619  11.998   1.365 -0.7570 -1.4405 -0.3238
  230MOL0     H31002   0.517  12.206   1.457  1.7136 -0.0859  0.6929
  230MOL0     H31003   0.373  12.106   1.497 -0.4320 -0.0008 -0.6534
  230MOL0     H31004   0.526  12.254   1.714  0.2108  0.2966 -0.2989
  230MOL0     H31005   0.394  12.334   1.622  2.5409  1.3418  0.0986
  230MOL0     H31006   0.331  12.084   1.779  0.0025  0.4601  2.4397
  230MOL0     H31007   0.229  12.202   1.703 -0.0912  0.2652  1.1669
  230MOL0     H31008   0.416  12.242   1.933 -0.9635 -2.9292  1.3952
  230MOL0     H31009   0.243  12.210   1.950  0.2488 -3.0568 -2.0567
  230MOL0     H31010   0.050  12.323   1.955  1.3058 -0.0462  0.0762
  230MOL0     H31011  -0.164  12.438   1.876 -0.0158 -3.0283 -1.7187
  230MOL0     H31012  -0.130  12.993   1.528 -0.5828  1.4740 -1.4638
  230MOL0     H31013  -0.289  13.139   1.433  2.2476  0.3298  0.7602
  230MOL0     H31014  -0.617  13.261   1.310  0.1954 -0.4766 -1.1646
  230MOL0     H31015  -0.449  13.202   1.286 -0.9571  4.7681 -1.7769
  230MOL0     H31016  -0.606  13.152   1.102 -0.2051  0.7162 -0.1105
  230MOL0     H31017  -0.518  13.013   1.170 -0.2663 -1.3421  3.4205
  230MOL0     H31018  -0.744  12.977   1.314 -0.7030  2.4910  1.2704
  230MOL0     H31019  -0.816  13.084   1.189 -0.3979 -1.0197  0.0718
  230MOL0     H31020  -0.660  12.820   1.139 -1.5854 -2.2286 -1.2583
  230MOL0     H31021  -0.724  12.939   1.011  0.9023  0.9172 -0.1382
  230MOL0     H31022  -0.880  12.784   1.227 -0.9726 -2.9330 -0.7714
  230MOL0     H31023  -0.849  12.711   1.070 -0.9923  0.0328 -0.7044
  230MOL0     H31024  -1.006  12.968   1.122 -2.9009 -1.0143 -0.3409
  230MOL0     H31025  -0.954  12.918   0.973  4.8774 -0.4764 -0.0077
  230MOL0     H31026  -1.119  12.736   1.173 -0.5458 -2.0080 -0.9008
  230MOL0     H31027  -1.089  12.691   1.000 -1.8596 -1.4338  0.9676
  230MOL0     H31028  -1.189  12.900   0.926  3.3811 -2.0083  0.7978
  230MOL0     H31029  -1.289  12.763   0.982  2.5579 -1.8656 -1.1218
  230MOL0     H31030  -0.611  12.869   1.552 -0.1678  1.8258  0.4023
  230MOL0     H31031  -0.468  12.724   1.627 -0.5212  0.7747  0.7896
  230MOL0     H31032   0.075  12.691   1.628 -1.7873  0.8050  1.2383
  230MOL0     H31033   0.272  12.587   1.711 -1.2270  3.7331  3.0623
  230MOL0     H31034   1.166  10.917   1.322 -1.5691  1.3897  1.7648
  230MOL0     H31035   1.135  10.729   1.140 -0.5816  0.2590 -1.7688
  230MOL0     H31036   0.856  10.504   0.863 -0.8818 -1.6242 -1.1112
  230MOL0     H31037   0.917  10.284   0.776  1.0436 -0.4378  2.3121
  230MOL0     H31038   1.002  10.192   0.498 -0.0661  0.4090  1.5708
  230MOL0     H31039   1.026  10.067   0.611 -1.6274  0.1807 -1.0166
  230MOL0     H31040   1.149   9.985   0.404  1.2898 -0.7928  1.8910
  230MOL0     H31041   1.277  10.054   0.506 -1.4869 -1.3169  1.1138
  230MOL0     H31042   1.260  10.272   0.384 -0.2755 -0.6300 -0.6880
  230MOL0     H31043   1.133  10.201   0.288 -0.7242 -0.7030  0.7948
  230MOL0     H31044   1.303  10.006   0.245 -3.3719  0.3262  1.6950
  230MOL0     H31045   1.316  10.155   0.146 -3.5428 -1.6111 -0.2563
  230MOL0     H31046   1.649  10.134   0.432 -1.1894  2.9585  2.8252
  230MOL0     H31047   1.281  10.451   0.626 -0.7777  1.9178 -3.9861
  230MOL0     H31048   1.330  10.676   0.636 -0.1675 -0.9674 -1.8178
  230MOL0     H31049   1.182  10.771   0.620  0.0952 -1.0427 -0.0085
  230MOL0     H31050   1.258  10.761   0.779 -1.1959 -0.4958 -0.1453
  231MOL0     O31051   8.949   3.587   7.748 -0.1644  0.9024 -0.0261
  231MOL0     C31052   8.936   3.708   7.759  0.5910 -0.0956 -0.1247
  231MOL0     O31053   9.033   3.801   7.721  0.1562  1.1412 -0.2422
  231MOL0     C31054   9.131   3.753   7.637  0.5981  0.7588  0.6388
  231MOL0     C31055   9.114   3.771   7.501 -0.0515  0.2087 -0.1516
  231MOL0     C31056   9.220   3.743   7.422  0.3551 -0.9574  0.7376
  231MOL0     C31057   9.327   3.673   7.470 -1.6414 -0.1258  0.2228
  231MOL0     O31058   9.436   3.625   7.398  0.1979  0.3821 -0.1991
  231MOL0     C31059   9.559   3.685   7.444 -0.2133  0.2855 -0.1085
  231MOL0     C31060   9.648   3.696   7.329 -0.3058 -0.2905  0.4607
  231MOL0     C31061   9.632   3.817   7.235 -0.2627  0.7435 -0.7093
  231MOL0     C31062   9.730   3.840   7.122 -0.3001 -0.0398  0.0242
  231MOL0     C31063   9.695   3.941   7.017  0.5396  0.1316 -0.1869
  231MOL0     C31064   9.809   3.947   6.917  1.3573  0.6901  0.0639
  231MOL0     C31065   9.935   4.034   6.960 -0.2731 -0.4141  0.1242
  231MOL0     C31066  10.043   4.021   6.856 -0.5438  0.2581 -0.9246
  231MOL0     N31067  10.090   3.883   6.836 -0.2238 -0.2268 -0.4502
  231MOL0     C31068  10.144   3.804   6.933  0.0770 -0.4974 -0.4929
  231MOL0     C31069  10.199   3.694   6.873  0.3703  0.6603 -0.1079
  231MOL0     C31070  10.273   3.577   6.922  0.7411 -0.5767 -0.2594
  231MOL0     C31071  10.174   3.452   6.927 -0.3076  1.0720 -0.2777
  231MOL0     C31072  10.070   3.473   7.039 -0.0722 -0.8327 -0.5418
  231MOL0     C31073   9.973   3.352   7.070  0.5089  0.3462  0.1908
  231MOL0     O31074   9.925   3.362   7.207 -0.7704 -0.4118  0.0295
  231MOL0     C31075   9.824   3.294   7.269 -0.6205  0.4808  0.0267
  231MOL0     C31076   9.765   3.178   7.223 -0.0007  0.1150 -0.0762
  231MOL0     C31077   9.648   3.128   7.268  0.0735  0.3594 -0.3546
  231MOL0     C31078   9.585   3.198   7.369  0.1989  1.6465  0.3608
  231MOL0     C31079   9.450   3.151   7.422 -0.2491 -0.1686 -1.2617
  231MOL0     O31080   9.403   3.237   7.521  0.7280 -1.3362 -0.7040
  231MOL0     C31081   9.297   3.186   7.592  0.3237 -0.2395  0.0510
  231MOL0     C31082   9.301   3.052   7.644 -0.3351  0.2417  0.5008
  231MOL0     C31083   9.196   3.005   7.724  0.2030 -0.3230  0.6956
  231MOL0     C31084   9.099   3.091   7.759  0.5402 -0.8545 -0.8243
  231MOL0     O31085   8.989   3.042   7.824 -0.9053 -0.0182 -0.3061
  231MOL0     C31086   9.013   2.946   7.929 -0.2950  0.3570 -0.2866
  231MOL0     C31087   8.890   2.907   8.001 -0.1635  0.5730 -0.3541
  231MOL0     C31088   8.847   3.017   8.096 -0.2431 -1.0001  0.3174
  231MOL0     C31089   8.799   2.969   8.231 -0.1169 -0.5273 -0.5089
  231MOL0     C31090   8.759   3.082   8.329  0.1192 -0.0252 -0.7248
  231MOL0     C31091   8.745   3.039   8.479 -1.1159  0.4128  0.3840
  231MOL0     C31092   8.645   2.935   8.497  0.1883  0.0525 -0.1998
  231MOL0     C31093   8.596   2.907   8.640 -0.7080 -0.7001  0.3288
  231MOL0    Cl31094   8.712   2.821   8.755  0.4264  0.0548 -0.1046
  231MOL0     C31095   9.091   3.223   7.715 -0.4501 -0.2368 -0.4903
  231MOL0     C31096   9.197   3.273   7.638 -1.0616 -0.5104  0.5498
  231MOL0     O31097   9.395   3.052   7.371  0.1689  0.2001 -0.4766
  231MOL0     C31098   9.641   3.311   7.424  0.0792  0.2762 -0.1641
  231MOL0     C31099   9.761   3.359   7.377 -0.3683 -0.1869  0.2591
  231MOL0     N31100  10.137   3.693   6.747 -0.0119 -0.6367 -0.7840
  231MOL0     N31101  10.069   3.802   6.729  1.3928  0.1136  0.1748
  231MOL0     C31102   9.334   3.629   7.595  0.1710 -0.3265 -0.6073
  231MOL0     C31103   9.243   3.682   7.688 -0.0640 -0.3062  0.6039
  231MOL0     C31104   8.814   3.768   7.824 -0.1654 -0.0025  0.0940
  231MOL0     C31105   8.800   3.912   7.825 -0.2335  0.0847 -0.4494
  231MOL0     C31106   8.691   3.978   7.886  0.2302  0.0687 -0.1743
  231MOL0     C31107   8.584   3.909   7.944  0.2559 -0.6406  0.2246
  231MOL0     O31108   8.477   3.986   7.997  0.6029 -0.7093 -1.0365
  231MOL0     C31109   8.342   3.918   8.018 -0.3929 -0.1958  1.1974
  231MOL0     C31110   8.231   4.011   8.077  0.2710 -0.2921 -0.7284
  231MOL0     C31111   8.261   4.050   8.221  0.8147  1.1532 -0.0668
  231MOL0     C31112   8.160   4.161   8.260  0.3858 -0.1604  0.0356
  231MOL0     C31113   8.199   4.219   8.389 -0.0262 -0.0179 -0.5389
  231MOL0     C31114   8.217   4.261   8.497  0.2194  1.5836 -0.8103
  231MOL0     C31115   8.588   3.768   7.939  0.0356  0.3822  0.1205
  231MOL0     C31116   8.705   3.698   7.886 -0.8989 -0.2337  0.1887
  231MOL0     C31117   8.719   3.549   7.901 -0.1442 -0.0313  0.0669
  231MOL0     H31118   9.024   3.818   7.464 -0.1553 -0.8071 -1.2460
  231MOL0     H31119   9.218   3.755   7.314 -2.8207  0.0386  0.8023
  231MOL0     H31120   9.558   3.782   7.493 -0.2762 -0.2709  1.0342
  231MOL0     H31121   9.601   3.609   7.511  0.2898  0.7858  0.1517
  231MOL0     H31122   9.641   3.609   7.263  2.2450 -0.1340 -0.1175
  231MOL0     H31123   9.752   3.699   7.364 -0.7800 -1.4119  2.0912
  231MOL0     H31124   9.628   3.909   7.294 -0.5402 -1.2147  2.5946
  231MOL0     H31125   9.535   3.805   7.185 -0.6901 -1.8877  0.5424
  231MOL0     H31126   9.822   3.870   7.172 -1.0813  2.0740  0.2939
  231MOL0     H31127   9.740   3.739   7.082 -0.6984 -0.4131  0.8424
  231MOL0     H31128   9.601   3.908   6.972  2.0767 -2.5365 -1.6960
  231MOL0     H31129   9.678   4.039   7.063  1.2369  0.8919 -1.4695
  231MOL0     H31130   9.827   3.847   6.877 -0.0324 -0.3585  1.8729
  231MOL0     H31131   9.779   4.004   6.829 -0.5060  0.0425  0.2302
  231MOL0     H31132   9.974   3.992   7.053  0.0413  0.3081  0.3195
  231MOL0     H31133   9.899   4.136   6.976 -3.2269 -1.7997  3.8808
  231MOL0     H31134  10.012   4.058   6.758  2.0754  0.6157 -1.6892
  231MOL0     H31135  10.131   4.070   6.898  0.8772 -2.7439 -0.1066
  231MOL0     H31136  10.149   3.825   7.040 -0.5880  0.8497 -0.7042
  231MOL0     H31137  10.355   3.540   6.859 -1.3543 -2.4587 -2.0664
  231MOL0     H31138  10.317   3.594   7.021 -0.6630 -3.3003  0.9064
  231MOL0     H31139  10.121   3.439   6.832  1.1806 -2.9764 -0.7598
  231MOL0     H31140  10.222   3.360   6.961 -2.0704 -1.0840 -3.0617
  231MOL0     H31141  10.013   3.563   7.014  1.2703  0.1180 -0.3374
  231MOL0     H31142  10.131   3.512   7.122 -0.8208  0.6555 -0.6712
  231MOL0     H31143  10.026   3.258   7.055  0.8620  0.7160 -1.0396
  231MOL0     H31144   9.892   3.350   6.997  1.3733 -1.9887 -0.7883
  231MOL0     H31145   9.817   3.111   7.155  0.7415 -1.9784  2.4107
  231MOL0     H31146   9.594   3.043   7.228  0.0731 -0.0062  0.4124
  231MOL0     H31147   9.383   2.988   7.614 -0.2501  1.2817 -1.6514
  231MOL0     H31148   9.202   2.898   7.736  3.5312 -0.2950  0.3355
  231MOL0     H31149   9.047   2.851   7.887 -0.2589 -0.1386  0.8208
  231MOL0     H31150   9.071   2.991   8.011 -1.3233  1.1411  0.0253
  231MOL0     H31151   8.809   2.866   7.941 -0.3992 -3.5258  2.3891
  231MOL0     H31152   8.913   2.821   8.065 -1.4517 -1.4806 -2.4923
  231MOL0     H31153   8.924   3.090   8.123 -1.0405  0.1629 -0.4534
  231MOL0     H31154   8.766   3.066   8.041  0.6400 -0.6846 -0.7330
  231MOL0     H31155   8.883   2.923   8.283 -0.6238 -0.0848  0.7554
  231MOL0     H31156   8.722   2.891   8.222 -0.7530 -0.0871  0.7790
  231MOL0     H31157   8.660   3.124   8.306  0.4456  2.3688  1.6807
  231MOL0     H31158   8.837   3.159   8.319 -0.7391  0.9121 -0.4415
  231MOL0     H31159   8.836   3.010   8.532 -3.3470 -2.6901  2.9960
  231MOL0     H31160   8.703   3.126   8.531  2.7267  1.8082  1.4592
  231MOL0     H31161   8.694   2.842   8.467  0.3231 -0.1999  0.7932
  231MOL0     H31162   8.559   2.957   8.433  1.9401  2.1029 -2.0207
  231MOL0     H31163   8.563   3.001   8.686 -2.5034 -1.5163  0.7905
  231MOL0     H31164   8.505   2.846   8.633  0.0461 -1.9584  1.0874
  231MOL0     H31165   9.010   3.286   7.748 -0.9466  0.2431 -2.4762
  231MOL0     H31166   9.203   3.371   7.592  0.0531 -1.1705 -0.7778
  231MOL0     H31167   9.595   3.366   7.505  1.4954 -1.7214  2.1099
  231MOL0     H31168   9.797   3.456   7.409 -0.1430 -0.6059  1.3033
  231MOL0     H31169   9.417   3.565   7.625 -0.0017  0.3416  1.4847
  231MOL0     H31170   9.253   3.646   7.790  1.6776  2.8497  1.6686
  231MOL0     H31171   8.883   3.962   7.777  1.5253  0.0158  2.3004
  231MOL0     H31172   8.688   4.086   7.878 -0.6207  0.0786  0.1688
  231MOL0     H31173   8.352   3.826   8.077 -1.1939 -3.8253 -3.7422
  231MOL0     H31174   8.307   3.902   7.916  1.0580  2.8210  0.1062
  231MOL0     H31175   8.130   3.970   8.085 -0.2529  0.8926 -1.0858
  231MOL0     H31176   8.222   4.097   8.010 -0.5473 -0.8516 -1.3553
  231MOL0     H31177   8.366   4.078   8.226  0.9399  0.6165  3.5204
  231MOL0     H31178   8.248   3.963   8.287 -2.4964  0.0300 -1.9496
  231MOL0     H31179   8.160   4.246   8.191  2.7596  0.1048  0.2781
  231MOL0     H31180   8.057   4.130   8.277  0.2574  0.3296  0.1767
  231MOL0     H31181   8.241   4.313   8.587 -2.2788  0.1545  0.8133
  231MOL0     H31182   8.501   3.710   7.968 -0.0049  0.6894  0.6210
  231MOL0     H31183   8.717   3.505   7.801  1.4116  1.2570 -0.5574
  231MOL0     H31184   8.815   3.532   7.950 -0.7903 -0.9136  1.0940
  231MOL0     H31185   8.634   3.503   7.953 -1.6824  1.5804 -0.9110
  232MOL0     O31186   8.493   7.157   0.015 -0.2139  0.2731 -0.7672
  232MOL0     C31187   8.613   7.138   0.032 -0.6328 -0.0249 -0.0874
  232MOL0     O31188   8.708   7.133  -0.066 -0.1873  0.3385  0.3706
  232MOL0     C31189   8.677   7.179  -0.199 -0.2926 -0.6963 -0.5369
  232MOL0     C31190   8.774   7.134  -0.287 -0.3677 -0.9344  0.3898
  232MOL0     C31191   8.768   7.174  -0.422  0.8005 -0.2009 -0.5364
  232MOL0     C31192   8.670   7.277  -0.453  0.2810  0.6684  0.2517
  232MOL0     O31193   8.675   7.327  -0.578 -0.4910  0.7803  1.0468
  232MOL0     C31194   8.780   7.427  -0.591  0.2353 -0.2774  0.2822
  232MOL0     C31195   8.840   7.416  -0.728  1.4403 -0.0319  0.3815
  232MOL0     C31196   8.973   7.500  -0.755 -0.0377 -0.6094  0.4061
  232MOL0     C31197   9.095   7.454  -0.678  0.4240  0.2814  0.2476
  232MOL0     C31198   9.206   7.548  -0.709 -0.3418  0.0269  0.4822
  232MOL0     C31199   9.335   7.506  -0.644  0.1489  1.2223 -0.2776
  232MOL0     C31200   9.439   7.601  -0.706 -0.5382 -0.1292 -0.6790
  232MOL0     C31201   9.560   7.630  -0.607 -0.1317 -0.6929 -0.6776
  232MOL0     N31202   9.645   7.510  -0.605  0.4475  0.3138  0.2033
  232MOL0     C31203   9.704   7.459  -0.713  0.3156  0.2991  1.1876
  232MOL0     C31204   9.753   7.338  -0.673  0.0444  0.3230 -0.6732
  232MOL0     C31205   9.821   7.219  -0.724  0.5206  0.3824 -0.5730
  232MOL0     C31206   9.884   7.243  -0.864 -0.1846  0.7785 -0.5525
  232MOL0     C31207   9.961   7.123  -0.908 -0.4833  0.1697  0.7466
  232MOL0     C31208  10.065   7.168  -1.016  0.0634 -0.2708 -0.2324
  232MOL0     O31209   9.998   7.160  -1.138  0.3402 -0.6310  1.2776
  232MOL0     C31210  10.066   7.142  -1.252  0.1426 -0.1455 -0.0421
  232MOL0     C31211   9.983   7.141  -1.361 -0.2559 -0.0710 -0.8946
  232MOL0     C31212  10.046   7.130  -1.481 -0.2746 -0.4774  0.1766
  232MOL0     C31213  10.184   7.119  -1.499 -0.6825  1.4652 -0.5736
  232MOL0     C31214  10.237   7.105  -1.637  0.3345 -0.8563  0.5406
  232MOL0     O31215  10.157   7.079  -1.744  0.7780 -0.1274  0.6736
  232MOL0     C31216  10.212   7.081  -1.873  0.4232 -0.5715 -1.1007
  232MOL0     C31217  10.297   7.179  -1.920  0.2286 -0.2763 -0.1016
  232MOL0     C31218  10.332   7.179  -2.055 -0.4503  0.5983 -0.5421
  232MOL0     C31219  10.290   7.075  -2.143  1.0653 -0.7475 -0.4134
  232MOL0     O31220  10.317   7.087  -2.276 -0.3713 -0.0083 -0.4913
  232MOL0     C31221  10.380   6.976  -2.335 -0.0449 -0.2737 -0.0056
  232MOL0     C31222  10.445   7.012  -2.466 -0.6602  0.1629 -1.2280
  232MOL0     C31223  10.550   7.135  -2.441 -0.5460  0.3050  0.4799
  232MOL0     C31224  10.659   7.079  -2.352  0.2848  0.1675 -0.4342
  232MOL0     C31225  10.725   7.205  -2.282 -0.7099  0.8894 -0.4276
  232MOL0     C31226  10.796   7.304  -2.376  0.4702 -0.9380 -1.0272
  232MOL0     C31227  10.721   7.441  -2.371 -0.4621 -0.3576  0.0349
  232MOL0     C31228  10.752   7.543  -2.482  0.0232  0.7082  0.1573
  232MOL0    Cl31229  10.933   7.582  -2.504 -0.2287  0.1006  0.5266
  232MOL0     C31230  10.211   6.971  -2.095  0.0339  0.3288 -0.3746
  232MOL0     C31231  10.165   6.987  -1.960 -1.1515  0.1150 -0.1040
  232MOL0     O31232  10.360   7.112  -1.643 -0.1644 -0.4006 -0.0748
  232MOL0     C31233  10.264   7.127  -1.388  0.5154  0.3451 -0.0965
  232MOL0     C31234  10.203   7.149  -1.262  0.0404  0.2433 -0.2661
  232MOL0     N31235   9.725   7.326  -0.540  0.4254  1.7653 -0.6120
  232MOL0     N31236   9.657   7.427  -0.491  1.0545  0.3156  0.3232
  232MOL0     C31237   8.574   7.326  -0.361 -0.3684 -0.1716 -0.1434
  232MOL0     C31238   8.578   7.269  -0.236  1.1454 -0.0965  0.2042
  232MOL0     C31239   8.665   7.106   0.164 -0.6504  0.6726  0.1870
  232MOL0     C31240   8.809   7.104   0.188 -0.0234  1.1770 -0.2164
  232MOL0     C31241   8.868   7.075   0.307  0.0954 -0.7175 -0.6164
  232MOL0     C31242   8.790   7.064   0.427  1.1249 -0.1776  0.1325
  232MOL0     O31243   8.856   7.061   0.547 -0.2300  1.0008 -0.3123
  232MOL0     C31244   8.883   6.933   0.605  0.4647 -0.0421 -0.9671
  232MOL0     C31245   8.989   6.955   0.713 -0.1820  0.6393 -0.1724
  232MOL0     C31246   8.987   6.860   0.825  0.1727  0.4168 -0.2511
  232MOL0     C31247   9.108   6.859   0.923 -0.4599  0.3080 -0.4807
  232MOL0     C31248   9.114   6.991   0.977  0.5539 -0.5883 -0.4213
  232MOL0     C31249   9.120   7.106   1.021  1.1843  0.3714 -0.1575
  232MOL0     C31250   8.650   7.072   0.405 -0.2655 -0.1034  0.1712
  232MOL0     C31251   8.590   7.095   0.283  0.3637  0.4844 -0.0140
  232MOL0     C31252   8.430   7.112   0.286 -0.4385  0.8899  0.1016
  232MOL0     H31253   8.854   7.064  -0.263  2.0721  0.7104 -2.3155
  232MOL0     H31254   8.834   7.128  -0.495  3.9564 -1.1584  2.6671
  232MOL0     H31255   8.735   7.527  -0.585 -0.5209 -0.5282 -0.8446
  232MOL0     H31256   8.854   7.414  -0.512  2.9791  0.4471 -1.9851
  232MOL0     H31257   8.758   7.440  -0.796  2.2651 -1.3558 -1.1583
  232MOL0     H31258   8.865   7.311  -0.748  0.6932  0.1231 -1.5831
  232MOL0     H31259   8.952   7.605  -0.731 -2.8234 -0.0436 -3.4904
  232MOL0     H31260   9.009   7.495  -0.858  2.5561 -0.4813  1.2401
  232MOL0     H31261   9.079   7.462  -0.570 -2.0742 -2.3405  0.2044
  232MOL0     H31262   9.129   7.357  -0.716  0.3088 -0.0016  0.8551
  232MOL0     H31263   9.219   7.548  -0.818  2.0882  0.6361  0.7054
  232MOL0     H31264   9.189   7.653  -0.684 -1.7860 -0.2233  0.6002
  232MOL0     H31265   9.326   7.533  -0.538  3.3310  1.9853 -0.0983
  232MOL0     H31266   9.360   7.402  -0.666  0.7439  1.6100 -1.5725
  232MOL0     H31267   9.390   7.697  -0.721  2.1067  1.5860  0.7802
  232MOL0     H31268   9.457   7.561  -0.807 -0.1385  1.8072 -1.4251
  232MOL0     H31269   9.629   7.709  -0.641  1.5034 -2.2577 -1.1362
  232MOL0     H31270   9.527   7.650  -0.504  1.8911  1.6007 -0.3664
  232MOL0     H31271   9.703   7.510  -0.808 -0.2713  0.7297  1.4162
  232MOL0     H31272   9.904   7.179  -0.666  1.6191  0.8370 -1.7812
  232MOL0     H31273   9.749   7.137  -0.716  1.5795 -0.5883 -0.6792
  232MOL0     H31274   9.822   7.292  -0.939  1.1757  0.5801 -1.8366
  232MOL0     H31275   9.966   7.313  -0.847 -0.1372  0.2251  1.9015
  232MOL0     H31276   9.896   7.047  -0.952  1.4884 -0.0749 -1.9808
  232MOL0     H31277  10.007   7.079  -0.819  0.0340  1.0529  0.9253
  232MOL0     H31278  10.149   7.099  -1.012  0.1858 -0.2201  5.3508
  232MOL0     H31279  10.101   7.268  -0.989 -0.7019 -0.1843  0.5178
  232MOL0     H31280   9.876   7.153  -1.351 -0.1875 -1.2932  2.7253
  232MOL0     H31281   9.976   7.144  -1.562 -2.2082 -0.7146  1.7224
  232MOL0     H31282  10.334   7.263  -1.863 -3.0278 -0.1746  2.1518
  232MOL0     H31283  10.394   7.261  -2.090 -2.6860  1.7901 -1.8656
  232MOL0     H31284  10.451   6.920  -2.274  1.0299 -0.6070 -1.5161
  232MOL0     H31285  10.299   6.905  -2.356 -1.9238 -0.0176  4.9393
  232MOL0     H31286  10.494   6.916  -2.486  0.8136  0.1196  1.9204
  232MOL0     H31287  10.367   7.038  -2.538 -0.7940  2.8802 -0.2000
  232MOL0     H31288  10.597   7.174  -2.533 -0.4256  1.4203  0.9966
  232MOL0     H31289  10.495   7.215  -2.390 -0.4104  1.2898 -0.8474
  232MOL0     H31290  10.733   7.017  -2.404  1.2336  1.7067 -0.9752
  232MOL0     H31291  10.611   7.021  -2.273 -2.4102  2.4394 -0.2433
  232MOL0     H31292  10.798   7.177  -2.205 -1.3733 -2.3630 -0.8453
  232MOL0     H31293  10.641   7.246  -2.225  0.6313  0.5894  1.8787
  232MOL0     H31294  10.902   7.310  -2.349  0.7657 -3.4329 -1.3961
  232MOL0     H31295  10.783   7.268  -2.478 -0.2096 -0.0953 -1.2539
  232MOL0     H31296  10.766   7.482  -2.280 -0.0073 -0.2384 -0.2411
  232MOL0     H31297  10.612   7.428  -2.367 -0.4248 -1.2712 -1.4248
  232MOL0     H31298  10.717   7.505  -2.578  0.2455 -1.5039  0.8844
  232MOL0     H31299  10.704   7.637  -2.453  3.4242  1.7393  3.1266
  232MOL0     H31300  10.165   6.899  -2.162 -1.2567 -0.3531  1.1601
  232MOL0     H31301  10.102   6.908  -1.919  0.1148  0.6336  3.1463
  232MOL0     H31302  10.372   7.113  -1.390  0.3271 -2.2106  2.0362
  232MOL0     H31303  10.279   7.174  -1.189  3.2054 -0.0018 -3.2096
  232MOL0     H31304   8.495   7.398  -0.378 -1.1952 -1.1127 -0.3549
  232MOL0     H31305   8.501   7.301  -0.167 -3.3037 -1.0696 -3.7759
  232MOL0     H31306   8.882   7.125   0.111  1.4104 -1.7854  0.1974
  232MOL0     H31307   8.974   7.052   0.316  0.0690 -0.8142 -0.5638
  232MOL0     H31308   8.922   6.859   0.535  1.4429 -0.1567 -0.3254
  232MOL0     H31309   8.793   6.890   0.651  2.7439  0.3891  4.8006
  232MOL0     H31310   8.972   7.050   0.765  2.4538 -0.0597  2.1741
  232MOL0     H31311   9.088   6.981   0.672 -0.6090  1.9961 -0.4157
  232MOL0     H31312   8.980   6.759   0.784  0.8643 -0.3156  1.3670
  232MOL0     H31313   8.895   6.866   0.883 -0.0524 -0.1198 -0.5439
  232MOL0     H31314   9.101   6.778   0.996  1.0007 -0.4042 -1.0599
  232MOL0     H31315   9.188   6.839   0.850 -0.5401 -0.0357 -0.4776
  232MOL0     H31316   9.104   7.205   1.061 -2.7049  0.6169 -1.9025
  232MOL0     H31317   8.587   7.056   0.492 -2.1286  2.3241 -0.6274
  232MOL0     H31318   8.386   7.092   0.383 -2.2607 -2.9430 -1.3223
  232MOL0     H31319   8.390   7.206   0.246  0.1030  2.9131  3.8550
  232MOL0     H31320   8.388   7.039   0.216  4.1997  0.8904 -3.2037
  233MOL0     O31321   4.560   3.090  11.227 -0.2046 -0.1804  0.7034
  233MOL0     C31322   4.530   3.180  11.153  0.8585  0.0570  0.8468
  233MOL0     O31323   4.537   3.167  11.012 -0.3229 -0.0347 -0.2251
  233MOL0     C31324   4.584   3.051  10.950 -0.0397  0.7120  0.1074
  233MOL0     C31325   4.476   2.965  10.935  0.4724 -0.3380 -0.2821
  233MOL0     C31326   4.494   2.844  10.871  0.0647  0.6105 -0.2820
  233MOL0     C31327   4.616   2.805  10.820 -0.4918 -0.4954 -0.2981
  233MOL0     O31328   4.604   2.687  10.753 -0.2335 -0.3718 -0.3295
  233MOL0     C31329   4.725   2.622  10.718 -0.4645  1.0740  0.4240
  233MOL0     C31330   4.746   2.679  10.573 -0.3289  0.1560  0.3820
  233MOL0     C31331   4.894   2.638  10.547  0.4988  0.0658  0.0792
  233MOL0     C31332   4.935   2.710  10.424 -0.4840 -1.1471  0.6636
  233MOL0     C31333   5.078   2.681  10.389  0.2542  0.1567  0.9469
  233MOL0     C31334   5.133   2.754  10.265  0.2009 -1.0186  0.5263
  233MOL0     C31335   5.242   2.682  10.197 -0.8778  1.0081 -0.2423
  233MOL0     C31336   5.369   2.641  10.274 -0.6911 -0.3854 -1.2968
  233MOL0     N31337   5.460   2.576  10.179 -0.1732  0.0800  0.8368
  233MOL0     C31338   5.503   2.445  10.193 -0.5384 -0.1973  0.4871
  233MOL0     C31339   5.575   2.423  10.082 -0.9100 -0.1326 -0.1157
  233MOL0     C31340   5.659   2.307  10.031  0.1871  0.4154 -0.1058
  233MOL0     C31341   5.625   2.180  10.109  1.0966  0.0243 -0.4218
  233MOL0     C31342   5.486   2.118  10.084 -0.5904 -0.8457  0.5562
  233MOL0     C31343   5.455   2.080   9.945 -0.7868 -0.1675 -0.5881
  233MOL0     O31344   5.545   1.980   9.888  0.1567  0.7048 -0.0949
  233MOL0     C31345   5.499   1.926   9.772 -0.3368  0.2590 -0.7879
  233MOL0     C31346   5.395   1.981   9.696  0.0822  0.4349  0.0306
  233MOL0     C31347   5.368   1.932   9.571  0.2806 -0.1790  0.0920
  233MOL0     C31348   5.442   1.822   9.523 -0.3898  0.0807  0.1525
  233MOL0     C31349   5.413   1.756   9.389 -0.2771  1.0122  0.0663
  233MOL0     O31350   5.312   1.816   9.313  0.7855  0.0034 -0.1423
  233MOL0     C31351   5.254   1.742   9.206  0.1258 -0.2184 -1.0912
  233MOL0     C31352   5.151   1.663   9.230  0.4791  0.0371  0.7965
  233MOL0     C31353   5.087   1.603   9.117  0.3348  0.5352  0.6107
  233MOL0     C31354   5.126   1.624   8.981 -0.6777 -0.4188 -0.3996
  233MOL0     O31355   5.054   1.563   8.886 -0.1149  0.3098  0.5670
  233MOL0     C31356   5.084   1.593   8.753 -0.2616 -0.8531 -1.1631
  233MOL0     C31357   4.997   1.522   8.663 -0.5427 -0.1560 -0.3017
  233MOL0     C31358   4.844   1.554   8.683 -0.2596  1.1712  0.1757
  233MOL0     C31359   4.768   1.426   8.652 -0.3206 -0.6180  0.3765
  233MOL0     C31360   4.779   1.381   8.507 -0.0194 -0.1032  0.0403
  233MOL0     C31361   4.672   1.270   8.489  0.4255 -0.0627  0.0588
  233MOL0     C31362   4.668   1.197   8.348 -0.4514 -0.2525 -0.0851
  233MOL0     C31363   4.616   1.049   8.355 -0.2113  0.7072  0.6692
  233MOL0    Cl31364   4.636   0.973   8.204  0.2473 -0.4944 -0.2236
  233MOL0     C31365   5.244   1.705   8.962  0.2946 -0.2653 -0.2744
  233MOL0     C31366   5.300   1.766   9.075  0.2404  0.1720 -0.6488
  233MOL0     O31367   5.472   1.651   9.358 -0.0067  0.4990 -0.4451
  233MOL0     C31368   5.553   1.774   9.594  0.7639 -0.4023  0.3944
  233MOL0     C31369   5.576   1.824   9.722  0.6585 -0.1517 -0.3226
  233MOL0     N31370   5.581   2.537  10.008  0.2092 -0.1577 -0.3143
  233MOL0     N31371   5.526   2.629  10.068 -0.4747  0.2344  0.2154
  233MOL0     C31372   4.727   2.898  10.844 -0.0420  0.5987  0.9056
  233MOL0     C31373   4.710   3.022  10.901  1.0842 -0.1493 -0.5405
  233MOL0     C31374   4.491   3.310  11.202  0.0607 -0.5049 -1.7333
  233MOL0     C31375   4.467   3.414  11.108 -1.2557  0.8858 -0.2299
  233MOL0     C31376   4.443   3.540  11.156  0.7641 -1.2681  0.0910
  233MOL0     C31377   4.437   3.581  11.286  0.7518  0.1867 -0.9852
  233MOL0     O31378   4.420   3.709  11.332 -0.0334  0.0326  0.2376
  233MOL0     C31379   4.394   3.805  11.228  0.0505  0.2685  0.0287
  233MOL0     C31380   4.395   3.950  11.283  0.0841  0.2472 -0.5910
  233MOL0     C31381   4.503   3.983  11.392  0.5979 -0.0695  0.5463
  233MOL0     C31382   4.453   3.929  11.530 -0.4776  0.3232 -0.4616
  233MOL0     C31383   4.515   3.996  11.645  0.4338 -0.4952  0.5318
  233MOL0     C31384   4.571   4.047  11.739  0.1856 -0.3917 -0.7248
  233MOL0     C31385   4.450   3.487  11.380 -0.4150  0.4229  0.6117
  233MOL0     C31386   4.473   3.353  11.345 -0.4287  0.5132  0.4369
  233MOL0     C31387   4.486   3.257  11.462 -0.1246 -0.5993 -0.2710
  233MOL0     H31388   4.382   2.989  10.984  2.2111  1.1631  2.6608
  233MOL0     H31389   4.411   2.775  10.873  0.4678  0.1129  1.9957
  233MOL0     H31390   4.806   2.643  10.789 -1.4715 -0.0764  1.9897
  233MOL0     H31391   4.710   2.515  10.706 -0.4487  1.1963 -0.8196
  233MOL0     H31392   4.741   2.787  10.586  1.4843  0.2889  0.2452
  233MOL0     H31393   4.678   2.648  10.494  0.5422 -0.7725 -0.0376
  233MOL0     H31394   4.898   2.531  10.527  2.0979 -0.0600  0.9083
  233MOL0     H31395   4.956   2.653  10.637  0.5211 -2.5657  0.5781
  233MOL0     H31396   4.867   2.682  10.343 -0.3444  0.1310  0.0815
  233MOL0     H31397   4.926   2.819  10.432  0.1778 -0.8970 -1.4044
  233MOL0     H31398   5.144   2.708  10.472 -1.9487  1.1429  2.5101
  233MOL0     H31399   5.081   2.574  10.364  1.2222  0.8880 -2.6243
  233MOL0     H31400   5.052   2.767  10.192 -0.1424  1.4863  1.2635
  233MOL0     H31401   5.159   2.852  10.305 -1.5717 -1.0700  1.8914
  233MOL0     H31402   5.278   2.751  10.119 -1.8320  1.8519  0.0560
  233MOL0     H31403   5.218   2.584  10.153  2.5027 -0.2262  0.3035
  233MOL0     H31404   5.416   2.726  10.324  0.7115 -3.8546  4.2357
  233MOL0     H31405   5.342   2.580  10.361  0.5262  0.4142 -0.3160
  233MOL0     H31406   5.466   2.372  10.264 -3.4687  0.0179 -0.6430
  233MOL0     H31407   5.643   2.287   9.925 -1.2599 -1.4716  0.4234
  233MOL0     H31408   5.766   2.326  10.042  0.0997  0.0962  1.5729
  233MOL0     H31409   5.700   2.108  10.077  0.9266 -0.3109 -0.0704
  233MOL0     H31410   5.634   2.198  10.216  1.0334  1.5513 -0.6444
  233MOL0     H31411   5.409   2.180  10.131 -0.8595 -1.0002  0.3215
  233MOL0     H31412   5.487   2.025  10.142  2.4932 -1.4785 -0.3343
  233MOL0     H31413   5.444   2.169   9.882 -0.5286  0.6898  0.5507
  233MOL0     H31414   5.356   2.033   9.943 -0.1346 -1.6499  0.2433
  233MOL0     H31415   5.349   2.078   9.713  1.4601  1.0008  0.6986
  233MOL0     H31416   5.294   1.972   9.503 -0.6698  2.0911  2.3095
  233MOL0     H31417   5.104   1.667   9.327  2.0465  3.2418  1.5559
  233MOL0     H31418   5.001   1.540   9.136 -0.2276  0.6097 -1.3696
  233MOL0     H31419   5.093   1.701   8.737  0.6101 -1.1058 -2.6522
  233MOL0     H31420   5.183   1.552   8.732  2.7725  4.7505  0.2156
  233MOL0     H31421   5.022   1.557   8.562  1.6353  1.2319  0.6301
  233MOL0     H31422   5.011   1.415   8.675 -1.6112 -0.5636 -2.3228
  233MOL0     H31423   4.817   1.570   8.787 -0.5604  0.1968  0.2600
  233MOL0     H31424   4.811   1.645   8.632  0.6472  0.2844 -2.1265
  233MOL0     H31425   4.666   1.457   8.677 -0.7874 -1.7012 -0.1404
  233MOL0     H31426   4.807   1.335   8.698 -1.2346 -2.4055 -2.1534
  233MOL0     H31427   4.879   1.340   8.496 -0.4293 -1.3907  0.9246
  233MOL0     H31428   4.753   1.454   8.429  4.6483 -1.4738 -3.2040
  233MOL0     H31429   4.686   1.192   8.566  1.5591  1.8329  1.8862
  233MOL0     H31430   4.573   1.309   8.515 -0.6446 -0.6389 -2.7664
  233MOL0     H31431   4.766   1.198   8.299  0.6958  0.2755  2.1086
  233MOL0     H31432   4.600   1.259   8.289  1.6298  2.0853 -0.2132
  233MOL0     H31433   4.676   0.992   8.426  1.8365  0.1810 -1.3490
  233MOL0     H31434   4.512   1.033   8.385 -0.6059  0.7983 -0.6050
  233MOL0     H31435   5.291   1.706   8.864 -3.3250 -0.1783 -2.1695
  233MOL0     H31436   5.383   1.835   9.062  1.6498 -0.9455  1.7090
  233MOL0     H31437   5.633   1.711   9.555  2.0349  0.8158  0.9385
  233MOL0     H31438   5.659   1.787   9.781 -0.2419 -0.6980  0.6234
  233MOL0     H31439   4.830   2.877  10.819 -0.2632 -1.2993  1.4908
  233MOL0     H31440   4.788   3.088  10.936 -0.2898  0.8852  0.7044
  233MOL0     H31441   4.486   3.412  11.002 -1.0071  0.0815 -0.1763
  233MOL0     H31442   4.424   3.611  11.076 -0.8977 -2.8254 -0.9913
  233MOL0     H31443   4.299   3.785  11.177  1.7104 -2.6734 -2.2182
  233MOL0     H31444   4.471   3.816  11.150 -1.3340 -1.3928 -1.6576
  233MOL0     H31445   4.290   3.952  11.317  0.2070 -2.4929  0.1860
  233MOL0     H31446   4.391   4.025  11.204 -0.3033  2.6296  1.5332
  233MOL0     H31447   4.524   4.090  11.401  0.4418  0.2590 -2.2375
  233MOL0     H31448   4.600   3.943  11.363 -1.2037 -2.8508 -2.2636
  233MOL0     H31449   4.346   3.913  11.547 -0.0445 -0.1323  2.2238
  233MOL0     H31450   4.487   3.825  11.532 -2.3606 -0.3760 -1.7807
  233MOL0     H31451   4.605   4.092  11.831 -0.7235 -0.8227 -0.1613
  233MOL0     H31452   4.432   3.515  11.483 -1.0498 -1.2416  0.9896
  233MOL0     H31453   4.575   3.281  11.521  0.2199 -0.8686 -0.6790
  233MOL0     H31454   4.399   3.275  11.527  0.7208  2.0488  0.2569
  233MOL0     H31455   4.484   3.152  11.435 -1.2127 -1.2276  1.9292
  234MOL0     O31456   1.732   8.010   2.872  0.0220  0.4188  0.3300
  234MOL0     C31457   1.748   8.004   2.751 -0.4043  0.5352 -0.1487
  234MOL0     O31458   1.767   8.109   2.669  0.6669 -0.3588  0.6794
  234MOL0     C31459   1.781   8.230   2.723  0.5501  0.2546 -0.0905
  234MOL0     C31460   1.903   8.283   2.721 -0.3080  0.0498  0.3688
  234MOL0     C31461   1.929   8.418   2.760  1.0330  0.6354 -0.3004
  234MOL0     C31462   1.828   8.496   2.804  0.7201 -0.0904  0.6826
  234MOL0     O31463   1.854   8.622   2.845 -0.1265 -0.5488  0.4143
  234MOL0     C31464   1.748   8.700   2.900 -0.3212 -0.7747 -0.0866
  234MOL0     C31465   1.802   8.800   2.994 -0.2939  0.2346  0.3516
  234MOL0     C31466   1.906   8.902   2.937 -0.5150  0.4985  0.1601
  234MOL0     C31467   1.851   9.048   2.919 -0.8142  0.2055  0.2210
  234MOL0     C31468   1.952   9.145   2.870  0.0174  0.2613 -0.2914
  234MOL0     C31469   1.973   9.125   2.714  0.5553 -0.1470  0.2927
  234MOL0     C31470   2.009   9.258   2.653  0.1203 -0.7811  0.1356
  234MOL0     C31471   2.149   9.309   2.698 -0.0546  0.1011  0.5593
  234MOL0     N31472   2.261   9.237   2.641  0.5038  0.2957  0.5992
  234MOL0     C31473   2.392   9.249   2.688  1.0634 -0.3232  0.8093
  234MOL0     C31474   2.465   9.208   2.583 -0.3302  0.7674 -0.8758
  234MOL0     C31475   2.618   9.211   2.585  0.7041 -0.5548  0.3275
  234MOL0     C31476   2.674   9.341   2.528 -0.2537  0.0254  0.4252
  234MOL0     C31477   2.826   9.320   2.508 -0.6715  0.2075 -0.6804
  234MOL0     C31478   2.901   9.434   2.438  0.8306 -0.4725 -0.1424
  234MOL0     O31479   2.913   9.562   2.510 -0.3079  0.0397  0.6511
  234MOL0     C31480   2.972   9.662   2.437  0.3900  0.5882  0.7906
  234MOL0     C31481   2.973   9.777   2.507  0.6985  0.6825  0.6133
  234MOL0     C31482   3.033   9.890   2.454 -0.4932 -0.2464  0.9364
  234MOL0     C31483   3.095   9.886   2.328  0.2844 -1.1085  0.3139
  234MOL0     C31484   3.153  10.008   2.280 -0.6103  0.1891 -0.5446
  234MOL0     O31485   3.251  10.012   2.179 -0.2485 -0.5049  0.5754
  234MOL0     C31486   3.312  10.131   2.149  0.4694 -0.8110 -0.4081
  234MOL0     C31487   3.430  10.164   2.218 -0.3379  0.2370  0.5302
  234MOL0     C31488   3.512  10.279   2.190  1.0586 -1.0183  0.0113
  234MOL0     C31489   3.467  10.357   2.080  0.5524 -0.3058 -0.4207
  234MOL0     O31490   3.551  10.461   2.062  0.9129  0.6301 -0.5341
  234MOL0     C31491   3.625  10.476   1.935 -0.4090  0.1326 -0.6829
  234MOL0     C31492   3.747  10.393   1.921 -0.8291 -0.8115  0.9179
  234MOL0     C31493   3.834  10.436   1.799  0.6250  0.0157 -0.3155
  234MOL0     C31494   3.974  10.379   1.799  0.1933 -0.1358 -0.5730
  234MOL0     C31495   4.072  10.484   1.742 -0.3136  0.8510  0.1018
  234MOL0     C31496   4.213  10.426   1.734  0.4975  0.8397 -0.8517
  234MOL0     C31497   4.329  10.522   1.682 -0.3556  0.0583 -0.3097
  234MOL0     C31498   4.460  10.470   1.711 -0.7519  0.3059  0.2993
  234MOL0    Cl31499   4.516  10.338   1.611  0.1935 -0.3312  0.7735
  234MOL0     C31500   3.349  10.325   2.012 -0.6679 -0.4484  1.1129
  234MOL0     C31501   3.273  10.210   2.039  0.1724  1.2176 -0.0222
  234MOL0     O31502   3.111  10.103   2.341 -0.0091 -0.0709  0.5661
  234MOL0     C31503   3.097   9.768   2.254  0.2912 -0.0850  0.0559
  234MOL0     C31504   3.042   9.653   2.314  0.3882 -0.8613  0.7643
  234MOL0     N31505   2.385   9.169   2.484  0.9809  0.1464 -0.0832
  234MOL0     N31506   2.260   9.174   2.523 -0.0422 -0.3894 -0.1674
  234MOL0     C31507   1.698   8.444   2.782  0.6394 -0.3379 -0.0222
  234MOL0     C31508   1.679   8.309   2.760 -0.3779 -0.2159  0.7520
  234MOL0     C31509   1.742   7.877   2.678  0.6990 -0.2624 -0.0794
  234MOL0     C31510   1.833   7.857   2.571 -0.2990 -0.1156  0.1717
  234MOL0     C31511   1.836   7.743   2.496  0.4305 -0.0030  0.3177
  234MOL0     C31512   1.750   7.633   2.538 -0.1849  0.0035  1.1916
  234MOL0     O31513   1.774   7.514   2.477 -1.0056  0.2686  0.2245
  234MOL0     C31514   1.704   7.392   2.519  0.8846  0.4382 -0.6243
  234MOL0     C31515   1.776   7.268   2.456  1.1582 -0.1320 -0.9810
  234MOL0     C31516   1.754   7.272   2.310 -0.1065  0.4959 -0.4608
  234MOL0     C31517   1.837   7.171   2.230 -0.7369 -1.2279 -0.6844
  234MOL0     C31518   1.810   7.182   2.078 -0.3819  0.2743 -0.0177
  234MOL0     C31519   1.792   7.188   1.962 -0.3030 -0.7539 -0.2138
  234MOL0     C31520   1.657   7.656   2.638 -0.1141 -1.1256  0.5509
  234MOL0     C31521   1.654   7.772   2.711 -0.1344 -0.5229  1.1812
  234MOL0     C31522   1.572   7.783   2.841 -0.7988  0.3299  0.0615
  234MOL0     H31523   1.984   8.225   2.677  0.1954  1.6287 -0.8714
  234MOL0     H31524   2.028   8.461   2.752  1.8436 -1.2323 -0.7175
  234MOL0     H31525   1.703   8.758   2.819 -0.2020  2.0612  1.7713
  234MOL0     H31526   1.674   8.647   2.961 -3.2941  4.1913  1.1806
  234MOL0     H31527   1.850   8.754   3.080  0.6074  1.1381  0.3433
  234MOL0     H31528   1.719   8.852   3.043 -1.4557 -1.6824  0.5251
  234MOL0     H31529   1.947   8.859   2.845  0.0693 -1.3893  1.2358
  234MOL0     H31530   1.994   8.892   3.002  0.1780 -0.3365 -0.8597
  234MOL0     H31531   1.755   9.043   2.866 -2.0814  3.4240  1.9445
  234MOL0     H31532   1.823   9.088   3.017 -0.9291  1.4038 -0.2891
  234MOL0     H31533   1.918   9.245   2.898 -0.5243 -0.2343  0.9301
  234MOL0     H31534   2.041   9.133   2.933 -1.9027 -0.0572  2.5676
  234MOL0     H31535   2.046   9.046   2.696  3.6350  1.9716  2.3744
  234MOL0     H31536   1.877   9.104   2.667 -0.6602 -1.5817  3.1907
  234MOL0     H31537   1.933   9.337   2.662  1.4601  0.9521 -2.4987
  234MOL0     H31538   2.021   9.240   2.546  0.6589 -2.7058  0.4874
  234MOL0     H31539   2.158   9.411   2.659 -3.0912 -0.7532 -2.9626
  234MOL0     H31540   2.154   9.295   2.806 -0.3771  1.3412  0.7496
  234MOL0     H31541   2.424   9.293   2.782 -1.1774  1.7038  0.7006
  234MOL0     H31542   2.644   9.194   2.690  2.3963  0.9228  0.1931
  234MOL0     H31543   2.661   9.122   2.538 -1.7282 -2.8501  2.1506
  234MOL0     H31544   2.631   9.377   2.434  0.0983  2.2737  1.0727
  234MOL0     H31545   2.666   9.431   2.589  0.2803  0.7524 -0.5440
  234MOL0     H31546   2.836   9.219   2.467 -0.9845 -1.2162  2.4322
  234MOL0     H31547   2.871   9.296   2.605  0.3926 -2.2663 -1.7073
  234MOL0     H31548   2.848   9.461   2.347  1.4505 -2.2975 -1.0952
  234MOL0     H31549   2.998   9.387   2.417 -0.9707 -3.5432 -2.2341
  234MOL0     H31550   2.925   9.767   2.604  0.4277  1.7207  0.5973
  234MOL0     H31551   3.041   9.983   2.509  0.1310  1.5394 -1.9283
  234MOL0     H31552   3.457  10.102   2.303 -1.2270 -1.8880 -0.6722
  234MOL0     H31553   3.592  10.313   2.256  2.5156 -3.0781 -0.5998
  234MOL0     H31554   3.571  10.430   1.852  3.6385 -1.1615 -2.8657
  234MOL0     H31555   3.652  10.582   1.928 -1.5083  0.7952  2.9727
  234MOL0     H31556   3.805  10.423   2.008 -0.3577  3.7612 -0.6610
  234MOL0     H31557   3.719  10.288   1.920 -1.9387 -0.5428 -0.4337
  234MOL0     H31558   3.776  10.418   1.708 -1.2519  1.2359  0.5633
  234MOL0     H31559   3.850  10.544   1.802 -1.7466  0.4054  2.2143
  234MOL0     H31560   3.973  10.284   1.745 -0.3257 -1.6816  1.9965
  234MOL0     H31561   4.005  10.351   1.900  1.0060  1.6898 -0.2739
  234MOL0     H31562   4.071  10.572   1.807 -0.5724 -0.7587  2.3888
  234MOL0     H31563   4.046  10.515   1.640 -1.3401 -0.2076  0.0160
  234MOL0     H31564   4.237  10.385   1.832 -0.0423  3.5075  0.4972
  234MOL0     H31565   4.204  10.342   1.665  1.2780 -1.8177  2.0671
  234MOL0     H31566   4.313  10.620   1.728 -2.0010 -0.8419  1.1682
  234MOL0     H31567   4.329  10.539   1.574  0.8096  0.8235 -0.2067
  234MOL0     H31568   4.533  10.550   1.694  1.6546 -1.0781  3.2978
  234MOL0     H31569   4.469  10.441   1.816 -0.6650 -2.8182 -0.4735
  234MOL0     H31570   3.312  10.383   1.929 -1.2276 -2.3859 -0.0562
  234MOL0     H31571   3.187  10.184   1.978 -0.7266  2.4810  0.6573
  234MOL0     H31572   3.158   9.760   2.165  0.2703 -2.3143  0.1905
  234MOL0     H31573   3.050   9.563   2.253 -2.2034  0.3628 -1.6365
  234MOL0     H31574   1.608   8.500   2.805 -0.7396 -3.1216  1.9480
  234MOL0     H31575   1.584   8.261   2.734 -0.5186  0.8934 -0.9883
  234MOL0     H31576   1.897   7.942   2.550 -0.8122  0.3561  0.5042
  234MOL0     H31577   1.913   7.732   2.421  1.7305  2.1698  1.2256
  234MOL0     H31578   1.596   7.402   2.507  0.9147  3.4380  0.8376
  234MOL0     H31579   1.722   7.392   2.626 -0.3658  2.2271 -0.3779
  234MOL0     H31580   1.730   7.173   2.485 -1.5642  0.4460 -3.0509
  234MOL0     H31581   1.883   7.267   2.479  1.1010 -1.8061 -0.6867
  234MOL0     H31582   1.763   7.369   2.259  2.1717  0.1126 -0.9017
  234MOL0     H31583   1.650   7.246   2.291 -0.1655 -0.9572  1.5994
  234MOL0     H31584   1.932   7.225   2.238 -0.8839 -1.1550  0.7652
  234MOL0     H31585   1.863   7.073   2.269 -0.2854 -0.6166  0.6076
  234MOL0     H31586   1.773   7.195   1.856  1.0967  0.0810 -0.4310
  234MOL0     H31587   1.582   7.584   2.668 -3.7073  0.8139 -2.6903
  234MOL0     H31588   1.521   7.878   2.828  2.4745  1.8952 -2.6061
  234MOL0     H31589   1.507   7.698   2.866  1.1271 -0.7992  1.6136
  234MOL0     H31590   1.647   7.772   2.921 -0.2783  1.2809 -0.2866
  235MOL0     O31591   7.099   9.136   9.794 -0.6882  0.0944 -0.5258
  235MOL0     C31592   6.995   9.087   9.754  0.2752  0.1748 -0.2247
  235MOL0     O31593   6.984   8.971   9.673  0.2049  0.1224  0.7509
  235MOL0     C31594   7.082   8.911   9.601 -0.8081  0.7180  0.2740
  235MOL0     C31595   7.037   8.811   9.502 -0.6624  0.0511 -0.5549
  235MOL0     C31596   7.135   8.732   9.426 -0.3593  0.4209  0.8723
  235MOL0     C31597   7.270   8.761   9.456 -0.5341  0.4489 -0.3025
  235MOL0     O31598   7.353   8.679   9.384 -0.5913 -0.3547  0.1036
  235MOL0     C31599   7.488   8.696   9.424 -0.0874 -0.5221  0.6527
  235MOL0     C31600   7.579   8.601   9.346  0.1574 -0.4425  0.0059
  235MOL0     C31601   7.588   8.624   9.194  1.2459  0.1393  0.9916
  235MOL0     C31602   7.641   8.500   9.116 -0.6134  0.2643 -0.2106
  235MOL0     C31603   7.669   8.533   8.976 -0.0836 -0.0151  0.0591
  235MOL0     C31604   7.544   8.551   8.886  0.5945  0.1886 -0.3775
  235MOL0     C31605   7.582   8.596   8.746  0.3054 -1.1547 -0.5835
  235MOL0     C31606   7.661   8.489   8.659 -0.3230  0.4788 -1.1103
  235MOL0     N31607   7.570   8.377   8.629 -0.2490 -0.5392 -0.1462
  235MOL0     C31608   7.531   8.276   8.710 -0.7784 -1.0116  0.0585
  235MOL0     C31609   7.450   8.205   8.622 -0.5714  0.2391 -0.7058
  235MOL0     C31610   7.393   8.070   8.654 -0.4608  0.3376  0.8200
  235MOL0     C31611   7.277   8.073   8.755 -0.6938 -0.0717 -0.0013
  235MOL0     C31612   7.207   7.944   8.771 -0.1745  0.9350  0.6847
  235MOL0     C31613   7.067   7.961   8.850 -0.2836 -0.3688  0.9798
  235MOL0     O31614   6.988   8.085   8.821  0.8547  0.1972  0.4651
  235MOL0     C31615   6.864   8.092   8.887 -0.7714  0.7778 -0.8458
  235MOL0     C31616   6.842   8.192   8.979 -0.6094  0.3538 -0.4842
  235MOL0     C31617   6.719   8.221   9.034 -0.7404 -0.4672 -0.3992
  235MOL0     C31618   6.607   8.146   8.995 -0.5025  0.0051 -1.1604
  235MOL0     C31619   6.486   8.181   9.068 -0.2597 -0.0262  0.1994
  235MOL0     O31620   6.494   8.273   9.168  0.4270 -0.6895  0.5347
  235MOL0     C31621   6.391   8.287   9.254  0.5040  0.6039 -1.0351
  235MOL0     C31622   6.357   8.185   9.351  0.0573 -0.5563  0.3561
  235MOL0     C31623   6.244   8.210   9.423  0.0877 -0.4106 -0.6745
  235MOL0     C31624   6.182   8.337   9.420 -0.9601 -0.2038 -0.4884
  235MOL0     O31625   6.087   8.370   9.520 -0.0672  0.1688 -0.5341
  235MOL0     C31626   6.137   8.356   9.649  0.4593  0.4109 -0.1008
  235MOL0     C31627   6.046   8.413   9.758  0.9767  0.3357 -0.6355
  235MOL0     C31628   6.079   8.352   9.893  0.3601 -0.7971  0.6983
  235MOL0     C31629   5.996   8.416  10.000  0.1279  0.1242 -0.2613
  235MOL0     C31630   6.031   8.349  10.138 -0.3045  0.6902 -0.1307
  235MOL0     C31631   5.982   8.204  10.134  0.9710  0.2497 -0.0093
  235MOL0     C31632   6.027   8.125  10.262 -0.3832 -0.5039  0.1384
  235MOL0     C31633   5.967   7.986  10.256 -0.1990 -0.7872 -0.3660
  235MOL0    Cl31634   6.021   7.880  10.122 -0.4261  0.0641 -0.2039
  235MOL0     C31635   6.220   8.432   9.329  0.1683  0.1090  0.3273
  235MOL0     C31636   6.325   8.405   9.248  0.3037  0.9553  0.2624
  235MOL0     O31637   6.383   8.114   9.036 -0.1699 -0.5011 -0.6649
  235MOL0     C31638   6.630   8.041   8.908  1.3479  0.5792 -0.4184
  235MOL0     C31639   6.754   8.011   8.856  0.4529  0.0379 -0.1164
  235MOL0     N31640   7.458   8.260   8.492  0.4236  0.4339 -0.3616
  235MOL0     N31641   7.534   8.362   8.499  0.1153 -0.3336  0.2545
  235MOL0     C31642   7.306   8.860   9.545  0.8447  0.2587  0.4344
  235MOL0     C31643   7.215   8.933   9.619 -0.6217  0.0535  0.3843
  235MOL0     C31644   6.864   9.123   9.816 -0.1057  0.9764  0.6695
  235MOL0     C31645   6.763   9.127   9.718 -0.4707 -1.2843 -1.1476
  235MOL0     C31646   6.639   9.152   9.757 -0.0952 -0.2216  0.5634
  235MOL0     C31647   6.605   9.173   9.887  0.1488  0.3078 -0.1142
  235MOL0     O31648   6.470   9.168   9.929  0.3839 -0.2549  0.7717
  235MOL0     C31649   6.367   9.243   9.856 -0.0741  0.9606 -0.3357
  235MOL0     C31650   6.261   9.285   9.953  0.5686 -0.0931  0.0120
  235MOL0     C31651   6.299   9.379  10.064  0.0463 -0.0733  0.9519
  235MOL0     C31652   6.206   9.376  10.191 -0.0376 -0.4729 -0.3452
  235MOL0     C31653   6.071   9.421  10.173 -0.2395  0.7754 -0.0824
  235MOL0     C31654   5.957   9.471  10.155  0.3137  0.2036 -0.3601
  235MOL0     C31655   6.708   9.167   9.977 -0.7235  0.0901  0.0978
  235MOL0     C31656   6.838   9.137   9.950  0.2010 -0.0827  0.9130
  235MOL0     C31657   6.937   9.128  10.059 -0.0953 -0.7686 -0.8769
  235MOL0     H31658   6.932   8.786   9.496 -0.6330  0.0184 -0.9414
  235MOL0     H31659   7.116   8.656   9.352  2.6833 -0.6615  1.0894
  235MOL0     H31660   7.514   8.798   9.393  1.8193 -0.9535  0.7237
  235MOL0     H31661   7.499   8.677   9.531 -0.8892  0.6322  0.9588
  235MOL0     H31662   7.545   8.498   9.358  0.6433 -0.4750  1.2351
  235MOL0     H31663   7.678   8.614   9.391  0.2622  0.8431 -0.5404
  235MOL0     H31664   7.655   8.708   9.170  3.3544 -1.4362  1.0284
  235MOL0     H31665   7.488   8.653   9.161  1.0697 -0.7094  0.7655
  235MOL0     H31666   7.735   8.474   9.166 -0.4271 -0.5570 -0.9539
  235MOL0     H31667   7.575   8.413   9.115  1.5772 -1.4974 -1.8989
  235MOL0     H31668   7.738   8.616   8.958  1.2157 -1.3770 -1.5831
  235MOL0     H31669   7.718   8.443   8.939 -0.1396  0.3311 -0.8809
  235MOL0     H31670   7.479   8.464   8.877  2.0600 -0.9513 -0.4544
  235MOL0     H31671   7.494   8.632   8.939 -0.2272  1.1132 -2.4443
  235MOL0     H31672   7.651   8.680   8.753 -1.3463  0.1492  1.3988
  235MOL0     H31673   7.487   8.625   8.699  1.2077 -0.4986 -2.0575
  235MOL0     H31674   7.693   8.525   8.560  1.3441 -1.2007 -1.2387
  235MOL0     H31675   7.748   8.435   8.697 -1.0591 -1.8259 -2.4635
  235MOL0     H31676   7.568   8.254   8.810 -0.4660 -1.9563 -0.2602
  235MOL0     H31677   7.357   8.028   8.560 -0.3683  1.2053  0.3945
  235MOL0     H31678   7.482   8.016   8.688 -0.2499 -1.4348 -2.1974
  235MOL0     H31679   7.319   8.100   8.853  0.9213  0.7187 -0.8722
  235MOL0     H31680   7.205   8.142   8.711 -1.3560 -1.4627 -1.1864
  235MOL0     H31681   7.270   7.868   8.819  0.4633  1.3508  0.5211
  235MOL0     H31682   7.193   7.905   8.670  1.4157  1.7584  0.0931
  235MOL0     H31683   7.085   7.973   8.958 -2.5493  1.3226  1.2371
  235MOL0     H31684   6.998   7.877   8.846 -3.0986  1.8282 -0.4644
  235MOL0     H31685   6.930   8.245   9.013  0.1338  1.4077 -3.6803
  235MOL0     H31686   6.712   8.310   9.095 -2.0831 -1.1124  0.4217
  235MOL0     H31687   6.416   8.094   9.358  0.1573 -0.3252  4.4581
  235MOL0     H31688   6.211   8.127   9.486 -1.8632 -1.1349 -2.5369
  235MOL0     H31689   6.127   8.250   9.672 -1.7228  1.0224  2.0980
  235MOL0     H31690   6.238   8.396   9.663 -0.1694  0.7962  4.8050
  235MOL0     H31691   6.033   8.521   9.768 -0.4267  0.1580 -0.2581
  235MOL0     H31692   5.942   8.382   9.742  0.9032 -1.1671  2.1610
  235MOL0     H31693   6.055   8.246   9.879 -1.1909 -0.4115  0.1524
  235MOL0     H31694   6.184   8.364   9.919  0.3507  0.9368  0.0661
  235MOL0     H31695   5.890   8.397   9.981  0.0547 -3.0879  2.3872
  235MOL0     H31696   6.008   8.523  10.017  0.0088 -0.3245  3.5408
  235MOL0     H31697   5.993   8.404  10.225 -0.3712  0.0299  0.2590
  235MOL0     H31698   6.139   8.337  10.152 -0.4999 -1.3625 -0.1654
  235MOL0     H31699   5.874   8.201  10.119  1.0347 -2.6053 -0.3595
  235MOL0     H31700   6.016   8.151  10.045  2.9982  1.3810  0.0432
  235MOL0     H31701   6.001   8.179  10.353  1.4810  0.1327  0.3308
  235MOL0     H31702   6.135   8.111  10.259 -0.2593  0.4724 -0.5419
  235MOL0     H31703   5.995   7.931  10.346  1.2447  1.3339  0.5572
  235MOL0     H31704   5.857   7.988  10.250 -0.3142  1.5118  1.1770
  235MOL0     H31705   6.163   8.525   9.334 -1.0129 -0.6455  1.8089
  235MOL0     H31706   6.357   8.468   9.166  1.4395 -2.0957 -1.8004
  235MOL0     H31707   6.550   7.968   8.893  1.8851  0.2557 -1.8746
  235MOL0     H31708   6.779   7.936   8.782 -0.5451  0.1608 -0.6086
  235MOL0     H31709   7.411   8.885   9.559  0.1505  3.5967  0.5468
  235MOL0     H31710   7.256   9.012   9.682 -0.6829 -1.8110  2.9186
  235MOL0     H31711   6.782   9.117   9.612 -0.9721 -0.7981 -1.2896
  235MOL0     H31712   6.570   9.141   9.674 -0.5661 -2.2698  1.1596
  235MOL0     H31713   6.321   9.168   9.790  0.5672  0.5671 -0.3397
  235MOL0     H31714   6.405   9.326   9.795  1.5235  1.2468  1.0006
  235MOL0     H31715   6.211   9.198   9.995  1.6559 -0.0432  1.4798
  235MOL0     H31716   6.185   9.327   9.886  0.5235 -0.9032 -0.4565
  235MOL0     H31717   6.296   9.482  10.027 -1.4000 -0.2518  0.5272
  235MOL0     H31718   6.401   9.363  10.100  0.1894 -1.4301  0.0478
  235MOL0     H31719   6.200   9.275  10.233 -1.9685 -0.7497 -1.2137
  235MOL0     H31720   6.256   9.429  10.273 -2.3418 -1.0739  1.5719
  235MOL0     H31721   5.858   9.501  10.131  0.5434  1.2517 -0.0310
  235MOL0     H31722   6.679   9.192  10.078  0.5511  0.1819  0.4642
  235MOL0     H31723   6.967   9.231  10.082 -2.7795  0.1605 -1.2547
  235MOL0     H31724   6.894   9.078  10.146 -0.2686  2.4018  1.0398
  235MOL0     H31725   7.029   9.080  10.024  0.7642 -0.1994  0.5018
  236MOL0     O31726   7.988   2.187   4.231 -0.6025  0.0441  0.7139
  236MOL0     C31727   8.044   2.081   4.200  0.4692  0.3684  0.7307
  236MOL0     O31728   8.166   2.036   4.256 -0.3213 -0.4693  0.6530
  236MOL0     C31729   8.238   2.120   4.339 -0.3067  0.3726 -0.0898
  236MOL0     C31730   8.369   2.165   4.305 -0.0657 -0.0228 -0.3665
  236MOL0     C31731   8.442   2.258   4.384 -0.6789  0.0612  0.1136
  236MOL0     C31732   8.394   2.293   4.511  0.2233 -0.0516  0.1824
  236MOL0     O31733   8.456   2.385   4.597  0.3190  0.4132 -0.7054
  236MOL0     C31734   8.385   2.442   4.712  0.0230 -0.3875 -1.1106
  236MOL0     C31735   8.466   2.540   4.797 -0.2166  0.8607 -0.1787
  236MOL0     C31736   8.589   2.460   4.841  1.4714  0.5056  0.8215
  236MOL0     C31737   8.660   2.528   4.956  0.1177  0.2703  0.5571
  236MOL0     C31738   8.779   2.433   4.989 -0.3793  0.5549  0.4572
  236MOL0     C31739   8.750   2.327   5.102 -0.5529 -0.4037  0.0989
  236MOL0     C31740   8.861   2.212   5.111 -0.0586  0.2035  0.2944
  236MOL0     C31741   8.869   2.102   4.997  0.3240  0.1496 -0.5637
  236MOL0     N31742   8.785   1.996   5.038  0.3427  0.1605 -0.6225
  236MOL0     C31743   8.698   1.935   4.962 -0.8949  0.1941 -0.3358
  236MOL0     C31744   8.648   1.830   5.041 -0.6365  0.7580 -0.6817
  236MOL0     C31745   8.537   1.729   5.010 -0.5375 -0.3162  0.4378
  236MOL0     C31746   8.423   1.706   5.099  0.4149 -0.3197 -0.6981
  236MOL0     C31747   8.446   1.634   5.229  0.0913 -0.3511 -0.5410
  236MOL0     C31748   8.317   1.593   5.313  1.0153  0.6989  0.8875
  236MOL0     O31749   8.222   1.519   5.228 -0.3244 -0.6443  0.0621
  236MOL0     C31750   8.167   1.412   5.289 -0.3058  0.3191  0.0629
  236MOL0     C31751   8.256   1.311   5.340 -0.1480  0.0219 -0.1030
  236MOL0     C31752   8.211   1.199   5.400  0.4885  0.8403  0.0720
  236MOL0     C31753   8.072   1.192   5.433 -0.2347 -0.1503  0.3600
  236MOL0     C31754   8.015   1.071   5.498  0.0252 -0.7466 -0.0967
  236MOL0     O31755   7.889   1.073   5.558 -0.3046  0.0681 -0.3357
  236MOL0     C31756   7.878   1.016   5.679  1.4576  0.3675 -0.8247
  236MOL0     C31757   7.740   0.992   5.721  0.1792  0.2780  0.7891
  236MOL0     C31758   7.711   0.938   5.844  0.5107  0.0226 -0.5220
  236MOL0     C31759   7.812   0.898   5.929 -0.6735  0.4206 -0.3375
  236MOL0     O31760   7.773   0.849   6.048 -0.4794 -0.1144 -0.1392
  236MOL0     C31761   7.871   0.753   6.103 -0.3681 -0.4506  0.2633
  236MOL0     C31762   7.822   0.670   6.219  0.5252  0.2757 -0.0904
  236MOL0     C31763   7.720   0.750   6.310  0.1177 -0.7753  0.4792
  236MOL0     C31764   7.672   0.665   6.431  0.1811 -0.0992 -0.0681
  236MOL0     C31765   7.587   0.745   6.527 -0.2257 -0.0900  0.4896
  236MOL0     C31766   7.547   0.668   6.650 -0.7531 -0.0360 -0.2284
  236MOL0     C31767   7.437   0.734   6.729  0.1905 -0.2054 -0.3788
  236MOL0     C31768   7.425   0.691   6.873 -0.5635  0.4977 -0.1747
  236MOL0    Cl31769   7.455   0.520   6.896 -0.4996 -0.2246  0.0288
  236MOL0     C31770   7.944   0.926   5.898 -0.2731  0.2499 -0.7451
  236MOL0     C31771   7.974   0.986   5.772  0.0002 -0.3666  0.4378
  236MOL0     O31772   8.084   0.966   5.493  0.0748  0.1606 -0.0819
  236MOL0     C31773   7.981   1.293   5.391  0.3048 -0.4841 -0.0280
  236MOL0     C31774   8.032   1.400   5.321 -0.6829 -0.6938  0.3499
  236MOL0     N31775   8.719   1.838   5.166  0.2114 -0.4602 -0.1999
  236MOL0     N31776   8.802   1.935   5.165 -0.6009 -0.9278  0.2723
  236MOL0     C31777   8.275   2.221   4.556 -0.0583 -0.0372  0.1368
  236MOL0     C31778   8.193   2.151   4.473  0.6668  0.2991 -0.0709
  236MOL0     C31779   7.957   1.994   4.112 -0.2873 -0.4600 -0.2852
  236MOL0     C31780   7.852   2.061   4.041  0.2764 -0.2221 -0.1715
  236MOL0     C31781   7.777   1.998   3.947 -0.3281  0.3783  0.1005
  236MOL0     C31782   7.793   1.858   3.934 -0.4442  0.6788 -0.4743
  236MOL0     O31783   7.721   1.776   3.850 -0.0681 -0.0809  0.2856
  236MOL0     C31784   7.625   1.843   3.765  0.1637  0.4124  0.4842
  236MOL0     C31785   7.578   1.742   3.650 -1.0807  0.0907 -0.0977
  236MOL0     C31786   7.489   1.816   3.537 -0.7574  0.0182  0.0029
  236MOL0     C31787   7.362   1.876   3.595  0.2698  0.4184 -1.0362
  236MOL0     C31788   7.374   2.016   3.654 -0.3233 -0.0138  1.1599
  236MOL0     C31789   7.389   2.125   3.712 -0.4204  0.3433  0.6870
  236MOL0     C31790   7.893   1.793   4.000 -0.5751  0.0642  0.3030
  236MOL0     C31791   7.980   1.856   4.090 -0.0568 -0.3476 -0.6292
  236MOL0     C31792   8.082   1.770   4.155 -0.6325 -0.0907 -0.2172
  236MOL0     H31793   8.416   2.147   4.210 -0.2167 -1.9743 -0.1056
  236MOL0     H31794   8.533   2.302   4.344  0.2003 -2.3868 -0.7687
  236MOL0     H31795   8.294   2.491   4.676 -0.3059 -0.9610 -1.0741
  236MOL0     H31796   8.344   2.363   4.777 -1.0440 -0.2377 -1.5760
  236MOL0     H31797   8.414   2.583   4.883  1.8823  1.7218  0.7140
  236MOL0     H31798   8.499   2.628   4.740 -0.6800  3.3561  3.1540
  236MOL0     H31799   8.653   2.435   4.756  0.1927  3.7600 -1.2589
  236MOL0     H31800   8.556   2.359   4.866  1.1458 -0.2782 -2.3444
  236MOL0     H31801   8.695   2.629   4.930  3.1272 -0.7730  0.0986
  236MOL0     H31802   8.583   2.531   5.033 -1.9231 -1.3364 -1.2769
  236MOL0     H31803   8.810   2.372   4.904  1.8122 -1.3003  2.4289
  236MOL0     H31804   8.871   2.488   5.012 -0.2078  0.8581 -0.8927
  236MOL0     H31805   8.765   2.376   5.199  0.2962 -1.5614  0.5835
  236MOL0     H31806   8.656   2.274   5.086  0.4974 -1.4853 -3.3098
  236MOL0     H31807   8.849   2.158   5.205  1.5235  1.8450  1.5178
  236MOL0     H31808   8.957   2.264   5.110 -0.4841  1.0259 -1.2004
  236MOL0     H31809   8.841   2.151   4.903 -1.0129  0.2026 -0.1461
  236MOL0     H31810   8.968   2.060   4.976 -0.9502 -1.5090 -4.0273
  236MOL0     H31811   8.679   1.962   4.858 -1.5212  3.8904  0.6331
  236MOL0     H31812   8.491   1.762   4.916 -0.7752 -0.9735  0.3209
  236MOL0     H31813   8.573   1.628   4.991  0.1445 -0.6839  3.2854
  236MOL0     H31814   8.363   1.795   5.121  0.6013 -0.4428  0.3816
  236MOL0     H31815   8.353   1.642   5.045 -1.8036 -0.0544  1.6508
  236MOL0     H31816   8.518   1.688   5.291 -1.4804  0.1176  0.9404
  236MOL0     H31817   8.488   1.538   5.197 -1.2255 -0.6108 -1.6004
  236MOL0     H31818   8.274   1.685   5.355 -0.3606 -0.7445  2.8118
  236MOL0     H31819   8.336   1.534   5.403  1.7295 -0.4014  0.0373
  236MOL0     H31820   8.352   1.325   5.292 -1.7352  0.3576 -3.5262
  236MOL0     H31821   8.277   1.116   5.425  1.3242  2.1282  2.4470
  236MOL0     H31822   7.658   1.029   5.660 -0.8393  0.7091  2.3764
  236MOL0     H31823   7.606   0.933   5.873  0.7376 -0.4563  0.2448
  236MOL0     H31824   7.911   0.682   6.029  1.4021  3.4836 -2.9520
  236MOL0     H31825   7.958   0.810   6.136 -0.7586  2.5622 -3.2545
  236MOL0     H31826   7.765   0.588   6.173 -2.4974  0.6273  2.6137
  236MOL0     H31827   7.906   0.623   6.271  2.9265  2.8917 -1.3337
  236MOL0     H31828   7.781   0.831   6.351  0.8475 -0.7929 -0.5460
  236MOL0     H31829   7.635   0.791   6.254 -0.0333 -1.3276  0.3010
  236MOL0     H31830   7.764   0.631   6.479  1.7489  0.3731 -2.5484
  236MOL0     H31831   7.619   0.577   6.393  0.6013 -0.6915  0.6856
  236MOL0     H31832   7.492   0.772   6.478 -0.5561  2.5358  2.3587
  236MOL0     H31833   7.642   0.835   6.556 -0.9350  0.0267  1.5154
  236MOL0     H31834   7.503   0.570   6.630 -0.9426 -0.4797  2.0658
  236MOL0     H31835   7.629   0.647   6.719 -0.1730  0.1982 -0.8439
  236MOL0     H31836   7.339   0.722   6.681  0.1855  1.1606 -0.7434
  236MOL0     H31837   7.457   0.841   6.742 -0.4450 -0.1925  0.6072
  236MOL0     H31838   7.502   0.741   6.932 -1.7319  2.0255  0.1067
  236MOL0     H31839   7.328   0.721   6.913  0.1811 -1.5725  3.6537
  236MOL0     H31840   8.028   0.903   5.962 -0.7048 -1.9946 -0.8866
  236MOL0     H31841   8.079   1.007   5.752 -0.5412 -0.4001 -3.0500
  236MOL0     H31842   7.873   1.289   5.395  0.2986  0.3989  1.0195
  236MOL0     H31843   7.966   1.480   5.289 -1.3085  0.4652  4.0640
  236MOL0     H31844   8.240   2.251   4.654 -0.7066 -1.9023  0.5118
  236MOL0     H31845   8.103   2.103   4.510  1.4873  0.6488  2.5832
  236MOL0     H31846   7.816   2.158   4.073 -2.6053 -0.9581 -0.8727
  236MOL0     H31847   7.703   2.057   3.894 -2.0172 -1.1102  0.7040
  236MOL0     H31848   7.664   1.932   3.716  1.2565  0.1940  0.9381
  236MOL0     H31849   7.532   1.864   3.820 -0.4604  1.6765 -1.0057
  236MOL0     H31850   7.521   1.663   3.700  0.2317  0.3614  1.9205
  236MOL0     H31851   7.665   1.691   3.609 -0.7101  0.0051  0.7610
  236MOL0     H31852   7.462   1.740   3.462 -0.8286  0.8208 -0.8050
  236MOL0     H31853   7.542   1.894   3.483  3.0476 -2.8673 -0.8398
  236MOL0     H31854   7.289   1.878   3.514 -0.9614  1.2146  0.0542
  236MOL0     H31855   7.329   1.810   3.676 -0.8994  3.1065  0.8349
  236MOL0     H31856   7.381   2.215   3.770 -0.9642  0.4012  0.5351
  236MOL0     H31857   7.891   1.685   3.989 -2.1338  0.1148 -0.1299
  236MOL0     H31858   8.170   1.765   4.089 -0.7801  2.2779 -0.6776
  236MOL0     H31859   8.112   1.799   4.256  0.0383 -0.8627 -0.1789
  236MOL0     H31860   8.041   1.669   4.163 -1.2920  0.1231 -0.8192
  237MOL0     O31861   2.495  10.985   1.247  0.6711 -0.9461  0.8863
  237MOL0     C31862   2.493  11.003   1.369  0.3884 -0.5059 -0.0647
  237MOL0     O31863   2.551  10.924   1.455 -0.3150  0.6456 -0.6669
  237MOL0     C31864   2.641  10.813   1.418  0.0167 -0.1205  0.2297
  237MOL0     C31865   2.588  10.695   1.349 -0.4873 -0.1105  0.3277
  237MOL0     C31866   2.684  10.607   1.307 -0.7064 -0.6849 -0.5342
  237MOL0     C31867   2.824  10.622   1.336  0.2149  0.0977  0.4945
  237MOL0     O31868   2.927  10.538   1.300  0.6728 -0.0326 -0.1627
  237MOL0     C31869   2.903  10.439   1.204  0.4699  0.3766 -0.2699
  237MOL0     C31870   3.041  10.386   1.171  0.1316  0.7105  0.3381
  237MOL0     C31871   3.140  10.514   1.143  0.7099  1.0844  0.2371
  237MOL0     C31872   3.278  10.457   1.124  0.0255  0.1840 -0.0011
  237MOL0     C31873   3.370  10.553   1.060  0.7910  0.8277 -0.3950
  237MOL0     C31874   3.423  10.666   1.151 -0.0011  0.1673 -0.4755
  237MOL0     C31875   3.502  10.766   1.062 -0.2756 -0.2874 -0.3591
  237MOL0     C31876   3.564  10.876   1.135  0.1224  0.3660 -0.7171
  237MOL0     N31877   3.483  10.952   1.228 -0.3710 -0.0962 -0.1611
  237MOL0     C31878   3.437  10.909   1.353  0.4177 -1.0832  0.5876
  237MOL0     C31879   3.341  10.996   1.382 -1.1440  0.4198  0.0292
  237MOL0     C31880   3.251  10.998   1.504  0.6784 -0.0500 -0.7326
  237MOL0     C31881   3.278  11.118   1.595 -1.0185 -0.0559  0.5255
  237MOL0     C31882   3.192  11.135   1.712  0.6004 -0.3616 -0.4916
  237MOL0     C31883   3.058  11.205   1.680  0.0114  0.2521  0.3505
  237MOL0     O31884   2.956  11.216   1.789  0.2849 -0.1494  0.3010
  237MOL0     C31885   2.878  11.105   1.814  0.9280 -0.5179  0.4006
  237MOL0     C31886   2.771  11.133   1.886  0.1244 -0.4912  0.0609
  237MOL0     C31887   2.679  11.040   1.936  0.3762  0.0233  0.6199
  237MOL0     C31888   2.693  10.905   1.901  1.0619  0.4618 -0.5580
  237MOL0     C31889   2.602  10.802   1.969  0.5120  0.1788  0.2613
  237MOL0     O31890   2.483  10.839   2.021 -0.6120 -0.6160  0.5050
  237MOL0     C31891   2.393  10.746   2.054  0.2087  0.3860 -0.3854
  237MOL0     C31892   2.357  10.634   1.971 -0.5277 -0.0141 -1.0175
  237MOL0     C31893   2.260  10.541   2.013 -0.4882  0.3357  0.5914
  237MOL0     C31894   2.186  10.562   2.127  0.1238  0.4703 -0.7063
  237MOL0     O31895   2.091  10.487   2.164  0.6367  0.6143  0.5751
  237MOL0     C31896   1.956  10.534   2.159  0.0916  0.1347  0.9509
  237MOL0     C31897   1.918  10.624   2.289  0.2979 -0.3158  0.3124
  237MOL0     C31898   1.921  10.780   2.255 -0.9651  1.2602 -0.0839
  237MOL0     C31899   1.832  10.856   2.357 -0.3284 -0.4729 -0.4197
  237MOL0     C31900   1.789  10.996   2.311 -0.0740  0.4962  0.3169
  237MOL0     C31901   1.669  10.995   2.209 -0.1049 -0.4412  0.2969
  237MOL0     C31902   1.625  11.149   2.207 -0.3134 -0.3033  0.7757
  237MOL0     C31903   1.513  11.178   2.107 -1.1343  0.3519  0.1344
  237MOL0    Cl31904   1.570  11.135   1.936 -0.4056 -0.2360 -0.2469
  237MOL0     C31905   2.235  10.660   2.214  0.2969 -0.0470 -0.2553
  237MOL0     C31906   2.330  10.761   2.172 -0.4797 -0.3503 -1.1318
  237MOL0     O31907   2.639  10.686   1.957 -0.1228 -0.2810  0.0105
  237MOL0     C31908   2.797  10.869   1.816 -0.3781 -0.2549  0.2539
  237MOL0     C31909   2.888  10.972   1.767  0.5067 -0.1688  0.1369
  237MOL0     N31910   3.331  11.102   1.289 -0.1724  1.3141 -0.0758
  237MOL0     N31911   3.411  11.067   1.199 -0.3885  0.0347 -0.5733
  237MOL0     C31912   2.860  10.730   1.411 -0.8823 -0.2745  0.9920
  237MOL0     C31913   2.775  10.828   1.451 -0.5869 -0.3679  0.6346
  237MOL0     C31914   2.402  11.099   1.433  0.5148  0.4294  0.5732
  237MOL0     C31915   2.439  11.154   1.560  0.3536  0.3262  0.2395
  237MOL0     C31916   2.367  11.248   1.621 -1.4899  0.2042 -1.1214
  237MOL0     C31917   2.250  11.292   1.568 -0.3782  0.2006  0.2658
  237MOL0     O31918   2.175  11.378   1.646 -0.2750  0.0525  0.1423
  237MOL0     C31919   2.058  11.435   1.583 -1.5306  0.1306  0.2598
  237MOL0     C31920   2.087  11.558   1.490  0.6089 -0.4581 -0.5238
  237MOL0     C31921   2.146  11.671   1.573  0.3120 -0.2924 -0.2105
  237MOL0     C31922   2.035  11.771   1.599 -0.4102  0.7062  0.1115
  237MOL0     C31923   1.924  11.721   1.683  0.0697 -0.1194  0.0317
  237MOL0     C31924   1.846  11.692   1.767 -0.9477  0.3037 -0.2509
  237MOL0     C31925   2.207  11.244   1.439 -0.8680  0.0569  0.2718
  237MOL0     C31926   2.285  11.153   1.364 -0.2905  0.0526  0.0665
  237MOL0     C31927   2.248  11.105   1.228  0.0863 -1.3649 -0.5756
  237MOL0     H31928   2.485  10.686   1.317 -0.0935 -0.5335 -0.8887
  237MOL0     H31929   2.657  10.517   1.254  3.4679 -0.5938 -3.2750
  237MOL0     H31930   2.841  10.363   1.253 -1.7962  2.4206  0.2229
  237MOL0     H31931   2.852  10.481   1.117  1.1660 -0.3165 -1.0212
  237MOL0     H31932   3.039  10.335   1.074 -2.1911  3.0525 -0.9676
  237MOL0     H31933   3.078  10.316   1.246  1.2999  0.2299 -0.6505
  237MOL0     H31934   3.143  10.584   1.227  0.4153 -0.0179  1.1936
  237MOL0     H31935   3.091  10.572   1.065 -1.1161 -1.2214 -0.4300
  237MOL0     H31936   3.301  10.412   1.221 -1.4895 -3.0102 -0.9754
  237MOL0     H31937   3.259  10.377   1.051  1.1294  0.9398 -1.1714
  237MOL0     H31938   3.460  10.501   1.025 -0.2956  0.3798 -2.6670
  237MOL0     H31939   3.323  10.592   0.970 -3.0223 -1.0187  0.6190
  237MOL0     H31940   3.337  10.707   1.204 -1.4788 -2.4768 -0.6264
  237MOL0     H31941   3.490  10.625   1.227 -2.8207 -1.1486  1.4713
  237MOL0     H31942   3.430  10.805   0.990 -1.2863 -1.2095  0.1273
  237MOL0     H31943   3.585  10.716   1.011  1.6277  1.9502  0.3503
  237MOL0     H31944   3.650  10.842   1.193  0.2924  2.0989  0.1222
  237MOL0     H31945   3.608  10.951   1.069 -0.1851  0.3718 -0.9150
  237MOL0     H31946   3.483  10.826   1.405  2.1682 -1.6287 -1.6589
  237MOL0     H31947   3.146  11.003   1.474 -0.2575 -1.2756  1.9930
  237MOL0     H31948   3.245  10.904   1.560 -0.5311  2.6137  4.2114
  237MOL0     H31949   3.383  11.105   1.625 -0.5277  1.2724 -0.5501
  237MOL0     H31950   3.273  11.206   1.531  1.8822 -0.2432 -0.0980
  237MOL0     H31951   3.236  11.207   1.781  1.1691 -2.4664  1.4481
  237MOL0     H31952   3.179  11.047   1.774 -0.9781  1.6771  2.3010
  237MOL0     H31953   3.019  11.159   1.588  0.1112 -1.4546  1.1253
  237MOL0     H31954   3.084  11.304   1.643  0.1010 -0.9998 -3.3781
  237MOL0     H31955   2.757  11.236   1.920  0.9419 -1.3641  3.5028
  237MOL0     H31956   2.599  11.080   1.998  2.7290  1.4046  3.0247
  237MOL0     H31957   2.418  10.623   1.882  0.0568  0.5160 -0.6902
  237MOL0     H31958   2.230  10.466   1.941 -0.1956 -2.1161  2.8702
  237MOL0     H31959   1.953  10.588   2.064  1.2469 -2.6205 -0.7576
  237MOL0     H31960   1.892  10.446   2.148  3.5548 -2.5929  1.1185
  237MOL0     H31961   1.821  10.585   2.321  1.1066 -4.8706 -2.0442
  237MOL0     H31962   1.977  10.606   2.380 -0.1620 -2.1161  0.2966
  237MOL0     H31963   2.023  10.816   2.243  0.2012 -0.9378  2.2825
  237MOL0     H31964   1.871  10.792   2.159  0.3840  0.9080 -0.8536
  237MOL0     H31965   1.892  10.870   2.447 -0.4910  0.9723 -0.5079
  237MOL0     H31966   1.746  10.798   2.392  2.6399 -4.1308  1.4586
  237MOL0     H31967   1.874  11.035   2.254  0.8013 -1.9083 -0.1387
  237MOL0     H31968   1.774  11.052   2.404  0.2417 -0.2512  0.8219
  237MOL0     H31969   1.692  10.953   2.111  0.4368  0.6886 -0.0739
  237MOL0     H31970   1.598  10.917   2.240  0.4004 -1.3563 -0.8002
  237MOL0     H31971   1.708  11.212   2.175 -0.0260 -1.2372 -0.3442
  237MOL0     H31972   1.595  11.190   2.304  1.7027  1.6339  0.6458
  237MOL0     H31973   1.427  11.117   2.136  0.2768 -1.7274  0.1688
  237MOL0     H31974   1.495  11.286   2.108 -2.1230  0.2093  1.6080
  237MOL0     H31975   2.181  10.677   2.306 -1.5509  0.9750 -1.4673
  237MOL0     H31976   2.345  10.842   2.243  1.4048 -1.2986 -0.3541
  237MOL0     H31977   2.818  10.773   1.771 -0.7306  1.5887 -4.3917
  237MOL0     H31978   2.976  10.931   1.719  0.8685 -0.1542  0.7853
  237MOL0     H31979   2.963  10.755   1.436 -0.5632  2.1533 -2.1013
  237MOL0     H31980   2.806  10.907   1.518  0.8043 -1.7553  1.7030
  237MOL0     H31981   2.537  11.140   1.604  0.1315  0.1399  0.6792
  237MOL0     H31982   2.388  11.302   1.712 -3.2111 -1.7509  0.5358
  237MOL0     H31983   1.996  11.476   1.664 -0.2501 -0.2156  1.4543
  237MOL0     H31984   1.993  11.365   1.531  0.6676 -0.1728 -2.2639
  237MOL0     H31985   2.000  11.590   1.431 -1.1002 -0.6195  1.7863
  237MOL0     H31986   2.161  11.525   1.417 -0.2172  0.7291 -1.9656
  237MOL0     H31987   2.221  11.726   1.516 -0.1660  0.1395 -0.4306
  237MOL0     H31988   2.180  11.638   1.672 -0.2052 -0.2202 -0.0033
  237MOL0     H31989   2.084  11.851   1.655  0.4619 -0.0154  0.4097
  237MOL0     H31990   1.989  11.804   1.505  1.7801  0.8593 -0.9698
  237MOL0     H31991   1.763  11.676   1.832 -1.8581 -0.5293 -1.5721
  237MOL0     H31992   2.122  11.282   1.383 -0.8881 -0.0626  0.2214
  237MOL0     H31993   2.156  11.161   1.208  1.0479 -0.0958 -1.5878
  237MOL0     H31994   2.322  11.127   1.150  1.0904  0.8033  0.8966
  237MOL0     H31995   2.220  10.999   1.223 -3.0791 -0.6041 -1.2525
  238MOL0     O31996  11.220   2.511   1.711  0.3618  1.0174 -0.1097
  238MOL0     C31997  11.305   2.422   1.732  0.2313 -0.5070  0.2101
  238MOL0     O31998  11.326   2.317   1.646 -0.2080  0.4155 -0.1496
  238MOL0     C31999  11.241   2.290   1.546  1.5636  0.5388 -0.5435
  238MOL0     C32000  11.249   2.353   1.423 -0.1106  0.6589  0.7175
  238MOL0     C32001  11.169   2.326   1.319 -0.4972 -0.4005 -0.1573
  238MOL0     C32002  11.068   2.231   1.340 -0.9644  1.0296  0.3352
  238MOL0     O32003  10.978   2.199   1.243 -0.9969 -0.1892 -0.6185
  238MOL0     C32004  10.992   2.255   1.113 -0.6733  0.0169  0.8876
  238MOL0     C32005  10.926   2.157   1.020 -0.7210 -0.5038 -0.2893
  238MOL0     C32006  10.767   2.155   1.039 -0.4958  0.3343 -0.2668
  238MOL0     C32007  10.716   2.019   0.992 -0.1858 -0.0850 -0.0367
  238MOL0     C32008  10.573   1.993   1.020  0.7756 -1.2210 -0.5413
  238MOL0     C32009  10.527   1.856   0.975  0.4332  0.4181 -0.3117
  238MOL0     C32010  10.382   1.840   0.919  0.7778  0.4478  0.0658
  238MOL0     C32011  10.370   1.901   0.781  0.1557  0.0847  0.4221
  238MOL0     N32012  10.257   1.850   0.716  0.0855  0.5004  0.5203
  238MOL0     C32013  10.130   1.833   0.764 -0.7320 -0.0062  1.2287
  238MOL0     C32014  10.059   1.791   0.659  0.5356 -0.5383 -0.2345
  238MOL0     C32015   9.924   1.732   0.655  0.9446 -0.2568 -0.5820
  238MOL0     C32016   9.876   1.735   0.507 -0.4451  0.3395 -0.1684
  238MOL0     C32017   9.738   1.669   0.514  0.4905  0.0513  0.3604
  238MOL0     C32018   9.682   1.676   0.375 -0.9378 -0.0423 -0.4308
  238MOL0     O32019   9.532   1.672   0.376 -0.1401  0.1159 -1.1784
  238MOL0     C32020   9.456   1.789   0.407  0.4181 -0.2387 -0.4023
  238MOL0     C32021   9.520   1.910   0.436  0.6132 -0.2844 -0.1162
  238MOL0     C32022   9.436   2.020   0.462 -0.0250  0.3874 -1.4079
  238MOL0     C32023   9.296   2.010   0.468  0.4351  0.9816 -0.4650
  238MOL0     C32024   9.209   2.124   0.482  0.3503 -1.0050  0.1636
  238MOL0     O32025   9.077   2.100   0.469  0.3730 -0.3084 -1.3839
  238MOL0     C32026   8.992   2.210   0.441  0.4273  0.3784 -0.1532
  238MOL0     C32027   8.974   2.311   0.538  0.1337 -0.3735  1.0916
  238MOL0     C32028   8.867   2.402   0.540  0.0495 -1.1410  1.4345
  238MOL0     C32029   8.774   2.396   0.436 -0.5393 -0.5012 -0.1243
  238MOL0     O32030   8.673   2.490   0.436 -0.4858 -0.1046 -0.8069
  238MOL0     C32031   8.651   2.578   0.324 -0.1505  1.0067  0.0747
  238MOL0     C32032   8.583   2.707   0.374  0.5082 -0.3447 -0.3075
  238MOL0     C32033   8.456   2.695   0.457 -0.2422 -0.0820 -0.2774
  238MOL0     C32034   8.385   2.828   0.484 -0.0350 -0.8341 -0.1166
  238MOL0     C32035   8.290   2.812   0.601 -0.4846 -0.0766  0.0831
  238MOL0     C32036   8.154   2.752   0.564  0.0469  0.7378 -0.3688
  238MOL0     C32037   8.070   2.738   0.693 -0.0771 -0.0204  0.0307
  238MOL0     C32038   8.105   2.621   0.786 -0.6825  0.4698  0.9309
  238MOL0    Cl32039   7.995   2.632   0.930  0.1910 -0.0877  0.5431
  238MOL0     C32040   8.797   2.312   0.332  1.1766 -0.1210 -0.8134
  238MOL0     C32041   8.902   2.220   0.335 -0.8142 -0.7957  0.0639
  238MOL0     O32042   9.260   2.239   0.478  0.0654  0.2370  0.2316
  238MOL0     C32043   9.242   1.882   0.461  0.2041 -0.0677  0.2589
  238MOL0     C32044   9.319   1.771   0.436  0.3474  0.3134 -0.9292
  238MOL0     N32045  10.141   1.797   0.550 -0.5179  0.1192 -0.2604
  238MOL0     N32046  10.261   1.822   0.581  0.5878 -0.2100  0.2516
  238MOL0     C32047  11.045   2.159   1.458 -0.0570 -0.2043  0.2671
  238MOL0     C32048  11.146   2.186   1.558  0.8726 -0.1645 -0.6784
  238MOL0     C32049  11.377   2.429   1.861  0.6101  0.3099 -0.5921
  238MOL0     C32050  11.511   2.467   1.865 -0.6613 -0.4137 -0.2374
  238MOL0     C32051  11.587   2.466   1.981 -0.3331  0.1358  0.5098
  238MOL0     C32052  11.524   2.424   2.110 -0.4360  0.0223  0.3507
  238MOL0     O32053  11.599   2.448   2.223  0.0062  0.5517  0.8665
  238MOL0     C32054  11.655   2.339   2.298 -0.6849 -0.5869 -0.5804
  238MOL0     C32055  11.589   2.321   2.434  0.7249  0.5074 -0.4720
  238MOL0     C32056  11.623   2.441   2.531 -1.2354  0.7640 -0.6745
  238MOL0     C32057  11.546   2.414   2.666 -0.5910 -1.1169 -0.2094
  238MOL0     C32058  11.591   2.502   2.779  0.0164  0.3980  0.3381
  238MOL0     C32059  11.600   2.582   2.863 -0.7390 -0.8887  0.4688
  238MOL0     C32060  11.395   2.388   2.109  0.5011  1.1813  0.8899
  238MOL0     C32061  11.328   2.382   1.986  0.7336 -0.6293 -0.3804
  238MOL0     C32062  11.187   2.315   1.996 -1.5318 -0.4816 -0.4837
  238MOL0     H32063  11.320   2.435   1.416 -0.0511  0.5579  0.0657
  238MOL0     H32064  11.175   2.369   1.220 -2.5668 -1.5826 -0.8665
  238MOL0     H32065  10.944   2.350   1.090  1.3556  0.5500 -1.6318
  238MOL0     H32066  11.093   2.275   1.075 -1.1964  2.1294  0.5074
  238MOL0     H32067  10.968   2.061   1.048  0.3712 -0.0265 -0.2608
  238MOL0     H32068  10.948   2.189   0.918 -0.6880  1.2791  0.2464
  238MOL0     H32069  10.732   2.248   0.995 -2.2584  1.0446  2.4328
  238MOL0     H32070  10.739   2.160   1.144  0.2257  0.8206 -0.0891
  238MOL0     H32071  10.746   2.010   0.887  5.2589  2.1549  0.9903
  238MOL0     H32072  10.765   1.934   1.039  0.1854 -1.2767 -2.4397
  238MOL0     H32073  10.553   1.991   1.127 -0.5186  1.2905 -0.6591
  238MOL0     H32074  10.509   2.073   0.981 -0.4842 -1.3308  1.1921
  238MOL0     H32075  10.599   1.815   0.904 -0.1007 -1.8119  0.3240
  238MOL0     H32076  10.525   1.789   1.062  2.6132  0.6237 -0.0593
  238MOL0     H32077  10.316   1.894   0.986  1.8298  1.8308  0.0221
  238MOL0     H32078  10.361   1.733   0.905 -1.0255  0.9600 -1.5451
  238MOL0     H32079  10.372   2.011   0.778  4.7716  0.2127 -0.3262
  238MOL0     H32080  10.455   1.869   0.719 -0.7650  0.2127 -0.9366
  238MOL0     H32081  10.092   1.854   0.863 -0.1468  2.3234  1.0328
  238MOL0     H32082   9.934   1.633   0.700 -1.9288  0.6376  2.3421
  238MOL0     H32083   9.867   1.780   0.735  3.2790 -0.3080  1.2059
  238MOL0     H32084   9.877   1.838   0.470  1.7159  1.1276  1.8473
  238MOL0     H32085   9.942   1.668   0.452 -0.9825  0.8544 -1.4811
  238MOL0     H32086   9.669   1.726   0.577  0.4800  2.6360 -1.8009
  238MOL0     H32087   9.748   1.567   0.550  0.6582  1.2488  4.1613
  238MOL0     H32088   9.715   1.580   0.333  2.2346 -0.0975  1.7959
  238MOL0     H32089   9.716   1.761   0.316 -1.5096  0.1241 -0.5210
  238MOL0     H32090   9.619   1.944   0.406  0.1724  1.7997  0.6109
  238MOL0     H32091   9.473   2.120   0.441  1.1518 -0.4953 -3.9715
  238MOL0     H32092   9.051   2.317   0.614  1.2206 -1.9086  0.1587
  238MOL0     H32093   8.872   2.476   0.620  3.5672 -0.6415  0.9092
  238MOL0     H32094   8.739   2.611   0.267 -0.0133  1.6577  0.6500
  238MOL0     H32095   8.569   2.531   0.268  0.2479 -4.0719  3.1266
  238MOL0     H32096   8.651   2.759   0.442 -0.9326  0.5590  0.4886
  238MOL0     H32097   8.559   2.773   0.291  1.5361  2.9881  1.8066
  238MOL0     H32098   8.386   2.641   0.394  0.7306 -0.4521 -1.0733
  238MOL0     H32099   8.469   2.641   0.551 -2.7299 -0.9846 -0.3880
  238MOL0     H32100   8.350   2.886   0.398  0.2519  0.2405  0.4714
  238MOL0     H32101   8.457   2.900   0.523 -3.5295  2.1047  1.4909
  238MOL0     H32102   8.278   2.910   0.647  2.2254 -0.1965  1.2420
  238MOL0     H32103   8.345   2.753   0.675  0.8235  2.9326  1.6781
  238MOL0     H32104   8.108   2.823   0.494  0.2176  2.0123  0.7688
  238MOL0     H32105   8.167   2.652   0.522  0.9582  0.3839  0.7095
  238MOL0     H32106   7.964   2.731   0.667  0.0739 -2.7832 -0.1597
  238MOL0     H32107   8.090   2.826   0.756  1.8650  0.4279 -1.1204
  238MOL0     H32108   8.090   2.528   0.730  0.6308  3.4382 -5.2727
  238MOL0     H32109   8.208   2.621   0.825 -0.3710  1.3903  0.1666
  238MOL0     H32110   8.735   2.324   0.244 -0.5038  4.1108  0.6953
  238MOL0     H32111   8.917   2.141   0.262  3.0795  0.3202 -0.5676
  238MOL0     H32112   9.136   1.872   0.482  0.0146 -1.1088 -1.0432
  238MOL0     H32113   9.270   1.675   0.437 -1.0710  0.9948  0.7962
  238MOL0     H32114  10.960   2.099   1.486 -1.7321  1.7058 -0.4891
  238MOL0     H32115  11.142   2.145   1.658  0.9479  0.6921 -0.3137
  238MOL0     H32116  11.570   2.480   1.775 -1.4992 -1.0560 -0.8992
  238MOL0     H32117  11.686   2.512   1.980 -1.2812  2.3407 -1.1324
  238MOL0     H32118  11.762   2.360   2.307 -0.0680 -3.8318  1.1608
  238MOL0     H32119  11.651   2.243   2.245 -1.0804 -1.3126  0.7282
  238MOL0     H32120  11.633   2.235   2.486  3.3855  2.4141  0.6286
  238MOL0     H32121  11.480   2.310   2.425  0.7582  0.5683 -0.9575
  238MOL0     H32122  11.607   2.539   2.483  0.2098  0.5791 -1.5915
  238MOL0     H32123  11.729   2.432   2.556 -1.6104 -2.0843  0.1534
  238MOL0     H32124  11.443   2.448   2.651 -1.4613 -3.8146 -0.8535
  238MOL0     H32125  11.542   2.308   2.693 -2.0547 -0.7199  1.3130
  238MOL0     H32126  11.617   2.655   2.939  2.7884 -1.9803  0.9092
  238MOL0     H32127  11.352   2.351   2.201  0.4105 -1.4640 -0.1538
  238MOL0     H32128  11.137   2.316   1.899 -3.8715 -1.9141  0.6347
  238MOL0     H32129  11.206   2.210   2.022  3.4220 -0.2440 -1.9390
  238MOL0     H32130  11.134   2.367   2.075  1.1590 -0.0632  1.1846
  239MOL0     O32131   4.810   7.208   8.913  0.2644 -0.1141 -0.1318
  239MOL0     C32132   4.883   7.144   8.832 -0.3970 -0.4312  1.1185
  239MOL0     O32133   4.933   7.019   8.857  0.2785  0.3016  0.0072
  239MOL0     C32134   4.881   6.933   8.960  0.1168  0.4981 -0.2120
  239MOL0     C32135   4.952   6.811   8.978 -0.6549 -1.1072 -0.7533
  239MOL0     C32136   4.917   6.732   9.087  0.1030  0.5478  0.1435
  239MOL0     C32137   4.814   6.770   9.182  0.5190  0.4277  0.0992
  239MOL0     O32138   4.788   6.694   9.290 -0.0010  0.1910 -0.4757
  239MOL0     C32139   4.715   6.748   9.396  0.4451 -0.4744 -0.4655
  239MOL0     C32140   4.685   6.644   9.505 -0.6849 -0.4845  0.5091
  239MOL0     C32141   4.813   6.619   9.594 -1.0190  0.4184  0.4109
  239MOL0     C32142   4.812   6.476   9.646 -0.0874 -0.0954  0.1903
  239MOL0     C32143   4.930   6.465   9.738 -1.0588  0.2368  0.2863
  239MOL0     C32144   4.951   6.315   9.768  0.7086  0.0076 -0.1859
  239MOL0     C32145   5.035   6.294   9.889 -0.4317 -0.1283  0.1723
  239MOL0     C32146   5.183   6.343   9.871  1.3514  0.0897 -0.0579
  239MOL0     N32147   5.256   6.262   9.767 -0.6450 -0.1196 -0.3977
  239MOL0     C32148   5.310   6.312   9.655 -0.3898  0.4979 -0.4350
  239MOL0     C32149   5.342   6.200   9.581  0.0922 -0.6128  0.1966
  239MOL0     C32150   5.414   6.187   9.453 -0.3749  0.9696 -0.0037
  239MOL0     C32151   5.313   6.175   9.336  0.9818 -0.9188  0.4817
  239MOL0     C32152   5.379   6.142   9.200 -1.2194  0.6093 -0.0576
  239MOL0     C32153   5.483   6.242   9.153  0.0540 -0.0817 -0.5949
  239MOL0     O32154   5.525   6.213   9.018  0.3351 -0.4003 -0.1156
  239MOL0     C32155   5.616   6.301   8.962 -0.5869 -0.5393 -0.5820
  239MOL0     C32156   5.683   6.409   9.028  0.8381 -0.2778  0.5578
  239MOL0     C32157   5.773   6.489   8.954  0.4352  0.3370 -0.2311
  239MOL0     C32158   5.804   6.467   8.826  0.7895  0.2791  0.6221
  239MOL0     C32159   5.917   6.545   8.767  1.0376 -0.4846  0.5666
  239MOL0     O32160   5.958   6.513   8.637  0.1308  0.0247 -0.4704
  239MOL0     C32161   6.024   6.607   8.560  0.2268 -0.5250 -0.1565
  239MOL0     C32162   5.981   6.623   8.424  0.2475 -0.2658 -0.4375
  239MOL0     C32163   6.023   6.726   8.347 -0.1834  0.6645 -0.2205
  239MOL0     C32164   6.136   6.803   8.393  0.9272  0.6790 -0.2220
  239MOL0     O32165   6.199   6.900   8.323  0.4548 -0.0466  0.1967
  239MOL0     C32166   6.132   6.951   8.215 -0.9382 -0.4862  0.3386
  239MOL0     C32167   6.191   7.091   8.190 -0.0821 -1.3879  0.0249
  239MOL0     C32168   6.342   7.085   8.149  0.2425 -0.4752 -0.7372
  239MOL0     C32169   6.443   7.139   8.256 -0.3996  0.2818  0.8006
  239MOL0     C32170   6.435   7.065   8.388 -0.2992  0.7112 -0.8895
  239MOL0     C32171   6.567   7.108   8.466  0.8634 -0.2871  0.5236
  239MOL0     C32172   6.582   7.029   8.586 -0.8716  0.3203 -0.8426
  239MOL0     C32173   6.600   6.876   8.576  0.7134  0.0731 -0.1093
  239MOL0    Cl32174   6.736   6.824   8.453  0.0758  0.1203  0.3118
  239MOL0     C32175   6.185   6.779   8.517 -0.5691 -0.4392  1.0371
  239MOL0     C32176   6.131   6.688   8.603  1.2406 -0.0573  0.1671
  239MOL0     O32177   5.941   6.651   8.826 -0.8839  0.2214 -0.2255
  239MOL0     C32178   5.733   6.367   8.762 -0.8589  0.6552 -0.4336
  239MOL0     C32179   5.644   6.291   8.828 -0.5310  0.2899  0.1642
  239MOL0     N32180   5.297   6.086   9.646  0.4130 -0.5527 -0.1560
  239MOL0     N32181   5.257   6.122   9.765  0.5150 -0.6624 -0.8297
  239MOL0     C32182   4.736   6.883   9.150 -0.1893  0.0405 -0.2660
  239MOL0     C32183   4.766   6.965   9.038 -0.4488  0.7631  0.3676
  239MOL0     C32184   4.956   7.219   8.734  0.8707 -0.7615  0.5128
  239MOL0     C32185   5.079   7.167   8.699 -0.8791 -0.0996 -0.0546
  239MOL0     C32186   5.151   7.219   8.588 -0.4950  0.3385 -0.2740
  239MOL0     C32187   5.093   7.322   8.502 -0.0147  0.2076 -0.0402
  239MOL0     O32188   5.161   7.351   8.383  0.6285  0.5844  0.4803
  239MOL0     C32189   5.087   7.334   8.267  0.1172  0.5736  0.2339
  239MOL0     C32190   5.168   7.356   8.141  0.5893  0.5453  0.6439
  239MOL0     C32191   5.216   7.499   8.139  0.0806 -0.7128 -0.0197
  239MOL0     C32192   5.246   7.539   7.990 -0.4253  0.1647  0.4563
  239MOL0     C32193   5.259   7.682   7.992  0.4812 -0.5253 -0.2993
  239MOL0     C32194   5.278   7.802   7.976  0.2282 -1.8046  0.0910
  239MOL0     C32195   4.970   7.364   8.540  1.3352  0.1853 -0.0711
  239MOL0     C32196   4.906   7.323   8.654 -1.1785  1.3409  0.5869
  239MOL0     C32197   4.776   7.402   8.676  0.2485  1.1560  0.8323
  239MOL0     H32198   5.037   6.785   8.915  1.9646  0.7558  1.7420
  239MOL0     H32199   4.974   6.640   9.095 -0.4314  0.2458  0.5578
  239MOL0     H32200   4.756   6.837   9.445  1.9781  1.0976 -4.2830
  239MOL0     H32201   4.617   6.774   9.357  0.1593 -0.2843  0.3541
  239MOL0     H32202   4.649   6.551   9.459 -0.6121 -0.6473  0.7756
  239MOL0     H32203   4.605   6.674   9.574 -2.1783 -1.0239 -0.9191
  239MOL0     H32204   4.816   6.695   9.673  1.7088  0.2444  0.5433
  239MOL0     H32205   4.900   6.645   9.533 -0.3356  1.7676  1.8833
  239MOL0     H32206   4.726   6.459   9.712 -0.5603 -1.6738 -0.7924
  239MOL0     H32207   4.823   6.402   9.566 -0.8376  0.5249 -0.5105
  239MOL0     H32208   5.014   6.511   9.686 -1.1158 -1.3228 -1.2826
  239MOL0     H32209   4.922   6.522   9.832 -1.4141 -1.8563  1.5844
  239MOL0     H32210   4.853   6.280   9.800  0.9207 -0.3801  0.0445
  239MOL0     H32211   4.975   6.262   9.675 -0.6793  0.8057 -1.0503
  239MOL0     H32212   5.034   6.189   9.921  1.4741  0.5577  2.8088
  239MOL0     H32213   4.982   6.342   9.972  0.7111  1.2060  0.1524
  239MOL0     H32214   5.186   6.446   9.836 -1.0744 -0.2984 -1.6611
  239MOL0     H32215   5.240   6.335   9.964  2.7577  0.6307 -0.8485
  239MOL0     H32216   5.346   6.413   9.640  0.2811  0.2936 -0.2251
  239MOL0     H32217   5.466   6.279   9.424 -1.7195  1.5589 -0.6517
  239MOL0     H32218   5.482   6.102   9.462 -0.5053  0.6903 -1.3528
  239MOL0     H32219   5.238   6.100   9.361 -3.0297  1.9824 -1.7234
  239MOL0     H32220   5.261   6.271   9.325 -0.2426 -1.5519  0.6183
  239MOL0     H32221   5.308   6.128   9.117 -0.9591  2.2926 -0.6206
  239MOL0     H32222   5.434   6.049   9.209  0.8824  1.7819 -0.1509
  239MOL0     H32223   5.560   6.239   9.231 -1.0756  1.1454  0.6124
  239MOL0     H32224   5.440   6.342   9.159  0.2107 -0.0730  0.7965
  239MOL0     H32225   5.653   6.427   9.130 -0.4858  1.2428 -0.0561
  239MOL0     H32226   5.808   6.577   9.006 -1.5247  1.6156 -0.9574
  239MOL0     H32227   5.908   6.554   8.384 -0.6217 -0.4646  1.3796
  239MOL0     H32228   5.997   6.733   8.241 -0.6653 -2.4965 -0.3979
  239MOL0     H32229   6.139   6.896   8.121 -1.4373 -1.1332  0.6705
  239MOL0     H32230   6.024   6.954   8.231 -0.9364 -0.3613  0.3224
  239MOL0     H32231   6.129   7.140   8.114  1.1105  2.7620  1.4626
  239MOL0     H32232   6.190   7.166   8.270 -0.0506 -0.7209 -0.5945
  239MOL0     H32233   6.367   6.980   8.139  0.7612 -0.5643  1.1185
  239MOL0     H32234   6.366   7.131   8.053 -2.5255  0.5788 -1.0106
  239MOL0     H32235   6.426   7.245   8.273  2.0393  0.5403  2.0695
  239MOL0     H32236   6.545   7.123   8.221 -0.2362 -2.9033  2.3803
  239MOL0     H32237   6.443   6.957   8.368  2.8474 -0.1503  3.4669
  239MOL0     H32238   6.350   7.084   8.454  2.2201  3.3937  1.9349
  239MOL0     H32239   6.655   7.102   8.401  0.0143  2.7664 -1.1280
  239MOL0     H32240   6.565   7.215   8.489  1.3120 -0.4256  1.2035
  239MOL0     H32241   6.495   7.041   8.651  0.1980 -0.4399  0.7963
  239MOL0     H32242   6.667   7.070   8.642 -1.3283 -1.0105  0.9056
  239MOL0     H32243   6.615   6.825   8.672 -0.5149 -1.0969 -0.5044
  239MOL0     H32244   6.507   6.842   8.531  0.4900  1.9216 -1.1377
  239MOL0     H32245   6.270   6.835   8.556 -0.4290  0.7822 -0.9232
  239MOL0     H32246   6.165   6.672   8.704 -0.6895 -1.8995  0.5992
  239MOL0     H32247   5.745   6.341   8.657  1.0939  2.0314 -0.6080
  239MOL0     H32248   5.589   6.221   8.766  0.0818  1.6892 -2.0852
  239MOL0     H32249   4.647   6.907   9.207  0.1696  1.9622 -0.4605
  239MOL0     H32250   4.702   7.049   9.015  3.3423  3.6181 -0.7260
  239MOL0     H32251   5.125   7.083   8.751 -2.2684 -0.4376  0.6862
  239MOL0     H32252   5.250   7.182   8.564  0.0139  2.2352 -1.1901
  239MOL0     H32253   5.006   7.406   8.278 -0.6721 -0.3316  0.5096
  239MOL0     H32254   5.042   7.235   8.260 -0.7838  0.3109  5.7066
  239MOL0     H32255   5.123   7.323   8.047  1.0750 -2.6273  1.4321
  239MOL0     H32256   5.247   7.281   8.147 -3.6608 -4.5581  0.7928
  239MOL0     H32257   5.303   7.521   8.202  0.0084  0.3564 -0.2724
  239MOL0     H32258   5.130   7.562   8.163  0.4267  0.7644 -2.3017
  239MOL0     H32259   5.340   7.496   7.955  0.5984  2.1983  0.5433
  239MOL0     H32260   5.166   7.507   7.923 -0.3139 -0.5732  0.6731
  239MOL0     H32261   5.302   7.905   7.956 -3.7026 -0.4756  1.1266
  239MOL0     H32262   4.916   7.434   8.476 -0.9534  1.8359  3.3279
  239MOL0     H32263   4.771   7.486   8.606 -1.1640  0.8077  0.4775
  239MOL0     H32264   4.689   7.345   8.641  0.4142  0.3888  1.6508
  239MOL0     H32265   4.766   7.425   8.783  1.0297  0.6078  1.0300
  240MOL0     O32266   0.958   3.831   0.682  0.5040 -0.7114  0.1704
  240MOL0     C32267   0.878   3.905   0.734 -0.4307 -0.1582 -1.1943
  240MOL0     O32268   0.883   4.040   0.753 -0.8011 -0.3821 -0.0842
  240MOL0     C32269   0.976   4.107   0.676  0.0706  0.3852  0.0289
  240MOL0     C32270   1.114   4.116   0.713  0.8758  0.1315  0.6675
  240MOL0     C32271   1.206   4.187   0.636  0.4439 -0.1868  0.3497
  240MOL0     C32272   1.169   4.253   0.522  0.2038 -0.0607 -0.4573
  240MOL0     O32273   1.261   4.332   0.465  0.1179  0.0547  0.3756
  240MOL0     C32274   1.246   4.370   0.328 -0.3793 -0.3288 -0.0588
  240MOL0     C32275   1.383   4.396   0.253  0.4137  0.1917  0.3615
  240MOL0     C32276   1.338   4.442   0.110  0.3275  0.2678  0.4367
  240MOL0     C32277   1.457   4.464   0.014 -0.0989  0.1292 -0.1687
  240MOL0     C32278   1.405   4.498  -0.126 -0.3089  0.2421  0.5197
  240MOL0     C32279   1.505   4.527  -0.234 -0.1759  0.6526  0.5822
  240MOL0     C32280   1.563   4.667  -0.209 -0.8961  0.2564  0.1928
  240MOL0     C32281   1.682   4.670  -0.306 -0.4055 -0.5201  0.1322
  240MOL0     N32282   1.779   4.777  -0.269  1.1301  0.1341 -0.5771
  240MOL0     C32283   1.885   4.762  -0.181 -0.3383 -0.3668  0.2714
  240MOL0     C32284   1.963   4.868  -0.194  0.0708  1.1102  0.7779
  240MOL0     C32285   2.087   4.895  -0.116 -0.7190 -0.8762  0.8968
  240MOL0     C32286   2.072   4.877   0.034 -0.0798 -0.0995  0.5981
  240MOL0     C32287   2.107   5.005   0.125 -0.1338 -0.2827 -0.0216
  240MOL0     C32288   2.038   5.137   0.080 -0.4126  0.6885 -0.4723
  240MOL0     O32289   2.081   5.244   0.165  0.2841 -0.3492  0.4983
  240MOL0     C32290   2.209   5.271   0.194 -0.5369 -0.2553 -0.1707
  240MOL0     C32291   2.321   5.252   0.110  0.4571 -0.7558  1.1233
  240MOL0     C32292   2.452   5.274   0.161  0.2086 -0.1288  0.1183
  240MOL0     C32293   2.469   5.309   0.296 -0.6215  1.0038  0.8021
  240MOL0     C32294   2.602   5.350   0.346  0.7164  0.6718 -0.8833
  240MOL0     O32295   2.608   5.411   0.464 -0.0925  0.2699 -0.0012
  240MOL0     C32296   2.729   5.475   0.498  1.0128 -0.0952  0.4525
  240MOL0     C32297   2.793   5.573   0.420 -0.2001 -0.0359  0.1901
  240MOL0     C32298   2.912   5.626   0.462 -0.1358 -0.4809  1.5196
  240MOL0     C32299   2.977   5.574   0.575 -0.9675 -0.4540 -0.0974
  240MOL0     O32300   3.100   5.606   0.618 -0.3999  0.0159 -0.0511
  240MOL0     C32301   3.186   5.674   0.525 -0.0479  0.6011  0.4075
  240MOL0     C32302   3.327   5.659   0.572  0.2942 -0.9656  0.7816
  240MOL0     C32303   3.418   5.756   0.497 -0.1617 -0.5218 -0.1235
  240MOL0     C32304   3.558   5.739   0.552  0.0275  0.3343  0.1733
  240MOL0     C32305   3.653   5.758   0.445 -0.5421 -0.3090 -0.4952
  240MOL0     C32306   3.796   5.755   0.506  0.1650 -0.7757  0.6953
  240MOL0     C32307   3.887   5.868   0.454  0.0177 -0.4597  0.1222
  240MOL0     C32308   3.962   5.813   0.337 -0.2523 -0.1504  0.0181
  240MOL0    Cl32309   4.109   5.913   0.304  0.1708 -0.0085  0.1079
  240MOL0     C32310   2.925   5.476   0.636  1.1375  0.7395  0.1785
  240MOL0     C32311   2.803   5.426   0.612  0.4937  0.8780  0.8907
  240MOL0     O32312   2.698   5.316   0.277  0.1779  0.0914 -0.1118
  240MOL0     C32313   2.362   5.319   0.377 -0.2702 -0.3298 -1.0946
  240MOL0     C32314   2.237   5.301   0.328 -0.3178 -1.3112  0.0529
  240MOL0     N32315   1.899   4.950  -0.292 -0.5311 -0.0206  0.5534
  240MOL0     N32316   1.796   4.892  -0.343 -0.1008 -0.2359 -0.4984
  240MOL0     C32317   1.026   4.248   0.480 -0.8981 -0.1579 -0.1108
  240MOL0     C32318   0.938   4.173   0.554 -0.1003 -0.1293 -0.3445
  240MOL0     C32319   0.762   3.839   0.793 -0.0243 -0.3587  0.1980
  240MOL0     C32320   0.729   3.866   0.926 -0.2779 -0.1838  0.4227
  240MOL0     C32321   0.615   3.811   0.980 -0.1531  0.3764 -0.0433
  240MOL0     C32322   0.532   3.722   0.907  0.3059  0.7316 -0.4431
  240MOL0     O32323   0.404   3.671   0.952  0.2196 -0.4606 -0.4682
  240MOL0     C32324   0.389   3.668   1.100 -0.1206  0.0811  0.8137
  240MOL0     C32325   0.250   3.628   1.144 -0.3292  0.6048  0.0077
  240MOL0     C32326   0.149   3.726   1.077  0.6216  0.0789 -0.2366
  240MOL0     C32327   0.163   3.879   1.121  0.3254  0.5560  0.1829
  240MOL0     C32328   0.156   3.895   1.263  0.1484  0.8290  0.1452
  240MOL0     C32329   0.150   3.903   1.382 -0.4481 -0.3316  0.2797
  240MOL0     C32330   0.556   3.698   0.768  0.1936 -0.6545 -0.1117
  240MOL0     C32331   0.672   3.758   0.715 -0.1290 -0.5531 -0.4056
  240MOL0     C32332   0.689   3.752   0.560 -0.1884 -1.5146  0.9943
  240MOL0     H32333   1.144   4.055   0.797 -1.1208 -1.9206 -0.0162
  240MOL0     H32334   1.312   4.190   0.658  0.6549  0.6246 -0.7033
  240MOL0     H32335   1.194   4.289   0.277  1.7661 -2.9087  1.5777
  240MOL0     H32336   1.181   4.457   0.315  0.7025  0.8786  1.9847
  240MOL0     H32337   1.451   4.311   0.256  0.2265  0.0333  0.1857
  240MOL0     H32338   1.441   4.475   0.302  2.1230  0.6648 -2.2097
  240MOL0     H32339   1.285   4.537   0.104  1.4889  1.0135  1.6017
  240MOL0     H32340   1.268   4.363   0.080  0.2104 -0.1683  1.7566
  240MOL0     H32341   1.514   4.542   0.065  0.9133  0.7133 -2.1004
  240MOL0     H32342   1.524   4.378   0.014 -0.4520 -0.1777  1.1259
  240MOL0     H32343   1.347   4.418  -0.173 -0.1016  0.4762 -0.1383
  240MOL0     H32344   1.340   4.586  -0.114  0.0705  1.3494 -3.7549
  240MOL0     H32345   1.575   4.443  -0.235  0.4645  1.1739  0.0425
  240MOL0     H32346   1.450   4.528  -0.328 -0.8405  2.3480  0.9471
  240MOL0     H32347   1.615   4.666  -0.112  2.7673  4.1675 -1.4044
  240MOL0     H32348   1.485   4.744  -0.208 -4.2644 -2.8228  2.1964
  240MOL0     H32349   1.722   4.570  -0.326  0.2710  0.2171 -2.7092
  240MOL0     H32350   1.642   4.687  -0.407 -0.5451  0.4759  0.3460
  240MOL0     H32351   1.897   4.673  -0.120 -2.2672 -2.9600 -2.8085
  240MOL0     H32352   2.167   4.825  -0.143  0.7620  0.8726  0.5342
  240MOL0     H32353   2.124   4.992  -0.152  2.6975 -1.7766  1.6206
  240MOL0     H32354   1.971   4.842   0.056 -0.4488  0.6772  0.1711
  240MOL0     H32355   2.141   4.796   0.060  2.1919  1.0460 -1.4051
  240MOL0     H32356   2.215   5.020   0.120 -0.4749  2.5897 -0.3054
  240MOL0     H32357   2.078   4.986   0.228 -1.4855 -1.6645 -0.6171
  240MOL0     H32358   1.929   5.127   0.088 -0.2024 -1.6431 -0.0571
  240MOL0     H32359   2.072   5.160  -0.021  2.8449  2.4970  0.8931
  240MOL0     H32360   2.307   5.209   0.011  2.7539 -4.6033  2.2187
  240MOL0     H32361   2.527   5.263   0.083  1.2475  2.0144  0.7209
  240MOL0     H32362   2.745   5.607   0.328 -0.7990 -3.3377 -0.8329
  240MOL0     H32363   2.954   5.712   0.410  0.8769 -2.6821 -1.6371
  240MOL0     H32364   3.183   5.634   0.422 -1.3335  1.6108  0.0335
  240MOL0     H32365   3.160   5.780   0.520  0.4287  0.7119  0.2132
  240MOL0     H32366   3.341   5.669   0.680 -0.6822 -1.6054  0.9679
  240MOL0     H32367   3.361   5.560   0.539 -0.9192 -2.3189  3.3450
  240MOL0     H32368   3.409   5.728   0.391  0.8889  2.2233 -1.0371
  240MOL0     H32369   3.378   5.858   0.498 -1.4800 -0.6826 -5.6451
  240MOL0     H32370   3.574   5.648   0.610 -2.4996 -1.2096 -1.3595
  240MOL0     H32371   3.565   5.822   0.623  0.6090 -1.1829  1.9662
  240MOL0     H32372   3.630   5.854   0.398 -1.9574 -0.3507  0.0486
  240MOL0     H32373   3.656   5.669   0.381  1.1657 -1.2303  0.7833
  240MOL0     H32374   3.785   5.763   0.615  1.0899 -2.5376  0.9661
  240MOL0     H32375   3.840   5.656   0.489  3.1359  0.3638  1.1566
  240MOL0     H32376   3.961   5.888   0.533  0.0718  1.0822 -0.2832
  240MOL0     H32377   3.834   5.956   0.418  2.5366  0.4814 -1.5714
  240MOL0     H32378   3.998   5.715   0.371  1.3684 -0.5169 -2.5196
  240MOL0     H32379   3.902   5.791   0.248  1.3244  1.5864 -1.5438
  240MOL0     H32380   2.982   5.425   0.712  1.5514  1.0544  0.0848
  240MOL0     H32381   2.755   5.340   0.657 -1.3812 -0.3025 -2.9240
  240MOL0     H32382   2.379   5.357   0.477  2.2357 -0.8660 -1.2504
  240MOL0     H32383   2.153   5.318   0.394 -1.1184 -0.5193 -1.1243
  240MOL0     H32384   1.000   4.313   0.397  1.8908  1.9734  0.5343
  240MOL0     H32385   0.835   4.162   0.523  0.2305  0.4886 -1.7033
  240MOL0     H32386   0.785   3.943   0.978 -2.8130  1.5029  0.8255
  240MOL0     H32387   0.592   3.847   1.080  0.1026 -2.3675  1.1073
  240MOL0     H32388   0.415   3.764   1.144  0.0877  0.7160 -0.6435
  240MOL0     H32389   0.457   3.593   1.140  0.0784 -0.4513 -0.4819
  240MOL0     H32390   0.243   3.623   1.253  0.2861 -1.5578  0.0014
  240MOL0     H32391   0.223   3.529   1.105 -1.4889  1.0798 -0.4333
  240MOL0     H32392   0.054   3.682   1.105  1.5095 -0.4477  2.2308
  240MOL0     H32393   0.159   3.715   0.969 -1.2333 -0.8807 -0.3365
  240MOL0     H32394   0.253   3.919   1.073  0.8931 -1.4975 -0.5586
  240MOL0     H32395   0.086   3.936   1.067  0.1597  0.2494  0.0929
  240MOL0     H32396   0.162   3.926   1.486  4.0510 -0.0211 -0.1187
  240MOL0     H32397   0.490   3.636   0.709  0.4455 -1.4252  0.4007
  240MOL0     H32398   0.762   3.676   0.531  2.6744  0.4954  2.4886
  240MOL0     H32399   0.599   3.713   0.510  0.6766 -4.5323  1.5768
  240MOL0     H32400   0.729   3.844   0.516  1.1035 -2.6634 -0.3139
  241MOL0     O32401   4.592   2.837   8.655 -0.6048  0.2976  0.2192
  241MOL0     C32402   4.621   2.728   8.609  0.3273 -1.1076 -0.2686
  241MOL0     O32403   4.744   2.670   8.616  0.4044  0.3493 -0.1597
  241MOL0     C32404   4.840   2.745   8.681 -0.3022 -0.0432  0.3094
  241MOL0     C32405   4.850   2.745   8.819 -0.1903  1.0111 -0.1689
  241MOL0     C32406   4.948   2.818   8.887  0.4185  0.1907 -0.3561
  241MOL0     C32407   5.033   2.893   8.815 -0.5765  0.0769  0.8127
  241MOL0     O32408   5.124   2.971   8.879 -0.5233  0.5491 -0.0676
  241MOL0     C32409   5.262   2.968   8.821  0.2748  0.0993  0.3818
  241MOL0     C32410   5.369   3.022   8.912 -0.3186  0.1133  0.1069
  241MOL0     C32411   5.368   3.165   8.957 -0.1445 -0.5762  0.1363
  241MOL0     C32412   5.500   3.209   9.036  0.1296  0.1947  0.3964
  241MOL0     C32413   5.486   3.362   9.072 -0.1200  0.1114 -0.0061
  241MOL0     C32414   5.586   3.412   9.176  0.3147 -1.2510 -0.3769
  241MOL0     C32415   5.554   3.377   9.322 -0.4991 -0.8431  0.6798
  241MOL0     C32416   5.645   3.461   9.413  0.5172  0.0133 -0.4492
  241MOL0     N32417   5.657   3.393   9.543 -0.2978 -0.3014  0.0707
  241MOL0     C32418   5.764   3.316   9.564  0.4872  0.6403 -0.4691
  241MOL0     C32419   5.744   3.271   9.690  0.1587  0.5754 -0.3636
  241MOL0     C32420   5.826   3.193   9.785  0.1231 -0.5599 -0.5278
  241MOL0     C32421   5.929   3.289   9.849 -0.0828  0.1724 -0.7756
  241MOL0     C32422   6.076   3.288   9.785  0.5521  0.8759 -0.2054
  241MOL0     C32423   6.157   3.409   9.831 -0.2048  0.5128 -0.5265
  241MOL0     O32424   6.286   3.412   9.778 -0.4078 -0.7054  0.5815
  241MOL0     C32425   6.386   3.339   9.826  0.2129  0.2386  0.0367
  241MOL0     C32426   6.387   3.266   9.946 -1.0116 -0.2389 -0.4477
  241MOL0     C32427   6.504   3.217  10.003 -0.1103 -0.3980  0.2579
  241MOL0     C32428   6.629   3.230   9.938  0.0669  0.3481 -0.1991
  241MOL0     C32429   6.748   3.143   9.978  0.7392 -0.1884 -0.9731
  241MOL0     O32430   6.830   3.117   9.868  0.3418  0.2359  0.2226
  241MOL0     C32431   6.931   3.023   9.871 -0.3148 -0.2366 -0.5207
  241MOL0     C32432   7.054   3.057   9.817  0.0646  0.7638 -0.4600
  241MOL0     C32433   7.164   2.968   9.849 -0.4657  0.3885 -0.0536
  241MOL0     C32434   7.154   2.848   9.919 -0.2258  0.2191 -1.1532
  241MOL0     O32435   7.260   2.760   9.953 -0.0897 -0.1942  0.2371
  241MOL0     C32436   7.393   2.800   9.969 -0.6353  0.3540  0.3160
  241MOL0     C32437   7.488   2.677   9.991 -0.1009 -0.1330  0.4190
  241MOL0     C32438   7.629   2.697   9.947  0.6966  0.6573  0.1280
  241MOL0     C32439   7.699   2.560   9.969 -0.5481  0.3781 -0.3220
  241MOL0     C32440   7.847   2.556   9.922 -0.0580 -0.1868  0.7970
  241MOL0     C32441   7.893   2.412   9.926  0.2746  0.4539 -0.5161
  241MOL0     C32442   8.033   2.408   9.855  0.5853  0.2366 -0.0410
  241MOL0     C32443   8.057   2.279   9.787  0.1907  0.3222 -0.3857
  241MOL0    Cl32444   8.227   2.249   9.720 -0.6899  0.0249 -0.1211
  241MOL0     C32445   7.027   2.818   9.957 -0.0212  0.3700  0.6229
  241MOL0     C32446   6.919   2.904   9.939 -0.0530 -0.1933 -0.1755
  241MOL0     O32447   6.748   3.087  10.091  0.8804 -0.0012 -0.4651
  241MOL0     C32448   6.633   3.293   9.812  0.1166 -0.1371  0.6820
  241MOL0     C32449   6.511   3.346   9.760  0.0879  0.1366  0.3029
  241MOL0     N32450   5.628   3.332   9.742 -0.2591  0.2140  0.0816
  241MOL0     N32451   5.577   3.414   9.652 -0.0353  0.4380  0.7192
  241MOL0     C32452   5.020   2.904   8.678  0.5888 -0.2304  0.2857
  241MOL0     C32453   4.917   2.830   8.608  0.2854  0.2081  0.1196
  241MOL0     C32454   4.512   2.671   8.533  0.1768 -0.2605 -0.9865
  241MOL0     C32455   4.411   2.751   8.474 -0.3744 -0.1844 -0.2266
  241MOL0     C32456   4.301   2.718   8.401 -0.4000  0.1360  1.0704
  241MOL0     C32457   4.285   2.577   8.372  1.0638 -0.1439  0.3817
  241MOL0     O32458   4.183   2.520   8.299 -0.5923 -0.0535  0.0834
  241MOL0     C32459   4.092   2.603   8.222  0.0728  0.7089  0.1015
  241MOL0     C32460   3.974   2.527   8.188  0.9729  0.4567 -0.0245
  241MOL0     C32461   3.989   2.411   8.084  0.7505 -0.3643  0.6518
  241MOL0     C32462   3.847   2.358   8.042  0.2199  0.6610 -0.2211
  241MOL0     C32463   3.870   2.225   7.991 -0.9971  0.7511 -0.2923
  241MOL0     C32464   3.894   2.107   7.966 -0.4858 -0.3594  0.0182
  241MOL0     C32465   4.385   2.491   8.425  0.6947  0.3813 -0.5141
  241MOL0     C32466   4.496   2.535   8.505 -0.3653  0.1527 -0.0461
  241MOL0     C32467   4.576   2.430   8.576  0.8221 -0.1891 -0.7697
  241MOL0     H32468   4.769   2.693   8.870 -2.9132  2.2165 -2.8875
  241MOL0     H32469   4.938   2.817   8.995 -1.5531 -1.4374 -0.5067
  241MOL0     H32470   5.281   2.863   8.798  1.7343  0.2770  0.6957
  241MOL0     H32471   5.265   3.032   8.733  2.5404 -1.1315 -0.5197
  241MOL0     H32472   5.465   3.001   8.864 -0.4632  0.8130 -0.5098
  241MOL0     H32473   5.372   2.969   9.008  0.1035  2.1864  1.3082
  241MOL0     H32474   5.294   3.185   9.034  0.6902 -2.1757  1.4196
  241MOL0     H32475   5.346   3.222   8.866  2.7315 -1.9754 -1.6256
  241MOL0     H32476   5.511   3.145   9.125  0.7418 -0.0565  0.1439
  241MOL0     H32477   5.582   3.203   8.964 -0.7920  2.8587 -1.0002
  241MOL0     H32478   5.499   3.411   8.975 -0.9854 -1.1274 -0.7703
  241MOL0     H32479   5.389   3.379   9.119 -0.3538  1.5874 -0.9693
  241MOL0     H32480   5.689   3.390   9.144  0.4790 -1.6395  0.3869
  241MOL0     H32481   5.582   3.521   9.176  3.4318 -1.0482 -0.8772
  241MOL0     H32482   5.564   3.270   9.341  1.5343 -0.1851  4.2091
  241MOL0     H32483   5.451   3.405   9.344 -1.2495 -2.4865 -0.5106
  241MOL0     H32484   5.747   3.463   9.375  3.1877 -2.1372  5.3694
  241MOL0     H32485   5.599   3.560   9.420 -2.5664 -1.1029 -2.6175
  241MOL0     H32486   5.849   3.313   9.496  1.0032  3.6305 -0.0880
  241MOL0     H32487   5.753   3.153   9.856 -0.5305 -0.7549 -1.2956
  241MOL0     H32488   5.882   3.118   9.728  1.8231  1.2530 -1.3507
  241MOL0     H32489   5.883   3.388   9.842 -0.6837  0.6142  5.0079
  241MOL0     H32490   5.936   3.268   9.956  3.7352 -2.3653 -1.3251
  241MOL0     H32491   6.076   3.294   9.676 -2.3150 -0.2030 -0.3570
  241MOL0     H32492   6.117   3.190   9.811  2.4993  1.4718 -0.8748
  241MOL0     H32493   6.160   3.391   9.939  1.3487  0.1694 -0.6009
  241MOL0     H32494   6.120   3.509   9.809  6.0935  3.0780 -1.6739
  241MOL0     H32495   6.299   3.253  10.009 -0.6717 -1.1950 -0.1542
  241MOL0     H32496   6.495   3.141  10.080 -0.8529 -2.5741 -1.8438
  241MOL0     H32497   7.079   3.150   9.767 -2.1678 -0.1043 -3.5159
  241MOL0     H32498   7.266   2.994   9.826 -0.8668  3.0277  0.8741
  241MOL0     H32499   7.430   2.845   9.876  3.5865 -3.3098 -0.0977
  241MOL0     H32500   7.406   2.867  10.054  1.4758  1.7549 -1.0153
  241MOL0     H32501   7.494   2.634  10.091 -0.8157 -1.8310 -0.2283
  241MOL0     H32502   7.457   2.593   9.928 -0.6555  0.6132 -0.3496
  241MOL0     H32503   7.636   2.737   9.845  4.0241  3.7267  1.3225
  241MOL0     H32504   7.673   2.786   9.993 -0.2590  1.0814  0.2308
  241MOL0     H32505   7.657   2.480   9.906  1.7868 -1.4652  0.2884
  241MOL0     H32506   7.691   2.526  10.073  0.2678  0.2740 -0.2846
  241MOL0     H32507   7.916   2.604   9.992  2.6490 -1.4073 -0.8322
  241MOL0     H32508   7.853   2.587   9.817 -1.3240 -2.4010 -0.0086
  241MOL0     H32509   7.896   2.377  10.030  0.4781  0.5226 -0.4982
  241MOL0     H32510   7.816   2.352   9.878 -3.4271  2.3360  2.5427
  241MOL0     H32511   8.111   2.437   9.925 -0.8836  1.4134  1.1676
  241MOL0     H32512   8.046   2.482   9.776  0.1090 -1.3377 -1.6642
  241MOL0     H32513   8.022   2.191   9.841  1.5532  1.0187  1.7335
  241MOL0     H32514   7.991   2.279   9.699 -2.6462 -2.5674  1.4975
  241MOL0     H32515   7.011   2.719   9.998 -0.2708  0.2137  0.1598
  241MOL0     H32516   6.817   2.878   9.965 -1.3028  2.1432 -2.2692
  241MOL0     H32517   6.722   3.303   9.751 -0.7798  1.3450 -0.4509
  241MOL0     H32518   6.531   3.398   9.667  0.9941  2.2062  1.5938
  241MOL0     H32519   5.083   2.971   8.620  2.1292  2.5011  4.6533
  241MOL0     H32520   4.907   2.842   8.500  3.2061  3.0102  0.0187
  241MOL0     H32521   4.416   2.858   8.490  2.7698 -0.6170  2.5681
  241MOL0     H32522   4.234   2.790   8.357  1.3317  0.6415 -0.9322
  241MOL0     H32523   4.134   2.654   8.135 -0.9512  2.0196  0.3478
  241MOL0     H32524   4.039   2.667   8.292 -3.5029 -2.1691  0.3492
  241MOL0     H32525   3.917   2.606   8.139  0.7703  0.4383  0.1794
  241MOL0     H32526   3.907   2.498   8.270 -1.4038  1.8042 -1.3877
  241MOL0     H32527   4.050   2.334   8.132  1.0540  0.9235  2.4195
  241MOL0     H32528   4.046   2.446   7.997 -1.9576  1.8519 -0.3813
  241MOL0     H32529   3.789   2.349   8.134  1.6070  1.8144  0.8128
  241MOL0     H32530   3.793   2.423   7.972  0.8341  2.4419  0.9068
  241MOL0     H32531   3.911   2.011   7.922  2.1531 -0.3494  0.8325
  241MOL0     H32532   4.366   2.386   8.406  0.6680 -0.0896  1.7612
  241MOL0     H32533   4.582   2.450   8.683 -3.6328 -0.9631 -0.1499
  241MOL0     H32534   4.528   2.333   8.557  0.3097 -0.3264  1.0946
  241MOL0     H32535   4.669   2.423   8.519 -0.7193 -0.9008 -3.4006
  242MOL0     O32536   1.908  10.091   6.466 -0.2321 -0.6343  0.4406
  242MOL0     C32537   1.970  10.052   6.365 -0.9468  0.5010 -0.5601
  242MOL0     O32538   1.977  10.122   6.243 -0.9773 -0.3998 -0.4621
  242MOL0     C32539   1.901  10.243   6.234 -0.5446 -0.4067 -0.8318
  242MOL0     C32540   1.762  10.257   6.228  0.4270  0.4146  0.0009
  242MOL0     C32541   1.713  10.387   6.220  0.7283 -0.3313 -0.1166
  242MOL0     C32542   1.792  10.492   6.206  0.2065 -0.6762 -0.2611
  242MOL0     O32543   1.749  10.616   6.192 -0.8924  0.5377  0.5591
  242MOL0     C32544   1.760  10.691   6.316  0.3912  0.4208 -0.0792
  242MOL0     C32545   1.760  10.845   6.279 -0.2056 -0.1846  0.1265
  242MOL0     C32546   1.775  10.934   6.405 -0.5884 -0.2936  0.6151
  242MOL0     C32547   1.918  10.933   6.461 -0.6565 -0.3137 -0.3637
  242MOL0     C32548   1.908  11.001   6.597  0.0262  0.5284 -0.3903
  242MOL0     C32549   2.032  10.987   6.681 -0.8256  0.3056  1.3326
  242MOL0     C32550   2.022  11.069   6.812  0.7827  0.1522  0.3162
  242MOL0     C32551   2.140  11.067   6.901  0.6479 -0.8124 -0.5799
  242MOL0     N32552   2.267  11.108   6.843 -0.2158  0.4892 -0.1815
  242MOL0     C32553   2.291  11.234   6.795 -0.1870  0.0313 -0.7179
  242MOL0     C32554   2.426  11.236   6.762  0.8852  0.8522  0.3666
  242MOL0     C32555   2.494  11.360   6.695 -0.3703 -0.2595  0.6531
  242MOL0     C32556   2.495  11.337   6.538  0.3655  1.1640  0.4513
  242MOL0     C32557   2.544  11.466   6.462 -0.0302 -0.1217  0.4694
  242MOL0     C32558   2.591  11.437   6.321 -0.3440  0.5635  0.2738
  242MOL0     O32559   2.495  11.365   6.246  0.1491  0.4058  0.1553
  242MOL0     C32560   2.498  11.366   6.113 -0.9907 -0.2289  0.0827
  242MOL0     C32561   2.390  11.303   6.059  0.9023  0.3508 -0.3929
  242MOL0     C32562   2.368  11.299   5.924 -0.0816 -0.0937 -0.0749
  242MOL0     C32563   2.456  11.350   5.827  0.1237  0.5260  0.2248
  242MOL0     C32564   2.448  11.316   5.677  0.8640 -0.5025  0.1331
  242MOL0     O32565   2.342  11.245   5.637 -0.1398 -0.2004  0.2151
  242MOL0     C32566   2.329  11.214   5.502 -0.2782 -0.4359 -0.3261
  242MOL0     C32567   2.357  11.085   5.474 -0.0264  0.0995  0.4684
  242MOL0     C32568   2.348  11.040   5.341 -0.2118  0.0157  1.1629
  242MOL0     C32569   2.319  11.135   5.238 -0.3307  0.5726  0.2577
  242MOL0     O32570   2.337  11.109   5.097  0.0155 -0.4269 -0.6800
  242MOL0     C32571   2.226  11.147   5.024 -0.6428 -0.3357 -0.2119
  242MOL0     C32572   2.236  11.083   4.886 -0.8998 -0.2396  0.0628
  242MOL0     C32573   2.146  11.166   4.788 -1.6201 -0.7667 -0.8103
  242MOL0     C32574   2.130  11.073   4.667 -0.3797  0.9193 -0.1984
  242MOL0     C32575   2.080  11.154   4.547  0.2030 -0.3752 -0.1958
  242MOL0     C32576   1.988  11.273   4.564 -0.5506  0.2189 -0.1915
  242MOL0     C32577   1.858  11.222   4.629  0.7238  0.4648 -0.6490
  242MOL0     C32578   1.761  11.341   4.650  1.0629 -1.0580  0.2749
  242MOL0    Cl32579   1.616  11.265   4.723  0.3131 -0.3175  0.0427
  242MOL0     C32580   2.290  11.263   5.271 -0.1603  0.9798 -0.1636
  242MOL0     C32581   2.292  11.307   5.406  0.4890  0.1104  0.0278
  242MOL0     O32582   2.547  11.349   5.617 -0.5502  0.6085  0.2115
  242MOL0     C32583   2.571  11.409   5.877  0.6603 -0.2793  0.3206
  242MOL0     C32584   2.593  11.422   6.018 -0.0495 -0.4212 -0.2621
  242MOL0     N32585   2.478  11.105   6.778 -0.1942 -0.5393 -0.0656
  242MOL0     N32586   2.379  11.035   6.828 -0.0444  0.6787 -0.1834
  242MOL0     C32587   1.929  10.478   6.206  0.4525 -0.7035 -0.6556
  242MOL0     C32588   1.990  10.349   6.219  0.1105  1.0179  0.8378
  242MOL0     C32589   2.053   9.934   6.365 -0.6510  0.0867 -0.0567
  242MOL0     C32590   2.157   9.909   6.275 -0.5152 -0.5806  0.4844
  242MOL0     C32591   2.245   9.806   6.268 -0.2692  0.4355  0.0853
  242MOL0     C32592   2.224   9.701   6.354 -0.0415 -0.3904  0.0939
  242MOL0     O32593   2.305   9.594   6.338 -0.2197 -0.3249  0.3337
  242MOL0     C32594   2.297   9.488   6.427  0.1103  1.0206  0.0681
  242MOL0     C32595   2.350   9.507   6.569  0.1351  0.0100 -0.6796
  242MOL0     C32596   2.309   9.402   6.669 -0.9454  0.0318  0.2565
  242MOL0     C32597   2.174   9.416   6.735 -0.9858 -0.4868 -0.4728
  242MOL0     C32598   2.061   9.350   6.662 -0.2478  0.4578 -0.3390
  242MOL0     C32599   1.994   9.294   6.578  0.3237  0.0301  0.3181
  242MOL0     C32600   2.115   9.720   6.457  0.0876  0.0561  0.9577
  242MOL0     C32601   2.037   9.840   6.466 -0.1225  0.1466  0.0748
  242MOL0     C32602   1.942   9.847   6.575 -0.0356 -0.6388 -0.4701
  242MOL0     H32603   1.704  10.166   6.220 -3.2048  2.5058  0.2536
  242MOL0     H32604   1.605  10.388   6.210  0.8050 -1.0840 -1.3181
  242MOL0     H32605   1.672  10.677   6.378 -1.4482  3.0550 -1.8815
  242MOL0     H32606   1.842  10.654   6.378  0.5058  4.5194  2.5864
  242MOL0     H32607   1.674  10.874   6.217 -0.0371  1.4033  0.5765
  242MOL0     H32608   1.854  10.873   6.230  0.4809 -0.3290  1.3265
  242MOL0     H32609   1.700  10.900   6.477 -2.2323 -1.9282 -1.7360
  242MOL0     H32610   1.760  11.040   6.384 -1.1231 -0.7889 -1.7333
  242MOL0     H32611   1.956  10.832   6.475 -0.6019 -0.4050 -1.1018
  242MOL0     H32612   1.989  10.984   6.396  2.3369 -1.0707  2.1033
  242MOL0     H32613   1.892  11.108   6.580 -0.1982  0.8375  1.5494
  242MOL0     H32614   1.824  10.965   6.656 -0.5831  2.5160  0.0079
  242MOL0     H32615   2.044  10.884   6.714  0.4240  0.3656  1.0826
  242MOL0     H32616   2.119  11.021   6.624 -0.9783 -1.2765  0.1006
  242MOL0     H32617   1.931  11.032   6.859  0.1691  0.0549 -0.8910
  242MOL0     H32618   2.005  11.175   6.791  1.9130  0.3630  0.4167
  242MOL0     H32619   2.126  11.133   6.987  2.0511 -2.0107  0.6437
  242MOL0     H32620   2.153  10.965   6.940  3.0816  0.1678  1.5369
  242MOL0     H32621   2.224  11.318   6.783 -0.8998 -0.7258 -2.2946
  242MOL0     H32622   2.445  11.451   6.729  1.2542 -0.0700  2.6639
  242MOL0     H32623   2.601  11.366   6.718  0.0688  0.9429 -1.4069
  242MOL0     H32624   2.555  11.251   6.506 -2.1645  0.9123 -4.5328
  242MOL0     H32625   2.391  11.318   6.511  0.0690  1.0955  1.6105
  242MOL0     H32626   2.621  11.521   6.517  0.5261 -0.5241  0.1003
  242MOL0     H32627   2.454  11.528   6.458  0.7588  1.0952  1.0260
  242MOL0     H32628   2.680  11.374   6.327 -0.1733  0.9769  3.5819
  242MOL0     H32629   2.609  11.536   6.279 -1.4570  0.9458  0.6572
  242MOL0     H32630   2.304  11.271   6.118 -0.2383 -0.5208 -2.4160
  242MOL0     H32631   2.279  11.247   5.889  2.4790 -3.6430 -1.9819
  242MOL0     H32632   2.390  11.013   5.549  1.6528  0.0069 -0.3198
  242MOL0     H32633   2.388  10.946   5.305  0.1873  1.0023 -1.1955
  242MOL0     H32634   2.138  11.118   5.082 -0.0038 -1.5586  0.1766
  242MOL0     H32635   2.231  11.255   5.010 -0.1790 -0.5274 -1.6817
  242MOL0     H32636   2.339  11.077   4.852 -1.8361 -2.5367 -2.7702
  242MOL0     H32637   2.203  10.979   4.894 -2.5492  0.2556  0.0672
  242MOL0     H32638   2.056  11.202   4.839  0.2962  1.2178  1.4160
  242MOL0     H32639   2.210  11.249   4.756  0.2331 -2.1807 -0.9605
  242MOL0     H32640   2.065  10.989   4.692  0.2985 -0.4101 -2.6242
  242MOL0     H32641   2.223  11.031   4.627 -0.9389  2.0771 -2.9477
  242MOL0     H32642   2.017  11.087   4.488 -0.7797  0.1390  0.2494
  242MOL0     H32643   2.163  11.187   4.484 -2.0118  1.3700 -2.4554
  242MOL0     H32644   2.031  11.349   4.631 -0.7902 -0.5495  0.8544
  242MOL0     H32645   1.962  11.311   4.465 -2.8647  0.7680  0.5621
  242MOL0     H32646   1.875  11.169   4.723  0.2821  2.8090  0.8468
  242MOL0     H32647   1.814  11.146   4.565 -0.3743 -0.6352  1.3051
  242MOL0     H32648   1.795  11.419   4.718 -0.1487  0.0428 -0.3422
  242MOL0     H32649   1.729  11.384   4.555 -1.9559 -2.7981  0.3533
  242MOL0     H32650   2.260  11.331   5.193 -0.6052  2.2568  1.0682
  242MOL0     H32651   2.261  11.405   5.438 -3.0077 -0.5995 -0.8242
  242MOL0     H32652   2.657  11.439   5.817 -0.6632  0.4752 -1.2924
  242MOL0     H32653   2.673  11.485   6.054  0.4230 -0.7351 -0.7583
  242MOL0     H32654   1.984  10.571   6.204  1.9328 -1.5261 -0.0478
  242MOL0     H32655   2.098  10.337   6.220 -0.0818 -1.1366  2.0511
  242MOL0     H32656   2.178   9.994   6.211  1.9289 -2.5374 -1.5329
  242MOL0     H32657   2.318   9.814   6.188 -0.9227  1.7314 -0.4063
  242MOL0     H32658   2.335   9.394   6.386 -3.4448 -0.5637  0.0180
  242MOL0     H32659   2.192   9.458   6.427  0.6081 -0.8776 -0.5072
  242MOL0     H32660   2.313   9.601   6.612  2.5213  1.5668 -1.8300
  242MOL0     H32661   2.459   9.509   6.563  0.1061 -1.0330 -1.8943
  242MOL0     H32662   2.389   9.412   6.743  0.2398  2.5598 -1.2215
  242MOL0     H32663   2.317   9.299   6.633  1.8459  0.1641  0.2474
  242MOL0     H32664   2.185   9.387   6.840  1.4196 -0.6432 -0.7110
  242MOL0     H32665   2.152   9.523   6.728 -1.6640 -0.7186 -2.4107
  242MOL0     H32666   1.935   9.234   6.512 -3.2925  3.9926 -0.4276
  242MOL0     H32667   2.086   9.638   6.523 -1.1859 -0.1143  0.2350
  242MOL0     H32668   1.986   9.918   6.646  3.1072 -2.6162 -0.2542
  242MOL0     H32669   1.845   9.878   6.533 -0.0558  0.1560  0.1394
  242MOL0     H32670   1.926   9.751   6.624 -1.1607 -0.6809 -0.8889
  243MOL0     O32671   5.700   3.888   2.874  0.1847  0.5482 -0.1254
  243MOL0     C32672   5.662   3.782   2.917  0.4914  0.0472  1.0659
  243MOL0     O32673   5.593   3.766   3.038 -0.1035 -0.0031 -0.3166
  243MOL0     C32674   5.555   3.873   3.113  1.7092 -0.4740  0.8472
  243MOL0     C32675   5.440   3.942   3.067  1.3030  0.7290 -0.0541
  243MOL0     C32676   5.390   4.059   3.142 -0.2176 -0.6283  0.0148
  243MOL0     C32677   5.455   4.107   3.258 -0.8576  0.5315  0.4404
  243MOL0     O32678   5.407   4.223   3.310  0.1089 -0.4677 -0.1313
  243MOL0     C32679   5.490   4.299   3.400  0.6542  1.0281  0.0293
  243MOL0     C32680   5.411   4.432   3.419  0.6903  0.5072 -1.6069
  243MOL0     C32681   5.281   4.401   3.505  0.2253 -0.9769 -0.0710
  243MOL0     C32682   5.222   4.537   3.558 -0.6706  0.5669 -0.7809
  243MOL0     C32683   5.106   4.493   3.656 -0.7206  0.1259 -0.6027
  243MOL0     C32684   4.992   4.603   3.661 -0.2943 -0.2201  0.2828
  243MOL0     C32685   5.020   4.708   3.770  0.1302 -0.2963 -0.3115
  243MOL0     C32686   4.938   4.836   3.760 -0.1463  0.3235 -0.4666
  243MOL0     N32687   4.993   4.931   3.669 -0.2879  0.7488  0.1518
  243MOL0     C32688   4.951   4.956   3.537 -0.4333  1.3229 -0.4511
  243MOL0     C32689   5.062   4.969   3.465 -0.3515 -0.5489  0.5415
  243MOL0     C32690   5.064   4.997   3.311 -0.7698  0.0206 -1.2393
  243MOL0     C32691   5.211   4.965   3.251 -0.3451  0.7277  0.6333
  243MOL0     C32692   5.212   4.971   3.095  0.1986  0.6887  0.6656
  243MOL0     C32693   5.173   5.117   3.046 -0.3689  0.2555 -0.7240
  243MOL0     O32694   5.235   5.227   3.118  0.6083 -0.6259 -0.0101
  243MOL0     C32695   5.237   5.350   3.063  0.0894 -0.0955  0.2311
  243MOL0     C32696   5.324   5.448   3.121  0.0059  0.3323  0.4449
  243MOL0     C32697   5.334   5.572   3.073 -0.6207 -0.2595  1.3179
  243MOL0     C32698   5.273   5.605   2.951 -0.0462 -0.2521 -0.2728
  243MOL0     C32699   5.310   5.733   2.891 -0.1241  0.4100 -0.1256
  243MOL0     O32700   5.239   5.764   2.782  0.4980  0.0644  0.4049
  243MOL0     C32701   5.287   5.847   2.680 -0.0554  0.3878 -0.0084
  243MOL0     C32702   5.429   5.886   2.664 -0.2204 -0.0154 -0.1135
  243MOL0     C32703   5.458   5.973   2.557  0.1359 -0.2737 -0.5573
  243MOL0     C32704   5.359   6.022   2.471 -0.6421 -0.0476 -0.6095
  243MOL0     O32705   5.403   6.107   2.380 -0.1966 -0.1000 -0.0246
  243MOL0     C32706   5.456   6.066   2.253 -0.9072 -0.1745  0.5678
  243MOL0     C32707   5.438   6.183   2.151 -0.0389 -0.0970 -0.0599
  243MOL0     C32708   5.536   6.304   2.186  0.2675  0.4053  0.6418
  243MOL0     C32709   5.531   6.424   2.097  0.0826  0.4378 -0.2130
  243MOL0     C32710   5.649   6.523   2.128  0.8371  0.5117  0.5725
  243MOL0     C32711   5.697   6.599   2.000 -0.2306  0.3329 -0.0314
  243MOL0     C32712   5.589   6.635   1.903  0.8565 -0.1793  0.2382
  243MOL0     C32713   5.487   6.731   1.959  0.1719  0.0154 -0.3171
  243MOL0    Cl32714   5.550   6.879   2.019 -0.1738  0.2705  0.2213
  243MOL0     C32715   5.230   5.984   2.486  0.3315  2.0332 -0.2230
  243MOL0     C32716   5.194   5.896   2.588 -0.4620 -0.0914  0.6556
  243MOL0     O32717   5.386   5.814   2.944  0.1376 -0.0921 -0.3844
  243MOL0     C32718   5.182   5.511   2.903  0.2667 -0.9638 -0.0521
  243MOL0     C32719   5.158   5.388   2.961  0.7240 -0.1386  0.5992
  243MOL0     N32720   5.166   4.964   3.556 -0.1140 -0.3695  0.2860
  243MOL0     N32721   5.125   4.945   3.675  0.5383 -0.6588 -0.3151
  243MOL0     C32722   5.571   4.034   3.299  0.3724 -0.0848  0.5293
  243MOL0     C32723   5.623   3.929   3.223 -0.2839 -0.5074  0.4221
  243MOL0     C32724   5.695   3.655   2.848 -0.2537 -0.3909  1.5781
  243MOL0     C32725   5.723   3.538   2.926 -0.1771  0.5090 -0.7851
  243MOL0     C32726   5.759   3.418   2.872 -0.2614  0.2592 -0.8403
  243MOL0     C32727   5.777   3.402   2.733  0.3160 -0.2666  0.6172
  243MOL0     O32728   5.795   3.284   2.664 -0.5662  0.2250 -0.0098
  243MOL0     C32729   5.799   3.156   2.741 -0.7272  0.6148 -1.0177
  243MOL0     C32730   5.922   3.146   2.824 -0.0491  0.4309  0.0510
  243MOL0     C32731   5.907   3.014   2.911  0.0642 -0.1877 -0.1165
  243MOL0     C32732   5.923   2.887   2.823 -0.1232  0.3393 -0.5277
  243MOL0     C32733   6.030   2.867   2.732 -0.7985 -0.3913 -0.3036
  243MOL0     C32734   6.125   2.861   2.655 -0.5427  0.2760 -0.6426
  243MOL0     C32735   5.746   3.516   2.655 -0.8275 -0.3358  0.2501
  243MOL0     C32736   5.705   3.637   2.706 -0.9972  0.5475  0.4658
  243MOL0     C32737   5.655   3.744   2.611 -0.2503  0.3417  0.5070
  243MOL0     H32738   5.390   3.905   2.978  2.0757 -2.4486  0.7283
  243MOL0     H32739   5.293   4.100   3.117 -1.2569 -0.5716  3.5257
  243MOL0     H32740   5.481   4.234   3.488  1.1693  2.4743  1.1947
  243MOL0     H32741   5.596   4.316   3.383  0.6249  2.0441  0.7497
  243MOL0     H32742   5.392   4.488   3.328 -0.9147  1.7576 -0.5469
  243MOL0     H32743   5.478   4.493   3.480  1.0349 -0.9014 -0.5018
  243MOL0     H32744   5.302   4.326   3.583  1.6642 -0.1173  0.4111
  243MOL0     H32745   5.206   4.351   3.443  0.0281  0.9991 -1.5097
  243MOL0     H32746   5.300   4.591   3.611 -0.3072 -0.5003 -0.1987
  243MOL0     H32747   5.176   4.596   3.478 -1.8973  1.2869  0.4028
  243MOL0     H32748   5.077   4.395   3.616 -0.0704 -0.3241 -0.0026
  243MOL0     H32749   5.149   4.478   3.755  0.3705  3.2483 -0.5015
  243MOL0     H32750   4.989   4.660   3.567 -3.0974  0.5559  0.7493
  243MOL0     H32751   4.897   4.554   3.685 -0.0091  0.9129  4.4665
  243MOL0     H32752   5.129   4.716   3.779  0.0297 -0.3158  1.2083
  243MOL0     H32753   4.986   4.670   3.867 -1.2696  1.6504  0.0138
  243MOL0     H32754   4.839   4.813   3.721 -0.2396  0.6611 -0.4323
  243MOL0     H32755   4.943   4.877   3.861  1.3356 -1.1322  0.0858
  243MOL0     H32756   4.850   4.948   3.499  0.1346  1.5961 -2.1020
  243MOL0     H32757   4.990   4.928   3.271 -2.5196  0.1543  1.5236
  243MOL0     H32758   5.044   5.102   3.288  2.8000  0.8050 -1.3019
  243MOL0     H32759   5.292   5.029   3.288  0.3522  1.9126 -2.6323
  243MOL0     H32760   5.233   4.860   3.275 -0.1107  0.2297 -1.5689
  243MOL0     H32761   5.138   4.905   3.049 -0.0658  1.6049 -0.2507
  243MOL0     H32762   5.308   4.932   3.060 -2.0468 -4.2861 -0.8877
  243MOL0     H32763   5.066   5.132   3.064 -0.4870  0.9046 -1.8895
  243MOL0     H32764   5.197   5.129   2.940  1.2546 -0.1341 -0.4340
  243MOL0     H32765   5.371   5.415   3.213 -0.4200 -3.1030 -0.4243
  243MOL0     H32766   5.401   5.635   3.130  1.1675 -1.6711  0.8873
  243MOL0     H32767   5.515   5.849   2.719  0.1698  1.5087  0.3466
  243MOL0     H32768   5.557   6.017   2.553 -0.2700  0.9094  1.2678
  243MOL0     H32769   5.559   6.031   2.255  0.4854  3.4472  0.3597
  243MOL0     H32770   5.388   5.984   2.227 -3.4379  2.2648 -1.1804
  243MOL0     H32771   5.459   6.149   2.050  0.5444  2.9610 -1.0776
  243MOL0     H32772   5.335   6.218   2.160 -0.9624 -2.8097  0.6672
  243MOL0     H32773   5.507   6.342   2.284 -3.7350 -0.4891 -0.0428
  243MOL0     H32774   5.637   6.262   2.184  0.3711  0.5491  1.8023
  243MOL0     H32775   5.437   6.480   2.095  1.3632  2.7241 -2.8408
  243MOL0     H32776   5.546   6.382   1.997  1.2026 -1.8729  0.8341
  243MOL0     H32777   5.742   6.477   2.163  1.7243  1.2716 -0.7201
  243MOL0     H32778   5.614   6.590   2.207  2.0566  0.5435  1.0999
  243MOL0     H32779   5.749   6.691   2.028  2.0652  0.7188 -4.5568
  243MOL0     H32780   5.762   6.536   1.939 -0.5197 -1.9247  1.8933
  243MOL0     H32781   5.540   6.547   1.861  0.5821  0.2058 -0.2593
  243MOL0     H32782   5.630   6.681   1.813  1.0761  0.3879  0.6214
  243MOL0     H32783   5.417   6.762   1.880  2.9090  3.2404 -1.7673
  243MOL0     H32784   5.424   6.686   2.035  0.0084  0.1540 -0.3694
  243MOL0     H32785   5.156   6.024   2.417 -0.1399  1.2214 -0.1974
  243MOL0     H32786   5.093   5.855   2.596  0.4722 -2.9938 -0.7883
  243MOL0     H32787   5.121   5.537   2.816  2.1019 -0.4755 -1.2424
  243MOL0     H32788   5.076   5.334   2.915  1.5471 -2.1810  1.4304
  243MOL0     H32789   5.617   4.070   3.391  0.8964  1.2882 -0.2440
  243MOL0     H32790   5.718   3.884   3.248  0.1270  0.2416  0.2326
  243MOL0     H32791   5.700   3.528   3.032  0.6512 -0.5891 -0.6802
  243MOL0     H32792   5.773   3.340   2.946  2.5855  3.6697  2.7167
  243MOL0     H32793   5.785   3.070   2.675  2.1939 -0.2812 -0.6208
  243MOL0     H32794   5.716   3.145   2.811 -1.2123  1.3308 -1.4595
  243MOL0     H32795   5.941   3.228   2.894  0.5257 -0.7160  1.2914
  243MOL0     H32796   6.009   3.134   2.760 -0.1199 -0.5878  0.1171
  243MOL0     H32797   5.808   3.004   2.955 -1.1477  1.2879 -2.3105
  243MOL0     H32798   5.986   3.009   2.986  0.1156 -4.0451 -0.2380
  243MOL0     H32799   5.929   2.808   2.898 -0.8341  1.6533  0.9892
  243MOL0     H32800   5.834   2.870   2.762 -1.6368  1.5007  1.2447
  243MOL0     H32801   6.199   2.845   2.580 -1.8527 -1.2760 -1.6791
  243MOL0     H32802   5.752   3.518   2.547 -0.3740 -0.7887  0.2681
  243MOL0     H32803   5.549   3.748   2.634 -0.8072 -2.5224 -1.1306
  243MOL0     H32804   5.708   3.838   2.631 -1.8081  1.2023  0.7730
  243MOL0     H32805   5.669   3.708   2.508 -1.0689  0.8136  0.2197
  244MOL0     O32806   0.892   1.661   7.938  0.1131  0.3106  0.6250
  244MOL0     C32807   0.970   1.602   8.007 -1.1321  0.3575  0.1996
  244MOL0     O32808   0.936   1.509   8.105 -0.1717  0.0951 -0.1274
  244MOL0     C32809   0.821   1.527   8.164 -0.0590  0.9796  0.6918
  244MOL0     C32810   0.797   1.630   8.253 -0.2963  0.3654 -0.2786
  244MOL0     C32811   0.674   1.632   8.324 -0.1524  0.0226 -0.5185
  244MOL0     C32812   0.575   1.544   8.307 -0.2182 -0.1876  0.2734
  244MOL0     O32813   0.459   1.579   8.360  0.0169  0.3643  0.0952
  244MOL0     C32814   0.357   1.480   8.355  1.0629 -0.0199 -0.2150
  244MOL0     C32815   0.258   1.496   8.466 -0.8128  0.5805  0.5916
  244MOL0     C32816   0.135   1.408   8.449  0.0604  0.4609  0.5654
  244MOL0     C32817   0.012   1.466   8.523 -0.2473 -0.6353 -0.1532
  244MOL0     C32818  -0.117   1.379   8.517 -0.1786  0.7531 -0.7622
  244MOL0     C32819  -0.163   1.337   8.373  0.0071 -0.4299  0.0336
  244MOL0     C32820  -0.282   1.233   8.386  0.5334 -0.2711  0.0705
  244MOL0     C32821  -0.349   1.189   8.254  0.0190  0.7801 -0.3156
  244MOL0     N32822  -0.255   1.120   8.161  0.1672 -0.6249 -0.3488
  244MOL0     C32823  -0.178   1.179   8.064  0.8832  0.8434 -0.0235
  244MOL0     C32824  -0.099   1.081   8.016 -0.4501  0.0501 -0.0119
  244MOL0     C32825   0.021   1.099   7.916  0.2420 -0.1738 -0.3922
  244MOL0     C32826   0.033   1.245   7.860  0.5136 -1.3057 -0.5688
  244MOL0     C32827   0.131   1.257   7.749 -0.2793 -0.0631 -0.5207
  244MOL0     C32828   0.096   1.385   7.674 -0.6048  1.1391  0.2500
  244MOL0     O32829   0.027   1.333   7.561 -0.1298 -0.0425  0.4884
  244MOL0     C32830   0.081   1.333   7.429 -0.0889  0.1791  0.5079
  244MOL0     C32831   0.192   1.397   7.398  0.2369 -1.3810  1.1021
  244MOL0     C32832   0.229   1.400   7.265 -0.6464  0.0006 -0.2135
  244MOL0     C32833   0.174   1.308   7.169 -0.9140 -0.3543  0.1749
  244MOL0     C32834   0.224   1.307   7.033  0.2640  0.7291 -0.3632
  244MOL0     O32835   0.194   1.196   6.960  0.5748  0.7141  0.3274
  244MOL0     C32836   0.275   1.175   6.850 -0.7118  0.1570  0.3559
  244MOL0     C32837   0.406   1.134   6.873 -0.6315  0.7930 -0.0272
  244MOL0     C32838   0.485   1.095   6.765 -0.7334 -0.5148 -0.2854
  244MOL0     C32839   0.444   1.098   6.629  0.6763  0.0110  0.5638
  244MOL0     O32840   0.520   1.054   6.520 -0.2748  0.2605  0.2563
  244MOL0     C32841   0.650   0.994   6.558  0.4703  0.2958 -0.3121
  244MOL0     C32842   0.725   0.969   6.426  0.3503  0.8272  0.3136
  244MOL0     C32843   0.797   1.091   6.378  0.6929 -1.3958 -0.3265
  244MOL0     C32844   0.892   1.062   6.266 -0.7100  0.4623 -0.0819
  244MOL0     C32845   0.999   1.177   6.245  0.6804  0.4267  0.0989
  244MOL0     C32846   1.084   1.149   6.119 -0.4028  0.1210  0.7084
  244MOL0     C32847   1.201   1.248   6.088  0.5006  0.7514  0.0856
  244MOL0     C32848   1.292   1.278   6.209  0.1683 -0.0033 -0.5627
  244MOL0    Cl32849   1.420   1.404   6.194  0.2844  0.0952  0.4343
  244MOL0     C32850   0.315   1.145   6.609 -0.0836  0.8168  0.0612
  244MOL0     C32851   0.231   1.166   6.722  0.2383 -0.2679  0.1238
  244MOL0     O32852   0.302   1.398   7.001  0.6710  0.5776 -0.1469
  244MOL0     C32853   0.062   1.236   7.205 -0.0689 -0.0139  0.0284
  244MOL0     C32854   0.016   1.256   7.336  0.0404  0.2096  0.0711
  244MOL0     N32855  -0.126   0.965   8.081 -0.8998  0.3465  0.3104
  244MOL0     N32856  -0.222   0.988   8.162  0.0020 -0.3814  0.8464
  244MOL0     C32857   0.596   1.438   8.224  0.4548  0.9850  0.6793
  244MOL0     C32858   0.720   1.431   8.150 -0.0964  0.8518 -0.5940
  244MOL0     C32859   1.116   1.635   7.993  0.5616  0.0451 -0.3314
  244MOL0     C32860   1.194   1.597   8.099 -0.2199  0.8845 -0.0323
  244MOL0     C32861   1.330   1.624   8.094 -0.2459 -0.6390  0.8751
  244MOL0     C32862   1.388   1.686   7.978 -0.6843  0.1512  0.0593
  244MOL0     O32863   1.526   1.687   7.947  0.4137 -0.9310  0.0382
  244MOL0     C32864   1.619   1.704   8.066  0.5339 -0.0616 -0.2271
  244MOL0     C32865   1.759   1.761   8.022  0.4851  0.7486  0.2625
  244MOL0     C32866   1.850   1.777   8.151  0.3054  0.5846  1.3956
  244MOL0     C32867   1.995   1.814   8.119  0.2054  0.6995 -0.3770
  244MOL0     C32868   2.058   1.734   8.024  0.5560  0.2199  0.9251
  244MOL0     C32869   2.114   1.665   7.941 -0.8458 -0.4960 -0.5835
  244MOL0     C32870   1.312   1.734   7.874 -0.0902  1.1778  0.5173
  244MOL0     C32871   1.177   1.701   7.879  0.2615  0.5625 -0.8791
  244MOL0     C32872   1.095   1.737   7.752 -0.5597  0.3891 -0.6719
  244MOL0     H32873   0.874   1.706   8.257  0.4180 -0.0089 -3.8118
  244MOL0     H32874   0.660   1.714   8.393  2.0620  0.3303 -0.3423
  244MOL0     H32875   0.310   1.501   8.259  1.2191  1.6091  0.0348
  244MOL0     H32876   0.398   1.378   8.353  1.5615 -0.0231  3.1238
  244MOL0     H32877   0.220   1.597   8.481  0.9775  1.1553  1.4854
  244MOL0     H32878   0.313   1.473   8.558  0.2046 -0.4750 -0.2516
  244MOL0     H32879   0.150   1.305   8.483  2.3410  0.6489  0.3008
  244MOL0     H32880   0.114   1.408   8.342  3.0548 -2.1774 -0.1655
  244MOL0     H32881   0.034   1.467   8.630  0.3647 -2.5974 -0.2062
  244MOL0     H32882  -0.003   1.569   8.491  1.3811 -1.1702 -3.0222
  244MOL0     H32883  -0.107   1.292   8.582 -1.1470  1.5595  0.5155
  244MOL0     H32884  -0.201   1.441   8.551 -2.8260 -1.2669 -3.0986
  244MOL0     H32885  -0.191   1.429   8.321 -0.3784  1.6872  3.6423
  244MOL0     H32886  -0.087   1.269   8.332 -1.6904 -0.8974 -2.6283
  244MOL0     H32887  -0.353   1.266   8.462 -2.1915 -2.0995 -1.4995
  244MOL0     H32888  -0.251   1.146   8.445 -2.3205 -0.3568  1.5799
  244MOL0     H32889  -0.429   1.117   8.273  0.8919 -0.2565 -0.4742
  244MOL0     H32890  -0.387   1.283   8.212  1.4322  2.2478  1.5238
  244MOL0     H32891  -0.170   1.287   8.057  1.8894  0.8169  0.5700
  244MOL0     H32892   0.114   1.068   7.963  1.2645  4.1161  0.8474
  244MOL0     H32893  -0.001   1.035   7.831  0.2773 -0.8034  0.0706
  244MOL0     H32894  -0.067   1.272   7.824 -0.8130 -1.3290  2.7136
  244MOL0     H32895   0.061   1.307   7.946 -1.4603  0.5974 -1.1874
  244MOL0     H32896   0.124   1.170   7.684 -1.4704  0.1652 -0.7127
  244MOL0     H32897   0.228   1.268   7.799 -1.4098  0.0247  1.7885
  244MOL0     H32898   0.193   1.430   7.652 -1.2672  2.2756 -0.5163
  244MOL0     H32899   0.034   1.456   7.730 -1.9754  0.1189  0.0640
  244MOL0     H32900   0.231   1.472   7.466  0.1702 -2.1580  2.0092
  244MOL0     H32901   0.321   1.450   7.239  0.5546 -2.9036 -1.9999
  244MOL0     H32902   0.436   1.092   6.968 -2.6419 -2.9007 -0.8267
  244MOL0     H32903   0.583   1.062   6.798 -0.4916  0.9060  0.4945
  244MOL0     H32904   0.715   1.055   6.622  1.2504  0.0516 -0.8695
  244MOL0     H32905   0.644   0.899   6.611  2.4432 -0.6813 -1.7188
  244MOL0     H32906   0.799   0.891   6.448  0.4739  0.5629 -0.9490
  244MOL0     H32907   0.668   0.924   6.344  4.4545  5.1446 -5.7859
  244MOL0     H32908   0.721   1.168   6.359 -1.3629 -3.4292 -0.8441
  244MOL0     H32909   0.852   1.132   6.464 -0.1716 -4.0362  1.6375
  244MOL0     H32910   0.834   1.047   6.175  0.1093 -2.2943 -0.2496
  244MOL0     H32911   0.940   0.968   6.295 -1.3830 -0.0043 -0.4430
  244MOL0     H32912   1.055   1.168   6.338  2.3676  2.7456 -0.5900
  244MOL0     H32913   0.958   1.279   6.245 -0.0773  0.1375  1.2533
  244MOL0     H32914   1.137   1.056   6.144 -0.6196 -0.8974 -2.1501
  244MOL0     H32915   1.015   1.130   6.036 -2.2465 -1.9837  2.5810
  244MOL0     H32916   1.163   1.340   6.042  0.3845  0.3090 -0.7338
  244MOL0     H32917   1.267   1.194   6.019  2.6711 -0.7686  3.1040
  244MOL0     H32918   1.234   1.301   6.299  2.0251 -1.4565  1.1071
  244MOL0     H32919   1.346   1.185   6.229  1.0248  0.1416 -2.0705
  244MOL0     H32920   0.272   1.158   6.511 -0.9018  0.8047  0.4137
  244MOL0     H32921   0.134   1.210   6.701  0.6537  0.3585 -0.5351
  244MOL0     H32922   0.012   1.158   7.148  2.7827 -4.0970  2.5409
  244MOL0     H32923  -0.073   1.200   7.365 -1.7608  1.8950 -1.8156
  244MOL0     H32924   0.521   1.366   8.193  1.6257 -0.8634  1.9747
  244MOL0     H32925   0.708   1.342   8.089  1.1971 -0.4248  0.9321
  244MOL0     H32926   1.154   1.551   8.189 -1.9577  3.6118  0.6881
  244MOL0     H32927   1.406   1.591   8.164  3.4164 -0.0665 -2.5547
  244MOL0     H32928   1.631   1.604   8.108 -0.9892 -1.3761 -2.7264
  244MOL0     H32929   1.580   1.768   8.146 -0.7894 -1.7135  0.4983
  244MOL0     H32930   1.735   1.854   7.970 -0.7519 -0.5348 -1.5626
  244MOL0     H32931   1.806   1.690   7.953 -2.0666  0.5029 -1.3413
  244MOL0     H32932   1.855   1.681   8.204 -1.3835 -0.1767  0.2560
  244MOL0     H32933   1.796   1.843   8.219  1.2871 -0.9053  3.7805
  244MOL0     H32934   2.009   1.916   8.082 -0.1507  0.5296 -0.9879
  244MOL0     H32935   2.051   1.808   8.213 -0.5763 -2.7427  0.0123
  244MOL0     H32936   2.192   1.622   7.883  0.0574  2.2339 -1.5357
  244MOL0     H32937   1.362   1.777   7.788 -0.1940 -1.6568 -1.0761
  244MOL0     H32938   1.026   1.817   7.780  1.0249  0.7466  2.6608
  244MOL0     H32939   1.161   1.777   7.675 -0.5017 -2.4140 -2.1904
  244MOL0     H32940   1.037   1.650   7.721  2.3435 -2.5961  1.5898
  245MOL0     O32941   5.671  10.535   9.271 -0.9194 -0.3105  0.1543
  245MOL0     C32942   5.682  10.551   9.153 -0.5711  0.3279 -0.3383
  245MOL0     O32943   5.781  10.492   9.071  0.5847 -0.0086  0.5269
  245MOL0     C32944   5.882  10.423   9.132 -0.3854 -0.4685 -0.1103
  245MOL0     C32945   5.878  10.280   9.136  0.5365  0.6955 -0.2737
  245MOL0     C32946   5.985  10.203   9.180  0.5342  0.1427 -0.2950
  245MOL0     C32947   6.099  10.268   9.210 -0.1488 -0.6682 -0.0600
  245MOL0     O32948   6.202  10.183   9.242  0.4088 -0.3376  0.2630
  245MOL0     C32949   6.322  10.237   9.307 -0.1466 -0.1892 -0.0284
  245MOL0     C32950   6.422  10.120   9.313  0.7792  0.1721  1.1477
  245MOL0     C32951   6.547  10.149   9.397  0.3596  0.0726  0.2429
  245MOL0     C32952   6.625  10.280   9.366  0.0277 -0.4589  0.5574
  245MOL0     C32953   6.732  10.317   9.482  0.6312 -0.2723 -0.0316
  245MOL0     C32954   6.791  10.446   9.453 -0.5127 -0.2236  0.1451
  245MOL0     C32955   6.865  10.508   9.567 -1.0668  0.2871  1.3505
  245MOL0     C32956   6.943  10.635   9.536  0.1630  0.1504 -0.2233
  245MOL0     N32957   7.032  10.664   9.644  0.2340  0.0596  0.5894
  245MOL0     C32958   7.169  10.652   9.632 -0.3075  0.9570  0.2806
  245MOL0     C32959   7.219  10.704   9.745  0.6479  0.3663  0.2011
  245MOL0     C32960   7.360  10.726   9.787  0.5434  0.3121 -0.4222
  245MOL0     C32961   7.364  10.751   9.935  0.5798  0.2421 -0.0669
  245MOL0     C32962   7.504  10.732   9.988  0.1231  0.1896  0.2116
  245MOL0     C32963   7.533  10.737  10.132  0.2265 -0.3380 -0.0121
  245MOL0     O32964   7.638  10.639  10.171  0.7814  0.3394 -0.5990
  245MOL0     C32965   7.670  10.604  10.300 -0.1146  0.0644 -1.0768
  245MOL0     C32966   7.639  10.681  10.412 -0.0624 -0.5803  0.0375
  245MOL0     C32967   7.664  10.648  10.541  0.6184  0.5521 -0.4225
  245MOL0     C32968   7.724  10.519  10.578 -0.0327  0.8416  1.1553
  245MOL0     C32969   7.746  10.476  10.714 -0.1974  0.2035 -0.1628
  245MOL0     O32970   7.769  10.346  10.724 -0.5095  0.1066  0.1755
  245MOL0     C32971   7.748  10.292  10.851  0.2045  0.0485  0.1876
  245MOL0     C32972   7.623  10.240  10.881  0.0526  0.4053  0.0084
  245MOL0     C32973   7.591  10.163  10.988 -1.4353 -0.6371  0.6700
  245MOL0     C32974   7.698  10.133  11.074  0.2935 -0.9502 -0.2441
  245MOL0     O32975   7.664  10.055  11.183 -0.0081 -0.0738 -0.2335
  245MOL0     C32976   7.768  10.003  11.267 -0.2413 -0.4088 -0.1220
  245MOL0     C32977   7.704   9.890  11.354 -1.0666 -0.3331  0.4183
  245MOL0     C32978   7.797   9.800  11.450 -0.2218  0.2852  0.2664
  245MOL0     C32979   7.872   9.703  11.355 -0.3880  0.0877 -0.1032
  245MOL0     C32980   7.969   9.605  11.420 -0.5559 -0.1894 -0.4202
  245MOL0     C32981   8.035   9.520  11.315 -0.8702  0.1888  0.6322
  245MOL0     C32982   8.127   9.425  11.382  0.1046  0.1672 -0.1652
  245MOL0     C32983   8.192   9.310  11.297  0.1541  0.5127 -0.1601
  245MOL0    Cl32984   8.294   9.398  11.180  0.1631 -0.6172  0.0990
  245MOL0     C32985   7.830  10.174  11.039  0.1559  0.1574 -0.7485
  245MOL0     C32986   7.847  10.255  10.934 -1.2163 -0.9934 -1.2644
  245MOL0     O32987   7.740  10.553  10.805 -0.4761 -0.4759  0.3222
  245MOL0     C32988   7.760  10.442  10.456 -0.3080 -0.6251  0.5901
  245MOL0     C32989   7.740  10.486  10.325  0.2225  0.7792  0.6131
  245MOL0     N32990   7.112  10.769   9.809 -0.8821  0.3283 -0.2589
  245MOL0     N32991   7.004  10.741   9.748 -0.2557  0.3732 -0.2699
  245MOL0     C32992   6.093  10.408   9.236  0.0774  0.0278 -0.4087
  245MOL0     C32993   5.987  10.487   9.193 -0.0775 -0.6487 -0.5709
  245MOL0     C32994   5.579  10.646   9.082 -0.7780  0.2044 -0.1249
  245MOL0     C32995   5.629  10.735   8.976  0.2286 -0.0136 -0.8349
  245MOL0     C32996   5.542  10.845   8.940 -0.2061  0.5558  0.4875
  245MOL0     C32997   5.403  10.837   8.965 -0.8748  0.1685 -0.0896
  245MOL0     O32998   5.318  10.917   8.921  0.3404 -0.0636 -0.0024
  245MOL0     C32999   5.346  10.984   8.795  0.2432 -0.0471 -0.2512
  245MOL0     C33000   5.223  11.058   8.758  0.6081  0.0152  0.3430
  245MOL0     C33001   5.267  11.186   8.680  1.0521 -0.2681 -0.7873
  245MOL0     C33002   5.140  11.261   8.627 -0.5218 -0.6003 -0.2623
  245MOL0     C33003   5.168  11.406   8.630  0.3553  0.1318 -0.2876
  245MOL0     C33004   5.205  11.523   8.638 -0.0423  0.1934 -0.1566
  245MOL0     C33005   5.357  10.735   9.045 -0.3680 -0.3268 -0.1168
  245MOL0     C33006   5.438  10.641   9.104 -1.6696 -0.1117 -0.1835
  245MOL0     C33007   5.374  10.533   9.196  0.4404 -0.3216 -0.3703
  245MOL0     H33008   5.783  10.234   9.109  0.4904 -0.0265  1.0179
  245MOL0     H33009   5.981  10.094   9.179 -2.5290  0.1642  0.2242
  245MOL0     H33010   6.367  10.315   9.245 -1.4173  2.1060  1.7713
  245MOL0     H33011   6.300  10.275   9.407  3.9167 -0.9768  1.3424
  245MOL0     H33012   6.460  10.090   9.215  0.7180 -2.9173  1.9886
  245MOL0     H33013   6.368  10.036   9.356  0.8722  0.0323  0.9886
  245MOL0     H33014   6.620  10.071   9.375  1.4403  1.4646 -1.4620
  245MOL0     H33015   6.528  10.141   9.504 -1.1655 -1.3841 -0.0968
  245MOL0     H33016   6.669  10.286   9.266  1.2937 -2.0756  0.9960
  245MOL0     H33017   6.552  10.361   9.377  0.6393 -0.1239  2.5760
  245MOL0     H33018   6.682  10.322   9.579 -2.1584 -1.8688 -1.2558
  245MOL0     H33019   6.803  10.234   9.484 -1.3990 -2.0710  0.4588
  245MOL0     H33020   6.861  10.429   9.371  0.2514 -3.1534  1.2816
  245MOL0     H33021   6.703  10.508   9.433 -1.6277  0.2309  5.2141
  245MOL0     H33022   6.924  10.423   9.604  0.2556  0.5935  0.0592
  245MOL0     H33023   6.797  10.526   9.651 -1.4480 -0.0065  1.1069
  245MOL0     H33024   7.008  10.618   9.449 -1.7496  1.4255 -2.0052
  245MOL0     H33025   6.868  10.713   9.526  1.2448  1.4403  1.2142
  245MOL0     H33026   7.219  10.584   9.564 -3.3005 -0.2296 -0.9151
  245MOL0     H33027   7.408  10.630   9.772  1.1881  0.3326  1.2690
  245MOL0     H33028   7.408  10.799   9.721  0.1133 -0.8379 -2.0777
  245MOL0     H33029   7.329  10.851   9.961  4.9398  1.2782  3.0050
  245MOL0     H33030   7.297  10.678   9.982 -0.5383  1.2202 -0.0807
  245MOL0     H33031   7.561  10.804   9.928 -1.0986 -1.5940 -3.3434
  245MOL0     H33032   7.544  10.639   9.947  0.3930 -0.2728  1.4849
  245MOL0     H33033   7.439  10.714  10.184 -1.1447  1.4109 -1.5914
  245MOL0     H33034   7.577  10.835  10.151  3.0186 -1.5343  0.0521
  245MOL0     H33035   7.592  10.775  10.385  0.4961 -0.2286  0.2624
  245MOL0     H33036   7.633  10.716  10.619 -0.3245 -0.5017  0.1469
  245MOL0     H33037   7.543  10.269  10.813 -0.3952 -2.2208 -0.6993
  245MOL0     H33038   7.490  10.131  11.009 -2.4772  2.4051  0.8383
  245MOL0     H33039   7.841   9.954  11.201 -1.3108  0.0017 -1.6538
  245MOL0     H33040   7.800  10.092  11.322  1.9471 -0.1479 -1.6449
  245MOL0     H33041   7.619   9.936  11.406  0.0719  2.2278  0.1944
  245MOL0     H33042   7.665   9.817  11.283  0.7773 -1.9198  0.9678
  245MOL0     H33043   7.864   9.860  11.512 -0.3077  0.1444  0.4967
  245MOL0     H33044   7.728   9.752  11.519 -1.9221  1.4412 -0.5621
  245MOL0     H33045   7.915   9.755  11.269  2.5737 -2.0854 -0.0598
  245MOL0     H33046   7.796   9.638  11.310 -3.2589  1.7147  2.0139
  245MOL0     H33047   7.907   9.541  11.483  1.4465 -1.4873  0.3329
  245MOL0     H33048   8.052   9.650  11.476  1.4402 -2.1540 -1.6494
  245MOL0     H33049   7.960   9.465  11.257 -1.2947 -1.1020  2.3099
  245MOL0     H33050   8.094   9.582  11.247  0.8781 -1.6844  0.3588
  245MOL0     H33051   8.075   9.372  11.463  3.2772 -2.8381  0.1568
  245MOL0     H33052   8.214   9.474  11.428 -1.6732  3.6013 -0.1470
  245MOL0     H33053   8.247   9.236  11.356 -0.2229  0.6139  0.3145
  245MOL0     H33054   8.117   9.248  11.246  0.6904  1.1326 -1.7719
  245MOL0     H33055   7.916  10.158  11.103  0.1407  0.5013 -0.6404
  245MOL0     H33056   7.944  10.300  10.915 -1.9152  0.7164 -0.9504
  245MOL0     H33057   7.811  10.347  10.458  2.4600  0.7487  2.5120
  245MOL0     H33058   7.770  10.431  10.237 -0.8845 -1.6965  1.6952
  245MOL0     H33059   6.188  10.450   9.267  1.9168 -1.4833 -3.5532
  245MOL0     H33060   5.983  10.595   9.193  0.5278 -0.4859  3.0569
  245MOL0     H33061   5.736  10.733   8.958  1.1311  0.1769  3.3625
  245MOL0     H33062   5.574  10.929   8.879 -3.7094  0.8474 -1.1854
  245MOL0     H33063   5.368  10.919   8.710 -3.5227 -1.5478 -0.2877
  245MOL0     H33064   5.425  11.059   8.807 -0.5777  0.6803  0.7619
  245MOL0     H33065   5.170  11.082   8.851  0.8318  0.6997  0.3005
  245MOL0     H33066   5.157  10.983   8.713 -1.1461  0.4745  2.0112
  245MOL0     H33067   5.342  11.154   8.608  0.4155  0.7576 -1.9391
  245MOL0     H33068   5.314  11.249   8.757 -2.3870  2.4599 -0.6370
  245MOL0     H33069   5.122  11.224   8.525 -1.7200  0.4750 -0.4640
  245MOL0     H33070   5.055  11.240   8.691 -0.2681 -1.9005 -0.3126
  245MOL0     H33071   5.228  11.627   8.644 -1.6982  0.5094  2.0084
  245MOL0     H33072   5.251  10.712   9.056 -0.0466 -2.1934 -0.5531
  245MOL0     H33073   5.298  10.479   9.138 -0.3177  0.5854 -0.2338
  245MOL0     H33074   5.444  10.459   9.236  0.6699 -0.4195 -0.9321
  245MOL0     H33075   5.318  10.581   9.276 -0.2917 -2.5422  0.5281
  246MOL0     O33076   5.595   0.656   8.688  0.6926 -0.2943  0.0805
  246MOL0     C33077   5.710   0.679   8.656 -0.6633 -0.2829 -0.2896
  246MOL0     O33078   5.761   0.639   8.537 -0.5591  0.3550 -0.4195
  246MOL0     C33079   5.680   0.575   8.440 -0.4085 -0.4560 -0.6743
  246MOL0     C33080   5.639   0.446   8.461 -0.4370 -0.7466 -0.8180
  246MOL0     C33081   5.598   0.370   8.351  0.1990  0.2151 -0.0722
  246MOL0     C33082   5.584   0.432   8.222 -0.3023 -0.7893 -0.5287
  246MOL0     O33083   5.541   0.353   8.120 -0.0312  0.1693 -0.2728
  246MOL0     C33084   5.555   0.382   7.978  0.5875  0.4528  0.6738
  246MOL0     C33085   5.446   0.468   7.930  0.9270 -0.6333  0.4595
  246MOL0     C33086   5.325   0.392   7.862 -0.5334 -0.5349 -0.5426
  246MOL0     C33087   5.236   0.498   7.792 -0.8206  0.3120  0.5843
  246MOL0     C33088   5.115   0.545   7.884 -0.7445  0.7720 -1.0258
  246MOL0     C33089   5.037   0.674   7.828 -0.6431 -0.3653 -0.8660
  246MOL0     C33090   4.893   0.687   7.888  0.2289  0.4444  0.3978
  246MOL0     C33091   4.793   0.729   7.779 -0.5134 -0.1054  0.6605
  246MOL0     N33092   4.810   0.865   7.740 -0.0556 -0.8204 -1.0119
  246MOL0     C33093   4.748   0.972   7.803 -0.6036 -0.1347 -0.3446
  246MOL0     C33094   4.788   1.085   7.747 -0.5068  0.4462 -0.2573
  246MOL0     C33095   4.745   1.227   7.767  0.5104 -0.5110  0.1408
  246MOL0     C33096   4.596   1.252   7.742 -0.1957 -0.8551  0.4349
  246MOL0     C33097   4.550   1.404   7.753 -0.1740  0.3091 -0.1022
  246MOL0     C33098   4.657   1.506   7.730 -0.1126  0.0737 -0.7862
  246MOL0     O33099   4.592   1.634   7.735 -0.6398 -0.3268 -0.3326
  246MOL0     C33100   4.671   1.746   7.709 -0.3911 -0.1094 -0.8409
  246MOL0     C33101   4.609   1.870   7.746 -1.0333 -0.6660  0.8163
  246MOL0     C33102   4.675   2.000   7.756  0.9556 -0.0639  0.3093
  246MOL0     C33103   4.815   2.004   7.718 -0.1349  0.6490 -0.3089
  246MOL0     C33104   4.894   2.123   7.715  0.5797  0.2975  0.3156
  246MOL0     O33105   4.989   2.133   7.616 -0.1059  0.0250 -0.0680
  246MOL0     C33106   4.958   2.117   7.485  0.1765  0.7592 -0.2457
  246MOL0     C33107   4.832   2.122   7.433  0.7158  0.2379  0.2479
  246MOL0     C33108   4.795   2.076   7.306 -0.0676 -0.2288  0.8099
  246MOL0     C33109   4.895   2.055   7.214 -0.4964 -0.7299  0.8959
  246MOL0     O33110   4.860   2.026   7.080  0.4728  0.6212 -0.3262
  246MOL0     C33111   4.945   2.006   6.974  0.5655  0.5788 -0.4062
  246MOL0     C33112   4.874   1.954   6.846 -0.4998  0.3777  0.0428
  246MOL0     C33113   4.778   1.845   6.878  0.6849 -0.9834 -1.0992
  246MOL0     C33114   4.743   1.763   6.756 -0.1899  0.5913 -0.3516
  246MOL0     C33115   4.657   1.640   6.797 -0.0133 -0.8784  0.1141
  246MOL0     C33116   4.627   1.557   6.672  1.2394  0.5011 -0.3035
  246MOL0     C33117   4.746   1.508   6.600 -0.3708 -0.4057 -0.2983
  246MOL0     C33118   4.730   1.394   6.497 -0.0641  0.0142  1.0338
  246MOL0    Cl33119   4.890   1.351   6.447  0.4461 -0.0247 -0.1904
  246MOL0     C33120   5.030   2.059   7.256  0.1216 -0.3003 -0.0197
  246MOL0     C33121   5.061   2.088   7.394 -0.6693 -0.2407 -0.2406
  246MOL0     O33122   4.901   2.176   7.823  0.8632 -0.0369 -0.6181
  246MOL0     C33123   4.880   1.880   7.690 -0.1698  0.1417  0.0399
  246MOL0     C33124   4.806   1.760   7.678 -0.1308 -0.2964  0.2854
  246MOL0     N33125   4.878   1.048   7.648  0.0883  0.1051 -0.0883
  246MOL0     N33126   4.876   0.918   7.633 -0.1591 -0.3593  0.2009
  246MOL0     C33127   5.627   0.560   8.199  0.6262  0.2773 -0.5520
  246MOL0     C33128   5.667   0.632   8.311 -0.7526 -0.4381 -0.3336
  246MOL0     C33129   5.806   0.735   8.754  0.2129 -0.5715 -0.3835
  246MOL0     C33130   5.947   0.729   8.728  0.8688  0.5675  0.7000
  246MOL0     C33131   6.040   0.779   8.823 -0.5174  0.2920  0.8371
  246MOL0     C33132   5.999   0.825   8.948  0.6575  0.1066 -0.4251
  246MOL0     O33133   6.077   0.867   9.054 -0.7569  0.0249  0.1209
  246MOL0     C33134   6.216   0.839   9.061  0.6629  0.3113  0.0698
  246MOL0     C33135   6.289   0.956   8.995 -0.3265 -0.5649 -0.0758
  246MOL0     C33136   6.439   0.965   9.029  0.0470 -0.3460 -0.1632
  246MOL0     C33137   6.505   1.074   8.936 -0.5801  0.0609 -0.2648
  246MOL0     C33138   6.647   1.062   8.990  0.5207  0.0323 -0.8793
  246MOL0     C33139   6.756   1.069   9.039 -0.4299  0.6184 -0.0991
  246MOL0     C33140   5.866   0.848   8.966 -0.0266  0.0777 -0.6285
  246MOL0     C33141   5.763   0.810   8.874 -0.9895 -0.4605 -0.1137
  246MOL0     C33142   5.621   0.852   8.893  0.2352  0.3510 -0.6782
  246MOL0     H33143   5.649   0.395   8.557 -4.9832 -3.5702 -1.5137
  246MOL0     H33144   5.596   0.262   8.354  1.9126  0.1480 -0.1427
  246MOL0     H33145   5.650   0.431   7.954  0.9623  0.7128  2.4868
  246MOL0     H33146   5.551   0.284   7.931 -0.5794  0.1494  1.3536
  246MOL0     H33147   5.495   0.533   7.857 -0.5690  0.9973  0.8631
  246MOL0     H33148   5.407   0.523   8.016  4.8053 -1.9006  3.3328
  246MOL0     H33149   5.275   0.341   7.945  2.5796 -3.3666 -0.1905
  246MOL0     H33150   5.362   0.312   7.797 -0.4236  0.6805 -2.0386
  246MOL0     H33151   5.286   0.583   7.746 -0.2778 -1.1750 -1.7665
  246MOL0     H33152   5.195   0.451   7.702 -2.8246  2.1545  0.4663
  246MOL0     H33153   5.043   0.463   7.890 -0.2541 -0.2712 -5.4759
  246MOL0     H33154   5.159   0.571   7.981  1.7412  1.8493 -2.3503
  246MOL0     H33155   5.090   0.769   7.836  0.5256 -0.9757 -1.2405
  246MOL0     H33156   5.032   0.655   7.721  1.6335 -0.6819 -0.9548
  246MOL0     H33157   4.899   0.765   7.965  2.5953  0.2342  0.4733
  246MOL0     H33158   4.856   0.599   7.941 -0.5429  0.3709 -0.2366
  246MOL0     H33159   4.800   0.668   7.688  1.4653  0.7720  0.1634
  246MOL0     H33160   4.691   0.703   7.807 -0.7389 -0.9950 -0.8650
  246MOL0     H33161   4.668   0.971   7.875 -2.3604 -4.1790 -2.0525
  246MOL0     H33162   4.769   1.262   7.868 -3.3476 -1.0019  1.4040
  246MOL0     H33163   4.796   1.289   7.692  1.0030  0.5551  1.3203
  246MOL0     H33164   4.572   1.218   7.640  0.5901 -2.3531  0.7310
  246MOL0     H33165   4.538   1.190   7.810  0.1069 -1.1268  0.4452
  246MOL0     H33166   4.516   1.419   7.856 -0.8898 -1.2202 -0.0826
  246MOL0     H33167   4.471   1.428   7.682  0.0224 -0.8039 -0.7221
  246MOL0     H33168   4.704   1.478   7.635 -2.0647 -3.4991 -0.8964
  246MOL0     H33169   4.732   1.505   7.809  0.3306  2.2430 -1.1119
  246MOL0     H33170   4.506   1.862   7.781 -1.4856  0.4923 -0.1833
  246MOL0     H33171   4.616   2.086   7.788  2.2508  0.8319  0.3792
  246MOL0     H33172   4.751   2.152   7.498 -2.4469  0.1723 -3.3224
  246MOL0     H33173   4.689   2.075   7.280  0.5983  1.0813 -2.4285
  246MOL0     H33174   4.984   2.106   6.951 -1.0488  1.0048 -1.4580
  246MOL0     H33175   5.018   1.932   7.005  0.3893  0.1254 -1.0457
  246MOL0     H33176   4.804   2.024   6.799 -1.9794 -0.4542  0.9220
  246MOL0     H33177   4.946   1.917   6.773 -0.9221  1.2512 -0.8403
  246MOL0     H33178   4.823   1.772   6.946  0.0246 -0.3072  0.0985
  246MOL0     H33179   4.683   1.886   6.913  0.0378 -0.0791 -3.7028
  246MOL0     H33180   4.838   1.718   6.725  0.5797  0.2734  2.1767
  246MOL0     H33181   4.695   1.826   6.681 -2.4517 -1.3028 -0.6253
  246MOL0     H33182   4.562   1.676   6.839  0.5048 -0.3189  0.8335
  246MOL0     H33183   4.703   1.569   6.866 -0.6109  0.2652  1.7499
  246MOL0     H33184   4.576   1.464   6.697  1.3076  0.5777  0.1346
  246MOL0     H33185   4.574   1.616   6.596  1.0335  0.1337 -0.4434
  246MOL0     H33186   4.812   1.457   6.671 -0.9548 -0.5069  0.1804
  246MOL0     H33187   4.804   1.586   6.550 -0.9093 -0.1056 -0.4623
  246MOL0     H33188   4.680   1.311   6.547  1.1136 -0.6659  1.1271
  246MOL0     H33189   4.666   1.425   6.414 -0.9281  1.0742  2.0522
  246MOL0     H33190   5.119   2.032   7.200  1.2600  2.6179  0.1881
  246MOL0     H33191   5.161   2.075   7.432 -0.3234 -0.5999 -1.2440
  246MOL0     H33192   4.985   1.888   7.663 -0.3087  2.2565 -0.0466
  246MOL0     H33193   4.868   1.680   7.641  0.8083 -0.5529  2.2619
  246MOL0     H33194   5.625   0.599   8.098 -3.1067 -2.8643 -1.9611
  246MOL0     H33195   5.711   0.729   8.295 -3.3458  0.9091  0.1589
  246MOL0     H33196   5.990   0.672   8.646 -0.8344  2.4052 -1.6317
  246MOL0     H33197   6.145   0.783   8.796  0.4962  0.0418  4.1692
  246MOL0     H33198   6.236   0.745   9.009 -1.6636 -0.6269  0.7201
  246MOL0     H33199   6.238   0.821   9.166 -1.1675  1.4077  0.7017
  246MOL0     H33200   6.234   1.050   9.008 -0.1341 -0.3313 -0.9005
  246MOL0     H33201   6.279   0.954   8.886  0.5128  1.9519 -0.2824
  246MOL0     H33202   6.493   0.872   9.005 -1.2064 -1.7216  1.9705
  246MOL0     H33203   6.456   0.985   9.135 -1.3191  3.3286 -0.5185
  246MOL0     H33204   6.500   1.038   8.833  0.7597  2.8664 -1.4304
  246MOL0     H33205   6.464   1.175   8.931  0.9299  0.6661 -1.1646
  246MOL0     H33206   6.852   1.077   9.087 -0.4388 -0.4621  0.1312
  246MOL0     H33207   5.830   0.890   9.059  0.1918  0.1138 -0.5589
  246MOL0     H33208   5.596   0.921   8.974 -1.6861 -1.5174  0.4236
  246MOL0     H33209   5.583   0.878   8.794 -2.3771 -0.6462 -0.0077
  246MOL0     H33210   5.566   0.762   8.921  4.3637 -1.5781  2.1978
  247MOL0     O33211   2.850   2.006   2.008  0.0401  0.5992 -0.4745
  247MOL0     C33212   2.750   1.986   1.938 -0.7929  0.0390  0.3843
  247MOL0     O33213   2.623   1.957   1.987 -0.0377 -0.0330 -0.1125
  247MOL0     C33214   2.623   1.914   2.116  0.2824 -0.1676 -0.1688
  247MOL0     C33215   2.638   1.780   2.142  0.3453 -0.0996  0.4299
  247MOL0     C33216   2.643   1.737   2.278  0.1910  0.2641 -0.0002
  247MOL0     C33217   2.652   1.834   2.381 -0.9998 -0.4990 -0.3447
  247MOL0     O33218   2.654   1.805   2.516 -0.1303 -0.4047 -0.5578
  247MOL0     C33219   2.570   1.697   2.551 -0.6511  0.5933  0.7712
  247MOL0     C33220   2.535   1.720   2.702  0.1755  0.6665 -0.3736
  247MOL0     C33221   2.646   1.692   2.793 -0.2051  0.0117  0.4213
  247MOL0     C33222   2.576   1.679   2.938  0.2392 -0.3354  0.4522
  247MOL0     C33223   2.483   1.556   2.969 -0.4118 -0.4009  1.1094
  247MOL0     C33224   2.535   1.420   2.913 -0.3294  0.3049 -0.0929
  247MOL0     C33225   2.460   1.295   2.968  0.0389 -0.2110 -0.6125
  247MOL0     C33226   2.313   1.265   2.913 -0.0947 -0.4482 -0.8645
  247MOL0     N33227   2.275   1.137   2.860  0.3603  0.2828  0.1002
  247MOL0     C33228   2.200   1.034   2.911 -0.8731  1.0738 -0.3660
  247MOL0     C33229   2.216   0.919   2.837 -0.2613 -0.1109 -0.3637
  247MOL0     C33230   2.126   0.797   2.861 -0.0743  0.1543 -0.0422
  247MOL0     C33231   2.204   0.676   2.806  0.2813  0.5658  0.3534
  247MOL0     C33232   2.129   0.537   2.817 -0.6757 -0.1193 -0.0443
  247MOL0     C33233   2.217   0.435   2.727  0.6439 -0.6067  0.2102
  247MOL0     O33234   2.170   0.301   2.739 -0.2979  0.1138  0.2362
  247MOL0     C33235   2.191   0.233   2.852  0.7190  0.0970  0.3295
  247MOL0     C33236   2.292   0.270   2.948  0.3689  0.5694  0.0536
  247MOL0     C33237   2.319   0.187   3.048  0.3295  0.4440 -0.1007
  247MOL0     C33238   2.242   0.063   3.060  0.3547  0.2097 -0.1452
  247MOL0     C33239   2.275  -0.032   3.168 -0.3997  0.4566 -0.0410
  247MOL0     O33240   2.194  -0.139   3.177 -0.5864 -0.2750 -0.4311
  247MOL0     C33241   2.226  -0.254   3.247  0.5283  0.0267  0.3327
  247MOL0     C33242   2.116  -0.335   3.291 -0.1898  0.3573 -0.6069
  247MOL0     C33243   2.133  -0.468   3.334 -0.0785 -0.4395 -0.1381
  247MOL0     C33244   2.267  -0.517   3.347 -0.8229 -0.5370 -0.3537
  247MOL0     O33245   2.290  -0.637   3.404 -0.6411 -0.1368  0.2311
  247MOL0     C33246   2.393  -0.713   3.353 -0.6428  1.2218  0.6158
  247MOL0     C33247   2.462  -0.775   3.479 -0.6222  1.3477 -0.5238
  247MOL0     C33248   2.604  -0.832   3.458  0.3280 -0.4796 -0.1057
  247MOL0     C33249   2.665  -0.877   3.590 -0.7648 -0.5177 -0.5931
  247MOL0     C33250   2.791  -0.971   3.568 -1.0137 -0.4619 -0.1137
  247MOL0     C33251   2.851  -0.986   3.706  0.6987  0.1187 -0.5435
  247MOL0     C33252   2.963  -1.091   3.693  0.2435  0.5748  0.5239
  247MOL0     C33253   3.005  -1.140   3.835  0.0359 -0.0923  0.7780
  247MOL0    Cl33254   3.122  -1.273   3.810 -0.1591  0.0287 -0.2973
  247MOL0     C33255   2.378  -0.427   3.326  0.6030  0.0069  0.7754
  247MOL0     C33256   2.355  -0.307   3.263 -0.4796 -0.0774  0.1319
  247MOL0     O33257   2.380  -0.010   3.236  0.0506 -0.7325 -0.3735
  247MOL0     C33258   2.132   0.042   2.980 -0.3280 -0.5464  0.6326
  247MOL0     C33259   2.121   0.122   2.864 -0.6545  0.0967 -0.3369
  247MOL0     N33260   2.297   0.960   2.734 -0.7456 -0.4511  0.1201
  247MOL0     N33261   2.323   1.087   2.742 -0.3617  0.9585 -0.4977
  247MOL0     C33262   2.634   1.966   2.348  1.2320 -0.0630 -0.5371
  247MOL0     C33263   2.612   2.002   2.215  0.1437  0.1065 -0.1775
  247MOL0     C33264   2.762   2.033   1.797 -0.2124  0.0116 -0.5694
  247MOL0     C33265   2.640   2.040   1.723 -0.4895 -0.1335  0.2121
  247MOL0     C33266   2.635   2.088   1.586 -0.3149 -0.1374 -0.4119
  247MOL0     C33267   2.762   2.105   1.522  0.5188 -1.2330 -0.8530
  247MOL0     O33268   2.762   2.118   1.387  0.4343  0.2129 -0.2183
  247MOL0     C33269   2.834   2.223   1.330  0.3190 -0.4749  0.6779
  247MOL0     C33270   2.775   2.255   1.196  0.8201 -0.6744 -0.4749
  247MOL0     C33271   2.624   2.305   1.221  0.3886  0.5371  0.0540
  247MOL0     C33272   2.520   2.204   1.178 -0.7936  0.2346  0.3187
  247MOL0     C33273   2.526   2.178   1.031  0.5663 -0.6085 -0.1096
  247MOL0     C33274   2.548   2.153   0.912  0.1875 -0.2924  0.3148
  247MOL0     C33275   2.878   2.087   1.595 -0.3275 -0.1205 -0.0302
  247MOL0     C33276   2.882   2.062   1.735 -0.6745 -0.2982  0.2159
  247MOL0     C33277   3.018   2.047   1.798  0.2350 -0.5929  0.0421
  247MOL0     H33278   2.629   1.699   2.070 -0.8879  0.3536  0.0313
  247MOL0     H33279   2.648   1.631   2.298 -1.0559  0.1633 -0.1041
  247MOL0     H33280   2.477   1.694   2.494 -0.5255  1.1017  0.5322
  247MOL0     H33281   2.616   1.598   2.550 -1.4580  0.1800  1.8742
  247MOL0     H33282   2.455   1.657   2.742  2.6450 -2.0937  0.5466
  247MOL0     H33283   2.507   1.826   2.707  1.5153  1.0386 -0.3586
  247MOL0     H33284   2.706   1.783   2.800  1.2967 -0.7145 -2.0891
  247MOL0     H33285   2.709   1.605   2.772  3.8788  2.5212  1.1762
  247MOL0     H33286   2.644   1.677   3.023 -0.0687  0.7334  0.7362
  247MOL0     H33287   2.521   1.773   2.950 -0.0118 -0.3176 -0.6749
  247MOL0     H33288   2.480   1.541   3.077  4.5097  1.1109  1.7044
  247MOL0     H33289   2.381   1.573   2.932 -0.0441  0.6249  0.5270
  247MOL0     H33290   2.526   1.420   2.804  0.7411  2.4212 -0.2187
  247MOL0     H33291   2.640   1.418   2.946 -0.3636  0.0111  0.0008
  247MOL0     H33292   2.454   1.304   3.077 -0.7131  2.0112 -0.7774
  247MOL0     H33293   2.521   1.205   2.956  0.1090 -0.8270  3.1384
  247MOL0     H33294   2.231   1.296   2.979 -0.3709 -2.6432 -0.0893
  247MOL0     H33295   2.299   1.327   2.825 -2.0585 -0.5560 -0.6612
  247MOL0     H33296   2.127   1.038   2.992 -2.4380 -2.0466 -1.4586
  247MOL0     H33297   2.104   0.786   2.968  0.7468  1.6701  0.3034
  247MOL0     H33298   2.033   0.818   2.809  0.6223  1.8301 -0.6541
  247MOL0     H33299   2.229   0.708   2.705  3.5498  0.5550  1.0448
  247MOL0     H33300   2.299   0.660   2.859 -0.4562  2.3410  2.3827
  247MOL0     H33301   2.029   0.519   2.777  0.9673 -2.6130 -3.5683
  247MOL0     H33302   2.128   0.508   2.923 -3.8109 -1.1445 -0.2435
  247MOL0     H33303   2.322   0.447   2.755  0.8230  0.3293 -0.7849
  247MOL0     H33304   2.215   0.475   2.625  3.0676  1.0980  0.7402
  247MOL0     H33305   2.358   0.356   2.940  2.3098 -0.7696  0.8693
  247MOL0     H33306   2.404   0.196   3.114  0.3152 -2.1527  0.3762
  247MOL0     H33307   2.016  -0.292   3.295 -0.6762 -0.7618  3.7131
  247MOL0     H33308   2.051  -0.533   3.364 -3.3115  3.1313 -0.3650
  247MOL0     H33309   2.355  -0.796   3.293  2.5898  0.0053  0.0249
  247MOL0     H33310   2.461  -0.652   3.293 -1.8289  0.6536 -1.3862
  247MOL0     H33311   2.456  -0.703   3.560  0.4290  0.3021  0.5271
  247MOL0     H33312   2.402  -0.862   3.506 -0.3863  1.8095  1.6741
  247MOL0     H33313   2.587  -0.917   3.391  1.0829  1.1503 -2.5030
  247MOL0     H33314   2.665  -0.761   3.402  0.3062 -1.5087 -1.4721
  247MOL0     H33315   2.602  -0.949   3.644 -0.0436 -4.1383 -4.1374
  247MOL0     H33316   2.686  -0.788   3.649  1.7202 -1.2040 -0.3350
  247MOL0     H33317   2.856  -0.924   3.494 -3.7141 -1.0362 -3.0665
  247MOL0     H33318   2.754  -1.064   3.523  2.7515 -3.4180  2.1680
  247MOL0     H33319   2.891  -0.887   3.731  0.6427  0.1678 -0.6496
  247MOL0     H33320   2.780  -1.024   3.780  1.9920 -1.3507 -0.0156
  247MOL0     H33321   3.045  -1.046   3.635 -0.7315 -0.8338 -2.1326
  247MOL0     H33322   2.938  -1.177   3.630 -1.9374 -0.0811  2.1890
  247MOL0     H33323   3.044  -1.056   3.894 -0.0430  1.3455 -1.1142
  247MOL0     H33324   2.925  -1.179   3.899  0.0811 -1.4010  0.0561
  247MOL0     H33325   2.478  -0.457   3.356  0.5224 -3.1720 -1.5287
  247MOL0     H33326   2.445  -0.252   3.236  1.2657 -1.9759  1.7724
  247MOL0     H33327   2.077  -0.052   2.982 -1.9279 -0.0574 -4.8354
  247MOL0     H33328   2.064   0.075   2.785  1.9361  0.4055 -2.5257
  247MOL0     H33329   2.618   2.036   2.429  0.0450  1.6419 -2.1714
  247MOL0     H33330   2.590   2.102   2.181 -0.0105 -0.4945 -1.9134
  247MOL0     H33331   2.544   2.022   1.770 -0.3903  0.2421  0.5611
  247MOL0     H33332   2.541   2.100   1.533  0.0582 -0.4488 -1.1561
  247MOL0     H33333   2.937   2.188   1.316  0.2005 -0.7730  0.5444
  247MOL0     H33334   2.821   2.304   1.401 -3.3760 -0.9690  0.7429
  247MOL0     H33335   2.770   2.163   1.137  0.5951 -1.5267  0.8382
  247MOL0     H33336   2.828   2.337   1.147 -0.5242  0.6661  0.2238
  247MOL0     H33337   2.609   2.399   1.168 -1.4423  0.6588  0.7041
  247MOL0     H33338   2.612   2.332   1.326  0.7096 -3.0230  1.1397
  247MOL0     H33339   2.547   2.114   1.232  2.3005  2.4100  2.7781
  247MOL0     H33340   2.424   2.225   1.226 -0.2010  1.1085  1.1600
  247MOL0     H33341   2.561   2.126   0.809 -0.0078 -2.1590  0.7471
  247MOL0     H33342   2.972   2.074   1.541  0.0803  1.3341  0.3052
  247MOL0     H33343   3.023   2.103   1.892  2.0479  0.7209 -0.7807
  247MOL0     H33344   3.045   1.942   1.817 -2.7764 -1.7378 -1.3659
  247MOL0     H33345   3.087   2.097   1.730 -2.0189  0.5560 -1.5347
  248MOL0     O33346   0.281   8.691   3.315 -0.4340  0.3980 -0.0138
  248MOL0     C33347   0.244   8.794   3.371 -0.8387  0.8554  0.4856
  248MOL0     O33348   0.110   8.829   3.382 -1.6459  0.2886 -0.0088
  248MOL0     C33349   0.018   8.737   3.328 -0.4585 -0.1708 -0.3546
  248MOL0     C33350  -0.043   8.759   3.203 -1.0124 -1.4773 -0.4273
  248MOL0     C33351  -0.111   8.655   3.148  0.2014 -0.0314  0.0887
  248MOL0     C33352  -0.130   8.534   3.213  0.3279 -0.4775  0.8061
  248MOL0     O33353  -0.216   8.459   3.140 -0.5804  0.5896 -0.9138
  248MOL0     C33354  -0.257   8.334   3.196  0.0364 -0.2499  0.2536
  248MOL0     C33355  -0.390   8.292   3.147  0.0748  0.0534 -0.2716
  248MOL0     C33356  -0.437   8.163   3.222 -0.2737 -0.0837 -0.2666
  248MOL0     C33357  -0.586   8.143   3.226 -0.0268  0.0823  0.0356
  248MOL0     C33358  -0.629   8.011   3.298 -0.7966  0.2350  0.2934
  248MOL0     C33359  -0.784   8.002   3.308 -1.1888  0.9449  0.0559
  248MOL0     C33360  -0.871   8.015   3.191 -0.8531 -0.0459 -0.1472
  248MOL0     C33361  -0.847   7.907   3.078 -0.2146 -0.7571  0.2003
  248MOL0     N33362  -0.878   7.767   3.110 -1.2143 -0.8109  0.1099
  248MOL0     C33363  -0.797   7.692   3.193 -0.3637 -0.4676  0.0342
  248MOL0     C33364  -0.851   7.575   3.198 -0.3029 -0.6573 -0.4535
  248MOL0     C33365  -0.804   7.451   3.282  0.0463 -0.1936  0.5935
  248MOL0     C33366  -0.912   7.413   3.383  0.1351  0.1909  0.7478
  248MOL0     C33367  -1.028   7.338   3.320 -0.3604  1.3744 -0.1549
  248MOL0     C33368  -1.130   7.305   3.436 -0.4696  0.0609  0.4334
  248MOL0     O33369  -1.242   7.237   3.369  0.2431  0.3407 -0.9403
  248MOL0     C33370  -1.324   7.161   3.459 -0.0441 -0.8465 -0.3968
  248MOL0     C33371  -1.452   7.136   3.415 -0.4608 -0.8904 -0.1539
  248MOL0     C33372  -1.533   7.039   3.477 -0.4071 -0.5385  1.1929
  248MOL0     C33373  -1.483   6.977   3.600 -0.4322  0.3262  0.7542
  248MOL0     C33374  -1.565   6.892   3.677  0.2458  0.6116  0.1992
  248MOL0     O33375  -1.702   6.919   3.666 -0.1964  0.4416  0.1572
  248MOL0     C33376  -1.800   6.867   3.739  0.3205 -1.1447  0.6615
  248MOL0     C33377  -1.787   6.824   3.871  0.2940  0.5720  0.5678
  248MOL0     C33378  -1.901   6.783   3.937  0.2378 -0.1716 -1.3550
  248MOL0     C33379  -2.029   6.772   3.886  0.4054 -0.5464  0.1292
  248MOL0     O33380  -2.124   6.728   3.978  0.3168  0.0853 -0.4983
  248MOL0     C33381  -2.264   6.737   3.957  0.2926  0.1311 -0.0746
  248MOL0     C33382  -2.335   6.601   3.974  0.1833 -0.3143  0.1431
  248MOL0     C33383  -2.451   6.586   3.882 -0.3423 -0.7891 -0.3322
  248MOL0     C33384  -2.583   6.668   3.932 -0.1811  1.1934  0.1413
  248MOL0     C33385  -2.709   6.629   3.844 -0.4236 -0.7396 -0.6561
  248MOL0     C33386  -2.697   6.676   3.694  0.7016 -0.9004  0.6584
  248MOL0     C33387  -2.833   6.700   3.619 -0.1107 -1.1657  0.3358
  248MOL0     C33388  -2.809   6.768   3.490  0.5979  0.4601  0.2165
  248MOL0    Cl33389  -2.733   6.662   3.359  0.5756  0.2244 -0.2228
  248MOL0     C33390  -2.039   6.806   3.748 -0.2698  0.0064 -0.7163
  248MOL0     C33391  -1.928   6.862   3.678  0.3871 -0.2279 -1.3199
  248MOL0     O33392  -1.520   6.807   3.759  0.2413 -0.5968  0.3206
  248MOL0     C33393  -1.353   6.999   3.644  0.5546  0.6771  0.3284
  248MOL0     C33394  -1.273   7.083   3.564  0.1824  0.0290  0.6008
  248MOL0     N33395  -0.959   7.566   3.111 -0.6110 -0.7998 -0.2384
  248MOL0     N33396  -0.969   7.684   3.056 -0.4102 -0.8460  0.4066
  248MOL0     C33397  -0.061   8.503   3.325 -0.1394 -0.8431 -0.7459
  248MOL0     C33398   0.012   8.602   3.390 -0.1412 -0.0373  0.4701
  248MOL0     C33399   0.346   8.874   3.443  0.2972  1.1256  0.0130
  248MOL0     C33400   0.469   8.809   3.480 -0.1954  0.5965 -0.7390
  248MOL0     C33401   0.560   8.870   3.569 -0.1915  0.6070  0.5687
  248MOL0     C33402   0.531   8.991   3.622 -0.5434 -0.3981 -0.0495
  248MOL0     O33403   0.636   9.030   3.705  1.0568 -0.4480  0.0426
  248MOL0     C33404   0.609   9.140   3.798 -0.5294  0.2626 -0.0136
  248MOL0     C33405   0.730   9.167   3.892 -0.5219 -0.2703 -0.4966
  248MOL0     C33406   0.771   9.032   3.959  0.0860 -0.9657 -0.4246
  248MOL0     C33407   0.659   8.970   4.050  0.5991  0.4396  0.1851
  248MOL0     C33408   0.721   8.859   4.132 -0.0515  0.4960  0.8018
  248MOL0     C33409   0.760   8.773   4.211 -0.5955  0.0163  0.4577
  248MOL0     C33410   0.418   9.066   3.585  0.9175 -0.2458 -0.2785
  248MOL0     C33411   0.324   9.002   3.498  0.3143  0.1283  0.0237
  248MOL0     C33412   0.201   9.084   3.448  0.5246 -0.1715  0.2288
  248MOL0     H33413  -0.027   8.851   3.148 -1.0403 -1.3803 -0.2740
  248MOL0     H33414  -0.150   8.669   3.047 -0.3622 -4.8156 -0.6154
  248MOL0     H33415  -0.174   8.265   3.178  1.9481  2.2907 -1.3926
  248MOL0     H33416  -0.273   8.350   3.303  0.0933  1.5133  0.0266
  248MOL0     H33417  -0.382   8.280   3.039 -1.6757  3.2820 -0.8812
  248MOL0     H33418  -0.450   8.379   3.174  3.8243  3.2924 -1.4752
  248MOL0     H33419  -0.407   8.154   3.327 -4.7588 -2.2772  1.0980
  248MOL0     H33420  -0.395   8.077   3.168 -0.4836 -1.1328  1.1546
  248MOL0     H33421  -0.634   8.227   3.277 -2.7884 -1.0997 -0.4181
  248MOL0     H33422  -0.618   8.149   3.122  0.9898 -0.0712 -0.3006
  248MOL0     H33423  -0.597   7.921   3.245  0.5866  0.4486  0.7201
  248MOL0     H33424  -0.578   8.012   3.395  1.1853  0.9233 -0.7012
  248MOL0     H33425  -0.809   7.900   3.340 -2.4660  1.6261  1.3217
  248MOL0     H33426  -0.824   8.074   3.380 -1.5764 -2.1163  3.1667
  248MOL0     H33427  -0.857   8.117   3.156  1.2885 -0.5953 -1.0582
  248MOL0     H33428  -0.976   8.009   3.222 -0.4806  0.0054  1.2099
  248MOL0     H33429  -0.908   7.952   2.999 -1.7000  0.8105  2.1418
  248MOL0     H33430  -0.742   7.903   3.046 -0.7319 -2.0569 -1.5117
  248MOL0     H33431  -0.710   7.731   3.244 -1.6797  1.8829  0.6162
  248MOL0     H33432  -0.786   7.378   3.202  1.6457  0.9603 -0.1713
  248MOL0     H33433  -0.705   7.476   3.322  0.5231  0.6371 -1.0044
  248MOL0     H33434  -0.865   7.344   3.454  4.2857  1.0572 -0.8748
  248MOL0     H33435  -0.955   7.502   3.428  2.6290  1.4205  0.8915
  248MOL0     H33436  -1.002   7.239   3.279  2.8791  3.1003 -2.8354
  248MOL0     H33437  -1.087   7.389   3.243 -0.7880  0.1395 -0.6833
  248MOL0     H33438  -1.170   7.400   3.473  1.5573  2.1263 -2.2347
  248MOL0     H33439  -1.092   7.237   3.513 -0.9421 -0.6075  0.0933
  248MOL0     H33440  -1.482   7.178   3.320  1.5359 -0.6057 -0.7026
  248MOL0     H33441  -1.630   7.015   3.436  0.7746 -1.3282 -1.3408
  248MOL0     H33442  -1.693   6.832   3.924 -0.6717  3.0482  2.0983
  248MOL0     H33443  -1.891   6.757   4.042 -1.3339 -0.9844 -1.3765
  248MOL0     H33444  -2.310   6.805   4.029  0.1676 -1.4255  1.3523
  248MOL0     H33445  -2.283   6.785   3.860 -0.4909 -1.1279 -0.5653
  248MOL0     H33446  -2.261   6.521   3.961  1.2919  0.5888  0.6830
  248MOL0     H33447  -2.370   6.602   4.078  0.4751  0.7090  0.2402
  248MOL0     H33448  -2.435   6.619   3.779 -0.3524  0.3141  0.0167
  248MOL0     H33449  -2.475   6.479   3.871 -0.2320 -0.7014 -1.5247
  248MOL0     H33450  -2.555   6.773   3.925  2.5757  0.7699  2.9212
  248MOL0     H33451  -2.606   6.647   4.037  0.4114 -2.4405 -0.3181
  248MOL0     H33452  -2.789   6.676   3.903  0.9374 -4.2079  4.6985
  248MOL0     H33453  -2.735   6.523   3.847 -1.4499 -0.5539 -2.0266
  248MOL0     H33454  -2.648   6.774   3.696 -1.4161  0.2813 -0.6621
  248MOL0     H33455  -2.635   6.603   3.641  0.4440 -0.6001 -0.0770
  248MOL0     H33456  -2.902   6.761   3.679 -2.6012  0.6802 -3.9725
  248MOL0     H33457  -2.890   6.611   3.591 -0.5859 -0.5265 -0.7955
  248MOL0     H33458  -2.905   6.804   3.452 -1.2992 -0.5013  3.7318
  248MOL0     H33459  -2.754   6.862   3.504  1.6456 -0.2776  1.3040
  248MOL0     H33460  -2.127   6.793   3.687  0.2020  4.8749 -2.9009
  248MOL0     H33461  -1.942   6.890   3.574 -3.0357 -1.8161 -1.4270
  248MOL0     H33462  -1.320   6.946   3.733 -1.4096 -0.3152  0.5203
  248MOL0     H33463  -1.169   7.088   3.594  0.3299  1.0830 -0.0305
  248MOL0     H33464  -0.072   8.402   3.364  0.8725 -1.7657 -2.6835
  248MOL0     H33465   0.081   8.583   3.471 -1.8666 -2.8611  1.4335
  248MOL0     H33466   0.491   8.709   3.446 -2.2886 -0.0720 -0.3028
  248MOL0     H33467   0.660   8.831   3.587 -0.7688 -1.1082  0.2653
  248MOL0     H33468   0.537   9.112   3.876 -0.0879 -0.1993  0.2342
  248MOL0     H33469   0.574   9.230   3.746  0.3940  1.2350  1.0175
  248MOL0     H33470   0.727   9.256   3.956  1.3346  0.5150 -1.4363
  248MOL0     H33471   0.818   9.195   3.833  0.7330 -1.7208  0.6091
  248MOL0     H33472   0.843   9.060   4.037 -1.6233 -0.5120  1.0762
  248MOL0     H33473   0.821   8.972   3.883  1.5766  1.3495 -1.3801
  248MOL0     H33474   0.616   9.056   4.103 -0.0295  1.0366 -1.2403
  248MOL0     H33475   0.576   8.930   3.991  0.3048 -0.9963  1.5144
  248MOL0     H33476   0.806   8.708   4.283  2.9170 -0.3818 -1.8992
  248MOL0     H33477   0.387   9.164   3.620 -1.3767 -0.8046 -0.5995
  248MOL0     H33478   0.109   9.051   3.498 -3.1530  2.5786 -3.9134
  248MOL0     H33479   0.217   9.189   3.475  1.4046  0.1832 -1.5299
  248MOL0     H33480   0.190   9.072   3.340 -1.6013 -1.1254  0.4919
  249MOL0     O33481   0.110   3.138   7.874  0.1531 -0.4821  0.1145
  249MOL0     C33482   0.193   3.087   7.793  0.0485 -0.5219 -0.2004
  249MOL0     O33483   0.205   2.953   7.761  0.1155 -0.3819  0.0116
  249MOL0     C33484   0.095   2.864   7.762 -1.3397  0.3741  0.1260
  249MOL0     C33485  -0.030   2.899   7.708  0.2645 -0.6475  0.6457
  249MOL0     C33486  -0.134   2.805   7.702  0.3145  0.2544  0.6006
  249MOL0     C33487  -0.134   2.688   7.765 -0.0467 -0.2335  0.3042
  249MOL0     O33488  -0.247   2.612   7.770  0.1632  1.0658 -0.1890
  249MOL0     C33489  -0.265   2.511   7.876 -0.3261 -0.1364 -0.4184
  249MOL0     C33490  -0.213   2.366   7.843  1.1966 -0.3834 -0.6122
  249MOL0     C33491  -0.317   2.298   7.755 -0.2292  0.6535 -0.7940
  249MOL0     C33492  -0.243   2.179   7.682  0.4898  1.0369 -0.1674
  249MOL0     C33493  -0.345   2.078   7.628  0.2383  0.2981  0.5004
  249MOL0     C33494  -0.287   1.945   7.585  0.3144  0.1032  0.4995
  249MOL0     C33495  -0.398   1.850   7.534 -1.2126  0.7488 -0.1551
  249MOL0     C33496  -0.447   1.771   7.666  0.7700  0.2818  0.5018
  249MOL0     N33497  -0.586   1.752   7.643 -1.0660 -1.1699 -0.6375
  249MOL0     C33498  -0.647   1.706   7.534  1.0261  0.7112  0.0090
  249MOL0     C33499  -0.778   1.692   7.575 -0.2985  0.0304  0.0940
  249MOL0     C33500  -0.902   1.657   7.498  0.8612  0.6014  0.4794
  249MOL0     C33501  -0.880   1.603   7.354  0.1907 -0.2168  0.0540
  249MOL0     C33502  -0.998   1.538   7.296  0.0887 -0.2065 -0.3813
  249MOL0     C33503  -1.027   1.568   7.148 -0.4397 -0.3185  0.3140
  249MOL0     O33504  -0.926   1.509   7.066  0.1187  0.8630 -0.0969
  249MOL0     C33505  -0.824   1.595   7.032 -0.2820 -0.3629  1.1621
  249MOL0     C33506  -0.838   1.729   7.004 -0.1789 -0.3205 -0.1815
  249MOL0     C33507  -0.723   1.813   6.998  0.0703 -0.8791 -0.5033
  249MOL0     C33508  -0.593   1.764   7.026  0.0545  0.2232 -0.4865
  249MOL0     C33509  -0.481   1.856   7.071  0.1994  1.2977 -1.0392
  249MOL0     O33510  -0.479   1.979   7.021  0.7443  0.3551 -0.9211
  249MOL0     C33511  -0.377   2.053   7.062 -1.6884  0.8123  0.7074
  249MOL0     C33512  -0.376   2.149   7.164  0.3118  0.5135 -0.2838
  249MOL0     C33513  -0.290   2.256   7.168 -0.0786 -0.1456 -0.5217
  249MOL0     C33514  -0.178   2.262   7.088 -1.2285 -0.6620 -0.6467
  249MOL0     O33515  -0.076   2.358   7.087  0.6142  0.4445  0.0225
  249MOL0     C33516  -0.112   2.477   7.160 -0.3947 -0.3453 -0.4947
  249MOL0     C33517  -0.074   2.476   7.311  0.4429  0.0505  0.2287
  249MOL0     C33518   0.069   2.479   7.344 -0.5241  0.1444 -1.2361
  249MOL0     C33519   0.088   2.421   7.485 -0.7235  0.2141  0.2968
  249MOL0     C33520   0.237   2.423   7.511  0.7581  0.2425 -0.2304
  249MOL0     C33521   0.282   2.368   7.645 -0.8425 -0.3299  0.1552
  249MOL0     C33522   0.422   2.423   7.673 -0.1139 -0.3725  0.8988
  249MOL0     C33523   0.486   2.376   7.802  0.3776 -1.0283 -0.4909
  249MOL0    Cl33524   0.440   2.453   7.959 -0.6654  0.2122  0.1022
  249MOL0     C33525  -0.165   2.160   6.987 -0.7608 -0.5657 -0.1208
  249MOL0     C33526  -0.264   2.055   6.972 -0.4815  0.3007  0.5107
  249MOL0     O33527  -0.415   1.818   7.171  0.6438 -0.0863 -0.4668
  249MOL0     C33528  -0.580   1.628   7.053  0.2667 -0.2184 -1.1428
  249MOL0     C33529  -0.692   1.548   7.047 -0.9655 -0.8278  1.0563
  249MOL0     N33530  -0.789   1.727   7.711  0.3874 -0.0318 -0.4393
  249MOL0     N33531  -0.670   1.776   7.748 -0.0015 -0.6975 -0.2065
  249MOL0     C33532  -0.016   2.655   7.831  0.0181 -0.7290  0.2504
  249MOL0     C33533   0.098   2.739   7.832 -0.0620 -0.5486  0.5417
  249MOL0     C33534   0.267   3.195   7.709 -0.3088  0.8615 -0.8157
  249MOL0     C33535   0.412   3.195   7.722 -0.2492  0.1800  0.0024
  249MOL0     C33536   0.496   3.277   7.638 -0.5290  0.3844  0.2342
  249MOL0     C33537   0.431   3.356   7.537 -1.2401 -0.6513  0.4331
  249MOL0     O33538   0.505   3.423   7.439  0.3187  0.5699 -0.0856
  249MOL0     C33539   0.645   3.402   7.439 -1.0498  0.0212  0.1116
  249MOL0     C33540   0.705   3.480   7.315  0.1031 -0.2961 -0.2211
  249MOL0     C33541   0.694   3.633   7.352 -0.5483  0.1008 -0.3325
  249MOL0     C33542   0.730   3.723   7.226  0.2436  0.5538  0.1264
  249MOL0     C33543   0.863   3.696   7.165 -0.0696 -0.2348 -1.2173
  249MOL0     C33544   0.978   3.660   7.151  1.3759  0.7421 -0.5792
  249MOL0     C33545   0.297   3.357   7.529 -0.1073 -0.0200 -0.0698
  249MOL0     C33546   0.214   3.266   7.598  0.1435  0.3690 -0.9031
  249MOL0     C33547   0.071   3.269   7.574 -0.3099  0.5325  0.1809
  249MOL0     H33548  -0.049   2.994   7.659  2.7811  0.7797  2.2165
  249MOL0     H33549  -0.223   2.834   7.648  1.6778 -0.7797 -2.4472
  249MOL0     H33550  -0.224   2.552   7.968  1.7360 -2.1633 -0.3553
  249MOL0     H33551  -0.373   2.504   7.892 -0.6968  2.6107 -1.2186
  249MOL0     H33552  -0.199   2.309   7.935 -1.1920  0.2582  0.2245
  249MOL0     H33553  -0.120   2.377   7.786  1.1420  2.9967 -0.2453
  249MOL0     H33554  -0.357   2.363   7.676  0.3096  1.0128 -0.7783
  249MOL0     H33555  -0.400   2.255   7.811 -0.1092  0.8592 -0.4527
  249MOL0     H33556  -0.176   2.217   7.604  2.0697 -0.8193  0.2111
  249MOL0     H33557  -0.179   2.116   7.744  1.0210 -0.4844 -2.1441
  249MOL0     H33558  -0.418   2.067   7.709 -0.2306  1.1116  0.2032
  249MOL0     H33559  -0.400   2.122   7.545  1.9895 -0.3473 -1.0617
  249MOL0     H33560  -0.230   1.962   7.493 -1.5904  3.7085 -0.2010
  249MOL0     H33561  -0.231   1.886   7.659  0.6767 -2.4425 -1.6701
  249MOL0     H33562  -0.365   1.777   7.460 -2.6282 -1.6909  1.4866
  249MOL0     H33563  -0.482   1.910   7.500  0.3803  3.5480  0.5544
  249MOL0     H33564  -0.397   1.674   7.667 -2.1592 -1.3553  2.9131
  249MOL0     H33565  -0.424   1.825   7.759  1.1831 -0.3987  0.7974
  249MOL0     H33566  -0.619   1.697   7.430 -0.5603  0.1675 -0.3953
  249MOL0     H33567  -0.950   1.589   7.569  4.6469  0.0242  2.7436
  249MOL0     H33568  -0.971   1.742   7.500  1.3912  1.0923 -0.9548
  249MOL0     H33569  -0.842   1.689   7.299  1.1424 -0.7578 -0.1720
  249MOL0     H33570  -0.799   1.530   7.360 -0.7859 -1.5110 -1.7409
  249MOL0     H33571  -1.093   1.553   7.349 -0.6779 -0.7891 -1.5515
  249MOL0     H33572  -0.977   1.431   7.289  0.5758  0.0215 -4.0551
  249MOL0     H33573  -1.046   1.676   7.141  1.2900 -0.0092 -0.0389
  249MOL0     H33574  -1.125   1.521   7.136  0.0330 -1.6523  1.4761
  249MOL0     H33575  -0.926   1.791   6.993 -0.1609 -0.4032 -0.8399
  249MOL0     H33576  -0.746   1.918   6.986 -3.2503 -1.1213  2.1527
  249MOL0     H33577  -0.458   2.153   7.235  0.2506  1.3054 -0.3979
  249MOL0     H33578  -0.313   2.322   7.250 -1.4987 -2.2620  0.8760
  249MOL0     H33579  -0.069   2.565   7.112 -0.5693  1.1505  1.9076
  249MOL0     H33580  -0.218   2.492   7.138 -0.0691 -2.1701 -3.9880
  249MOL0     H33581  -0.111   2.568   7.357  0.8062  0.4091 -0.1814
  249MOL0     H33582  -0.134   2.400   7.362 -1.2942  1.9606  1.1855
  249MOL0     H33583   0.124   2.410   7.279 -0.7528 -0.5438 -0.6995
  249MOL0     H33584   0.098   2.584   7.352 -0.2568 -0.0592  1.1562
  249MOL0     H33585   0.050   2.318   7.483 -1.9005  0.6006  1.3638
  249MOL0     H33586   0.040   2.483   7.561 -0.7217 -1.5579  1.8270
  249MOL0     H33587   0.277   2.517   7.472 -1.3197  0.8677 -1.0003
  249MOL0     H33588   0.286   2.354   7.442 -0.5825 -2.6761  1.5249
  249MOL0     H33589   0.211   2.397   7.723 -1.3850  0.8508 -0.7493
  249MOL0     H33590   0.292   2.259   7.634 -0.9980 -0.2855 -0.4877
  249MOL0     H33591   0.422   2.531   7.690 -1.9264 -0.4930  1.9005
  249MOL0     H33592   0.483   2.399   7.586 -2.9115 -0.2297 -1.2268
  249MOL0     H33593   0.463   2.269   7.814  1.4462 -0.9947  2.5728
  249MOL0     H33594   0.592   2.395   7.786  0.5717  0.6071  2.2002
  249MOL0     H33595  -0.081   2.161   6.919 -1.7346  0.0087 -1.3489
  249MOL0     H33596  -0.260   1.985   6.888 -1.2100  0.8635 -0.0096
  249MOL0     H33597  -0.489   1.582   7.091  0.2383 -0.5115 -1.4236
  249MOL0     H33598  -0.683   1.445   7.077 -1.3505 -0.6753  1.7193
  249MOL0     H33599   0.002   2.567   7.893 -1.5833 -2.1362 -1.1569
  249MOL0     H33600   0.189   2.718   7.888 -1.3891 -2.3262  2.1700
  249MOL0     H33601   0.466   3.124   7.783  2.2185  1.3496 -0.6890
  249MOL0     H33602   0.602   3.288   7.656 -0.5460 -0.6040  1.0016
  249MOL0     H33603   0.668   3.296   7.422  0.9246  0.5438 -0.7590
  249MOL0     H33604   0.697   3.431   7.530  4.1678 -2.5479 -1.6876
  249MOL0     H33605   0.646   3.455   7.226 -0.4224 -3.7881  0.9370
  249MOL0     H33606   0.810   3.449   7.310 -0.0774 -0.7970 -1.1587
  249MOL0     H33607   0.758   3.646   7.439 -2.3763  0.0596  1.0782
  249MOL0     H33608   0.594   3.656   7.391 -0.3739 -1.4807  1.1533
  249MOL0     H33609   0.653   3.718   7.148 -0.9884  3.5923  0.9762
  249MOL0     H33610   0.728   3.826   7.264 -0.9310  1.3987 -2.0113
  249MOL0     H33611   1.077   3.619   7.142  0.8486 -0.5412 -0.8600
  249MOL0     H33612   0.244   3.413   7.452  0.5178 -1.0738 -1.3068
  249MOL0     H33613   0.055   3.168   7.533  0.4571 -0.2790  1.8022
  249MOL0     H33614   0.010   3.299   7.660 -4.9502  1.9361 -3.1815
  249MOL0     H33615   0.053   3.351   7.503 -1.3992  0.0868 -0.0876
  250MOL0     O33616   3.541   6.325   7.589  0.4426 -0.1625 -0.5238
  250MOL0     C33617   3.592   6.216   7.554  0.0191 -0.0329 -0.3632
  250MOL0     O33618   3.536   6.120   7.469 -1.0432  0.4034 -0.4531
  250MOL0     C33619   3.423   6.127   7.396 -0.2331 -0.2965  0.0457
  250MOL0     C33620   3.319   6.218   7.414 -0.2343 -0.2899 -0.0442
  250MOL0     C33621   3.198   6.206   7.342  0.0347 -0.6534 -0.0311
  250MOL0     C33622   3.173   6.108   7.247 -0.6937 -0.1768  0.3979
  250MOL0     O33623   3.044   6.105   7.201  0.2411  0.2849  0.2645
  250MOL0     C33624   3.018   6.017   7.090  0.3725  0.3586 -0.4225
  250MOL0     C33625   2.876   6.044   7.032 -0.0689 -1.6415  0.6497
  250MOL0     C33626   2.837   6.188   7.008  0.2322 -0.0061 -0.2631
  250MOL0     C33627   2.704   6.208   6.933  0.1773 -0.4170  0.0656
  250MOL0     C33628   2.666   6.352   6.904 -0.2630 -0.4557  0.0467
  250MOL0     C33629   2.550   6.379   6.809  0.7003  0.1728  0.7760
  250MOL0     C33630   2.522   6.524   6.772  0.1326  0.0455  0.5932
  250MOL0     C33631   2.386   6.543   6.697  0.8893 -0.6829 -0.6436
  250MOL0     N33632   2.259   6.501   6.762 -0.6939  0.1008  0.3631
  250MOL0     C33633   2.237   6.497   6.893  0.1692 -0.2869  0.3896
  250MOL0     C33634   2.105   6.459   6.900 -0.1369 -0.2585  1.0093
  250MOL0     C33635   2.029   6.457   7.027  0.0098 -0.6017  0.4098
  250MOL0     C33636   1.880   6.440   7.013  0.8167 -0.4736  0.3490
  250MOL0     C33637   1.823   6.303   6.977  0.6084 -0.1751 -0.3898
  250MOL0     C33638   1.668   6.289   6.994 -0.8072 -0.8627  0.0115
  250MOL0     O33639   1.624   6.170   6.918 -0.3422 -0.4563  0.1741
  250MOL0     C33640   1.496   6.173   6.864  0.3669  0.2797 -0.2399
  250MOL0     C33641   1.481   6.129   6.733 -0.5789  0.0272 -0.1175
  250MOL0     C33642   1.356   6.141   6.672  1.1312 -0.4749 -0.0569
  250MOL0     C33643   1.242   6.181   6.744 -0.0783  0.6103  0.2494
  250MOL0     C33644   1.107   6.175   6.681  0.4138  0.3371 -0.3885
  250MOL0     O33645   1.010   6.257   6.729  0.5814  0.0745 -0.1591
  250MOL0     C33646   0.909   6.293   6.636  0.8405  0.1429  0.1926
  250MOL0     C33647   0.812   6.203   6.590 -0.0652 -0.1229 -0.3334
  250MOL0     C33648   0.706   6.247   6.511 -0.3029 -0.2539 -0.3296
  250MOL0     C33649   0.706   6.386   6.473 -0.8748 -0.6513  0.7343
  250MOL0     O33650   0.619   6.435   6.379  0.5492  0.3971  0.5783
  250MOL0     C33651   0.557   6.335   6.298 -0.0159 -1.1336 -1.4469
  250MOL0     C33652   0.507   6.384   6.165  0.7238 -0.1474  0.0724
  250MOL0     C33653   0.378   6.317   6.109  0.2318 -0.8765 -0.4795
  250MOL0     C33654   0.405   6.166   6.085  0.1337  0.1511 -0.3675
  250MOL0     C33655   0.295   6.101   5.997 -0.4047 -0.5068  0.0181
  250MOL0     C33656   0.333   5.959   5.978  0.4414  0.5400  0.5083
  250MOL0     C33657   0.217   5.872   5.926  0.6532 -0.3405 -0.5619
  250MOL0     C33658   0.261   5.768   5.814  0.3781 -0.3722  0.2307
  250MOL0    Cl33659   0.423   5.695   5.852 -0.1279  0.2678  0.1560
  250MOL0     C33660   0.808   6.473   6.518  0.0501 -0.6455  0.4509
  250MOL0     C33661   0.912   6.424   6.595  0.1527  0.4957 -0.4175
  250MOL0     O33662   1.106   6.122   6.572 -0.3979 -0.0314 -1.0343
  250MOL0     C33663   1.260   6.233   6.871 -1.1076 -0.0081 -1.1786
  250MOL0     C33664   1.390   6.229   6.930 -0.0620  0.2137  0.2987
  250MOL0     N33665   2.060   6.447   6.775  0.5416  0.4566 -0.0889
  250MOL0     N33666   2.150   6.469   6.688 -0.0976 -0.2598  0.7484
  250MOL0     C33667   3.276   6.021   7.219 -0.3648 -0.1805 -0.5552
  250MOL0     C33668   3.398   6.027   7.295  0.6313  0.5676  0.5274
  250MOL0     C33669   3.711   6.165   7.620 -0.0901  0.1828  0.3738
  250MOL0     C33670   3.791   6.070   7.551  0.6037  1.0154  0.0438
  250MOL0     C33671   3.892   6.000   7.610  0.2972  0.3975  0.4321
  250MOL0     C33672   3.922   6.031   7.740 -0.9940  0.0128  0.1322
  250MOL0     O33673   4.008   5.937   7.778  0.4194 -0.1771 -0.1904
  250MOL0     C33674   4.097   5.962   7.895  0.6437 -1.0054 -0.3094
  250MOL0     C33675   4.154   5.831   7.943 -0.5037 -0.1045  0.2385
  250MOL0     C33676   4.286   5.795   7.862 -0.6793 -0.1545 -0.6230
  250MOL0     C33677   4.366   5.673   7.914  0.8088  0.6895  0.2558
  250MOL0     C33678   4.310   5.541   7.863 -0.9749  0.0610  0.7114
  250MOL0     C33679   4.238   5.444   7.839  0.6934  0.1655 -0.3321
  250MOL0     C33680   3.865   6.130   7.810 -0.1602 -0.0801  0.0256
  250MOL0     C33681   3.759   6.202   7.752 -0.3749 -0.2326  0.2154
  250MOL0     C33682   3.693   6.316   7.832  0.4570  0.1758  0.1236
  250MOL0     H33683   3.324   6.304   7.479  4.3772  0.3951 -0.9775
  250MOL0     H33684   3.115   6.271   7.369  0.6319  0.9751 -1.9056
  250MOL0     H33685   3.089   6.031   7.008  0.9050 -2.0342 -0.4483
  250MOL0     H33686   3.027   5.910   7.111 -0.1227 -0.4612 -3.7997
  250MOL0     H33687   2.800   5.994   7.093  1.2685 -6.4639 -1.1248
  250MOL0     H33688   2.877   5.994   6.934  0.2002  1.2543 -0.9315
  250MOL0     H33689   2.923   6.241   6.967 -0.8979  2.0627 -0.1119
  250MOL0     H33690   2.821   6.240   7.103 -0.1197  1.2744 -0.9980
  250MOL0     H33691   2.717   6.160   6.836  3.7739  1.5819 -0.6395
  250MOL0     H33692   2.623   6.157   6.986 -1.2081  2.2772  0.7234
  250MOL0     H33693   2.638   6.412   6.991 -1.1084  3.8366 -2.8996
  250MOL0     H33694   2.737   6.407   6.842 -2.2180  1.1137 -0.8898
  250MOL0     H33695   2.586   6.329   6.719 -1.3563  0.5880 -0.3455
  250MOL0     H33696   2.461   6.334   6.855  0.9439  0.7840  1.8684
  250MOL0     H33697   2.613   6.561   6.724 -0.0915 -0.5234 -0.3036
  250MOL0     H33698   2.517   6.576   6.868  0.8927 -0.1686  0.7580
  250MOL0     H33699   2.380   6.653   6.698  2.6278 -0.5551 -0.8030
  250MOL0     H33700   2.396   6.502   6.596 -0.4922 -2.0655 -0.2568
  250MOL0     H33701   2.301   6.506   6.980 -0.4040  1.5359  0.6785
  250MOL0     H33702   2.083   6.384   7.088 -1.4658 -0.4127  2.0348
  250MOL0     H33703   2.048   6.559   7.062 -4.8702  0.2799  1.3489
  250MOL0     H33704   1.839   6.458   7.113  1.6418  0.1832  0.5761
  250MOL0     H33705   1.840   6.519   6.949 -1.4863  0.4533  2.7161
  250MOL0     H33706   1.874   6.228   7.038 -1.1411  0.5322  2.0926
  250MOL0     H33707   1.834   6.287   6.869 -3.5202 -0.6831 -0.9183
  250MOL0     H33708   1.621   6.386   6.975 -0.6608 -0.1115  2.9999
  250MOL0     H33709   1.643   6.264   7.097 -1.8905 -2.8850 -0.6892
  250MOL0     H33710   1.572   6.085   6.694  0.3883  1.5381  0.3607
  250MOL0     H33711   1.343   6.110   6.569 -0.7406 -3.4559  0.9553
  250MOL0     H33712   0.819   6.098   6.617 -1.3468 -0.0329  0.4229
  250MOL0     H33713   0.629   6.178   6.477 -0.3125  1.3747 -4.1434
  250MOL0     H33714   0.628   6.256   6.270  2.6277  1.7278 -3.6169
  250MOL0     H33715   0.472   6.309   6.361  1.3289 -0.1736  0.9003
  250MOL0     H33716   0.486   6.492   6.168  1.3829 -0.0215  2.6495
  250MOL0     H33717   0.596   6.368   6.103  0.9311 -0.5066  0.4611
  250MOL0     H33718   0.306   6.327   6.191 -0.3521 -1.6929 -0.8790
  250MOL0     H33719   0.346   6.362   6.015  1.7768  2.9618  0.6394
  250MOL0     H33720   0.400   6.122   6.185 -0.1293  2.1577  0.5497
  250MOL0     H33721   0.504   6.156   6.039  2.5772  2.8637  3.7351
  250MOL0     H33722   0.279   6.152   5.902 -1.4393  2.8581  1.8299
  250MOL0     H33723   0.200   6.113   6.050  0.1203  1.1203  0.6542
  250MOL0     H33724   0.420   5.953   5.912  0.3349 -2.0371  0.5043
  250MOL0     H33725   0.359   5.925   6.079 -3.0950 -2.5721  0.5666
  250MOL0     H33726   0.134   5.924   5.878  0.0484 -0.7670 -0.0051
  250MOL0     H33727   0.170   5.814   6.007  1.0385  0.3489  0.1661
  250MOL0     H33728   0.187   5.687   5.806 -2.6241  2.1214  0.8436
  250MOL0     H33729   0.266   5.811   5.713 -0.1310  2.6692  1.3841
  250MOL0     H33730   0.826   6.570   6.474 -1.8486 -1.0416 -1.3711
  250MOL0     H33731   0.990   6.491   6.630 -0.7389 -0.4775  4.0307
  250MOL0     H33732   1.185   6.270   6.940 -1.0629 -1.1470 -0.4956
  250MOL0     H33733   1.413   6.256   7.032  2.3559  1.6471 -0.5503
  250MOL0     H33734   3.253   5.942   7.149 -3.6725  1.4006 -1.4937
  250MOL0     H33735   3.463   5.943   7.271 -2.6485 -2.0668  0.1644
  250MOL0     H33736   3.763   6.037   7.452  0.5236 -2.4220  1.0727
  250MOL0     H33737   3.923   5.913   7.553  0.7974  0.9323 -0.1330
  250MOL0     H33738   4.046   6.019   7.973  2.5504  0.9291 -0.3779
  250MOL0     H33739   4.177   6.031   7.868  0.9933 -0.4251  1.9906
  250MOL0     H33740   4.074   5.758   7.928  0.0512 -0.8752  0.9939
  250MOL0     H33741   4.167   5.819   8.051  0.8000  0.3342  0.1503
  250MOL0     H33742   4.360   5.872   7.886  0.7158 -2.0072  1.4610
  250MOL0     H33743   4.282   5.805   7.753  2.4700 -0.4857 -0.8385
  250MOL0     H33744   4.469   5.694   7.883  1.1985  1.6253  2.0356
  250MOL0     H33745   4.359   5.669   8.023  1.1960  0.2448  0.2645
  250MOL0     H33746   4.175   5.357   7.840  1.1456 -0.2596 -2.7787
  250MOL0     H33747   3.886   6.141   7.916  1.4578 -1.4590 -0.1059
  250MOL0     H33748   3.716   6.405   7.772  1.1865  1.1786  1.8373
  250MOL0     H33749   3.587   6.294   7.847  0.8427 -0.1579  2.8529
  250MOL0     H33750   3.730   6.328   7.934 -1.1297  0.0765  0.7492
  251MOL0     O33751   5.848   5.344   5.148 -0.2663  0.4074  0.8867
  251MOL0     C33752   5.854   5.454   5.202 -0.1954 -0.4654 -0.5469
  251MOL0     O33753   5.968   5.504   5.260 -0.3766 -0.2681  0.2125
  251MOL0     C33754   6.087   5.444   5.232  0.0513 -0.0958 -0.7490
  251MOL0     C33755   6.161   5.486   5.129  0.0249  0.2556 -0.0685
  251MOL0     C33756   6.293   5.433   5.121 -0.3862  0.0297  0.0043
  251MOL0     C33757   6.347   5.333   5.209 -0.1270 -0.4847  0.9049
  251MOL0     O33758   6.471   5.283   5.198  0.3572  0.5371 -0.1676
  251MOL0     C33759   6.548   5.288   5.315 -0.6715 -0.2762 -0.5905
  251MOL0     C33760   6.687   5.204   5.300 -0.5565 -0.1975 -0.0061
  251MOL0     C33761   6.780   5.255   5.183 -0.1573  0.4638 -0.9233
  251MOL0     C33762   6.928   5.216   5.203  0.1057  0.9280 -0.0095
  251MOL0     C33763   7.014   5.283   5.094  0.2110  0.1567 -1.1513
  251MOL0     C33764   7.032   5.212   4.954 -0.0583  0.0025 -0.1313
  251MOL0     C33765   7.100   5.303   4.846  0.3453 -0.3459  0.1525
  251MOL0     C33766   7.242   5.317   4.866 -0.0349  0.8603  0.0878
  251MOL0     N33767   7.317   5.387   4.757  0.3127 -0.5763  1.0125
  251MOL0     C33768   7.253   5.469   4.665  0.9665  0.7031 -0.0295
  251MOL0     C33769   7.356   5.529   4.602  0.0146  0.4592 -0.0957
  251MOL0     C33770   7.344   5.632   4.490  0.1708  0.1141  1.0277
  251MOL0     C33771   7.410   5.766   4.529 -0.0749  0.7319 -0.0110
  251MOL0     C33772   7.376   5.831   4.660 -0.0804 -0.4116 -0.2948
  251MOL0     C33773   7.463   5.958   4.687  0.4016 -0.0838  0.5009
  251MOL0     O33774   7.422   6.068   4.606 -0.3337 -0.6585 -0.0913
  251MOL0     C33775   7.454   6.091   4.470  1.0254 -0.8850 -0.1173
  251MOL0     C33776   7.358   6.163   4.386 -0.1168 -0.2448  0.1455
  251MOL0     C33777   7.383   6.192   4.253 -0.4536  0.6157 -0.2721
  251MOL0     C33778   7.500   6.134   4.199  0.4420  0.0080 -0.4835
  251MOL0     C33779   7.521   6.138   4.050  0.4309  0.4527 -0.2437
  251MOL0     O33780   7.602   6.046   4.000 -0.4729  0.7935  0.3057
  251MOL0     C33781   7.695   6.076   3.901  0.3402  0.0374 -0.0729
  251MOL0     C33782   7.714   5.990   3.794 -0.4085  0.4900 -0.0251
  251MOL0     C33783   7.782   6.028   3.679 -0.3057  0.4936  0.1802
  251MOL0     C33784   7.852   6.152   3.679 -0.1811  0.3259  0.0321
  251MOL0     O33785   7.925   6.204   3.572  0.3526 -0.2023  0.2076
  251MOL0     C33786   7.898   6.166   3.439 -0.7866  0.5732 -0.1467
  251MOL0     C33787   8.032   6.190   3.365  0.0083  0.0250 -0.2767
  251MOL0     C33788   8.021   6.222   3.216  0.6642  0.0943 -0.3729
  251MOL0     C33789   8.159   6.224   3.142 -0.4406  0.9457 -0.6290
  251MOL0     C33790   8.150   6.260   2.983  0.2151  0.7932 -0.2070
  251MOL0     C33791   8.081   6.150   2.903 -0.0673  0.4098 -0.7878
  251MOL0     C33792   8.086   6.177   2.748  0.1177 -1.4650  0.2058
  251MOL0     C33793   7.997   6.087   2.678  0.3565  0.1083  0.1992
  251MOL0    Cl33794   7.822   6.145   2.699  0.3987  0.1607  0.5441
  251MOL0     C33795   7.855   6.232   3.786  0.4565  1.0479 -0.8740
  251MOL0     C33796   7.769   6.193   3.898 -0.0312 -0.9612  0.3900
  251MOL0     O33797   7.463   6.230   3.990  0.1031 -0.0419  0.6655
  251MOL0     C33798   7.592   6.050   4.278  0.2203 -0.5978 -1.0596
  251MOL0     C33799   7.564   6.039   4.412  0.1510 -0.3571 -0.7856
  251MOL0     N33800   7.472   5.473   4.644  0.4556 -0.1942 -0.0921
  251MOL0     N33801   7.448   5.400   4.747  0.2362 -0.9763  0.3922
  251MOL0     C33802   6.258   5.295   5.308  0.1193 -0.1948  0.7923
  251MOL0     C33803   6.132   5.352   5.315 -0.0139  0.6391 -0.4504
  251MOL0     C33804   5.730   5.540   5.206  0.0513  0.2180  0.3754
  251MOL0     C33805   5.691   5.588   5.328  0.1174 -0.3720  0.3631
  251MOL0     C33806   5.564   5.641   5.345  0.1408 -0.2355 -0.4974
  251MOL0     C33807   5.477   5.660   5.235 -0.6059 -0.5127  0.3106
  251MOL0     O33808   5.362   5.729   5.237 -0.1871 -0.0202  0.0173
  251MOL0     C33809   5.300   5.735   5.359  0.4114 -0.9549  0.3825
  251MOL0     C33810   5.327   5.865   5.425 -0.1252  0.0219 -0.0305
  251MOL0     C33811   5.223   5.893   5.537  0.3716  1.1195 -0.9178
  251MOL0     C33812   5.200   5.780   5.642 -0.1372  1.2592  0.7213
  251MOL0     C33813   5.060   5.764   5.673 -0.2067  0.0407  1.1297
  251MOL0     C33814   4.942   5.740   5.671 -0.2790 -0.0909  0.2030
  251MOL0     C33815   5.516   5.611   5.110 -1.3915  0.3333 -0.4965
  251MOL0     C33816   5.638   5.547   5.094  0.5413  0.2678 -0.8769
  251MOL0     C33817   5.684   5.507   4.961  0.1493 -0.5718 -0.2072
  251MOL0     H33818   6.126   5.570   5.070  1.6655  1.4285  0.5416
  251MOL0     H33819   6.363   5.461   5.043  0.6786 -1.9365  0.1970
  251MOL0     H33820   6.575   5.392   5.335  0.5540 -0.4619 -1.1733
  251MOL0     H33821   6.502   5.239   5.402  0.8136 -2.3758 -0.9017
  251MOL0     H33822   6.670   5.098   5.280  0.6341 -0.2845 -0.6949
  251MOL0     H33823   6.734   5.212   5.398 -2.1293 -2.4201  1.0070
  251MOL0     H33824   6.781   5.365   5.186 -0.7325  0.4823 -1.4865
  251MOL0     H33825   6.751   5.218   5.084  1.9594 -0.0441 -1.4021
  251MOL0     H33826   6.963   5.231   5.305 -0.3339  0.9699  0.1374
  251MOL0     H33827   6.937   5.109   5.182 -3.1360  0.2737  1.4014
  251MOL0     H33828   6.968   5.381   5.073  0.8575  0.5688 -0.6835
  251MOL0     H33829   7.112   5.301   5.138  0.6926 -4.8476  0.3811
  251MOL0     H33830   7.085   5.117   4.968  1.0470  0.6481  0.2076
  251MOL0     H33831   6.933   5.179   4.922  0.6186 -1.8750 -0.4064
  251MOL0     H33832   7.055   5.403   4.836 -1.0942 -0.8513  1.2169
  251MOL0     H33833   7.091   5.259   4.746  3.4631  4.9977 -2.9586
  251MOL0     H33834   7.253   5.369   4.961 -0.7490  4.0641 -1.4334
  251MOL0     H33835   7.270   5.212   4.871 -3.6846 -0.2602 -0.0895
  251MOL0     H33836   7.148   5.477   4.641  0.2624 -2.2418  1.5502
  251MOL0     H33837   7.387   5.589   4.400  1.7263  1.9576  0.8171
  251MOL0     H33838   7.241   5.659   4.466 -0.4011 -1.0669  2.0555
  251MOL0     H33839   7.518   5.762   4.512 -0.1301 -0.8424 -0.1279
  251MOL0     H33840   7.370   5.837   4.456  2.5321  1.4454 -0.8559
  251MOL0     H33841   7.394   5.756   4.737  0.6744  0.3484  0.2938
  251MOL0     H33842   7.270   5.859   4.660 -0.5745 -2.1661  0.4909
  251MOL0     H33843   7.567   5.931   4.666  0.5670 -0.0298  1.2183
  251MOL0     H33844   7.461   5.989   4.792  0.9918  0.9408  0.2255
  251MOL0     H33845   7.273   6.204   4.438  0.2888  0.9982 -0.1305
  251MOL0     H33846   7.313   6.252   4.196  0.4257  0.5387 -1.4703
  251MOL0     H33847   7.674   5.889   3.795  2.1180 -0.6193 -1.1176
  251MOL0     H33848   7.787   5.952   3.603 -1.5284 -0.8320  1.3735
  251MOL0     H33849   7.868   6.061   3.429 -0.0316  0.2347  0.9439
  251MOL0     H33850   7.812   6.226   3.408 -3.5790 -2.2697  1.4751
  251MOL0     H33851   8.092   6.272   3.407 -3.2926  1.1840  2.6569
  251MOL0     H33852   8.097   6.103   3.380 -0.6579 -0.3693  0.4293
  251MOL0     H33853   7.968   6.142   3.164 -0.4531  0.9093 -0.5352
  251MOL0     H33854   7.965   6.312   3.189 -0.6039  0.1454  2.1356
  251MOL0     H33855   8.212   6.129   3.155  0.2005  1.4132  0.3108
  251MOL0     H33856   8.213   6.309   3.184 -4.1282  2.6978  0.9972
  251MOL0     H33857   8.253   6.256   2.946 -0.7591 -1.0101 -3.1276
  251MOL0     H33858   8.107   6.358   2.961  0.1770  0.6688 -0.7031
  251MOL0     H33859   8.136   6.058   2.923  0.0040  0.2131 -1.8390
  251MOL0     H33860   7.978   6.128   2.933 -0.3053 -0.1205 -1.9573
  251MOL0     H33861   8.188   6.162   2.710 -0.1300 -0.0764 -1.1129
  251MOL0     H33862   8.048   6.278   2.731  0.2641 -1.7285 -2.0890
  251MOL0     H33863   8.032   6.097   2.575  0.2855  3.2381  0.3723
  251MOL0     H33864   8.014   5.985   2.714  3.6946  0.0793 -1.1187
  251MOL0     H33865   7.915   6.320   3.807  0.9634  0.2530  1.3381
  251MOL0     H33866   7.761   6.259   3.983  1.3301 -0.2902  0.0390
  251MOL0     H33867   7.685   6.009   4.240  1.1861 -1.4565  1.9223
  251MOL0     H33868   7.640   5.988   4.469 -0.7529 -0.4464  0.3601
  251MOL0     H33869   6.290   5.221   5.379  1.7942  0.5663  0.8618
  251MOL0     H33870   6.070   5.313   5.395  2.2210 -3.3743 -0.3467
  251MOL0     H33871   5.772   5.584   5.401  3.6269 -0.0197 -3.1727
  251MOL0     H33872   5.537   5.679   5.443  4.1582  2.5307 -0.2588
  251MOL0     H33873   5.303   5.640   5.411  1.6199 -0.3370  1.4816
  251MOL0     H33874   5.200   5.746   5.315  0.3206 -4.6333 -0.6720
  251MOL0     H33875   5.321   5.946   5.351 -1.0372  0.1705  0.1940
  251MOL0     H33876   5.426   5.861   5.470  0.7384 -3.4134 -1.9103
  251MOL0     H33877   5.127   5.920   5.490  0.6249  2.8294 -0.5278
  251MOL0     H33878   5.244   5.988   5.588  0.6849 -0.1031  1.3476
  251MOL0     H33879   5.236   5.684   5.604  0.7222  0.8315  2.5198
  251MOL0     H33880   5.255   5.794   5.735  1.1413  0.5448  0.0921
  251MOL0     H33881   4.837   5.716   5.662 -0.4716  1.2191 -1.6391
  251MOL0     H33882   5.458   5.628   5.020 -3.8172  2.4768  1.3225
  251MOL0     H33883   5.680   5.399   4.944 -0.7222 -0.9277  1.8846
  251MOL0     H33884   5.629   5.556   4.880  1.6207 -1.2461 -1.6595
  251MOL0     H33885   5.783   5.548   4.938  0.3970  0.5986  2.4680
  252MOL0     O33886   0.377   2.641   4.326 -0.4143 -0.0401 -0.0954
  252MOL0     C33887   0.298   2.559   4.277 -1.1345 -0.7816  0.8648
  252MOL0     O33888   0.338   2.440   4.221  0.2095 -0.1827  0.5548
  252MOL0     C33889   0.461   2.395   4.260  0.0326 -0.4874 -1.0316
  252MOL0     C33890   0.468   2.340   4.389 -0.5417  1.1300  0.3465
  252MOL0     C33891   0.592   2.318   4.439  0.5890  0.0462 -0.1189
  252MOL0     C33892   0.709   2.325   4.364  0.5805  0.1013  0.7755
  252MOL0     O33893   0.825   2.268   4.407  0.2151 -0.8666  0.1476
  252MOL0     C33894   0.946   2.341   4.376  1.1644  0.0333 -0.8233
  252MOL0     C33895   1.064   2.243   4.380 -0.5053 -0.3127 -0.3728
  252MOL0     C33896   1.204   2.311   4.390  0.0563  0.1263 -0.3314
  252MOL0     C33897   1.305   2.198   4.407  0.0617 -0.3141 -0.2191
  252MOL0     C33898   1.456   2.249   4.392 -0.0248  0.7634  0.5670
  252MOL0     C33899   1.558   2.143   4.445 -0.1790 -0.4707  0.3117
  252MOL0     C33900   1.649   2.213   4.554  0.2126 -0.0034  0.6986
  252MOL0     C33901   1.768   2.276   4.484 -0.7799 -0.3403 -0.5691
  252MOL0     N33902   1.872   2.296   4.584 -0.5101  0.0603 -0.3728
  252MOL0     C33903   1.870   2.378   4.693  0.6355  0.1010 -0.9636
  252MOL0     C33904   1.994   2.366   4.754 -1.0736 -0.6079 -0.0263
  252MOL0     C33905   2.038   2.435   4.882  0.1954 -0.4362  0.5373
  252MOL0     C33906   2.022   2.333   4.992  0.3653  0.7861  0.5777
  252MOL0     C33907   1.876   2.314   5.039  0.1749  0.3798  0.8494
  252MOL0     C33908   1.847   2.349   5.184  0.7340  0.4187  0.9196
  252MOL0     O33909   1.875   2.483   5.214  0.4560  0.7472  0.0775
  252MOL0     C33910   1.790   2.583   5.204  0.1400 -0.0379 -0.1658
  252MOL0     C33911   1.834   2.709   5.253  0.1761  0.2585  1.1681
  252MOL0     C33912   1.744   2.815   5.257 -0.8018  1.0798  0.6341
  252MOL0     C33913   1.619   2.792   5.201  0.6716 -0.0997  0.0019
  252MOL0     C33914   1.511   2.900   5.197 -0.1534 -0.2971 -0.6191
  252MOL0     O33915   1.411   2.903   5.104  0.5571  0.1368 -0.4761
  252MOL0     C33916   1.357   3.028   5.073 -0.0387 -0.2594  0.0424
  252MOL0     C33917   1.390   3.105   4.957 -1.0857 -0.6534  0.3339
  252MOL0     C33918   1.336   3.232   4.931 -1.6063  0.8002 -0.4456
  252MOL0     C33919   1.239   3.283   5.012  0.4123 -0.2539 -1.3014
  252MOL0     O33920   1.211   3.417   4.996 -0.4547  0.4414 -0.7813
  252MOL0     C33921   1.089   3.466   5.042 -0.1190  0.2424  0.3551
  252MOL0     C33922   0.974   3.434   4.939  0.4880  0.3044 -0.7403
  252MOL0     C33923   0.894   3.307   4.928 -0.4635  0.6849  0.0201
  252MOL0     C33924   0.806   3.283   5.052 -0.4034 -0.1727  0.5568
  252MOL0     C33925   0.703   3.184   5.027  1.0175 -0.0148  0.1819
  252MOL0     C33926   0.739   3.046   4.979 -0.0398  0.1204  0.1118
  252MOL0     C33927   0.844   2.989   5.078 -0.0696 -0.3202 -0.4879
  252MOL0     C33928   0.884   2.840   5.066 -0.9261  0.3305  0.3467
  252MOL0    Cl33929   1.050   2.813   5.142 -0.2780 -0.4968  0.3048
  252MOL0     C33930   1.200   3.203   5.125  0.4720 -0.1012  0.1523
  252MOL0     C33931   1.266   3.083   5.159  0.5349 -0.0174 -0.0632
  252MOL0     O33932   1.524   2.988   5.287 -0.3629  1.4351 -0.3081
  252MOL0     C33933   1.578   2.680   5.142 -0.8016  0.0078 -0.3256
  252MOL0     C33934   1.660   2.574   5.153 -0.4765 -0.4655  1.1124
  252MOL0     N33935   2.066   2.270   4.677 -0.0940  1.3208  0.3619
  252MOL0     N33936   1.992   2.232   4.583 -1.2084  0.1447  0.1329
  252MOL0     C33937   0.695   2.373   4.228  0.3676 -0.1084  0.1228
  252MOL0     C33938   0.572   2.419   4.183  0.1771  0.5279 -0.5463
  252MOL0     C33939   0.153   2.593   4.277 -0.4256  0.9172  0.0900
  252MOL0     C33940   0.067   2.512   4.197 -0.2276  0.2316  0.1478
  252MOL0     C33941  -0.066   2.530   4.191 -0.1032 -0.0417  0.1904
  252MOL0     C33942  -0.123   2.639   4.265 -0.3041 -0.6366 -0.0909
  252MOL0     O33943  -0.262   2.644   4.258 -0.3446 -0.0747 -0.3147
  252MOL0     C33944  -0.329   2.721   4.356  0.3691  0.6818  1.4744
  252MOL0     C33945  -0.481   2.674   4.364  0.2423  0.7237  0.5324
  252MOL0     C33946  -0.572   2.726   4.257 -1.0926  0.8843 -0.6341
  252MOL0     C33947  -0.718   2.730   4.290  0.0298  0.3044 -0.3554
  252MOL0     C33948  -0.795   2.750   4.170  0.1023  0.2686  0.7369
  252MOL0     C33949  -0.861   2.782   4.071 -0.4511 -0.3767 -0.2488
  252MOL0     C33950  -0.038   2.722   4.341 -0.1054  0.2387  0.6414
  252MOL0     C33951   0.096   2.699   4.353 -0.2757 -0.3452  0.4301
  252MOL0     C33952   0.174   2.793   4.439  0.0014  0.2871 -0.2913
  252MOL0     H33953   0.378   2.319   4.445 -1.8718  2.0125 -1.3492
  252MOL0     H33954   0.579   2.281   4.540 -2.1364 -1.9972 -1.0735
  252MOL0     H33955   0.936   2.392   4.279  0.2420 -0.6657 -1.1105
  252MOL0     H33956   0.968   2.419   4.449  1.3907  0.2935 -1.1670
  252MOL0     H33957   1.055   2.187   4.287 -1.5857 -0.7135 -0.0399
  252MOL0     H33958   1.052   2.180   4.468 -0.1371  0.6787  0.4113
  252MOL0     H33959   1.207   2.382   4.472  1.7249  0.0454 -0.2876
  252MOL0     H33960   1.220   2.362   4.295 -0.7944 -0.0491 -0.5831
  252MOL0     H33961   1.291   2.148   4.503  3.0260 -3.5449 -1.2440
  252MOL0     H33962   1.283   2.122   4.332  0.6474 -3.5562  2.6626
  252MOL0     H33963   1.472   2.262   4.284 -1.6181  3.7085  0.5781
  252MOL0     H33964   1.472   2.350   4.430  0.6749  0.8580  0.0415
  252MOL0     H33965   1.499   2.063   4.491 -1.5279 -0.5613 -1.4377
  252MOL0     H33966   1.617   2.094   4.367  0.4410 -0.3040  0.6756
  252MOL0     H33967   1.677   2.138   4.629 -1.6951  0.8690  2.3846
  252MOL0     H33968   1.588   2.285   4.609 -1.2434  0.1226 -1.0066
  252MOL0     H33969   1.814   2.207   4.412  3.4920 -0.9915  2.4663
  252MOL0     H33970   1.735   2.365   4.429 -2.4674 -0.8769 -0.4982
  252MOL0     H33971   1.788   2.444   4.721 -1.3002 -3.2246  2.0417
  252MOL0     H33972   2.142   2.467   4.869 -0.0991  0.8561  1.1334
  252MOL0     H33973   1.976   2.521   4.909  2.2696  0.2041  3.9324
  252MOL0     H33974   2.059   2.235   4.964  1.7572  1.8384 -1.4838
  252MOL0     H33975   2.076   2.370   5.080  0.8023 -0.0802  0.6797
  252MOL0     H33976   1.851   2.213   5.007  0.8880  0.7770 -1.1044
  252MOL0     H33977   1.806   2.367   4.974  0.3252  1.6129  1.6472
  252MOL0     H33978   1.907   2.278   5.242  0.1610 -0.0200  0.9844
  252MOL0     H33979   1.743   2.323   5.207  0.9658 -1.3583  0.1132
  252MOL0     H33980   1.934   2.721   5.295 -0.0524  2.9473  1.1229
  252MOL0     H33981   1.769   2.911   5.299  0.3657  0.5863  1.1105
  252MOL0     H33982   1.462   3.058   4.890 -1.8008  0.3530 -1.1964
  252MOL0     H33983   1.373   3.295   4.850 -1.1231  0.4437 -0.5024
  252MOL0     H33984   1.063   3.444   5.146 -1.3348  3.0928  0.7367
  252MOL0     H33985   1.099   3.574   5.037 -1.0164  0.2709 -1.8835
  252MOL0     H33986   0.901   3.513   4.962  0.2710  0.4645 -1.9065
  252MOL0     H33987   1.027   3.446   4.845 -1.2877  0.1280 -1.8138
  252MOL0     H33988   0.839   3.324   4.835 -0.8648  1.3234  0.3691
  252MOL0     H33989   0.963   3.224   4.913  1.1015  1.6249  1.6308
  252MOL0     H33990   0.759   3.375   5.089 -2.0560 -0.9657  0.4872
  252MOL0     H33991   0.875   3.249   5.129  1.5748 -2.3329 -1.9854
  252MOL0     H33992   0.647   3.238   4.949  0.0043  1.6511  1.9726
  252MOL0     H33993   0.641   3.178   5.117 -1.2040 -0.5619 -1.2952
  252MOL0     H33994   0.656   2.976   4.990  1.0975 -1.2229  0.4006
  252MOL0     H33995   0.764   3.053   4.873  0.9848  0.0016  0.3353
  252MOL0     H33996   0.812   3.016   5.179  0.3282 -1.0527 -0.1637
  252MOL0     H33997   0.931   3.055   5.073  0.3335 -0.8200 -0.1088
  252MOL0     H33998   0.803   2.777   5.106  0.2302 -0.8789  0.8571
  252MOL0     H33999   0.900   2.814   4.961 -1.6058  3.1222 -0.5378
  252MOL0     H34000   1.136   3.237   5.207 -0.8531 -0.2365 -0.7835
  252MOL0     H34001   1.246   3.023   5.247  1.8511  0.9378  0.9281
  252MOL0     H34002   1.476   2.673   5.105 -1.6078  3.6320  0.7226
  252MOL0     H34003   1.621   2.481   5.112  2.9575 -0.8440 -1.8923
  252MOL0     H34004   0.781   2.390   4.164  1.5031  3.3595  2.2491
  252MOL0     H34005   0.562   2.463   4.085 -0.2078  2.1589  0.1852
  252MOL0     H34006   0.107   2.426   4.144  0.9158 -0.9628  2.7353
  252MOL0     H34007  -0.126   2.457   4.138 -0.3977  0.4834 -0.2117
  252MOL0     H34008  -0.332   2.827   4.331  2.8432  0.9454  2.0256
  252MOL0     H34009  -0.274   2.701   4.449  2.3732 -2.2271 -0.1710
  252MOL0     H34010  -0.526   2.718   4.454 -0.7069 -0.3128  0.5930
  252MOL0     H34011  -0.478   2.565   4.371 -1.4141  0.6866  1.1624
  252MOL0     H34012  -0.547   2.657   4.175  2.6513  1.7347 -0.3782
  252MOL0     H34013  -0.534   2.822   4.222  0.5354 -0.2661 -2.2488
  252MOL0     H34014  -0.748   2.638   4.342 -2.7689  2.2490  1.8333
  252MOL0     H34015  -0.733   2.799   4.374  3.1569 -1.1064  1.5482
  252MOL0     H34016  -0.912   2.800   3.978 -1.8389  1.1950  0.7335
  252MOL0     H34017  -0.086   2.806   4.391 -0.8706 -0.0424  0.3922
  252MOL0     H34018   0.233   2.730   4.507  0.4851 -0.0252 -0.9900
  252MOL0     H34019   0.239   2.856   4.378 -0.1471  1.8027  1.0253
  252MOL0     H34020   0.106   2.860   4.493 -0.3564  0.5837 -1.1065
  253MOL0     O34021   7.976   1.852   7.070 -0.6383 -0.3697 -0.2366
  253MOL0     C34022   7.971   1.898   6.957 -0.3611 -0.2370  0.5709
  253MOL0     O34023   8.075   1.898   6.865  0.2089 -0.4812 -0.1768
  253MOL0     C34024   8.204   1.882   6.896 -0.1687  0.0778 -0.5925
  253MOL0     C34025   8.291   1.957   6.810 -0.0064 -0.3147 -0.1829
  253MOL0     C34026   8.429   1.937   6.840  0.2687  0.3922 -0.1696
  253MOL0     C34027   8.474   1.845   6.942 -0.0778 -1.0203  0.3096
  253MOL0     O34028   8.605   1.867   6.975 -0.4800 -0.0303  0.2787
  253MOL0     C34029   8.667   1.777   7.069  0.8013 -0.2472  0.3227
  253MOL0     C34030   8.813   1.822   7.087 -0.4210  0.2499  0.8196
  253MOL0     C34031   8.827   1.964   7.148 -0.2136 -0.2478 -0.2820
  253MOL0     C34032   8.752   1.976   7.289 -0.0872 -0.0810 -0.3626
  253MOL0     C34033   8.776   2.126   7.340  0.5031 -0.6832 -0.5853
  253MOL0     C34034   8.683   2.223   7.278 -0.4358 -0.2099 -0.1397
  253MOL0     C34035   8.730   2.370   7.307  0.3320  0.2273 -1.1963
  253MOL0     C34036   8.849   2.414   7.216  0.4490 -0.1869 -0.2614
  253MOL0     N34037   8.799   2.447   7.081  0.0355  0.2395 -0.7472
  253MOL0     C34038   8.708   2.541   7.046  0.1499  0.2856 -0.8397
  253MOL0     C34039   8.704   2.547   6.914 -0.4276 -0.2101  0.7401
  253MOL0     C34040   8.600   2.635   6.840 -0.6610  0.4419  1.1242
  253MOL0     C34041   8.447   2.606   6.854 -1.4761  0.3092 -0.4251
  253MOL0     C34042   8.405   2.460   6.826  0.1052  0.0152  0.6769
  253MOL0     C34043   8.432   2.424   6.676 -0.9805  0.2124  0.7352
  253MOL0     O34044   8.363   2.307   6.634  0.5220 -0.1712  0.0016
  253MOL0     C34045   8.245   2.321   6.561 -0.5935 -0.1640 -0.0910
  253MOL0     C34046   8.208   2.201   6.514 -0.6199  0.4912  0.3223
  253MOL0     C34047   8.084   2.185   6.456 -0.3159  0.2311 -0.5339
  253MOL0     C34048   8.000   2.293   6.450  0.4843  0.0738 -0.0832
  253MOL0     C34049   7.861   2.269   6.392 -0.6684  1.0765  0.1518
  253MOL0     O34050   7.826   2.135   6.392 -1.0306  0.2586  0.4391
  253MOL0     C34051   7.698   2.101   6.342 -0.3198  0.6991  0.1076
  253MOL0     C34052   7.589   2.147   6.407  0.7951  1.2605  0.1140
  253MOL0     C34053   7.468   2.108   6.368  0.4508  0.8090  0.6996
  253MOL0     C34054   7.445   2.034   6.254  0.8050 -0.3067 -0.0050
  253MOL0     O34055   7.327   2.004   6.199  0.4731  0.0439 -0.6322
  253MOL0     C34056   7.214   2.083   6.221 -0.2794 -0.3262  0.1189
  253MOL0     C34057   7.221   2.212   6.148  0.2885 -0.9688  0.0672
  253MOL0     C34058   7.088   2.303   6.152 -0.3668  0.3815 -1.0929
  253MOL0     C34059   6.971   2.268   6.058  0.7346  1.3594  0.3273
  253MOL0     C34060   6.850   2.351   6.083  0.6391  0.1293  0.5428
  253MOL0     C34061   6.734   2.334   5.982 -0.1133  0.0079  1.0557
  253MOL0     C34062   6.760   2.389   5.845  0.4291 -0.3107 -0.0779
  253MOL0     C34063   6.647   2.365   5.745 -0.0517 -0.0382 -0.1264
  253MOL0    Cl34064   6.496   2.457   5.788  0.0811  0.0637  0.2616
  253MOL0     C34065   7.556   1.977   6.178  1.0068  0.2196 -0.8191
  253MOL0     C34066   7.685   2.004   6.234 -1.1092 -1.0131  0.7066
  253MOL0     O34067   7.795   2.358   6.344 -0.8852 -0.1344  0.7241
  253MOL0     C34068   8.045   2.424   6.488 -0.5695  0.7477  0.3256
  253MOL0     C34069   8.167   2.433   6.541  0.5005  0.0419  0.8277
  253MOL0     N34070   8.785   2.443   6.860 -0.5455 -0.8469 -0.8179
  253MOL0     N34071   8.843   2.388   6.964  0.0205 -0.2822 -0.0535
  253MOL0     C34072   8.385   1.765   7.008  0.3506  0.1520  0.3679
  253MOL0     C34073   8.252   1.781   6.979 -0.2484 -0.0398 -0.2484
  253MOL0     C34074   7.831   1.924   6.912 -0.6806  0.3318  0.7308
  253MOL0     C34075   7.734   1.843   6.958 -0.3842  1.0971  0.2890
  253MOL0     C34076   7.604   1.871   6.927  1.4508 -0.5596  0.9033
  253MOL0     C34077   7.565   1.979   6.857 -0.7000 -0.0063  0.1437
  253MOL0     O34078   7.439   1.995   6.813  0.1421 -0.3144  0.1724
  253MOL0     C34079   7.427   1.980   6.676 -0.8767 -0.7585 -0.5923
  253MOL0     C34080   7.283   1.942   6.631 -0.0552  1.4363  0.0687
  253MOL0     C34081   7.229   1.810   6.696  0.2969 -0.5357  0.7491
  253MOL0     C34082   7.079   1.787   6.651  0.8808 -0.3612 -0.2950
  253MOL0     C34083   7.021   1.667   6.706 -0.0626 -0.3698  0.0348
  253MOL0     C34084   6.956   1.579   6.774  0.0533  0.3737 -0.6279
  253MOL0     C34085   7.652   2.072   6.818 -0.2710  0.4718  0.3573
  253MOL0     C34086   7.795   2.049   6.842 -0.6088  0.2902  0.0728
  253MOL0     C34087   7.896   2.144   6.788  0.9069  0.4399  0.4329
  253MOL0     H34088   8.250   2.013   6.726  0.3936  0.8850  0.4014
  253MOL0     H34089   8.504   1.992   6.785 -1.6093  0.7807 -2.5151
  253MOL0     H34090   8.612   1.776   7.164 -2.6837 -3.0934 -1.4457
  253MOL0     H34091   8.669   1.672   7.036 -0.9471 -0.4981  0.9007
  253MOL0     H34092   8.846   1.835   6.983  0.6282  3.5757  1.4505
  253MOL0     H34093   8.882   1.750   7.132  0.5742  0.5231 -0.2244
  253MOL0     H34094   8.779   2.031   7.076 -0.1415  0.3744  0.2351
  253MOL0     H34095   8.933   1.992   7.146 -0.2349  0.4746  2.7758
  253MOL0     H34096   8.643   1.965   7.291 -0.2118  0.9938  1.9465
  253MOL0     H34097   8.789   1.895   7.352 -0.8449 -1.1013 -1.1684
  253MOL0     H34098   8.751   2.135   7.446  0.8966  0.4485 -0.5797
  253MOL0     H34099   8.880   2.155   7.324  0.0305  1.0518 -0.7788
  253MOL0     H34100   8.678   2.201   7.171  0.6640 -1.5345  0.0639
  253MOL0     H34101   8.586   2.203   7.325  0.0895 -1.2267  0.5382
  253MOL0     H34102   8.753   2.389   7.412  2.6577  3.5542 -2.1341
  253MOL0     H34103   8.650   2.443   7.286 -0.0598  1.5171  3.5934
  253MOL0     H34104   8.891   2.514   7.233  0.0999  0.2817 -1.9636
  253MOL0     H34105   8.924   2.337   7.233  1.4465  1.1124  1.7715
  253MOL0     H34106   8.650   2.599   7.116  3.2635  0.4798  1.7957
  253MOL0     H34107   8.615   2.741   6.864 -1.7894  1.2595 -1.4225
  253MOL0     H34108   8.627   2.614   6.736  1.4254  0.9021  1.5280
  253MOL0     H34109   8.414   2.634   6.955  1.1164  1.0798  0.2717
  253MOL0     H34110   8.401   2.680   6.788 -2.2072 -0.7268 -1.1040
  253MOL0     H34111   8.298   2.443   6.839 -0.2080  1.7304  0.5992
  253MOL0     H34112   8.459   2.395   6.896  1.9416  0.7680  0.0226
  253MOL0     H34113   8.539   2.401   6.670 -1.2866 -2.4746  3.0059
  253MOL0     H34114   8.412   2.514   6.617  1.9739  0.4467 -0.0499
  253MOL0     H34115   8.271   2.115   6.530 -2.2518 -0.7650  0.1883
  253MOL0     H34116   8.051   2.087   6.421 -0.9934  0.6554 -1.1246
  253MOL0     H34117   7.591   2.216   6.491  0.6187  2.0269 -0.5020
  253MOL0     H34118   7.383   2.143   6.425 -2.4172 -0.6112 -2.3451
  253MOL0     H34119   7.131   2.025   6.180  1.7471 -3.8220  0.6260
  253MOL0     H34120   7.185   2.097   6.326 -0.1161  0.1857  0.0992
  253MOL0     H34121   7.313   2.267   6.170 -0.4219 -0.1010  0.9432
  253MOL0     H34122   7.240   2.181   6.045 -2.0359 -3.1304  0.1799
  253MOL0     H34123   7.055   2.315   6.256  3.3748  1.1519  0.1610
  253MOL0     H34124   7.127   2.401   6.125  1.7502  1.2577  4.0573
  253MOL0     H34125   6.954   2.160   6.068  1.0629  1.0785 -1.7492
  253MOL0     H34126   7.011   2.286   5.958 -3.5596  1.2019 -1.6641
  253MOL0     H34127   6.878   2.455   6.068 -1.3612  0.4930 -1.0672
  253MOL0     H34128   6.815   2.332   6.185  0.0102 -0.2166  0.2688
  253MOL0     H34129   6.710   2.227   5.973  1.2974 -0.2833  0.2981
  253MOL0     H34130   6.646   2.380   6.025  0.9443  2.0604  1.1390
  253MOL0     H34131   6.855   2.353   5.805  2.4850 -0.1456  4.0823
  253MOL0     H34132   6.775   2.494   5.868  0.1322 -0.3667  0.3902
  253MOL0     H34133   6.690   2.384   5.645 -0.9869 -0.0735 -0.5430
  253MOL0     H34134   6.622   2.259   5.737 -1.3090  0.3402 -2.1077
  253MOL0     H34135   7.550   1.903   6.099 -0.4012 -1.4406  0.7422
  253MOL0     H34136   7.773   1.957   6.192 -0.8981  0.3541 -0.4573
  253MOL0     H34137   7.982   2.510   6.473 -1.3616  0.3939  1.4564
  253MOL0     H34138   8.198   2.529   6.581  1.3120  1.1116 -2.0554
  253MOL0     H34139   8.407   1.702   7.093 -0.0760 -0.0347  0.3426
  253MOL0     H34140   8.192   1.713   7.039  0.2260  1.0283  1.5236
  253MOL0     H34141   7.748   1.753   7.017 -4.8145 -0.2429 -0.3862
  253MOL0     H34142   7.519   1.806   6.944 -0.2086  0.9800 -1.0099
  253MOL0     H34143   7.498   1.899   6.659  0.8234  0.3096  0.9938
  253MOL0     H34144   7.465   2.075   6.636  2.3003 -1.7394 -0.1291
  253MOL0     H34145   7.293   1.915   6.525  2.5716 -2.1629  1.0381
  253MOL0     H34146   7.209   2.022   6.636 -1.3699  0.5654 -2.9559
  253MOL0     H34147   7.236   1.831   6.803 -0.2407 -0.4885  0.7753
  253MOL0     H34148   7.284   1.721   6.665  0.1155 -0.8225  1.2489
  253MOL0     H34149   7.020   1.871   6.689  3.5556  2.0981 -1.1130
  253MOL0     H34150   7.068   1.775   6.543  0.4112  0.7658 -0.3914
  253MOL0     H34151   6.895   1.509   6.827 -0.4714  0.0700 -1.6045
  253MOL0     H34152   7.619   2.155   6.757 -1.6679 -0.8633 -0.7795
  253MOL0     H34153   7.986   2.143   6.851  1.9765  0.0596 -1.0570
  253MOL0     H34154   7.940   2.108   6.694 -1.1101 -1.8134  0.2661
  253MOL0     H34155   7.853   2.242   6.767 -0.1113 -0.0341  0.2762
  254MOL0     O34156   4.461  11.001   5.534 -0.2981  0.2493  0.6135
  254MOL0     C34157   4.426  10.971   5.648 -0.3650 -1.0042  0.8749
  254MOL0     O34158   4.345  10.858   5.673 -0.8484 -0.5153 -1.0466
  254MOL0     C34159   4.286  10.789   5.577 -0.5333 -0.6374  0.9108
  254MOL0     C34160   4.350  10.711   5.483  0.4386 -0.5610 -0.3478
  254MOL0     C34161   4.279  10.624   5.393 -0.4090 -0.4890 -0.4468
  254MOL0     C34162   4.139  10.633   5.374 -0.5353  0.1559 -0.8214
  254MOL0     O34163   4.058  10.559   5.293 -1.0450 -0.1874  0.3671
  254MOL0     C34164   4.120  10.482   5.190 -0.3157 -1.2073 -1.2936
  254MOL0     C34165   4.011  10.407   5.118  0.3670 -0.7027 -0.1340
  254MOL0     C34166   4.068  10.372   4.980  0.4216  0.0391 -0.0056
  254MOL0     C34167   3.983  10.267   4.906 -0.6092  0.3580  0.1418
  254MOL0     C34168   4.047  10.255   4.767 -0.4962  0.3995 -0.3570
  254MOL0     C34169   3.998  10.132   4.699 -0.2114 -0.8656 -0.1401
  254MOL0     C34170   4.011  10.139   4.556 -0.0847 -0.5931 -1.2792
  254MOL0     C34171   4.144  10.100   4.507 -0.1177 -0.3305  0.5678
  254MOL0     N34172   4.173  10.114   4.369 -0.0514  0.1292 -0.8838
  254MOL0     C34173   4.158  10.227   4.297 -0.0674  0.4748 -0.1993
  254MOL0     C34174   4.192  10.191   4.169  0.9702 -0.6710  0.4272
  254MOL0     C34175   4.184  10.276   4.048 -0.2210 -0.2217 -1.4301
  254MOL0     C34176   4.080  10.227   3.937 -1.0433 -0.6263 -0.2698
  254MOL0     C34177   3.940  10.213   3.981 -0.5061  0.3111  0.3510
  254MOL0     C34178   3.862  10.330   4.016  0.7905 -0.7553  0.6268
  254MOL0     O34179   3.905  10.389   4.139  0.4434  0.0977 -0.2370
  254MOL0     C34180   3.835  10.482   4.207  0.2935 -0.1020  0.6383
  254MOL0     C34181   3.725  10.551   4.160  0.3675 -0.4014  0.8349
  254MOL0     C34182   3.667  10.655   4.239 -0.1151  0.7149  0.5749
  254MOL0     C34183   3.719  10.682   4.371 -0.6272  0.2790 -0.9183
  254MOL0     C34184   3.655  10.783   4.468 -0.0684 -0.0992  0.5498
  254MOL0     O34185   3.532  10.820   4.431  0.9637  0.0091  0.1170
  254MOL0     C34186   3.465  10.923   4.490  0.7771 -0.3411 -1.1495
  254MOL0     C34187   3.521  11.057   4.494 -0.2630  0.4433  0.7682
  254MOL0     C34188   3.468  11.155   4.575  0.3781  0.1393 -0.1758
  254MOL0     C34189   3.353  11.128   4.655 -0.5148  0.1418  0.3338
  254MOL0     O34190   3.296  11.211   4.741 -0.1343 -0.3804 -0.5919
  254MOL0     C34191   3.379  11.313   4.789  0.0342 -0.6267  0.3148
  254MOL0     C34192   3.316  11.364   4.917 -0.5015  0.2658 -0.9106
  254MOL0     C34193   3.172  11.393   4.900 -0.0680  0.4725 -0.2747
  254MOL0     C34194   3.128  11.477   4.782  0.0433 -0.0271  0.0976
  254MOL0     C34195   2.982  11.513   4.780 -0.1206  0.3165 -0.3189
  254MOL0     C34196   2.950  11.590   4.649  0.1664 -0.2688 -0.5297
  254MOL0     C34197   2.791  11.575   4.635  0.6962  0.1645 -0.4111
  254MOL0     C34198   2.723  11.667   4.529  0.6048  0.2281 -1.1048
  254MOL0    Cl34199   2.810  11.652   4.370  0.1413  0.1479 -0.1009
  254MOL0     C34200   3.281  11.004   4.634  0.3581 -1.1972 -0.4057
  254MOL0     C34201   3.340  10.910   4.549  0.1705 -0.1209 -0.0863
  254MOL0     O34202   3.711  10.815   4.570 -0.7347  0.0955  0.0460
  254MOL0     C34203   3.824  10.604   4.423 -0.5460  1.3329 -0.0596
  254MOL0     C34204   3.877  10.505   4.342  0.1072 -0.0859  0.3677
  254MOL0     N34205   4.221  10.056   4.169  0.3209  0.6288  0.2902
  254MOL0     N34206   4.212  10.010   4.291  0.0976  0.9341  0.3028
  254MOL0     C34207   4.076  10.730   5.454 -0.1840  0.8641 -0.9896
  254MOL0     C34208   4.148  10.797   5.559 -0.6708 -0.6161 -0.5852
  254MOL0     C34209   4.480  11.057   5.759 -0.8835 -0.1055 -0.6037
  254MOL0     C34210   4.437  11.021   5.887  0.8836 -0.1642 -0.8423
  254MOL0     C34211   4.493  11.073   6.008 -0.3627 -0.3824  1.4685
  254MOL0     C34212   4.597  11.163   5.990 -0.5823 -0.4864  0.2754
  254MOL0     O34213   4.659  11.235   6.087 -0.6355 -0.4914 -0.2734
  254MOL0     C34214   4.745  11.148   6.170 -0.4998 -0.3988 -0.1388
  254MOL0     C34215   4.855  11.227   6.241  0.4083 -0.1541 -0.3742
  254MOL0     C34216   4.806  11.359   6.288  0.0298 -0.1830 -0.3545
  254MOL0     C34217   4.906  11.432   6.372  0.1275  0.5618  0.6953
  254MOL0     C34218   5.018  11.486   6.294 -0.9739 -0.6790  0.0709
  254MOL0     C34219   5.106  11.534   6.224  0.4435  0.0542  0.1317
  254MOL0     C34220   4.641  11.198   5.862  0.5238  0.5383 -0.1579
  254MOL0     C34221   4.583  11.155   5.740 -1.0214 -0.1814  0.1411
  254MOL0     C34222   4.622  11.214   5.610 -0.0495 -0.4649 -0.2906
  254MOL0     H34223   4.457  10.694   5.484  0.5823  0.2273 -0.9872
  254MOL0     H34224   4.339  10.562   5.327  0.3712  1.0803 -1.2510
  254MOL0     H34225   4.167  10.562   5.134  0.0550 -0.5497 -0.0782
  254MOL0     H34226   4.198  10.413   5.223 -0.3570 -0.1108  1.3896
  254MOL0     H34227   3.931  10.478   5.099  0.8510  0.6683  2.5248
  254MOL0     H34228   3.972  10.325   5.180  1.6564 -0.4198  1.1122
  254MOL0     H34229   4.172  10.339   4.989  0.2620 -0.1537  1.4402
  254MOL0     H34230   4.062  10.457   4.912 -3.0671  0.1404  0.2286
  254MOL0     H34231   3.962  10.171   4.955  3.1582 -0.7893 -0.1911
  254MOL0     H34232   3.883  10.306   4.885  0.7543  3.1758 -1.5838
  254MOL0     H34233   4.016  10.337   4.702 -2.1864 -1.0197 -1.4433
  254MOL0     H34234   4.156  10.250   4.758 -0.1337  2.6520  1.7863
  254MOL0     H34235   4.055  10.041   4.722  0.4130 -1.6648 -4.1187
  254MOL0     H34236   3.893  10.108   4.721  0.0935 -1.5034  0.6857
  254MOL0     H34237   3.986  10.239   4.520  1.9385  1.4426  2.4486
  254MOL0     H34238   3.945  10.058   4.522  1.0511 -1.1834 -2.1597
  254MOL0     H34239   4.222  10.168   4.542 -0.1397  0.4831 -0.9005
  254MOL0     H34240   4.164  10.001   4.550 -0.4137  0.1604  1.8544
  254MOL0     H34241   4.103  10.316   4.326 -1.6443 -0.4012 -0.3736
  254MOL0     H34242   4.170  10.378   4.085  0.1226 -0.8514  0.5646
  254MOL0     H34243   4.283  10.270   4.002 -0.1178 -0.8625 -1.1330
  254MOL0     H34244   4.080  10.306   3.862  1.9176 -1.8804 -1.7281
  254MOL0     H34245   4.118  10.136   3.891 -0.0382  0.3181 -1.3478
  254MOL0     H34246   3.947  10.149   4.069 -0.3301 -4.0373 -2.4837
  254MOL0     H34247   3.873  10.160   3.911 -1.4785  1.1235  0.6350
  254MOL0     H34248   3.757  10.306   4.032  1.2907 -2.0972  2.1479
  254MOL0     H34249   3.879  10.408   3.941 -0.9922 -1.2041 -0.2827
  254MOL0     H34250   3.692  10.539   4.057  1.3882 -3.6221  0.7711
  254MOL0     H34251   3.572  10.702   4.215  0.1868  1.3556  0.6121
  254MOL0     H34252   3.611  11.077   4.437 -0.5867 -0.9810 -0.3058
  254MOL0     H34253   3.520  11.250   4.581 -0.0682  0.4914 -1.5449
  254MOL0     H34254   3.480  11.277   4.811  0.6463 -0.2407 -1.6345
  254MOL0     H34255   3.385  11.388   4.709  1.8897 -1.7017 -0.6317
  254MOL0     H34256   3.328  11.290   4.997 -0.9847  3.3801  2.2851
  254MOL0     H34257   3.368  11.456   4.944  0.0847 -0.3825  0.2300
  254MOL0     H34258   3.111  11.302   4.900 -0.0012  0.3691 -2.2413
  254MOL0     H34259   3.132  11.436   4.992 -2.7216 -2.1756 -0.0543
  254MOL0     H34260   3.141  11.409   4.697 -1.2548 -0.6486  0.3782
  254MOL0     H34261   3.200  11.558   4.767  1.1023 -0.9234  0.1878
  254MOL0     H34262   2.960  11.583   4.861  1.0344 -2.1904  2.3423
  254MOL0     H34263   2.921  11.424   4.799 -2.9441  1.9178 -1.3877
  254MOL0     H34264   2.982  11.694   4.657 -1.9978  0.3386  1.2388
  254MOL0     H34265   2.997  11.544   4.562  2.9261  1.8962 -0.3211
  254MOL0     H34266   2.755  11.612   4.732  0.5945  2.7782 -1.3477
  254MOL0     H34267   2.774  11.470   4.612  0.3342  0.8175 -3.5325
  254MOL0     H34268   2.619  11.634   4.520  0.0733  0.6611  2.3185
  254MOL0     H34269   2.729  11.773   4.556 -0.7328 -0.8761  4.8429
  254MOL0     H34270   3.185  10.984   4.679  0.6314 -0.2584  0.6296
  254MOL0     H34271   3.293  10.812   4.543 -1.3665  0.6740 -2.7414
  254MOL0     H34272   3.864  10.610   4.524  0.6121 -3.9807  0.0882
  254MOL0     H34273   3.958  10.443   4.381  0.6706  0.4375  0.0427
  254MOL0     H34274   3.970  10.732   5.430 -0.0963  2.1390 -1.3700
  254MOL0     H34275   4.098  10.863   5.629  3.5350  1.4583  0.7923
  254MOL0     H34276   4.357  10.948   5.894 -1.4016  2.2332 -0.5509
  254MOL0     H34277   4.440  11.063   6.102 -0.6257 -1.2498  1.2305
  254MOL0     H34278   4.789  11.066   6.112 -2.9261 -2.3964  0.6772
  254MOL0     H34279   4.682  11.097   6.244 -2.3439  1.9443  0.0452
  254MOL0     H34280   4.944  11.236   6.178  0.1784  1.3095 -0.5244
  254MOL0     H34281   4.884  11.162   6.324  1.8583 -1.7223 -2.0183
  254MOL0     H34282   4.717  11.338   6.349 -0.1379  0.4692 -0.3658
  254MOL0     H34283   4.766  11.414   6.202 -1.1053 -0.3279  0.0627
  254MOL0     H34284   4.858  11.525   6.405  1.9951  1.7065  0.3170
  254MOL0     H34285   4.945  11.363   6.447  1.1051 -1.1141 -1.2686
  254MOL0     H34286   5.168  11.599   6.165 -1.4254  1.8661  0.0534
  254MOL0     H34287   4.722  11.269   5.847  0.2846  0.9361  0.3630
  254MOL0     H34288   4.708  11.161   5.569  1.6309  2.9854 -1.6702
  254MOL0     H34289   4.538  11.228   5.541  0.2115 -0.3017 -0.5806
  254MOL0     H34290   4.672  11.310   5.626  2.1889 -1.0527 -2.8916
  255MOL0     O34291   5.170   2.271   4.136 -0.5572 -0.9383 -0.7337
  255MOL0     C34292   5.061   2.312   4.166 -0.5368  0.8553 -0.2181
  255MOL0     O34293   5.021   2.442   4.157 -0.3555 -0.0963  0.2073
  255MOL0     C34294   5.106   2.537   4.124 -0.4439 -0.4971  0.6538
  255MOL0     C34295   5.127   2.576   3.992 -0.4819 -0.5075 -0.5600
  255MOL0     C34296   5.217   2.687   3.962 -0.1335 -0.1683  0.3104
  255MOL0     C34297   5.271   2.756   4.070  0.1745 -0.9897  0.4507
  255MOL0     O34298   5.367   2.858   4.053  0.2685 -0.4600  0.2290
  255MOL0     C34299   5.457   2.832   3.952 -0.4596  0.2649  0.7068
  255MOL0     C34300   5.588   2.904   3.973  0.6129 -0.0753 -0.0031
  255MOL0     C34301   5.679   2.881   3.853  0.3047  0.1990  0.1570
  255MOL0     C34302   5.824   2.911   3.886 -0.1437 -0.1889  0.4511
  255MOL0     C34303   5.916   2.933   3.755  0.2693 -0.5089  0.7466
  255MOL0     C34304   6.064   2.971   3.797  0.0453 -0.5946 -0.2477
  255MOL0     C34305   6.157   2.950   3.674 -1.1115 -0.1600 -0.6264
  255MOL0     C34306   6.139   3.058   3.564  0.2936  0.0602 -0.7266
  255MOL0     N34307   6.162   3.188   3.635  0.1283  0.1868 -0.1399
  255MOL0     C34308   6.290   3.219   3.686  0.5045  0.3718 -0.9560
  255MOL0     C34309   6.260   3.324   3.765 -0.3531 -0.0762  0.6658
  255MOL0     C34310   6.357   3.382   3.871  0.3702  0.3889  0.6132
  255MOL0     C34311   6.413   3.511   3.831  0.3353 -0.1083  0.5989
  255MOL0     C34312   6.508   3.483   3.718 -0.6322 -0.0694  0.7008
  255MOL0     C34313   6.563   3.620   3.669  0.3631  0.8240  0.4267
  255MOL0     O34314   6.632   3.680   3.781  0.3535 -0.1853  1.0400
  255MOL0     C34315   6.652   3.817   3.767  0.2990  0.8530  0.2928
  255MOL0     C34316   6.591   3.906   3.681 -0.0302  0.9762  0.7738
  255MOL0     C34317   6.616   4.042   3.680 -0.0026 -0.4870 -0.1613
  255MOL0     C34318   6.722   4.084   3.760 -0.0664 -1.1686  0.3244
  255MOL0     C34319   6.754   4.222   3.774 -0.2026  0.0172  0.3509
  255MOL0     O34320   6.777   4.262   3.898  0.1976  0.2709  1.6987
  255MOL0     C34321   6.843   4.387   3.907 -0.5578 -0.5260  0.2856
  255MOL0     C34322   6.772   4.494   3.952  0.6357  0.1366  0.1765
  255MOL0     C34323   6.834   4.614   3.973  0.8415 -0.0747  0.2744
  255MOL0     C34324   6.972   4.625   3.951 -0.2411 -0.3945 -0.0298
  255MOL0     O34325   7.031   4.751   3.958 -0.4758 -0.3712 -0.7572
  255MOL0     C34326   7.160   4.763   4.022  0.5320 -0.3967 -0.2158
  255MOL0     C34327   7.250   4.867   3.958  0.4843 -0.0952 -0.5339
  255MOL0     C34328   7.177   5.006   3.965  0.4060  0.4095 -1.5125
  255MOL0     C34329   7.251   5.128   3.920  0.5106  0.5344  0.9097
  255MOL0     C34330   7.305   5.115   3.776  1.5622  1.4819  0.3738
  255MOL0     C34331   7.378   5.231   3.723  1.2052  0.1240  0.5538
  255MOL0     C34332   7.291   5.343   3.672 -0.5272  0.4784 -0.4503
  255MOL0     C34333   7.249   5.454   3.781 -0.3581  1.4800 -0.6240
  255MOL0    Cl34334   7.143   5.578   3.710  0.0798 -0.1253 -0.2118
  255MOL0     C34335   7.046   4.510   3.907  0.2876 -0.9633 -0.1776
  255MOL0     C34336   6.983   4.390   3.898 -0.0015 -0.6312  0.8510
  255MOL0     O34337   6.757   4.291   3.673 -0.7664 -0.3352  0.2673
  255MOL0     C34338   6.784   3.999   3.846  0.9905 -0.1307  0.0860
  255MOL0     C34339   6.749   3.867   3.848  0.4625 -1.0001 -0.9975
  255MOL0     N34340   6.123   3.363   3.755  0.5407  0.3004  0.0282
  255MOL0     N34341   6.067   3.279   3.667 -0.2004 -0.7877 -1.6445
  255MOL0     C34342   5.257   2.708   4.198  0.4313 -0.1164 -0.8405
  255MOL0     C34343   5.177   2.601   4.224 -0.0400  0.4504  0.6360
  255MOL0     C34344   4.973   2.194   4.204  0.3824 -0.0945  0.9413
  255MOL0     C34345   4.835   2.214   4.205  0.4420  0.7000  0.2951
  255MOL0     C34346   4.749   2.111   4.218 -0.6964 -0.3217  0.3236
  255MOL0     C34347   4.784   1.976   4.231 -0.2946 -0.7966 -0.2144
  255MOL0     O34348   4.702   1.863   4.227  0.2246 -0.1615 -0.0507
  255MOL0     C34349   4.576   1.889   4.180 -0.1190 -0.6448  0.6220
  255MOL0     C34350   4.479   1.776   4.155 -0.4776  0.2803 -1.0066
  255MOL0     C34351   4.542   1.658   4.083  0.3209 -0.1537  0.2020
  255MOL0     C34352   4.447   1.569   4.013 -0.5690 -0.1728 -0.3225
  255MOL0     C34353   4.528   1.469   3.951  0.5422 -0.3225 -0.2671
  255MOL0     C34354   4.591   1.397   3.878  0.4018  0.5340 -0.0930
  255MOL0     C34355   4.918   1.954   4.227 -0.0547  0.2177  0.3880
  255MOL0     C34356   5.016   2.056   4.217  0.0046 -0.5866 -0.1751
  255MOL0     C34357   5.165   2.017   4.232 -0.3282  0.0561  0.3268
  255MOL0     H34358   5.086   2.523   3.907  0.8168  2.3359 -3.1200
  255MOL0     H34359   5.239   2.723   3.862 -2.7054 -1.9812 -1.0267
  255MOL0     H34360   5.462   2.724   3.935 -0.6410  0.7472 -3.6064
  255MOL0     H34361   5.418   2.885   3.864  0.6299  0.3178  0.2299
  255MOL0     H34362   5.637   2.873   4.066 -2.4778  0.5163  1.9873
  255MOL0     H34363   5.568   3.011   3.984  1.8250  0.4989 -2.7241
  255MOL0     H34364   5.656   2.944   3.767  2.5965  0.9770  0.0494
  255MOL0     H34365   5.684   2.776   3.823 -0.3133 -0.2723  1.6182
  255MOL0     H34366   5.837   3.005   3.939  1.1344  1.1861 -2.0958
  255MOL0     H34367   5.875   2.831   3.941  2.4301 -1.4147 -3.2731
  255MOL0     H34368   5.926   2.844   3.692  0.4030 -0.2545  0.4066
  255MOL0     H34369   5.860   3.016   3.712 -2.4224 -2.6067 -0.1198
  255MOL0     H34370   6.073   3.071   3.841  0.0352  0.8089 -3.1599
  255MOL0     H34371   6.094   2.906   3.879  0.5719 -2.0057 -1.5050
  255MOL0     H34372   6.149   2.856   3.619 -2.7072  0.3525 -1.3283
  255MOL0     H34373   6.253   2.968   3.723 -2.2950  1.3598  1.2743
  255MOL0     H34374   6.197   3.038   3.474  2.5377 -2.8105  1.1757
  255MOL0     H34375   6.034   3.049   3.535 -0.2275 -3.0070  1.6538
  255MOL0     H34376   6.378   3.155   3.684  1.2788  1.3833 -0.2129
  255MOL0     H34377   6.308   3.389   3.969 -0.2409  1.3577  0.2625
  255MOL0     H34378   6.447   3.320   3.869  1.1754  1.4712  1.5505
  255MOL0     H34379   6.329   3.577   3.811 -0.7403 -2.0337 -1.7898
  255MOL0     H34380   6.468   3.539   3.921 -0.5100 -1.6831  1.6493
  255MOL0     H34381   6.464   3.432   3.632  0.4836 -0.2591  0.2244
  255MOL0     H34382   6.591   3.421   3.752 -1.9239 -2.3175 -0.0779
  255MOL0     H34383   6.482   3.684   3.632 -0.9237  0.2352  2.0579
  255MOL0     H34384   6.632   3.610   3.585 -1.0233  0.9116 -0.7515
  255MOL0     H34385   6.525   3.870   3.603 -1.6952 -1.2213  3.0330
  255MOL0     H34386   6.563   4.105   3.609 -0.0125 -1.0006 -0.6187
  255MOL0     H34387   6.667   4.493   3.980 -0.3103  0.7590 -2.9778
  255MOL0     H34388   6.778   4.696   4.017 -2.9336 -1.7132 -1.0113
  255MOL0     H34389   7.150   4.776   4.130  0.4966 -3.1884  0.1845
  255MOL0     H34390   7.223   4.675   4.009  1.3792  0.3287 -1.2294
  255MOL0     H34391   7.345   4.863   4.012 -0.3252  3.7041  1.5359
  255MOL0     H34392   7.268   4.843   3.853 -0.6782 -2.8762 -0.1810
  255MOL0     H34393   7.084   4.988   3.910  0.0591  1.4202 -1.2908
  255MOL0     H34394   7.149   5.042   4.064  3.1081 -0.5828 -0.3136
  255MOL0     H34395   7.329   5.160   3.989  2.5354  1.1945 -1.5426
  255MOL0     H34396   7.190   5.218   3.933  0.4112  0.3756  1.5683
  255MOL0     H34397   7.229   5.080   3.706  2.1704 -0.5847  0.6720
  255MOL0     H34398   7.383   5.038   3.782  0.2136  0.0938  0.6723
  255MOL0     H34399   7.435   5.275   3.805 -2.1723  1.5972  2.3294
  255MOL0     H34400   7.446   5.201   3.642 -1.7084  1.9622 -2.8405
  255MOL0     H34401   7.193   5.305   3.639 -0.1743 -2.3060  1.3134
  255MOL0     H34402   7.336   5.398   3.590 -1.7784  1.0227 -0.8027
  255MOL0     H34403   7.208   5.405   3.870  0.5211 -0.0458 -1.0185
  255MOL0     H34404   7.341   5.510   3.798  1.6651 -1.6581 -0.4005
  255MOL0     H34405   7.150   4.526   3.880  0.0949  1.7062  0.3855
  255MOL0     H34406   7.032   4.301   3.859 -0.8625 -1.8577  2.4714
  255MOL0     H34407   6.851   4.034   3.924 -0.9773 -0.3124  1.9577
  255MOL0     H34408   6.789   3.810   3.931 -3.0471 -1.1470  0.7703
  255MOL0     H34409   5.293   2.764   4.284 -3.2423  2.2532 -0.6235
  255MOL0     H34410   5.154   2.564   4.324 -1.3165  0.0838  0.2242
  255MOL0     H34411   4.802   2.315   4.183 -2.8542 -0.3454 -0.1397
  255MOL0     H34412   4.642   2.129   4.225 -0.4768  1.0115  0.6611
  255MOL0     H34413   4.587   1.922   4.077 -2.1816 -2.4407 -0.2557
  255MOL0     H34414   4.529   1.963   4.246  0.7636  1.4388 -0.9820
  255MOL0     H34415   4.398   1.809   4.088  0.9689  0.2816 -2.8569
  255MOL0     H34416   4.438   1.745   4.251  1.0147  0.0758 -0.4116
  255MOL0     H34417   4.598   1.597   4.154 -2.0353 -1.7941  0.7812
  255MOL0     H34418   4.607   1.707   4.010 -0.5614  0.8618  0.0728
  255MOL0     H34419   4.376   1.522   4.082  1.1997 -1.7981  0.4749
  255MOL0     H34420   4.393   1.623   3.934  3.0875  2.2874 -1.4002
  255MOL0     H34421   4.647   1.346   3.802  1.5527  2.0305 -0.3083
  255MOL0     H34422   4.941   1.849   4.211 -0.6784  0.2469 -0.8489
  255MOL0     H34423   5.215   2.016   4.135 -2.3820  1.0971 -0.8151
  255MOL0     H34424   5.227   2.094   4.278 -2.1066  0.7572  1.6854
  255MOL0     H34425   5.180   1.921   4.281  1.4731 -0.9284 -1.9486
  256MOL0     O34426   4.058   5.950  10.495 -0.1072 -0.4923  0.0131
  256MOL0     C34427   3.974   5.988  10.573 -0.4998 -0.4342  0.1788
  256MOL0     O34428   3.857   6.059  10.542 -0.4901 -1.3810  0.4535
  256MOL0     C34429   3.838   6.106  10.418  0.5985 -0.2022  0.3035
  256MOL0     C34430   3.708   6.087  10.363 -0.5417 -0.8700  0.3267
  256MOL0     C34431   3.663   6.139  10.244 -0.0884 -0.2381  0.8195
  256MOL0     C34432   3.745   6.217  10.169  0.0033  0.2137 -1.1824
  256MOL0     O34433   3.680   6.270  10.059  0.1763 -0.3152  0.3142
  256MOL0     C34434   3.742   6.373   9.982  0.2313  0.2672  0.0375
  256MOL0     C34435   3.682   6.507  10.009  0.7030 -0.6647 -0.2489
  256MOL0     C34436   3.730   6.621   9.919 -0.7374 -0.1998  0.4097
  256MOL0     C34437   3.738   6.587   9.765  0.8677  0.1738 -0.0362
  256MOL0     C34438   3.787   6.709   9.669  0.2735 -0.9797  0.6352
  256MOL0     C34439   3.916   6.772   9.702 -0.9858 -0.2801 -0.3918
  256MOL0     C34440   3.944   6.893   9.608  0.4323  0.9031 -0.8205
  256MOL0     C34441   3.981   6.833   9.474 -0.4283  0.9281 -0.3416
  256MOL0     N34442   4.004   6.939   9.374  0.1382  0.5724  0.3899
  256MOL0     C34443   4.086   7.049   9.401  1.1612 -0.3235 -0.4201
  256MOL0     C34444   4.029   7.145   9.320  0.5080  0.2272  0.5794
  256MOL0     C34445   4.069   7.299   9.306 -0.5128  0.2240  0.1152
  256MOL0     C34446   3.986   7.385   9.411  0.2820  0.3151  0.0658
  256MOL0     C34447   3.967   7.526   9.355 -0.7184 -0.0651 -0.4413
  256MOL0     C34448   3.910   7.626   9.464  0.3929 -0.6386 -0.9208
  256MOL0     O34449   3.923   7.767   9.432 -0.7636  0.0225 -0.1574
  256MOL0     C34450   3.857   7.822   9.326 -0.1478  0.4028 -0.1375
  256MOL0     C34451   3.716   7.817   9.316 -0.7929  0.1671  0.2694
  256MOL0     C34452   3.646   7.888   9.222 -0.3832 -0.5782  0.5477
  256MOL0     C34453   3.713   7.987   9.146  0.3138  0.5053  1.0946
  256MOL0     C34454   3.635   8.068   9.051 -1.0431  1.2774  0.5753
  256MOL0     O34455   3.499   8.040   9.053 -0.2303 -0.0841 -0.3384
  256MOL0     C34456   3.424   8.088   8.952  0.0007  0.1631 -0.2839
  256MOL0     C34457   3.288   8.115   8.984 -0.8279  0.2056 -0.3896
  256MOL0     C34458   3.207   8.180   8.883 -1.2989  0.4185  0.4388
  256MOL0     C34459   3.254   8.199   8.751 -0.4014 -0.6814  0.2755
  256MOL0     O34460   3.174   8.256   8.656  0.4379  0.6194 -0.2303
  256MOL0     C34461   3.187   8.399   8.645  0.5484 -0.1596  0.1145
  256MOL0     C34462   3.072   8.463   8.730 -0.5242  0.2831  0.1549
  256MOL0     C34463   2.996   8.583   8.669  0.0351  0.0141 -0.3652
  256MOL0     C34464   3.082   8.700   8.650 -0.3479  0.5574  0.1693
  256MOL0     C34465   2.997   8.818   8.596 -0.2521 -0.1050 -1.0485
  256MOL0     C34466   3.071   8.956   8.591  0.2017  0.6149 -0.5796
  256MOL0     C34467   3.164   8.980   8.476 -1.0429  0.0303  0.7584
  256MOL0     C34468   3.189   9.128   8.480 -0.6329 -0.2437 -0.3659
  256MOL0    Cl34469   3.347   9.152   8.400  0.2432 -0.6905 -0.0031
  256MOL0     C34470   3.379   8.158   8.720 -0.8699  0.5097 -0.2445
  256MOL0     C34471   3.467   8.101   8.816  0.2678 -0.1326 -0.5343
  256MOL0     O34472   3.693   8.153   8.983  0.3125 -0.6216 -1.2065
  256MOL0     C34473   3.859   7.982   9.155  1.3896  0.9045  0.6262
  256MOL0     C34474   3.931   7.912   9.251 -0.8298  0.9267 -0.4608
  256MOL0     N34475   3.925   7.088   9.249 -0.5714  0.0940  0.4034
  256MOL0     N34476   3.907   6.963   9.280  0.8899 -0.0334  0.0037
  256MOL0     C34477   3.881   6.222  10.214  0.6252 -0.8009  0.2702
  256MOL0     C34478   3.928   6.164  10.330  1.0710 -0.0167 -0.2837
  256MOL0     C34479   3.993   5.940  10.709 -0.7949  0.3307  0.2030
  256MOL0     C34480   3.963   6.025  10.822 -0.2321 -0.0296 -0.8659
  256MOL0     C34481   3.980   5.983  10.951  0.0116  0.2044  0.4894
  256MOL0     C34482   4.019   5.856  10.977 -0.2437 -0.1170 -0.1640
  256MOL0     O34483   4.045   5.826  11.110  0.0419 -0.0563  0.8750
  256MOL0     C34484   4.089   5.695  11.134 -0.3136 -1.1556  0.1556
  256MOL0     C34485   4.116   5.682  11.280 -0.3196  0.3535 -0.0559
  256MOL0     C34486   3.978   5.695  11.349 -0.3068  0.1636  0.5224
  256MOL0     C34487   3.936   5.573  11.437  0.1541  0.5006  0.0191
  256MOL0     C34488   3.793   5.576  11.488  0.1910 -0.6879  0.1837
  256MOL0     C34489   3.685   5.581  11.539  1.0742  0.7109 -0.7437
  256MOL0     C34490   4.046   5.768  10.876 -0.7229  0.0934 -0.1208
  256MOL0     C34491   4.023   5.807  10.737  0.7065  0.3503 -0.6624
  256MOL0     C34492   4.042   5.696  10.632  0.6319  0.5927 -0.7272
  256MOL0     H34493   3.647   6.032  10.434  1.5168 -2.3252  1.0539
  256MOL0     H34494   3.559   6.142  10.212  0.0085 -4.2884 -0.4123
  256MOL0     H34495   3.851   6.371   9.986  0.2311 -2.2162  0.6618
  256MOL0     H34496   3.727   6.351   9.876 -0.6082  0.3095  0.1421
  256MOL0     H34497   3.708   6.529  10.113  0.3406  2.1802 -0.6829
  256MOL0     H34498   3.572   6.501  10.007  0.3852  2.1013  2.2893
  256MOL0     H34499   3.828   6.656   9.954 -0.1951  0.0402 -1.2428
  256MOL0     H34500   3.664   6.707   9.932 -1.1254 -0.6977  1.8820
  256MOL0     H34501   3.804   6.501   9.745  1.5777  0.2297  1.8659
  256MOL0     H34502   3.633   6.566   9.742  0.6533 -1.4359  2.1569
  256MOL0     H34503   3.793   6.663   9.570  2.8688  3.2988 -1.4911
  256MOL0     H34504   3.712   6.787   9.680  2.8670  1.8251 -0.3300
  256MOL0     H34505   3.920   6.811   9.804  1.4446 -0.2386 -0.4283
  256MOL0     H34506   4.006   6.709   9.694  1.1344  2.5234 -0.4042
  256MOL0     H34507   4.030   6.942   9.654  0.3341 -1.3812  2.1401
  256MOL0     H34508   3.852   6.950   9.599 -0.0462 -0.1128 -2.7893
  256MOL0     H34509   4.069   6.769   9.474  0.2633  1.8661  0.0162
  256MOL0     H34510   3.907   6.765   9.430  0.3889  1.9497 -3.6121
  256MOL0     H34511   4.163   7.062   9.477 -1.5084 -0.4402  2.4834
  256MOL0     H34512   4.177   7.315   9.319 -0.1181 -1.5707 -0.6925
  256MOL0     H34513   4.064   7.346   9.207 -2.0672  2.4376  1.1620
  256MOL0     H34514   3.886   7.342   9.423 -1.0325  2.0989 -3.0819
  256MOL0     H34515   4.050   7.399   9.499  2.1325  0.4725 -1.2437
  256MOL0     H34516   3.903   7.511   9.268  0.0024  1.7002 -1.3184
  256MOL0     H34517   4.061   7.559   9.309 -0.0578 -1.7528 -0.3784
  256MOL0     H34518   3.953   7.610   9.563  2.0904 -1.1782 -1.7054
  256MOL0     H34519   3.803   7.611   9.481  0.4107  0.6706  0.6058
  256MOL0     H34520   3.675   7.741   9.382 -1.1551 -1.5748 -1.8456
  256MOL0     H34521   3.540   7.866   9.216 -0.1465 -1.3048 -3.7618
  256MOL0     H34522   3.228   8.089   9.071 -1.6542  1.1809 -0.6339
  256MOL0     H34523   3.101   8.196   8.904 -1.4918 -1.5172  1.0616
  256MOL0     H34524   3.282   8.439   8.681  0.6318  0.3502 -0.6533
  256MOL0     H34525   3.182   8.427   8.540  0.8320 -0.9661 -0.1200
  256MOL0     H34526   3.013   8.388   8.784 -0.1112 -1.5994 -1.8473
  256MOL0     H34527   3.131   8.508   8.810 -1.0973  1.7361 -0.2020
  256MOL0     H34528   2.956   8.559   8.570 -3.0266  1.5485  0.3738
  256MOL0     H34529   2.909   8.606   8.732  1.7004 -1.0737  2.4990
  256MOL0     H34530   3.160   8.683   8.575  0.6402  0.7134  1.1414
  256MOL0     H34531   3.116   8.730   8.749 -0.4996 -1.0129  0.7289
  256MOL0     H34532   2.923   8.823   8.676 -0.1360  1.7478 -1.0170
  256MOL0     H34533   2.952   8.796   8.499 -2.9046  0.3888 -0.0028
  256MOL0     H34534   2.991   9.029   8.604 -0.3373 -0.1687  0.7732
  256MOL0     H34535   3.127   8.955   8.686  0.4533  1.1180 -0.7170
  256MOL0     H34536   3.132   8.960   8.373 -1.0821  2.2921  0.2809
  256MOL0     H34537   3.258   8.925   8.484 -1.6377 -1.5723 -1.8928
  256MOL0     H34538   3.116   9.184   8.420 -1.7257 -0.9801  0.2269
  256MOL0     H34539   3.196   9.169   8.581  1.8916  0.6230 -0.8191
  256MOL0     H34540   3.420   8.160   8.619 -2.1754 -0.9215 -0.8491
  256MOL0     H34541   3.565   8.062   8.790  1.8584  0.7673  3.4424
  256MOL0     H34542   3.915   8.051   9.093 -1.1608  2.1948 -0.3975
  256MOL0     H34543   4.039   7.917   9.249 -0.7208 -0.8920 -0.4556
  256MOL0     H34544   3.942   6.278  10.145 -1.2537 -0.3932 -1.1548
  256MOL0     H34545   4.027   6.190  10.367  1.1144 -0.8491  0.2314
  256MOL0     H34546   3.931   6.129  10.821  0.6183  0.2390 -0.5244
  256MOL0     H34547   3.954   6.032  11.044 -2.0445  1.4826 -0.6597
  256MOL0     H34548   4.182   5.669  11.084  0.5105  2.1556 -0.2463
  256MOL0     H34549   4.011   5.620  11.116 -0.7718 -1.1826  2.0662
  256MOL0     H34550   4.199   5.744  11.315  1.2238 -1.9410  0.6251
  256MOL0     H34551   4.149   5.581  11.308  0.4094  0.8256  0.8291
  256MOL0     H34552   3.902   5.703  11.271  0.0463  1.0931  0.2572
  256MOL0     H34553   3.970   5.786  11.409 -2.0497 -1.0341  2.2458
  256MOL0     H34554   3.934   5.477  11.383 -1.6034 -0.9572  2.4559
  256MOL0     H34555   4.009   5.564  11.517  0.8072 -0.9600 -0.6875
  256MOL0     H34556   3.593   5.594  11.593  0.9756  0.6562 -0.8985
  256MOL0     H34557   4.073   5.665  10.898 -1.6916  0.4752  3.6306
  256MOL0     H34558   4.087   5.735  10.540 -1.2988  2.5398 -0.9269
  256MOL0     H34559   4.112   5.619  10.667 -2.8471 -1.9668  1.3011
  256MOL0     H34560   3.948   5.643  10.616 -0.1817  2.1326 -1.1678
  257MOL0     O34561   1.486  10.427   5.873  0.6770  0.5119 -0.3774
  257MOL0     C34562   1.464  10.319   5.828 -0.1710  0.9904 -0.6451
  257MOL0     O34563   1.459  10.293   5.692 -0.6718 -0.4092  0.3165
  257MOL0     C34564   1.496  10.392   5.612 -0.7466 -1.1301 -0.0298
  257MOL0     C34565   1.400  10.462   5.534 -0.1652 -0.1883 -1.1623
  257MOL0     C34566   1.452  10.559   5.446  0.0785  0.4250  0.2677
  257MOL0     C34567   1.589  10.590   5.444  0.6575  0.9850 -0.0238
  257MOL0     O34568   1.629  10.691   5.361  0.1032 -0.2628  0.2169
  257MOL0     C34569   1.766  10.720   5.336  0.4192  0.2617  0.0669
  257MOL0     C34570   1.770  10.819   5.215  0.1954 -0.3953  0.3555
  257MOL0     C34571   1.732  10.753   5.088  0.4249  0.4476 -0.0293
  257MOL0     C34572   1.731  10.837   4.956 -0.2469 -0.1378  0.4864
  257MOL0     C34573   1.665  10.773   4.830 -0.2487  1.1761  0.1710
  257MOL0     C34574   1.672  10.864   4.715 -0.4944  0.5134  0.2274
  257MOL0     C34575   1.611  10.791   4.591 -0.2843 -0.3310 -0.3371
  257MOL0     C34576   1.576  10.887   4.474  0.8596 -0.4672 -0.7364
  257MOL0     N34577   1.622  10.846   4.343 -0.6322  0.2016  0.4939
  257MOL0     C34578   1.545  10.766   4.259  0.5701  0.1574  0.4046
  257MOL0     C34579   1.629  10.723   4.161 -0.3059  0.0203 -0.4455
  257MOL0     C34580   1.602  10.631   4.046  1.2736 -0.2143  0.4732
  257MOL0     C34581   1.714  10.524   4.032  0.1521  0.1939 -0.3483
  257MOL0     C34582   1.678  10.398   3.952 -0.3775  0.2182  0.2137
  257MOL0     C34583   1.602  10.281   4.025 -0.0866 -0.1213  0.1753
  257MOL0     O34584   1.681  10.231   4.135 -0.1477 -0.1232 -0.6191
  257MOL0     C34585   1.799  10.163   4.129 -0.2036 -0.9421  0.5623
  257MOL0     C34586   1.850  10.109   4.248 -0.2741  0.5623  0.0331
  257MOL0     C34587   1.975  10.036   4.252 -0.3143  0.0831 -0.3656
  257MOL0     C34588   2.051  10.022   4.132  0.1439 -0.2795 -0.4256
  257MOL0     C34589   2.186   9.949   4.126  0.1719 -0.4075 -0.4989
  257MOL0     O34590   2.244   9.926   4.253  0.3604 -0.1452 -0.2718
  257MOL0     C34591   2.372   9.881   4.243 -0.4121 -0.7170 -0.1565
  257MOL0     C34592   2.484   9.975   4.219  0.2106 -0.0366 -0.3519
  257MOL0     C34593   2.615   9.918   4.192 -0.0971 -0.1471  0.9725
  257MOL0     C34594   2.641   9.778   4.203 -0.3995 -1.4624  1.2072
  257MOL0     O34595   2.762   9.719   4.205 -0.2724  0.1943 -1.1751
  257MOL0     C34596   2.872   9.794   4.142 -0.5035 -0.2276 -0.7365
  257MOL0     C34597   3.007   9.734   4.183  0.7356  0.0170  0.6388
  257MOL0     C34598   3.117   9.825   4.141 -0.8710 -0.5767  0.3310
  257MOL0     C34599   3.162   9.816   3.993  0.0228  0.1734  0.4427
  257MOL0     C34600   3.262   9.927   3.959  0.2435  0.0805 -0.7833
  257MOL0     C34601   3.334   9.886   3.835 -0.1547  0.0077 -0.4249
  257MOL0     C34602   3.452   9.985   3.806  0.8090  0.0244  0.6850
  257MOL0     C34603   3.592   9.952   3.886 -0.1571 -0.0432  0.3425
  257MOL0    Cl34604   3.667   9.809   3.802  0.0418  0.5907 -0.1952
  257MOL0     C34605   2.532   9.693   4.222  0.0406 -0.3800  0.4271
  257MOL0     C34606   2.396   9.738   4.242  0.1759 -0.7687 -0.0990
  257MOL0     O34607   2.248   9.935   4.019 -0.5104  0.2797 -0.9203
  257MOL0     C34608   2.001  10.066   4.011  0.8415 -0.1973  0.7601
  257MOL0     C34609   1.870  10.128   4.008 -0.2421 -0.9126  0.1189
  257MOL0     N34610   1.753  10.777   4.191  0.5287  0.0254  0.3938
  257MOL0     N34611   1.748  10.851   4.294  0.0027  0.9060  0.3328
  257MOL0     C34612   1.683  10.519   5.523  1.6937  0.1925 -0.1173
  257MOL0     C34613   1.632  10.429   5.613 -0.3101  0.4276  0.0739
  257MOL0     C34614   1.458  10.207   5.922 -0.3951 -0.4545  0.3084
  257MOL0     C34615   1.525  10.094   5.881  0.1283 -0.1029 -0.5310
  257MOL0     C34616   1.555   9.990   5.977  0.0528 -0.5372  0.0260
  257MOL0     C34617   1.509   9.989   6.105  0.7947 -0.4256 -0.2253
  257MOL0     O34618   1.539   9.899   6.200 -0.6502  0.1483 -0.4562
  257MOL0     C34619   1.648   9.805   6.163 -0.9030  0.1285 -0.6703
  257MOL0     C34620   1.647   9.731   6.299  0.0740 -0.2468  0.4294
  257MOL0     C34621   1.772   9.645   6.297  0.4576  0.4823 -0.2558
  257MOL0     C34622   1.770   9.550   6.423  0.7209  0.3755  0.1750
  257MOL0     C34623   1.658   9.453   6.400  0.0385  0.6507 -0.4137
  257MOL0     C34624   1.559   9.395   6.402  0.2589 -0.7288  0.0143
  257MOL0     C34625   1.434  10.106   6.144 -0.2133  0.1448  0.2716
  257MOL0     C34626   1.408  10.215   6.055  0.4277  0.0356 -0.5646
  257MOL0     C34627   1.323  10.333   6.111  0.3327 -0.2751  0.4228
  257MOL0     H34628   1.293  10.443   5.544 -0.1934 -0.1305 -1.3546
  257MOL0     H34629   1.382  10.617   5.388  2.2833  2.3591 -0.6368
  257MOL0     H34630   1.809  10.767   5.425  1.1761 -1.8057  0.8505
  257MOL0     H34631   1.825  10.632   5.310  0.9235 -0.1077  2.2291
  257MOL0     H34632   1.871  10.856   5.194  0.2272 -1.4090 -1.5662
  257MOL0     H34633   1.710  10.910   5.225  1.1196  0.2853 -0.1450
  257MOL0     H34634   1.632  10.713   5.107  1.7448 -2.5427  1.3666
  257MOL0     H34635   1.798  10.667   5.073 -3.4438 -2.6789 -0.8150
  257MOL0     H34636   1.674  10.929   4.974  2.5507  2.1319 -1.4400
  257MOL0     H34637   1.833  10.866   4.933  0.4362 -1.9108  1.1249
  257MOL0     H34638   1.712  10.676   4.811  0.1668  1.9463 -3.2886
  257MOL0     H34639   1.568  10.729   4.852  0.4800  0.5577  2.4709
  257MOL0     H34640   1.603  10.942   4.748 -2.0868 -2.0407  3.5315
  257MOL0     H34641   1.778  10.888   4.705 -0.7836  2.8063  1.9188
  257MOL0     H34642   1.519  10.736   4.611 -1.8238  1.3154 -2.4565
  257MOL0     H34643   1.676  10.705   4.567 -2.0071 -1.9173  0.4580
  257MOL0     H34644   1.468  10.908   4.476  1.1024  1.3418 -2.6011
  257MOL0     H34645   1.621  10.984   4.496  1.3083 -0.9853  0.7656
  257MOL0     H34646   1.445  10.731   4.280  1.4990 -2.5061  0.7850
  257MOL0     H34647   1.503  10.586   4.056  1.8489 -1.9524 -1.1463
  257MOL0     H34648   1.599  10.690   3.954  0.1794  1.1529  1.3559
  257MOL0     H34649   1.793  10.575   3.976 -0.1107  2.0063  0.8737
  257MOL0     H34650   1.748  10.498   4.132  4.6547  1.3165 -1.3731
  257MOL0     H34651   1.767  10.365   3.898 -2.2687 -1.8435 -1.9157
  257MOL0     H34652   1.608  10.443   3.880  0.0081 -0.9682 -0.9278
  257MOL0     H34653   1.571  10.203   3.954 -1.0295 -0.7392  1.2417
  257MOL0     H34654   1.509  10.318   4.070  1.0801  3.1694  0.1341
  257MOL0     H34655   1.803  10.126   4.344 -0.0893  0.9455  0.0589
  257MOL0     H34656   2.029  10.004   4.340 -0.3720  3.4734  1.0509
  257MOL0     H34657   2.469  10.082   4.227  1.8448  0.1808  0.0764
  257MOL0     H34658   2.698   9.988   4.195  1.4962 -1.9789  1.6461
  257MOL0     H34659   2.855   9.816   4.037 -4.4709  2.7382  0.2813
  257MOL0     H34660   2.878   9.890   4.195  1.5376 -0.5308 -0.3284
  257MOL0     H34661   3.011   9.711   4.290  1.2182  2.8291  1.3025
  257MOL0     H34662   3.019   9.643   4.124  2.1381  0.3212  0.3981
  257MOL0     H34663   3.098   9.932   4.153  0.9891 -0.0382 -1.0477
  257MOL0     H34664   3.209   9.811   4.199 -0.8957  0.4841  0.6341
  257MOL0     H34665   3.074   9.837   3.933  1.1539 -0.6045 -1.5803
  257MOL0     H34666   3.185   9.715   3.959 -0.5427  0.2661 -0.2290
  257MOL0     H34667   3.338   9.933   4.037 -2.2279  1.3884  1.6653
  257MOL0     H34668   3.210  10.023   3.962 -0.2486 -0.2123  0.3037
  257MOL0     H34669   3.371   9.784   3.846 -2.7208 -1.0888 -1.2811
  257MOL0     H34670   3.263   9.892   3.752 -2.3238  4.3605  1.4098
  257MOL0     H34671   3.404  10.084   3.812 -1.5138 -0.8283 -1.8269
  257MOL0     H34672   3.460   9.964   3.699  0.1645  0.5527  0.5236
  257MOL0     H34673   3.666  10.032   3.888  0.9006 -0.9966  1.1349
  257MOL0     H34674   3.577   9.939   3.994  0.1085  0.8055  0.4905
  257MOL0     H34675   2.558   9.588   4.217 -0.2076 -0.4047 -0.6397
  257MOL0     H34676   2.319   9.664   4.261  0.0573 -0.0708  2.5922
  257MOL0     H34677   2.057  10.044   3.921 -1.1639  0.5762 -0.7793
  257MOL0     H34678   1.839  10.161   3.909 -2.6251  0.3487  1.2200
  257MOL0     H34679   1.787  10.550   5.525  1.6480  0.3365  0.0547
  257MOL0     H34680   1.703  10.371   5.671 -0.4703  0.4723  0.3146
  257MOL0     H34681   1.570  10.079   5.784  1.7800 -1.7215  0.4260
  257MOL0     H34682   1.608   9.905   5.936  0.3611 -0.1126 -0.4619
  257MOL0     H34683   1.742   9.858   6.145  0.4828  0.0374  4.7680
  257MOL0     H34684   1.609   9.735   6.088 -3.4842 -0.7108  1.3210
  257MOL0     H34685   1.561   9.664   6.293 -0.8717  0.6615  2.8242
  257MOL0     H34686   1.645   9.788   6.392  4.5933  0.8837  0.0503
  257MOL0     H34687   1.861   9.708   6.282 -0.9985  2.2207 -2.3570
  257MOL0     H34688   1.774   9.580   6.209  3.4768  0.1085 -0.0419
  257MOL0     H34689   1.866   9.501   6.441  0.6732 -0.2030 -1.0895
  257MOL0     H34690   1.740   9.599   6.516 -0.7008 -0.0844 -0.0166
  257MOL0     H34691   1.459   9.357   6.400  0.7022 -2.1437  1.7804
  257MOL0     H34692   1.389  10.090   6.242 -2.9985 -2.6560 -1.2940
  257MOL0     H34693   1.297  10.395   6.025 -2.8889 -1.0363  0.7150
  257MOL0     H34694   1.233  10.301   6.164 -0.6118 -0.5154 -1.2597
  257MOL0     H34695   1.391  10.391   6.174  2.3737 -3.1744  1.0982
  258MOL0     O34696   4.699   0.566   4.738 -0.2852 -0.9491 -0.0062
  258MOL0     C34697   4.774   0.588   4.649 -0.6133 -0.5239  0.3003
  258MOL0     O34698   4.780   0.514   4.532  0.2814  0.0157  0.4638
  258MOL0     C34699   4.702   0.400   4.532  0.6413 -0.2026  0.7217
  258MOL0     C34700   4.742   0.287   4.603  0.0084  0.7775 -0.1219
  258MOL0     C34701   4.654   0.176   4.616  0.7038  0.7084  0.6309
  258MOL0     C34702   4.523   0.180   4.568  0.3591  0.5710 -0.0196
  258MOL0     O34703   4.437   0.092   4.607  0.0497 -0.0652 -0.1600
  258MOL0     C34704   4.454  -0.041   4.553  0.2078  0.3191 -0.5925
  258MOL0     C34705   4.340  -0.127   4.618 -0.3391 -0.6820 -0.0263
  258MOL0     C34706   4.378  -0.150   4.760  0.9096  0.2055 -0.7934
  258MOL0     C34707   4.270  -0.240   4.833 -0.4160  0.4323 -0.2059
  258MOL0     C34708   4.314  -0.275   4.979 -0.6315  0.0841 -0.5209
  258MOL0     C34709   4.370  -0.165   5.060  0.5858 -0.1156 -0.2893
  258MOL0     C34710   4.406  -0.218   5.199 -0.1501  0.7761 -0.8745
  258MOL0     C34711   4.533  -0.308   5.209  1.0090  0.2149 -0.3266
  258MOL0     N34712   4.642  -0.230   5.156 -0.0262  0.0734  0.5121
  258MOL0     C34713   4.707  -0.124   5.216 -0.5619  0.3350  0.3435
  258MOL0     C34714   4.797  -0.070   5.131  0.9504  0.4540 -0.3506
  258MOL0     C34715   4.893   0.042   5.143 -0.1553 -0.9778  0.6269
  258MOL0     C34716   4.817   0.182   5.141 -0.1196  0.4975  0.0022
  258MOL0     C34717   4.779   0.202   4.995  0.5166  0.3810  0.6353
  258MOL0     C34718   4.699   0.331   4.976 -0.0638 -0.5479 -0.5880
  258MOL0     O34719   4.575   0.308   5.041 -0.4431 -1.0602 -0.9542
  258MOL0     C34720   4.461   0.306   4.966 -0.5344 -1.1628  0.5346
  258MOL0     C34721   4.377   0.203   4.987  0.1110  0.8040 -0.4656
  258MOL0     C34722   4.264   0.177   4.911  0.2457 -0.5660 -0.3207
  258MOL0     C34723   4.230   0.275   4.816 -1.2083 -0.0300  0.3399
  258MOL0     C34724   4.103   0.255   4.732  0.6976  1.4050  0.4891
  258MOL0     O34725   4.040   0.133   4.734 -0.0986 -0.6153 -0.8770
  258MOL0     C34726   3.918   0.126   4.684 -0.3564 -0.1625  0.8532
  258MOL0     C34727   3.885   0.145   4.545 -0.0685  0.0920  1.0679
  258MOL0     C34728   3.748   0.133   4.496  0.3980 -0.6439  0.5314
  258MOL0     C34729   3.653   0.094   4.590  0.3754 -0.4712 -0.0647
  258MOL0     O34730   3.529   0.076   4.540 -0.0105  0.6423 -0.5721
  258MOL0     C34731   3.454   0.197   4.516 -0.2824 -0.0458 -0.2062
  258MOL0     C34732   3.320   0.158   4.461 -0.1445  0.2361  0.4718
  258MOL0     C34733   3.319   0.102   4.322  0.5184 -0.1936 -0.0702
  258MOL0     C34734   3.352   0.214   4.219 -0.5266 -0.5539 -0.4769
  258MOL0     C34735   3.343   0.159   4.074 -0.4477 -0.9113  0.8229
  258MOL0     C34736   3.461   0.069   4.039 -0.5541  0.0802  1.0088
  258MOL0     C34737   3.609   0.127   4.064 -0.3820  0.4037  0.0244
  258MOL0     C34738   3.620   0.260   3.988  0.3176 -0.6891  0.6200
  258MOL0    Cl34739   3.794   0.321   4.008 -0.6640 -0.2706 -0.1712
  258MOL0     C34740   3.689   0.088   4.730  0.0030 -0.6054 -0.4679
  258MOL0     C34741   3.821   0.097   4.777 -0.2489 -0.7280 -0.3090
  258MOL0     O34742   4.074   0.359   4.673  0.6958  0.7684 -0.4173
  258MOL0     C34743   4.312   0.388   4.788  0.0678 -0.0605 -1.1413
  258MOL0     C34744   4.433   0.399   4.862  0.3273  0.4928  1.0356
  258MOL0     N34745   4.790  -0.153   5.015  0.3951 -0.3344  0.4715
  258MOL0     N34746   4.697  -0.242   5.032 -0.0858 -0.1391  0.0664
  258MOL0     C34747   4.491   0.290   4.483 -0.8368  0.2990 -0.7194
  258MOL0     C34748   4.583   0.398   4.464  0.3256 -0.5233  0.6588
  258MOL0     C34749   4.853   0.716   4.640  0.0664  0.0651 -0.4646
  258MOL0     C34750   4.878   0.774   4.511 -0.3786  0.0471 -0.0540
  258MOL0     C34751   4.954   0.893   4.508  0.3742  0.9919  0.2649
  258MOL0     C34752   5.008   0.958   4.615  0.1302 -0.4535 -0.3058
  258MOL0     O34753   5.103   1.059   4.615  0.7232  0.1510  0.4014
  258MOL0     C34754   5.101   1.157   4.512 -0.3904 -0.5019  0.2547
  258MOL0     C34755   4.971   1.235   4.501  0.1530 -0.9175 -0.7721
  258MOL0     C34756   4.960   1.322   4.624 -0.1358 -0.6321  0.6549
  258MOL0     C34757   4.833   1.404   4.638 -0.3314  0.4783 -0.1535
  258MOL0     C34758   4.829   1.497   4.530 -0.6657  0.4512  0.1476
  258MOL0     C34759   4.810   1.565   4.430  0.4743 -0.3998  0.4869
  258MOL0     C34760   4.974   0.910   4.746 -0.3692 -0.1375  1.1117
  258MOL0     C34761   4.892   0.795   4.757  0.4615 -0.2102 -0.2849
  258MOL0     C34762   4.875   0.747   4.906  0.4759  0.2752  0.3081
  258MOL0     H34763   4.836   0.292   4.657 -0.4524 -2.0443  1.1004
  258MOL0     H34764   4.687   0.086   4.666 -1.2585 -0.5657 -0.2382
  258MOL0     H34765   4.442  -0.027   4.445 -1.0121  4.3696 -0.0965
  258MOL0     H34766   4.553  -0.084   4.569  1.4526  3.1373 -0.1377
  258MOL0     H34767   4.332  -0.218   4.558 -1.0888  0.0744 -1.1068
  258MOL0     H34768   4.244  -0.075   4.603  0.5523  0.8009 -0.8182
  258MOL0     H34769   4.381  -0.051   4.805 -1.6791  0.3544 -0.7539
  258MOL0     H34770   4.475  -0.198   4.775  0.4660 -0.5054 -0.0883
  258MOL0     H34771   4.165  -0.209   4.837 -0.3521  0.6726 -0.3839
  258MOL0     H34772   4.275  -0.336   4.780 -0.8264 -0.4744  1.3378
  258MOL0     H34773   4.225  -0.305   5.035 -1.4437  2.4533 -0.4224
  258MOL0     H34774   4.391  -0.352   4.975 -1.8472 -1.3302  1.6158
  258MOL0     H34775   4.457  -0.113   5.017 -0.6260  0.0742 -2.6859
  258MOL0     H34776   4.287  -0.095   5.069  2.2742  2.1576 -1.5264
  258MOL0     H34777   4.323  -0.279   5.237  1.2703  0.0959  1.3995
  258MOL0     H34778   4.403  -0.133   5.268 -0.1272  0.4568 -0.4692
  258MOL0     H34779   4.559  -0.327   5.314 -2.2308 -0.5503  0.4586
  258MOL0     H34780   4.514  -0.402   5.157  1.2962 -1.4814  2.4283
  258MOL0     H34781   4.701  -0.090   5.320 -3.2320  3.8024 -0.7275
  258MOL0     H34782   4.939   0.013   5.238 -1.4879 -2.0731  0.9807
  258MOL0     H34783   4.966   0.033   5.062  0.3476  0.2436  0.9283
  258MOL0     H34784   4.729   0.178   5.206 -0.1035 -1.0329 -0.0240
  258MOL0     H34785   4.890   0.252   5.181  1.2829 -2.3421  2.8286
  258MOL0     H34786   4.712   0.127   4.953  0.4824  1.6149 -1.7088
  258MOL0     H34787   4.866   0.205   4.928 -0.9855 -2.2364 -1.6325
  258MOL0     H34788   4.686   0.349   4.869  0.2459 -1.0422 -0.7139
  258MOL0     H34789   4.748   0.422   5.012  0.8251 -1.1779 -0.1761
  258MOL0     H34790   4.409   0.137   5.067  2.8868  3.9000  1.2387
  258MOL0     H34791   4.198   0.091   4.919  0.8276 -1.0704 -0.8733
  258MOL0     H34792   3.958   0.180   4.473  1.5246 -2.8283  1.1387
  258MOL0     H34793   3.711   0.150   4.396  1.6978  0.0975  0.1429
  258MOL0     H34794   3.442   0.245   4.614 -1.6099 -2.6411  1.0207
  258MOL0     H34795   3.499   0.268   4.446  1.1653  0.0429  0.7708
  258MOL0     H34796   3.275   0.079   4.522  1.7599  0.1689  1.8784
  258MOL0     H34797   3.256   0.245   4.474 -0.4790 -0.1679  1.7510
  258MOL0     H34798   3.386   0.015   4.322 -0.6121 -1.1166 -1.4441
  258MOL0     H34799   3.223   0.057   4.296  0.5291 -0.4976  0.4022
  258MOL0     H34800   3.453   0.249   4.241 -0.4807 -0.6818 -0.4840
  258MOL0     H34801   3.287   0.301   4.232  1.2217  0.4945  1.8531
  258MOL0     H34802   3.334   0.251   4.016  3.1477  2.0296  4.4077
  258MOL0     H34803   3.244   0.118   4.050 -1.0545  1.2770 -0.7259
  258MOL0     H34804   3.467  -0.026   4.093  0.8272 -1.5044 -1.7041
  258MOL0     H34805   3.468   0.043   3.933  3.0517  0.5651  0.9884
  258MOL0     H34806   3.687   0.065   4.020  1.1949  2.3439 -0.0964
  258MOL0     H34807   3.638   0.138   4.169 -0.0148 -2.6511  0.3079
  258MOL0     H34808   3.591   0.263   3.883 -1.7329 -1.4410  1.1158
  258MOL0     H34809   3.553   0.332   4.036 -0.5851  1.2598 -3.1624
  258MOL0     H34810   3.600   0.075   4.791 -1.4645 -1.5114 -2.6639
  258MOL0     H34811   3.846   0.072   4.880  4.6100  0.7200 -0.8745
  258MOL0     H34812   4.285   0.458   4.710  1.8888 -2.4889 -4.2271
  258MOL0     H34813   4.501   0.482   4.846  0.5486 -0.0549 -1.3153
  258MOL0     H34814   4.390   0.299   4.444 -1.7546  0.8275  1.5839
  258MOL0     H34815   4.546   0.481   4.405 -0.7348 -1.7405 -0.4612
  258MOL0     H34816   4.848   0.721   4.421  2.1086 -0.3203 -0.7551
  258MOL0     H34817   4.958   0.937   4.408 -1.9340 -2.5334 -1.6214
  258MOL0     H34818   5.107   1.106   4.415 -0.4703  0.2715 -0.1653
  258MOL0     H34819   5.191   1.219   4.514 -0.5373 -0.2522 -0.5009
  258MOL0     H34820   4.887   1.168   4.481  1.7651 -2.8489 -1.4128
  258MOL0     H34821   4.974   1.307   4.418  1.3572 -1.1739 -0.9614
  258MOL0     H34822   5.049   1.384   4.637  0.5459 -1.1019 -1.4382
  258MOL0     H34823   4.966   1.257   4.712 -0.8842 -1.6279 -0.0084
  258MOL0     H34824   4.740   1.347   4.643 -0.6972  1.1443  1.4605
  258MOL0     H34825   4.841   1.459   4.732 -0.9956 -2.3867  1.7236
  258MOL0     H34826   4.784   1.635   4.353 -0.8066  0.2487  1.4818
  258MOL0     H34827   5.012   0.967   4.830 -0.5422 -1.9167  2.4615
  258MOL0     H34828   4.774   0.772   4.939 -0.2153 -3.6907  1.6264
  258MOL0     H34829   4.895   0.640   4.917  1.6401  0.4455  0.0401
  258MOL0     H34830   4.950   0.794   4.972  1.3516  2.6980 -2.1936
  259MOL0     O34831   4.035  10.326   9.173 -0.6666  0.2029  0.5577
  259MOL0     C34832   3.976  10.416   9.238 -0.4887 -0.3554 -0.8145
  259MOL0     O34833   4.033  10.485   9.340  0.4713  0.4184 -0.0079
  259MOL0     C34834   4.164  10.484   9.371  0.2329 -0.1420  0.3659
  259MOL0     C34835   4.200  10.533   9.495  0.3399  0.1199 -0.0150
  259MOL0     C34836   4.338  10.531   9.539  0.1191  0.0516 -0.2711
  259MOL0     C34837   4.433  10.477   9.448 -0.0494 -0.5045 -0.2840
  259MOL0     O34838   4.566  10.485   9.487 -0.1450 -0.3996 -0.0710
  259MOL0     C34839   4.607  10.470   9.624  0.4845 -0.5029  0.5428
  259MOL0     C34840   4.757  10.455   9.630  0.4180  0.1958  0.5373
  259MOL0     C34841   4.818  10.440   9.764 -0.9833 -0.2202 -0.6843
  259MOL0     C34842   4.972  10.445   9.752 -0.0440  0.4239  0.2746
  259MOL0     C34843   5.027  10.391   9.878  0.3798 -0.5192  0.0243
  259MOL0     C34844   5.182  10.408   9.883  0.5122  0.5028  0.4102
  259MOL0     C34845   5.247  10.323   9.994  0.3744  0.4732 -0.6698
  259MOL0     C34846   5.394  10.349  10.017 -0.6759 -0.4814  0.0893
  259MOL0     N34847   5.441  10.338  10.152  0.8478  0.5946 -0.9871
  259MOL0     C34848   5.456  10.433  10.252  0.0572 -0.0860  1.0124
  259MOL0     C34849   5.482  10.364  10.367 -0.2871 -0.7313 -0.4379
  259MOL0     C34850   5.504  10.424  10.501  0.1887 -0.5275  0.0545
  259MOL0     C34851   5.648  10.454  10.522  0.2055  0.4533  0.0282
  259MOL0     C34852   5.677  10.477  10.668  0.5988  0.1557 -0.3989
  259MOL0     C34853   5.831  10.474  10.693 -0.2497 -0.0729 -0.4963
  259MOL0     O34854   5.840  10.459  10.836 -0.1883 -0.2693 -0.3819
  259MOL0     C34855   5.817  10.338  10.903  0.1698  0.3187 -0.1267
  259MOL0     C34856   5.818  10.208  10.834  0.0715 -0.1057  0.2650
  259MOL0     C34857   5.810  10.090  10.908  0.8569 -0.9537 -0.0138
  259MOL0     C34858   5.780  10.091  11.041  0.1892  0.7481  0.2086
  259MOL0     C34859   5.768   9.963  11.111  1.2689  0.3541  1.0987
  259MOL0     O34860   5.773   9.970  11.244  0.4636  0.7895  0.2501
  259MOL0     C34861   5.751   9.858  11.320 -0.7044  0.3164 -0.0404
  259MOL0     C34862   5.619   9.820  11.346  0.8394  0.1084  0.1669
  259MOL0     C34863   5.588   9.710  11.425 -0.0312 -0.1123  0.8388
  259MOL0     C34864   5.694   9.642  11.496 -0.1061 -0.1490 -0.2388
  259MOL0     O34865   5.672   9.544  11.593 -0.3016  0.5598 -0.0298
  259MOL0     C34866   5.557   9.460  11.568  0.4524  0.2878 -0.2150
  259MOL0     C34867   5.565   9.344  11.667 -0.1539 -0.1529  1.0096
  259MOL0     C34868   5.661   9.238  11.616 -0.0551  0.6639 -0.2667
  259MOL0     C34869   5.595   9.110  11.570 -0.1483 -0.0742 -0.3634
  259MOL0     C34870   5.547   9.027  11.691  0.1363 -1.0709  0.4825
  259MOL0     C34871   5.489   8.882  11.654 -0.0125 -0.5297 -0.7348
  259MOL0     C34872   5.588   8.783  11.595  0.9876  0.5939 -0.8140
  259MOL0     C34873   5.546   8.643  11.543  0.2667 -0.2619 -0.4267
  259MOL0    Cl34874   5.462   8.555  11.667  0.2871 -0.0104 -0.8940
  259MOL0     C34875   5.830   9.687  11.464  0.3531  0.4442  0.1470
  259MOL0     C34876   5.856   9.794  11.386  0.2032  0.1479 -0.4884
  259MOL0     O34877   5.746   9.864  11.038 -0.2113 -0.7212  0.2345
  259MOL0     C34878   5.769  10.214  11.105  0.6040 -0.5073 -0.5755
  259MOL0     C34879   5.796  10.341  11.040  1.0425 -0.1117 -0.6037
  259MOL0     N34880   5.480  10.229  10.335 -0.7634 -0.1546  0.0368
  259MOL0     N34881   5.441  10.218  10.215 -0.0674  0.0550  0.6484
  259MOL0     C34882   4.395  10.436   9.320 -0.5670 -0.3899  0.9135
  259MOL0     C34883   4.265  10.443   9.282 -0.2081 -0.0154  0.3825
  259MOL0     C34884   3.833  10.439   9.217 -1.0344  0.2971  0.1914
  259MOL0     C34885   3.802  10.522   9.110 -0.9368 -0.9010 -0.1309
  259MOL0     C34886   3.668  10.551   9.085 -0.3558 -0.8224 -0.3036
  259MOL0     C34887   3.567  10.479   9.151 -0.2090 -0.9592  0.0676
  259MOL0     O34888   3.434  10.485   9.115  1.1040  0.4863  0.1383
  259MOL0     C34889   3.390  10.382   9.017  0.2045  0.1840 -0.8105
  259MOL0     C34890   3.423  10.440   8.878  0.2200 -0.5633 -0.0961
  259MOL0     C34891   3.355  10.348   8.763 -0.4911  0.2061 -0.9924
  259MOL0     C34892   3.226  10.266   8.818  0.8292  0.5459 -0.5893
  259MOL0     C34893   3.146  10.198   8.708  0.1253 -0.7676  0.0084
  259MOL0     C34894   3.091  10.136   8.613 -0.1727  0.5224 -0.9820
  259MOL0     C34895   3.599  10.397   9.256  0.3809  0.0738  0.4133
  259MOL0     C34896   3.735  10.380   9.284 -0.1014  0.5851 -0.5064
  259MOL0     C34897   3.778  10.283   9.392  0.6935 -0.3067 -0.5466
  259MOL0     H34898   4.120  10.577   9.555  1.6353  0.0099  1.8725
  259MOL0     H34899   4.381  10.554   9.636  1.8226 -4.0991  0.1619
  259MOL0     H34900   4.588  10.558   9.686 -1.0094 -1.0590  0.8958
  259MOL0     H34901   4.550  10.386   9.663  1.4271 -2.1011 -1.3404
  259MOL0     H34902   4.808  10.538   9.579  1.4329 -0.1672  0.9297
  259MOL0     H34903   4.786  10.363   9.579 -0.3176  0.1943  0.1116
  259MOL0     H34904   4.794  10.345   9.812  2.3685 -0.7354  0.1853
  259MOL0     H34905   4.799  10.526   9.829 -0.1790 -0.9292  0.5204
  259MOL0     H34906   5.002  10.389   9.663 -0.0814  4.1866 -2.3442
  259MOL0     H34907   5.005  10.548   9.735 -2.7976  1.5644  1.3280
  259MOL0     H34908   4.990  10.457   9.957  0.5623  1.3102 -1.3428
  259MOL0     H34909   5.008  10.284   9.892  0.1259 -0.3707  0.8736
  259MOL0     H34910   5.224  10.378   9.787  1.6092 -2.0796  1.5875
  259MOL0     H34911   5.207  10.513   9.903 -0.6113  0.4178  2.6888
  259MOL0     H34912   5.234  10.219   9.963 -4.3897  1.0289 -1.2249
  259MOL0     H34913   5.203  10.350  10.090  0.4027  0.1759 -0.5728
  259MOL0     H34914   5.453  10.288   9.948 -2.0406  0.8990 -2.4339
  259MOL0     H34915   5.413  10.453   9.991  1.5249 -1.0713 -0.8700
  259MOL0     H34916   5.458  10.540  10.235 -1.4914 -0.2626 -0.6880
  259MOL0     H34917   5.446  10.516  10.512 -0.6628 -1.1165  0.6194
  259MOL0     H34918   5.464  10.356  10.577  0.1255 -1.5623 -0.8628
  259MOL0     H34919   5.703  10.364  10.494 -0.8019  0.5088 -2.3110
  259MOL0     H34920   5.679  10.532  10.452  3.0324  0.2231  0.8827
  259MOL0     H34921   5.635  10.396  10.728  1.9258  0.3247  0.8213
  259MOL0     H34922   5.633  10.573  10.699  2.1572  1.1854 -1.2358
  259MOL0     H34923   5.874  10.568  10.659  0.1735 -1.8227 -5.6686
  259MOL0     H34924   5.889  10.398  10.640  0.0651  0.7099 -1.2792
  259MOL0     H34925   5.839  10.199  10.728  3.1070 -2.5659  0.9280
  259MOL0     H34926   5.812  10.000  10.847  2.4855 -1.2689  0.4659
  259MOL0     H34927   5.539   9.872  11.294  0.2915 -1.2724 -0.4235
  259MOL0     H34928   5.482   9.691  11.440  0.3990 -2.9575  0.9642
  259MOL0     H34929   5.462   9.512  11.588  0.7104  0.4030  0.7848
  259MOL0     H34930   5.561   9.419  11.467  0.1785  1.5262 -0.7514
  259MOL0     H34931   5.598   9.377  11.766 -1.2324 -3.0744  2.4576
  259MOL0     H34932   5.463   9.305  11.673  0.3697 -1.6285  0.4904
  259MOL0     H34933   5.713   9.283  11.531 -1.8744 -0.3334 -2.0107
  259MOL0     H34934   5.738   9.228  11.693  0.6925  0.2252 -1.0527
  259MOL0     H34935   5.654   9.037  11.515 -3.2180 -1.3923 -2.2150
  259MOL0     H34936   5.519   9.141  11.497  1.4359  0.5295 -1.8138
  259MOL0     H34937   5.464   9.083  11.736  0.8920  0.7084 -0.2340
  259MOL0     H34938   5.624   9.019  11.767  0.9272  0.5320 -0.1057
  259MOL0     H34939   5.448   8.836  11.745 -0.2937  1.8713  0.4337
  259MOL0     H34940   5.408   8.902  11.583  0.3616 -1.5909 -1.4770
  259MOL0     H34941   5.662   8.765  11.674 -1.7499 -0.8589  1.6349
  259MOL0     H34942   5.636   8.816  11.503  1.4391 -1.8466 -1.5325
  259MOL0     H34943   5.475   8.650  11.460  3.0068  1.2646 -2.8082
  259MOL0     H34944   5.633   8.582  11.519  1.2048  0.4876  0.9302
  259MOL0     H34945   5.908   9.632  11.516  1.4489  1.3683 -0.4639
  259MOL0     H34946   5.959   9.828  11.378 -0.2962  2.7793  2.2027
  259MOL0     H34947   5.730  10.210  11.206 -1.9310 -2.8242 -1.5256
  259MOL0     H34948   5.800  10.433  11.097 -0.3414  0.7738 -1.8899
  259MOL0     H34949   4.481  10.420   9.255 -1.4452 -0.2200 -0.3206
  259MOL0     H34950   4.239  10.413   9.181 -1.6448 -0.7558  0.9336
  259MOL0     H34951   3.867  10.578   9.044  1.0300 -0.4623  2.0686
  259MOL0     H34952   3.648  10.621   9.004  2.2050 -0.3785 -0.6209
  259MOL0     H34953   3.284  10.369   9.038  0.5754  0.3887  1.4652
  259MOL0     H34954   3.439  10.284   9.027 -0.5440 -0.4427 -2.7907
  259MOL0     H34955   3.532  10.437   8.875  0.4269  1.9110  1.6382
  259MOL0     H34956   3.384  10.542   8.874  0.4231 -0.5239 -1.3651
  259MOL0     H34957   3.428  10.272   8.734  0.4771  0.9130 -0.4425
  259MOL0     H34958   3.330  10.403   8.672  0.9083  1.6894 -0.5188
  259MOL0     H34959   3.245  10.187   8.891 -0.0197  1.8099  1.0812
  259MOL0     H34960   3.157  10.335   8.868 -0.0634 -1.1944  0.6708
  259MOL0     H34961   3.045  10.068   8.545  2.0325  1.8813 -4.0655
  259MOL0     H34962   3.515  10.347   9.303  0.3878  2.3956  3.1842
  259MOL0     H34963   3.847  10.213   9.345  0.7911 -0.2228 -0.5299
  259MOL0     H34964   3.828  10.336   9.474  1.6002  0.6368 -1.6647
  259MOL0     H34965   3.693  10.227   9.432  0.3122  2.4840  3.0534
  260MOL0     O34966   3.067   3.243   7.576  0.8396 -0.9699  0.8531
  260MOL0     C34967   3.166   3.172   7.580 -0.1591 -0.8239  0.4309
  260MOL0     O34968   3.275   3.189   7.663 -0.2853 -0.0115 -0.5926
  260MOL0     C34969   3.307   3.319   7.722 -0.3362  0.0163 -0.2542
  260MOL0     C34970   3.244   3.443   7.689  0.6757 -0.0985 -0.2052
  260MOL0     C34971   3.278   3.557   7.765  0.6329 -0.3243 -0.4832
  260MOL0     C34972   3.380   3.559   7.859  0.5087 -0.0255  0.1585
  260MOL0     O34973   3.392   3.667   7.948 -0.5221 -0.3099  0.0179
  260MOL0     C34974   3.289   3.764   7.949 -0.2007 -1.0551  0.1844
  260MOL0     C34975   3.301   3.849   8.087  0.5208 -0.3236 -0.4375
  260MOL0     C34976   3.203   3.966   8.082 -0.1195  0.5585  0.1737
  260MOL0     C34977   3.177   4.001   8.235  0.0242 -0.2529  0.5075
  260MOL0     C34978   3.084   4.124   8.245  0.6266 -0.5136 -0.0076
  260MOL0     C34979   2.976   4.108   8.354 -0.0518 -0.4298 -0.5329
  260MOL0     C34980   3.026   4.082   8.493  0.8047 -0.6850 -0.4794
  260MOL0     C34981   2.925   4.148   8.597 -0.0549 -0.2325  0.3392
  260MOL0     N34982   2.969   4.128   8.734 -0.1203 -0.7063  0.6472
  260MOL0     C34983   3.008   4.021   8.798  0.4034  0.1317  0.2572
  260MOL0     C34984   3.046   4.059   8.923 -0.2053  0.2952  0.4121
  260MOL0     C34985   3.097   3.955   9.018 -0.7462  0.0390 -0.1119
  260MOL0     C34986   2.992   3.848   9.070 -0.0963  0.3483 -0.4866
  260MOL0     C34987   3.050   3.751   9.182  0.9942  1.2703  0.4800
  260MOL0     C34988   2.953   3.649   9.246  0.1324 -0.1297 -0.0517
  260MOL0     O34989   3.025   3.578   9.342  0.2690 -0.2165  0.2376
  260MOL0     C34990   2.979   3.470   9.410  0.3894  0.9511  0.1282
  260MOL0     C34991   3.045   3.347   9.423  0.4213 -0.2479  0.1547
  260MOL0     C34992   2.993   3.248   9.508 -0.1404  0.1526 -0.7785
  260MOL0     C34993   2.867   3.271   9.574 -0.2174  0.6574 -0.6082
  260MOL0     C34994   2.820   3.182   9.689  1.0200 -0.2220  0.0879
  260MOL0     O34995   2.888   3.064   9.705 -0.1194 -0.6889  0.1616
  260MOL0     C34996   2.854   2.974   9.803 -0.8344 -0.4299  0.8263
  260MOL0     C34997   2.958   2.910   9.870  0.3364 -0.1608 -0.3672
  260MOL0     C34998   2.933   2.813   9.970 -0.3882 -0.1050  0.6372
  260MOL0     C34999   2.807   2.790  10.009 -0.4809  0.1389 -0.9589
  260MOL0     O35000   2.765   2.712  10.114 -0.3570 -0.5344  0.1853
  260MOL0     C35001   2.862   2.678  10.210 -0.1319  0.8723 -0.2037
  260MOL0     C35002   2.789   2.561  10.283  0.0745  0.1420 -0.1387
  260MOL0     C35003   2.781   2.424  10.214 -0.3058 -0.2108 -0.1496
  260MOL0     C35004   2.678   2.418  10.100 -0.4107 -0.0645 -1.0409
  260MOL0     C35005   2.681   2.275  10.019 -0.0288 -0.1212  1.1446
  260MOL0     C35006   2.698   2.159  10.102 -0.4319 -0.4614  0.4857
  260MOL0     C35007   2.692   2.037  10.019 -0.0355 -0.7018 -0.1844
  260MOL0     C35008   2.676   1.906  10.107  0.5006 -0.2490  0.4908
  260MOL0    Cl35009   2.827   1.844  10.179 -0.3092 -0.1357 -0.5113
  260MOL0     C35010   2.702   2.834   9.930 -0.9861 -0.0509 -0.2552
  260MOL0     C35011   2.728   2.918   9.825 -0.2782 -0.4114  0.4097
  260MOL0     O35012   2.734   3.231   9.767 -0.5258 -0.4629  0.8592
  260MOL0     C35013   2.797   3.394   9.544 -0.2271  0.3778 -0.7785
  260MOL0     C35014   2.853   3.493   9.464  0.3923 -0.3479  0.4066
  260MOL0     N35015   3.028   4.194   8.941  0.2377 -0.4541  0.1274
  260MOL0     N35016   2.989   4.234   8.819  0.3693  0.3801 -0.1868
  260MOL0     C35017   3.449   3.443   7.867 -0.3919 -0.2477 -0.4283
  260MOL0     C35018   3.409   3.319   7.815 -0.2833 -0.3246  0.1751
  260MOL0     C35019   3.165   3.044   7.515 -0.6933  0.3921 -0.2958
  260MOL0     C35020   3.290   2.984   7.474 -0.7761 -0.0749  0.5157
  260MOL0     C35021   3.286   2.859   7.408  0.4440  0.6142  0.0092
  260MOL0     C35022   3.166   2.784   7.396  0.9256  0.0124  0.7442
  260MOL0     O35023   3.168   2.653   7.332  0.4092 -0.1006  0.3557
  260MOL0     C35024   3.129   2.654   7.198  0.0596 -1.0651  0.3724
  260MOL0     C35025   3.230   2.604   7.098 -0.6822  0.4066  0.3876
  260MOL0     C35026   3.337   2.691   7.034 -0.2200 -0.0114 -0.1531
  260MOL0     C35027   3.300   2.790   6.922 -0.5526  1.0102  0.3159
  260MOL0     C35028   3.313   2.929   6.965 -0.2062 -0.6031 -0.2557
  260MOL0     C35029   3.326   3.045   7.007 -0.4625  0.2196 -0.2989
  260MOL0     C35030   3.047   2.840   7.442  0.4945  0.1788  0.3763
  260MOL0     C35031   3.042   2.967   7.502 -0.7197  0.1757  0.9262
  260MOL0     C35032   2.901   3.010   7.533  0.3810 -0.8103 -0.6376
  260MOL0     H35033   3.170   3.445   7.609  0.7662 -1.1240 -0.3237
  260MOL0     H35034   3.224   3.649   7.747  2.1150  0.5575 -0.5694
  260MOL0     H35035   3.285   3.828   7.860 -2.0779 -2.9645 -1.1865
  260MOL0     H35036   3.194   3.710   7.949  0.2886 -1.9441 -0.5922
  260MOL0     H35037   3.403   3.886   8.101  0.0306  0.5832  1.0174
  260MOL0     H35038   3.288   3.802   8.185  1.6974  2.8773  1.3827
  260MOL0     H35039   3.114   3.939   8.024 -0.3745 -1.3771  1.4089
  260MOL0     H35040   3.249   4.049   8.027  0.8751  1.3269  2.0716
  260MOL0     H35041   3.135   3.912   8.283  1.0694 -2.9861 -3.1906
  260MOL0     H35042   3.269   4.030   8.285  0.7199 -0.9625 -0.3399
  260MOL0     H35043   3.131   4.223   8.249 -1.3884  0.5906 -1.6701
  260MOL0     H35044   3.024   4.129   8.154  1.9058 -0.2968 -0.8781
  260MOL0     H35045   2.912   4.197   8.344  1.8230  1.1942  0.9765
  260MOL0     H35046   2.928   4.017   8.317 -1.5905  0.1071  0.0543
  260MOL0     H35047   3.120   4.134   8.514  0.4093  1.2656 -3.0013
  260MOL0     H35048   3.032   3.975   8.515  0.0856 -0.5799  0.2622
  260MOL0     H35049   2.911   4.255   8.580 -2.6177 -0.1776  2.1029
  260MOL0     H35050   2.822   4.115   8.581 -1.0313  3.1075 -0.9961
  260MOL0     H35051   3.017   3.918   8.767 -0.5337  0.4604 -1.1906
  260MOL0     H35052   3.175   3.903   8.962  1.3623  1.7806  1.0435
  260MOL0     H35053   3.144   4.019   9.093 -2.1588  0.8224  0.1263
  260MOL0     H35054   2.905   3.908   9.099  0.4310  1.6750 -1.5100
  260MOL0     H35055   2.967   3.776   8.992  2.9048 -0.4434 -0.8430
  260MOL0     H35056   3.095   3.806   9.265  1.2365  1.7307  0.0508
  260MOL0     H35057   3.131   3.689   9.141 -3.2282 -5.0973  0.3025
  260MOL0     H35058   2.914   3.585   9.166  6.1461 -0.8215 -3.0050
  260MOL0     H35059   2.892   3.722   9.300  1.2800  1.1548 -0.4365
  260MOL0     H35060   3.140   3.339   9.372 -1.2483 -1.3121 -3.0560
  260MOL0     H35061   3.055   3.159   9.516  0.8263  0.7796 -1.0875
  260MOL0     H35062   3.058   2.950   9.855  0.3974 -0.8550 -2.0110
  260MOL0     H35063   3.019   2.761  10.008  0.4853  0.8150 -0.0193
  260MOL0     H35064   2.959   2.644  10.171 -0.2874  4.7387 -4.8138
  260MOL0     H35065   2.877   2.753  10.287  2.5645  0.2267  0.0366
  260MOL0     H35066   2.861   2.534  10.361 -1.7306  0.1802  1.6301
  260MOL0     H35067   2.696   2.589  10.334 -0.8970 -0.2606 -1.6512
  260MOL0     H35068   2.878   2.415  10.165  1.0311  3.8752  1.3914
  260MOL0     H35069   2.741   2.341  10.273 -0.8799  0.3018  0.2052
  260MOL0     H35070   2.702   2.498  10.029 -3.7960  2.1649  0.1106
  260MOL0     H35071   2.579   2.429  10.144 -0.6387 -2.1642 -0.9422
  260MOL0     H35072   2.769   2.281   9.955  1.4418 -1.8885  2.8426
  260MOL0     H35073   2.588   2.270   9.963  0.3838 -2.1580  0.5297
  260MOL0     H35074   2.794   2.155  10.153  0.0097  1.3014 -0.1355
  260MOL0     H35075   2.606   2.156  10.163 -0.3389  4.8252  1.3097
  260MOL0     H35076   2.770   2.027   9.943 -1.5453 -0.2468 -1.8651
  260MOL0     H35077   2.600   2.033   9.960  0.5618 -0.6194 -1.1307
  260MOL0     H35078   2.606   1.942  10.183  1.6484  2.4862  0.3677
  260MOL0     H35079   2.620   1.827  10.055 -0.1837  1.3482 -1.3052
  260MOL0     H35080   2.599   2.810   9.955 -1.6793 -1.6455 -3.9481
  260MOL0     H35081   2.638   2.951   9.773  0.8630  3.5839  0.6334
  260MOL0     H35082   2.696   3.409   9.581 -0.1905  1.0885 -0.9486
  260MOL0     H35083   2.794   3.582   9.440  0.3064 -1.1255 -2.5873
  260MOL0     H35084   3.533   3.446   7.935 -1.4450 -1.8937  1.0143
  260MOL0     H35085   3.459   3.227   7.846  0.2350  0.0272  0.3913
  260MOL0     H35086   3.386   3.035   7.477 -0.2172 -1.1229  1.8587
  260MOL0     H35087   3.385   2.823   7.381  0.6123  2.3748 -2.0551
  260MOL0     H35088   3.097   2.753   7.162  3.7092 -0.1488 -0.7941
  260MOL0     H35089   3.046   2.584   7.186 -0.8510  0.2716 -1.6099
  260MOL0     H35090   3.176   2.568   7.010 -0.6063  2.4652 -0.5578
  260MOL0     H35091   3.290   2.527   7.147  2.3674  1.3633 -1.5586
  260MOL0     H35092   3.414   2.621   6.999 -1.7339 -1.5777 -0.5308
  260MOL0     H35093   3.385   2.749   7.113 -2.1320 -0.0642  1.0862
  260MOL0     H35094   3.352   2.782   6.826  1.1588 -2.6774  1.3769
  260MOL0     H35095   3.194   2.766   6.905  0.0102 -1.2952 -0.3312
  260MOL0     H35096   3.353   3.146   7.031 -0.1048  0.4820 -1.7285
  260MOL0     H35097   2.956   2.782   7.436 -0.1494  0.7037  3.5910
  260MOL0     H35098   2.871   3.084   7.459  2.0699  0.1930 -0.3804
  260MOL0     H35099   2.828   2.929   7.539 -0.2637 -0.1526  2.5421
  260MOL0     H35100   2.897   3.054   7.633  2.0303  2.0025 -1.6998
  261MOL0     O35101   0.882   9.307   6.754 -0.6542  0.4883  0.4821
  261MOL0     C35102   0.843   9.218   6.677  1.0076  0.4414 -0.2485
  261MOL0     O35103   0.703   9.185   6.645  0.1526  0.6909 -0.1507
  261MOL0     C35104   0.607   9.249   6.722  0.0503  0.3642  0.6824
  261MOL0     C35105   0.533   9.161   6.803 -0.6675 -0.4272  0.5647
  261MOL0     C35106   0.448   9.223   6.899 -0.0646 -0.8024  0.4845
  261MOL0     C35107   0.449   9.366   6.922 -0.2746 -0.0220 -0.0515
  261MOL0     O35108   0.377   9.419   7.022 -0.1905 -0.2746 -0.4512
  261MOL0     C35109   0.316   9.343   7.127 -1.5377  0.4194  1.0738
  261MOL0     C35110   0.292   9.433   7.243  0.0102  0.0412  0.1737
  261MOL0     C35111   0.251   9.353   7.368  0.2220  0.3003  0.1911
  261MOL0     C35112   0.178   9.440   7.466  0.4009  0.2574  0.3804
  261MOL0     C35113   0.255   9.465   7.588 -0.4809 -0.2707  0.2945
  261MOL0     C35114   0.177   9.550   7.694 -0.1229 -0.3822 -0.2664
  261MOL0     C35115   0.244   9.573   7.823 -0.2747  0.4381 -0.4657
  261MOL0     C35116   0.182   9.694   7.896  0.2474 -0.3851 -0.1097
  261MOL0     N35117   0.212   9.713   8.038  0.1240  0.5073  0.6630
  261MOL0     C35118   0.250   9.830   8.101 -0.3355  0.1507 -0.4018
  261MOL0     C35119   0.257   9.795   8.232  0.4560 -0.3244 -0.2151
  261MOL0     C35120   0.266   9.898   8.346 -0.3763  0.2604 -0.1292
  261MOL0     C35121   0.384   9.996   8.340 -0.1898  0.0917  0.3161
  261MOL0     C35122   0.507   9.913   8.389 -0.0523 -0.0245  0.6674
  261MOL0     C35123   0.632  10.001   8.396  0.2965  0.0674  0.0487
  261MOL0     O35124   0.608  10.110   8.483  0.1310 -0.3515 -0.1673
  261MOL0     C35125   0.721  10.187   8.508  0.7309 -0.1584 -0.3273
  261MOL0     C35126   0.700  10.287   8.605 -0.2982  0.0368 -0.2088
  261MOL0     C35127   0.797  10.380   8.629  0.6801 -0.2253  0.0025
  261MOL0     C35128   0.917  10.387   8.562  0.7997 -0.3442 -0.7408
  261MOL0     C35129   1.032  10.480   8.597  0.3238  0.3955  0.7684
  261MOL0     O35130   1.042  10.529   8.721  0.4265 -0.5647  0.0991
  261MOL0     C35131   1.136  10.623   8.755  0.0547 -1.0787  0.8254
  261MOL0     C35132   1.105  10.707   8.866  1.1737 -0.2287  0.3790
  261MOL0     C35133   1.187  10.814   8.900  0.0306  0.4500 -0.2325
  261MOL0     C35134   1.319  10.808   8.858 -0.8546 -0.1931  0.0320
  261MOL0     O35135   1.416  10.894   8.912  0.0511 -0.6984 -0.0505
  261MOL0     C35136   1.425  11.013   8.831  0.1797 -0.2235 -0.0717
  261MOL0     C35137   1.497  11.123   8.905  0.5404 -0.0605 -0.0159
  261MOL0     C35138   1.409  11.166   9.024  0.3843 -0.3469 -0.0244
  261MOL0     C35139   1.422  11.318   9.059  0.4701 -0.2742 -0.1676
  261MOL0     C35140   1.401  11.324   9.213  0.3336 -0.5061 -0.4572
  261MOL0     C35141   1.420  11.463   9.275 -0.9721 -0.6974  0.4949
  261MOL0     C35142   1.289  11.555   9.276  0.2474  0.4776  0.4669
  261MOL0     C35143   1.166  11.495   9.350  0.0130  0.4281 -0.0118
  261MOL0    Cl35144   1.062  11.624   9.414 -0.3238 -0.2578 -0.0994
  261MOL0     C35145   1.363  10.716   8.756 -0.1424 -1.2190  0.2576
  261MOL0     C35146   1.269  10.620   8.708 -0.6548 -0.0309  0.1552
  261MOL0     O35147   1.107  10.510   8.497  0.3320 -0.8174 -0.2057
  261MOL0     C35148   0.932  10.296   8.452 -0.7455  0.5312 -0.6624
  261MOL0     C35149   0.843  10.191   8.433  0.4694 -0.2646 -0.4006
  261MOL0     N35150   0.222   9.664   8.245 -0.0870 -0.1573 -0.8960
  261MOL0     N35151   0.198   9.622   8.134 -0.2406 -0.6107 -0.2463
  261MOL0     C35152   0.524   9.441   6.842  0.1625 -0.4180  0.3325
  261MOL0     C35153   0.592   9.382   6.733 -1.0461 -0.0813 -0.2410
  261MOL0     C35154   0.947   9.171   6.582  1.0788 -0.3137  0.0517
  261MOL0     C35155   0.924   9.199   6.447 -0.3726  0.5669  0.8165
  261MOL0     C35156   1.005   9.132   6.346  0.5594 -0.8015 -0.2055
  261MOL0     C35157   1.107   9.040   6.382  0.3996  0.1605 -0.4599
  261MOL0     O35158   1.186   8.980   6.286  0.8708 -1.0101 -0.0949
  261MOL0     C35159   1.286   8.886   6.326 -0.3950  0.2343  0.5271
  261MOL0     C35160   1.426   8.954   6.363  1.4954  0.5424  0.4022
  261MOL0     C35161   1.521   8.851   6.429 -0.0120 -0.1778 -0.0165
  261MOL0     C35162   1.676   8.877   6.424 -0.1699 -0.2089 -0.1996
  261MOL0     C35163   1.707   8.976   6.531  0.2677  0.4574  0.1215
  261MOL0     C35164   1.733   9.056   6.620  1.0143 -0.2796 -0.8241
  261MOL0     C35165   1.137   9.024   6.522 -0.4618  0.5065  0.2093
  261MOL0     C35166   1.052   9.081   6.623 -0.1664 -0.1357 -0.7556
  261MOL0     C35167   1.056   9.031   6.769  0.4322 -0.4131 -0.3941
  261MOL0     H35168   0.547   9.054   6.807  1.0967 -0.3261 -1.3224
  261MOL0     H35169   0.395   9.152   6.961 -0.5082 -2.0539 -1.2410
  261MOL0     H35170   0.227   9.289   7.095 -2.3695  2.6320 -0.5400
  261MOL0     H35171   0.391   9.274   7.168 -0.0395  0.8002 -0.9068
  261MOL0     H35172   0.211   9.503   7.218  0.0755  0.6719  1.6394
  261MOL0     H35173   0.377   9.498   7.262  1.8978 -2.5592  1.1928
  261MOL0     H35174   0.333   9.305   7.422 -0.8595 -2.1696 -0.2434
  261MOL0     H35175   0.185   9.273   7.332  1.8875 -1.2428  0.4313
  261MOL0     H35176   0.133   9.528   7.418  1.3197  1.4538  1.6573
  261MOL0     H35177   0.093   9.382   7.502 -0.2493  0.6646 -0.4599
  261MOL0     H35178   0.270   9.369   7.638  1.1172  0.6175  1.6129
  261MOL0     H35179   0.350   9.518   7.580 -1.0448  0.9679  1.4935
  261MOL0     H35180   0.156   9.650   7.655 -1.8607 -0.7873 -0.4636
  261MOL0     H35181   0.079   9.500   7.701 -0.3813 -0.3072 -2.6084
  261MOL0     H35182   0.349   9.599   7.806  0.1859  0.4232  1.9698
  261MOL0     H35183   0.255   9.493   7.897  0.0573  1.4808  0.6454
  261MOL0     H35184   0.188   9.790   7.845 -1.8393  0.3185  0.8742
  261MOL0     H35185   0.075   9.670   7.895  0.5996 -2.2061  0.8549
  261MOL0     H35186   0.279   9.928   8.065  1.4902 -1.2256 -2.8850
  261MOL0     H35187   0.170   9.949   8.358 -0.5325 -0.1777  0.4963
  261MOL0     H35188   0.272   9.830   8.431 -0.1268 -0.9948 -1.1227
  261MOL0     H35189   0.410  10.029   8.238 -0.5838 -0.6180 -0.0245
  261MOL0     H35190   0.368  10.083   8.404 -0.4087  0.0754  0.2812
  261MOL0     H35191   0.535   9.832   8.321  0.0580 -0.2155  0.9396
  261MOL0     H35192   0.485   9.868   8.486 -0.3072 -1.1386  0.1043
  261MOL0     H35193   0.670  10.036   8.300  2.0893 -1.5616  0.1052
  261MOL0     H35194   0.719   9.944   8.431  0.3606  2.1068  3.7765
  261MOL0     H35195   0.602  10.295   8.651 -0.6204  1.3992 -1.0622
  261MOL0     H35196   0.765  10.444   8.711 -0.7591 -0.9084  0.0117
  261MOL0     H35197   1.000  10.704   8.893  1.1469 -1.4735  0.1997
  261MOL0     H35198   1.164  10.896   8.967 -1.7749  0.2811 -0.6060
  261MOL0     H35199   1.471  10.991   8.734 -2.3922 -1.6740 -1.0470
  261MOL0     H35200   1.324  11.050   8.810 -0.8631 -0.3087  3.9923
  261MOL0     H35201   1.592  11.098   8.954 -0.7636 -2.9837  1.2426
  261MOL0     H35202   1.508  11.202   8.831 -0.5950 -1.4975 -1.7930
  261MOL0     H35203   1.303  11.154   8.998 -0.1878  0.1723  1.8743
  261MOL0     H35204   1.423  11.097   9.108  0.1161  0.2372  0.5087
  261MOL0     H35205   1.348  11.386   9.016  2.0492  1.8808  0.3065
  261MOL0     H35206   1.513  11.371   9.029 -0.1571  2.1171  1.8309
  261MOL0     H35207   1.474  11.256   9.258 -2.8468 -2.2172  2.6352
  261MOL0     H35208   1.297  11.294   9.230  0.4301 -0.4904  0.1963
  261MOL0     H35209   1.455  11.455   9.378  2.7389  1.4655 -0.3978
  261MOL0     H35210   1.499  11.512   9.218 -2.3387  0.1513 -0.7409
  261MOL0     H35211   1.261  11.582   9.174 -0.0542  2.2622  0.9809
  261MOL0     H35212   1.312  11.650   9.325 -1.0622 -0.3393  2.7882
  261MOL0     H35213   1.110  11.433   9.281  1.0491  0.0072 -0.4950
  261MOL0     H35214   1.207  11.432   9.429  1.1307  0.5864 -0.4450
  261MOL0     H35215   1.462  10.724   8.713  1.0551 -1.6133  2.7907
  261MOL0     H35216   1.307  10.537   8.648 -2.8328 -1.3496  0.5021
  261MOL0     H35217   1.014  10.300   8.382  0.1669 -0.0123  0.3457
  261MOL0     H35218   0.882  10.125   8.357  2.3078  0.2658  0.0192
  261MOL0     H35219   0.533   9.549   6.851 -0.3166 -0.4398  1.1451
  261MOL0     H35220   0.668   9.444   6.686 -1.1507 -1.1409 -1.8639
  261MOL0     H35221   0.842   9.264   6.420 -1.5655 -1.4502 -0.7052
  261MOL0     H35222   0.978   9.156   6.244 -2.4234  1.3927  0.9263
  261MOL0     H35223   1.309   8.818   6.243  1.2453  1.6737 -0.2366
  261MOL0     H35224   1.253   8.821   6.408  0.0254 -2.0702 -1.0380
  261MOL0     H35225   1.404   9.037   6.432  1.5485  0.7274  0.1949
  261MOL0     H35226   1.470   8.997   6.274 -2.6902  1.8856 -1.2658
  261MOL0     H35227   1.484   8.753   6.399  1.6586 -1.8402  2.9196
  261MOL0     H35228   1.486   8.855   6.533  0.5113  0.2102  0.1462
  261MOL0     H35229   1.730   8.783   6.437 -0.9244 -0.5364  0.7225
  261MOL0     H35230   1.705   8.918   6.327  0.7319  1.7755  0.8594
  261MOL0     H35231   1.750   9.117   6.707 -3.1163  0.3352 -0.2446
  261MOL0     H35232   1.223   8.963   6.550  0.0383  0.9151 -0.4108
  261MOL0     H35233   1.110   8.942   6.804  0.2208 -0.5534 -0.4211
  261MOL0     H35234   1.090   9.110   6.837  0.6249  0.3111 -1.3156
  261MOL0     H35235   0.953   9.003   6.792  0.3979  1.2227  1.8733
  262MOL0     O35236   0.532   2.790  10.134  0.2733 -0.7751 -0.2968
  262MOL0     C35237   0.629   2.721  10.165 -0.7468 -0.9535  0.1816
  262MOL0     O35238   0.646   2.662  10.285 -0.4580 -0.2496 -0.2251
  262MOL0     C35239   0.541   2.668  10.375 -0.2056 -0.2745 -0.5345
  262MOL0     C35240   0.484   2.791  10.430 -0.2408 -0.1380  0.5430
  262MOL0     C35241   0.387   2.782  10.528 -0.5907 -0.0281  0.1412
  262MOL0     C35242   0.333   2.658  10.560  0.1744 -0.1164 -0.1292
  262MOL0     O35243   0.241   2.661  10.657  1.1258  0.5198  0.0379
  262MOL0     C35244   0.264   2.571  10.767  0.1133 -0.6775  0.3421
  262MOL0     C35245   0.385   2.610  10.852  0.4370  0.4839  0.0126
  262MOL0     C35246   0.375   2.529  10.978 -0.5597 -0.6821 -1.3450
  262MOL0     C35247   0.400   2.375  10.965 -0.1535  0.0489 -0.9455
  262MOL0     C35248   0.419   2.313  11.096 -0.1510 -0.6365  0.5689
  262MOL0     C35249   0.462   2.163  11.090  0.3830  0.6886 -0.0923
  262MOL0     C35250   0.530   2.127  11.220 -0.8150  0.3807  0.3508
  262MOL0     C35251   0.555   1.974  11.233 -0.8073  0.8148 -0.0493
  262MOL0     N35252   0.538   1.945  11.373 -0.2967 -0.7525  0.4982
  262MOL0     C35253   0.414   1.922  11.426 -0.8587 -0.6358  0.2830
  262MOL0     C35254   0.430   1.938  11.563  0.2825  0.4004 -0.4158
  262MOL0     C35255   0.338   1.916  11.681  0.6567 -0.1391  0.6207
  262MOL0     C35256   0.209   1.844  11.637  0.0841 -0.1687  0.3902
  262MOL0     C35257   0.223   1.693  11.601 -0.5197  0.1041  0.1232
  262MOL0     C35258   0.292   1.604  11.714  0.4340  0.1628  0.0097
  262MOL0     O35259   0.228   1.622  11.843 -0.2533  0.6021  0.0325
  262MOL0     C35260   0.284   1.566  11.953  0.4259  0.3000 -0.4614
  262MOL0     C35261   0.190   1.569  12.051 -0.4619  0.9239 -0.6367
  262MOL0     C35262   0.222   1.498  12.167  0.3772 -0.3911  0.4916
  262MOL0     C35263   0.349   1.439  12.190  0.8837 -0.4030  0.7926
  262MOL0     C35264   0.377   1.372  12.316  0.3341  0.1501 -0.6854
  262MOL0     O35265   0.463   1.265  12.312 -0.3450  0.8448 -0.5296
  262MOL0     C35266   0.509   1.194  12.423 -0.5065 -1.1601  0.6370
  262MOL0     C35267   0.604   1.236  12.519 -0.0096 -0.0712  0.4050
  262MOL0     C35268   0.649   1.143  12.611  0.2832 -0.2553  0.5149
  262MOL0     C35269   0.595   1.002  12.616 -0.1209 -0.0498  0.2841
  262MOL0     O35270   0.616   0.926  12.722 -0.4247 -0.3854 -0.1363
  262MOL0     C35271   0.752   0.883  12.736 -0.0797  0.2560 -1.4009
  262MOL0     C35272   0.793   0.765  12.647  0.8707  0.7381  0.0469
  262MOL0     C35273   0.946   0.741  12.637  0.4195  0.0544 -0.4574
  262MOL0     C35274   0.973   0.658  12.511 -0.6334  0.0791  0.7722
  262MOL0     C35275   1.096   0.576  12.519  0.5756  0.1978 -0.1693
  262MOL0     C35276   1.116   0.516  12.377 -0.2869 -0.4661 -0.3703
  262MOL0     C35277   1.251   0.454  12.355  0.4689 -0.7324 -1.1455
  262MOL0     C35278   1.359   0.561  12.330  0.5189  0.5497 -0.5930
  262MOL0    Cl35279   1.501   0.468  12.359 -0.3319  0.7593  0.6351
  262MOL0     C35280   0.505   0.968  12.514  0.0881 -0.0592  0.1927
  262MOL0     C35281   0.471   1.057  12.411 -0.4467 -0.1140 -1.1389
  262MOL0     O35282   0.329   1.413  12.418  0.7113  0.0364 -0.6981
  262MOL0     C35283   0.444   1.443  12.088 -0.1465 -0.6606 -0.2778
  262MOL0     C35284   0.415   1.510  11.970  0.5880 -0.2770 -0.0624
  262MOL0     N35285   0.557   1.989  11.588  0.3933 -0.0245  0.2177
  262MOL0     N35286   0.622   1.982  11.476  0.2705  0.1842  0.6060
  262MOL0     C35287   0.371   2.541  10.498  0.9608  0.0911 -0.0713
  262MOL0     C35288   0.485   2.546  10.411 -0.0351 -0.2776  0.6248
  262MOL0     C35289   0.748   2.716  10.076 -0.6894 -0.5767  0.0661
  262MOL0     C35290   0.747   2.627   9.972  0.4141  0.2242 -1.1410
  262MOL0     C35291   0.860   2.613   9.892 -0.1902 -0.8120 -0.0373
  262MOL0     C35292   0.981   2.689   9.908  0.5771  0.0397 -1.4081
  262MOL0     O35293   1.095   2.674   9.831 -0.6025  0.1059  0.5207
  262MOL0     C35294   1.114   2.542   9.777 -0.4553 -0.0931 -0.6973
  262MOL0     C35295   1.264   2.495   9.748  1.0158  0.6106  0.3675
  262MOL0     C35296   1.323   2.579   9.630 -0.1883 -0.1691  0.0744
  262MOL0     C35297   1.463   2.523   9.591 -0.2468 -0.7072  0.3511
  262MOL0     C35298   1.528   2.616   9.494 -0.4684 -0.0587 -0.3909
  262MOL0     C35299   1.598   2.697   9.435  0.2646  0.5204  0.5360
  262MOL0     C35300   0.974   2.778  10.018 -0.6932  0.4284 -1.0720
  262MOL0     C35301   0.861   2.799  10.092 -1.0034  0.6259 -0.5052
  262MOL0     C35302   0.865   2.920  10.185 -0.2903  0.5370  0.0515
  262MOL0     H35303   0.508   2.890  10.394 -2.1540 -0.6621 -2.5644
  262MOL0     H35304   0.347   2.873  10.571  2.1651  1.0299  0.6451
  262MOL0     H35305   0.176   2.578  10.832  0.2222 -3.0739  0.8405
  262MOL0     H35306   0.264   2.467  10.734  3.1179 -0.3241 -1.1148
  262MOL0     H35307   0.395   2.718  10.871  0.8641  0.2688  1.0347
  262MOL0     H35308   0.471   2.572  10.797 -1.6578 -0.1528 -3.0588
  262MOL0     H35309   0.281   2.544  11.032  0.7373 -1.4053  1.2974
  262MOL0     H35310   0.464   2.560  11.034 -0.4294 -1.1720 -1.2790
  262MOL0     H35311   0.308   2.333  10.924  0.6701  0.3835 -3.3272
  262MOL0     H35312   0.485   2.350  10.900 -1.8698 -1.7798 -2.5877
  262MOL0     H35313   0.506   2.364  11.138 -0.9246  0.9572  0.3088
  262MOL0     H35314   0.328   2.324  11.157 -0.8585 -3.9846  0.2965
  262MOL0     H35315   0.382   2.094  11.062  1.0092  1.1833 -3.4694
  262MOL0     H35316   0.538   2.149  11.013 -0.7473 -1.3090 -0.9040
  262MOL0     H35317   0.465   2.145  11.306 -0.6253 -1.0701  0.8209
  262MOL0     H35318   0.623   2.181  11.236  0.7924 -2.8161  3.0752
  262MOL0     H35319   0.482   1.911  11.181  2.0485 -2.2614 -0.5828
  262MOL0     H35320   0.657   1.952  11.201 -1.0721 -0.1283 -0.2805
  262MOL0     H35321   0.321   1.886  11.383 -0.8019 -2.4276  1.5813
  262MOL0     H35322   0.398   1.857  11.752  4.5944  0.3379 -2.0178
  262MOL0     H35323   0.322   2.015  11.725  1.3965  0.8175 -1.1730
  262MOL0     H35324   0.131   1.846  11.714 -2.1345 -1.8286 -1.6666
  262MOL0     H35325   0.168   1.893  11.549 -1.2668 -0.2909  0.9238
  262MOL0     H35326   0.274   1.682  11.505  0.4682  3.9365  0.0515
  262MOL0     H35327   0.122   1.652  11.600  0.2148 -1.8579 -0.0627
  262MOL0     H35328   0.399   1.627  11.716  0.9965 -1.9725 -1.9491
  262MOL0     H35329   0.292   1.499  11.682 -4.5249  0.1624 -0.7712
  262MOL0     H35330   0.101   1.631  12.046  1.2930  3.5110 -1.7689
  262MOL0     H35331   0.150   1.500  12.248  0.8305  1.3039  0.8963
  262MOL0     H35332   0.653   1.332  12.508 -0.7311  0.0019 -3.4096
  262MOL0     H35333   0.713   1.179  12.691 -0.5240 -0.1410  1.1191
  262MOL0     H35334   0.822   0.963  12.708 -1.1492  0.2222 -4.5582
  262MOL0     H35335   0.765   0.856  12.841 -0.8463  0.4236 -1.2605
  262MOL0     H35336   0.762   0.677  12.703  2.8188  0.3292  0.5551
  262MOL0     H35337   0.749   0.775  12.547  2.4171  0.1892 -0.7322
  262MOL0     H35338   1.002   0.835  12.637 -2.9694  2.3038 -2.6225
  262MOL0     H35339   0.981   0.675  12.717 -2.3328 -2.7353 -1.3630
  262MOL0     H35340   0.993   0.735  12.436 -0.1575  0.8144  1.6273
  262MOL0     H35341   0.888   0.594  12.485  0.0527 -0.8504  0.8020
  262MOL0     H35342   1.077   0.498  12.593 -0.1171 -0.7714 -1.3322
  262MOL0     H35343   1.186   0.635  12.542  3.4309 -3.3443 -1.2033
  262MOL0     H35344   1.044   0.441  12.345  1.2081 -0.4745 -4.3027
  262MOL0     H35345   1.094   0.605  12.317 -0.7617  3.5989  5.0119
  262MOL0     H35346   1.249   0.391  12.265 -0.3764 -0.9529 -0.9751
  262MOL0     H35347   1.280   0.392  12.440 -1.3455  0.1810  0.1963
  262MOL0     H35348   1.357   0.595  12.226  4.9880 -3.6365 -2.4198
  262MOL0     H35349   1.359   0.643  12.402  3.3280  1.0509 -1.0424
  262MOL0     H35350   0.482   0.864  12.498  3.7752 -0.6154 -3.0885
  262MOL0     H35351   0.409   1.023  12.329 -0.2368  2.0300 -2.2745
  262MOL0     H35352   0.546   1.408  12.104  0.6558  1.8788  0.7051
  262MOL0     H35353   0.490   1.517  11.892  1.6581 -0.0508  0.9714
  262MOL0     H35354   0.313   2.454  10.525  1.5599 -0.0852  0.6789
  262MOL0     H35355   0.514   2.454  10.363 -1.1864 -0.2774 -0.1151
  262MOL0     H35356   0.654   2.580   9.942 -1.3234  3.7059 -1.8543
  262MOL0     H35357   0.852   2.543   9.810  3.2434 -0.0869 -1.1792
  262MOL0     H35358   1.067   2.531   9.678  2.4817 -2.9202 -1.9453
  262MOL0     H35359   1.081   2.466   9.848  0.4008 -1.7750 -2.0445
  262MOL0     H35360   1.275   2.390   9.721 -0.7528  1.0570 -2.4326
  262MOL0     H35361   1.338   2.513   9.827  1.6470  0.9772 -0.3001
  262MOL0     H35362   1.334   2.675   9.681 -0.5552  0.0697 -0.2898
  262MOL0     H35363   1.247   2.576   9.551  0.4365 -2.7546 -0.5139
  262MOL0     H35364   1.528   2.525   9.678 -0.3327 -0.8975  0.4205
  262MOL0     H35365   1.466   2.417   9.564  0.1705 -0.1883 -1.8459
  262MOL0     H35366   1.648   2.759   9.363 -0.7224  2.0219  1.0998
  262MOL0     H35367   1.061   2.841  10.030  1.6291 -2.0322 -3.6363
  262MOL0     H35368   0.842   2.888  10.287  0.3117 -1.1026 -0.2962
  262MOL0     H35369   0.968   2.957  10.181 -0.1743  0.1104 -2.2923
  262MOL0     H35370   0.802   3.004  10.156 -1.4808 -1.1518 -2.6494
  263MOL0     O35371   2.322   9.675   9.653 -0.1854 -0.6656  0.1429
  263MOL0     C35372   2.331   9.799   9.662  0.4082  0.0541 -0.2711
  263MOL0     O35373   2.244   9.880   9.726  0.3980 -0.4773  0.3915
  263MOL0     C35374   2.136   9.815   9.777  0.0996  0.1998 -1.2518
  263MOL0     C35375   2.012   9.825   9.710  0.4042 -0.3924  0.4967
  263MOL0     C35376   1.905   9.742   9.741 -0.2014 -0.0943 -0.3215
  263MOL0     C35377   1.918   9.650   9.847 -0.2783  0.4304 -0.1375
  263MOL0     O35378   1.815   9.567   9.869 -0.2498 -0.1078  0.4757
  263MOL0     C35379   1.820   9.441   9.800  0.2611 -0.3799  0.0938
  263MOL0     C35380   1.699   9.427   9.701 -0.9162 -0.0294 -0.9388
  263MOL0     C35381   1.699   9.289   9.635 -0.3490 -0.1767  0.7766
  263MOL0     C35382   1.787   9.281   9.515 -0.3811  0.3087  0.0603
  263MOL0     C35383   1.807   9.141   9.448 -0.5451 -0.0403  0.1828
  263MOL0     C35384   1.931   9.137   9.362 -0.6273  0.2170  0.3990
  263MOL0     C35385   1.923   9.226   9.239  0.1134  0.0736  1.4416
  263MOL0     C35386   1.789   9.208   9.151  0.4717  0.2933 -0.8945
  263MOL0     N35387   1.822   9.196   9.005 -0.7838  0.1231 -0.5732
  263MOL0     C35388   1.806   9.303   8.911  0.2134  0.0997 -0.8079
  263MOL0     C35389   1.884   9.263   8.806 -0.4495  0.1282 -0.2502
  263MOL0     C35390   1.929   9.356   8.696  0.0865 -0.7237  0.3627
  263MOL0     C35391   1.816   9.378   8.591 -0.4216  0.4685 -0.6419
  263MOL0     C35392   1.870   9.453   8.472  0.1020  0.7094 -0.2880
  263MOL0     C35393   1.773   9.496   8.368  0.2347 -1.3360 -0.6356
  263MOL0     O35394   1.834   9.584   8.274 -0.2212 -0.4861  0.8357
  263MOL0     C35395   1.908   9.535   8.166 -0.1679  0.2438 -1.2616
  263MOL0     C35396   2.012   9.618   8.113  1.2873 -0.4161  0.8134
  263MOL0     C35397   2.098   9.575   8.005 -0.4530 -0.9307 -0.1145
  263MOL0     C35398   2.090   9.437   7.963  0.0557 -0.2581 -0.5052
  263MOL0     C35399   2.192   9.383   7.870  0.5038  0.5505  0.4235
  263MOL0     O35400   2.182   9.245   7.869 -0.1093  0.2947 -0.0359
  263MOL0     C35401   2.267   9.171   7.791 -0.3808  0.1993  0.2198
  263MOL0     C35402   2.410   9.181   7.786 -0.1760 -0.2913 -0.2526
  263MOL0     C35403   2.481   9.099   7.692 -0.1110  0.2144  0.2939
  263MOL0     C35404   2.411   8.998   7.615 -0.8317  0.5364 -0.3628
  263MOL0     O35405   2.483   8.931   7.530  0.2190  0.1714 -0.1825
  263MOL0     C35406   2.430   8.863   7.420  0.6847 -0.3191  0.2970
  263MOL0     C35407   2.539   8.803   7.337  0.5368 -0.2925 -0.2765
  263MOL0     C35408   2.489   8.756   7.199  0.5442 -0.4842 -0.7103
  263MOL0     C35409   2.620   8.721   7.118  0.2272 -0.6766 -0.0476
  263MOL0     C35410   2.612   8.647   6.983  0.6917 -0.4835  0.5700
  263MOL0     C35411   2.483   8.690   6.901 -0.0095  0.8139 -0.0060
  263MOL0     C35412   2.486   8.834   6.848  0.3416  0.1268 -0.2106
  263MOL0     C35413   2.360   8.866   6.757  0.2269  0.9639 -0.1672
  263MOL0    Cl35414   2.360   9.034   6.715 -0.1584  0.3622  0.1235
  263MOL0     C35415   2.273   8.990   7.634 -0.2592 -0.3877  0.2094
  263MOL0     C35416   2.205   9.074   7.717 -0.7194  0.3902 -0.6386
  263MOL0     O35417   2.249   9.448   7.785 -0.1842 -0.6482  0.1728
  263MOL0     C35418   1.990   9.359   8.027  0.2588 -0.2873  0.0879
  263MOL0     C35419   1.899   9.409   8.119 -0.1084 -0.5798 -0.1263
  263MOL0     N35420   1.924   9.128   8.834  0.3855 -0.8727  0.3255
  263MOL0     N35421   1.884   9.088   8.950  0.1824 -0.5399  0.3112
  263MOL0     C35422   2.038   9.646   9.926  0.4326  1.0587 -0.2206
  263MOL0     C35423   2.144   9.725   9.883 -0.1129  0.8063 -0.6053
  263MOL0     C35424   2.446   9.846   9.595  0.0263 -0.5518 -0.2810
  263MOL0     C35425   2.486   9.805   9.459 -0.6078 -0.6020  0.1836
  263MOL0     C35426   2.609   9.848   9.408  0.1940  0.1242  0.3662
  263MOL0     C35427   2.702   9.920   9.481 -0.7337 -1.1484  0.3441
  263MOL0     O35428   2.825   9.954   9.429 -0.0678 -0.2324 -0.6021
  263MOL0     C35429   2.870  10.093   9.448  0.2032 -0.5129  0.2913
  263MOL0     C35430   2.806  10.190   9.353  0.1256 -0.4318  0.2366
  263MOL0     C35431   2.840  10.167   9.199 -0.6185  0.6715  0.2343
  263MOL0     C35432   2.738  10.250   9.118  0.5786 -0.6268 -0.3797
  263MOL0     C35433   2.596  10.203   9.134 -0.4492 -0.7836  0.7491
  263MOL0     C35434   2.489  10.162   9.153 -0.5062 -0.3539  0.0404
  263MOL0     C35435   2.670   9.946   9.610  0.3140 -0.1436 -0.1357
  263MOL0     C35436   2.548   9.907   9.666  0.5922 -0.3961 -0.4000
  263MOL0     C35437   2.538   9.932   9.813 -0.0537 -0.3933  0.5633
  263MOL0     H35438   1.982   9.897   9.635 -0.2364 -0.3396  0.8025
  263MOL0     H35439   1.809   9.751   9.689  1.2340  1.9660 -2.8639
  263MOL0     H35440   1.919   9.433   9.755  1.6396  1.0784  2.6457
  263MOL0     H35441   1.805   9.362   9.874  0.6266 -1.9753 -1.4654
  263MOL0     H35442   1.698   9.515   9.636 -0.7250  3.3426  3.1735
  263MOL0     H35443   1.608   9.436   9.761 -0.5694 -3.2739  0.2626
  263MOL0     H35444   1.600   9.276   9.589  1.3990  0.3276 -3.5366
  263MOL0     H35445   1.715   9.210   9.709  2.0873 -1.0950 -0.6131
  263MOL0     H35446   1.751   9.350   9.439 -3.0133 -3.3225 -2.3330
  263MOL0     H35447   1.891   9.311   9.534  0.2140  0.1258 -2.4870
  263MOL0     H35448   1.823   9.067   9.527  2.4087 -0.0896 -0.3662
  263MOL0     H35449   1.711   9.119   9.400  0.9721  0.9110 -3.6663
  263MOL0     H35450   2.027   9.158   9.410 -0.2151  2.2515 -1.2117
  263MOL0     H35451   1.927   9.032   9.331 -0.6732  0.0005  1.1214
  263MOL0     H35452   2.017   9.204   9.187 -0.4477 -0.0957  0.4752
  263MOL0     H35453   1.922   9.330   9.271 -5.5850  1.0306 -0.7397
  263MOL0     H35454   1.750   9.112   9.185  4.9615 -0.6672  2.5718
  263MOL0     H35455   1.713   9.283   9.176 -0.4207 -0.9864  0.4067
  263MOL0     H35456   1.765   9.403   8.923 -1.7867 -0.6572 -0.8408
  263MOL0     H35457   1.958   9.453   8.738 -0.6232  0.3993 -1.6139
  263MOL0     H35458   2.012   9.320   8.634  1.0543  2.4617 -0.4138
  263MOL0     H35459   1.779   9.280   8.560 -0.2765  0.1939  0.0508
  263MOL0     H35460   1.735   9.440   8.630 -1.4486 -2.0305  1.4892
  263MOL0     H35461   1.950   9.398   8.423  1.0835  1.1231  0.8153
  263MOL0     H35462   1.911   9.544   8.517  2.6641  0.6481 -2.3378
  263MOL0     H35463   1.692   9.553   8.415  2.7673  1.0423  1.1811
  263MOL0     H35464   1.730   9.406   8.323 -4.9421  0.0585  0.8242
  263MOL0     H35465   2.016   9.719   8.153  2.4860 -0.9204  2.0375
  263MOL0     H35466   2.173   9.642   7.963 -0.7328  0.9748  2.1535
  263MOL0     H35467   2.462   9.258   7.843  0.1881 -1.6464  1.3047
  263MOL0     H35468   2.587   9.106   7.669 -0.7484  0.2278 -3.1162
  263MOL0     H35469   2.346   8.797   7.443 -2.0306  2.0306 -2.0462
  263MOL0     H35470   2.370   8.937   7.367 -1.4177 -0.3642  2.4271
  263MOL0     H35471   2.624   8.871   7.325  1.0156 -0.8070  0.1317
  263MOL0     H35472   2.572   8.721   7.401 -0.1668  0.6281  1.3295
  263MOL0     H35473   2.422   8.674   7.227  3.5560 -2.8225  0.1719
  263MOL0     H35474   2.435   8.840   7.154 -0.9793 -1.8806 -1.5820
  263MOL0     H35475   2.689   8.666   7.183  1.8932 -1.1059 -2.0865
  263MOL0     H35476   2.671   8.815   7.097  2.9660 -1.6557  1.7296
  263MOL0     H35477   2.613   8.538   6.992  0.7056 -0.3398  3.0600
  263MOL0     H35478   2.701   8.681   6.929  0.5046  1.3262  1.3216
  263MOL0     H35479   2.478   8.623   6.815  0.9570  1.3812 -0.5195
  263MOL0     H35480   2.388   8.683   6.955  0.0864  3.5359  0.6439
  263MOL0     H35481   2.578   8.860   6.795  0.4998  1.9748  0.8824
  263MOL0     H35482   2.481   8.913   6.924  4.1471  0.7377 -0.4053
  263MOL0     H35483   2.362   8.804   6.667  0.1078  0.1718  0.3619
  263MOL0     H35484   2.269   8.844   6.813  1.8663  1.5890  2.9881
  263MOL0     H35485   2.226   8.905   7.585 -0.3904 -1.1432  1.5867
  263MOL0     H35486   2.096   9.080   7.716 -0.6491  1.7434 -1.5284
  263MOL0     H35487   1.981   9.256   7.997 -0.9159 -0.4333  0.8794
  263MOL0     H35488   1.825   9.342   8.162  0.6386 -0.8210  0.8117
  263MOL0     H35489   2.052   9.574  10.007  1.5147 -0.3373 -1.5746
  263MOL0     H35490   2.247   9.721   9.917 -0.4858 -1.4566  0.4588
  263MOL0     H35491   2.421   9.731   9.413 -0.2051 -0.7399 -0.1653
  263MOL0     H35492   2.637   9.808   9.311 -1.6754  0.5559 -0.3994
  263MOL0     H35493   2.975  10.088   9.419  0.0281 -1.3431 -0.2181
  263MOL0     H35494   2.844  10.127   9.549 -5.7558 -4.0117  0.4517
  263MOL0     H35495   2.860  10.282   9.380 -0.1212  0.4662 -2.0571
  263MOL0     H35496   2.702  10.203   9.384  0.7923  3.3499  1.4311
  263MOL0     H35497   2.832  10.061   9.174 -3.4545  1.3941 -2.6089
  263MOL0     H35498   2.946  10.187   9.178  0.1807 -2.2045  1.0830
  263MOL0     H35499   2.741  10.355   9.150 -1.5174 -0.9830  1.1953
  263MOL0     H35500   2.747  10.246   9.009 -1.0364 -1.2439 -0.5262
  263MOL0     H35501   2.402  10.122   9.202 -0.9194 -1.1697 -1.2868
  263MOL0     H35502   2.746  10.006   9.658  0.8123  0.0207 -1.1016
  263MOL0     H35503   2.615  10.005   9.840 -1.4040  1.1152  0.4857
  263MOL0     H35504   2.442   9.972   9.846  0.7546  3.0342 -0.7474
  263MOL0     H35505   2.555   9.839   9.868  1.1631  0.2791  1.3848
  264MOL0     O35506   1.067  11.087   2.340  0.2573 -0.1115 -0.1526
  264MOL0     C35507   0.969  11.003   2.328 -0.2027  0.0475 -0.0604
  264MOL0     O35508   0.947  10.901   2.409  0.4509  0.3067 -0.4341
  264MOL0     C35509   1.053  10.858   2.491 -0.3225 -1.2576  0.1761
  264MOL0     C35510   1.191  10.857   2.461  0.0528 -0.7667  0.2563
  264MOL0     C35511   1.288  10.822   2.555  0.0380 -0.0277 -0.0076
  264MOL0     C35512   1.248  10.797   2.685 -0.3591  0.6767 -0.2509
  264MOL0     O35513   1.346  10.784   2.786  0.1609 -0.5142 -0.4385
  264MOL0     C35514   1.311  10.722   2.914 -0.3922 -0.1828 -0.0433
  264MOL0     C35515   1.428  10.671   2.990  0.5143 -0.0142 -0.2491
  264MOL0     C35516   1.475  10.545   2.908  0.2301 -1.2169  0.0232
  264MOL0     C35517   1.395  10.410   2.915  0.1121 -1.0242  0.6290
  264MOL0     C35518   1.456  10.317   3.025 -0.8759 -0.2453 -0.1883
  264MOL0     C35519   1.349  10.230   3.095 -0.2222 -0.1422  0.0503
  264MOL0     C35520   1.247  10.306   3.162  0.9354  0.4034 -0.6287
  264MOL0     C35521   1.154  10.217   3.243 -0.6520 -0.6609 -0.1735
  264MOL0     N35522   1.074  10.291   3.349  0.6726 -0.8470 -0.1407
  264MOL0     C35523   1.005  10.226   3.448  0.1258  0.3956 -0.5639
  264MOL0     C35524   0.973  10.321   3.535 -0.1249  0.6166  0.1994
  264MOL0     C35525   0.915  10.287   3.670 -0.3505 -0.5228 -0.4769
  264MOL0     C35526   1.022  10.252   3.779 -0.6901 -0.1580  0.3428
  264MOL0     C35527   1.090  10.124   3.737 -1.5049  0.9920 -0.5313
  264MOL0     C35528   1.181  10.080   3.845 -0.6500  0.6720 -0.2950
  264MOL0     O35529   1.268   9.967   3.799  0.0589  0.2560 -1.0881
  264MOL0     C35530   1.386   9.934   3.863 -0.0906  0.3382  1.2743
  264MOL0     C35531   1.469   9.844   3.794  0.3822  0.2818  0.7828
  264MOL0     C35532   1.592   9.805   3.846 -0.7860 -0.1029  0.8071
  264MOL0     C35533   1.629   9.841   3.976  0.9122 -0.6712 -0.2833
  264MOL0     C35534   1.752   9.790   4.038 -0.2205  0.5909  1.4190
  264MOL0     O35535   1.851   9.736   3.948 -0.3231 -0.2257 -0.4652
  264MOL0     C35536   1.945   9.636   3.997 -0.5639  0.0017 -0.9655
  264MOL0     C35537   2.059   9.612   3.920  0.2866 -0.6426 -0.6938
  264MOL0     C35538   2.147   9.514   3.965 -0.2965 -0.4463 -0.5361
  264MOL0     C35539   2.136   9.451   4.091  1.0393  0.2266 -1.0268
  264MOL0     O35540   2.235   9.354   4.119 -0.8179  0.3801 -0.2110
  264MOL0     C35541   2.218   9.241   4.218  0.5824  0.2152  0.1629
  264MOL0     C35542   2.290   9.288   4.344  1.0042 -1.2173  0.0471
  264MOL0     C35543   2.429   9.335   4.316  0.4877  0.0981 -0.2126
  264MOL0     C35544   2.525   9.321   4.439  0.3395  0.1760 -0.1964
  264MOL0     C35545   2.666   9.360   4.402  0.0944 -0.8847  0.1348
  264MOL0     C35546   2.782   9.318   4.497 -0.3022 -0.0996  0.0337
  264MOL0     C35547   2.908   9.395   4.474 -0.2354  0.9302 -0.4151
  264MOL0     C35548   2.963   9.381   4.334  0.3451 -0.5793 -1.2046
  264MOL0    Cl35549   2.981   9.203   4.288 -0.3574  0.2647  0.0452
  264MOL0     C35550   2.024   9.482   4.167 -0.2686  0.6454  0.4952
  264MOL0     C35551   1.929   9.564   4.114 -0.0318 -0.5224 -0.4335
  264MOL0     O35552   1.756   9.797   4.156 -0.4788  0.1589 -0.2224
  264MOL0     C35553   1.552   9.940   4.046 -0.4401 -0.1627 -0.4976
  264MOL0     C35554   1.431   9.980   3.985 -0.2898 -0.5241 -0.7080
  264MOL0     N35555   1.008  10.443   3.486 -0.5162 -0.1542 -0.0092
  264MOL0     N35556   1.072  10.427   3.373 -0.3129  0.6292  0.6778
  264MOL0     C35557   1.117  10.819   2.718 -0.6559 -0.8572 -0.6052
  264MOL0     C35558   1.017  10.837   2.621 -0.4955  0.2728  0.6892
  264MOL0     C35559   0.861  11.030   2.232 -0.0189  1.5763 -0.0443
  264MOL0     C35560   0.743  10.950   2.248  0.2741 -0.1450  0.3062
  264MOL0     C35561   0.644  10.949   2.151 -0.4864  0.2048 -0.1711
  264MOL0     C35562   0.645  11.042   2.052  0.0182 -0.4643  0.2815
  264MOL0     O35563   0.527  11.043   1.979  0.1918  0.3405  0.6174
  264MOL0     C35564   0.488  11.150   1.894  0.0408  0.8128  0.3033
  264MOL0     C35565   0.331  11.133   1.859 -0.2059 -0.5183  0.6175
  264MOL0     C35566   0.310  11.015   1.766 -0.2654 -0.1304 -0.7841
  264MOL0     C35567   0.157  10.984   1.755 -0.6901  1.2566  0.1302
  264MOL0     C35568   0.152  10.872   1.657  0.8801 -0.3752  0.5171
  264MOL0     C35569   0.142  10.776   1.573 -0.8305  0.4267 -0.8465
  264MOL0     C35570   0.753  11.126   2.037 -0.3350 -0.3829  0.8811
  264MOL0     C35571   0.864  11.123   2.124 -0.0724  0.2633 -0.4289
  264MOL0     C35572   0.986  11.211   2.090 -0.0951  0.2054  0.1874
  264MOL0     H35573   1.219  10.874   2.357  1.0849  2.1351  0.9248
  264MOL0     H35574   1.391  10.801   2.528 -0.9424 -1.9931 -2.6470
  264MOL0     H35575   1.259  10.800   2.971 -1.3829 -0.2502 -0.8122
  264MOL0     H35576   1.241  10.639   2.907 -0.6590  0.0170  0.2121
  264MOL0     H35577   1.390  10.642   3.088  2.6058  1.0453  0.9339
  264MOL0     H35578   1.504  10.749   2.994  0.9507 -0.4787  0.9024
  264MOL0     H35579   1.576  10.514   2.937 -0.3784 -4.5961 -1.1013
  264MOL0     H35580   1.477  10.574   2.803  0.3260  2.9992  1.0228
  264MOL0     H35581   1.288  10.428   2.926  0.4838  0.1052  2.9040
  264MOL0     H35582   1.417  10.369   2.816  2.7195  2.4028 -0.4084
  264MOL0     H35583   1.530  10.252   2.978  1.4360  1.0316  1.4888
  264MOL0     H35584   1.508  10.371   3.104  0.2885  2.5336 -2.6784
  264MOL0     H35585   1.307  10.160   3.022 -0.9634 -1.9440  2.1243
  264MOL0     H35586   1.406  10.172   3.168  0.6170  2.3360  1.4729
  264MOL0     H35587   1.186  10.368   3.095 -2.0420  1.1842  2.5290
  264MOL0     H35588   1.290  10.383   3.227 -1.2808 -0.1536  1.6443
  264MOL0     H35589   1.084  10.153   3.188 -1.4084 -2.7417  2.9817
  264MOL0     H35590   1.214  10.144   3.296 -1.6456 -0.7732  0.8394
  264MOL0     H35591   0.977  10.122   3.461 -0.7259  0.7828  0.9937
  264MOL0     H35592   0.850  10.373   3.691  1.1725  0.3117  1.1258
  264MOL0     H35593   0.851  10.199   3.654 -3.6466  1.6808 -0.4303
  264MOL0     H35594   1.107  10.319   3.764 -1.1968 -0.0450 -2.5838
  264MOL0     H35595   0.983  10.245   3.881 -0.8136 -0.7942  0.2555
  264MOL0     H35596   1.160  10.140   3.654 -1.7663  4.2896 -0.2732
  264MOL0     H35597   1.021  10.044   3.707 -2.0246  2.1592 -2.7148
  264MOL0     H35598   1.115  10.056   3.929  0.3127 -0.0644  0.2687
  264MOL0     H35599   1.237  10.170   3.872  0.1526 -0.2707  1.3250
  264MOL0     H35600   1.440   9.789   3.705 -0.4720  1.1498  0.5139
  264MOL0     H35601   1.666   9.744   3.795 -1.6056 -0.6980  0.3130
  264MOL0     H35602   2.076   9.670   3.830 -0.9618 -0.4869 -0.8607
  264MOL0     H35603   2.232   9.496   3.900  1.7492  0.1498  1.8202
  264MOL0     H35604   2.118   9.205   4.246  0.9026 -0.5800  0.2981
  264MOL0     H35605   2.260   9.149   4.178 -0.9636 -0.6660  0.4747
  264MOL0     H35606   2.241   9.379   4.381  3.0344 -0.4363  0.9831
  264MOL0     H35607   2.292   9.206   4.415  0.8385 -1.7416 -0.5481
  264MOL0     H35608   2.475   9.277   4.235  2.3335  1.7618 -0.4436
  264MOL0     H35609   2.424   9.440   4.286 -1.6752 -1.0676 -5.0212
  264MOL0     H35610   2.529   9.219   4.479 -0.8291  0.1540 -0.1269
  264MOL0     H35611   2.498   9.387   4.521  1.7303  1.5143 -0.7538
  264MOL0     H35612   2.678   9.469   4.399  0.0908 -0.8927 -0.1536
  264MOL0     H35613   2.685   9.311   4.306 -2.7526 -3.8781  0.9298
  264MOL0     H35614   2.761   9.339   4.602 -0.5660  0.9614 -0.2215
  264MOL0     H35615   2.809   9.212   4.488  0.9926  0.2215 -0.1662
  264MOL0     H35616   2.990   9.364   4.539  1.8805  3.1998 -1.8083
  264MOL0     H35617   2.890   9.498   4.506 -0.7173  1.1368 -1.3180
  264MOL0     H35618   2.896   9.437   4.268 -0.9388 -0.1188  0.4267
  264MOL0     H35619   3.062   9.428   4.332  0.2116  0.3194  3.1463
  264MOL0     H35620   2.003   9.436   4.263  1.2603  1.9387  1.5100
  264MOL0     H35621   1.843   9.580   4.178 -0.4974  2.1479 -1.5608
  264MOL0     H35622   1.592   9.978   4.139 -0.5640 -4.3961  1.5036
  264MOL0     H35623   1.367  10.049   4.039  0.7489 -0.6227  0.7094
  264MOL0     H35624   1.083  10.807   2.820  0.7753 -2.3288 -0.2578
  264MOL0     H35625   0.913  10.851   2.645 -1.0056 -2.0087  0.0530
  264MOL0     H35626   0.725  10.875   2.324 -3.2741  0.7935  0.5746
  264MOL0     H35627   0.566  10.878   2.175  0.4034 -0.2699  1.5141
  264MOL0     H35628   0.550  11.140   1.805  1.6065 -0.5370  1.4891
  264MOL0     H35629   0.508  11.241   1.951 -0.0742 -1.8241  5.0658
  264MOL0     H35630   0.306  11.228   1.810  0.8655 -1.0135 -0.9648
  264MOL0     H35631   0.265  11.115   1.944 -2.1581 -1.6750 -1.0759
  264MOL0     H35632   0.361  10.923   1.795 -1.4015  0.0591  2.2485
  264MOL0     H35633   0.335  11.043   1.664 -0.2890 -1.5037 -1.1977
  264MOL0     H35634   0.119  10.956   1.854  1.3262  2.7997  1.4420
  264MOL0     H35635   0.088  11.063   1.726 -2.6570 -0.5939 -0.4586
  264MOL0     H35636   0.134  10.683   1.519  3.4289 -0.8530  0.3414
  264MOL0     H35637   0.770  11.197   1.957 -0.3075 -0.4147  0.8590
  264MOL0     H35638   1.066  11.143   2.061  0.8895  1.2742  0.3147
  264MOL0     H35639   0.982  11.283   2.007  0.1707  0.7455  0.6351
  264MOL0     H35640   1.015  11.268   2.179 -0.9503 -3.1261  2.7876
  265MOL0     O35641   5.078   9.980   5.553  0.6430  0.2534 -0.3069
  265MOL0     C35642   5.196  10.005   5.571  0.0566 -0.1123 -0.3679
  265MOL0     O35643   5.249  10.128   5.601  0.5623  0.0805  0.0235
  265MOL0     C35644   5.178  10.244   5.603 -0.3954  1.1717  0.0524
  265MOL0     C35645   5.102  10.295   5.502  0.3887 -0.3188 -0.3798
  265MOL0     C35646   5.021  10.404   5.531  0.1551  0.1096 -0.9938
  265MOL0     C35647   5.013  10.458   5.655  0.1434  1.0790 -0.8508
  265MOL0     O35648   4.920  10.555   5.681 -0.0719  0.1117  0.1339
  265MOL0     C35649   4.781  10.513   5.664  0.3780 -0.4094  0.3119
  265MOL0     C35650   4.705  10.650   5.658  0.0696 -0.1611  0.6913
  265MOL0     C35651   4.781  10.767   5.576  0.5000  0.6798 -0.3730
  265MOL0     C35652   4.760  10.746   5.429 -0.1627  0.6571 -0.2892
  265MOL0     C35653   4.776  10.882   5.352 -0.3974  1.0787  0.4080
  265MOL0     C35654   4.916  10.924   5.322 -0.1858 -0.6430 -0.6330
  265MOL0     C35655   4.928  11.068   5.312  0.5375 -0.3609  0.2258
  265MOL0     C35656   5.071  11.121   5.287 -0.8699  0.8997  0.3151
  265MOL0     N35657   5.126  11.069   5.160 -0.1856  0.0798 -0.6306
  265MOL0     C35658   5.070  11.082   5.035  0.1993  0.1038 -0.2796
  265MOL0     C35659   5.142  10.997   4.954 -0.5785 -0.7643 -0.3680
  265MOL0     C35660   5.115  10.984   4.805 -1.3227  0.7354 -0.4994
  265MOL0     C35661   5.077  10.847   4.771 -1.4365  0.2410 -0.4712
  265MOL0     C35662   5.014  10.828   4.638 -0.3503 -0.4174  0.2189
  265MOL0     C35663   5.090  10.869   4.519  0.1292  0.7488  0.3305
  265MOL0     O35664   5.198  10.775   4.494 -0.9466 -1.0014 -0.8219
  265MOL0     C35665   5.317  10.845   4.471  0.2661  0.5911 -0.6429
  265MOL0     C35666   5.361  10.873   4.346  1.4819  0.7069 -0.6736
  265MOL0     C35667   5.476  10.942   4.322  0.5765  0.6732 -0.6310
  265MOL0     C35668   5.568  10.971   4.420 -0.3854  0.3591  1.1632
  265MOL0     C35669   5.703  11.023   4.385  0.1312  0.2410  0.2925
  265MOL0     O35670   5.788  11.054   4.488 -0.3377  0.0092 -0.0050
  265MOL0     C35671   5.924  11.059   4.481  0.5173 -0.2236 -0.2925
  265MOL0     C35672   6.005  10.983   4.390 -0.8101 -0.0717  0.3327
  265MOL0     C35673   6.144  10.971   4.404 -0.6529  0.5279  0.0499
  265MOL0     C35674   6.209  11.039   4.506  0.3133 -0.5338  0.0237
  265MOL0     O35675   6.345  11.012   4.504 -0.0323  0.1862 -1.1874
  265MOL0     C35676   6.413  11.066   4.613  0.0796 -0.5539 -0.0717
  265MOL0     C35677   6.540  10.987   4.626 -0.2587 -0.2436 -0.1343
  265MOL0     C35678   6.641  11.030   4.739 -0.7563 -0.0799 -0.4238
  265MOL0     C35679   6.662  11.176   4.745 -0.0400  0.4991  0.6413
  265MOL0     C35680   6.746  11.243   4.857 -0.0859 -0.1045  0.3862
  265MOL0     C35681   6.896  11.200   4.841  0.0366  0.3514 -0.1393
  265MOL0     C35682   6.991  11.267   4.941 -0.1655 -0.2151 -0.6475
  265MOL0     C35683   7.119  11.200   4.948 -0.2902  0.4345  0.5676
  265MOL0    Cl35684   7.106  11.018   4.997  0.0814 -0.1335  0.5368
  265MOL0     C35685   6.135  11.111   4.598  1.4244 -0.0539 -0.2424
  265MOL0     C35686   5.991  11.121   4.586 -0.6705  1.6829 -0.4753
  265MOL0     O35687   5.734  11.019   4.273 -0.8792  0.5384 -0.4476
  265MOL0     C35688   5.525  10.931   4.552 -0.2313  0.3074  0.3678
  265MOL0     C35689   5.404  10.861   4.578 -0.4296  0.0568 -0.2411
  265MOL0     N35690   5.240  10.938   5.032  0.7996 -0.0208 -0.0448
  265MOL0     N35691   5.235  10.987   5.153  0.8773  1.1718  0.7762
  265MOL0     C35692   5.110  10.422   5.754  0.0453 -0.8665 -0.4584
  265MOL0     C35693   5.190  10.312   5.726 -0.2783 -0.0816 -0.3989
  265MOL0     C35694   5.293   9.895   5.573  0.8541 -0.0217 -0.1138
  265MOL0     C35695   5.404   9.902   5.655 -0.2313 -0.0025 -0.2394
  265MOL0     C35696   5.497   9.793   5.651 -1.4174  1.4762  0.1040
  265MOL0     C35697   5.468   9.674   5.577 -1.0507 -0.9401 -0.3528
  265MOL0     O35698   5.546   9.571   5.609 -0.3987  1.0185 -0.1509
  265MOL0     C35699   5.503   9.436   5.590 -0.3007 -0.0442 -0.6684
  265MOL0     C35700   5.620   9.343   5.549  0.2341 -1.1283 -0.1076
  265MOL0     C35701   5.630   9.324   5.399 -0.7323  0.6723 -0.0160
  265MOL0     C35702   5.754   9.245   5.350 -0.4404 -0.1478  1.3333
  265MOL0     C35703   5.757   9.095   5.364  0.0366  1.0264 -0.4524
  265MOL0     C35704   5.762   8.969   5.377 -0.2493  0.6018 -0.8698
  265MOL0     C35705   5.369   9.680   5.483  0.7020  0.5552 -0.2488
  265MOL0     C35706   5.287   9.791   5.477  0.5811  0.2909  0.9704
  265MOL0     C35707   5.177   9.788   5.368 -0.7262  0.3370 -0.0225
  265MOL0     H35708   5.106  10.259   5.400 -1.3186  1.9912 -1.3696
  265MOL0     H35709   4.960  10.458   5.460 -1.5448  1.4444  1.3370
  265MOL0     H35710   4.773  10.460   5.569  2.1033  3.4022 -2.2108
  265MOL0     H35711   4.741  10.448   5.742  0.5355 -0.5286  0.2963
  265MOL0     H35712   4.696  10.686   5.760  1.4453 -0.0212  0.7751
  265MOL0     H35713   4.603  10.639   5.618  0.5033 -0.3265 -0.4273
  265MOL0     H35714   4.886  10.768   5.606  0.4456  0.0241 -0.1465
  265MOL0     H35715   4.734  10.858   5.616  0.3214 -0.6658  2.7469
  265MOL0     H35716   4.828  10.666   5.400  1.3651  0.7111  2.7108
  265MOL0     H35717   4.656  10.720   5.406  0.3468  0.9795 -3.2972
  265MOL0     H35718   4.722  10.872   5.258 -0.7207  0.9580  0.6051
  265MOL0     H35719   4.721  10.958   5.409  0.0621  0.0991  2.2472
  265MOL0     H35720   4.969  10.898   5.414 -0.9423  0.3029  0.1020
  265MOL0     H35721   4.956  10.860   5.243  1.0289  0.3412 -0.8369
  265MOL0     H35722   4.893  11.112   5.405 -1.8633  0.4742 -0.9901
  265MOL0     H35723   4.859  11.106   5.236  1.5186 -1.1399 -1.1173
  265MOL0     H35724   5.080  11.229   5.295  1.2891  0.8437 -0.5339
  265MOL0     H35725   5.141  11.088   5.364 -0.4337  1.1413  0.0259
  265MOL0     H35726   4.987  11.145   5.004 -2.1551 -2.9848 -0.7868
  265MOL0     H35727   5.032  11.047   4.773 -2.0261 -0.7355 -1.6670
  265MOL0     H35728   5.206  11.014   4.752 -0.2843  3.1610  2.3764
  265MOL0     H35729   5.169  10.788   4.768 -1.1765  0.7054 -2.0104
  265MOL0     H35730   5.008  10.808   4.847 -0.2686 -0.3141  0.3377
  265MOL0     H35731   4.923  10.888   4.631 -0.7175 -0.9981 -0.0993
  265MOL0     H35732   4.992  10.721   4.627  1.9922 -1.0988  1.4409
  265MOL0     H35733   5.128  10.970   4.536 -0.9925  1.3485 -0.5695
  265MOL0     H35734   5.017  10.861   4.437 -1.8953  0.5579  2.0838
  265MOL0     H35735   5.306  10.822   4.268  1.0846 -2.3833  1.4806
  265MOL0     H35736   5.492  10.957   4.216 -0.2037  1.3906 -0.6610
  265MOL0     H35737   5.959  10.927   4.309 -0.4728  0.5928 -0.3270
  265MOL0     H35738   6.197  10.916   4.327 -0.8219  0.3695  0.0432
  265MOL0     H35739   6.431  11.168   4.581 -2.5082  0.0467  0.1287
  265MOL0     H35740   6.365  11.042   4.709 -1.9091 -2.4682 -1.4287
  265MOL0     H35741   6.510  10.882   4.627 -0.4335 -0.2564 -2.1967
  265MOL0     H35742   6.589  11.003   4.530 -2.1354 -0.4471 -1.1695
  265MOL0     H35743   6.595  10.994   4.831 -3.1028 -1.5699 -2.0658
  265MOL0     H35744   6.729  10.967   4.720  1.0280  2.1965 -0.1136
  265MOL0     H35745   6.559  11.206   4.763 -0.7895 -1.4209 -0.1554
  265MOL0     H35746   6.702  11.218   4.652  3.8686  1.2220  2.4470
  265MOL0     H35747   6.713  11.208   4.955  0.3341  0.2986  0.6748
  265MOL0     H35748   6.738  11.351   4.841  1.7064 -0.4563 -4.5510
  265MOL0     H35749   6.901  11.091   4.851  1.1972  0.4783  0.9518
  265MOL0     H35750   6.921  11.210   4.735  0.2775  0.3784 -0.0814
  265MOL0     H35751   6.950  11.273   5.042 -2.7122 -0.8670 -1.5775
  265MOL0     H35752   7.010  11.373   4.921  0.1153 -0.3787 -1.2474
  265MOL0     H35753   7.161  11.194   4.848 -1.0430 -2.9159  0.3393
  265MOL0     H35754   7.179  11.254   5.021  0.3456  0.2528  0.1838
  265MOL0     H35755   6.190  11.154   4.681 -2.0723 -0.5903  2.6011
  265MOL0     H35756   5.933  11.176   4.660 -0.6872  2.6270 -1.1757
  265MOL0     H35757   5.591  10.962   4.632 -2.1540  3.0282  1.0158
  265MOL0     H35758   5.380  10.830   4.679  3.1423 -0.3149  0.6111
  265MOL0     H35759   5.101  10.470   5.851 -1.3719 -1.1657 -0.4161
  265MOL0     H35760   5.254  10.263   5.799  1.7974  1.8884 -0.7609
  265MOL0     H35761   5.415   9.996   5.708 -1.7265  1.7706 -2.8848
  265MOL0     H35762   5.598   9.802   5.690 -0.0699  0.3212 -2.7889
  265MOL0     H35763   5.427   9.417   5.513 -0.9322  1.1182 -0.3468
  265MOL0     H35764   5.467   9.390   5.683  1.6561 -0.6723 -0.1592
  265MOL0     H35765   5.609   9.245   5.597  0.5017 -1.2140 -0.2176
  265MOL0     H35766   5.712   9.393   5.579 -1.5602  1.9863  0.6886
  265MOL0     H35767   5.628   9.423   5.352  1.0750 -0.3857 -2.5705
  265MOL0     H35768   5.540   9.277   5.359 -0.0339 -0.8274  0.0770
  265MOL0     H35769   5.773   9.257   5.243  2.4466 -2.8018  1.4006
  265MOL0     H35770   5.840   9.275   5.411  0.4097 -0.6407  0.4123
  265MOL0     H35771   5.755   8.862   5.374 -1.4518  0.6820 -1.3424
  265MOL0     H35772   5.351   9.596   5.417  0.6584  1.3538 -1.2761
  265MOL0     H35773   5.185   9.873   5.299  0.7621 -0.3673 -0.7646
  265MOL0     H35774   5.185   9.695   5.311  2.7086 -0.4188  1.3974
  265MOL0     H35775   5.078   9.786   5.414 -1.7428  0.5383 -2.0599
  266MOL0     O35776   2.614   8.607   2.578 -0.4553  0.2265  0.7456
  266MOL0     C35777   2.639   8.715   2.519 -1.1795  0.1394 -0.3287
  266MOL0     O35778   2.634   8.842   2.574 -0.3961 -0.2252 -0.5939
  266MOL0     C35779   2.536   8.854   2.670  0.1295 -0.5445  0.1300
  266MOL0     C35780   2.395   8.857   2.646  0.1060 -0.1757  0.0736
  266MOL0     C35781   2.310   8.873   2.756  0.0869  0.5352 -0.0364
  266MOL0     C35782   2.358   8.856   2.889 -0.2301 -0.1149 -0.2948
  266MOL0     O35783   2.271   8.880   2.994  0.3460 -0.1394 -0.5679
  266MOL0     C35784   2.272   8.774   3.093  0.7945 -0.4384  0.2245
  266MOL0     C35785   2.190   8.655   3.053 -0.0977  0.1713 -0.6092
  266MOL0     C35786   2.114   8.585   3.172 -0.1228  0.8891 -0.4442
  266MOL0     C35787   2.025   8.469   3.120  0.4112 -0.5557  0.4023
  266MOL0     C35788   1.988   8.374   3.234  0.3256 -0.5987 -0.1955
  266MOL0     C35789   1.889   8.272   3.193 -0.2018  0.3015 -1.0012
  266MOL0     C35790   1.745   8.313   3.166 -0.4483 -0.3470 -0.2063
  266MOL0     C35791   1.656   8.201   3.127  0.6799  1.0715  0.0177
  266MOL0     N35792   1.530   8.240   3.059 -0.4608  0.6715  0.4999
  266MOL0     C35793   1.437   8.164   2.998 -0.1252  0.0168  0.5763
  266MOL0     C35794   1.335   8.239   2.966 -0.3451 -1.0307  0.0571
  266MOL0     C35795   1.204   8.206   2.886 -0.2374 -0.0107 -1.3116
  266MOL0     C35796   1.081   8.160   2.965  0.5350 -0.7891  0.3705
  266MOL0     C35797   1.111   8.058   3.079  0.6202 -0.0953  0.2364
  266MOL0     C35798   0.988   7.974   3.115  0.0465 -0.8458 -0.3430
  266MOL0     O35799   0.900   8.075   3.177  0.2936  0.7175  0.9976
  266MOL0     C35800   0.908   8.094   3.314 -0.2474 -0.4192  0.1465
  266MOL0     C35801   0.817   8.180   3.381 -0.4750  1.3483  0.1749
  266MOL0     C35802   0.821   8.189   3.518  0.6536 -0.9845  0.2936
  266MOL0     C35803   0.908   8.123   3.597 -0.2970  0.4024  0.3835
  266MOL0     C35804   0.891   8.147   3.742  0.2664  0.2783  0.0276
  266MOL0     O35805   0.790   8.228   3.786 -0.1548 -0.1989  0.5497
  266MOL0     C35806   0.781   8.253   3.921 -0.4371  0.6357  1.0103
  266MOL0     C35807   0.889   8.294   4.009 -0.3227  1.1852 -0.2635
  266MOL0     C35808   0.869   8.332   4.135  0.0189 -0.3200 -0.6572
  266MOL0     C35809   0.739   8.337   4.186  0.8210  0.3430 -0.0077
  266MOL0     O35810   0.715   8.394   4.313  0.0784  0.4710 -0.2310
  266MOL0     C35811   0.582   8.444   4.348  0.5588 -0.1236  0.2239
  266MOL0     C35812   0.570   8.537   4.479  0.4640  0.6913  1.1339
  266MOL0     C35813   0.649   8.484   4.601  0.6790 -0.0535  1.1949
  266MOL0     C35814   0.665   8.599   4.700  0.2763  0.8482 -0.1468
  266MOL0     C35815   0.751   8.567   4.820 -0.0863  0.2831  0.0240
  266MOL0     C35816   0.698   8.437   4.902 -0.2695 -0.6965 -0.1784
  266MOL0     C35817   0.760   8.439   5.044  0.3568  0.4812 -1.0190
  266MOL0     C35818   0.767   8.293   5.099  0.0512  0.0532 -0.3804
  266MOL0    Cl35819   0.754   8.277   5.281  0.3716  0.2321  0.4884
  266MOL0     C35820   0.630   8.302   4.099  1.1216 -0.1405 -0.4049
  266MOL0     C35821   0.650   8.260   3.967  0.8311 -1.0577 -0.1065
  266MOL0     O35822   0.976   8.093   3.815 -0.1352 -0.1107 -0.1602
  266MOL0     C35823   1.005   8.050   3.540  0.9537 -0.5350 -0.3087
  266MOL0     C35824   1.006   8.042   3.394  0.3303  0.4933  0.4345
  266MOL0     N35825   1.361   8.363   3.024 -0.4231  0.0002  0.3510
  266MOL0     N35826   1.477   8.365   3.079  0.0141  0.3789  0.2320
  266MOL0     C35827   2.497   8.842   2.909 -0.0995 -0.1988 -0.1701
  266MOL0     C35828   2.582   8.859   2.804  0.0180 -0.4466 -0.4085
  266MOL0     C35829   2.661   8.699   2.372  0.0299 -1.0534  0.4678
  266MOL0     C35830   2.597   8.798   2.288  0.0833  0.5614  0.3887
  266MOL0     C35831   2.608   8.779   2.155  0.8915 -0.4145  0.0391
  266MOL0     C35832   2.668   8.670   2.088 -0.1115 -0.0309  0.7662
  266MOL0     O35833   2.687   8.668   1.959 -0.1431  0.1387  0.3233
  266MOL0     C35834   2.802   8.746   1.909 -0.1440 -0.3418 -0.0931
  266MOL0     C35835   2.842   8.694   1.778  0.3491  1.4633  0.1456
  266MOL0     C35836   2.970   8.761   1.737 -0.1284 -0.5830 -0.1045
  266MOL0     C35837   3.020   8.688   1.613  1.2220 -0.3778  0.1860
  266MOL0     C35838   3.100   8.560   1.631  0.2219  0.9007  0.4390
  266MOL0     C35839   3.149   8.451   1.648  0.0044  1.3530  0.2258
  266MOL0     C35840   2.728   8.579   2.179 -0.1343  0.2416  0.5966
  266MOL0     C35841   2.735   8.592   2.317 -0.0705  0.6469 -0.1950
  266MOL0     C35842   2.841   8.508   2.389 -0.0364 -0.7641 -0.1675
  266MOL0     H35843   2.369   8.869   2.542 -1.7164 -0.4377  0.4668
  266MOL0     H35844   2.203   8.887   2.755  0.2424  2.6951  2.6156
  266MOL0     H35845   2.374   8.758   3.128  0.2525  1.6221  3.0580
  266MOL0     H35846   2.225   8.821   3.179  1.4339  0.1837  0.2360
  266MOL0     H35847   2.262   8.600   2.991  3.2709  3.7486 -0.2477
  266MOL0     H35848   2.110   8.679   2.982 -0.2550 -3.0122 -1.7124
  266MOL0     H35849   2.056   8.662   3.224 -1.2715  0.0723 -0.4775
  266MOL0     H35850   2.182   8.534   3.241 -1.3696 -1.4156 -0.8313
  266MOL0     H35851   1.935   8.520   3.084 -0.1464 -0.5468  1.7495
  266MOL0     H35852   2.075   8.410   3.043  1.5338 -0.5607  1.1206
  266MOL0     H35853   2.081   8.327   3.268  1.8445 -0.6250 -3.9148
  266MOL0     H35854   1.944   8.434   3.314 -0.0360 -0.3075 -0.6095
  266MOL0     H35855   1.931   8.220   3.106  0.2731  0.0376 -0.6247
  266MOL0     H35856   1.890   8.195   3.271  1.2386  3.7598  2.7165
  266MOL0     H35857   1.742   8.390   3.089  0.2780 -0.6830 -0.5911
  266MOL0     H35858   1.697   8.354   3.255 -2.7865 -0.5866 -1.2905
  266MOL0     H35859   1.716   8.133   3.065 -0.9342 -1.7032  1.2947
  266MOL0     H35860   1.640   8.136   3.214  0.9163 -0.7637 -1.2325
  266MOL0     H35861   1.440   8.057   2.979 -0.1603  0.2521 -0.8264
  266MOL0     H35862   1.177   8.295   2.828 -0.9243 -0.0190 -1.0123
  266MOL0     H35863   1.229   8.122   2.820 -0.0887 -3.0031  2.2571
  266MOL0     H35864   1.023   8.243   3.004 -1.6305 -2.1108  0.1097
  266MOL0     H35865   1.022   8.103   2.892  0.5384  1.2704 -1.3417
  266MOL0     H35866   1.143   8.112   3.168  4.8346 -0.8113 -0.6617
  266MOL0     H35867   1.186   7.989   3.040 -1.1668 -0.4068 -3.0672
  266MOL0     H35868   1.006   7.881   3.170 -1.5264 -0.9715 -0.0100
  266MOL0     H35869   0.937   7.944   3.023 -2.8988  2.4963  0.0044
  266MOL0     H35870   0.729   8.218   3.332  0.1500  1.3611 -0.9670
  266MOL0     H35871   0.754   8.270   3.545 -0.7856 -1.0696 -2.6010
  266MOL0     H35872   0.991   8.292   3.972 -0.3788 -0.5669 -0.4269
  266MOL0     H35873   0.959   8.359   4.189 -0.5468  3.3239 -1.2614
  266MOL0     H35874   0.557   8.516   4.270 -0.1730  0.8621  1.3233
  266MOL0     H35875   0.506   8.366   4.356  0.5164  0.0391  1.6910
  266MOL0     H35876   0.612   8.632   4.444 -0.2218  0.7418  0.4204
  266MOL0     H35877   0.465   8.558   4.498 -1.5407 -5.4207 -0.5920
  266MOL0     H35878   0.607   8.397   4.652 -0.6201  1.3442  2.6275
  266MOL0     H35879   0.748   8.458   4.564  0.6516 -1.5905  2.1191
  266MOL0     H35880   0.564   8.623   4.737  0.1328  0.2527 -0.1521
  266MOL0     H35881   0.712   8.692   4.667 -0.8178  1.9555  1.2579
  266MOL0     H35882   0.750   8.661   4.876  2.8111  1.5592 -1.8421
  266MOL0     H35883   0.856   8.552   4.793 -0.3749  0.9215 -1.5079
  266MOL0     H35884   0.589   8.433   4.906 -0.4166  2.0441  0.1865
  266MOL0     H35885   0.733   8.347   4.849 -0.8651 -2.2943  1.9758
  266MOL0     H35886   0.680   8.479   5.108 -0.3253 -2.2163 -0.0321
  266MOL0     H35887   0.857   8.488   5.056 -1.0207  2.9961  1.0798
  266MOL0     H35888   0.690   8.230   5.054  0.6054 -1.2091  0.4007
  266MOL0     H35889   0.864   8.251   5.070  0.0797 -0.3983  0.3601
  266MOL0     H35890   0.529   8.285   4.137  0.7407 -2.3818 -2.1941
  266MOL0     H35891   0.580   8.228   3.891  2.3055  0.5701 -2.2462
  266MOL0     H35892   1.068   7.982   3.596 -0.8838 -1.3613  0.8636
  266MOL0     H35893   1.065   7.965   3.345 -1.0334 -0.1594 -0.2241
  266MOL0     H35894   2.544   8.813   3.003  1.5189 -2.3738 -1.5731
  266MOL0     H35895   2.687   8.854   2.829 -0.2294 -1.7134  0.4925
  266MOL0     H35896   2.538   8.879   2.329  0.6077  2.6956 -2.6940
  266MOL0     H35897   2.574   8.856   2.087  0.0301 -0.1668  0.7382
  266MOL0     H35898   2.878   8.730   1.985 -0.9063  0.8175  0.9478
  266MOL0     H35899   2.788   8.854   1.916 -3.6903 -0.6727 -0.2177
  266MOL0     H35900   2.766   8.718   1.704  0.0769  0.6445  0.1478
  266MOL0     H35901   2.854   8.585   1.777 -0.1465  1.4081  0.1410
  266MOL0     H35902   3.040   8.761   1.820  1.3955 -2.8486 -1.3045
  266MOL0     H35903   2.952   8.864   1.702 -0.3198 -0.9751 -1.2075
  266MOL0     H35904   2.942   8.675   1.537  2.8983  0.0016 -1.7041
  266MOL0     H35905   3.087   8.756   1.560  0.3129  1.3380  1.1553
  266MOL0     H35906   3.196   8.364   1.688 -0.7888 -0.4184 -2.4477
  266MOL0     H35907   2.784   8.502   2.126 -1.4997 -1.4702  1.5523
  266MOL0     H35908   2.912   8.573   2.440  0.9556 -3.3354  2.0071
  266MOL0     H35909   2.803   8.436   2.463  0.0400 -0.9725 -0.3311
  266MOL0     H35910   2.893   8.449   2.313  2.5703  1.9271 -0.6187
  267MOL0     O35911   0.036  10.504   8.525  0.9781 -0.5413 -0.6520
  267MOL0     C35912   0.099  10.484   8.625 -0.0892 -0.0504  0.1317
  267MOL0     O35913   0.236  10.459   8.631  0.1341 -0.2214 -0.2791
  267MOL0     C35914   0.295  10.465   8.511 -0.8200 -0.7811  0.3703
  267MOL0     C35915   0.293  10.372   8.401 -0.6389 -0.5038 -0.0139
  267MOL0     C35916   0.367  10.389   8.283  0.0768 -0.8687  0.9773
  267MOL0     C35917   0.451  10.497   8.262  0.2529  0.7359 -0.8532
  267MOL0     O35918   0.533  10.505   8.157  0.8235 -0.3000  0.5266
  267MOL0     C35919   0.610  10.390   8.144 -0.1167  0.8032  0.4640
  267MOL0     C35920   0.756  10.437   8.131  0.6288 -0.9423 -0.1320
  267MOL0     C35921   0.831  10.320   8.074  0.5843  0.0632  0.9035
  267MOL0     C35922   0.985  10.344   8.047 -0.5671  0.7296  0.0285
  267MOL0     C35923   1.050  10.220   7.994 -0.5327 -0.7906 -0.3400
  267MOL0     C35924   1.199  10.230   8.034 -0.1883 -0.1654 -0.0682
  267MOL0     C35925   1.285  10.104   7.995 -0.9513  0.1530  1.3619
  267MOL0     C35926   1.288  10.001   8.112  0.3508  0.6432 -1.2646
  267MOL0     N35927   1.154   9.948   8.156 -0.8857 -0.2040  0.9735
  267MOL0     C35928   1.056   9.878   8.092  0.3044 -0.2927 -0.2164
  267MOL0     C35929   0.967   9.861   8.188  0.6563 -0.9657  0.3192
  267MOL0     C35930   0.837   9.789   8.157 -0.0174  0.1356 -0.1695
  267MOL0     C35931   0.748   9.848   8.038  0.3086 -0.3433 -0.8836
  267MOL0     C35932   0.615   9.760   8.032 -0.3373  0.7966  0.4567
  267MOL0     C35933   0.621   9.622   7.950 -0.3855 -0.3113 -0.5471
  267MOL0     O35934   0.677   9.659   7.825  0.1100 -0.2364  1.3717
  267MOL0     C35935   0.693   9.557   7.731 -0.5794  0.2333  0.0941
  267MOL0     C35936   0.769   9.446   7.756  0.3879 -0.3312 -0.3620
  267MOL0     C35937   0.780   9.336   7.665  0.4131  0.3561  0.5739
  267MOL0     C35938   0.717   9.340   7.544 -0.6573  0.5130 -1.0273
  267MOL0     C35939   0.726   9.231   7.445 -0.8070 -0.1896  0.1524
  267MOL0     O35940   0.693   9.273   7.320  1.2703  0.2776  0.5071
  267MOL0     C35941   0.690   9.178   7.220 -0.1086 -0.4836  0.3506
  267MOL0     C35942   0.618   9.058   7.221  0.6699  0.7844 -0.0550
  267MOL0     C35943   0.633   8.963   7.127  0.4234 -0.6222  0.5069
  267MOL0     C35944   0.718   8.983   7.021  0.9955 -0.2964  0.1849
  267MOL0     O35945   0.750   8.907   6.919 -0.5048 -0.2571  0.7035
  267MOL0     C35946   0.687   8.776   6.906  0.2866 -0.8508  0.4015
  267MOL0     C35947   0.714   8.717   6.770 -0.0797  0.4490  0.1008
  267MOL0     C35948   0.628   8.788   6.670  0.1622  0.0694 -0.4088
  267MOL0     C35949   0.700   8.828   6.544 -0.7190  0.4554  1.0990
  267MOL0     C35950   0.609   8.892   6.430  0.5214  0.7003 -0.2197
  267MOL0     C35951   0.688   8.949   6.309 -0.4125  0.1095  0.4947
  267MOL0     C35952   0.802   8.852   6.246  0.7575 -0.6337  0.2522
  267MOL0     C35953   0.757   8.713   6.212 -0.5381 -0.0334  0.1805
  267MOL0    Cl35954   0.640   8.703   6.073 -0.2546 -0.0481  0.3477
  267MOL0     C35955   0.778   9.108   7.011 -0.2192  0.0410  0.8442
  267MOL0     C35956   0.756   9.207   7.101 -0.3134 -0.2467  0.4535
  267MOL0     O35957   0.764   9.117   7.482 -0.3601 -0.1569 -0.0195
  267MOL0     C35958   0.646   9.451   7.523 -0.5001  0.3426  0.2798
  267MOL0     C35959   0.629   9.562   7.608  0.2760 -0.3545  1.0510
  267MOL0     N35960   1.003   9.919   8.306  0.0198  0.4859  0.0576
  267MOL0     N35961   1.107   9.985   8.275  0.2800 -0.5162 -0.6943
  267MOL0     C35962   0.453  10.592   8.369 -0.2196  0.2005  0.6054
  267MOL0     C35963   0.377  10.573   8.494 -0.0548  0.4281 -0.9529
  267MOL0     C35964   0.019  10.489   8.746  0.1647 -0.4301 -0.4575
  267MOL0     C35965   0.001  10.611   8.817  0.3139  0.0226 -0.7381
  267MOL0     C35966  -0.101  10.622   8.910  0.2241  0.2774  0.9645
  267MOL0     C35967  -0.195  10.520   8.933  0.1077 -0.9478 -0.5654
  267MOL0     O35968  -0.288  10.544   9.034 -0.5101 -0.3529 -0.4731
  267MOL0     C35969  -0.385  10.442   9.071 -0.8377  0.1995  0.6304
  267MOL0     C35970  -0.500  10.449   8.967  0.8668 -0.0248  0.7150
  267MOL0     C35971  -0.586  10.313   8.967  0.5179 -1.0011  0.3093
  267MOL0     C35972  -0.550  10.226   8.843 -0.2234  0.2215  0.3736
  267MOL0     C35973  -0.592  10.085   8.857 -0.4812 -0.4054 -0.3377
  267MOL0     C35974  -0.640   9.980   8.857  0.1396  0.2768  0.4462
  267MOL0     C35975  -0.177  10.407   8.863  0.2473  0.1037 -0.2730
  267MOL0     C35976  -0.062  10.380   8.784  0.0495  0.5674  0.4724
  267MOL0     C35977  -0.053  10.249   8.718 -0.2956  0.8122 -0.5228
  267MOL0     H35978   0.233  10.285   8.425 -0.6351 -0.4894  0.0487
  267MOL0     H35979   0.362  10.315   8.204 -0.5543 -0.6114  0.7733
  267MOL0     H35980   0.594  10.316   8.224  1.2997 -1.3145 -1.1135
  267MOL0     H35981   0.583  10.343   8.049  2.8941  2.2049 -1.2126
  267MOL0     H35982   0.804  10.469   8.223  0.3537  0.8395 -0.5696
  267MOL0     H35983   0.768  10.523   8.064 -0.6164 -0.9151 -0.3452
  267MOL0     H35984   0.783  10.289   7.980 -1.9144  0.0148  2.1174
  267MOL0     H35985   0.818  10.232   8.137  2.4148 -1.6054 -0.8760
  267MOL0     H35986   0.999  10.423   7.972  0.7815  2.9120  2.4442
  267MOL0     H35987   1.030  10.384   8.138  1.6804  0.4397 -0.8839
  267MOL0     H35988   1.001  10.131   8.034 -1.3161 -1.0416 -1.7708
  267MOL0     H35989   1.049  10.207   7.885 -0.3428 -3.9634 -0.0694
  267MOL0     H35990   1.243  10.319   7.988  0.8540 -0.7641 -0.2584
  267MOL0     H35991   1.211  10.234   8.142  1.5607  0.0108 -0.2385
  267MOL0     H35992   1.385  10.149   7.982 -0.2637 -0.7453  3.1765
  267MOL0     H35993   1.255  10.052   7.904  2.8898 -0.1488  0.0905
  267MOL0     H35994   1.349   9.912   8.094 -1.5235 -1.4185  1.5402
  267MOL0     H35995   1.338  10.062   8.188  1.4107  1.4213 -2.5579
  267MOL0     H35996   1.049   9.849   7.988 -1.8656  0.4823 -0.3317
  267MOL0     H35997   0.853   9.684   8.133 -1.1942  0.3297 -2.0108
  267MOL0     H35998   0.784   9.787   8.252 -0.5574 -1.0715 -0.4833
  267MOL0     H35999   0.726   9.950   8.071  0.1763 -0.3872 -0.8329
  267MOL0     H36000   0.790   9.853   7.937 -0.2096  0.0128 -1.0849
  267MOL0     H36001   0.539   9.829   7.994 -1.6207 -1.3604 -1.1232
  267MOL0     H36002   0.579   9.733   8.131 -2.5348  0.6585 -0.3297
  267MOL0     H36003   0.521   9.580   7.937 -0.5458 -0.9802  2.2095
  267MOL0     H36004   0.682   9.547   8.002  1.0797  0.7164 -0.7010
  267MOL0     H36005   0.813   9.441   7.855  0.3896 -0.9704 -0.3909
  267MOL0     H36006   0.840   9.248   7.688 -0.8597 -0.0963  2.3282
  267MOL0     H36007   0.559   9.041   7.311 -0.7451 -0.1461 -1.1233
  267MOL0     H36008   0.581   8.867   7.129  0.3519 -0.6886 -1.8550
  267MOL0     H36009   0.709   8.711   6.991 -2.7017 -0.7590  1.3930
  267MOL0     H36010   0.578   8.784   6.917  0.4867  0.4318  1.8900
  267MOL0     H36011   0.820   8.720   6.745  0.1805 -1.6296  0.7504
  267MOL0     H36012   0.683   8.612   6.777 -0.5355  0.3247 -2.7610
  267MOL0     H36013   0.554   8.710   6.651  0.8810 -0.9807  0.9388
  267MOL0     H36014   0.574   8.874   6.712 -0.6793 -0.2520 -0.8014
  267MOL0     H36015   0.755   8.742   6.507  1.2875  1.6730  1.1054
  267MOL0     H36016   0.782   8.896   6.567 -0.4730  1.3542 -2.0748
  267MOL0     H36017   0.531   8.958   6.468 -1.0602  0.1120 -2.2537
  267MOL0     H36018   0.552   8.804   6.398 -4.0175  3.1411  0.3155
  267MOL0     H36019   0.619   8.980   6.231 -0.7217 -1.2605  0.1991
  267MOL0     H36020   0.736   9.040   6.345  1.7854 -0.6380 -0.3885
  267MOL0     H36021   0.870   8.836   6.330  1.2521 -1.4179 -0.2779
  267MOL0     H36022   0.857   8.886   6.159 -0.4169 -0.4749 -0.4520
  267MOL0     H36023   0.839   8.643   6.193  0.0016  1.2045 -2.5071
  267MOL0     H36024   0.708   8.669   6.299 -0.0997 -0.7878  0.0571
  267MOL0     H36025   0.854   9.112   6.935 -1.6187 -0.2914 -0.6400
  267MOL0     H36026   0.799   9.305   7.087  0.7254 -0.7653 -0.1039
  267MOL0     H36027   0.587   9.448   7.432 -1.4245 -2.0149  0.8974
  267MOL0     H36028   0.572   9.652   7.590  3.3862  1.6466  0.3901
  267MOL0     H36029   0.515  10.681   8.372  0.1960 -0.0580 -0.0028
  267MOL0     H36030   0.398  10.643   8.574 -0.8870  0.9230 -1.1624
  267MOL0     H36031   0.057  10.695   8.777  1.2823 -0.2732 -0.0337
  267MOL0     H36032  -0.118  10.716   8.961 -0.3129  0.7294 -0.0142
  267MOL0     H36033  -0.426  10.465   9.170 -0.7690  1.8871  0.2975
  267MOL0     H36034  -0.328  10.348   9.072  3.3381  2.3818 -1.9900
  267MOL0     H36035  -0.466  10.484   8.870  1.8913 -0.1625  1.0118
  267MOL0     H36036  -0.570  10.524   9.006  0.3317 -0.4302  0.5531
  267MOL0     H36037  -0.689  10.333   8.938  0.7145  0.5303  0.5972
  267MOL0     H36038  -0.583  10.253   9.058 -1.7763 -1.0590  0.3973
  267MOL0     H36039  -0.603  10.273   8.760 -0.6933  0.0402  0.5677
  267MOL0     H36040  -0.444  10.222   8.814 -0.3964 -1.8861 -0.1322
  267MOL0     H36041  -0.679   9.882   8.845  1.5739 -0.1632 -0.9956
  267MOL0     H36042  -0.241  10.319   8.868  3.0940 -2.1174  0.2207
  267MOL0     H36043   0.029  10.240   8.646  0.0715  1.6751 -0.2246
  267MOL0     H36044  -0.035  10.170   8.792  0.0017  2.6815  1.4894
  267MOL0     H36045  -0.145  10.237   8.661  0.5005 -2.3692 -1.3282
  268MOL0     O36046  10.095   8.391   2.278  0.4461  0.8035  0.6873
  268MOL0     C36047   9.979   8.418   2.240  0.9947  0.6673 -0.8886
  268MOL0     O36048   9.894   8.328   2.173 -0.1930  0.3301 -0.2342
  268MOL0     C36049   9.956   8.235   2.099  0.3366  0.6395  0.2874
  268MOL0     C36050  10.075   8.241   2.021  0.1418 -0.1531  1.3052
  268MOL0     C36051  10.114   8.121   1.946  0.2552  0.1988 -0.4296
  268MOL0     C36052  10.037   8.012   1.942  0.8621  0.7303 -0.6312
  268MOL0     O36053  10.090   7.918   1.854  0.3758  0.4400 -0.2992
  268MOL0     C36054   9.994   7.843   1.788  0.3119 -0.4162  0.3240
  268MOL0     C36055  10.048   7.759   1.664 -0.5824  0.4430  0.5140
  268MOL0     C36056  10.099   7.857   1.559  0.3212  0.1885  0.4489
  268MOL0     C36057  10.085   7.804   1.416 -0.0555 -0.5909  0.1333
  268MOL0     C36058  10.063   7.900   1.308  0.3919  0.0062 -0.0123
  268MOL0     C36059   9.915   7.939   1.276  0.0562 -0.1027  0.0695
  268MOL0     C36060   9.846   7.826   1.197 -0.2223  0.3238  0.2514
  268MOL0     C36061   9.792   7.860   1.060  0.3811  0.7851 -0.1806
  268MOL0     N36062   9.681   7.951   1.086  0.5820 -0.3941  0.3190
  268MOL0     C36063   9.562   7.900   1.133  0.0255 -1.3748 -1.0222
  268MOL0     C36064   9.494   8.014   1.180  0.4373  0.3576  0.7176
  268MOL0     C36065   9.360   8.041   1.240 -0.9015  1.3363  0.6710
  268MOL0     C36066   9.375   8.087   1.389 -0.2184  0.1173 -0.5766
  268MOL0     C36067   9.441   7.980   1.483 -0.3478  0.2237  0.1870
  268MOL0     C36068   9.359   7.850   1.497 -0.0685 -0.1554 -0.5142
  268MOL0     O36069   9.391   7.766   1.610  0.0192 -1.0958  0.3279
  268MOL0     C36070   9.394   7.839   1.726 -0.4077 -0.5707  0.1888
  268MOL0     C36071   9.519   7.865   1.781 -0.7471 -0.2748 -0.4032
  268MOL0     C36072   9.530   7.950   1.889 -0.0986  0.7427  0.4874
  268MOL0     C36073   9.418   7.996   1.958  0.8872  0.0899 -0.4414
  268MOL0     C36074   9.431   8.066   2.081  0.8071 -0.4685 -0.4662
  268MOL0     O36075   9.320   8.092   2.151  0.0535 -0.9226  0.8364
  268MOL0     C36076   9.303   8.164   2.268 -0.6504 -0.4703 -0.0570
  268MOL0     C36077   9.384   8.270   2.292  0.1969 -0.1078  0.1760
  268MOL0     C36078   9.362   8.351   2.409  0.3428  0.1987  0.5929
  268MOL0     C36079   9.266   8.311   2.504  0.1609 -0.5648  0.2657
  268MOL0     O36080   9.246   8.385   2.614  0.4873 -0.9762  0.6060
  268MOL0     C36081   9.358   8.463   2.661 -0.3448 -0.0848 -0.0851
  268MOL0     C36082   9.319   8.508   2.802 -0.7715  0.4268  0.6211
  268MOL0     C36083   9.390   8.428   2.914  0.3610 -0.4355 -0.2897
  268MOL0     C36084   9.302   8.317   2.984 -0.2047  0.0054  1.1212
  268MOL0     C36085   9.381   8.254   3.101  1.0516 -1.1651  0.8608
  268MOL0     C36086   9.497   8.168   3.047  0.4285  0.0936 -0.2654
  268MOL0     C36087   9.644   8.218   3.066  0.3153  0.2839  0.0910
  268MOL0     C36088   9.736   8.105   3.028  0.0759  0.2080 -0.1199
  268MOL0    Cl36089   9.784   8.003   3.167  0.2277 -0.1253 -0.1624
  268MOL0     C36090   9.171   8.210   2.470 -0.1120  0.1039 -0.2839
  268MOL0     C36091   9.191   8.137   2.360 -0.7506  0.1974  0.4710
  268MOL0     O36092   9.546   8.081   2.124  0.1471  1.0323  0.5820
  268MOL0     C36093   9.288   7.964   1.909 -0.2136 -0.6536 -0.4914
  268MOL0     C36094   9.283   7.900   1.787 -0.0254  0.3565  0.0435
  268MOL0     N36095   9.565   8.124   1.145 -0.5221  0.0166  0.1814
  268MOL0     N36096   9.678   8.085   1.104 -0.1793 -0.2150 -0.0461
  268MOL0     C36097   9.915   8.013   2.005 -0.3849 -1.7191 -0.4019
  268MOL0     C36098   9.877   8.125   2.076  0.6762 -0.5258 -0.0868
  268MOL0     C36099   9.918   8.540   2.295  1.1313 -0.2343 -0.1455
  268MOL0     C36100  10.002   8.650   2.325  0.0253  0.3154 -0.7142
  268MOL0     C36101   9.949   8.764   2.393  1.4519 -0.2725 -0.1929
  268MOL0     C36102   9.810   8.775   2.418 -0.3001  0.0437  0.3261
  268MOL0     O36103   9.775   8.897   2.473 -0.2184 -0.3965  0.2057
  268MOL0     C36104   9.639   8.884   2.528 -0.2354  0.2025  0.2147
  268MOL0     C36105   9.606   9.003   2.613  0.0246  0.4036  0.4616
  268MOL0     C36106   9.459   9.009   2.660  0.7690 -0.3066  0.5259
  268MOL0     C36107   9.424   8.895   2.772  0.1139 -0.7198 -0.6634
  268MOL0     C36108   9.288   8.912   2.819  0.4535  0.6272 -0.5513
  268MOL0     C36109   9.180   8.917   2.876 -0.5693  0.2270 -0.4583
  268MOL0     C36110   9.727   8.679   2.364  0.9061  0.3957  0.2000
  268MOL0     C36111   9.778   8.558   2.310 -0.3761 -0.5061  1.7521
  268MOL0     C36112   9.671   8.464   2.249 -0.9101  0.5586 -0.2036
  268MOL0     H36113  10.143   8.324   2.015  0.3497 -0.3545 -4.3315
  268MOL0     H36114  10.212   8.114   1.900  2.1957 -0.9695  3.5100
  268MOL0     H36115   9.954   7.768   1.857 -1.1704  0.8532  0.8855
  268MOL0     H36116   9.906   7.897   1.753  1.0746 -0.1309 -1.2355
  268MOL0     H36117   9.968   7.696   1.624 -0.4001 -0.4471  1.4874
  268MOL0     H36118  10.123   7.685   1.695  1.7458  1.6193 -1.9201
  268MOL0     H36119  10.204   7.864   1.586  0.6045 -0.8690 -0.3213
  268MOL0     H36120  10.041   7.949   1.572 -0.4085  0.0184 -1.3053
  268MOL0     H36121  10.173   7.740   1.398  2.3470  1.6108  3.0715
  268MOL0     H36122  10.001   7.734   1.408 -0.0198 -0.6405  0.1838
  268MOL0     H36123  10.116   7.990   1.341  1.3168 -0.9460  1.2019
  268MOL0     H36124  10.099   7.861   1.213  0.3937  1.3624 -0.5876
  268MOL0     H36125   9.863   7.970   1.367  2.3008  1.8319  0.7953
  268MOL0     H36126   9.926   8.028   1.213  0.1769 -0.6646 -0.7328
  268MOL0     H36127   9.769   7.775   1.256  3.7487 -3.0362  3.1580
  268MOL0     H36128   9.910   7.738   1.197 -2.2941 -1.2679  0.4322
  268MOL0     H36129   9.879   7.897   1.005  1.1180 -0.8821 -0.1964
  268MOL0     H36130   9.761   7.770   1.007  0.9796  1.0424 -0.9823
  268MOL0     H36131   9.529   7.796   1.138 -0.8395 -1.0391  0.8171
  268MOL0     H36132   9.310   8.114   1.177  0.1672  1.6365  0.1494
  268MOL0     H36133   9.299   7.950   1.242 -0.1319  0.8155  2.0197
  268MOL0     H36134   9.443   8.173   1.384  0.9219 -0.7218 -5.4648
  268MOL0     H36135   9.279   8.120   1.427  0.2140 -0.7068  1.3207
  268MOL0     H36136   9.446   8.043   1.573 -0.9252  1.9032 -0.9111
  268MOL0     H36137   9.539   7.957   1.442 -1.5129 -0.6501 -2.2632
  268MOL0     H36138   9.375   7.794   1.405 -0.6711 -1.7542  0.3074
  268MOL0     H36139   9.254   7.874   1.512 -0.7630 -3.5096  0.7917
  268MOL0     H36140   9.610   7.826   1.737 -1.4387 -1.5359 -0.7523
  268MOL0     H36141   9.635   7.953   1.916 -0.4072  0.5635  1.7597
  268MOL0     H36142   9.464   8.298   2.224  0.0938 -0.6542 -0.1842
  268MOL0     H36143   9.418   8.443   2.425 -2.9154  2.4535  0.1394
  268MOL0     H36144   9.457   8.416   2.662 -0.3455 -0.1124  1.5629
  268MOL0     H36145   9.359   8.559   2.608 -3.3223  0.8350  1.3093
  268MOL0     H36146   9.342   8.615   2.811 -3.6362  0.9929  6.2664
  268MOL0     H36147   9.211   8.502   2.816 -1.4609  3.8649 -1.8916
  268MOL0     H36148   9.478   8.376   2.873  1.1810  0.3945  0.3596
  268MOL0     H36149   9.421   8.499   2.991  0.0087 -1.5245  0.8983
  268MOL0     H36150   9.278   8.234   2.917 -2.0546  0.6007  0.9687
  268MOL0     H36151   9.202   8.355   3.010  0.6024  1.6993  1.8536
  268MOL0     H36152   9.309   8.185   3.147 -0.4406 -0.2101  0.0348
  268MOL0     H36153   9.422   8.327   3.172  0.2340  0.0423  0.1320
  268MOL0     H36154   9.495   8.069   3.093  2.9580  0.3224  0.4654
  268MOL0     H36155   9.481   8.145   2.941 -3.0664 -1.7041  0.5074
  268MOL0     H36156   9.660   8.249   3.170  2.5910  1.6879 -0.6059
  268MOL0     H36157   9.664   8.301   2.996 -2.1936 -0.4639 -1.6577
  268MOL0     H36158   9.687   8.046   2.950 -2.2950  1.1719  0.5281
  268MOL0     H36159   9.824   8.160   2.993  0.1696 -0.3117 -0.7204
  268MOL0     H36160   9.098   8.184   2.546  0.4221  0.1608  0.2509
  268MOL0     H36161   9.122   8.053   2.352 -1.3472  0.2776  3.5009
  268MOL0     H36162   9.205   8.011   1.961  2.8823  1.7789  2.7622
  268MOL0     H36163   9.188   7.894   1.735  0.5444  1.0830 -1.1146
  268MOL0     H36164   9.853   7.924   2.003 -1.0516 -1.2670 -0.0102
  268MOL0     H36165   9.790   8.119   2.141  1.9494 -0.0712  1.7379
  268MOL0     H36166  10.108   8.634   2.304  0.3318  1.1804  0.0712
  268MOL0     H36167  10.009   8.843   2.438  1.3345  0.3415 -1.0906
  268MOL0     H36168   9.638   8.791   2.586 -0.3264  0.2360  0.2668
  268MOL0     H36169   9.554   8.872   2.460  0.4021 -2.0529 -0.2676
  268MOL0     H36170   9.633   9.099   2.568 -1.9239  0.6381 -0.2837
  268MOL0     H36171   9.668   9.002   2.704  0.0447 -0.4053  0.4441
  268MOL0     H36172   9.390   8.998   2.575  1.3810  1.5236 -0.2606
  268MOL0     H36173   9.436   9.105   2.707  1.5517  0.1597 -0.0248
  268MOL0     H36174   9.435   8.802   2.714 -2.2411 -0.4015 -1.7403
  268MOL0     H36175   9.490   8.898   2.859 -1.3477 -1.0764  0.4849
  268MOL0     H36176   9.087   8.913   2.930  0.0656 -2.2903  0.5889
  268MOL0     H36177   9.619   8.683   2.359  0.8721  0.5158  0.9585
  268MOL0     H36178   9.665   8.479   2.140 -0.9159 -1.1823 -0.4642
  268MOL0     H36179   9.684   8.357   2.264 -0.8909  0.9215  3.0266
  268MOL0     H36180   9.575   8.498   2.291  0.1762  1.5830  1.5584
  269MOL0     O36181   8.766   0.444  11.389 -0.6887 -0.5270  0.4115
  269MOL0     C36182   8.799   0.362  11.476 -0.4039  0.1690  0.4019
  269MOL0     O36183   8.748   0.235  11.467 -0.3237  0.0398  0.3588
  269MOL0     C36184   8.715   0.188  11.339  0.3677 -0.7221 -0.3420
  269MOL0     C36185   8.826   0.183  11.247 -0.4356 -0.1802  0.1451
  269MOL0     C36186   8.817   0.096  11.129  0.9694 -0.6707  0.0189
  269MOL0     C36187   8.694   0.034  11.094  0.9332  0.6448 -0.5005
  269MOL0     O36188   8.671  -0.044  10.988  0.6588 -0.7278 -0.0497
  269MOL0     C36189   8.775  -0.100  10.910  0.0749  0.4734  0.4578
  269MOL0     C36190   8.721  -0.169  10.796 -0.9260 -0.9722  0.5211
  269MOL0     C36191   8.822  -0.231  10.704 -0.1266 -0.4047  1.0706
  269MOL0     C36192   8.887  -0.125  10.614 -0.1252 -0.5482  0.2813
  269MOL0     C36193   9.032  -0.139  10.548  0.2786 -1.0198  0.0115
  269MOL0     C36194   9.054  -0.015  10.455  0.2938 -0.1862  0.3482
  269MOL0     C36195   9.065   0.125  10.533  0.7387 -0.4163  0.4021
  269MOL0     C36196   9.061   0.234  10.428 -0.5641  0.0528 -0.5065
  269MOL0     N36197   9.067   0.371  10.477 -0.2570 -0.0437 -0.1446
  269MOL0     C36198   8.961   0.458  10.501 -1.3483  0.7651 -0.4025
  269MOL0     C36199   9.002   0.584  10.480 -0.7804 -0.0476 -0.8085
  269MOL0     C36200   8.923   0.712  10.468  0.5942  0.3240 -0.2027
  269MOL0     C36201   8.874   0.748  10.603  0.3398  0.5050  0.1922
  269MOL0     C36202   8.827   0.897  10.616 -0.3037 -0.6686  0.1250
  269MOL0     C36203   8.745   0.923  10.746 -0.2381  0.3323 -0.3571
  269MOL0     O36204   8.832   0.928  10.856  0.6615  0.2827 -0.1640
  269MOL0     C36205   8.798   0.988  10.972  0.1277 -0.0860  0.0540
  269MOL0     C36206   8.890   0.980  11.072  0.7058  0.0225 -0.3341
  269MOL0     C36207   8.871   1.041  11.196 -0.2253 -0.3370 -0.1608
  269MOL0     C36208   8.756   1.118  11.216  0.2191 -0.0899  0.1705
  269MOL0     C36209   8.734   1.197  11.346  0.1613 -0.0321  0.3713
  269MOL0     O36210   8.826   1.199  11.444  0.4593  0.6902  0.1581
  269MOL0     C36211   8.812   1.277  11.551  0.4510  0.4737  0.4358
  269MOL0     C36212   8.922   1.290  11.641 -0.2361 -0.6297 -0.5979
  269MOL0     C36213   8.923   1.373  11.763 -0.7177 -0.0193  1.0446
  269MOL0     C36214   8.804   1.422  11.804  0.3116 -0.4225  0.5667
  269MOL0     O36215   8.783   1.510  11.906 -0.9340  0.0450  0.0508
  269MOL0     C36216   8.845   1.640  11.903 -0.0905 -0.9614  0.1055
  269MOL0     C36217   8.753   1.741  11.835  0.5265 -0.0201 -0.7561
  269MOL0     C36218   8.679   1.812  11.939 -0.0099 -0.4280  1.2982
  269MOL0     C36219   8.570   1.895  11.865 -0.8284  0.5972  0.4894
  269MOL0     C36220   8.502   1.998  11.956 -0.5234  0.0840 -0.8604
  269MOL0     C36221   8.380   2.068  11.884  0.8927  0.5551  0.6630
  269MOL0     C36222   8.421   2.177  11.791 -0.0037  0.4415  0.1432
  269MOL0     C36223   8.307   2.287  11.777 -0.6683  0.8211  0.6649
  269MOL0    Cl36224   8.319   2.403  11.922 -0.0810  0.4226  0.2427
  269MOL0     C36225   8.687   1.407  11.729 -1.1436 -0.4504 -0.2336
  269MOL0     C36226   8.691   1.332  11.604  0.3033 -0.7221  0.1679
  269MOL0     O36227   8.633   1.268  11.344 -0.2616 -0.3434 -0.0939
  269MOL0     C36228   8.651   1.111  11.115  0.6812  0.5047 -0.1114
  269MOL0     C36229   8.671   1.048  10.998  0.0455  0.1014  0.7172
  269MOL0     N36230   9.139   0.578  10.447 -0.4331  0.1078  0.4108
  269MOL0     N36231   9.175   0.452  10.446  0.2746  0.1375 -0.1530
  269MOL0     C36232   8.589   0.056  11.187 -0.4170  0.3128 -0.4562
  269MOL0     C36233   8.595   0.125  11.308 -0.5770  0.5929  0.5129
  269MOL0     C36234   8.893   0.398  11.586  0.3552  0.2437 -0.5681
  269MOL0     C36235   8.955   0.293  11.640 -0.1711 -0.5075  0.0150
  269MOL0     C36236   9.052   0.316  11.743 -0.5791  0.3796  0.2654
  269MOL0     C36237   9.095   0.433  11.788 -0.4007 -1.0501  0.1187
  269MOL0     O36238   9.203   0.465  11.864  0.4084 -0.7367 -0.7781
  269MOL0     C36239   9.248   0.353  11.952  0.8730 -0.1588  1.2298
  269MOL0     C36240   9.374   0.409  12.037  0.3620 -0.9442 -0.5947
  269MOL0     C36241   9.434   0.310  12.132  0.1217 -0.1123 -0.3976
  269MOL0     C36242   9.552   0.363  12.206 -0.0288 -0.4135  0.4836
  269MOL0     C36243   9.640   0.250  12.236 -0.6204  0.6175 -0.2698
  269MOL0     C36244   9.709   0.154  12.257 -0.8210 -0.0129 -0.2435
  269MOL0     C36245   9.027   0.543  11.730  0.5615 -0.4082 -0.3870
  269MOL0     C36246   8.932   0.534  11.626  0.3500  0.6928 -0.4835
  269MOL0     C36247   8.856   0.647  11.582  1.0229  0.2583 -0.0022
  269MOL0     H36248   8.919   0.232  11.273  0.8093 -2.7261  0.7947
  269MOL0     H36249   8.897   0.085  11.056  2.8052  3.8924  1.0240
  269MOL0     H36250   8.837  -0.019  10.870 -0.0820 -0.3568 -1.5570
  269MOL0     H36251   8.828  -0.161  10.984  1.3025 -2.5501 -2.6938
  269MOL0     H36252   8.669  -0.091  10.740  6.6998  2.3814 -3.3665
  269MOL0     H36253   8.649  -0.247  10.822 -2.8854 -0.2189 -2.1685
  269MOL0     H36254   8.775  -0.307  10.642  3.1359 -2.1159  0.4739
  269MOL0     H36255   8.901  -0.287  10.756  1.0812 -0.5128 -0.7758
  269MOL0     H36256   8.812  -0.095  10.541 -1.4513  0.0191  1.8136
  269MOL0     H36257   8.880  -0.021  10.649  0.2709  0.5588 -2.6294
  269MOL0     H36258   9.103  -0.135  10.631 -1.5120 -1.2323  1.5939
  269MOL0     H36259   9.051  -0.230  10.491  0.3820 -1.4998  0.8121
  269MOL0     H36260   9.149  -0.025  10.400 -0.7360 -2.0730 -1.2049
  269MOL0     H36261   8.975  -0.008  10.379  0.1289  0.3860  0.5688
  269MOL0     H36262   9.158   0.136  10.591 -0.0612  0.8975  1.4944
  269MOL0     H36263   8.985   0.148  10.603  1.4484 -1.1598  1.4963
  269MOL0     H36264   9.148   0.213  10.366  1.4208  3.1505  1.0102
  269MOL0     H36265   8.966   0.212  10.378 -0.2100 -1.4500 -0.5561
  269MOL0     H36266   8.859   0.427  10.522 -0.9799 -1.7953 -1.9319
  269MOL0     H36267   8.970   0.804  10.433 -3.3330  1.9567 -1.8417
  269MOL0     H36268   8.833   0.689  10.410  0.6220 -1.6168  0.4606
  269MOL0     H36269   8.783   0.690  10.623 -0.2370  1.7692  1.4695
  269MOL0     H36270   8.954   0.732  10.675  2.4186 -1.7369 -2.4395
  269MOL0     H36271   8.764   0.914  10.528  0.4082  2.1399  0.0593
  269MOL0     H36272   8.908   0.970  10.608 -0.2548 -0.8496 -1.2322
  269MOL0     H36273   8.686   0.832  10.760  0.6767 -0.6710 -2.5089
  269MOL0     H36274   8.682   1.010  10.724 -0.1652  0.2624 -0.8395
  269MOL0     H36275   8.976   0.921  11.042 -1.3899 -2.4677 -1.8155
  269MOL0     H36276   8.955   1.043  11.265  0.9013  1.0723 -1.4897
  269MOL0     H36277   9.022   1.250  11.629 -0.3841 -1.1744 -0.0585
  269MOL0     H36278   9.019   1.409  11.799  0.9171 -1.0880 -1.8248
  269MOL0     H36279   8.879   1.661  12.004 -0.0220 -3.4982  0.6804
  269MOL0     H36280   8.941   1.632  11.851  0.2790 -3.0361  0.9914
  269MOL0     H36281   8.807   1.818  11.779 -1.4600  1.9266 -0.1313
  269MOL0     H36282   8.692   1.696  11.757  1.5937 -1.6274 -0.7016
  269MOL0     H36283   8.623   1.742  12.001 -1.6085 -0.6490 -0.3053
  269MOL0     H36284   8.737   1.882  11.999 -2.6041 -0.9010  4.6402
  269MOL0     H36285   8.490   1.832  11.826  0.9513 -1.4563 -0.0629
  269MOL0     H36286   8.620   1.938  11.777 -0.6212 -3.1901 -1.4544
  269MOL0     H36287   8.569   2.070  12.004 -0.8340 -1.1163  1.5154
  269MOL0     H36288   8.455   1.935  12.032 -0.2657 -2.2965 -2.5446
  269MOL0     H36289   8.324   2.000  11.820  1.7879  0.8141 -0.4203
  269MOL0     H36290   8.314   2.110  11.961  1.1550  1.9233  0.1696
  269MOL0     H36291   8.442   2.140  11.691 -0.0826  0.7288  0.0183
  269MOL0     H36292   8.507   2.227  11.836 -0.1241  0.7048  0.0889
  269MOL0     H36293   8.324   2.348  11.688 -2.6108  1.8527  0.9440
  269MOL0     H36294   8.208   2.241  11.777  0.2970 -1.4714  2.3126
  269MOL0     H36295   8.594   1.453  11.763 -1.6185 -1.8369  0.3840
  269MOL0     H36296   8.597   1.330  11.550  1.4059  1.5741 -1.9991
  269MOL0     H36297   8.554   1.160  11.121 -0.3067 -1.1655 -1.4393
  269MOL0     H36298   8.599   1.060  10.918  0.4607  4.0949  0.7861
  269MOL0     H36299   8.502   0.004  11.148  2.0203 -2.4666 -2.7391
  269MOL0     H36300   8.504   0.136  11.366 -1.4807  0.7922 -0.8846
  269MOL0     H36301   8.937   0.193  11.603  1.0550 -0.4688 -0.7615
  269MOL0     H36302   9.108   0.227  11.770  2.4820  2.2124  0.5431
  269MOL0     H36303   9.289   0.272  11.891 -2.1850 -2.0474  1.4574
  269MOL0     H36304   9.177   0.305  12.021  1.4422  0.6578  2.4151
  269MOL0     H36305   9.333   0.490  12.098 -0.6831 -2.1885  0.4293
  269MOL0     H36306   9.450   0.451  11.971  0.2111  3.6849  1.7831
  269MOL0     H36307   9.461   0.223  12.071  0.0562  1.0063 -2.0908
  269MOL0     H36308   9.355   0.271  12.198  0.9574  0.4315  0.9579
  269MOL0     H36309   9.606   0.436  12.145 -2.3498 -0.8131 -2.2777
  269MOL0     H36310   9.516   0.416  12.294 -1.8100  0.6162 -0.8062
  269MOL0     H36311   9.777   0.073  12.275 -0.2863  0.3476 -0.6183
  269MOL0     H36312   9.052   0.642  11.766 -1.3831 -0.3088  0.8392
  269MOL0     H36313   8.756   0.617  11.552  2.1914 -1.0895 -2.8989
  269MOL0     H36314   8.849   0.718  11.666  3.4635 -1.8691  2.1850
  269MOL0     H36315   8.893   0.691  11.489  4.2414 -3.5177 -0.7607
  270MOL0     O36316   9.647   9.516   1.779 -0.0218 -0.2984 -0.9857
  270MOL0     C36317   9.672   9.406   1.740  0.7203 -0.0073 -0.8397
  270MOL0     O36318   9.682   9.299   1.815 -0.2994  0.3276  0.7765
  270MOL0     C36319   9.619   9.288   1.932 -0.2357 -0.3470  0.4673
  270MOL0     C36320   9.685   9.207   2.023 -0.0939 -0.8546  0.5419
  270MOL0     C36321   9.624   9.184   2.149 -0.4930  0.1697 -0.5813
  270MOL0     C36322   9.502   9.241   2.185  0.9965  0.7139 -0.4706
  270MOL0     O36323   9.442   9.213   2.310  0.1691  0.5413  0.4166
  270MOL0     C36324   9.345   9.306   2.340  0.1642  0.6074  0.1186
  270MOL0     C36325   9.339   9.298   2.491 -0.7600  0.0448  0.2493
  270MOL0     C36326   9.215   9.350   2.558  0.0441 -0.5911  0.2542
  270MOL0     C36327   9.175   9.278   2.691  0.3555 -0.4153  0.2201
  270MOL0     C36328   9.035   9.299   2.737 -0.1284 -0.7075 -0.3322
  270MOL0     C36329   9.018   9.260   2.881 -0.1503 -0.0566 -0.5884
  270MOL0     C36330   8.870   9.242   2.930  0.3733 -0.2846 -0.8285
  270MOL0     C36331   8.791   9.364   2.949 -0.1944  0.6666  0.7654
  270MOL0     N36332   8.650   9.329   2.987 -0.5546 -0.4548  1.0184
  270MOL0     C36333   8.559   9.290   2.894 -0.4944  0.0099 -0.3939
  270MOL0     C36334   8.443   9.258   2.962 -0.2559  0.1949  0.5431
  270MOL0     C36335   8.309   9.228   2.903  0.4247  0.9648  0.3947
  270MOL0     C36336   8.194   9.314   2.965 -0.6987 -0.4485 -1.0109
  270MOL0     C36337   8.122   9.228   3.068  0.8704 -0.4475 -0.0179
  270MOL0     C36338   8.031   9.313   3.165 -0.1850  0.4619  0.3240
  270MOL0     O36339   7.970   9.404   3.081 -0.1834  0.0055  0.4376
  270MOL0     C36340   7.898   9.510   3.124  1.0972 -0.1254 -0.0282
  270MOL0     C36341   7.878   9.621   3.036  0.5329 -0.2356 -0.3476
  270MOL0     C36342   7.806   9.731   3.080 -0.4786  0.7906 -0.7057
  270MOL0     C36343   7.748   9.738   3.211  0.3941 -0.0133 -0.5213
  270MOL0     C36344   7.662   9.852   3.242 -0.3919 -1.3129 -0.0195
  270MOL0     O36345   7.638   9.930   3.135  0.3368  0.3446 -0.0905
  270MOL0     C36346   7.580  10.046   3.157 -0.5561  0.6227  0.5476
  270MOL0     C36347   7.642  10.152   3.229  0.8010 -0.2195  1.5241
  270MOL0     C36348   7.563  10.273   3.262  0.8266  0.4714  1.3173
  270MOL0     C36349   7.427  10.282   3.207  0.5217  0.2739  0.1392
  270MOL0     O36350   7.370  10.403   3.236 -0.6318 -0.1528 -0.2581
  270MOL0     C36351   7.228  10.412   3.255 -0.2674 -0.3940 -0.5587
  270MOL0     C36352   7.187  10.513   3.375  0.2569  0.5988  0.5422
  270MOL0     C36353   7.153  10.659   3.340 -0.4772 -0.4819  0.1963
  270MOL0     C36354   7.260  10.760   3.395 -0.0987  0.6052  0.5538
  270MOL0     C36355   7.225  10.901   3.342 -1.2055  0.3556 -0.3664
  270MOL0     C36356   7.327  11.011   3.367 -0.3459  0.4930 -0.3183
  270MOL0     C36357   7.278  11.145   3.309 -0.3260 -0.1431  0.5497
  270MOL0     C36358   7.330  11.257   3.382 -0.1411  0.4217 -0.5381
  270MOL0    Cl36359   7.507  11.276   3.381 -0.4317  0.2801 -0.0582
  270MOL0     C36360   7.368  10.170   3.150  0.0438  0.7122 -0.0912
  270MOL0     C36361   7.441  10.054   3.128 -0.2967 -0.5389 -0.6559
  270MOL0     O36362   7.617   9.874   3.349 -0.8900  0.5260  0.0869
  270MOL0     C36363   7.769   9.631   3.305  0.0884 -0.0652 -0.7343
  270MOL0     C36364   7.840   9.517   3.256 -0.1793 -1.3018  0.3254
  270MOL0     N36365   8.462   9.261   3.096  0.0405 -0.0075 -0.9485
  270MOL0     N36366   8.593   9.298   3.112 -0.2550  0.0596  0.2667
  270MOL0     C36367   9.444   9.323   2.085  0.6062  0.4513  0.1385
  270MOL0     C36368   9.491   9.346   1.961  1.0473 -0.1445  0.5314
  270MOL0     C36369   9.689   9.383   1.599  0.3080 -0.3693  1.1541
  270MOL0     C36370   9.724   9.248   1.557  0.4797 -0.4544 -0.1662
  270MOL0     C36371   9.744   9.209   1.429 -0.0574  0.4929  0.0078
  270MOL0     C36372   9.716   9.294   1.324  0.1286  0.0945  0.2182
  270MOL0     O36373   9.715   9.263   1.187  0.1332 -0.2229 -0.0163
  270MOL0     C36374   9.841   9.267   1.120  0.0219  0.0553 -0.0831
  270MOL0     C36375   9.872   9.397   1.058 -0.5561 -1.2369  0.0775
  270MOL0     C36376   9.761   9.458   0.969  0.7102  0.3591  0.3541
  270MOL0     C36377   9.744   9.386   0.839  0.6876  0.4563 -0.7424
  270MOL0     C36378   9.601   9.390   0.798 -1.3973 -0.0357 -0.0649
  270MOL0     C36379   9.488   9.380   0.756  0.4893  0.6294 -0.5367
  270MOL0     C36380   9.676   9.421   1.367 -1.1544  0.2088 -0.6531
  270MOL0     C36381   9.671   9.474   1.491 -0.2725  0.5456  0.6891
  270MOL0     C36382   9.637   9.611   1.511 -0.0185  0.3512  0.4567
  270MOL0     H36383   9.777   9.161   1.990  0.3209  0.4375 -0.1865
  270MOL0     H36384   9.662   9.110   2.219 -2.8226  0.1661  0.7735
  270MOL0     H36385   9.358   9.406   2.298 -1.2766 -0.3962 -2.9502
  270MOL0     H36386   9.251   9.264   2.304  0.6357  0.6377 -1.1989
  270MOL0     H36387   9.411   9.365   2.540 -1.0646  1.4757 -1.1747
  270MOL0     H36388   9.366   9.198   2.524  0.0311 -0.3697 -1.5253
  270MOL0     H36389   9.131   9.335   2.488 -0.8030 -2.0692  1.5303
  270MOL0     H36390   9.235   9.453   2.588 -2.4403  0.0030  0.1102
  270MOL0     H36391   9.199   9.172   2.680  0.2740 -0.2742 -1.4465
  270MOL0     H36392   9.247   9.317   2.763  0.7938 -0.4279 -0.2135
  270MOL0     H36393   9.000   9.403   2.737 -0.8931 -0.6312  5.2588
  270MOL0     H36394   8.972   9.251   2.662  2.2276 -1.6246 -1.8356
  270MOL0     H36395   9.052   9.157   2.896 -2.0447 -0.7574 -0.7598
  270MOL0     H36396   9.069   9.324   2.953 -0.6106  1.0533 -1.2308
  270MOL0     H36397   8.866   9.194   3.029  0.2155 -2.3166 -1.7796
  270MOL0     H36398   8.822   9.179   2.855  0.9665  0.5838 -1.9689
  270MOL0     H36399   8.837   9.424   3.028 -0.1725  2.7844 -0.7564
  270MOL0     H36400   8.802   9.419   2.855  3.3161 -1.1971 -0.0570
  270MOL0     H36401   8.571   9.302   2.787 -1.1169  1.7121 -0.3004
  270MOL0     H36402   8.312   9.249   2.795  0.8475 -0.2911  0.1413
  270MOL0     H36403   8.289   9.121   2.897 -1.1493  1.2693 -0.0719
  270MOL0     H36404   8.225   9.406   3.015 -3.6802 -0.8703  1.9751
  270MOL0     H36405   8.138   9.359   2.883 -4.9946  0.2543  1.9711
  270MOL0     H36406   8.190   9.166   3.127  2.5630  2.2602  1.1044
  270MOL0     H36407   8.048   9.156   3.032 -1.6495  1.8566  0.1922
  270MOL0     H36408   8.083   9.358   3.250 -0.5877 -1.0039  1.3783
  270MOL0     H36409   7.957   9.246   3.211  0.5430  0.3708  1.4096
  270MOL0     H36410   7.908   9.621   2.932 -4.6787  0.8736 -2.1449
  270MOL0     H36411   7.777   9.802   3.004 -0.5846 -0.9690 -2.3650
  270MOL0     H36412   7.748  10.159   3.249  1.5931  0.4370 -2.0649
  270MOL0     H36413   7.590  10.351   3.332 -0.8631  1.2131  1.1909
  270MOL0     H36414   7.181  10.458   3.167  1.6433 -0.0863 -1.4613
  270MOL0     H36415   7.182  10.314   3.272 -1.6518  0.1579 -0.9398
  270MOL0     H36416   7.102  10.469   3.428  0.9664  1.0655  2.1389
  270MOL0     H36417   7.283  10.504   3.427  1.0844 -1.6752 -1.2155
  270MOL0     H36418   7.157  10.671   3.232  1.5010 -1.3907  0.1166
  270MOL0     H36419   7.054  10.687   3.377 -0.2561 -0.2541  0.6243
  270MOL0     H36420   7.359  10.732   3.359 -0.5061  0.8433 -0.8281
  270MOL0     H36421   7.257  10.755   3.504 -0.4905  0.8006  0.5527
  270MOL0     H36422   7.130  10.922   3.392 -2.2497 -5.3023  0.7157
  270MOL0     H36423   7.232  10.903   3.233 -1.2792 -0.2531 -0.3905
  270MOL0     H36424   7.333  11.027   3.475 -1.7034  0.6415 -0.2525
  270MOL0     H36425   7.425  10.974   3.336  0.7843  3.7503 -0.9598
  270MOL0     H36426   7.170  11.140   3.297 -0.1806 -2.2724 -0.4296
  270MOL0     H36427   7.321  11.169   3.212 -0.3003  2.1367  1.0810
  270MOL0     H36428   7.279  11.347   3.348 -2.1169  0.1016  1.3542
  270MOL0     H36429   7.300  11.242   3.486 -0.8384 -0.9283 -0.9015
  270MOL0     H36430   7.269  10.176   3.106  0.3741 -1.8263 -1.4197
  270MOL0     H36431   7.400   9.958   3.098 -3.7465  0.4084  0.5599
  270MOL0     H36432   7.717   9.645   3.400 -0.1528 -0.0934 -0.8626
  270MOL0     H36433   7.829   9.431   3.321  0.1650 -1.6620 -0.0850
  270MOL0     H36434   9.348   9.370   2.106  0.2661 -0.6959  1.2558
  270MOL0     H36435   9.432   9.418   1.903  2.0264  1.0066  0.9245
  270MOL0     H36436   9.738   9.169   1.630  2.7004 -1.9951 -2.1012
  270MOL0     H36437   9.771   9.105   1.417 -0.1531  0.3333  1.0806
  270MOL0     H36438   9.836   9.200   1.033 -3.8919  2.0888 -1.6650
  270MOL0     H36439   9.912   9.251   1.202 -1.0629  0.2563  0.9081
  270MOL0     H36440   9.966   9.391   1.003 -0.0155  1.6611  0.5442
  270MOL0     H36441   9.899   9.464   1.140  1.2294 -1.0766 -0.6098
  270MOL0     H36442   9.784   9.562   0.943 -2.9680  1.5211  1.0784
  270MOL0     H36443   9.662   9.465   1.016  1.2564 -2.2575  2.1448
  270MOL0     H36444   9.806   9.437   0.765 -0.4664  1.6431 -0.9417
  270MOL0     H36445   9.761   9.278   0.838  1.8482  0.6288 -0.3327
  270MOL0     H36446   9.388   9.368   0.721  0.2865  0.2401  0.1640
  270MOL0     H36447   9.666   9.487   1.281  2.4263 -1.1888 -2.3165
  270MOL0     H36448   9.722   9.659   1.560  1.3852 -3.1875  1.8032
  270MOL0     H36449   9.605   9.661   1.419 -0.8219 -0.2903  0.3758
  270MOL0     H36450   9.546   9.610   1.571  1.9265  0.3281  3.6240
  271MOL0     O36451   9.056   6.712   9.202 -0.0316  0.4652 -0.0320
  271MOL0     C36452   9.021   6.827   9.202  0.6616  0.5795  0.1529
  271MOL0     O36453   9.019   6.917   9.096 -0.6196  0.0384 -1.0737
  271MOL0     C36454   9.073   6.868   8.975 -0.2300  0.7606 -1.2058
  271MOL0     C36455   9.204   6.884   8.937 -0.8356  0.2224 -0.1218
  271MOL0     C36456   9.254   6.847   8.813 -0.1441  0.0691  0.2161
  271MOL0     C36457   9.163   6.791   8.723  0.2102  0.2276  0.4357
  271MOL0     O36458   9.227   6.756   8.610  0.7056  0.2034  0.6317
  271MOL0     C36459   9.150   6.684   8.512 -0.0557 -0.2053  0.3868
  271MOL0     C36460   9.218   6.696   8.379  0.0691  0.8012  0.3295
  271MOL0     C36461   9.157   6.611   8.269  0.6272  0.3296 -0.2994
  271MOL0     C36462   9.011   6.648   8.234  0.3324 -0.0333 -1.4963
  271MOL0     C36463   8.963   6.557   8.121 -1.0277  0.2597  0.1098
  271MOL0     C36464   8.878   6.445   8.165 -0.2678 -0.6123  0.2380
  271MOL0     C36465   8.841   6.355   8.044  0.5759  0.6940 -0.1230
  271MOL0     C36466   8.690   6.322   8.052 -0.4429  1.0117 -0.0571
  271MOL0     N36467   8.660   6.205   7.973  0.2201  0.3052 -0.7644
  271MOL0     C36468   8.687   6.072   8.010 -0.0484  0.1373 -1.0934
  271MOL0     C36469   8.648   5.998   7.904 -0.7218  0.0778 -0.1342
  271MOL0     C36470   8.629   5.846   7.890  0.5752 -0.3147  1.2112
  271MOL0     C36471   8.480   5.832   7.833  0.8800  1.0816 -0.0734
  271MOL0     C36472   8.430   5.685   7.846 -0.3971 -0.0205  0.0295
  271MOL0     C36473   8.292   5.668   7.792  0.1174 -0.2090  0.4005
  271MOL0     O36474   8.211   5.683   7.909  0.2215 -0.6745 -0.2314
  271MOL0     C36475   8.070   5.703   7.905 -1.2037 -0.5818  0.8974
  271MOL0     C36476   8.008   5.741   8.025 -0.8246 -0.0299  1.2533
  271MOL0     C36477   7.877   5.785   8.021  0.4077 -0.0259  0.0804
  271MOL0     C36478   7.804   5.788   7.903  0.5779  0.7183 -0.0026
  271MOL0     C36479   7.664   5.837   7.905 -0.3900  0.5772 -0.7873
  271MOL0     O36480   7.606   5.861   7.785  0.5904 -0.1577  0.3482
  271MOL0     C36481   7.483   5.925   7.771  0.2782  0.5127  0.0619
  271MOL0     C36482   7.373   5.917   7.859  0.8780 -0.4632  0.3283
  271MOL0     C36483   7.261   6.002   7.834 -0.6465 -0.3366  0.1114
  271MOL0     C36484   7.246   6.084   7.720 -0.9910  0.8327  1.0273
  271MOL0     O36485   7.123   6.142   7.686 -1.2063  0.7537 -0.1647
  271MOL0     C36486   7.062   6.221   7.792 -0.4940 -0.1072 -0.2718
  271MOL0     C36487   6.906   6.197   7.774  0.0909  0.5376  1.0788
  271MOL0     C36488   6.882   6.049   7.806 -0.9461 -0.7650 -0.0408
  271MOL0     C36489   6.739   6.011   7.777  0.4664 -0.1172  0.3703
  271MOL0     C36490   6.707   5.868   7.844  0.1855  0.3340  0.9003
  271MOL0     C36491   6.701   5.858   7.996  0.5944  0.0163  0.3307
  271MOL0     C36492   6.596   5.956   8.054 -0.3497  0.3533 -0.7071
  271MOL0     C36493   6.601   5.939   8.204 -0.0724 -0.3349 -0.8712
  271MOL0    Cl36494   6.741   6.032   8.268  0.4032  0.3984  0.3097
  271MOL0     C36495   7.357   6.093   7.633 -0.6498 -0.7467 -0.1540
  271MOL0     C36496   7.476   6.016   7.660  0.3179 -0.9842 -0.3266
  271MOL0     O36497   7.626   5.874   8.012  0.4305 -0.3412  0.0374
  271MOL0     C36498   7.862   5.744   7.781  0.7990 -0.7124  0.0504
  271MOL0     C36499   7.998   5.702   7.784  0.2850  0.2049  0.4648
  271MOL0     N36500   8.588   6.093   7.812  0.6234  0.1241 -0.4099
  271MOL0     N36501   8.609   6.216   7.846  0.5091 -0.5414  0.2580
  271MOL0     C36502   9.033   6.767   8.762  0.5109  0.0074 -0.4869
  271MOL0     C36503   8.988   6.796   8.892  0.0155  0.0255  0.6858
  271MOL0     C36504   8.947   6.856   9.320 -0.3313 -0.9563 -0.1612
  271MOL0     C36505   9.016   6.950   9.402  0.1461 -0.2620 -0.6369
  271MOL0     C36506   8.959   6.977   9.526  0.5068 -0.2997  0.5319
  271MOL0     C36507   8.834   6.943   9.564 -0.0893 -0.0349 -0.2131
  271MOL0     O36508   8.788   6.986   9.690 -0.1332  0.3988  0.7491
  271MOL0     C36509   8.653   6.955   9.741 -1.1525 -0.5783 -0.2474
  271MOL0     C36510   8.637   7.010   9.886  0.0873  0.4194 -0.4745
  271MOL0     C36511   8.743   6.927   9.977  0.1855 -0.0099  1.5501
  271MOL0     C36512   8.705   6.898  10.122 -0.5146 -0.2327  0.4074
  271MOL0     C36513   8.567   6.857  10.132  0.0170  0.4429  0.1888
  271MOL0     C36514   8.456   6.815  10.156 -0.1163  0.4794 -0.4642
  271MOL0     C36515   8.769   6.855   9.476  0.0870 -1.0119  1.2310
  271MOL0     C36516   8.822   6.808   9.355 -0.8067  0.9238 -0.0671
  271MOL0     C36517   8.753   6.701   9.268  0.3216 -0.2061  0.3147
  271MOL0     H36518   9.277   6.924   9.006  0.9684 -3.0518  0.0805
  271MOL0     H36519   9.347   6.876   8.766 -1.4325 -0.2052 -2.7657
  271MOL0     H36520   9.165   6.580   8.544  2.2570 -0.1001 -0.1366
  271MOL0     H36521   9.047   6.719   8.501  0.6846  1.3234 -3.0021
  271MOL0     H36522   9.322   6.664   8.382 -0.5231 -1.6343 -1.6763
  271MOL0     H36523   9.220   6.798   8.341  1.9154  0.0820 -1.6474
  271MOL0     H36524   9.150   6.513   8.319 -3.3082  1.0038  0.8508
  271MOL0     H36525   9.213   6.604   8.176 -1.4476  1.8070 -1.7342
  271MOL0     H36526   8.942   6.635   8.318  0.7045 -2.3898 -1.5069
  271MOL0     H36527   9.020   6.755   8.211 -0.9075  0.4840  0.2554
  271MOL0     H36528   8.909   6.628   8.058  2.2057  2.7295 -0.1589
  271MOL0     H36529   9.045   6.523   8.056  0.9728 -0.7871  2.9615
  271MOL0     H36530   8.934   6.379   8.231 -1.6947 -2.2412 -0.1115
  271MOL0     H36531   8.796   6.497   8.217  0.6855 -0.1673  1.3564
  271MOL0     H36532   8.901   6.265   8.052  2.0956  1.8012  1.7454
  271MOL0     H36533   8.864   6.397   7.945 -0.8748  0.0245 -0.7852
  271MOL0     H36534   8.650   6.316   8.154 -2.0467 -0.8435 -0.7351
  271MOL0     H36535   8.639   6.410   8.013 -0.8722  1.0473  0.5642
  271MOL0     H36536   8.722   6.036   8.107  0.7372  1.5087 -0.8471
  271MOL0     H36537   8.706   5.788   7.837 -0.5389 -1.6128  0.9687
  271MOL0     H36538   8.634   5.800   7.989  3.6202  0.3697  1.4782
  271MOL0     H36539   8.416   5.903   7.885  0.7756  0.6935  0.3350
  271MOL0     H36540   8.488   5.859   7.727  2.8856  1.5318  0.1549
  271MOL0     H36541   8.432   5.645   7.948  0.6487  2.0045  0.8592
  271MOL0     H36542   8.492   5.625   7.778 -2.0054 -1.4621 -0.2303
  271MOL0     H36543   8.282   5.570   7.743 -4.6307  0.6571 -0.9242
  271MOL0     H36544   8.264   5.729   7.706  3.4698 -1.9527 -2.1246
  271MOL0     H36545   8.061   5.739   8.119  0.6437 -2.9366  0.5103
  271MOL0     H36546   7.828   5.812   8.114  0.9716  0.1873  0.3151
  271MOL0     H36547   7.369   5.843   7.938 -1.5368  0.5278  1.2284
  271MOL0     H36548   7.166   5.987   7.885 -1.3179 -3.1588 -1.6913
  271MOL0     H36549   7.095   6.199   7.894 -0.0318 -0.6408 -0.5301
  271MOL0     H36550   7.092   6.326   7.784 -0.6389  0.1799  2.1971
  271MOL0     H36551   6.855   6.264   7.843 -1.4311 -0.5443  1.0529
  271MOL0     H36552   6.870   6.224   7.674 -0.0753 -4.7341 -0.6126
  271MOL0     H36553   6.950   5.979   7.756 -1.3007 -2.0256  1.1807
  271MOL0     H36554   6.901   6.036   7.913  1.7541 -1.9080 -0.5659
  271MOL0     H36555   6.731   5.998   7.669 -1.7590  0.1420  0.4441
  271MOL0     H36556   6.664   6.087   7.801  1.6522  1.7637 -1.5291
  271MOL0     H36557   6.784   5.802   7.802  0.2458  1.5299 -1.0169
  271MOL0     H36558   6.609   5.839   7.805 -1.1113  4.0771  1.0215
  271MOL0     H36559   6.666   5.758   8.024 -0.6397  0.7148  1.3995
  271MOL0     H36560   6.803   5.865   8.037  0.1154 -0.2375  1.6144
  271MOL0     H36561   6.500   5.932   8.006  0.1018  0.5851 -1.7406
  271MOL0     H36562   6.631   6.057   8.034 -1.7762  1.0279  0.0198
  271MOL0     H36563   6.512   5.989   8.243  0.2379  2.0772 -3.0043
  271MOL0     H36564   6.608   5.835   8.238  4.1950  0.3360  1.0739
  271MOL0     H36565   7.353   6.166   7.553 -0.3227 -0.3998  0.1474
  271MOL0     H36566   7.568   6.034   7.606  1.3393 -3.2518  0.5070
  271MOL0     H36567   7.797   5.754   7.694 -2.1256 -1.1566  2.0312
  271MOL0     H36568   8.046   5.678   7.690 -0.6097  3.0213 -0.8621
  271MOL0     H36569   8.979   6.709   8.687  1.2700 -2.0920  0.4966
  271MOL0     H36570   8.888   6.772   8.928 -1.3490  0.9315 -2.1996
  271MOL0     H36571   9.106   7.000   9.369  0.6442 -0.9208 -0.2926
  271MOL0     H36572   9.003   7.055   9.588 -0.3378 -1.4589  2.6782
  271MOL0     H36573   8.629   6.849   9.739  1.7242 -1.3241 -0.7043
  271MOL0     H36574   8.577   7.005   9.681  0.1949  1.1736 -0.5813
  271MOL0     H36575   8.533   6.990   9.911 -0.0254  0.7375 -0.6822
  271MOL0     H36576   8.663   7.116   9.897  1.7236 -0.0451  0.4631
  271MOL0     H36577   8.845   6.967   9.973  0.5403 -0.6811  3.1560
  271MOL0     H36578   8.751   6.832   9.925  1.2338  0.3764  0.9781
  271MOL0     H36579   8.778   6.821  10.150  0.9338  1.5598  1.8546
  271MOL0     H36580   8.712   6.993  10.177 -0.2326 -0.3645  0.5998
  271MOL0     H36581   8.353   6.789  10.172 -0.0192 -0.3571 -1.1089
  271MOL0     H36582   8.676   6.809   9.507 -1.7946  2.1671  0.7462
  271MOL0     H36583   8.662   6.650   9.298  0.4575 -1.1715 -0.8442
  271MOL0     H36584   8.739   6.749   9.170 -1.6989 -1.1125  0.1324
  271MOL0     H36585   8.824   6.618   9.263  0.8378  0.2867 -0.9233
  272MOL0     O36586   0.889   4.148   6.023 -0.4445 -0.2961 -0.1366
  272MOL0     C36587   0.809   4.056   6.058 -0.3784 -0.2107 -0.2636
  272MOL0     O36588   0.805   3.934   5.992  0.0386 -0.3335 -0.8035
  272MOL0     C36589   0.903   3.912   5.904  0.7860  0.9232 -0.2511
  272MOL0     C36590   0.872   3.908   5.774 -0.2119  1.2236  0.7058
  272MOL0     C36591   0.960   3.863   5.681 -1.3984 -1.1533 -0.4896
  272MOL0     C36592   1.090   3.821   5.722  0.5256 -0.3008 -0.1989
  272MOL0     O36593   1.175   3.781   5.626  0.7395 -0.1844 -0.6565
  272MOL0     C36594   1.274   3.871   5.581 -0.7158 -0.3709 -0.3579
  272MOL0     C36595   1.409   3.812   5.522  0.1956 -0.2154 -0.5691
  272MOL0     C36596   1.484   3.722   5.629 -0.1529 -0.1490  0.2400
  272MOL0     C36597   1.623   3.785   5.678  0.2182  0.0345  0.1142
  272MOL0     C36598   1.713   3.715   5.779 -0.1196  0.0600 -0.5126
  272MOL0     C36599   1.658   3.695   5.925 -0.0425 -0.4669  0.4058
  272MOL0     C36600   1.769   3.632   6.018  0.5702 -0.1390  0.8727
  272MOL0     C36601   1.748   3.672   6.168 -0.7212  0.3486  0.6236
  272MOL0     N36602   1.863   3.629   6.240 -0.5491  0.2967  0.1029
  272MOL0     C36603   1.873   3.617   6.378  0.4610 -0.3656 -0.8793
  272MOL0     C36604   1.998   3.562   6.406 -0.3383  0.7583  0.9450
  272MOL0     C36605   2.037   3.514   6.545 -0.7181 -0.4243  0.6378
  272MOL0     C36606   2.065   3.629   6.645 -0.5896 -0.1738 -0.2198
  272MOL0     C36607   2.089   3.571   6.785 -0.0411  0.4191 -0.4573
  272MOL0     C36608   2.236   3.544   6.802  0.1467 -0.6802  0.8546
  272MOL0     O36609   2.314   3.667   6.809  0.2793  0.0832 -0.6507
  272MOL0     C36610   2.443   3.669   6.750  0.2971  0.8521  0.0010
  272MOL0     C36611   2.540   3.734   6.828  0.4885  0.3857  0.3958
  272MOL0     C36612   2.673   3.739   6.789 -0.9708 -0.2499  0.2839
  272MOL0     C36613   2.717   3.691   6.660  0.5539 -0.6479 -0.6445
  272MOL0     C36614   2.857   3.709   6.608  0.1785  0.5339  0.0115
  272MOL0     O36615   2.946   3.812   6.625  0.3058  0.0388  0.4037
  272MOL0     C36616   2.892   3.944   6.641 -0.1391  0.2021  0.1757
  272MOL0     C36617   2.955   4.025   6.738 -0.3265  0.6962 -0.6138
  272MOL0     C36618   2.910   4.156   6.753  0.3738 -0.4162  0.1579
  272MOL0     C36619   2.816   4.214   6.669  0.2005 -1.3649  0.3958
  272MOL0     O36620   2.778   4.344   6.675  0.0105  0.5216 -0.9552
  272MOL0     C36621   2.708   4.383   6.794 -1.3748  1.3312  0.1124
  272MOL0     C36622   2.632   4.510   6.775 -0.3799  0.5836 -0.1969
  272MOL0     C36623   2.564   4.565   6.901 -0.6675 -0.3307  0.5276
  272MOL0     C36624   2.443   4.491   6.936  0.0542 -0.3368  0.5152
  272MOL0     C36625   2.310   4.543   6.877  0.3716  0.2310 -0.1581
  272MOL0     C36626   2.213   4.423   6.880 -0.5305  0.3808 -0.9900
  272MOL0     C36627   2.080   4.465   6.832  0.4458 -0.1571 -0.9446
  272MOL0     C36628   1.990   4.476   6.955  0.8469  0.2589  0.7560
  272MOL0    Cl36629   1.826   4.519   6.891  0.0764 -0.3724  0.0475
  272MOL0     C36630   2.762   4.130   6.573  0.6083  0.7960  1.0481
  272MOL0     C36631   2.796   3.992   6.560 -0.1246 -0.8914 -0.6449
  272MOL0     O36632   2.890   3.599   6.570  0.7265 -0.4341  0.4319
  272MOL0     C36633   2.616   3.626   6.582  0.7877 -0.3552  0.5057
  272MOL0     C36634   2.479   3.622   6.627 -1.0426 -0.0072  0.0070
  272MOL0     N36635   2.066   3.547   6.290 -0.1061  0.0072 -0.3867
  272MOL0     N36636   1.986   3.589   6.189 -0.0954 -0.7712  0.4672
  272MOL0     C36637   1.125   3.835   5.861 -0.3934 -0.7689  0.2926
  272MOL0     C36638   1.032   3.882   5.959  0.5562 -0.9547 -0.0965
  272MOL0     C36639   0.731   4.076   6.182  0.0273  0.1661  0.1734
  272MOL0     C36640   0.729   3.970   6.269 -0.8173 -0.2749 -0.5033
  272MOL0     C36641   0.666   3.975   6.386 -0.2015  0.0751  0.8291
  272MOL0     C36642   0.604   4.092   6.428 -0.5995 -0.1235  0.7600
  272MOL0     O36643   0.534   4.115   6.542 -0.3706 -0.4117 -0.2433
  272MOL0     C36644   0.425   4.026   6.551  0.3625 -0.4734  0.4057
  272MOL0     C36645   0.331   4.062   6.668 -0.9720 -0.3289 -0.0629
  272MOL0     C36646   0.396   4.055   6.807  0.5514  0.2277 -0.1382
  272MOL0     C36647   0.279   4.078   6.907 -0.2488  0.2757 -0.2728
  272MOL0     C36648   0.226   3.943   6.930 -0.7256  0.0931 -0.0537
  272MOL0     C36649   0.167   3.836   6.945 -0.4371  0.0745 -0.2068
  272MOL0     C36650   0.623   4.203   6.348 -0.1433 -0.0599 -0.4003
  272MOL0     C36651   0.689   4.204   6.228 -0.1123 -0.1175  0.5368
  272MOL0     C36652   0.683   4.338   6.149  0.7178 -0.0332  1.0018
  272MOL0     H36653   0.771   3.944   5.761 -0.1225  1.3391  0.2997
  272MOL0     H36654   0.939   3.861   5.574  0.5265  0.4346 -0.9567
  272MOL0     H36655   1.221   3.925   5.502  0.1026 -0.6547 -1.1126
  272MOL0     H36656   1.301   3.944   5.658 -2.0589 -0.6858  0.4525
  272MOL0     H36657   1.487   3.887   5.504  0.1058 -0.2791 -1.2362
  272MOL0     H36658   1.391   3.751   5.433  1.3541  1.0094 -1.6796
  272MOL0     H36659   1.502   3.626   5.579  0.8246 -0.0663  0.4281
  272MOL0     H36660   1.422   3.700   5.717 -0.7259 -3.7370 -0.9133
  272MOL0     H36661   1.690   3.784   5.592 -0.1602 -0.5893 -0.1781
  272MOL0     H36662   1.615   3.893   5.695  3.1254  1.0890 -3.7622
  272MOL0     H36663   1.744   3.617   5.742  0.2046  0.0321 -0.1753
  272MOL0     H36664   1.805   3.771   5.798 -1.0210  0.4985  3.6475
  272MOL0     H36665   1.625   3.790   5.969 -0.9236 -0.7785  0.4453
  272MOL0     H36666   1.569   3.632   5.932 -0.0397 -0.4429  0.6815
  272MOL0     H36667   1.864   3.672   5.982  0.1788 -1.0070 -1.2760
  272MOL0     H36668   1.765   3.523   6.007 -0.5137 -0.1686  1.4495
  272MOL0     H36669   1.740   3.780   6.186  1.7197  1.1054 -2.0872
  272MOL0     H36670   1.662   3.613   6.199 -2.1703  1.4979 -1.0463
  272MOL0     H36671   1.787   3.636   6.441  1.2164  0.2141 -0.0052
  272MOL0     H36672   1.974   3.434   6.585  2.1656 -3.4515 -0.3464
  272MOL0     H36673   2.129   3.464   6.511 -0.6937 -0.8113  1.2432
  272MOL0     H36674   2.145   3.696   6.613  1.6542 -2.9175 -0.7068
  272MOL0     H36675   1.969   3.682   6.650 -2.1352 -2.8834  2.5519
  272MOL0     H36676   2.039   3.475   6.797  1.3782 -0.2440  0.5620
  272MOL0     H36677   2.051   3.627   6.871 -1.8249 -0.7172 -0.4518
  272MOL0     H36678   2.266   3.480   6.719 -3.2984 -2.6527  0.9481
  272MOL0     H36679   2.255   3.480   6.889  2.4397 -1.6160 -0.2403
  272MOL0     H36680   2.528   3.758   6.933  2.7876  2.7985  0.1933
  272MOL0     H36681   2.750   3.784   6.850 -1.4751  0.7384  0.2156
  272MOL0     H36682   3.035   3.989   6.803 -0.7218 -0.1235 -0.5656
  272MOL0     H36683   2.950   4.232   6.818  1.7091  1.5399 -2.7206
  272MOL0     H36684   2.644   4.302   6.830  0.0792 -0.6586 -1.5779
  272MOL0     H36685   2.781   4.410   6.870 -0.6809  1.9393 -0.7542
  272MOL0     H36686   2.703   4.587   6.743  0.7135 -1.2617 -2.5894
  272MOL0     H36687   2.566   4.505   6.688 -0.8540  1.6755  0.0960
  272MOL0     H36688   2.631   4.536   6.983  1.5314 -1.8340 -1.6403
  272MOL0     H36689   2.539   4.672   6.894  1.1842  0.0577 -1.5857
  272MOL0     H36690   2.440   4.490   7.046  2.7528 -2.1208  0.6525
  272MOL0     H36691   2.451   4.383   6.924  1.6712 -0.2556  0.6569
  272MOL0     H36692   2.327   4.580   6.775 -2.4980 -1.0422 -1.2240
  272MOL0     H36693   2.275   4.627   6.936 -3.7312  0.4032 -2.4337
  272MOL0     H36694   2.262   4.349   6.818  2.9725  1.8514 -0.1951
  272MOL0     H36695   2.210   4.369   6.975  2.6323 -0.9564 -1.5574
  272MOL0     H36696   2.044   4.376   6.779 -0.9881 -0.0572 -0.1975
  272MOL0     H36697   2.084   4.552   6.766 -1.4583 -0.8036 -1.9940
  272MOL0     H36698   1.996   4.387   7.017 -1.4294  0.7946  1.8602
  272MOL0     H36699   2.026   4.561   7.014 -0.6945  1.0878  0.5657
  272MOL0     H36700   2.685   4.165   6.506  2.1898 -1.5648 -2.2536
  272MOL0     H36701   2.754   3.942   6.473 -2.9302  0.2518 -0.0749
  272MOL0     H36702   2.635   3.583   6.485  1.4968  3.4912 -1.2282
  272MOL0     H36703   2.412   3.573   6.557 -0.3100 -0.9169 -0.0725
  272MOL0     H36704   1.224   3.809   5.896 -0.0510  0.6704  0.4170
  272MOL0     H36705   1.055   3.889   6.065  1.6978 -0.1954 -0.3761
  272MOL0     H36706   0.762   3.871   6.238 -5.6490 -1.7968 -1.7406
  272MOL0     H36707   0.644   3.890   6.450 -1.2538 -0.9083 -0.7503
  272MOL0     H36708   0.457   3.922   6.562 -2.6268 -1.2798  2.9922
  272MOL0     H36709   0.359   4.041   6.465  2.8639  1.6948 -1.2994
  272MOL0     H36710   0.247   3.992   6.663 -1.6444  0.5200 -2.4933
  272MOL0     H36711   0.297   4.164   6.645 -0.6115  0.1430  1.4040
  272MOL0     H36712   0.480   4.125   6.821  1.7851 -0.4669 -3.1945
  272MOL0     H36713   0.435   3.954   6.821 -0.3558 -0.1397 -0.1951
  272MOL0     H36714   0.304   4.116   7.006 -1.6304 -3.4778  1.6887
  272MOL0     H36715   0.204   4.144   6.862 -0.1856 -0.7739 -2.0005
  272MOL0     H36716   0.107   3.749   6.965 -1.6505  1.1785  1.2150
  272MOL0     H36717   0.566   4.288   6.385 -0.1843  0.5399 -1.7671
  272MOL0     H36718   0.647   4.316   6.048 -0.1083  1.5028  0.9256
  272MOL0     H36719   0.611   4.413   6.182  0.7725  1.6898 -2.3552
  272MOL0     H36720   0.783   4.383   6.147  1.4299 -1.4933 -1.7705
  273MOL0     O36721   4.539   6.358   9.373  0.3311  0.3478 -0.6082
  273MOL0     C36722   4.591   6.305   9.278 -0.3406 -0.6301 -0.0069
  273MOL0     O36723   4.657   6.187   9.286 -0.2258  0.0825  0.4230
  273MOL0     C36724   4.659   6.109   9.405 -0.1667  0.1654 -0.4009
  273MOL0     C36725   4.540   6.075   9.475 -0.1940 -0.1443  0.0583
  273MOL0     C36726   4.551   6.002   9.593 -0.6423 -0.5166  0.1824
  273MOL0     C36727   4.683   5.964   9.649 -0.4972  0.3618  0.2436
  273MOL0     O36728   4.708   5.870   9.742  0.3338 -0.0329  0.0303
  273MOL0     C36729   4.609   5.854   9.851 -0.9162 -0.0025  0.4160
  273MOL0     C36730   4.651   5.725   9.938  0.1796 -0.3870 -1.2074
  273MOL0     C36731   4.542   5.676  10.035 -0.3815  0.0140  0.4750
  273MOL0     C36732   4.588   5.548  10.113  0.4524  0.0587 -0.7470
  273MOL0     C36733   4.480   5.431  10.112  0.9089 -1.0359 -0.0444
  273MOL0     C36734   4.506   5.364   9.975  0.8075  0.6278  0.0547
  273MOL0     C36735   4.432   5.237   9.948  0.1493  0.6897  0.1406
  273MOL0     C36736   4.286   5.249   9.918  0.5836 -0.6507  0.4075
  273MOL0     N36737   4.280   5.323   9.790  0.1970  0.1497 -0.8696
  273MOL0     C36738   4.291   5.465   9.783 -0.8003 -0.4395  1.1360
  273MOL0     C36739   4.242   5.498   9.660 -0.2582 -0.0939  0.1730
  273MOL0     C36740   4.243   5.637   9.595  0.2638 -0.6083  0.8657
  273MOL0     C36741   4.236   5.629   9.441  0.5454 -0.3625  0.0870
  273MOL0     C36742   4.367   5.593   9.374  0.1474 -0.2145  0.2746
  273MOL0     C36743   4.376   5.633   9.226 -0.0265 -0.6853 -0.3407
  273MOL0     O36744   4.371   5.774   9.227  0.4564  0.5982 -0.2286
  273MOL0     C36745   4.336   5.836   9.109  0.1158  0.5915  0.2231
  273MOL0     C36746   4.317   5.781   8.982 -0.1223  0.5963 -0.3139
  273MOL0     C36747   4.290   5.870   8.880 -0.3689 -0.8504  0.1921
  273MOL0     C36748   4.272   6.014   8.895 -0.1807  0.1270  1.0442
  273MOL0     C36749   4.249   6.108   8.784 -0.0821  0.3096  0.0091
  273MOL0     O36750   4.220   6.237   8.809 -0.2844 -0.4368  0.7547
  273MOL0     C36751   4.205   6.323   8.708  0.6029 -0.0656  0.9787
  273MOL0     C36752   4.319   6.359   8.633 -1.6513 -0.2545 -0.3305
  273MOL0     C36753   4.299   6.438   8.523 -1.4646 -0.5293  0.3109
  273MOL0     C36754   4.174   6.500   8.496 -0.8256 -0.1393  0.5028
  273MOL0     O36755   4.165   6.572   8.377 -0.2569  0.3371  0.0832
  273MOL0     C36756   4.039   6.577   8.298 -1.7865 -0.0132  0.3456
  273MOL0     C36757   4.079   6.541   8.158  0.0645 -0.6380 -0.3546
  273MOL0     C36758   3.975   6.577   8.048 -1.0132  0.2018 -1.1566
  273MOL0     C36759   3.998   6.731   8.008  0.1310  0.4212  0.2612
  273MOL0     C36760   3.896   6.789   7.901  0.7115 -0.3106 -0.5960
  273MOL0     C36761   3.928   6.941   7.881  0.0918  0.3830  0.2451
  273MOL0     C36762   3.855   7.016   7.781  0.4649 -0.4978 -0.8347
  273MOL0     C36763   3.698   7.003   7.791  0.5967 -0.6844 -0.6158
  273MOL0    Cl36764   3.628   7.076   7.939 -0.1065  0.0579  0.1121
  273MOL0     C36765   4.067   6.473   8.571 -0.0465  0.2604 -0.6599
  273MOL0     C36766   4.082   6.402   8.687 -0.0579  0.2713 -0.4527
  273MOL0     O36767   4.270   6.061   8.676  0.2692  0.9605 -0.4087
  273MOL0     C36768   4.278   6.061   9.027  0.0717  0.2377 -0.6039
  273MOL0     C36769   4.308   5.972   9.133 -0.8393 -0.3393 -0.3924
  273MOL0     N36770   4.197   5.384   9.597 -0.0778  0.5926  0.3237
  273MOL0     N36771   4.215   5.281   9.679 -0.3551  0.0966  0.5298
  273MOL0     C36772   4.798   6.000   9.579 -0.4874 -0.3661 -0.5716
  273MOL0     C36773   4.782   6.072   9.466 -0.0385  0.3153  0.0303
  273MOL0     C36774   4.580   6.378   9.145  0.1325  0.3456  0.6735
  273MOL0     C36775   4.551   6.519   9.150  0.3336  0.7084  0.3004
  273MOL0     C36776   4.528   6.588   9.023  0.3858  0.0173 -1.2050
  273MOL0     C36777   4.544   6.521   8.896  0.4662 -0.4825 -0.3149
  273MOL0     O36778   4.537   6.583   8.765  0.2204 -0.1681 -0.4530
  273MOL0     C36779   4.527   6.718   8.743  0.5378 -0.1247 -0.2247
  273MOL0     C36780   4.658   6.787   8.719  0.5257 -0.3211  0.0466
  273MOL0     C36781   4.724   6.722   8.596  0.0084 -0.0967 -0.2368
  273MOL0     C36782   4.866   6.780   8.576  0.1055  1.6467  0.0903
  273MOL0     C36783   4.849   6.887   8.482  0.8821 -1.0885  0.1629
  273MOL0     C36784   4.831   6.983   8.419  0.1365 -0.0908  0.7297
  273MOL0     C36785   4.571   6.384   8.901 -0.3304  0.2038  0.0669
  273MOL0     C36786   4.592   6.313   9.023  0.3969 -0.1020 -0.2845
  273MOL0     C36787   4.621   6.163   9.010  0.6205 -0.1588  0.4920
  273MOL0     H36788   4.443   6.101   9.433  0.5241  2.2460 -0.3233
  273MOL0     H36789   4.458   5.975   9.643 -0.6164  0.4784  0.7946
  273MOL0     H36790   4.591   5.947   9.907 -3.3466 -1.1223  1.6537
  273MOL0     H36791   4.511   5.822   9.815 -0.8498 -0.3750  0.5604
  273MOL0     H36792   4.732   5.759  10.004  0.5371  2.5722 -2.9870
  273MOL0     H36793   4.693   5.651   9.870  0.4451  1.6174 -3.3807
  273MOL0     H36794   4.444   5.673   9.987 -0.5400  1.0281  0.7014
  273MOL0     H36795   4.538   5.753  10.112  0.0816 -1.0984  1.6463
  273MOL0     H36796   4.687   5.508  10.088  0.4701 -1.1074  0.9752
  273MOL0     H36797   4.600   5.584  10.216 -0.6372 -1.8272  0.0964
  273MOL0     H36798   4.511   5.369  10.196  3.8987 -0.3523 -0.5300
  273MOL0     H36799   4.378   5.469  10.125  1.1161 -1.0562  1.8626
  273MOL0     H36800   4.493   5.452   9.912  1.3584 -0.6032 -1.8556
  273MOL0     H36801   4.615   5.350   9.972  0.7214  0.2012 -1.4787
  273MOL0     H36802   4.437   5.163  10.028 -5.2898 -1.5023 -1.1290
  273MOL0     H36803   4.479   5.199   9.857 -0.5334 -1.6800  0.7226
  273MOL0     H36804   4.245   5.149   9.903 -0.4788 -0.5683  2.4151
  273MOL0     H36805   4.229   5.308   9.991  0.2478  0.8050 -0.9853
  273MOL0     H36806   4.330   5.539   9.852  0.1317 -1.0489  1.2874
  273MOL0     H36807   4.155   5.687   9.637  0.7133  0.4844  0.5314
  273MOL0     H36808   4.324   5.704   9.626 -0.2128  2.1122 -3.0578
  273MOL0     H36809   4.161   5.555   9.410  0.4143 -0.0851 -0.2673
  273MOL0     H36810   4.214   5.731   9.407 -0.2162 -0.3267  0.6399
  273MOL0     H36811   4.358   5.484   9.373 -4.4196 -0.0077  0.1239
  273MOL0     H36812   4.455   5.623   9.431  1.4612 -0.8895 -1.2887
  273MOL0     H36813   4.297   5.584   9.168  0.8866 -2.1548 -0.4001
  273MOL0     H36814   4.470   5.597   9.183 -0.3761 -1.2966 -0.6053
  273MOL0     H36815   4.321   5.675   8.960  1.8023  1.2626 -4.0590
  273MOL0     H36816   4.273   5.817   8.786 -0.6599  0.1216 -0.3172
  273MOL0     H36817   4.416   6.316   8.653 -0.0499  3.5031  0.9756
  273MOL0     H36818   4.379   6.478   8.461 -1.0646 -2.0682 -0.2272
  273MOL0     H36819   3.980   6.492   8.333 -0.9909 -1.9079 -2.5685
  273MOL0     H36820   3.977   6.667   8.304  0.3588  1.5572 -0.0258
  273MOL0     H36821   4.181   6.580   8.151  0.3296 -1.0528  0.9577
  273MOL0     H36822   4.094   6.433   8.158 -1.7972 -0.9316 -1.3523
  273MOL0     H36823   4.000   6.517   7.959  3.4411  0.1960 -0.1481
  273MOL0     H36824   3.884   6.546   8.100  0.7820 -2.5935  0.5624
  273MOL0     H36825   4.104   6.744   7.986  0.3278 -0.4321  0.6354
  273MOL0     H36826   3.978   6.784   8.101 -2.6168  2.2131 -1.2002
  273MOL0     H36827   3.798   6.789   7.948  1.6630 -1.1844  1.5337
  273MOL0     H36828   3.900   6.725   7.812  2.4800 -1.9112  0.5452
  273MOL0     H36829   3.912   6.984   7.980  0.9785  2.0179 -0.2807
  273MOL0     H36830   4.035   6.953   7.862  0.4013  1.9361  2.5422
  273MOL0     H36831   3.905   6.985   7.689  0.5156 -0.6804 -0.7478
  273MOL0     H36832   3.866   7.124   7.794 -1.4121 -0.1962 -1.4545
  273MOL0     H36833   3.657   7.047   7.700 -0.4730 -1.1915 -0.3848
  273MOL0     H36834   3.669   6.899   7.781 -0.5903 -0.2369 -2.2613
  273MOL0     H36835   3.985   6.543   8.556  1.1165  1.6042 -0.9330
  273MOL0     H36836   4.001   6.403   8.759  1.9609  2.6210  1.9598
  273MOL0     H36837   4.260   6.164   9.056  0.8611 -0.3910  2.4536
  273MOL0     H36838   4.323   5.996   9.238 -1.8137 -0.9820 -0.0890
  273MOL0     H36839   4.894   5.974   9.622 -1.1357 -2.9746 -0.5097
  273MOL0     H36840   4.876   6.097   9.416 -0.8030  2.4650 -0.4485
  273MOL0     H36841   4.544   6.582   9.238 -2.5939 -2.0969  2.2558
  273MOL0     H36842   4.520   6.696   9.027 -0.8656 -0.0944  2.3391
  273MOL0     H36843   4.480   6.762   8.832 -1.1631 -1.2164 -0.5559
  273MOL0     H36844   4.469   6.731   8.652 -1.4659 -1.3596  0.8126
  273MOL0     H36845   4.719   6.776   8.809  3.5066 -3.6724 -2.1276
  273MOL0     H36846   4.633   6.893   8.705  1.4121 -0.4457 -3.1009
  273MOL0     H36847   4.662   6.703   8.508  2.1169  1.8191 -2.2917
  273MOL0     H36848   4.752   6.620   8.625 -0.4506 -0.4978 -1.1763
  273MOL0     H36849   4.906   6.818   8.670 -0.4021  0.6157  0.7355
  273MOL0     H36850   4.942   6.710   8.540 -1.8326 -0.7539  0.3546
  273MOL0     H36851   4.817   7.070   8.359 -1.1831 -1.2185 -0.6700
  273MOL0     H36852   4.583   6.336   8.805 -0.3999 -0.1949  0.2541
  273MOL0     H36853   4.721   6.135   9.046 -0.1479 -2.2879  1.0933
  273MOL0     H36854   4.557   6.100   9.072 -2.0467  2.2650  0.4031
  273MOL0     H36855   4.593   6.129   8.910  1.3521  0.3183  0.1133
  274MOL0     O36856  10.298   9.840   3.730 -0.0698  0.1731  0.4105
  274MOL0     C36857  10.397   9.845   3.799 -0.0271  0.5404 -0.1501
  274MOL0     O36858  10.400   9.904   3.926 -0.2106  0.3271  0.6022
  274MOL0     C36859  10.292   9.931   4.009  0.4447  0.0192  0.7635
  274MOL0     C36860  10.163   9.859   4.001 -0.6446 -0.4952 -0.6432
  274MOL0     C36861  10.066   9.876   4.094 -0.4229  0.6833  1.0744
  274MOL0     C36862  10.090   9.966   4.199 -0.7346  0.5944 -0.6156
  274MOL0     O36863  10.002   9.989   4.296  0.5249  1.1344  0.4859
  274MOL0     C36864   9.914   9.882   4.344  0.1893  0.1096  0.5208
  274MOL0     C36865   9.783   9.871   4.258  0.5245  0.4548  0.1592
  274MOL0     C36866   9.677   9.783   4.338 -0.0594  0.9846  0.1565
  274MOL0     C36867   9.542   9.785   4.273  0.6556  0.1469 -0.1808
  274MOL0     C36868   9.430   9.756   4.383  0.0107  1.0437  0.0978
  274MOL0     C36869   9.298   9.740   4.317 -0.4745  0.2146 -0.2464
  274MOL0     C36870   9.202   9.740   4.437  0.7176  0.2551 -0.2789
  274MOL0     C36871   9.052   9.765   4.394 -0.2244  0.2826 -0.3896
  274MOL0     N36872   8.977   9.731   4.511  0.2521  0.7755 -0.2794
  274MOL0     C36873   8.934   9.607   4.551  0.6760 -0.2388  0.6885
  274MOL0     C36874   8.862   9.607   4.666 -1.5955 -0.7739  0.1893
  274MOL0     C36875   8.814   9.494   4.754 -0.3849 -0.4287  0.3043
  274MOL0     C36876   8.661   9.490   4.763 -0.0646 -0.1407 -0.2829
  274MOL0     C36877   8.568   9.439   4.651 -0.3857  0.4486 -0.3948
  274MOL0     C36878   8.423   9.432   4.707  0.2651  0.4521  0.1672
  274MOL0     O36879   8.325   9.429   4.603  0.5833  0.4946 -0.4456
  274MOL0     C36880   8.197   9.406   4.641  1.0693 -0.6779  0.1981
  274MOL0     C36881   8.110   9.410   4.532  0.4518 -0.2712  0.1194
  274MOL0     C36882   7.978   9.380   4.545 -0.2819 -0.6696  0.4353
  274MOL0     C36883   7.934   9.336   4.677 -0.0844 -0.4243  0.3662
  274MOL0     C36884   7.797   9.288   4.683 -0.1437  0.6866 -0.0043
  274MOL0     O36885   7.755   9.250   4.809 -0.3721 -1.4086  0.0590
  274MOL0     C36886   7.629   9.195   4.811  0.1060 -0.3338  0.8187
  274MOL0     C36887   7.609   9.069   4.865 -0.4686 -0.1714  0.6082
  274MOL0     C36888   7.480   9.017   4.876  0.4148 -0.6680 -0.5032
  274MOL0     C36889   7.365   9.089   4.845  0.2193 -0.0868 -0.9295
  274MOL0     O36890   7.244   9.035   4.895  0.5111 -0.6800  1.0022
  274MOL0     C36891   7.114   9.092   4.852 -0.3180  0.6110  0.7740
  274MOL0     C36892   7.005   9.011   4.908  0.3340  0.5857 -0.1791
  274MOL0     C36893   6.857   9.041   4.872 -0.3367 -0.7971  0.0215
  274MOL0     C36894   6.768   8.969   4.982 -0.7736  1.1354  0.8072
  274MOL0     C36895   6.629   8.953   4.927  0.4905  0.0956  0.8886
  274MOL0     C36896   6.606   8.840   4.819 -0.3499  0.4496 -0.6438
  274MOL0     C36897   6.641   8.704   4.866 -0.2313 -0.8086 -1.1150
  274MOL0     C36898   6.780   8.673   4.808  0.0928 -0.3710 -0.2268
  274MOL0    Cl36899   6.769   8.628   4.635  0.2314  0.8260  0.0016
  274MOL0     C36900   7.386   9.203   4.773 -0.0653 -0.6026 -0.3457
  274MOL0     C36901   7.510   9.262   4.762 -0.0184 -0.4089 -0.5560
  274MOL0     O36902   7.742   9.265   4.580  0.9002 -0.4667  0.6162
  274MOL0     C36903   8.018   9.342   4.792 -0.5913  0.1265 -0.2802
  274MOL0     C36904   8.152   9.382   4.772 -0.6720 -0.3840  0.0900
  274MOL0     N36905   8.867   9.747   4.691 -0.6132  1.1121 -1.1828
  274MOL0     N36906   8.939   9.813   4.605 -0.6026  0.1286  0.2416
  274MOL0     C36907  10.217  10.029   4.214 -1.1821  0.0390  0.3958
  274MOL0     C36908  10.319  10.011   4.120 -0.1922  0.7655 -0.6113
  274MOL0     C36909  10.505   9.755   3.762 -0.1047 -1.0407 -0.2508
  274MOL0     C36910  10.473   9.640   3.687  0.5711  0.2752  0.0837
  274MOL0     C36911  10.575   9.557   3.647 -0.7194  0.0148 -1.4487
  274MOL0     C36912  10.713   9.581   3.663 -0.2158 -0.5263  0.0056
  274MOL0     O36913  10.806   9.491   3.614 -0.8403  0.3141  0.6004
  274MOL0     C36914  10.953   9.516   3.616  0.6722 -0.5546 -0.5307
  274MOL0     C36915  11.025   9.416   3.526  0.5241  0.6001  0.4491
  274MOL0     C36916  11.138   9.480   3.450 -0.1585 -0.3794 -0.0226
  274MOL0     C36917  11.274   9.517   3.525  0.0997 -0.3847 -0.2156
  274MOL0     C36918  11.348   9.410   3.597 -0.0556  0.3702  0.4779
  274MOL0     C36919  11.404   9.317   3.652  0.6043  0.5915 -0.1997
  274MOL0     C36920  10.742   9.709   3.718 -0.5214  0.3067  0.0527
  274MOL0     C36921  10.646   9.796   3.772  0.3261  0.9450 -0.0061
  274MOL0     C36922  10.684   9.929   3.829 -0.7680  0.4454  1.3754
  274MOL0     H36923  10.152   9.777   3.931 -0.2670  0.0637 -1.3766
  274MOL0     H36924   9.978   9.814   4.082  1.8853 -2.8944  0.9751
  274MOL0     H36925   9.976   9.792   4.340 -0.9327 -0.6492 -0.2468
  274MOL0     H36926   9.899   9.912   4.448  1.6117 -2.5501  1.5966
  274MOL0     H36927   9.784   9.822   4.161 -0.4207  1.3963 -0.3429
  274MOL0     H36928   9.734   9.967   4.238  1.4597  0.8309 -0.3863
  274MOL0     H36929   9.665   9.815   4.442 -1.6699  1.9506 -0.2970
  274MOL0     H36930   9.712   9.679   4.344 -0.3145  0.9201  0.5395
  274MOL0     H36931   9.524   9.877   4.218  0.8866 -1.9542 -4.1166
  274MOL0     H36932   9.529   9.710   4.194 -1.7365 -0.4740  0.6985
  274MOL0     H36933   9.456   9.670   4.444  2.5842  1.0405 -0.8920
  274MOL0     H36934   9.432   9.839   4.455  0.9044  3.0765 -2.1223
  274MOL0     H36935   9.278   9.825   4.252  1.4817  0.2806 -0.8098
  274MOL0     H36936   9.285   9.643   4.267  0.8428  0.0592 -0.3181
  274MOL0     H36937   9.221   9.828   4.500  1.9058 -0.8392  0.9593
  274MOL0     H36938   9.206   9.654   4.504  1.3573 -0.0396 -0.6919
  274MOL0     H36939   9.047   9.868   4.358  3.0447  0.1422 -1.6173
  274MOL0     H36940   9.032   9.697   4.311  1.2859  1.4211 -1.7530
  274MOL0     H36941   8.956   9.522   4.487  1.7433 -0.0267  0.7621
  274MOL0     H36942   8.847   9.393   4.729 -1.5411 -1.8351  3.8572
  274MOL0     H36943   8.852   9.515   4.854  2.3400  0.9408 -0.9029
  274MOL0     H36944   8.634   9.412   4.835  0.8292 -0.3271 -0.1314
  274MOL0     H36945   8.618   9.589   4.780  2.8159  0.8855  1.8069
  274MOL0     H36946   8.598   9.339   4.617  1.4143  1.4129 -1.8129
  274MOL0     H36947   8.575   9.510   4.568 -1.1100  1.6822  0.5821
  274MOL0     H36948   8.410   9.514   4.778 -0.7136 -0.7405  1.4285
  274MOL0     H36949   8.409   9.335   4.757 -3.7626  1.2961  1.0038
  274MOL0     H36950   8.160   9.426   4.437  3.0800  0.0125  1.4499
  274MOL0     H36951   7.899   9.388   4.471 -2.2206  1.6819  2.5807
  274MOL0     H36952   7.694   9.014   4.904 -0.8198  1.3546  3.7967
  274MOL0     H36953   7.475   8.920   4.925  3.5245 -0.6603  0.0478
  274MOL0     H36954   7.115   9.198   4.880 -0.3038  1.8111 -3.2020
  274MOL0     H36955   7.104   9.088   4.743  1.4802 -0.6910  0.5984
  274MOL0     H36956   7.021   8.903   4.910  2.6326  0.8697  1.7030
  274MOL0     H36957   7.018   9.044   5.012 -1.5723 -1.0722  0.6585
  274MOL0     H36958   6.848   9.149   4.859  1.3304 -0.8911 -3.0316
  274MOL0     H36959   6.833   8.997   4.775 -0.3336 -0.9805  0.1045
  274MOL0     H36960   6.770   9.017   5.080  1.2304 -0.5801  1.6807
  274MOL0     H36961   6.805   8.869   5.009 -2.4138 -0.0323 -0.9907
  274MOL0     H36962   6.599   9.056   4.904  1.7851  0.8044  2.1298
  274MOL0     H36963   6.562   8.928   5.009  0.5741  2.1986  1.6634
  274MOL0     H36964   6.499   8.840   4.794 -0.6174  1.7480  0.4205
  274MOL0     H36965   6.659   8.865   4.727  0.0293 -0.5071 -0.6998
  274MOL0     H36966   6.569   8.633   4.823 -1.4312 -0.1630 -0.2537
  274MOL0     H36967   6.633   8.698   4.975  2.9897  0.6777 -0.6738
  274MOL0     H36968   6.851   8.754   4.827 -0.3094 -0.2344  0.7716
  274MOL0     H36969   6.814   8.578   4.852  0.6671 -1.5008 -2.9102
  274MOL0     H36970   7.303   9.265   4.740  0.1831  0.8945  1.6657
  274MOL0     H36971   7.519   9.359   4.714 -0.2144 -0.5106 -0.8033
  274MOL0     H36972   7.971   9.327   4.889  0.0651 -0.6999 -0.0755
  274MOL0     H36973   8.229   9.403   4.846 -0.1862  2.4346 -1.0869
  274MOL0     H36974  10.222  10.102   4.295 -0.6959 -2.7617  3.0617
  274MOL0     H36975  10.403  10.079   4.113 -0.0894  0.8225  0.8763
  274MOL0     H36976  10.370   9.616   3.662  0.1444  3.4926 -1.9008
  274MOL0     H36977  10.550   9.465   3.594  0.5085 -0.3477 -1.4325
  274MOL0     H36978  11.000   9.495   3.712 -1.0309 -1.6016  0.1092
  274MOL0     H36979  10.984   9.613   3.574 -0.7952 -0.8074 -2.3313
  274MOL0     H36980  10.962   9.381   3.444 -2.4372  0.3629  2.6621
  274MOL0     H36981  11.060   9.325   3.576  0.3256  0.1738 -0.1753
  274MOL0     H36982  11.103   9.569   3.397  0.1995 -0.9137 -1.1657
  274MOL0     H36983  11.157   9.410   3.369 -0.4559  0.1598 -0.5685
  274MOL0     H36984  11.351   9.552   3.456  0.4140 -0.2951  0.1787
  274MOL0     H36985  11.248   9.595   3.598 -2.4857  0.1791 -1.6093
  274MOL0     H36986  11.451   9.233   3.698 -0.8892 -0.7695 -1.0837
  274MOL0     H36987  10.841   9.754   3.725 -1.3638  1.9293  2.5448
  274MOL0     H36988  10.658  10.009   3.759  0.1156 -2.4138 -2.6184
  274MOL0     H36989  10.639   9.951   3.926 -0.4652  0.4532  1.5119
  274MOL0     H36990  10.790   9.944   3.847 -0.8075  1.8443  0.6002
  275MOL0     O36991   7.172   0.991   3.014  0.1057 -0.2255 -0.2097
  275MOL0     C36992   7.264   1.055   3.065  0.0678 -0.0170 -1.2460
  275MOL0     O36993   7.269   1.073   3.196  0.3524 -0.4754 -0.8542
  275MOL0     C36994   7.177   1.023   3.285 -0.3018 -0.0246 -0.0177
  275MOL0     C36995   7.111   1.110   3.369  0.0474 -1.0579  1.1697
  275MOL0     C36996   7.004   1.066   3.450 -0.9151  0.6929 -0.2583
  275MOL0     C36997   6.980   0.924   3.469 -0.2136  0.7876 -0.5282
  275MOL0     O36998   6.884   0.858   3.548 -0.0462  0.2838 -0.2548
  275MOL0     C36999   6.794   0.941   3.624  0.7221  0.2408 -1.0508
  275MOL0     C37000   6.701   0.869   3.716  0.6907  0.1158  0.7132
  275MOL0     C37001   6.780   0.788   3.825  1.1087 -0.3101 -0.3300
  275MOL0     C37002   6.699   0.746   3.943  1.2121 -0.2453  0.7252
  275MOL0     C37003   6.619   0.856   4.016 -0.2128 -0.6509 -0.1599
  275MOL0     C37004   6.702   0.979   4.057 -0.4744 -0.5644 -0.6585
  275MOL0     C37005   6.620   1.114   4.099  0.4864  0.6388 -0.1413
  275MOL0     C37006   6.593   1.207   3.987  0.3701 -0.2721 -0.7347
  275MOL0     N37007   6.512   1.330   4.020  0.2002  0.1988 -0.5961
  275MOL0     C37008   6.452   1.409   3.920  0.3793  0.4351 -0.2483
  275MOL0     C37009   6.428   1.522   3.988  0.2397 -0.0959  0.0872
  275MOL0     C37010   6.386   1.645   3.922 -0.1669  0.5512  0.3403
  275MOL0     C37011   6.480   1.708   3.816  0.6680  0.4527  0.2965
  275MOL0     C37012   6.606   1.766   3.893  0.0361 -0.1443 -0.5628
  275MOL0     C37013   6.723   1.805   3.806 -0.1292 -0.4812  0.0074
  275MOL0     O37014   6.771   1.937   3.845 -0.0630  1.2778 -0.7208
  275MOL0     C37015   6.874   1.999   3.786 -0.8066  0.3212 -0.5480
  275MOL0     C37016   6.935   1.954   3.664  0.0956 -0.0410 -0.9762
  275MOL0     C37017   7.009   2.041   3.592  0.2232 -0.3349  0.1619
  275MOL0     C37018   7.034   2.173   3.635  0.1710  0.9808  0.2154
  275MOL0     C37019   7.123   2.253   3.549  0.4939 -0.5732  0.2891
  275MOL0     O37020   7.151   2.212   3.425  0.5895  0.5361 -0.1716
  275MOL0     C37021   7.207   2.301   3.336 -0.4471 -0.8278 -0.3802
  275MOL0     C37022   7.332   2.265   3.294 -0.3287  0.6700 -0.2249
  275MOL0     C37023   7.399   2.341   3.199  0.2663  1.0111  0.6225
  275MOL0     C37024   7.333   2.457   3.145 -0.7187  0.1131 -0.1730
  275MOL0     O37025   7.401   2.540   3.063  0.3819  0.0455  0.0090
  275MOL0     C37026   7.439   2.470   2.943 -0.4002  0.3401 -0.0363
  275MOL0     C37027   7.519   2.560   2.854  0.3819 -0.8743  0.5742
  275MOL0     C37028   7.557   2.496   2.713 -1.3256 -0.2629 -0.8363
  275MOL0     C37029   7.501   2.574   2.592  0.7881 -0.7613  0.1538
  275MOL0     C37030   7.527   2.491   2.456  0.7789  0.0913 -0.2939
  275MOL0     C37031   7.456   2.555   2.336 -0.2984  0.8319  0.8032
  275MOL0     C37032   7.464   2.469   2.208 -1.5204  0.1870 -0.5644
  275MOL0     C37033   7.395   2.524   2.083  0.1874  0.4473  0.2190
  275MOL0    Cl37034   7.450   2.688   2.052  0.0560  0.1528  0.5591
  275MOL0     C37035   7.209   2.490   3.194  0.0254 -0.0297  1.2035
  275MOL0     C37036   7.141   2.416   3.291 -0.2396 -0.1149  0.3211
  275MOL0     O37037   7.141   2.370   3.594 -0.8926  0.2684  0.1358
  275MOL0     C37038   6.996   2.208   3.763  0.2509  0.0270 -0.6045
  275MOL0     C37039   6.909   2.115   3.836 -0.6259 -0.0452 -0.9628
  275MOL0     N37040   6.441   1.502   4.120 -0.1403 -0.5627  0.1915
  275MOL0     N37041   6.496   1.392   4.141  0.0915  0.5216 -0.2610
  275MOL0     C37042   7.054   0.842   3.382 -0.3116  0.0210  0.1479
  275MOL0     C37043   7.149   0.884   3.291 -1.0700  0.2278 -0.1594
  275MOL0     C37044   7.364   1.121   2.986 -0.9521 -0.6310  1.4234
  275MOL0     C37045   7.471   1.203   3.044 -0.6929  0.2333  0.8068
  275MOL0     C37046   7.574   1.256   2.966 -0.3561 -0.7531 -0.2869
  275MOL0     C37047   7.589   1.222   2.829 -0.1692 -0.2126  0.2358
  275MOL0     O37048   7.677   1.279   2.739  0.2201  0.0388  0.8415
  275MOL0     C37049   7.765   1.193   2.670  0.6422 -0.1741 -0.6246
  275MOL0     C37050   7.898   1.266   2.662 -0.3030  0.2916 -0.2589
  275MOL0     C37051   7.986   1.246   2.788 -0.8512 -0.1446  0.0718
  275MOL0     C37052   8.070   1.369   2.822  0.4166 -0.4878  0.3698
  275MOL0     C37053   7.993   1.488   2.863  0.0016  0.6872  0.1951
  275MOL0     C37054   7.928   1.589   2.887  0.3299  0.7175  0.3010
  275MOL0     C37055   7.487   1.135   2.773 -0.3297  0.5198  0.5386
  275MOL0     C37056   7.369   1.107   2.839 -0.2988 -0.4106  0.0675
  275MOL0     C37057   7.266   1.035   2.758  0.3480 -0.3427 -0.1777
  275MOL0     H37058   7.139   1.215   3.374 -0.6649 -0.7873 -0.1573
  275MOL0     H37059   6.940   1.138   3.499 -0.7340  2.3399 -2.2908
  275MOL0     H37060   6.849   1.013   3.685  1.6307  0.4795 -2.1237
  275MOL0     H37061   6.737   1.003   3.554 -0.1433  4.5910  3.0016
  275MOL0     H37062   6.639   0.800   3.658  1.6998  0.7134 -1.1697
  275MOL0     H37063   6.634   0.945   3.755 -1.6339 -1.6414  0.3325
  275MOL0     H37064   6.872   0.831   3.865  0.5870  0.1667  0.3939
  275MOL0     H37065   6.806   0.691   3.781  1.6369 -1.0343  1.4731
  275MOL0     H37066   6.634   0.662   3.915 -0.2615  0.1908  2.6493
  275MOL0     H37067   6.765   0.696   4.015 -0.9714 -1.1644  2.2281
  275MOL0     H37068   6.537   0.888   3.950 -1.9447  1.7129  2.8609
  275MOL0     H37069   6.579   0.817   4.110 -0.6564  0.1206 -0.0165
  275MOL0     H37070   6.757   0.945   4.145 -0.3712 -5.0449 -2.2023
  275MOL0     H37071   6.773   1.008   3.978  1.1429 -0.0242  0.9333
  275MOL0     H37072   6.678   1.169   4.174  0.5030  1.1451 -0.5239
  275MOL0     H37073   6.524   1.084   4.143  0.5282 -1.6406 -1.4361
  275MOL0     H37074   6.691   1.240   3.953  0.4372  0.7544  0.3657
  275MOL0     H37075   6.543   1.163   3.900  3.1446 -0.7512 -2.1973
  275MOL0     H37076   6.435   1.391   3.815 -1.8715 -3.7716  0.5961
  275MOL0     H37077   6.285   1.628   3.883  0.7437 -0.7020 -1.6209
  275MOL0     H37078   6.372   1.724   3.996  1.7105  0.4725  0.8277
  275MOL0     H37079   6.519   1.636   3.744  3.4120 -0.8032  2.7856
  275MOL0     H37080   6.412   1.784   3.776  0.5532  1.7556  2.7489
  275MOL0     H37081   6.642   1.699   3.971  0.5122 -2.4953 -2.6781
  275MOL0     H37082   6.561   1.849   3.949 -4.1310 -1.2308 -1.9567
  275MOL0     H37083   6.702   1.820   3.699 -0.9885  3.0517  0.5376
  275MOL0     H37084   6.801   1.729   3.821 -2.8062 -2.6170  5.8064
  275MOL0     H37085   6.917   1.853   3.627  3.3116 -1.0943  0.0763
  275MOL0     H37086   7.036   2.014   3.491 -1.2649 -1.3393  0.0019
  275MOL0     H37087   7.379   2.176   3.333  1.5497  2.0003  0.7044
  275MOL0     H37088   7.500   2.307   3.179  0.3378  0.1839  2.2610
  275MOL0     H37089   7.490   2.374   2.955 -0.8522  0.2267  1.1187
  275MOL0     H37090   7.357   2.426   2.886  0.8522 -1.6296 -0.4158
  275MOL0     H37091   7.462   2.652   2.839  1.2494 -0.4007  0.1448
  275MOL0     H37092   7.608   2.600   2.903 -1.2694 -1.3698  4.3405
  275MOL0     H37093   7.666   2.502   2.724 -1.2354  4.8071 -2.0690
  275MOL0     H37094   7.519   2.394   2.718  0.4774 -0.9039  1.6742
  275MOL0     H37095   7.535   2.678   2.591  0.6805 -0.6829 -2.4610
  275MOL0     H37096   7.394   2.586   2.606  0.7148  0.3081 -1.1236
  275MOL0     H37097   7.483   2.392   2.472 -1.2761  0.7669 -1.4713
  275MOL0     H37098   7.633   2.474   2.433  1.1995  0.7181  1.0977
  275MOL0     H37099   7.354   2.580   2.365 -0.3557  1.1565  0.3260
  275MOL0     H37100   7.510   2.648   2.315  1.2677  0.4548  2.8018
  275MOL0     H37101   7.436   2.365   2.227 -0.3901 -0.2414 -1.1504
  275MOL0     H37102   7.567   2.475   2.174 -2.2066  2.0664 -2.5497
  275MOL0     H37103   7.415   2.456   1.999 -0.9920 -0.2034  0.4408
  275MOL0     H37104   7.287   2.536   2.097 -0.0408  2.2183 -2.2736
  275MOL0     H37105   7.158   2.577   3.155  0.4652 -0.3649 -0.2027
  275MOL0     H37106   7.042   2.442   3.325 -0.0788 -2.2973  2.7219
  275MOL0     H37107   7.016   2.306   3.805  0.6552  0.7232 -2.3298
  275MOL0     H37108   6.878   2.159   3.930  1.2404  0.1522 -0.4017
  275MOL0     H37109   7.028   0.737   3.387 -0.8224  0.1888  1.3335
  275MOL0     H37110   7.199   0.803   3.238  0.7192 -0.8225  2.8979
  275MOL0     H37111   7.473   1.222   3.151 -1.4724  0.4551  0.7871
  275MOL0     H37112   7.641   1.329   3.008  1.1164 -2.7082  0.9599
  275MOL0     H37113   7.718   1.176   2.573 -1.7999  0.0515  0.4239
  275MOL0     H37114   7.791   1.100   2.721  2.6408  0.0532 -1.1658
  275MOL0     H37115   7.878   1.373   2.645  3.3421  1.3405  1.2651
  275MOL0     H37116   7.958   1.223   2.582  0.7970 -2.7428  2.0288
  275MOL0     H37117   8.047   1.156   2.781 -0.8839 -0.1796  0.2351
  275MOL0     H37118   7.926   1.225   2.877  4.1646 -1.9982  3.5040
  275MOL0     H37119   8.140   1.340   2.901 -0.0890 -1.0480  0.6207
  275MOL0     H37120   8.130   1.402   2.738  1.8460 -2.5424  0.5045
  275MOL0     H37121   7.861   1.672   2.900 -0.7526 -0.2004  0.7080
  275MOL0     H37122   7.492   1.114   2.667 -0.4444  4.9262 -0.5237
  275MOL0     H37123   7.165   1.074   2.771  0.8345  0.5830  0.9777
  275MOL0     H37124   7.290   1.042   2.651  1.4800 -1.3846 -0.0161
  275MOL0     H37125   7.260   0.928   2.778  1.6287 -0.6243 -1.1781
  276MOL0     O37126   0.487   1.967   4.354 -0.5032  0.5484  1.0586
  276MOL0     C37127   0.421   1.956   4.459 -0.2415 -0.9431 -0.1795
  276MOL0     O37128   0.471   1.915   4.582 -0.2781  0.2955 -0.3661
  276MOL0     C37129   0.608   1.874   4.578  0.4689 -0.5774  0.4026
  276MOL0     C37130   0.712   1.974   4.595  0.1323  0.4776  0.6905
  276MOL0     C37131   0.841   1.936   4.586  0.4096 -0.2690 -0.4308
  276MOL0     C37132   0.875   1.805   4.545 -0.0097 -0.1435 -0.9489
  276MOL0     O37133   1.004   1.759   4.532  0.2361 -0.8622  0.4733
  276MOL0     C37134   1.107   1.845   4.475  0.2910  1.4576 -0.1205
  276MOL0     C37135   1.237   1.771   4.456  1.2973  0.4000  0.2685
  276MOL0     C37136   1.241   1.686   4.321  0.9301  0.7221  0.4231
  276MOL0     C37137   1.134   1.581   4.315  0.4709  0.4373 -0.3728
  276MOL0     C37138   1.180   1.458   4.246  0.5256 -0.3032 -0.8723
  276MOL0     C37139   1.217   1.482   4.103  0.2678 -0.3035 -0.6440
  276MOL0     C37140   1.103   1.550   4.024  0.5129 -0.2974 -0.4420
  276MOL0     C37141   1.120   1.538   3.876 -0.6092  0.0629  0.2763
  276MOL0     N37142   1.119   1.396   3.830  0.7556 -0.6267  0.6243
  276MOL0     C37143   1.011   1.320   3.775  0.7332 -0.8596 -0.6885
  276MOL0     C37144   1.066   1.215   3.709  0.1695 -0.1232 -0.0732
  276MOL0     C37145   1.009   1.096   3.645 -0.6741  0.2245  0.4133
  276MOL0     C37146   1.003   1.106   3.490 -0.0573 -0.6080  0.3078
  276MOL0     C37147   0.982   0.966   3.445  0.4156  0.5749 -0.1835
  276MOL0     C37148   0.948   0.946   3.297  0.2720 -0.6109 -0.1356
  276MOL0     O37149   0.952   0.813   3.273  0.2732  0.1302 -0.3005
  276MOL0     C37150   0.853   0.782   3.185  0.5628 -0.7355 -0.4701
  276MOL0     C37151   0.753   0.708   3.239  0.2947 -0.1003  0.2762
  276MOL0     C37152   0.646   0.670   3.152  0.0414  0.5960 -0.4941
  276MOL0     C37153   0.647   0.688   3.013 -0.6000 -0.0253  0.2681
  276MOL0     C37154   0.530   0.635   2.940 -0.2273 -0.5663  0.3722
  276MOL0     O37155   0.450   0.526   2.988  0.1636 -0.2953 -0.1300
  276MOL0     C37156   0.366   0.457   2.903  0.1111 -1.2381 -0.0513
  276MOL0     C37157   0.232   0.452   2.931 -0.1913  0.1324  0.3985
  276MOL0     C37158   0.147   0.384   2.839  0.5337 -0.3057  0.3388
  276MOL0     C37159   0.197   0.319   2.727  0.2368 -0.4526 -0.9331
  276MOL0     O37160   0.122   0.247   2.641 -1.0109  0.0478  0.2219
  276MOL0     C37161  -0.013   0.225   2.672 -0.3375 -0.7203 -0.3855
  276MOL0     C37162  -0.082   0.161   2.548 -0.5188 -0.9643 -0.5966
  276MOL0     C37163  -0.073   0.012   2.544  0.9809 -0.9373  0.7766
  276MOL0     C37164  -0.203  -0.050   2.588  1.0534  0.1100 -0.5986
  276MOL0     C37165  -0.208  -0.202   2.621  0.3343 -0.2226  0.7631
  276MOL0     C37166  -0.240  -0.292   2.502 -0.5736 -0.0664  0.2557
  276MOL0     C37167  -0.244  -0.440   2.539  0.1725  0.3004  0.0675
  276MOL0     C37168  -0.109  -0.488   2.588 -0.9597  0.2213 -0.5785
  276MOL0    Cl37169  -0.123  -0.667   2.615  0.2113 -0.1942  0.1739
  276MOL0     C37170   0.321   0.348   2.692 -0.5838  0.5827 -0.7726
  276MOL0     C37171   0.409   0.409   2.780  0.0164  0.1186  0.2999
  276MOL0     O37172   0.512   0.694   2.831  0.3342  0.9024  0.0543
  276MOL0     C37173   0.759   0.767   2.957  0.2170 -1.4873  0.0189
  276MOL0     C37174   0.855   0.817   3.047  0.4145  0.7548 -0.3515
  276MOL0     N37175   1.200   1.220   3.732 -0.2237 -0.4023  0.4826
  276MOL0     N37176   1.226   1.326   3.800 -0.2749 -0.2608  0.2655
  276MOL0     C37177   0.772   1.711   4.539  0.9087  0.2091 -0.0393
  276MOL0     C37178   0.641   1.745   4.559  0.4471 -0.7979 -1.3350
  276MOL0     C37179   0.278   1.993   4.448 -0.2334 -0.5225  0.6488
  276MOL0     C37180   0.248   2.087   4.344  0.6306  0.4488  0.4836
  276MOL0     C37181   0.116   2.144   4.323 -1.3969  0.0706 -0.6092
  276MOL0     C37182   0.014   2.118   4.411  0.8342 -0.1468 -1.7319
  276MOL0     O37183  -0.105   2.184   4.389 -0.2572  0.5197 -0.0928
  276MOL0     C37184  -0.209   2.165   4.483 -0.0741 -0.2766  0.1460
  276MOL0     C37185  -0.340   2.212   4.427  0.0670 -0.2269  0.1872
  276MOL0     C37186  -0.372   2.180   4.273 -1.1524 -1.1824 -1.3185
  276MOL0     C37187  -0.379   2.028   4.248 -0.7681 -0.7310  0.7839
  276MOL0     C37188  -0.500   1.979   4.314 -0.1237 -0.4876  0.1631
  276MOL0     C37189  -0.593   1.945   4.379  0.4402  0.4643  0.3016
  276MOL0     C37190   0.041   2.019   4.508 -0.4538  0.0512 -0.2718
  276MOL0     C37191   0.168   1.955   4.530  0.1831  0.6673  0.0683
  276MOL0     C37192   0.173   1.838   4.633 -0.9889  0.1507 -0.2374
  276MOL0     H37193   0.689   2.080   4.589  1.0930  0.7717  1.8650
  276MOL0     H37194   0.920   2.010   4.596  0.0311 -0.1196  2.1191
  276MOL0     H37195   1.087   1.884   4.375  0.3711 -1.0292 -1.1765
  276MOL0     H37196   1.131   1.928   4.542  3.5293  2.3768 -2.1940
  276MOL0     H37197   1.256   1.697   4.534  1.9721  1.3753  1.0433
  276MOL0     H37198   1.316   1.847   4.451 -1.4126  3.3559 -0.4543
  276MOL0     H37199   1.342   1.646   4.311 -0.4763 -3.0671  0.1045
  276MOL0     H37200   1.216   1.748   4.234  0.0806 -0.3569 -0.1219
  276MOL0     H37201   1.110   1.543   4.414 -4.0095  1.9082 -0.6399
  276MOL0     H37202   1.045   1.630   4.275 -0.5109 -1.0315 -0.0795
  276MOL0     H37203   1.261   1.412   4.304  0.1811 -0.3833 -0.4536
  276MOL0     H37204   1.096   1.388   4.244  0.0447  0.2830 -1.5469
  276MOL0     H37205   1.312   1.536   4.107  2.4015 -3.7341 -0.9590
  276MOL0     H37206   1.243   1.382   4.066  2.4523 -0.8572  2.0851
  276MOL0     H37207   1.096   1.655   4.054 -1.3915  0.2808 -2.6417
  276MOL0     H37208   1.014   1.489   4.046 -0.2037  0.6286 -0.7051
  276MOL0     H37209   1.043   1.590   3.818  1.1199 -2.5070 -4.9148
  276MOL0     H37210   1.217   1.582   3.852  1.1967 -3.8268 -0.2599
  276MOL0     H37211   0.906   1.344   3.786  0.4285 -2.0193 -0.8984
  276MOL0     H37212   1.067   1.006   3.669  0.9500  0.1210 -3.2296
  276MOL0     H37213   0.906   1.085   3.680 -1.2867  2.7043 -0.4235
  276MOL0     H37214   0.923   1.173   3.459  1.5402 -0.7938 -5.2957
  276MOL0     H37215   1.093   1.148   3.443 -1.4851  0.4480 -1.5999
  276MOL0     H37216   0.901   0.917   3.499  0.1463  2.0072  0.7461
  276MOL0     H37217   1.078   0.926   3.479  0.1948  0.6597  0.5643
  276MOL0     H37218   1.022   1.000   3.236  1.2892  0.5501  2.0145
  276MOL0     H37219   0.847   0.985   3.283 -1.0463 -3.2144  1.3137
  276MOL0     H37220   0.748   0.682   3.344  1.0034  1.3217  0.6949
  276MOL0     H37221   0.569   0.613   3.203  1.8131 -1.2387  0.2949
  276MOL0     H37222   0.198   0.501   3.022 -0.3612  0.5266  0.1249
  276MOL0     H37223   0.042   0.367   2.860 -0.2429  2.7377 -0.5964
  276MOL0     H37224  -0.022   0.153   2.754 -2.5891 -2.6926 -2.2210
  276MOL0     H37225  -0.066   0.316   2.700 -1.6000 -1.9168  1.2958
  276MOL0     H37226  -0.183   0.203   2.551  0.8849  2.7325  0.8111
  276MOL0     H37227  -0.030   0.201   2.460  0.3695  0.0359  0.3623
  276MOL0     H37228  -0.064  -0.033   2.445  0.1328  1.3037 -0.3703
  276MOL0     H37229   0.012  -0.024   2.604  3.5593 -0.9217 -2.5639
  276MOL0     H37230  -0.286  -0.025   2.520  0.0903  1.4894  1.0138
  276MOL0     H37231  -0.236  -0.004   2.681 -3.6241 -0.5587 -1.6450
  276MOL0     H37232  -0.278  -0.223   2.702  0.1485  1.3951  1.0684
  276MOL0     H37233  -0.108  -0.226   2.658 -0.6260 -3.7514  1.4074
  276MOL0     H37234  -0.328  -0.254   2.449  0.0650  0.9660 -0.0921
  276MOL0     H37235  -0.154  -0.293   2.434  1.5176 -0.4145  2.7630
  276MOL0     H37236  -0.270  -0.493   2.447  0.0203 -2.3646  1.5342
  276MOL0     H37237  -0.320  -0.468   2.613  0.2076 -3.1705 -1.0146
  276MOL0     H37238  -0.040  -0.475   2.505 -1.1984 -0.3391 -0.8668
  276MOL0     H37239  -0.085  -0.437   2.683 -0.7326  0.5868 -0.8290
  276MOL0     H37240   0.363   0.323   2.595 -0.4174 -2.3753 -0.0450
  276MOL0     H37241   0.512   0.431   2.754 -0.6534 -0.3110 -3.1766
  276MOL0     H37242   0.767   0.808   2.857  1.3517  1.1745  1.1162
  276MOL0     H37243   0.938   0.875   3.006  2.5943 -2.1484 -0.3744
  276MOL0     H37244   0.800   1.610   4.512 -0.8827 -0.5485  0.8056
  276MOL0     H37245   0.559   1.674   4.550  1.4874 -2.3411  0.4741
  276MOL0     H37246   0.313   2.113   4.260 -2.3781 -1.8951 -2.9021
  276MOL0     H37247   0.106   2.220   4.247 -0.7232  0.9472  0.1573
  276MOL0     H37248  -0.176   2.221   4.571  2.2824 -1.2721 -0.0225
  276MOL0     H37249  -0.218   2.058   4.503 -2.2414  0.0519  1.1917
  276MOL0     H37250  -0.340   2.321   4.427 -0.7257 -0.1907 -1.2865
  276MOL0     H37251  -0.424   2.177   4.488  0.0369  0.2604  0.4275
  276MOL0     H37252  -0.284   2.214   4.217 -1.0140  0.5386 -0.1439
  276MOL0     H37253  -0.457   2.232   4.228  0.0428  0.1732 -2.1011
  276MOL0     H37254  -0.383   2.016   4.139  2.8163  2.8963  0.0278
  276MOL0     H37255  -0.290   1.974   4.282 -0.6783 -1.5917 -0.7294
  276MOL0     H37256  -0.673   1.903   4.437 -1.0145  0.2465 -1.7360
  276MOL0     H37257  -0.031   1.976   4.577 -2.3544  3.7515  0.3223
  276MOL0     H37258   0.215   1.869   4.730  3.5271 -0.1043 -1.8577
  276MOL0     H37259   0.075   1.792   4.643 -0.6904 -0.5499 -0.4813
  276MOL0     H37260   0.244   1.759   4.605 -2.8590 -2.2539  1.4126
  277MOL0     O37261   5.684   4.847   5.618  0.9235 -0.6610 -0.0484
  277MOL0     C37262   5.744   4.769   5.540 -0.2787  0.1178 -1.7694
  277MOL0     O37263   5.799   4.647   5.580  0.4103  0.4467  0.0244
  277MOL0     C37264   5.792   4.596   5.709 -0.6421 -0.0751 -0.3943
  277MOL0     C37265   5.914   4.522   5.752  0.8144 -0.2054  0.4946
  277MOL0     C37266   5.928   4.492   5.886 -0.0366  0.2291  0.2125
  277MOL0     C37267   5.813   4.510   5.960 -0.0898  0.0777 -0.8873
  277MOL0     O37268   5.799   4.470   6.092  0.1718  0.0179  0.5671
  277MOL0     C37269   5.904   4.467   6.195 -0.6470  0.3899  0.0291
  277MOL0     C37270   5.862   4.465   6.346  0.9563  0.7140  0.4010
  277MOL0     C37271   5.787   4.335   6.381 -0.8638 -0.1250  0.3192
  277MOL0     C37272   5.723   4.329   6.519  0.5158 -0.3173 -0.1467
  277MOL0     C37273   5.680   4.185   6.557 -0.5812  1.0490 -0.0882
  277MOL0     C37274   5.570   4.134   6.457  0.2126  0.7735 -0.8947
  277MOL0     C37275   5.470   4.033   6.518  0.5368 -0.1462  0.5528
  277MOL0     C37276   5.330   4.095   6.537 -0.1796  0.3462 -0.2327
  277MOL0     N37277   5.338   4.190   6.644 -0.4972 -0.6968 -0.3208
  277MOL0     C37278   5.357   4.178   6.781  0.7285 -0.3950  0.2369
  277MOL0     C37279   5.376   4.300   6.830 -0.1444 -0.3001 -0.6105
  277MOL0     C37280   5.410   4.346   6.975  0.0778  0.6553  0.5751
  277MOL0     C37281   5.461   4.489   6.995  0.4796 -0.3020 -0.8865
  277MOL0     C37282   5.605   4.501   6.973 -0.8682  1.2968 -0.1694
  277MOL0     C37283   5.637   4.483   6.824 -0.0678  0.0371 -0.1371
  277MOL0     O37284   5.773   4.495   6.806 -0.2660  0.5380 -0.4236
  277MOL0     C37285   5.828   4.621   6.827  0.0244  0.0755  0.2292
  277MOL0     C37286   5.762   4.747   6.843 -0.5445  1.1281 -0.5610
  277MOL0     C37287   5.842   4.860   6.849 -0.3461 -0.0222  0.7943
  277MOL0     C37288   5.988   4.859   6.835  1.1406 -0.1814  0.8644
  277MOL0     C37289   6.062   4.977   6.874  0.0756 -0.6879  0.8497
  277MOL0     O37290   6.201   4.966   6.852 -0.4890 -0.7327  0.3891
  277MOL0     C37291   6.292   5.066   6.891 -1.1234 -0.7008  0.0587
  277MOL0     C37292   6.261   5.201   6.859  0.1696  0.0208 -0.3267
  277MOL0     C37293   6.354   5.298   6.891  1.1524 -0.2489  0.3026
  277MOL0     C37294   6.472   5.275   6.956  0.3404  0.2244 -0.0309
  277MOL0     O37295   6.574   5.366   6.978 -0.7853 -0.2498 -0.1277
  277MOL0     C37296   6.526   5.502   7.004  0.1197  0.6445 -0.1038
  277MOL0     C37297   6.544   5.584   6.883 -0.6920 -0.2040 -0.1165
  277MOL0     C37298   6.607   5.524   6.765 -0.0910  0.3131  0.5488
  277MOL0     C37299   6.657   5.629   6.665 -0.7998 -0.6971 -0.0317
  277MOL0     C37300   6.743   5.565   6.556 -0.9818  0.2195 -0.2810
  277MOL0     C37301   6.784   5.674   6.448  0.1235  0.1721 -0.8648
  277MOL0     C37302   6.820   5.633   6.308  0.2649 -0.5061 -0.0975
  277MOL0     C37303   6.950   5.576   6.296  0.1090 -0.3624 -0.2327
  277MOL0    Cl37304   6.983   5.508   6.132  0.2519 -0.0932 -0.0428
  277MOL0     C37305   6.492   5.141   7.002 -1.2401  0.3646  0.0620
  277MOL0     C37306   6.403   5.032   6.968 -0.1706 -0.4667 -0.3522
  277MOL0     O37307   6.005   5.077   6.921  0.6726  0.1653 -0.0947
  277MOL0     C37308   6.050   4.734   6.814 -0.0188  0.5059  0.2645
  277MOL0     C37309   5.966   4.626   6.810 -0.1302  0.5591  0.0322
  277MOL0     N37310   5.352   4.386   6.723 -0.5755  0.4916 -0.6328
  277MOL0     N37311   5.343   4.318   6.617 -0.7503 -0.0074 -0.2147
  277MOL0     C37312   5.694   4.569   5.925  0.4583 -1.2631  0.2392
  277MOL0     C37313   5.686   4.620   5.801  0.0211  0.1260  0.0379
  277MOL0     C37314   5.756   4.800   5.398  0.0853  0.3205  0.4626
  277MOL0     C37315   5.738   4.686   5.309 -0.4146 -0.5130  0.5148
  277MOL0     C37316   5.728   4.720   5.172 -0.4425 -0.1424  0.3423
  277MOL0     C37317   5.711   4.852   5.128  0.7856 -1.3133 -0.8409
  277MOL0     O37318   5.715   4.861   4.994  0.3240 -0.0523 -0.6158
  277MOL0     C37319   5.768   4.970   4.919  0.3647  0.0819  0.1529
  277MOL0     C37320   5.923   4.976   4.921 -0.2405  0.4327  0.3780
  277MOL0     C37321   5.978   5.122   4.897 -0.2173  0.7528 -0.0728
  277MOL0     C37322   5.951   5.144   4.742 -0.6389 -0.0449 -0.3030
  277MOL0     C37323   5.828   5.210   4.723  0.2609  0.7464  0.5152
  277MOL0     C37324   5.717   5.261   4.695  0.5717 -0.2171 -0.2250
  277MOL0     C37325   5.729   4.962   5.215  0.1256 -0.7690 -0.3750
  277MOL0     C37326   5.763   4.932   5.347 -0.0725 -0.3338 -1.1227
  277MOL0     C37327   5.818   5.046   5.432  0.5154 -0.3032  0.9949
  277MOL0     H37328   5.999   4.520   5.685 -1.0235  0.8420 -2.0489
  277MOL0     H37329   6.022   4.446   5.915  2.0398  2.0809 -2.9534
  277MOL0     H37330   5.975   4.387   6.175 -1.1244 -0.8019  2.6242
  277MOL0     H37331   5.957   4.562   6.180  0.4784 -0.4998 -1.9882
  277MOL0     H37332   5.795   4.547   6.373  1.6076  1.2227  0.4895
  277MOL0     H37333   5.953   4.473   6.406  0.3214  2.5749  1.1765
  277MOL0     H37334   5.869   4.263   6.385 -0.0608  0.8197  1.4051
  277MOL0     H37335   5.710   4.311   6.307 -1.6834  2.3916  0.2773
  277MOL0     H37336   5.798   4.378   6.582  1.6145 -1.3964 -0.5752
  277MOL0     H37337   5.630   4.387   6.524  1.5888  1.4480  0.0415
  277MOL0     H37338   5.763   4.114   6.554 -2.8296 -1.7865  0.1148
  277MOL0     H37339   5.640   4.185   6.659  1.4931  3.1719  0.8104
  277MOL0     H37340   5.515   4.220   6.417 -2.3259 -0.6705 -0.7436
  277MOL0     H37341   5.616   4.099   6.365 -0.4459  0.9395 -1.2976
  277MOL0     H37342   5.504   3.984   6.610 -1.4671 -2.2473  0.2748
  277MOL0     H37343   5.464   3.947   6.451  1.2648  0.5477 -0.4169
  277MOL0     H37344   5.292   4.141   6.446 -3.1046 -0.8571  0.2268
  277MOL0     H37345   5.265   4.012   6.570  1.6726 -1.6761 -1.4258
  277MOL0     H37346   5.354   4.087   6.840  1.1186  0.2716  1.3265
  277MOL0     H37347   5.317   4.330   7.030  0.2584 -3.8138 -0.0010
  277MOL0     H37348   5.481   4.282   7.029  0.9768 -0.0228 -1.2789
  277MOL0     H37349   5.408   4.560   6.932  1.2923  0.8707 -0.2926
  277MOL0     H37350   5.441   4.521   7.098  0.2819 -1.0348 -0.6919
  277MOL0     H37351   5.661   4.425   7.029  1.9828  2.5127 -1.1914
  277MOL0     H37352   5.641   4.596   7.013  5.6184 -1.3829  1.6328
  277MOL0     H37353   5.575   4.554   6.768  1.7972  0.4469 -1.7708
  277MOL0     H37354   5.617   4.380   6.794 -1.2083 -0.1674  1.2189
  277MOL0     H37355   5.655   4.766   6.852 -0.4427  1.5704 -0.2700
  277MOL0     H37356   5.790   4.955   6.861 -3.4919 -0.6484 -4.6043
  277MOL0     H37357   6.168   5.228   6.810  0.4879 -1.8049 -2.0387
  277MOL0     H37358   6.334   5.401   6.862  1.2481  0.4510  2.5292
  277MOL0     H37359   6.424   5.507   7.043  1.0112 -0.2376  2.5610
  277MOL0     H37360   6.583   5.537   7.091 -2.9525  2.6061  1.2903
  277MOL0     H37361   6.443   5.619   6.858 -1.5883 -1.9901  0.8444
  277MOL0     H37362   6.608   5.661   6.927  2.3610 -3.7452  2.2266
  277MOL0     H37363   6.683   5.452   6.797  0.9120  0.2562 -1.7608
  277MOL0     H37364   6.527   5.456   6.733 -2.8597  3.7506 -0.5341
  277MOL0     H37365   6.722   5.702   6.715 -2.9028  0.8742  0.5322
  277MOL0     H37366   6.572   5.689   6.633  0.2210  0.4053 -0.7765
  277MOL0     H37367   6.689   5.491   6.495 -0.1808  0.1787 -0.9609
  277MOL0     H37368   6.826   5.516   6.607 -2.0136 -2.0360 -0.6630
  277MOL0     H37369   6.693   5.734   6.444  0.1904  0.2221 -2.1727
  277MOL0     H37370   6.867   5.729   6.493  0.8341  0.6302 -2.6607
  277MOL0     H37371   6.813   5.719   6.241 -2.1461 -0.0041  0.7089
  277MOL0     H37372   6.741   5.567   6.270 -1.0697  1.4722 -0.8679
  277MOL0     H37373   7.034   5.634   6.334  1.0410 -0.7826 -1.5763
  277MOL0     H37374   6.940   5.489   6.362  4.0729  0.6511  2.0244
  277MOL0     H37375   6.585   5.128   7.056 -1.2737 -0.2227 -0.0148
  277MOL0     H37376   6.416   4.928   6.995  0.1361  0.5320  3.9989
  277MOL0     H37377   6.154   4.716   6.790 -1.0828 -2.2243 -3.1744
  277MOL0     H37378   6.015   4.531   6.792 -2.2703 -0.1465 -2.9847
  277MOL0     H37379   5.615   4.585   5.998 -1.8128 -2.4313 -1.8315
  277MOL0     H37380   5.597   4.675   5.773 -1.0262 -0.8184  1.3897
  277MOL0     H37381   5.725   4.583   5.340  1.7815 -0.7102  0.9892
  277MOL0     H37382   5.722   4.640   5.099  1.7431 -2.2453  2.2784
  277MOL0     H37383   5.728   5.065   4.954  0.6912  1.5503 -3.1124
  277MOL0     H37384   5.735   4.953   4.816  1.1586 -0.2560 -0.0526
  277MOL0     H37385   5.959   4.907   4.844 -1.9280 -0.4319  0.3427
  277MOL0     H37386   5.954   4.964   5.025 -1.5432  0.2274  0.7557
  277MOL0     H37387   6.082   5.131   4.930 -0.6329  0.5127  1.3775
  277MOL0     H37388   5.924   5.191   4.964 -1.2497 -1.8274  1.9235
  277MOL0     H37389   6.033   5.199   4.696 -1.5559 -0.2022 -2.1953
  277MOL0     H37390   5.951   5.049   4.689 -0.5663  0.9765 -2.2146
  277MOL0     H37391   5.635   5.327   4.678  2.4551  2.7561  1.2739
  277MOL0     H37392   5.726   5.069   5.198  1.4406 -0.7326 -0.5021
  277MOL0     H37393   5.844   5.130   5.367 -1.8199  1.1369  1.7879
  277MOL0     H37394   5.748   5.074   5.511 -1.0589  0.8205 -0.6905
  277MOL0     H37395   5.910   5.018   5.484  0.7899  0.0704  0.7173
  278MOL0     O37396   2.622  10.183   0.277  0.2783 -0.1687 -0.2165
  278MOL0     C37397   2.662  10.255   0.179  0.1731  0.0897 -0.4668
  278MOL0     O37398   2.580  10.321   0.087  0.4624  0.5551 -0.7202
  278MOL0     C37399   2.458  10.271   0.099  1.4332 -0.5189 -0.1558
  278MOL0     C37400   2.422  10.150   0.021  0.4387  0.2069  0.3103
  278MOL0     C37401   2.301  10.085   0.031  0.6010  0.5823  0.3867
  278MOL0     C37402   2.200  10.133   0.113  0.1996 -0.1384 -0.6908
  278MOL0     O37403   2.087  10.051   0.108 -0.5105  0.7605  0.0516
  278MOL0     C37404   1.961  10.095   0.160  0.2388 -0.6167  0.1713
  278MOL0     C37405   1.850  10.003   0.125  0.5175  0.8604 -0.1502
  278MOL0     C37406   1.792  10.035  -0.016 -0.0330  0.3457 -0.1044
  278MOL0     C37407   1.719   9.910  -0.062  0.0972  0.4960  0.5207
  278MOL0     C37408   1.588   9.887   0.010 -0.0747 -0.0013  0.0730
  278MOL0     C37409   1.506   9.762  -0.033 -0.8274  0.2189  0.5324
  278MOL0     C37410   1.376   9.751   0.047 -0.2366 -0.3034 -0.0112
  278MOL0     C37411   1.314   9.616   0.021  0.0440 -0.3605  0.0794
  278MOL0     N37412   1.210   9.596   0.116  0.4426 -0.5806 -0.3778
  278MOL0     C37413   1.228   9.521   0.224 -0.2537 -0.5172  0.1483
  278MOL0     C37414   1.098   9.517   0.277  0.5058 -0.1784 -0.5884
  278MOL0     C37415   1.061   9.454   0.407 -0.4301  0.5085  1.1912
  278MOL0     C37416   0.984   9.327   0.381 -0.2659  0.5373  0.5334
  278MOL0     C37417   1.059   9.191   0.398  0.4830 -0.7152 -0.5019
  278MOL0     C37418   0.974   9.072   0.351  0.1819  0.7999 -0.1789
  278MOL0     O37419   1.047   8.946   0.364  0.4613  0.1039  0.6242
  278MOL0     C37420   1.112   8.906   0.255 -0.5166 -0.1637 -1.1567
  278MOL0     C37421   1.054   8.887   0.132  0.2210 -0.3210  0.3860
  278MOL0     C37422   1.120   8.857   0.006  0.0110  0.6591 -0.2148
  278MOL0     C37423   1.260   8.840   0.018 -0.0176  0.2466 -0.2980
  278MOL0     C37424   1.334   8.815  -0.100 -0.7251  0.7818  0.3559
  278MOL0     O37425   1.455   8.756  -0.086  0.1011  1.5249  0.6324
  278MOL0     C37426   1.507   8.680  -0.190  0.7258 -0.3041 -0.4039
  278MOL0     C37427   1.518   8.724  -0.320  1.2116 -0.1977 -0.5494
  278MOL0     C37428   1.566   8.638  -0.416 -0.9325  0.3306 -0.2353
  278MOL0     C37429   1.620   8.514  -0.375 -0.6378 -0.4188 -0.1321
  278MOL0     O37430   1.663   8.421  -0.468  0.2574 -0.2260  0.1479
  278MOL0     C37431   1.576   8.403  -0.581 -0.1550  0.1049  0.8124
  278MOL0     C37432   1.627   8.286  -0.662  0.8658  0.1679  0.4953
  278MOL0     C37433   1.770   8.263  -0.707  0.3687  0.4374  1.1227
  278MOL0     C37434   1.779   8.133  -0.785  0.2374 -0.7930  0.5080
  278MOL0     C37435   1.925   8.088  -0.793  0.2197  0.8514  0.5294
  278MOL0     C37436   1.970   7.979  -0.903 -0.7146 -0.3024 -0.7282
  278MOL0     C37437   1.936   8.030  -1.044  0.5779 -0.0073 -0.3936
  278MOL0     C37438   1.992   7.938  -1.154 -0.2063  0.3470 -0.6399
  278MOL0    Cl37439   1.992   8.014  -1.309 -0.2731 -0.4975  0.5109
  278MOL0     C37440   1.624   8.474  -0.241 -0.2672 -0.3754  0.1977
  278MOL0     C37441   1.561   8.562  -0.149 -0.7023  0.4695 -0.1209
  278MOL0     O37442   1.278   8.844  -0.209 -0.5211  0.3549  0.8426
  278MOL0     C37443   1.317   8.851   0.148 -0.2207 -0.4232 -0.4513
  278MOL0     C37444   1.253   8.886   0.258 -0.1523 -0.0710  0.6513
  278MOL0     N37445   1.019   9.590   0.201 -0.6885 -0.2694  0.0692
  278MOL0     N37446   1.090   9.645   0.110  0.2662  1.3364  0.1114
  278MOL0     C37447   2.221  10.255   0.181 -0.1113  0.5171  0.8377
  278MOL0     C37448   2.344  10.320   0.169  0.4000  0.8103  0.9460
  278MOL0     C37449   2.813  10.290   0.173  0.8186 -0.4881  0.0448
  278MOL0     C37450   2.854  10.412   0.111  0.4404  0.1107  0.1344
  278MOL0     C37451   2.993  10.449   0.096  0.8709  0.4768 -0.6880
  278MOL0     C37452   3.086  10.377   0.168 -0.0992 -0.0675 -0.4034
  278MOL0     O37453   3.216  10.427   0.159 -1.4143 -0.2057 -0.1086
  278MOL0     C37454   3.306  10.386   0.261 -0.6222 -0.3542 -0.4388
  278MOL0     C37455   3.427  10.482   0.276 -0.2436  0.0005 -0.0421
  278MOL0     C37456   3.384  10.596   0.354  0.3664 -0.0546  0.1156
  278MOL0     C37457   3.272  10.681   0.287  0.2036  0.8557  0.1499
  278MOL0     C37458   3.268  10.808   0.365 -0.2541  0.0677  0.2634
  278MOL0     C37459   3.272  10.912   0.426 -0.1134 -0.2042  0.6692
  278MOL0     C37460   3.051  10.258   0.239  1.0784 -0.0239  0.2688
  278MOL0     C37461   2.913  10.213   0.246 -0.6899 -0.2480 -0.1710
  278MOL0     C37462   2.883  10.088   0.346 -0.0277  0.7968  0.2798
  278MOL0     H37463   2.502  10.101  -0.034 -0.7858 -0.4068 -1.0069
  278MOL0     H37464   2.299   9.985  -0.012 -2.1073  0.3588  0.8848
  278MOL0     H37465   1.974  10.106   0.269 -0.0755 -2.2528  0.3969
  278MOL0     H37466   1.940  10.191   0.112 -0.8063 -2.0386 -2.4029
  278MOL0     H37467   1.772   9.996   0.202 -0.9795  3.4711 -1.3339
  278MOL0     H37468   1.905   9.908   0.119  4.1493  2.6940  0.8902
  278MOL0     H37469   1.873  10.053  -0.087 -1.8240  1.4496 -2.0137
  278MOL0     H37470   1.712  10.110  -0.019 -1.6882 -1.2477  1.5095
  278MOL0     H37471   1.693   9.932  -0.166 -1.4960  2.0233  1.1980
  278MOL0     H37472   1.776   9.817  -0.057 -0.1053  0.2758 -0.8600
  278MOL0     H37473   1.598   9.888   0.119 -0.4248 -0.0118  0.1050
  278MOL0     H37474   1.533   9.978  -0.014  1.6050  1.0444 -0.0188
  278MOL0     H37475   1.489   9.766  -0.141  0.7317  1.1455  0.2973
  278MOL0     H37476   1.574   9.678  -0.018 -0.9351 -0.1996 -1.1710
  278MOL0     H37477   1.308   9.828   0.007 -2.1395 -0.7893  2.1293
  278MOL0     H37478   1.400   9.770   0.152 -2.7033 -0.3076  0.6060
  278MOL0     H37479   1.275   9.605  -0.080  1.2033  0.1503 -0.4369
  278MOL0     H37480   1.393   9.543   0.039 -0.3262 -0.3404  2.0256
  278MOL0     H37481   1.319   9.471   0.258 -1.0866 -1.4448  1.0869
  278MOL0     H37482   1.142   9.443   0.479  0.7530  3.5113  0.4514
  278MOL0     H37483   0.986   9.524   0.446 -2.6906 -1.5329  0.7871
  278MOL0     H37484   0.901   9.320   0.452 -0.3938 -2.1960  0.2313
  278MOL0     H37485   0.951   9.335   0.277  4.1594  0.5375 -1.0962
  278MOL0     H37486   1.072   9.180   0.506  0.1476 -1.9299 -0.5769
  278MOL0     H37487   1.145   9.190   0.330  1.3538  0.5223  0.5333
  278MOL0     H37488   0.948   9.091   0.247 -0.6830  1.0436  0.0741
  278MOL0     H37489   0.880   9.068   0.406 -0.7144 -0.4249 -1.7064
  278MOL0     H37490   0.948   8.907   0.120  0.3762 -0.2500 -1.1421
  278MOL0     H37491   1.075   8.848  -0.092 -1.2446  2.1397  0.1790
  278MOL0     H37492   1.488   8.825  -0.347  0.1049 -1.1743 -3.3390
  278MOL0     H37493   1.581   8.669  -0.519 -1.1434  0.6300 -0.1783
  278MOL0     H37494   1.471   8.402  -0.551  0.2444  1.9293  2.4811
  278MOL0     H37495   1.592   8.486  -0.651  0.0728 -1.9825 -1.7685
  278MOL0     H37496   1.603   8.201  -0.598  0.7108 -0.4467 -0.3666
  278MOL0     H37497   1.570   8.267  -0.753 -0.1931  1.2137  0.9134
  278MOL0     H37498   1.796   8.338  -0.783 -0.8260  0.4050  0.6424
  278MOL0     H37499   1.830   8.295  -0.621 -0.4136  1.1900  1.4105
  278MOL0     H37500   1.748   8.157  -0.887 -0.0122 -0.9155  0.5546
  278MOL0     H37501   1.712   8.071  -0.725  0.4573 -0.3877  1.1821
  278MOL0     H37502   1.951   8.061  -0.691 -0.4221 -0.4872  0.3667
  278MOL0     H37503   1.983   8.179  -0.813  0.2768  0.6049 -0.5150
  278MOL0     H37504   2.078   7.968  -0.908 -0.5959  0.6038 -0.3867
  278MOL0     H37505   1.929   7.882  -0.873  0.0086 -0.1679  0.8212
  278MOL0     H37506   1.977   8.130  -1.058 -1.4785  0.8395 -0.7548
  278MOL0     H37507   1.827   8.043  -1.049  0.4991  0.5605  1.7122
  278MOL0     H37508   2.091   7.898  -1.133  0.6866  2.6788 -0.1106
  278MOL0     H37509   1.928   7.849  -1.153  2.0051 -1.3363  0.8207
  278MOL0     H37510   1.667   8.376  -0.225 -0.6200 -0.7933 -1.3078
  278MOL0     H37511   1.578   8.546  -0.043 -0.0398 -0.6032 -0.3778
  278MOL0     H37512   1.424   8.837   0.162 -0.4052 -2.8793 -1.1523
  278MOL0     H37513   1.301   8.912   0.351 -0.3257  1.3104  0.3672
  278MOL0     H37514   2.137  10.287   0.242 -1.0531 -1.1738  0.5177
  278MOL0     H37515   2.353  10.414   0.223  0.3490  0.3960  1.7018
  278MOL0     H37516   2.775  10.474   0.071 -0.0753 -0.3866  0.3668
  278MOL0     H37517   3.031  10.531   0.036 -1.6394  0.1288 -2.9566
  278MOL0     H37518   3.338  10.283   0.244 -1.0742 -0.3133 -1.5719
  278MOL0     H37519   3.252  10.389   0.357 -2.7416 -0.2624 -1.5840
  278MOL0     H37520   3.467  10.524   0.183  0.1789  2.0027  0.9953
  278MOL0     H37521   3.512  10.442   0.333  1.0493  3.3975  0.6590
  278MOL0     H37522   3.476  10.654   0.345 -0.0555  0.5076 -0.8191
  278MOL0     H37523   3.358  10.572   0.457 -0.5685  1.4836  0.2726
  278MOL0     H37524   3.292  10.700   0.181 -0.3156  2.2241  0.2801
  278MOL0     H37525   3.180  10.622   0.290  2.7473 -3.6663 -0.4285
  278MOL0     H37526   3.262  11.000   0.486 -1.7926  1.4879 -1.8880
  278MOL0     H37527   3.125  10.189   0.278 -0.2476 -0.5196  2.0226
  278MOL0     H37528   2.969  10.021   0.358 -1.7877 -2.0991 -1.8234
  278MOL0     H37529   2.850  10.118   0.446 -0.2990  1.4427  0.0040
  278MOL0     H37530   2.800  10.028   0.306 -2.1144  1.7693  2.8429
  279MOL0     O37531   0.642   3.845   2.012 -0.2433  0.5504  0.0146
  279MOL0     C37532   0.677   3.842   1.890  0.7364  0.3623 -0.1461
  279MOL0     O37533   0.703   3.951   1.813 -0.0669  0.2327 -0.0097
  279MOL0     C37534   0.676   4.073   1.884  0.1781  0.8125  0.2756
  279MOL0     C37535   0.745   4.111   1.999 -0.1862 -0.3040 -0.0411
  279MOL0     C37536   0.743   4.241   2.049 -0.1550  0.6881  0.5618
  279MOL0     C37537   0.663   4.342   1.991 -0.9123  0.0710  0.9190
  279MOL0     O37538   0.632   4.465   2.031  0.4098  0.2603  0.3385
  279MOL0     C37539   0.723   4.537   2.109 -0.2093  0.8754  0.4514
  279MOL0     C37540   0.837   4.583   2.003  0.0921  0.4389 -1.4505
  279MOL0     C37541   0.798   4.684   1.896  0.3241 -0.5075 -0.2293
  279MOL0     C37542   0.933   4.744   1.847  0.8989  0.4915  0.3419
  279MOL0     C37543   0.911   4.863   1.752 -0.2188 -0.4898 -1.0787
  279MOL0     C37544   0.859   4.829   1.620  0.8656 -0.0460  0.8261
  279MOL0     C37545   0.817   4.960   1.551  0.2007  1.1942 -0.6458
  279MOL0     C37546   0.939   5.031   1.495  0.1575  0.0524 -1.1477
  279MOL0     N37547   0.927   5.178   1.466 -0.0214  0.7646  0.1036
  279MOL0     C37548   0.840   5.238   1.379  0.3916  0.2374  0.0870
  279MOL0     C37549   0.870   5.370   1.374 -0.4808  0.8312  0.9523
  279MOL0     C37550   0.831   5.474   1.269  0.5433 -0.8864  0.6864
  279MOL0     C37551   0.702   5.556   1.317 -0.0979  0.0618 -1.2094
  279MOL0     C37552   0.724   5.637   1.448 -0.4139  1.0454  0.8864
  279MOL0     C37553   0.617   5.592   1.554  0.4570 -0.9408 -0.0326
  279MOL0     O37554   0.619   5.447   1.577  0.2359 -0.3092  0.3934
  279MOL0     C37555   0.618   5.407   1.707  0.2029 -0.3216 -0.0273
  279MOL0     C37556   0.585   5.486   1.817  0.5901  0.4262  0.2751
  279MOL0     C37557   0.585   5.422   1.944 -0.4401  0.0031 -0.2034
  279MOL0     C37558   0.653   5.303   1.963 -0.8833  0.2442 -0.2803
  279MOL0     C37559   0.667   5.235   2.094 -0.0546  0.1347 -0.2658
  279MOL0     O37560   0.761   5.138   2.090 -0.6392 -0.2186 -0.6238
  279MOL0     C37561   0.769   5.045   2.188 -0.6965 -0.5522 -0.8999
  279MOL0     C37562   0.889   5.042   2.267  0.5916 -0.2143 -0.1362
  279MOL0     C37563   0.906   4.956   2.374 -0.7064  0.1455  0.1458
  279MOL0     C37564   0.809   4.867   2.409  0.8023  0.1679  0.4796
  279MOL0     O37565   0.827   4.776   2.514 -0.4391 -0.1298  0.5690
  279MOL0     C37566   0.756   4.820   2.636 -0.5950  0.2855  0.0330
  279MOL0     C37567   0.865   4.825   2.748 -0.0462  0.2878  1.3665
  279MOL0     C37568   0.809   4.872   2.878 -0.0246 -0.3775  0.3575
  279MOL0     C37569   0.915   4.943   2.961 -0.6740  0.4207 -0.3807
  279MOL0     C37570   0.886   4.951   3.110 -0.0934 -0.0241  0.1631
  279MOL0     C37571   0.852   4.824   3.180  0.5787  0.1498  0.4773
  279MOL0     C37572   0.968   4.732   3.191  0.1383  1.1148 -0.6116
  279MOL0     C37573   0.925   4.581   3.213  0.1683 -0.3409 -0.4391
  279MOL0    Cl37574   0.861   4.501   3.069  0.1595  0.0265  0.1412
  279MOL0     C37575   0.695   4.867   2.331  0.6813 -0.6013 -0.6708
  279MOL0     C37576   0.672   4.953   2.224 -0.1845 -0.0292 -0.6460
  279MOL0     O37577   0.601   5.268   2.192 -0.1529  0.3501 -0.4928
  279MOL0     C37578   0.694   5.226   1.847  0.0662  0.3817  0.1069
  279MOL0     C37579   0.670   5.280   1.723  0.7821 -0.4206 -0.0726
  279MOL0     N37580   0.969   5.385   1.472 -0.1762  0.5685  0.1696
  279MOL0     N37581   1.009   5.275   1.519  0.6223  0.1124 -0.2761
  279MOL0     C37582   0.582   4.308   1.877  0.7432  0.8761 -1.3311
  279MOL0     C37583   0.598   4.176   1.815 -0.0190 -0.5846 -0.9165
  279MOL0     C37584   0.712   3.711   1.839  0.3942  0.3141  0.4338
  279MOL0     C37585   0.805   3.706   1.729  0.3769 -0.1033  0.2831
  279MOL0     C37586   0.836   3.578   1.674  0.5526 -1.1125  0.3002
  279MOL0     C37587   0.788   3.459   1.720 -0.1582  0.2979 -0.5789
  279MOL0     O37588   0.821   3.334   1.693  0.0375 -0.5489  0.4822
  279MOL0     C37589   0.871   3.285   1.561  0.7059 -0.6825 -0.0132
  279MOL0     C37590   0.905   3.136   1.570 -0.0645  0.1685  0.4847
  279MOL0     C37591   0.782   3.062   1.596  0.3577 -0.6549  1.3000
  279MOL0     C37592   0.723   2.985   1.472 -0.5512  0.3231 -0.2329
  279MOL0     C37593   0.592   2.921   1.482 -0.2083 -0.0773 -0.4532
  279MOL0     C37594   0.479   2.868   1.472 -0.1430 -1.1942  0.1259
  279MOL0     C37595   0.695   3.469   1.822 -0.0195  0.6351 -1.2247
  279MOL0     C37596   0.655   3.590   1.888 -0.5150 -0.1794  0.4496
  279MOL0     C37597   0.561   3.575   2.009  1.0684 -0.9883 -0.2110
  279MOL0     H37598   0.818   4.041   2.039  2.4948  1.8415 -0.8508
  279MOL0     H37599   0.799   4.253   2.141  0.4142  2.3619  0.0258
  279MOL0     H37600   0.667   4.622   2.150 -0.6897  1.1008 -0.6226
  279MOL0     H37601   0.768   4.469   2.181 -3.5665 -0.1599  1.7288
  279MOL0     H37602   0.867   4.490   1.953  0.2744 -1.6339  2.1378
  279MOL0     H37603   0.922   4.621   2.059 -2.5230  4.5369  0.1613
  279MOL0     H37604   0.722   4.755   1.930 -0.7145 -1.6125 -0.1751
  279MOL0     H37605   0.753   4.632   1.811  2.1878  1.4836 -2.6032
  279MOL0     H37606   0.988   4.781   1.934 -0.5781 -1.7505  2.3528
  279MOL0     H37607   0.993   4.673   1.789  1.1230 -1.3644  2.6767
  279MOL0     H37608   0.846   4.930   1.808  2.0348  0.5365  0.4500
  279MOL0     H37609   1.011   4.906   1.743  1.0178 -2.4928  1.7469
  279MOL0     H37610   0.930   4.769   1.562  0.6351  2.5910 -2.4788
  279MOL0     H37611   0.773   4.762   1.632  1.1110 -0.2468  1.4954
  279MOL0     H37612   0.763   5.025   1.620  2.5107 -1.3842  4.0852
  279MOL0     H37613   0.756   4.936   1.463 -0.7480 -0.5629  0.4352
  279MOL0     H37614   1.026   5.018   1.560 -0.5229 -2.1552 -0.6059
  279MOL0     H37615   0.952   4.988   1.395 -4.0056  0.2838 -1.9708
  279MOL0     H37616   0.763   5.190   1.318  1.5091 -1.8992  0.2750
  279MOL0     H37617   0.913   5.539   1.236  1.1310 -2.5015 -1.2695
  279MOL0     H37618   0.797   5.418   1.181  0.2619 -1.6318  1.2639
  279MOL0     H37619   0.668   5.620   1.236 -2.9373 -0.5849 -0.6214
  279MOL0     H37620   0.622   5.483   1.333  0.9671 -1.1201 -1.0570
  279MOL0     H37621   0.710   5.740   1.414  3.1671  1.5602  0.6006
  279MOL0     H37622   0.821   5.620   1.495 -1.8497  0.8726  4.0054
  279MOL0     H37623   0.518   5.616   1.514  1.2507  1.8813 -0.4936
  279MOL0     H37624   0.627   5.665   1.635  2.4071 -1.4568  0.2493
  279MOL0     H37625   0.546   5.588   1.813  1.4701  0.7973  0.8753
  279MOL0     H37626   0.550   5.473   2.033 -0.6131 -0.4979  0.0186
  279MOL0     H37627   0.966   5.116   2.250 -0.5476  0.4555 -2.8964
  279MOL0     H37628   1.005   4.962   2.420  0.3393 -2.1662 -1.5547
  279MOL0     H37629   0.718   4.922   2.632 -4.4045 -0.9678 -0.1485
  279MOL0     H37630   0.678   4.748   2.663  1.0088 -1.9484 -0.9648
  279MOL0     H37631   0.919   4.730   2.756  3.5677  1.2947 -4.6855
  279MOL0     H37632   0.934   4.903   2.715 -0.8798  0.6077  0.3582
  279MOL0     H37633   0.728   4.943   2.857 -0.6709 -1.8118 -2.6195
  279MOL0     H37634   0.776   4.773   2.912  3.5109 -1.2545  1.7276
  279MOL0     H37635   0.922   5.048   2.932 -1.1020  1.6657  3.4250
  279MOL0     H37636   1.013   4.898   2.939 -1.2630  0.1699 -2.7877
  279MOL0     H37637   0.817   5.033   3.133  1.1992  0.6739  1.8408
  279MOL0     H37638   0.970   4.993   3.167 -0.1122 -0.6799  0.6905
  279MOL0     H37639   0.816   4.838   3.282  4.1592  0.5567  1.8113
  279MOL0     H37640   0.765   4.781   3.129  0.4877  0.4357  0.3887
  279MOL0     H37641   1.042   4.763   3.266 -0.1347 -0.0131  0.1644
  279MOL0     H37642   1.020   4.740   3.096  0.4436 -0.1140 -0.5578
  279MOL0     H37643   1.007   4.515   3.244 -2.0416 -3.3005 -0.4495
  279MOL0     H37644   0.852   4.583   3.294  0.4615  0.4361 -0.1817
  279MOL0     H37645   0.621   4.801   2.374 -1.7503  0.9592 -2.2375
  279MOL0     H37646   0.588   4.954   2.156  2.0360  2.1265 -3.6289
  279MOL0     H37647   0.731   5.124   1.856 -0.8867  0.0590  0.4114
  279MOL0     H37648   0.698   5.232   1.630  0.4449 -1.2105  0.2271
  279MOL0     H37649   0.511   4.384   1.847 -3.5680 -1.0447  2.7089
  279MOL0     H37650   0.545   4.184   1.720  1.9909 -0.3045 -2.0856
  279MOL0     H37651   0.860   3.795   1.699  1.1576 -1.2116 -1.8330
  279MOL0     H37652   0.903   3.567   1.590 -0.0982 -3.8896  0.0753
  279MOL0     H37653   0.955   3.345   1.524 -1.1736  1.6355 -0.7588
  279MOL0     H37654   0.802   3.311   1.481 -0.4584 -2.0400  0.4936
  279MOL0     H37655   0.970   3.123   1.657 -0.4495 -0.3231  0.7024
  279MOL0     H37656   0.945   3.103   1.474 -1.2767 -0.6567  0.2350
  279MOL0     H37657   0.710   3.138   1.628  2.0489  0.4885  2.6464
  279MOL0     H37658   0.795   2.983   1.671 -3.6508 -2.8575 -0.0428
  279MOL0     H37659   0.711   3.069   1.403 -2.4987  0.6751  0.4685
  279MOL0     H37660   0.786   2.909   1.423 -2.4696  1.2230 -4.6066
  279MOL0     H37661   0.384   2.817   1.475 -0.1118 -1.2239  2.8750
  279MOL0     H37662   0.666   3.378   1.874  1.5253  0.2523 -0.9835
  279MOL0     H37663   0.602   3.626   2.096 -0.2844  1.3962 -0.9031
  279MOL0     H37664   0.467   3.626   1.988  0.3623 -1.8119  0.8483
  279MOL0     H37665   0.545   3.470   2.036  0.1206 -1.1011 -1.1491
  280MOL0     O37666   4.974  11.404   2.542  0.3995 -0.4431  0.3698
  280MOL0     C37667   5.031  11.299   2.550 -0.8069 -0.5088  0.1318
  280MOL0     O37668   4.981  11.186   2.512  0.3166  0.2931 -0.3167
  280MOL0     C37669   4.866  11.191   2.425  0.0727  1.2755  0.5262
  280MOL0     C37670   4.741  11.214   2.486 -1.0760 -0.5667 -0.0019
  280MOL0     C37671   4.630  11.227   2.398 -0.5255 -0.1300  0.3099
  280MOL0     C37672   4.642  11.208   2.259  0.0965  0.1597 -0.8043
  280MOL0     O37673   4.523  11.203   2.194 -1.4749 -0.2285  0.2548
  280MOL0     C37674   4.479  11.085   2.135 -0.0587 -0.9164  0.1688
  280MOL0     C37675   4.329  11.073   2.181 -0.1613 -0.2422 -0.0391
  280MOL0     C37676   4.237  11.093   2.056  0.0742 -1.4070 -0.4328
  280MOL0     C37677   4.087  11.120   2.096 -0.2009 -0.2445 -0.4735
  280MOL0     C37678   3.997  11.149   1.977  0.6078  0.5118  0.2811
  280MOL0     C37679   3.841  11.145   2.021  0.1813  0.8003  0.3402
  280MOL0     C37680   3.764  11.159   1.892 -0.0042 -0.1562 -0.4538
  280MOL0     C37681   3.612  11.138   1.921  0.4999  0.0884 -0.5727
  280MOL0     N37682   3.553  11.254   1.997 -0.9957  0.4313  1.2584
  280MOL0     C37683   3.543  11.382   1.954  0.1530 -0.9810 -0.2721
  280MOL0     C37684   3.471  11.447   2.054  0.3353  1.3061 -0.0797
  280MOL0     C37685   3.436  11.582   2.037  0.2900 -0.9077  0.2589
  280MOL0     C37686   3.370  11.641   2.157  0.2330 -0.3688  0.6192
  280MOL0     C37687   3.455  11.621   2.283 -0.7285  0.4148  0.6635
  280MOL0     C37688   3.472  11.747   2.367  0.2353  0.1449 -0.3262
  280MOL0     O37689   3.349  11.803   2.403  0.1564 -0.1650  0.0840
  280MOL0     C37690   3.354  11.930   2.459 -0.8361 -0.3608 -0.9021
  280MOL0     C37691   3.313  12.045   2.389 -0.4902  0.7068  0.2151
  280MOL0     C37692   3.278  12.159   2.456  0.1006 -0.2840  0.6653
  280MOL0     C37693   3.301  12.172   2.594 -0.3206  0.3409  0.9326
  280MOL0     C37694   3.271  12.304   2.659 -1.3078  0.1129  0.3524
  280MOL0     O37695   3.215  12.296   2.782  0.3055 -0.2919  0.1158
  280MOL0     C37696   3.167  12.421   2.833  0.6589  1.1283  0.4024
  280MOL0     C37697   3.222  12.470   2.950  0.3117 -0.7931 -0.2859
  280MOL0     C37698   3.172  12.589   3.000 -0.5371 -0.1669  0.6252
  280MOL0     C37699   3.082  12.668   2.937  0.5452 -0.0510 -0.4015
  280MOL0     O37700   3.040  12.788   2.999 -0.3692 -0.4500  0.3020
  280MOL0     C37701   2.957  12.884   2.916 -0.0782  1.0672  0.0358
  280MOL0     C37702   3.031  12.934   2.797 -0.6132  0.8012 -0.1544
  280MOL0     C37703   2.952  13.021   2.704  0.0923  0.0760  0.2334
  280MOL0     C37704   3.026  13.073   2.576  0.2806  0.9649  0.1105
  280MOL0     C37705   2.948  13.067   2.445 -0.0390  0.0917 -0.1577
  280MOL0     C37706   3.018  13.157   2.342 -0.1067 -1.0384  0.8150
  280MOL0     C37707   2.985  13.118   2.197 -0.3611  0.1405 -0.4592
  280MOL0     C37708   3.076  13.204   2.105  0.0826 -0.2408  0.2577
  280MOL0    Cl37709   3.236  13.134   2.102 -0.3608 -0.3388  0.2473
  280MOL0     C37710   3.021  12.618   2.823  0.0334 -0.1764 -0.9283
  280MOL0     C37711   3.060  12.492   2.771  0.6060 -0.0067 -0.8584
  280MOL0     O37712   3.291  12.405   2.592 -0.3130 -0.3093 -0.4611
  280MOL0     C37713   3.352  12.059   2.662  0.0608 -0.3580 -0.0045
  280MOL0     C37714   3.362  11.930   2.598  0.2720  0.0178  0.1304
  280MOL0     N37715   3.438  11.350   2.151 -1.2599 -0.0324  0.9204
  280MOL0     N37716   3.482  11.231   2.110  0.1965  0.0302 -0.5660
  280MOL0     C37717   4.767  11.170   2.205 -0.5589  0.0525  0.2874
  280MOL0     C37718   4.879  11.161   2.291  0.3281  0.1880 -0.8716
  280MOL0     C37719   5.167  11.310   2.612  0.0157  0.1108 -0.5231
  280MOL0     C37720   5.188  11.421   2.694 -0.2320 -0.9374  0.2648
  280MOL0     C37721   5.313  11.436   2.747 -0.4085 -0.1044 -0.7854
  280MOL0     C37722   5.411  11.346   2.738  0.2048 -0.8308 -0.2610
  280MOL0     O37723   5.533  11.359   2.807 -0.8050  0.1124  0.0935
  280MOL0     C37724   5.544  11.459   2.913  0.0274  0.3667  0.2945
  280MOL0     C37725   5.689  11.457   2.962  0.1454  0.0314  0.2775
  280MOL0     C37726   5.719  11.561   3.067 -0.0140 -0.0625  0.4223
  280MOL0     C37727   5.854  11.527   3.131  0.7905 -0.3340 -0.3981
  280MOL0     C37728   5.844  11.423   3.227  0.5634 -0.1733 -0.4483
  280MOL0     C37729   5.833  11.340   3.319  0.2195 -0.1002  0.9498
  280MOL0     C37730   5.398  11.249   2.637 -0.0722 -0.2924 -0.1578
  280MOL0     C37731   5.277  11.229   2.574  0.2866 -0.3492  0.1935
  280MOL0     C37732   5.267  11.111   2.478 -0.1512  0.7465 -0.3689
  280MOL0     H37733   4.735  11.207   2.594  0.7977 -0.8234  0.1079
  280MOL0     H37734   4.533  11.246   2.442 -0.5043  1.9007 -0.4302
  280MOL0     H37735   4.499  11.082   2.028  1.6679  3.2713  0.2068
  280MOL0     H37736   4.529  11.000   2.184 -1.3233 -1.3430  0.7503
  280MOL0     H37737   4.308  11.147   2.258  0.4113  0.8559 -0.9096
  280MOL0     H37738   4.327  10.980   2.239 -0.5800 -1.1435 -1.4336
  280MOL0     H37739   4.241  11.007   1.989  1.7156 -1.4523 -0.3237
  280MOL0     H37740   4.268  11.184   2.003 -0.1974 -1.5528 -0.8443
  280MOL0     H37741   4.061  11.030   2.152  0.9317  0.9583  2.1173
  280MOL0     H37742   4.076  11.203   2.165 -3.2612 -0.4315 -0.5984
  280MOL0     H37743   4.020  11.246   1.933 -3.5652  0.6981 -2.0329
  280MOL0     H37744   4.013  11.073   1.899  0.3082 -1.1561  1.7650
  280MOL0     H37745   3.809  11.057   2.078  0.1366  2.0561  2.3472
  280MOL0     H37746   3.822  11.231   2.087  1.5746 -0.6280  2.7821
  280MOL0     H37747   3.791  11.083   1.818 -2.7805  0.7855 -2.6407
  280MOL0     H37748   3.785  11.253   1.841 -0.3304  0.2831  0.2186
  280MOL0     H37749   3.542  11.117   1.839 -3.6880  0.5421  2.5882
  280MOL0     H37750   3.609  11.056   1.992 -1.9133 -0.6812 -1.4770
  280MOL0     H37751   3.586  11.417   1.861 -0.6394 -2.8454 -1.4155
  280MOL0     H37752   3.521  11.643   2.004  1.1556 -2.4230 -0.4171
  280MOL0     H37753   3.358  11.582   1.960  1.0935  0.6234 -0.6187
  280MOL0     H37754   3.375  11.750   2.145  2.7428 -0.6573 -2.2491
  280MOL0     H37755   3.265  11.615   2.174 -0.9810  3.1902 -0.6319
  280MOL0     H37756   3.555  11.585   2.259 -1.0485  1.9231 -4.0562
  280MOL0     H37757   3.402  11.544   2.339  2.6107 -3.1499 -0.7032
  280MOL0     H37758   3.515  11.825   2.304  0.2475  0.4940  0.1149
  280MOL0     H37759   3.530  11.734   2.459  1.0793  3.1382 -0.3474
  280MOL0     H37760   3.305  12.054   2.281  1.0859  3.8722  0.2448
  280MOL0     H37761   3.234  12.238   2.396 -0.0138 -1.8554 -1.4538
  280MOL0     H37762   3.307  12.423   2.997  0.0587  0.2797  1.3402
  280MOL0     H37763   3.216  12.620   3.094  2.7385  2.3857 -1.5334
  280MOL0     H37764   2.871  12.828   2.880  0.7478 -0.4807  0.3605
  280MOL0     H37765   2.920  12.968   2.976 -2.3630  0.8923 -1.0455
  280MOL0     H37766   3.118  12.988   2.835 -0.8221  0.4267  0.8960
  280MOL0     H37767   3.072  12.851   2.738 -0.6948 -0.3191  1.3005
  280MOL0     H37768   2.862  12.971   2.667  1.2730 -2.7330  0.8482
  280MOL0     H37769   2.913  13.104   2.764 -0.2736 -1.5256  2.3255
  280MOL0     H37770   3.116  13.009   2.576  0.1979  0.8249 -0.9254
  280MOL0     H37771   3.060  13.175   2.595 -1.1745  0.9915  3.1379
  280MOL0     H37772   2.851  13.109   2.473 -1.4843 -4.7235  3.3702
  280MOL0     H37773   2.942  12.963   2.412 -2.3313 -0.2346  1.0654
  280MOL0     H37774   2.983  13.258   2.367  3.0868  0.4385 -0.2386
  280MOL0     H37775   3.126  13.149   2.356 -0.0547  1.7358  2.8278
  280MOL0     H37776   2.881  13.133   2.169 -0.6444  0.2339  0.6033
  280MOL0     H37777   3.005  13.012   2.177 -1.0159  0.4884 -3.3890
  280MOL0     H37778   3.036  13.209   2.003  2.8986  0.1418 -0.9177
  280MOL0     H37779   3.083  13.309   2.136 -1.0098  0.5103 -1.8752
  280MOL0     H37780   2.943  12.654   2.757 -0.3889 -1.0388 -0.9170
  280MOL0     H37781   3.014  12.445   2.684  0.3842 -2.8419  0.6467
  280MOL0     H37782   3.350  12.061   2.770 -3.2868  1.2625  0.0324
  280MOL0     H37783   3.364  11.834   2.649  0.4064  0.0096  0.1093
  280MOL0     H37784   4.772  11.143   2.099  3.3334 -0.8888  0.5651
  280MOL0     H37785   4.972  11.129   2.246  1.3479  1.9782 -0.1294
  280MOL0     H37786   5.103  11.485   2.716 -0.4404 -1.9809  2.9333
  280MOL0     H37787   5.318  11.514   2.822 -2.3284 -0.7647  0.1099
  280MOL0     H37788   5.480  11.440   2.999  0.7350  0.2449  0.7940
  280MOL0     H37789   5.525  11.558   2.870  2.1598 -0.3444 -2.6554
  280MOL0     H37790   5.754  11.469   2.875 -2.0853 -0.3112 -1.5279
  280MOL0     H37791   5.706  11.355   2.998  0.8304  0.5669  1.5361
  280MOL0     H37792   5.646  11.567   3.148  1.1497  1.1167  1.4260
  280MOL0     H37793   5.728  11.658   3.018  0.2832 -0.1648  0.2700
  280MOL0     H37794   5.923  11.500   3.050  2.3192  0.5256  0.5802
  280MOL0     H37795   5.890  11.621   3.171 -1.2602  1.6307 -2.8300
  280MOL0     H37796   5.818  11.276   3.404  0.2012 -0.7485  0.4693
  280MOL0     H37797   5.481  11.182   2.619  0.0436  0.4803 -2.9939
  280MOL0     H37798   5.214  11.028   2.524  1.0480 -0.3392 -0.8823
  280MOL0     H37799   5.208  11.130   2.387 -1.0004 -0.6986 -0.1530
  280MOL0     H37800   5.365  11.072   2.449 -0.6247 -2.8723  2.2567
  281MOL0     O37801   4.529   5.590   4.992  0.6635  0.1712 -0.4050
  281MOL0     C37802   4.565   5.675   4.911 -0.7440 -0.5262  0.5824
  281MOL0     O37803   4.481   5.730   4.821 -0.3904 -0.0352 -0.1203
  281MOL0     C37804   4.345   5.717   4.843  0.1796 -0.4595 -0.2218
  281MOL0     C37805   4.269   5.708   4.959 -0.2894  0.1858 -0.6898
  281MOL0     C37806   4.143   5.663   4.964  0.1170  0.8558  0.0087
  281MOL0     C37807   4.068   5.643   4.849  1.0831 -1.1953  0.5329
  281MOL0     O37808   3.922   5.649   4.860  0.6603  0.3654  0.5097
  281MOL0     C37809   3.851   5.651   4.983 -1.0807 -1.1135  1.0946
  281MOL0     C37810   3.697   5.638   4.961 -0.0976  0.3484  0.2707
  281MOL0     C37811   3.625   5.750   5.040  0.6334 -0.6737 -0.6146
  281MOL0     C37812   3.474   5.727   5.035 -0.0720  0.2530 -0.3214
  281MOL0     C37813   3.410   5.842   5.116 -0.4416 -0.1708  0.6209
  281MOL0     C37814   3.258   5.838   5.093  0.1922  0.0653  0.2876
  281MOL0     C37815   3.177   5.930   5.191 -0.8058  0.7992  0.2544
  281MOL0     C37816   3.023   5.942   5.161 -0.1991  0.4195  0.6111
  281MOL0     N37817   2.990   6.015   5.038 -0.4520 -0.3264 -0.3406
  281MOL0     C37818   2.966   5.940   4.924 -0.2737 -0.1753 -0.7248
  281MOL0     C37819   2.896   6.021   4.843 -0.3416 -0.4122 -0.5759
  281MOL0     C37820   2.844   5.982   4.703 -0.1085  0.1602 -0.4131
  281MOL0     C37821   2.702   5.918   4.715  0.3968  1.4939  0.4776
  281MOL0     C37822   2.642   5.889   4.577 -0.0559  0.1708 -0.5507
  281MOL0     C37823   2.535   5.793   4.585  0.9786  0.2217  0.2639
  281MOL0     O37824   2.421   5.829   4.667  0.0574  0.5865 -0.3445
  281MOL0     C37825   2.366   5.743   4.749  0.1950 -0.2934  0.4627
  281MOL0     C37826   2.237   5.694   4.720  1.1622 -0.0245  0.6511
  281MOL0     C37827   2.193   5.588   4.797 -0.6782  0.9577  0.0954
  281MOL0     C37828   2.274   5.529   4.900 -0.2071  0.1781 -0.1148
  281MOL0     C37829   2.221   5.424   4.985 -0.4915  0.7058 -0.1165
  281MOL0     O37830   2.318   5.339   5.035  0.8505  0.4886 -0.0156
  281MOL0     C37831   2.269   5.226   5.096  0.2262  0.5885 -0.3047
  281MOL0     C37832   2.198   5.244   5.217  0.1502 -0.6289  1.0231
  281MOL0     C37833   2.157   5.132   5.290  0.8696 -0.0176  0.6966
  281MOL0     C37834   2.184   5.003   5.239  0.7859  0.5673  0.1941
  281MOL0     O37835   2.141   4.894   5.317  0.2385  0.1475  0.8036
  281MOL0     C37836   2.208   4.767   5.289  1.0127  0.5080 -0.6217
  281MOL0     C37837   2.140   4.671   5.386  0.2968  0.7382  0.0533
  281MOL0     C37838   2.222   4.547   5.438  0.2170  0.7536 -0.2202
  281MOL0     C37839   2.152   4.470   5.557 -0.0857  0.7085 -0.5002
  281MOL0     C37840   2.209   4.327   5.589  0.9224 -0.0808 -0.9825
  281MOL0     C37841   2.352   4.339   5.631 -0.6851  0.7182 -0.6876
  281MOL0     C37842   2.370   4.436   5.754  0.0617 -0.2197 -0.5792
  281MOL0     C37843   2.520   4.472   5.762  1.1448  0.0713  0.2860
  281MOL0    Cl37844   2.612   4.318   5.793 -0.8103  0.4788  0.1721
  281MOL0     C37845   2.253   4.993   5.118 -0.5719  0.4362  0.0106
  281MOL0     C37846   2.296   5.102   5.050  0.1912 -0.4173 -0.6030
  281MOL0     O37847   2.103   5.411   4.995  0.8710 -0.3956  0.0492
  281MOL0     C37848   2.397   5.592   4.930  0.7993 -0.2801 -0.7131
  281MOL0     C37849   2.442   5.698   4.858  0.6040  0.0825 -0.6032
  281MOL0     N37850   2.880   6.149   4.899  0.2659  0.0885 -0.1717
  281MOL0     N37851   2.926   6.138   5.027  0.8048  0.0482  0.9815
  281MOL0     C37852   4.135   5.649   4.727 -0.1055  0.4953 -1.0111
  281MOL0     C37853   4.275   5.684   4.723 -0.3963  0.2370  0.3497
  281MOL0     C37854   4.703   5.719   4.902 -0.5597 -0.0552 -0.5401
  281MOL0     C37855   4.765   5.745   5.026 -0.1813 -0.0086  0.3200
  281MOL0     C37856   4.896   5.794   5.027  0.2707 -0.8261 -1.2424
  281MOL0     C37857   4.964   5.820   4.902  0.2461 -0.5878 -0.6163
  281MOL0     O37858   5.091   5.880   4.891 -0.0447 -0.5698 -0.0086
  281MOL0     C37859   5.174   5.898   5.003  0.3690  0.4429 -1.0024
  281MOL0     C37860   5.298   5.978   4.953  0.6137  0.4123  0.6813
  281MOL0     C37861   5.271   6.091   4.851  0.0296 -0.9346 -0.0956
  281MOL0     C37862   5.320   6.056   4.707  0.6620  0.1474 -0.4721
  281MOL0     C37863   5.472   6.063   4.692  0.4906  0.1941 -0.1233
  281MOL0     C37864   5.584   6.077   4.663  0.2541  0.1706  0.4811
  281MOL0     C37865   4.896   5.794   4.779  0.2822 -0.5487  0.2322
  281MOL0     C37866   4.770   5.736   4.782  0.0017  0.0281 -0.3029
  281MOL0     C37867   4.724   5.687   4.643 -0.2977  0.3068 -0.3515
  281MOL0     H37868   4.311   5.728   5.057  0.0999 -2.0705 -0.3329
  281MOL0     H37869   4.091   5.639   5.056  1.8146 -2.4515  0.2924
  281MOL0     H37870   3.886   5.558   5.027  2.6187 -1.3269 -1.8258
  281MOL0     H37871   3.874   5.742   5.040 -0.0081 -0.3992 -0.3989
  281MOL0     H37872   3.674   5.536   4.992 -1.2092 -0.8351 -3.8125
  281MOL0     H37873   3.674   5.633   4.854 -1.1961 -0.0645  0.5221
  281MOL0     H37874   3.648   5.842   4.986  0.4570 -0.8900 -1.0706
  281MOL0     H37875   3.659   5.765   5.142  1.8357 -0.2004 -1.0643
  281MOL0     H37876   3.438   5.728   4.932  1.1563  0.0781 -0.7798
  281MOL0     H37877   3.457   5.626   5.075 -0.5568 -0.0733 -1.3000
  281MOL0     H37878   3.422   5.825   5.223 -3.9114 -1.2303  0.9551
  281MOL0     H37879   3.451   5.941   5.096  2.7126 -1.6105 -0.7488
  281MOL0     H37880   3.218   5.853   4.992 -1.0548 -2.3050  0.3444
  281MOL0     H37881   3.220   5.741   5.126  0.9950  0.2574  1.8334
  281MOL0     H37882   3.216   6.030   5.212 -0.5644  0.4306  1.6776
  281MOL0     H37883   3.174   5.894   5.295 -1.5716  1.5931  0.5181
  281MOL0     H37884   3.001   5.836   5.149  2.4095 -0.1729  0.5534
  281MOL0     H37885   2.961   5.972   5.247 -3.4713 -3.5847 -0.0326
  281MOL0     H37886   3.000   5.838   4.906 -1.4781 -0.8229  0.4780
  281MOL0     H37887   2.844   6.070   4.638 -1.0209  0.5091  0.0498
  281MOL0     H37888   2.917   5.916   4.654 -0.1572 -0.2550  0.0636
  281MOL0     H37889   2.708   5.827   4.776  0.5304  2.6415  2.2636
  281MOL0     H37890   2.628   5.979   4.767 -1.5993  1.6424 -2.3442
  281MOL0     H37891   2.717   5.841   4.514 -0.2710 -2.3535  0.9788
  281MOL0     H37892   2.599   5.982   4.538 -3.2115 -1.4143 -1.1846
  281MOL0     H37893   2.593   5.709   4.625  1.2649  0.7946  1.0875
  281MOL0     H37894   2.496   5.765   4.487 -4.2250 -2.2629  2.6694
  281MOL0     H37895   2.168   5.715   4.639  1.6866 -1.6806 -0.2611
  281MOL0     H37896   2.103   5.529   4.784 -0.1753 -1.6706  5.6343
  281MOL0     H37897   2.167   5.341   5.253 -1.4963  0.4595 -2.8189
  281MOL0     H37898   2.092   5.138   5.377  0.6434 -0.4964  0.5595
  281MOL0     H37899   2.182   4.728   5.190 -3.2245 -2.2264  1.2256
  281MOL0     H37900   2.315   4.758   5.307  1.0539  2.3579  0.2125
  281MOL0     H37901   2.098   4.725   5.472 -2.3618  1.6276 -1.6726
  281MOL0     H37902   2.043   4.628   5.358 -0.1913  1.6239  0.3244
  281MOL0     H37903   2.234   4.469   5.362  0.1076 -2.2752  2.6314
  281MOL0     H37904   2.320   4.580   5.475  0.1610  0.3355  0.3101
  281MOL0     H37905   2.049   4.448   5.530  0.0793 -0.1574 -0.4464
  281MOL0     H37906   2.145   4.527   5.650 -2.3703 -1.9702  1.1233
  281MOL0     H37907   2.197   4.258   5.505 -0.6169 -0.3510 -0.5920
  281MOL0     H37908   2.135   4.290   5.661  2.2250  1.8346  1.4876
  281MOL0     H37909   2.374   4.237   5.662 -2.8593  0.1162 -0.9793
  281MOL0     H37910   2.413   4.375   5.548 -2.1087  2.0341 -1.2291
  281MOL0     H37911   2.335   4.393   5.847  2.8580 -3.9980 -1.0281
  281MOL0     H37912   2.331   4.535   5.727 -1.0890 -1.1420 -2.5097
  281MOL0     H37913   2.545   4.516   5.665 -2.1628 -0.9831 -1.1823
  281MOL0     H37914   2.533   4.535   5.850  0.9792 -1.7179  1.6524
  281MOL0     H37915   2.270   4.898   5.069 -4.0349  0.7704 -2.1529
  281MOL0     H37916   2.359   5.111   4.962  3.3757 -0.8332  1.4593
  281MOL0     H37917   2.467   5.560   5.007 -0.6471 -3.1402 -0.4714
  281MOL0     H37918   2.536   5.747   4.877  0.9572 -0.4483 -0.9547
  281MOL0     H37919   4.070   5.624   4.643 -2.0970  1.8854  0.0323
  281MOL0     H37920   4.327   5.684   4.628  1.2884 -1.1076  1.2235
  281MOL0     H37921   4.710   5.711   5.113 -1.6637  0.8487 -0.2428
  281MOL0     H37922   4.942   5.804   5.125 -4.6867  2.9672  1.1067
  281MOL0     H37923   5.206   5.801   5.042 -0.9906  0.0195 -0.8890
  281MOL0     H37924   5.124   5.957   5.080  0.5413  1.1725 -1.4397
  281MOL0     H37925   5.376   5.908   4.920  0.6248  0.8439 -0.2542
  281MOL0     H37926   5.342   6.028   5.040 -2.2629  1.3057  1.7405
  281MOL0     H37927   5.342   6.170   4.876  2.2299 -3.1998  1.2408
  281MOL0     H37928   5.167   6.126   4.851 -0.8741 -3.3835 -0.9188
  281MOL0     H37929   5.283   5.954   4.694  0.7860  0.0985 -0.4423
  281MOL0     H37930   5.270   6.126   4.639 -2.6653  1.3568  2.9058
  281MOL0     H37931   5.689   6.083   4.643 -0.1011 -0.3418 -1.7884
  281MOL0     H37932   4.963   5.798   4.693 -0.2700 -0.8967 -0.2238
  281MOL0     H37933   4.617   5.664   4.649  0.2460 -2.9825 -1.1607
  281MOL0     H37934   4.738   5.766   4.569 -2.9682  2.3351  1.1306
  281MOL0     H37935   4.774   5.594   4.613 -2.4151 -0.2901 -2.3403
  282MOL0     O37936  11.471  11.000   0.024  0.0373 -0.3060  0.1744
  282MOL0     C37937  11.407  10.931  -0.050 -0.9582  1.4104 -1.0630
  282MOL0     O37938  11.446  10.800  -0.092  0.0071  0.0583  0.5777
  282MOL0     C37939  11.584  10.794  -0.109 -0.4853 -0.1694  0.3037
  282MOL0     C37940  11.645  10.680  -0.064  0.7463 -0.4743  0.8392
  282MOL0     C37941  11.781  10.645  -0.102  1.2512  0.0560 -0.3423
  282MOL0     C37942  11.852  10.731  -0.190 -0.3058 -0.4475 -0.6730
  282MOL0     O37943  11.974  10.724  -0.243 -0.1580 -0.0935 -0.0281
  282MOL0     C37944  12.068  10.641  -0.165 -0.8619 -0.2175  0.2659
  282MOL0     C37945  12.196  10.666  -0.232 -0.5396  0.0890  0.3437
  282MOL0     C37946  12.314  10.611  -0.165  0.2790  0.9059  0.3898
  282MOL0     C37947  12.450  10.645  -0.245  0.4881  0.3700 -0.5184
  282MOL0     C37948  12.564  10.565  -0.188 -0.5354  0.2906  0.6480
  282MOL0     C37949  12.693  10.573  -0.281 -0.8637 -0.2693 -0.4633
  282MOL0     C37950  12.825  10.530  -0.228 -1.1511 -0.3830 -0.7036
  282MOL0     C37951  12.816  10.392  -0.159  0.2485 -0.0170  0.1395
  282MOL0     N37952  12.939  10.351  -0.092  0.2064 -0.5305 -0.1631
  282MOL0     C37953  12.977  10.412   0.030  0.8617  1.6315 -0.6136
  282MOL0     C37954  13.106  10.401   0.049 -0.7919  0.7941 -0.3909
  282MOL0     C37955  13.191  10.452   0.170 -0.1821  0.0081 -0.3535
  282MOL0     C37956  13.109  10.539   0.259  0.3664  0.1436 -0.1713
  282MOL0     C37957  13.175  10.589   0.384  0.1684 -0.3155 -0.2639
  282MOL0     C37958  13.232  10.485   0.489 -0.4999  0.0956 -0.1593
  282MOL0     O37959  13.130  10.404   0.547 -0.7522 -0.2123 -0.3343
  282MOL0     C37960  13.068  10.452   0.661 -0.0463 -0.0288  0.0312
  282MOL0     C37961  12.998  10.347   0.736  0.4452  0.0530 -0.0187
  282MOL0     C37962  12.933  10.379   0.850  0.1443  0.6025  0.9371
  282MOL0     C37963  12.924  10.504   0.898  0.4927 -0.4825 -0.5845
  282MOL0     C37964  12.841  10.541   1.005  0.0322  0.1683  0.1670
  282MOL0     O37965  12.788  10.442   1.072 -0.5350  0.1541 -0.8331
  282MOL0     C37966  12.711  10.475   1.179  0.5436 -0.7921 -0.6006
  282MOL0     C37967  12.762  10.516   1.303  0.0725  0.6693  0.0108
  282MOL0     C37968  12.675  10.530   1.420  0.0355  0.2807  0.3911
  282MOL0     C37969  12.537  10.510   1.414 -0.8818  0.5859  0.6794
  282MOL0     O37970  12.461  10.518   1.525  0.2922 -0.3158 -0.0551
  282MOL0     C37971  12.376  10.412   1.560 -0.4648 -0.5813  0.3964
  282MOL0     C37972  12.295  10.438   1.683 -0.1181  0.2789  0.3164
  282MOL0     C37973  12.207  10.322   1.703  0.5431  0.2415 -0.2843
  282MOL0     C37974  12.123  10.351   1.827  0.5351  0.0619 -0.4938
  282MOL0     C37975  12.011  10.244   1.848  0.4520 -0.8942 -0.0439
  282MOL0     C37976  11.907  10.237   1.738  0.0745 -0.5854  0.0091
  282MOL0     C37977  11.773  10.168   1.773  0.3921 -0.5563 -0.1232
  282MOL0     C37978  11.800  10.018   1.758 -0.6123 -0.0872  0.3255
  282MOL0    Cl37979  11.822   9.965   1.590 -0.3772 -0.2159 -0.4390
  282MOL0     C37980  12.488  10.481   1.285  0.1315  0.7823 -0.8959
  282MOL0     C37981  12.569  10.464   1.172  0.9423 -0.8672  0.2747
  282MOL0     O37982  12.833  10.658   1.037 -0.3974 -0.8316  0.0745
  282MOL0     C37983  12.997  10.606   0.829  0.4878  0.1406 -0.0469
  282MOL0     C37984  13.071  10.581   0.710 -0.0784 -0.1058 -0.4197
  282MOL0     N37985  13.155  10.337  -0.062 -0.2668  0.6132  0.1525
  282MOL0     N37986  13.063  10.326  -0.149  0.1883  0.0229 -0.0760
  282MOL0     C37987  11.789  10.848  -0.236 -0.3712 -0.1662 -0.2645
  282MOL0     C37988  11.655  10.872  -0.205 -0.5102 -0.0200  0.1563
  282MOL0     C37989  11.267  10.970  -0.073  0.2748 -0.0960  0.1831
  282MOL0     C37990  11.192  10.877  -0.140  0.1352  0.8761  0.6190
  282MOL0     C37991  11.070  10.912  -0.192  0.3209 -0.0549  0.0358
  282MOL0     C37992  11.014  11.037  -0.182 -0.2717 -1.0501 -1.0130
  282MOL0     O37993  10.895  11.090  -0.226 -0.1224  0.3150  0.7988
  282MOL0     C37994  10.806  11.011  -0.304  0.1672  0.4016 -0.0636
  282MOL0     C37995  10.686  10.955  -0.228  0.6060  0.0282  0.5833
  282MOL0     C37996  10.587  10.875  -0.321  0.3283 -1.4631 -0.8934
  282MOL0     C37997  10.507  10.788  -0.222  0.7974  0.3405 -0.5900
  282MOL0     C37998  10.408  10.715  -0.301 -0.6118  0.2984  1.2310
  282MOL0     C37999  10.337  10.646  -0.362  0.2352  0.1821 -0.0337
  282MOL0     C38000  11.082  11.128  -0.096  0.1160 -0.6940  0.2233
  282MOL0     C38001  11.209  11.096  -0.044 -0.1136  0.2586 -0.1472
  282MOL0     C38002  11.271  11.204   0.038  0.6521 -0.0852 -0.0346
  282MOL0     H38003  11.582  10.614  -0.004 -1.0857  2.0780  1.8992
  282MOL0     H38004  11.833  10.556  -0.069 -0.6576 -1.2627 -0.7373
  282MOL0     H38005  12.082  10.682  -0.065 -1.0909 -0.7648  0.5232
  282MOL0     H38006  12.051  10.533  -0.168  1.3142 -0.6015 -2.6849
  282MOL0     H38007  12.206  10.774  -0.244  0.4955 -0.1386 -1.2421
  282MOL0     H38008  12.190  10.626  -0.334  0.6570 -3.0378  1.3682
  282MOL0     H38009  12.303  10.502  -0.154  2.2753  0.4955 -1.1476
  282MOL0     H38010  12.323  10.645  -0.061 -2.5813 -0.3753  1.1733
  282MOL0     H38011  12.435  10.589  -0.338 -0.1926 -1.8596  0.8374
  282MOL0     H38012  12.475  10.751  -0.254 -3.4687  1.9549  3.1087
  282MOL0     H38013  12.584  10.605  -0.088  1.2165  1.3460 -0.0823
  282MOL0     H38014  12.548  10.457  -0.183  2.1228 -0.1104  2.2413
  282MOL0     H38015  12.662  10.509  -0.364 -2.6255 -1.1116  0.7778
  282MOL0     H38016  12.720  10.675  -0.310  2.4619 -1.1332 -0.7820
  282MOL0     H38017  12.866  10.611  -0.167 -0.0725  1.0392 -3.1651
  282MOL0     H38018  12.893  10.519  -0.313 -1.9575 -1.5562 -1.2375
  282MOL0     H38019  12.751  10.405  -0.071 -2.4284  2.1156 -1.9709
  282MOL0     H38020  12.770  10.333  -0.238  1.3855 -0.0738 -0.4943
  282MOL0     H38021  12.901  10.455   0.094  0.6653 -2.7452  2.5225
  282MOL0     H38022  13.234  10.364   0.217  1.0169  1.7473  1.9923
  282MOL0     H38023  13.281  10.499   0.128 -1.3434  0.9850 -1.8762
  282MOL0     H38024  13.074  10.632   0.213 -0.3266  0.8321  1.6228
  282MOL0     H38025  13.010  10.501   0.286  0.3999 -0.5877 -1.0321
  282MOL0     H38026  13.112  10.667   0.428 -0.1764  0.6947 -2.4119
  282MOL0     H38027  13.266  10.645   0.358  0.4726  0.5954  2.3987
  282MOL0     H38028  13.292  10.543   0.560  0.3532  0.5712 -1.2390
  282MOL0     H38029  13.301  10.415   0.443 -1.6592 -0.7468 -0.6470
  282MOL0     H38030  13.001  10.242   0.707 -0.0750  0.2619 -0.8524
  282MOL0     H38031  12.878  10.300   0.900 -4.6048  2.1793 -1.1782
  282MOL0     H38032  12.870  10.525   1.312  0.6933 -0.8108 -4.0736
  282MOL0     H38033  12.720  10.556   1.516 -1.1631 -0.9424  1.3301
  282MOL0     H38034  12.298  10.403   1.483 -1.1061 -5.3253  1.2966
  282MOL0     H38035  12.432  10.318   1.563 -3.6055 -2.5725  1.8491
  282MOL0     H38036  12.356  10.453   1.773 -2.1578  0.0082  1.8213
  282MOL0     H38037  12.228  10.521   1.659  0.9720  0.8406 -0.9197
  282MOL0     H38038  12.134  10.303   1.624 -1.3164 -0.4130  1.4660
  282MOL0     H38039  12.267  10.234   1.728 -1.1177 -1.0725 -0.6829
  282MOL0     H38040  12.074  10.446   1.802 -0.6655 -0.8938 -1.9400
  282MOL0     H38041  12.187  10.373   1.913  0.7350  1.6786 -1.0216
  282MOL0     H38042  11.959  10.266   1.942  1.0875  0.4474  0.0159
  282MOL0     H38043  12.069  10.152   1.862  2.3595 -0.1130 -2.1816
  282MOL0     H38044  11.869  10.338   1.717  2.5305  2.1698  6.2428
  282MOL0     H38045  11.946  10.194   1.646 -0.2313  0.5394 -0.6731
  282MOL0     H38046  11.694  10.190   1.701  0.9178 -0.1793 -0.6003
  282MOL0     H38047  11.739  10.186   1.875  3.1742 -2.0501  1.2025
  282MOL0     H38048  11.893   9.989   1.808  0.0841 -0.5646 -1.1980
  282MOL0     H38049  11.717   9.970   1.811  0.5352 -2.2989  0.2201
  282MOL0     H38050  12.387  10.441   1.287  0.4427 -0.0830  2.1255
  282MOL0     H38051  12.523  10.442   1.076  0.1391  5.0487 -1.1471
  282MOL0     H38052  12.994  10.708   0.866 -0.1551  0.2197 -0.3046
  282MOL0     H38053  13.122  10.664   0.663 -4.1405  1.6860 -2.1164
  282MOL0     H38054  11.833  10.913  -0.312 -4.4166  2.6947 -0.4980
  282MOL0     H38055  11.614  10.964  -0.247  3.0343  2.0270  0.7251
  282MOL0     H38056  11.233  10.777  -0.156 -1.0704  0.2329  1.4531
  282MOL0     H38057  11.015  10.828  -0.235  2.3522 -2.5427  1.9742
  282MOL0     H38058  10.860  10.930  -0.354  1.2364  0.4587  0.9476
  282MOL0     H38059  10.764  11.072  -0.384  0.4365  0.6255 -0.0356
  282MOL0     H38060  10.635  11.031  -0.167 -1.1940 -0.2827 -0.4686
  282MOL0     H38061  10.736  10.881  -0.165  0.5880 -0.0733  0.4794
  282MOL0     H38062  10.635  10.812  -0.396 -2.8854 -1.2501 -3.3469
  282MOL0     H38063  10.519  10.943  -0.373  1.1783 -0.1474 -0.3653
  282MOL0     H38064  10.568  10.711  -0.174 -0.2262 -0.0879  0.0641
  282MOL0     H38065  10.462  10.845  -0.140 -0.5713 -3.5465  1.6622
  282MOL0     H38066  10.258  10.594  -0.412  0.9187  0.4918 -1.4808
  282MOL0     H38067  11.039  11.221  -0.060  2.1280  0.2150  0.4452
  282MOL0     H38068  11.306  11.174   0.137 -1.5404  2.7775  1.7732
  282MOL0     H38069  11.362  11.247  -0.006  0.4102  2.0800  1.4057
  282MOL0     H38070  11.202  11.279   0.078 -0.1335 -2.0697  2.5615
  283MOL0     O38071   8.707   7.836   9.218 -0.0033  0.3596  0.4442
  283MOL0     C38072   8.584   7.849   9.198  0.5178  0.3883  1.6216
  283MOL0     O38073   8.525   7.806   9.084  0.3799 -0.2311  0.4237
  283MOL0     C38074   8.611   7.751   8.986  1.3433 -0.5777 -0.1224
  283MOL0     C38075   8.664   7.629   8.993  0.1868 -0.2190  0.3825
  283MOL0     C38076   8.720   7.565   8.880  0.1067 -0.4089 -0.2939
  283MOL0     C38077   8.743   7.644   8.757  0.2971  0.1565 -1.2376
  283MOL0     O38078   8.808   7.594   8.648  0.1738 -0.0280  0.2083
  283MOL0     C38079   8.780   7.469   8.574 -0.7135 -0.0520 -0.4287
  283MOL0     C38080   8.679   7.512   8.472 -0.5851 -0.6043 -0.7012
  283MOL0     C38081   8.629   7.392   8.402 -0.2366  1.1403  0.3796
  283MOL0     C38082   8.535   7.434   8.293 -0.6907 -0.3111 -0.6632
  283MOL0     C38083   8.534   7.330   8.181  0.1339  0.1016 -0.0983
  283MOL0     C38084   8.492   7.395   8.041 -0.1769  0.0846 -0.1605
  283MOL0     C38085   8.337   7.410   8.050  0.3079 -0.4719  0.1824
  283MOL0     C38086   8.270   7.455   7.921  0.5706 -0.4172  0.3712
  283MOL0     N38087   8.132   7.504   7.945  0.5804 -0.0417  0.0509
  283MOL0     C38088   8.013   7.437   7.929 -0.0500  0.0440  0.1008
  283MOL0     C38089   7.926   7.525   7.978  0.2069  0.0333  0.5842
  283MOL0     C38090   7.772   7.513   7.961 -0.2654  0.0854  0.2666
  283MOL0     C38091   7.713   7.648   7.913  0.4473  0.0467 -0.3532
  283MOL0     C38092   7.749   7.681   7.763  0.3307  0.4530 -0.0988
  283MOL0     C38093   7.689   7.814   7.720 -0.2311  0.7049 -0.3442
  283MOL0     O38094   7.715   7.837   7.574  0.4881 -0.5237 -0.4989
  283MOL0     C38095   7.678   7.960   7.519 -0.2738 -0.0792 -0.9712
  283MOL0     C38096   7.588   8.050   7.583  0.2059 -0.5685 -0.1203
  283MOL0     C38097   7.547   8.158   7.502  0.2222 -0.6958  0.0482
  283MOL0     C38098   7.578   8.179   7.373 -0.5766  0.1907  0.2391
  283MOL0     C38099   7.544   8.299   7.290 -0.5569  1.1983 -0.9656
  283MOL0     O38100   7.490   8.399   7.360 -1.2322 -0.0355  0.0050
  283MOL0     C38101   7.465   8.519   7.306 -0.0197 -1.0520  0.0068
  283MOL0     C38102   7.376   8.543   7.199  0.0032  0.3408 -1.4045
  283MOL0     C38103   7.332   8.673   7.159 -0.6120 -0.3549  0.2763
  283MOL0     C38104   7.387   8.785   7.224 -0.2906 -0.5031 -0.1006
  283MOL0     O38105   7.329   8.905   7.195  0.2474 -0.1176 -0.2572
  283MOL0     C38106   7.369   9.015   7.269 -0.3944  0.1548 -0.7774
  283MOL0     C38107   7.287   9.138   7.230 -0.1487 -0.8358  0.2104
  283MOL0     C38108   7.145   9.135   7.288  0.8049 -0.3650 -0.0009
  283MOL0     C38109   7.070   9.247   7.217 -0.4089  0.2140  0.6195
  283MOL0     C38110   6.926   9.268   7.252 -0.2247  0.8325  0.2113
  283MOL0     C38111   6.912   9.329   7.383 -0.1616 -0.0538 -0.6528
  283MOL0     C38112   6.783   9.395   7.419  0.5196 -0.8613  0.5580
  283MOL0     C38113   6.782   9.442   7.564 -0.1489 -0.5639  0.7342
  283MOL0    Cl38114   6.761   9.628   7.562 -0.1514 -0.0718 -0.2892
  283MOL0     C38115   7.488   8.763   7.312 -0.6151  0.7861 -1.2604
  283MOL0     C38116   7.521   8.632   7.365 -0.7320 -0.2808  0.0161
  283MOL0     O38117   7.576   8.294   7.173  0.7305 -0.7385  0.1719
  283MOL0     C38118   7.669   8.087   7.319 -0.5986 -0.6954  1.5861
  283MOL0     C38119   7.718   7.984   7.392 -0.5390 -0.9254  0.0374
  283MOL0     N38120   7.985   7.640   8.017 -0.3315 -0.1230 -0.1836
  283MOL0     N38121   8.112   7.630   7.998  0.3410 -0.2977  0.0010
  283MOL0     C38122   8.690   7.768   8.754  0.0769  0.3288  0.3135
  283MOL0     C38123   8.617   7.824   8.864  0.5636 -0.0712 -0.0357
  283MOL0     C38124   8.500   7.895   9.312  0.0119 -1.3524  1.0828
  283MOL0     C38125   8.360   7.884   9.300  0.7436  0.2833 -0.2901
  283MOL0     C38126   8.277   7.916   9.403  1.1719 -0.6082 -0.7552
  283MOL0     C38127   8.313   7.966   9.528 -0.9181 -0.4192  0.9755
  283MOL0     O38128   8.213   7.990   9.617  0.5735 -0.0134  0.5785
  283MOL0     C38129   8.251   8.029   9.754 -0.4037 -0.2159  0.7651
  283MOL0     C38130   8.119   8.075   9.823 -0.3333  0.3615 -0.3210
  283MOL0     C38131   8.157   8.114   9.972 -1.0191 -0.3536 -0.1750
  283MOL0     C38132   8.040   8.140  10.065 -1.1846  0.3877  0.1878
  283MOL0     C38133   7.936   8.033  10.073  0.4226 -0.4945  0.2269
  283MOL0     C38134   7.864   7.946  10.063 -0.3981 -0.5582 -1.4916
  283MOL0     C38135   8.455   7.988   9.537 -0.2209 -0.2745  0.1730
  283MOL0     C38136   8.540   7.954   9.433 -0.0999 -0.0900  0.6992
  283MOL0     C38137   8.682   7.985   9.461 -0.1092 -0.7240  0.3898
  283MOL0     H38138   8.678   7.600   9.097  1.8992 -0.2432  0.1748
  283MOL0     H38139   8.747   7.460   8.877 -1.1429 -0.8249  1.4816
  283MOL0     H38140   8.871   7.434   8.524 -0.3653  1.2760 -0.7508
  283MOL0     H38141   8.737   7.390   8.636 -5.3635  2.3332 -0.2391
  283MOL0     H38142   8.718   7.594   8.412 -0.6283  2.7076  3.3572
  283MOL0     H38143   8.601   7.558   8.533  1.1262  1.9070 -0.2759
  283MOL0     H38144   8.580   7.327   8.476  1.5019 -2.4566 -1.3417
  283MOL0     H38145   8.713   7.328   8.373 -0.1906  0.7429  1.3613
  283MOL0     H38146   8.433   7.453   8.326 -0.4622  0.4513 -0.3674
  283MOL0     H38147   8.580   7.528   8.259  1.2246 -1.0122 -0.1967
  283MOL0     H38148   8.639   7.300   8.176  0.5712  1.3490  0.9931
  283MOL0     H38149   8.477   7.244   8.215  1.3902 -0.5148  0.5340
  283MOL0     H38150   8.543   7.490   8.022 -1.5781  0.6282 -1.3639
  283MOL0     H38151   8.521   7.324   7.963 -0.4249  0.0225 -0.1966
  283MOL0     H38152   8.313   7.481   8.130 -3.5421 -0.1001 -1.0582
  283MOL0     H38153   8.297   7.312   8.078  1.0756  0.0155  3.3135
  283MOL0     H38154   8.318   7.548   7.890 -2.7759  2.5089  3.1429
  283MOL0     H38155   8.281   7.374   7.848  2.5520 -0.1917  0.3603
  283MOL0     H38156   7.994   7.335   7.897  0.4854  0.0190 -0.1463
  283MOL0     H38157   7.747   7.429   7.894  1.2880 -1.5982  1.6990
  283MOL0     H38158   7.735   7.485   8.060  2.5494  2.5462  2.1780
  283MOL0     H38159   7.604   7.637   7.919  0.4062 -0.3580 -1.5408
  283MOL0     H38160   7.742   7.727   7.982 -2.9218  2.3159 -1.2768
  283MOL0     H38161   7.708   7.604   7.697  1.1156  1.5671 -1.9703
  283MOL0     H38162   7.858   7.691   7.759  0.4978  0.4065  2.4408
  283MOL0     H38163   7.745   7.888   7.777 -0.2075 -0.5795  1.3733
  283MOL0     H38164   7.582   7.810   7.742  0.1878 -0.9395  1.7427
  283MOL0     H38165   7.553   8.030   7.684  1.7339 -1.9703  0.1752
  283MOL0     H38166   7.476   8.229   7.542  0.1197 -1.4753  1.3053
  283MOL0     H38167   7.338   8.456   7.146  0.3679 -1.7620  1.5225
  283MOL0     H38168   7.275   8.682   7.067  1.8409 -0.9578 -1.3766
  283MOL0     H38169   7.352   8.993   7.375  4.3707  0.7461  0.3340
  283MOL0     H38170   7.474   9.042   7.256 -0.5730  2.2204  1.2425
  283MOL0     H38171   7.323   9.235   7.267 -3.6828 -0.1478  2.3672
  283MOL0     H38172   7.290   9.142   7.121 -0.1056  1.3953  0.2563
  283MOL0     H38173   7.087   9.043   7.277 -2.7147  0.9042  4.8278
  283MOL0     H38174   7.156   9.152   7.395 -0.0167  1.1755 -0.1333
  283MOL0     H38175   7.069   9.221   7.111  2.9602  2.8396 -0.2522
  283MOL0     H38176   7.121   9.343   7.230  2.5700 -0.8547 -1.8587
  283MOL0     H38177   6.872   9.175   7.234  0.1181  0.4501  1.0898
  283MOL0     H38178   6.889   9.336   7.176  1.4477  1.6966  0.1130
  283MOL0     H38179   6.933   9.248   7.453  3.3800 -0.3429 -1.8223
  283MOL0     H38180   6.987   9.407   7.399 -1.2953  0.6414  1.6610
  283MOL0     H38181   6.710   9.316   7.398  0.6004 -0.9828  0.7273
  283MOL0     H38182   6.778   9.479   7.350  1.7906 -0.6677  0.6763
  283MOL0     H38183   6.709   9.401   7.635 -1.4885  1.7667  0.7891
  283MOL0     H38184   6.879   9.413   7.605  0.2760 -1.5969 -0.9122
  283MOL0     H38185   7.530   8.850   7.363 -0.2871  0.9715 -1.8362
  283MOL0     H38186   7.582   8.643   7.454 -2.4271  2.5016  0.9467
  283MOL0     H38187   7.715   8.096   7.221  0.8092  0.5288  2.3132
  283MOL0     H38188   7.789   7.911   7.354  2.1229 -0.1236  2.9991
  283MOL0     H38189   8.690   7.838   8.671  1.9879 -1.4036 -1.2646
  283MOL0     H38190   8.579   7.926   8.874  1.2375  0.2878 -0.9935
  283MOL0     H38191   8.330   7.854   9.200  1.0011  2.9522 -1.2496
  283MOL0     H38192   8.172   7.893   9.389  0.6074  0.6626  1.0785
  283MOL0     H38193   8.327   8.108   9.744  0.6500 -1.4276 -1.3497
  283MOL0     H38194   8.294   7.948   9.813  1.3055  0.3810  0.3957
  283MOL0     H38195   8.035   8.005   9.819 -0.9699  1.1468 -2.6142
  283MOL0     H38196   8.067   8.154   9.767 -2.3576 -1.5573 -1.2821
  283MOL0     H38197   8.222   8.202   9.971  1.6109 -2.1151  2.0050
  283MOL0     H38198   8.213   8.031  10.016 -2.0206 -1.2519 -0.5659
  283MOL0     H38199   8.093   8.170  10.156  0.6683  4.6561 -1.9751
  283MOL0     H38200   7.999   8.235  10.031 -1.8478 -0.9745 -3.2033
  283MOL0     H38201   7.798   7.863  10.045  1.0377 -2.4333  1.1128
  283MOL0     H38202   8.497   8.038   9.624  1.3685  2.8685 -2.1932
  283MOL0     H38203   8.701   8.042   9.552  3.3427  0.8214 -1.1253
  283MOL0     H38204   8.746   7.896   9.460 -1.7233 -1.9539 -1.4454
  283MOL0     H38205   8.717   8.050   9.381  2.5475 -1.5959  0.7626
  284MOL0     O38206   0.071   4.666   2.598 -0.2049 -0.0576  0.6438
  284MOL0     C38207  -0.049   4.647   2.616  0.4876 -0.3317  0.3215
  284MOL0     O38208  -0.157   4.674   2.528 -0.1677  0.8113  0.6771
  284MOL0     C38209  -0.117   4.726   2.406 -0.0080 -0.7358  0.5379
  284MOL0     C38210  -0.054   4.856   2.392  0.3971  0.6492  1.6791
  284MOL0     C38211  -0.008   4.898   2.260  0.3061  0.5290 -0.2170
  284MOL0     C38212  -0.040   4.820   2.144 -0.9665 -1.1734 -0.3874
  284MOL0     O38213  -0.035   4.856   2.012  0.3907  0.2696  0.3181
  284MOL0     C38214   0.046   4.957   1.970 -0.3160 -0.8671  0.2344
  284MOL0     C38215  -0.025   5.030   1.845  0.1446 -0.6819  0.1480
  284MOL0     C38216  -0.158   5.107   1.896 -0.1356  0.7127  0.9817
  284MOL0     C38217  -0.223   5.178   1.781 -0.1898  0.9881  0.3926
  284MOL0     C38218  -0.340   5.267   1.841  0.0111 -0.9375  0.8191
  284MOL0     C38219  -0.369   5.389   1.750  0.4498  0.5690 -0.3709
  284MOL0     C38220  -0.502   5.464   1.793 -0.1740  0.4029  0.6464
  284MOL0     C38221  -0.554   5.572   1.691  0.3154  1.3390  0.0716
  284MOL0     N38222  -0.547   5.526   1.548  0.8050  0.2569  0.3042
  284MOL0     C38223  -0.626   5.427   1.496  0.3234 -0.2020 -0.0519
  284MOL0     C38224  -0.605   5.432   1.363 -0.3577 -0.1423  0.7384
  284MOL0     C38225  -0.673   5.349   1.244  0.1942  0.5307 -0.3034
  284MOL0     C38226  -0.661   5.394   1.105 -0.4618 -0.8928  1.1235
  284MOL0     C38227  -0.767   5.328   1.022  0.1585 -0.2499 -0.3813
  284MOL0     C38228  -0.789   5.373   0.880 -0.0028 -0.5522  0.0599
  284MOL0     O38229  -0.925   5.338   0.836 -0.5945  0.8070 -0.5542
  284MOL0     C38230  -0.967   5.380   0.712 -0.6067 -0.2607  0.5698
  284MOL0     C38231  -1.092   5.327   0.689 -0.6901  0.0564 -0.2377
  284MOL0     C38232  -1.172   5.369   0.583  0.7821 -0.1963  0.0299
  284MOL0     C38233  -1.118   5.454   0.490 -0.1068 -0.2109  0.6472
  284MOL0     C38234  -1.207   5.499   0.371  0.3303 -0.1940  0.4519
  284MOL0     O38235  -1.336   5.455   0.364 -0.2891 -0.3514 -1.0488
  284MOL0     C38236  -1.425   5.517   0.273 -1.5954 -0.2815  0.6788
  284MOL0     C38237  -1.407   5.474   0.142  0.6635  0.4339 -0.3013
  284MOL0     C38238  -1.484   5.522   0.035 -0.4446 -0.2974  0.0685
  284MOL0     C38239  -1.585   5.617   0.059  0.1415 -0.0795 -0.1773
  284MOL0     O38240  -1.675   5.659  -0.044 -0.0261  0.1334 -0.2938
  284MOL0     C38241  -1.686   5.594  -0.169 -0.0253  0.8869  1.0451
  284MOL0     C38242  -1.829   5.593  -0.214  0.2555  0.0450 -0.4350
  284MOL0     C38243  -1.926   5.537  -0.105 -0.0811  0.1244  0.8329
  284MOL0     C38244  -2.023   5.425  -0.158 -0.7126  0.2074 -0.0174
  284MOL0     C38245  -1.962   5.289  -0.145  0.9606  0.6115 -0.6677
  284MOL0     C38246  -2.058   5.183  -0.201  0.5560  0.0271  0.1436
  284MOL0     C38247  -2.081   5.062  -0.096  0.7233  0.3260  1.0718
  284MOL0     C38248  -2.201   4.984  -0.141 -0.9752  0.1257 -0.1669
  284MOL0    Cl38249  -2.154   4.815  -0.175 -0.4903  0.5086 -0.4894
  284MOL0     C38250  -1.598   5.661   0.189 -0.0146 -0.7020  0.0435
  284MOL0     C38251  -1.523   5.607   0.298  0.5083  0.5433 -0.5260
  284MOL0     O38252  -1.156   5.570   0.277 -0.1235  0.5287 -0.7796
  284MOL0     C38253  -0.983   5.492   0.494  0.6813  0.3831  0.3135
  284MOL0     C38254  -0.907   5.459   0.604 -0.4155  0.3610 -0.4151
  284MOL0     N38255  -0.509   5.528   1.336 -0.8650 -0.3854  0.9014
  284MOL0     N38256  -0.474   5.585   1.446 -0.1365 -0.0757 -0.1286
  284MOL0     C38257  -0.099   4.694   2.161  0.3147  0.2936 -0.0798
  284MOL0     C38258  -0.139   4.653   2.290 -1.6468  1.2671 -0.5021
  284MOL0     C38259  -0.095   4.627   2.755  0.5376 -0.0115  0.4368
  284MOL0     C38260  -0.014   4.664   2.860  0.7374 -1.1525 -0.3790
  284MOL0     C38261  -0.061   4.672   2.992  0.3335  0.7262 -0.4191
  284MOL0     C38262  -0.187   4.633   3.023 -0.6309  0.0252  0.2038
  284MOL0     O38263  -0.227   4.648   3.152  0.1258 -0.1353 -0.1723
  284MOL0     C38264  -0.359   4.689   3.183 -0.7446  0.2793 -0.0824
  284MOL0     C38265  -0.360   4.758   3.320 -0.0259 -0.1095  0.5786
  284MOL0     C38266  -0.508   4.762   3.372  0.3392 -0.1178 -0.7053
  284MOL0     C38267  -0.539   4.896   3.460 -0.1048 -0.4464 -0.1457
  284MOL0     C38268  -0.440   4.935   3.563 -0.2455 -0.7132  0.0901
  284MOL0     C38269  -0.367   4.938   3.661  0.6446 -0.2562 -0.7737
  284MOL0     C38270  -0.260   4.575   2.923  0.2081 -0.0983 -0.3051
  284MOL0     C38271  -0.221   4.574   2.789 -0.0210  0.0899 -0.6059
  284MOL0     C38272  -0.328   4.521   2.691 -0.3038 -0.3435 -0.3261
  284MOL0     H38273  -0.025   4.916   2.477  0.8622  0.7008  1.4852
  284MOL0     H38274   0.045   4.992   2.261  2.3371 -0.4799 -2.5150
  284MOL0     H38275   0.056   5.033   2.047 -0.9979 -1.9888  1.4717
  284MOL0     H38276   0.148   4.924   1.948  0.8490  2.2645  0.4652
  284MOL0     H38277  -0.056   4.969   1.760 -1.4165  0.7118 -0.3249
  284MOL0     H38278   0.043   5.108   1.808 -0.6721 -1.1831 -2.6739
  284MOL0     H38279  -0.153   5.168   1.987  3.7983  0.0993  1.3642
  284MOL0     H38280  -0.234   5.031   1.916  0.0296 -0.1804 -1.4092
  284MOL0     H38281  -0.154   5.247   1.733 -2.2136  2.0440 -1.1569
  284MOL0     H38282  -0.261   5.111   1.702 -1.0673  1.4594  0.4006
  284MOL0     H38283  -0.434   5.211   1.841  0.4572 -1.7394 -0.8495
  284MOL0     H38284  -0.309   5.318   1.933  0.7600 -0.1359  0.1361
  284MOL0     H38285  -0.283   5.454   1.770  4.0055 -4.4526  2.8878
  284MOL0     H38286  -0.373   5.351   1.648  1.3408  1.3625 -0.7260
  284MOL0     H38287  -0.513   5.502   1.895 -3.3945 -3.4633  2.0129
  284MOL0     H38288  -0.577   5.385   1.791 -0.9395  1.1179  0.3660
  284MOL0     H38289  -0.655   5.604   1.717 -0.3587 -1.0912  0.7699
  284MOL0     H38290  -0.494   5.662   1.703 -2.4610  3.6145 -1.6045
  284MOL0     H38291  -0.709   5.369   1.535  0.6361  0.2267  1.2833
  284MOL0     H38292  -0.616   5.257   1.257  1.6528  1.6087  1.4501
  284MOL0     H38293  -0.775   5.334   1.279  0.8492  1.0447  2.0447
  284MOL0     H38294  -0.670   5.503   1.100 -1.4007 -0.8643  2.7153
  284MOL0     H38295  -0.565   5.374   1.056 -0.6713 -0.0323  0.3303
  284MOL0     H38296  -0.865   5.347   1.068  1.1787  0.0775  1.7787
  284MOL0     H38297  -0.755   5.221   1.039  1.1008  0.2070  2.4685
  284MOL0     H38298  -0.714   5.329   0.813  1.3527 -2.9026  2.9276
  284MOL0     H38299  -0.783   5.482   0.882 -0.9802 -0.4976  0.4915
  284MOL0     H38300  -1.138   5.262   0.764 -1.0495  2.7979  2.0703
  284MOL0     H38301  -1.275   5.336   0.572  0.0895  1.5340  1.0105
  284MOL0     H38302  -1.338   5.391   0.128 -2.4142 -2.3834 -0.2246
  284MOL0     H38303  -1.483   5.463  -0.056 -2.5133 -1.2146  0.5700
  284MOL0     H38304  -1.630   5.646  -0.248 -1.9212  1.7746  0.2239
  284MOL0     H38305  -1.647   5.492  -0.166 -0.2238  0.7468 -0.4482
  284MOL0     H38306  -1.858   5.696  -0.237 -3.2374 -0.3834  1.3849
  284MOL0     H38307  -1.831   5.537  -0.308  1.4135 -5.1304  2.2421
  284MOL0     H38308  -1.879   5.495  -0.015 -2.3332 -0.1560  1.9603
  284MOL0     H38309  -1.987   5.620  -0.069 -0.7795  0.1536 -0.3695
  284MOL0     H38310  -2.039   5.443  -0.265 -1.4835 -3.0768 -0.5555
  284MOL0     H38311  -2.121   5.422  -0.109  0.3446 -3.2481  2.2676
  284MOL0     H38312  -1.945   5.262  -0.041  2.0398 -0.6564 -1.1350
  284MOL0     H38313  -1.863   5.286  -0.193  1.2485 -1.0747 -0.0248
  284MOL0     H38314  -2.151   5.236  -0.222  0.7362 -0.0210 -0.7982
  284MOL0     H38315  -2.022   5.136  -0.293 -3.2004 -0.3870 -1.2803
  284MOL0     H38316  -2.100   5.110   0.001  1.4197  0.8818  0.9444
  284MOL0     H38317  -1.989   5.004  -0.084  1.8819  2.2129  1.8118
  284MOL0     H38318  -2.274   5.001  -0.061  0.9656  5.0759  0.8856
  284MOL0     H38319  -2.233   5.030  -0.234  0.8502  0.9269 -0.4454
  284MOL0     H38320  -1.667   5.740   0.217  0.0714 -0.4177 -0.5241
  284MOL0     H38321  -1.532   5.634   0.403  2.3181 -0.7647  0.0079
  284MOL0     H38322  -0.951   5.554   0.412 -2.4490 -0.5407 -1.7864
  284MOL0     H38323  -0.802   5.489   0.605 -0.4522  0.4968  0.7177
  284MOL0     H38324  -0.125   4.637   2.072  1.4154  0.9089 -0.8191
  284MOL0     H38325  -0.190   4.558   2.300  0.6484  0.1076  1.1131
  284MOL0     H38326   0.085   4.705   2.843  0.0929  0.8001  0.3723
  284MOL0     H38327   0.008   4.718   3.062 -1.1045  1.4337  0.5766
  284MOL0     H38328  -0.419   4.597   3.182 -0.2021 -0.0850  0.7020
  284MOL0     H38329  -0.403   4.752   3.105 -3.8192 -0.8705  0.5850
  284MOL0     H38330  -0.318   4.858   3.311  2.9542 -1.1608  1.6091
  284MOL0     H38331  -0.294   4.715   3.396  1.5014  0.3714 -0.4323
  284MOL0     H38332  -0.514   4.682   3.447 -1.8727 -0.3543 -1.0798
  284MOL0     H38333  -0.586   4.742   3.299  0.0864 -3.4290  0.3107
  284MOL0     H38334  -0.563   4.968   3.381  0.5971 -0.9853 -0.8753
  284MOL0     H38335  -0.631   4.882   3.516 -1.6899 -0.7749 -2.6844
  284MOL0     H38336  -0.305   4.951   3.748  0.5031  2.8665 -1.0186
  284MOL0     H38337  -0.355   4.526   2.941  0.4126  0.1822  1.7981
  284MOL0     H38338  -0.290   4.471   2.601 -1.4342  1.6258 -1.9958
  284MOL0     H38339  -0.399   4.461   2.748 -1.8613  1.8358  0.1494
  284MOL0     H38340  -0.390   4.603   2.653  0.7470  1.3507  1.4559
  285MOL0     O38341   8.405   5.028   8.912  0.6134  0.0301 -0.6734
  285MOL0     C38342   8.354   5.135   8.948  0.7385  0.3383  0.1966
  285MOL0     O38343   8.232   5.137   9.011  0.4109  0.4562  0.0253
  285MOL0     C38344   8.177   5.012   9.033  0.1354 -0.5062  0.2021
  285MOL0     C38345   8.065   4.967   8.956  0.3382 -0.0535  0.2355
  285MOL0     C38346   7.992   4.849   8.997 -0.1144  0.7455 -0.2536
  285MOL0     C38347   8.042   4.772   9.106  0.8395  0.6814 -0.8142
  285MOL0     O38348   7.974   4.663   9.148 -0.7116 -0.2012 -0.6079
  285MOL0     C38349   8.041   4.570   9.240  0.9237 -0.1894  0.8113
  285MOL0     C38350   7.958   4.436   9.248  0.2129  0.3737  0.9195
  285MOL0     C38351   7.953   4.371   9.106 -0.5219 -0.7309  0.2664
  285MOL0     C38352   7.923   4.222   9.111  0.2573  0.4932 -0.1583
  285MOL0     C38353   7.954   4.175   8.964 -0.1688 -0.1608 -0.5723
  285MOL0     C38354   7.974   4.024   8.955  0.9063 -0.2395  0.0570
  285MOL0     C38355   8.024   3.977   8.823  0.3258  0.9814  0.2135
  285MOL0     C38356   8.030   3.821   8.814  0.4372  0.6902  0.2827
  285MOL0     N38357   8.045   3.779   8.678 -0.4389 -0.8735 -0.2042
  285MOL0     C38358   7.942   3.734   8.598 -0.3481  0.0686 -0.2555
  285MOL0     C38359   8.006   3.706   8.479 -0.2042  0.0501 -0.6072
  285MOL0     C38360   7.949   3.634   8.363 -0.4065  0.6926 -0.2485
  285MOL0     C38361   7.824   3.694   8.304 -0.3860  0.5262 -0.4477
  285MOL0     C38362   7.854   3.831   8.241  1.0900  0.1332  0.4979
  285MOL0     C38363   7.730   3.917   8.190  0.9491  0.3522 -0.3335
  285MOL0     O38364   7.623   3.891   8.280 -0.3994  0.3225 -0.0053
  285MOL0     C38365   7.499   3.925   8.233  0.0471 -0.0871 -0.5349
  285MOL0     C38366   7.398   3.834   8.224 -0.3212 -0.8828  0.5094
  285MOL0     C38367   7.271   3.872   8.184 -0.1600  0.3583 -0.1102
  285MOL0     C38368   7.227   4.004   8.155  0.5111  0.7613 -0.4629
  285MOL0     C38369   7.089   4.045   8.106  0.2452 -0.3252  0.2927
  285MOL0     O38370   7.055   4.173   8.095 -0.4767 -0.0349  0.6091
  285MOL0     C38371   6.924   4.202   8.047 -0.6630 -0.2250 -0.1207
  285MOL0     C38372   6.812   4.184   8.137 -0.4429 -0.4774  0.3338
  285MOL0     C38373   6.679   4.191   8.074  0.0365  0.3839 -1.4055
  285MOL0     C38374   6.665   4.213   7.934 -0.1535 -0.1883  0.1432
  285MOL0     O38375   6.541   4.199   7.875 -0.3425 -0.3697 -0.2201
  285MOL0     C38376   6.537   4.153   7.741  0.6541 -0.6006 -0.7401
  285MOL0     C38377   6.401   4.085   7.730 -0.6164 -0.0572 -0.2642
  285MOL0     C38378   6.379   4.061   7.576 -0.2138  0.8782  0.0980
  285MOL0     C38379   6.247   3.996   7.539 -0.0420 -0.7642  0.1911
  285MOL0     C38380   6.245   3.843   7.544 -0.1443 -0.7594  0.3512
  285MOL0     C38381   6.289   3.782   7.680  0.8488 -0.1031  0.1242
  285MOL0     C38382   6.228   3.637   7.695 -0.5575 -0.7535  0.0774
  285MOL0     C38383   6.245   3.586   7.839 -0.4849 -0.8138  0.3210
  285MOL0    Cl38384   6.119   3.651   7.949 -0.2428 -0.1589 -0.2388
  285MOL0     C38385   6.778   4.233   7.856 -0.5644 -1.0748 -0.1108
  285MOL0     C38386   6.908   4.218   7.912 -0.2203 -0.2479  0.1836
  285MOL0     O38387   7.015   3.951   8.078 -0.1242  0.9350 -0.2017
  285MOL0     C38388   7.331   4.093   8.175  0.1442 -0.2020  0.0529
  285MOL0     C38389   7.468   4.056   8.210  0.2220  0.3950 -0.5542
  285MOL0     N38390   8.134   3.758   8.483  0.4214 -0.4823 -0.0493
  285MOL0     N38391   8.162   3.791   8.605 -0.5149  0.0406  0.6745
  285MOL0     C38392   8.151   4.822   9.172  1.1763  1.0037 -1.2718
  285MOL0     C38393   8.211   4.949   9.147  0.5338  0.3358 -1.0939
  285MOL0     C38394   8.426   5.266   8.949 -0.3275  0.5060 -0.5142
  285MOL0     C38395   8.344   5.380   8.970  0.1689  0.6907 -0.1733
  285MOL0     C38396   8.405   5.497   9.009 -0.2498 -0.7196 -0.0775
  285MOL0     C38397   8.541   5.517   9.016  0.2736  0.0914  0.2937
  285MOL0     O38398   8.574   5.635   9.072 -0.3643 -0.2317 -0.3427
  285MOL0     C38399   8.708   5.664   9.105 -1.2377  0.0875 -0.3861
  285MOL0     C38400   8.809   5.679   8.990  0.1337  0.9029 -0.0380
  285MOL0     C38401   8.751   5.789   8.901  0.0477  0.8349  0.8517
  285MOL0     C38402   8.844   5.829   8.783  0.6544  0.5255 -0.2174
  285MOL0     C38403   8.805   5.769   8.657  0.6422  0.5223 -0.3951
  285MOL0     C38404   8.769   5.694   8.561 -0.2301 -0.3769  0.5219
  285MOL0     C38405   8.620   5.408   8.980 -0.3510 -0.2236 -0.7731
  285MOL0     C38406   8.566   5.280   8.955  0.5901  0.2885  0.3636
  285MOL0     C38407   8.657   5.168   8.963 -0.6380  0.6966  0.2451
  285MOL0     H38408   8.034   5.017   8.865  2.7248  0.0457 -0.5982
  285MOL0     H38409   7.895   4.831   8.952 -0.2869 -1.7279  0.9076
  285MOL0     H38410   8.145   4.548   9.217 -0.0098 -4.6887 -0.0850
  285MOL0     H38411   8.031   4.619   9.337 -1.6500 -0.1949  0.6291
  285MOL0     H38412   7.859   4.438   9.295 -0.0670  1.5632  0.3221
  285MOL0     H38413   8.019   4.368   9.308  2.6921  0.4977 -1.2739
  285MOL0     H38414   8.054   4.376   9.066 -0.8732 -1.5626 -0.7621
  285MOL0     H38415   7.880   4.421   9.041 -2.0556 -0.7214  1.9090
  285MOL0     H38416   7.986   4.178   9.189 -4.2254 -3.5989  1.6720
  285MOL0     H38417   7.820   4.198   9.137  0.5768 -0.8239 -0.0432
  285MOL0     H38418   7.869   4.207   8.902 -0.0426 -0.3517 -0.8448
  285MOL0     H38419   8.040   4.225   8.921  1.4460 -0.3466  2.2338
  285MOL0     H38420   8.035   3.991   9.039 -0.1389 -1.6803  0.2955
  285MOL0     H38421   7.879   3.977   8.984 -0.6186  0.9739 -2.5602
  285MOL0     H38422   8.126   4.010   8.801  0.0005  1.7452 -0.1728
  285MOL0     H38423   7.954   4.011   8.746 -1.3553 -0.2415  1.1261
  285MOL0     H38424   8.111   3.785   8.877 -0.8723 -1.2344  0.9625
  285MOL0     H38425   7.936   3.769   8.835  1.6342 -2.8564 -2.2580
  285MOL0     H38426   7.841   3.699   8.617  0.3323 -1.2292  1.1852
  285MOL0     H38427   8.026   3.622   8.286  0.1950 -1.0709  0.5930
  285MOL0     H38428   7.922   3.533   8.396 -2.8822  1.8107  1.5270
  285MOL0     H38429   7.775   3.626   8.234  1.7704 -0.7412 -0.8261
  285MOL0     H38430   7.751   3.699   8.385  1.2914 -5.8402  2.0846
  285MOL0     H38431   7.927   3.823   8.160  0.5003  3.3083 -0.5169
  285MOL0     H38432   7.892   3.893   8.324  1.0527  0.8334  0.0061
  285MOL0     H38433   7.690   3.902   8.089 -2.4500 -0.7112  1.0391
  285MOL0     H38434   7.761   4.021   8.204  1.8638  0.1821 -0.9774
  285MOL0     H38435   7.422   3.734   8.259  0.6533 -0.8858 -0.1155
  285MOL0     H38436   7.196   3.796   8.162  1.1139 -0.5008 -1.7327
  285MOL0     H38437   6.830   4.182   8.244 -2.9779  0.9193  0.8715
  285MOL0     H38438   6.581   4.191   8.121  0.7637  1.4973  0.2163
  285MOL0     H38439   6.547   4.232   7.666  1.3440 -1.3399 -1.4414
  285MOL0     H38440   6.615   4.078   7.727  1.3735  0.2070 -1.1394
  285MOL0     H38441   6.406   3.995   7.793  2.5765 -2.3542 -3.4637
  285MOL0     H38442   6.317   4.143   7.768  0.1836 -0.8473  3.0782
  285MOL0     H38443   6.377   4.165   7.540 -0.0687  1.5266  1.8651
  285MOL0     H38444   6.463   4.009   7.529 -1.9824 -2.2149  0.1235
  285MOL0     H38445   6.218   4.029   7.439  1.1997  1.5866  0.5260
  285MOL0     H38446   6.169   4.040   7.601  0.0051  2.6209 -1.9127
  285MOL0     H38447   6.306   3.795   7.467 -0.2459  2.8387 -2.2185
  285MOL0     H38448   6.144   3.809   7.521  0.1606 -2.0221  0.8050
  285MOL0     H38449   6.398   3.777   7.692  0.9371 -1.3012 -0.9597
  285MOL0     H38450   6.251   3.831   7.770  0.9828 -2.8753  1.8158
  285MOL0     H38451   6.280   3.580   7.617  0.5853  0.7553 -0.3088
  285MOL0     H38452   6.119   3.639   7.681 -0.7231 -3.8102  0.3130
  285MOL0     H38453   6.239   3.476   7.835 -3.3093 -0.6937 -2.6943
  285MOL0     H38454   6.346   3.610   7.873 -0.2082  0.9781 -1.5858
  285MOL0     H38455   6.775   4.254   7.750  0.7371  0.9993  0.2026
  285MOL0     H38456   6.996   4.221   7.849  1.2655 -2.2286  2.0236
  285MOL0     H38457   7.308   4.199   8.160  2.4680  0.0941 -2.1995
  285MOL0     H38458   7.544   4.132   8.225  1.6309 -1.0367 -0.2384
  285MOL0     H38459   8.179   4.775   9.266 -1.3324  0.3410 -0.7798
  285MOL0     H38460   8.292   4.982   9.212  1.5179 -2.1085 -0.9791
  285MOL0     H38461   8.236   5.371   8.967  0.3429 -2.0217 -0.6845
  285MOL0     H38462   8.352   5.591   9.019  0.2720 -0.5960  2.2100
  285MOL0     H38463   8.745   5.589   9.175 -2.5499  0.3414  0.6139
  285MOL0     H38464   8.699   5.764   9.147 -1.0970  0.8576 -2.1198
  285MOL0     H38465   8.808   5.585   8.934  0.7379 -0.7738  2.5863
  285MOL0     H38466   8.904   5.707   9.037  0.1206  1.8201 -0.5251
  285MOL0     H38467   8.728   5.880   8.958  0.2088  0.6507  1.2134
  285MOL0     H38468   8.654   5.763   8.858 -0.3167  2.4033  0.6627
  285MOL0     H38469   8.843   5.938   8.784 -1.7536  0.5571  0.9854
  285MOL0     H38470   8.949   5.805   8.804  0.1622 -0.9558  0.6887
  285MOL0     H38471   8.752   5.608   8.498  0.5792 -3.2926  3.9579
  285MOL0     H38472   8.728   5.404   8.989 -0.3566 -0.6298 -0.8761
  285MOL0     H38473   8.756   5.202   8.994 -1.0522  1.3054  0.9301
  285MOL0     H38474   8.620   5.082   9.019 -1.1974  0.8137  0.0675
  285MOL0     H38475   8.663   5.141   8.857  1.6933 -1.2457  0.8065
  286MOL0     O38476   3.323   9.400   5.554  0.0873 -0.4462 -0.2133
  286MOL0     C38477   3.332   9.299   5.623 -0.4791 -0.0679  0.3254
  286MOL0     O38478   3.438   9.269   5.705  0.2657  0.3403  0.1927
  286MOL0     C38479   3.537   9.367   5.731  0.9486 -0.2738 -0.3475
  286MOL0     C38480   3.666   9.319   5.748  0.3021  0.1913 -0.0223
  286MOL0     C38481   3.774   9.392   5.784  0.4275  0.4392  0.2481
  286MOL0     C38482   3.757   9.532   5.813  0.0194  0.2375  0.2321
  286MOL0     O38483   3.860   9.612   5.843  0.4034  0.5334 -0.3060
  286MOL0     C38484   3.849   9.734   5.923 -0.6179  0.0753  0.3362
  286MOL0     C38485   3.868   9.862   5.842 -0.3663  0.4628  1.3926
  286MOL0     C38486   3.959   9.854   5.718  0.0526  0.2640 -0.1725
  286MOL0     C38487   4.117   9.826   5.741  0.9840  0.0235 -1.1479
  286MOL0     C38488   4.202   9.835   5.617 -0.1327 -0.5627 -0.4328
  286MOL0     C38489   4.310   9.730   5.615  1.2047 -0.3499 -0.8538
  286MOL0     C38490   4.241   9.595   5.601 -0.1147 -0.4992  0.4285
  286MOL0     C38491   4.322   9.491   5.526  0.8884 -0.4299 -0.5117
  286MOL0     N38492   4.267   9.351   5.540 -0.1148 -0.6243  0.9580
  286MOL0     C38493   4.201   9.295   5.426  0.9730 -1.1055 -0.2900
  286MOL0     C38494   4.140   9.182   5.477 -0.5772  0.0204 -0.1735
  286MOL0     C38495   4.048   9.087   5.406  0.3123  0.1299 -0.8273
  286MOL0     C38496   3.962   9.166   5.311 -0.0910 -0.1861  0.7569
  286MOL0     C38497   3.853   9.234   5.384  0.1745 -0.0350 -0.5078
  286MOL0     C38498   3.759   9.133   5.462 -0.3156 -0.1949 -0.1100
  286MOL0     O38499   3.727   9.026   5.378 -0.2890  0.6350  0.6410
  286MOL0     C38500   3.641   8.931   5.425  0.4601  0.1353  0.7178
  286MOL0     C38501   3.506   8.959   5.440 -0.1008 -0.4378  0.4540
  286MOL0     C38502   3.430   8.871   5.522 -0.3207 -0.1839 -1.1500
  286MOL0     C38503   3.488   8.750   5.578 -0.3876  0.3632 -0.5456
  286MOL0     C38504   3.400   8.658   5.665  0.0804  0.5224 -0.6168
  286MOL0     O38505   3.472   8.546   5.716  0.2353  0.4218  0.0381
  286MOL0     C38506   3.404   8.441   5.782 -0.8302 -0.4616  0.5159
  286MOL0     C38507   3.397   8.460   5.924 -0.3130  0.0049  0.9908
  286MOL0     C38508   3.340   8.354   6.004 -0.4584 -0.8629  0.4790
  286MOL0     C38509   3.277   8.248   5.941  0.4267  0.7876  0.4166
  286MOL0     O38510   3.222   8.152   6.020 -0.7991 -0.5050 -0.2954
  286MOL0     C38511   3.097   8.098   5.965  0.4266  0.7042  0.2366
  286MOL0     C38512   3.017   8.010   6.076 -0.0237 -0.3257  0.7859
  286MOL0     C38513   3.124   7.909   6.121  0.4409  0.4900  0.7622
  286MOL0     C38514   3.056   7.802   6.209  0.6442  0.3630 -0.0379
  286MOL0     C38515   3.006   7.851   6.344  0.8516  0.2729  0.0698
  286MOL0     C38516   2.935   7.754   6.446  0.7013  0.2119 -0.1641
  286MOL0     C38517   2.804   7.697   6.377 -0.4604 -0.2664 -0.8673
  286MOL0     C38518   2.699   7.621   6.477  0.7023  0.5047 -0.3667
  286MOL0    Cl38519   2.794   7.516   6.574  0.2360  0.4055 -0.0154
  286MOL0     C38520   3.275   8.241   5.800  0.3291 -0.8274 -0.6741
  286MOL0     C38521   3.331   8.344   5.723 -0.2885  0.0328  0.7302
  286MOL0     O38522   3.282   8.672   5.684  0.0190  0.0723 -0.2565
  286MOL0     C38523   3.621   8.720   5.553 -0.1089 -1.0501 -0.7834
  286MOL0     C38524   3.694   8.808   5.479  0.3050  0.2193 -0.5736
  286MOL0     N38525   4.169   9.181   5.608  0.0814 -0.2229  0.2626
  286MOL0     N38526   4.237   9.280   5.652  0.9886 -0.3950  0.3051
  286MOL0     C38527   3.630   9.585   5.793 -0.2296  0.5408  0.7493
  286MOL0     C38528   3.520   9.503   5.751  0.0387 -1.0319  0.1256
  286MOL0     C38529   3.211   9.215   5.639  0.5385  0.0624 -0.5319
  286MOL0     C38530   3.223   9.092   5.713 -0.1599  1.0153 -0.1061
  286MOL0     C38531   3.115   9.009   5.735 -0.2166  0.2694  0.0786
  286MOL0     C38532   2.992   9.042   5.672 -0.0353 -0.5861 -0.2605
  286MOL0     O38533   2.880   8.967   5.650  0.2772 -0.1384  0.5687
  286MOL0     C38534   2.883   8.823   5.660 -0.8142 -0.2410 -1.0460
  286MOL0     C38535   2.858   8.775   5.803  0.4027  0.2694  0.6419
  286MOL0     C38536   2.922   8.630   5.818  0.6298 -0.3472 -0.5117
  286MOL0     C38537   2.860   8.524   5.733 -0.3593 -0.6931 -0.2916
  286MOL0     C38538   2.725   8.491   5.778 -0.0696  0.1231  0.2012
  286MOL0     C38539   2.621   8.461   5.823  0.0705 -0.5917  0.4341
  286MOL0     C38540   2.984   9.160   5.600 -0.2545 -0.3223  0.1476
  286MOL0     C38541   3.085   9.253   5.583 -0.4200  0.7862  0.0576
  286MOL0     C38542   3.045   9.376   5.499  0.0498  0.0610 -0.0649
  286MOL0     H38543   3.676   9.213   5.729  0.1554  0.2854 -0.6427
  286MOL0     H38544   3.866   9.339   5.800 -0.4413 -0.3337  3.3244
  286MOL0     H38545   3.754   9.729   5.976 -1.1471 -1.1591 -0.6617
  286MOL0     H38546   3.926   9.734   6.000  0.1354  0.1064 -0.3956
  286MOL0     H38547   3.896   9.943   5.911  0.8025  0.2862  1.1408
  286MOL0     H38548   3.766   9.886   5.809 -0.3999 -1.3649  0.0018
  286MOL0     H38549   3.959   9.955   5.673  4.2220  0.2013 -0.6504
  286MOL0     H38550   3.906   9.795   5.642 -4.1679  1.8473  1.2506
  286MOL0     H38551   4.150   9.910   5.802  1.7217 -0.8664 -0.2819
  286MOL0     H38552   4.132   9.736   5.802 -0.8138 -0.3988 -1.2631
  286MOL0     H38553   4.142   9.821   5.526 -0.2894  2.0463 -0.8119
  286MOL0     H38554   4.242   9.937   5.620 -0.6768 -0.3571  0.3864
  286MOL0     H38555   4.372   9.743   5.526  0.3984 -1.3466 -1.5775
  286MOL0     H38556   4.378   9.709   5.698  3.2499 -2.4039 -2.9234
  286MOL0     H38557   4.148   9.608   5.546 -1.2682 -3.3289  1.4881
  286MOL0     H38558   4.225   9.562   5.704  0.2139  0.5155  0.8147
  286MOL0     H38559   4.313   9.513   5.419  0.8129  0.4162 -0.3397
  286MOL0     H38560   4.425   9.503   5.560  0.5293  2.2083 -0.1022
  286MOL0     H38561   4.198   9.340   5.327  1.0547  0.2512  0.3020
  286MOL0     H38562   4.113   9.023   5.345  0.5129 -0.4193 -0.0526
  286MOL0     H38563   3.994   9.027   5.480  3.2842  0.4151  1.8031
  286MOL0     H38564   4.014   9.248   5.261 -2.3278  3.0699  3.3994
  286MOL0     H38565   3.916   9.096   5.240 -0.5669  0.6801  0.1984
  286MOL0     H38566   3.789   9.294   5.320 -2.3892  0.3774  2.2104
  286MOL0     H38567   3.892   9.297   5.465  0.7378  0.1787 -0.9330
  286MOL0     H38568   3.663   9.179   5.487  0.2862  0.1862  1.6369
  286MOL0     H38569   3.807   9.093   5.552 -0.3111 -1.4594 -0.6579
  286MOL0     H38570   3.466   9.044   5.386  1.8883 -0.1620 -0.6941
  286MOL0     H38571   3.327   8.900   5.538  0.4175  0.8681  2.6128
  286MOL0     H38572   3.441   8.544   5.977  3.9602 -1.2273 -0.2153
  286MOL0     H38573   3.340   8.368   6.112 -1.4020  1.4138  0.2384
  286MOL0     H38574   3.041   8.189   5.942  1.4937  1.7812  1.7522
  286MOL0     H38575   3.118   8.041   5.875  1.1948  0.4421  0.5764
  286MOL0     H38576   2.994   8.065   6.167  1.1442 -2.6931  2.6347
  286MOL0     H38577   2.930   7.953   6.044 -1.3480  0.6818  2.4498
  286MOL0     H38578   3.161   7.856   6.033 -1.7934 -1.2458  0.7577
  286MOL0     H38579   3.200   7.945   6.191  0.5125 -1.5516  1.8235
  286MOL0     H38580   3.130   7.723   6.221  2.5825  2.0540 -0.1816
  286MOL0     H38581   2.972   7.764   6.151  0.3581  1.2003 -0.1883
  286MOL0     H38582   2.937   7.936   6.341 -0.3450 -0.4969  2.6787
  286MOL0     H38583   3.091   7.896   6.395  0.2225  1.3450  0.2066
  286MOL0     H38584   2.996   7.666   6.470  0.0431 -0.4937 -0.9478
  286MOL0     H38585   2.901   7.799   6.539 -2.2824  0.0827 -1.0881
  286MOL0     H38586   2.840   7.638   6.292  1.6736  1.6424 -1.3756
  286MOL0     H38587   2.747   7.780   6.334  0.3183 -0.0371 -1.4864
  286MOL0     H38588   2.660   7.694   6.549  1.3077  1.1207 -0.6552
  286MOL0     H38589   2.615   7.564   6.436 -0.7471  1.6142  0.9126
  286MOL0     H38590   3.234   8.157   5.744  0.4777  0.0946 -2.2181
  286MOL0     H38591   3.319   8.353   5.616 -0.3699 -1.2030  0.6301
  286MOL0     H38592   3.679   8.633   5.583  2.3544 -0.1140 -2.4500
  286MOL0     H38593   3.798   8.778   5.471 -0.5290 -3.3181 -0.0543
  286MOL0     H38594   3.613   9.692   5.793 -2.5695  0.2199  1.3820
  286MOL0     H38595   3.425   9.550   5.730  0.6327 -0.9602 -2.7739
  286MOL0     H38596   3.319   9.059   5.753 -1.1683  0.8067  2.3207
  286MOL0     H38597   3.132   8.915   5.787  1.6203  0.5871  0.1068
  286MOL0     H38598   2.975   8.784   5.616 -0.0949  0.9342 -0.6242
  286MOL0     H38599   2.803   8.782   5.598 -2.6859  0.4923  0.7765
  286MOL0     H38600   2.750   8.770   5.819  0.0264  2.8797 -0.5722
  286MOL0     H38601   2.894   8.844   5.880  2.0410 -0.8672  0.9494
  286MOL0     H38602   2.919   8.592   5.920  0.7581  1.9293  0.3861
  286MOL0     H38603   3.027   8.644   5.791  0.8219  1.1545  0.9053
  286MOL0     H38604   2.861   8.549   5.626  0.6157  0.7152  0.0141
  286MOL0     H38605   2.935   8.444   5.738 -2.3635 -2.6008  1.2885
  286MOL0     H38606   2.528   8.438   5.871  0.0734 -0.7479  0.3660
  286MOL0     H38607   2.897   9.178   5.537 -0.3549  2.3457  0.9298
  286MOL0     H38608   3.092   9.371   5.401  3.5391 -3.6977  1.5158
  286MOL0     H38609   2.936   9.384   5.494 -0.0220  1.2122  2.0421
  286MOL0     H38610   3.063   9.469   5.554 -4.0818 -0.5496  2.8107
  287MOL0     O38611   0.443   3.816   9.351  0.0545  0.2939  0.2416
  287MOL0     C38612   0.373   3.879   9.270  0.0689 -0.1860  0.3387
  287MOL0     O38613   0.266   3.834   9.198  0.3790  0.9373 -0.9692
  287MOL0     C38614   0.238   3.703   9.210  0.9887 -0.3428  0.7664
  287MOL0     C38615   0.248   3.622   9.103 -0.1604  0.3862  0.6510
  287MOL0     C38616   0.191   3.489   9.094 -0.1355  0.5962 -0.2094
  287MOL0     C38617   0.132   3.435   9.207 -0.3666  0.7715  0.3033
  287MOL0     O38618   0.090   3.308   9.213  0.3654  0.4363 -0.0106
  287MOL0     C38619   0.185   3.211   9.260 -0.6178  1.0584  0.3933
  287MOL0     C38620   0.130   3.062   9.254  0.8593 -1.1761  0.0514
  287MOL0     C38621   0.122   3.005   9.117 -0.7517  0.3947 -0.5518
  287MOL0     C38622   0.134   2.850   9.132 -1.2380 -0.2455  0.9579
  287MOL0     C38623   0.152   2.783   9.001  0.7987 -0.4604 -0.2582
  287MOL0     C38624   0.131   2.634   9.007 -0.3541 -0.1875  0.3196
  287MOL0     C38625   0.172   2.569   8.876 -0.4958 -0.2982  0.2802
  287MOL0     C38626   0.316   2.575   8.834 -0.1400 -0.8859 -0.2545
  287MOL0     N38627   0.358   2.513   8.705  0.5132  0.1524 -0.6322
  287MOL0     C38628   0.320   2.380   8.673 -0.6590 -0.0475 -0.1592
  287MOL0     C38629   0.375   2.357   8.545 -0.2070  0.1916  0.2519
  287MOL0     C38630   0.340   2.237   8.462  0.6933  0.6345 -0.1880
  287MOL0     C38631   0.186   2.251   8.419  0.2358 -0.2797 -0.1265
  287MOL0     C38632   0.176   2.272   8.271 -0.4481 -0.0343  0.4037
  287MOL0     C38633   0.044   2.205   8.226 -0.3589  0.8804  0.2252
  287MOL0     O38634   0.017   2.222   8.091  0.3674  0.5092 -0.0363
  287MOL0     C38635   0.047   2.117   8.005  0.0598 -0.7077  0.3436
  287MOL0     C38636   0.172   2.116   7.945  0.0608  0.4863 -0.1503
  287MOL0     C38637   0.223   2.005   7.870 -0.0652  0.0094 -0.5408
  287MOL0     C38638   0.141   1.895   7.853  0.8944 -0.8976  0.5103
  287MOL0     C38639   0.184   1.791   7.759 -0.8824 -0.7832 -0.6193
  287MOL0     O38640   0.319   1.801   7.713  0.0029  0.1130  0.1427
  287MOL0     C38641   0.368   1.711   7.624 -0.3831 -0.3044 -0.4269
  287MOL0     C38642   0.409   1.592   7.680  0.3029  0.2468  0.4626
  287MOL0     C38643   0.470   1.499   7.594 -0.3301  0.7033  0.5885
  287MOL0     C38644   0.502   1.527   7.459  0.3742  0.2426 -0.2518
  287MOL0     O38645   0.562   1.429   7.388 -0.0227 -0.6241  0.0449
  287MOL0     C38646   0.678   1.457   7.309  0.5894  0.4007  0.2165
  287MOL0     C38647   0.735   1.319   7.264 -0.6237 -0.4779  0.0786
  287MOL0     C38648   0.711   1.302   7.109 -1.0036 -0.2826 -0.4428
  287MOL0     C38649   0.758   1.167   7.061  0.5819 -0.1526 -0.4000
  287MOL0     C38650   0.811   1.167   6.917 -0.8415 -0.0564 -0.3981
  287MOL0     C38651   0.952   1.212   6.912 -0.1390  0.2157  0.1672
  287MOL0     C38652   0.976   1.232   6.764  0.1630 -0.6307 -0.0145
  287MOL0     C38653   1.094   1.318   6.734  0.2596  0.1778  1.0656
  287MOL0    Cl38654   1.101   1.320   6.556 -0.1145 -0.5593 -0.1301
  287MOL0     C38655   0.463   1.650   7.410 -0.2694 -1.1574  0.2086
  287MOL0     C38656   0.389   1.744   7.492  0.0491  0.7392  0.8885
  287MOL0     O38657   0.105   1.704   7.719  0.2948 -0.1850 -0.3302
  287MOL0     C38658   0.012   1.899   7.898  0.8697 -0.1693  0.2926
  287MOL0     C38659  -0.034   2.008   7.971 -0.4985  0.2504 -0.5840
  287MOL0     N38660   0.426   2.476   8.495  0.2329 -1.0137  0.0749
  287MOL0     N38661   0.419   2.565   8.591 -0.1701 -1.0102 -0.3645
  287MOL0     C38662   0.119   3.518   9.324 -0.0840  0.1229 -0.2720
  287MOL0     C38663   0.168   3.650   9.318 -0.4815 -0.5018 -0.0467
  287MOL0     C38664   0.407   4.025   9.247  1.1037  0.0954 -0.6238
  287MOL0     C38665   0.542   4.059   9.252  0.7605  0.1693  0.7145
  287MOL0     C38666   0.579   4.186   9.222 -0.0505  0.1366  0.1720
  287MOL0     C38667   0.492   4.282   9.179  0.2728  0.5497 -1.5585
  287MOL0     O38668   0.526   4.411   9.172 -0.2267 -0.0791 -0.0383
  287MOL0     C38669   0.564   4.468   9.047  0.3800  0.7786  0.0266
  287MOL0     C38670   0.709   4.441   9.013 -1.6448 -0.1572  0.6583
  287MOL0     C38671   0.796   4.496   9.125 -0.1190 -0.9308 -0.1058
  287MOL0     C38672   0.941   4.456   9.089 -0.7558  0.9237  0.2374
  287MOL0     C38673   1.011   4.535   8.986  0.1823 -0.0523  0.6098
  287MOL0     C38674   1.068   4.593   8.895  0.1562  0.1079 -0.0333
  287MOL0     C38675   0.355   4.249   9.193  0.2717  0.0194  1.1664
  287MOL0     C38676   0.303   4.124   9.220  0.0970  0.5660 -0.3830
  287MOL0     C38677   0.148   4.103   9.211  0.1105  1.2556 -0.6000
  287MOL0     H38678   0.292   3.677   9.020 -2.3602  0.2900 -0.6477
  287MOL0     H38679   0.179   3.418   9.014 -2.4345 -0.0773  0.6377
  287MOL0     H38680   0.279   3.245   9.216 -2.6376  3.9977 -2.1157
  287MOL0     H38681   0.188   3.236   9.366  2.4313 -2.5849  1.3361
  287MOL0     H38682   0.028   3.060   9.293 -0.0253  1.1986 -1.9101
  287MOL0     H38683   0.201   3.011   9.320  3.0765 -0.2774 -1.5359
  287MOL0     H38684   0.190   3.030   9.035 -1.1547  0.4735 -0.8646
  287MOL0     H38685   0.023   3.036   9.084 -1.0203  2.2346  1.7768
  287MOL0     H38686   0.225   2.831   9.190  0.3610  2.1748 -0.5263
  287MOL0     H38687   0.050   2.819   9.194 -0.0395 -1.0929  2.2236
  287MOL0     H38688   0.079   2.824   8.930 -0.9602 -1.5210  0.8600
  287MOL0     H38689   0.245   2.822   8.961 -0.0722  0.7967 -1.1234
  287MOL0     H38690   0.202   2.596   9.081  0.1236  1.8524  0.9738
  287MOL0     H38691   0.031   2.602   9.038 -0.2496 -0.0460  0.8096
  287MOL0     H38692   0.108   2.619   8.802  2.0840  1.5088 -0.8626
  287MOL0     H38693   0.130   2.468   8.883 -0.5276 -0.1900  2.2683
  287MOL0     H38694   0.352   2.678   8.825 -1.0010 -0.6804 -1.6858
  287MOL0     H38695   0.376   2.535   8.916  0.6408  1.7335  0.5691
  287MOL0     H38696   0.268   2.301   8.727 -0.8102 -0.9183 -1.5253
  287MOL0     H38697   0.412   2.235   8.379  2.3651 -0.0706  1.2233
  287MOL0     H38698   0.353   2.133   8.493  1.0671 -0.2236 -2.9568
  287MOL0     H38699   0.131   2.159   8.442  1.4439 -0.9841 -0.0000
  287MOL0     H38700   0.142   2.336   8.472 -0.1510 -1.1481  0.9754
  287MOL0     H38701   0.247   2.212   8.213 -2.3269 -3.3945  1.2960
  287MOL0     H38702   0.175   2.379   8.247 -1.9928 -0.7993 -3.7309
  287MOL0     H38703  -0.038   2.263   8.270  0.6335  3.6824 -1.3978
  287MOL0     H38704   0.039   2.102   8.263 -0.3211  1.2944  1.4578
  287MOL0     H38705   0.235   2.203   7.950 -2.5165  2.4464  4.1385
  287MOL0     H38706   0.327   2.003   7.838  0.3487  1.5967  0.5595
  287MOL0     H38707   0.395   1.554   7.781  2.1218 -0.6047  0.4370
  287MOL0     H38708   0.502   1.402   7.631  2.6255  1.4556  0.1766
  287MOL0     H38709   0.656   1.523   7.225 -1.1228 -0.3814  0.0131
  287MOL0     H38710   0.751   1.520   7.362  0.6499  1.9514 -1.5978
  287MOL0     H38711   0.841   1.337   7.286 -0.9636  1.2652  0.4224
  287MOL0     H38712   0.704   1.232   7.323 -0.2617 -0.1045  0.8381
  287MOL0     H38713   0.603   1.319   7.104 -1.1968 -1.1261  0.4156
  287MOL0     H38714   0.765   1.380   7.055 -1.1574  0.6091  0.6497
  287MOL0     H38715   0.662   1.115   7.056  0.1716  0.5683 -0.1590
  287MOL0     H38716   0.823   1.120   7.135 -1.6321  0.2286  1.9135
  287MOL0     H38717   0.739   1.232   6.867 -2.6248 -3.0230 -2.0093
  287MOL0     H38718   0.799   1.073   6.862 -1.3944  0.2486 -0.8073
  287MOL0     H38719   0.963   1.304   6.971 -1.2619 -0.2899  1.2168
  287MOL0     H38720   1.015   1.131   6.949 -1.1380  0.1526  1.8678
  287MOL0     H38721   0.888   1.277   6.717 -0.1805 -2.0070 -0.7571
  287MOL0     H38722   0.992   1.133   6.720  1.8247 -1.2309  1.8290
  287MOL0     H38723   1.091   1.419   6.775  0.7747  0.1234  1.2397
  287MOL0     H38724   1.189   1.277   6.769  0.3687 -1.3787 -0.8763
  287MOL0     H38725   0.489   1.674   7.307 -2.2321 -1.4301 -0.3980
  287MOL0     H38726   0.352   1.837   7.451  1.3897  0.5186 -0.9274
  287MOL0     H38727  -0.054   1.815   7.879  0.6823  0.1059 -0.3355
  287MOL0     H38728  -0.133   1.997   8.016 -0.7976  1.5578 -0.8844
  287MOL0     H38729   0.060   3.499   9.413 -2.5481  2.0963 -1.3540
  287MOL0     H38730   0.155   3.700   9.414 -0.0977  1.4545 -0.9551
  287MOL0     H38731   0.616   3.980   9.262  2.0681  1.2343 -0.1762
  287MOL0     H38732   0.681   4.221   9.218 -0.9640  3.1640  1.0984
  287MOL0     H38733   0.544   4.575   9.059 -3.2117  0.2827 -0.3061
  287MOL0     H38734   0.505   4.436   8.960  1.9412  4.3771 -2.5903
  287MOL0     H38735   0.750   4.486   8.922  1.2021  0.6245  2.1979
  287MOL0     H38736   0.723   4.335   8.991 -1.3695 -0.1248  0.6694
  287MOL0     H38737   0.767   4.452   9.221 -0.4114 -1.3417 -0.3839
  287MOL0     H38738   0.796   4.605   9.135 -2.0948 -0.9307  0.1730
  287MOL0     H38739   1.002   4.455   9.180  2.5348 -1.3548 -1.7722
  287MOL0     H38740   0.948   4.350   9.064 -1.4604  0.7510  0.7343
  287MOL0     H38741   1.113   4.647   8.814  0.3756 -0.2552 -0.1516
  287MOL0     H38742   0.276   4.318   9.164  0.9691  0.1937 -0.4267
  287MOL0     H38743   0.082   4.186   9.237 -0.2841 -0.3404  4.8250
  287MOL0     H38744   0.131   4.074   9.107  0.6859  3.4952 -1.3778
  287MOL0     H38745   0.116   4.029   9.285 -1.5173  3.0183  0.5450
  288MOL0     O38746   3.073   1.463   4.067 -0.5522  0.1133 -0.2846
  288MOL0     C38747   3.044   1.359   4.119 -0.5738  1.3056  0.3326
  288MOL0     O38748   3.017   1.337   4.248  0.0099 -0.1579  0.0298
  288MOL0     C38749   3.000   1.448   4.321 -0.0363  0.1548 -0.3003
  288MOL0     C38750   3.098   1.520   4.382  0.0506 -0.9101  0.3645
  288MOL0     C38751   3.077   1.646   4.440  0.6999 -0.9822 -0.0467
  288MOL0     C38752   2.953   1.684   4.475  1.1862 -0.8426  0.5794
  288MOL0     O38753   2.938   1.808   4.544 -0.7213  0.1018  0.6116
  288MOL0     C38754   2.921   1.909   4.445 -0.6158 -0.4104  0.5438
  288MOL0     C38755   2.960   2.031   4.527  0.0294  0.1060 -0.0431
  288MOL0     C38756   2.970   2.162   4.449  0.0813 -1.0349  0.2055
  288MOL0     C38757   3.059   2.260   4.508 -0.3131  0.0172 -0.0296
  288MOL0     C38758   3.069   2.387   4.431 -0.4055 -0.6091  0.3611
  288MOL0     C38759   3.208   2.462   4.449  0.5020  0.9045  0.2081
  288MOL0     C38760   3.249   2.526   4.587  0.3427  0.0460  0.0662
  288MOL0     C38761   3.400   2.535   4.594  0.6038  0.1788  0.0671
  288MOL0     N38762   3.457   2.607   4.479  0.9053  0.1827  0.2898
  288MOL0     C38763   3.453   2.743   4.483  0.1460  0.2598  0.8490
  288MOL0     C38764   3.507   2.784   4.367 -0.8210 -0.8692 -0.5352
  288MOL0     C38765   3.524   2.930   4.336 -0.0405  0.1442 -0.6576
  288MOL0     C38766   3.626   3.012   4.417 -0.7609 -0.0746  0.4307
  288MOL0     C38767   3.767   2.953   4.431  0.1665 -0.5618  0.3458
  288MOL0     C38768   3.838   2.910   4.309  0.1709 -0.2087  0.7477
  288MOL0     O38769   3.975   2.874   4.324  0.0641 -0.0374  0.6103
  288MOL0     C38770   4.045   2.821   4.217 -0.0194 -0.0737 -0.5492
  288MOL0     C38771   4.188   2.806   4.241 -0.8802  0.1117  0.4955
  288MOL0     C38772   4.261   2.748   4.139 -0.6044  0.2888  0.2102
  288MOL0     C38773   4.202   2.696   4.018  0.7177 -1.0583 -0.8472
  288MOL0     C38774   4.282   2.648   3.910 -1.8556 -0.5334  0.2896
  288MOL0     O38775   4.209   2.605   3.802 -0.7300 -0.0492  0.1418
  288MOL0     C38776   4.272   2.554   3.692  0.4110 -0.7190 -0.2025
  288MOL0     C38777   4.202   2.467   3.605  0.2958  0.3094 -0.8721
  288MOL0     C38778   4.272   2.393   3.509 -0.1590  0.2308  0.6968
  288MOL0     C38779   4.412   2.413   3.485 -0.5751 -1.1062 -0.7408
  288MOL0     O38780   4.491   2.345   3.398 -0.7561  0.6084 -0.2310
  288MOL0     C38781   4.435   2.333   3.267 -0.3694  1.2205  1.0940
  288MOL0     C38782   4.564   2.305   3.183  0.5060  0.1182  0.0766
  288MOL0     C38783   4.624   2.168   3.225 -0.3981  0.3397  0.0396
  288MOL0     C38784   4.769   2.148   3.179  0.2945 -0.8001  0.2179
  288MOL0     C38785   4.793   2.005   3.146  0.0356 -0.7180 -0.0052
  288MOL0     C38786   4.928   1.973   3.088  1.2424  0.1997  0.0679
  288MOL0     C38787   4.941   1.817   3.076 -0.5953  0.7698 -0.0891
  288MOL0     C38788   5.065   1.769   3.006 -0.2108  0.3609  0.4765
  288MOL0    Cl38789   5.075   1.595   3.020 -0.1183 -0.0368 -0.3681
  288MOL0     C38790   4.464   2.524   3.549 -0.8670  0.0835 -0.8427
  288MOL0     C38791   4.404   2.589   3.658 -0.3281  0.9178 -0.3059
  288MOL0     O38792   4.407   2.641   3.917 -0.2000  0.8919  0.3064
  288MOL0     C38793   4.060   2.719   4.003  0.9250 -0.4165 -0.5407
  288MOL0     C38794   3.982   2.773   4.106 -1.1376  1.1648  0.4032
  288MOL0     N38795   3.529   2.679   4.288 -0.4008 -0.3354 -0.4361
  288MOL0     N38796   3.502   2.570   4.360 -0.3733  0.3719  0.2539
  288MOL0     C38797   2.840   1.607   4.433  0.2699  0.6266  0.0428
  288MOL0     C38798   2.867   1.491   4.352 -0.0795  0.1826 -0.2691
  288MOL0     C38799   3.034   1.234   4.028 -0.0699 -0.6393 -0.5269
  288MOL0     C38800   2.973   1.120   4.082  0.7077  0.2298  0.6964
  288MOL0     C38801   2.977   0.996   4.010  0.2117  0.1865  1.1756
  288MOL0     C38802   3.021   0.991   3.882  0.2574  0.7348  0.0753
  288MOL0     O38803   3.018   0.867   3.816  0.1662 -0.0346 -0.1623
  288MOL0     C38804   3.129   0.815   3.750  1.0668  0.4437 -0.5903
  288MOL0     C38805   3.196   0.698   3.838  0.0512 -0.4607 -0.8794
  288MOL0     C38806   3.089   0.590   3.855 -0.3369 -0.2596 -0.3941
  288MOL0     C38807   3.140   0.453   3.897 -0.5693 -0.8886  0.5814
  288MOL0     C38808   3.230   0.388   3.803 -0.3353 -0.0519  0.9109
  288MOL0     C38809   3.293   0.307   3.734  0.6565  0.8482  0.8120
  288MOL0     C38810   3.059   1.101   3.817  0.0890 -0.4559  0.8570
  288MOL0     C38811   3.075   1.223   3.890  0.3016  0.8119  0.3122
  288MOL0     C38812   3.117   1.340   3.813 -0.4184 -0.7921 -0.3277
  288MOL0     H38813   3.197   1.477   4.369  1.4096  0.7545  3.8890
  288MOL0     H38814   3.159   1.705   4.480 -0.1675  0.0459  0.2417
  288MOL0     H38815   2.978   1.914   4.352 -2.2390 -1.0212 -0.5234
  288MOL0     H38816   2.819   1.912   4.407  0.0715 -0.7483 -1.4382
  288MOL0     H38817   3.058   2.008   4.569  1.6013  0.1767 -3.3822
  288MOL0     H38818   2.879   2.045   4.600  0.7789  0.4712  0.7390
  288MOL0     H38819   2.874   2.214   4.443 -1.1082 -3.1953 -0.5403
  288MOL0     H38820   2.997   2.149   4.344 -1.3400 -0.4086 -0.2561
  288MOL0     H38821   3.031   2.288   4.611  2.9491 -1.9508  1.5555
  288MOL0     H38822   3.154   2.210   4.528 -0.2111  1.1877  3.0317
  288MOL0     H38823   3.053   2.366   4.325  0.1902  1.6402 -0.2273
  288MOL0     H38824   2.984   2.448   4.465 -0.6841 -1.3113  0.9469
  288MOL0     H38825   3.285   2.386   4.434  1.4445  2.2208 -2.2556
  288MOL0     H38826   3.211   2.539   4.371 -4.6581  1.0477 -0.1551
  288MOL0     H38827   3.206   2.456   4.660  0.5282 -0.0975  0.0374
  288MOL0     H38828   3.199   2.623   4.598  1.6667  0.9199 -1.2842
  288MOL0     H38829   3.417   2.593   4.685  2.8963  0.0753 -0.2133
  288MOL0     H38830   3.450   2.440   4.616  0.9489  0.5247  0.8130
  288MOL0     H38831   3.405   2.801   4.562 -2.9972 -0.4371 -0.3757
  288MOL0     H38832   3.546   2.941   4.229 -0.8461 -0.8255 -0.9327
  288MOL0     H38833   3.423   2.972   4.346 -0.6897 -1.1477 -1.5395
  288MOL0     H38834   3.643   3.108   4.368 -0.6053 -0.2601  0.1175
  288MOL0     H38835   3.588   3.040   4.515 -1.1395 -0.7390  0.4771
  288MOL0     H38836   3.758   2.872   4.503 -1.6177 -1.7326 -1.0920
  288MOL0     H38837   3.827   3.035   4.470 -0.2396  1.3493 -2.6630
  288MOL0     H38838   3.833   2.998   4.245  0.3198  0.0179  1.0460
  288MOL0     H38839   3.796   2.820   4.264  0.3884  0.7793 -1.5840
  288MOL0     H38840   4.240   2.851   4.325  1.5392 -0.9952 -0.2990
  288MOL0     H38841   4.367   2.729   4.153 -1.0234 -1.1728  1.6474
  288MOL0     H38842   4.095   2.447   3.612  0.4960 -2.0527 -3.0793
  288MOL0     H38843   4.209   2.321   3.458  4.8667 -3.2455 -1.4064
  288MOL0     H38844   4.367   2.249   3.252  1.6569 -0.8557  2.8250
  288MOL0     H38845   4.404   2.432   3.231  0.3801  1.2577  0.5249
  288MOL0     H38846   4.538   2.299   3.077  0.0888 -0.7288  0.2212
  288MOL0     H38847   4.632   2.387   3.206  0.4127  0.1979  0.0714
  288MOL0     H38848   4.640   2.165   3.334 -0.8094 -1.6682  0.0813
  288MOL0     H38849   4.566   2.080   3.198  3.1654 -2.1365 -0.2887
  288MOL0     H38850   4.832   2.172   3.264  0.2951  2.8924 -0.6567
  288MOL0     H38851   4.796   2.215   3.096 -1.4149 -0.7583 -0.3443
  288MOL0     H38852   4.710   1.981   3.079 -0.1760 -2.4416  0.8045
  288MOL0     H38853   4.778   1.935   3.229  2.9995 -0.0510  1.2320
  288MOL0     H38854   4.935   2.015   2.987 -0.9245 -1.0953 -0.6961
  288MOL0     H38855   5.006   2.010   3.156  0.8453  0.1913  0.5304
  288MOL0     H38856   4.858   1.771   3.022 -0.6712  2.9375 -2.0334
  288MOL0     H38857   4.948   1.776   3.177 -3.8562 -1.3502 -0.6038
  288MOL0     H38858   5.064   1.805   2.903 -2.0141 -0.1053  0.2862
  288MOL0     H38859   5.153   1.810   3.057 -0.3548 -0.0532  1.0612
  288MOL0     H38860   4.565   2.555   3.524  0.7437 -0.7656  3.6636
  288MOL0     H38861   4.463   2.672   3.694  0.4189  0.3738 -0.2684
  288MOL0     H38862   4.006   2.689   3.914  1.5607  1.8744 -1.7746
  288MOL0     H38863   3.873   2.779   4.103 -1.0985  2.6133  0.7066
  288MOL0     H38864   2.739   1.639   4.460  0.4605  2.7763 -1.4879
  288MOL0     H38865   2.786   1.451   4.292  0.8448 -0.4842 -1.1187
  288MOL0     H38866   2.958   1.112   4.189  3.2450 -5.6078  0.9826
  288MOL0     H38867   2.933   0.915   4.067 -0.0980 -0.7513 -0.3481
  288MOL0     H38868   3.212   0.884   3.729  0.6810  1.0019 -0.3082
  288MOL0     H38869   3.096   0.788   3.649  0.6056  1.1918 -0.6444
  288MOL0     H38870   3.237   0.730   3.934 -1.9540 -1.1501  0.2782
  288MOL0     H38871   3.272   0.648   3.778  0.0002 -0.4815 -0.9268
  288MOL0     H38872   3.047   0.588   3.754  1.6273 -0.6044 -1.2461
  288MOL0     H38873   3.010   0.635   3.916  0.4752  4.2868 -2.2908
  288MOL0     H38874   3.187   0.457   3.996  2.1203 -3.3657 -0.4398
  288MOL0     H38875   3.056   0.383   3.905  1.9072 -4.0398  1.3461
  288MOL0     H38876   3.335   0.232   3.670 -2.6467  0.0985 -0.6922
  288MOL0     H38877   3.081   1.090   3.711 -1.9177 -0.3660  0.3988
  288MOL0     H38878   3.048   1.423   3.831  1.8599  1.1747 -0.1010
  288MOL0     H38879   3.220   1.370   3.838 -0.6131  0.3115 -0.7915
  288MOL0     H38880   3.106   1.332   3.704  1.6898 -1.9782 -0.5177
  289MOL0     O38881  10.382   2.115   3.048 -0.2489 -0.3368  0.3306
  289MOL0     C38882  10.308   2.027   3.073  0.9690 -0.0189 -0.1946
  289MOL0     O38883  10.278   1.978   3.201 -0.2383  0.2526  0.2748
  289MOL0     C38884  10.347   2.022   3.315 -0.1846  0.2443  0.1083
  289MOL0     C38885  10.385   1.920   3.404 -0.4102 -0.7705 -0.1552
  289MOL0     C38886  10.447   1.956   3.524  0.3408  0.3897 -0.5479
  289MOL0     C38887  10.477   2.093   3.562  0.6797 -0.2030 -0.1924
  289MOL0     O38888  10.545   2.138   3.681  0.1423  0.0377  0.8307
  289MOL0     C38889  10.669   2.064   3.696 -0.7008  0.1249  0.2114
  289MOL0     C38890  10.758   2.122   3.813  0.0587  0.0514 -0.3398
  289MOL0     C38891  10.676   2.144   3.943 -0.0623  0.3766  0.2600
  289MOL0     C38892  10.759   2.219   4.053  1.0050 -1.2344  1.5307
  289MOL0     C38893  10.682   2.242   4.180  0.0176  0.1301 -0.4766
  289MOL0     C38894  10.571   2.346   4.188 -1.0890 -0.4668  0.2489
  289MOL0     C38895  10.514   2.367   4.326  0.2058  0.0119  0.5977
  289MOL0     C38896  10.378   2.438   4.316 -0.1371  0.1256 -0.8687
  289MOL0     N38897  10.267   2.341   4.328  0.5456 -0.8693 -0.3294
  289MOL0     C38898  10.222   2.321   4.458 -0.0400 -0.2371  0.0118
  289MOL0     C38899  10.151   2.202   4.438  0.2570 -0.2764 -0.5659
  289MOL0     C38900  10.078   2.127   4.543  0.4567  0.2169 -0.7466
  289MOL0     C38901  10.099   1.981   4.556 -0.0165  0.0640 -0.1658
  289MOL0     C38902  10.017   1.903   4.457 -0.4594 -0.0784 -0.1077
  289MOL0     C38903  10.009   1.750   4.480 -0.4671  0.7137 -0.8239
  289MOL0     O38904   9.889   1.716   4.424 -0.4790 -1.0061  0.6272
  289MOL0     C38905   9.855   1.583   4.440 -0.2790 -0.3106  0.7816
  289MOL0     C38906   9.742   1.530   4.358 -0.1020 -0.3304  0.1072
  289MOL0     C38907   9.717   1.391   4.363  0.2712 -0.2150 -0.5929
  289MOL0     C38908   9.790   1.303   4.448  0.4237  0.4585 -0.2247
  289MOL0     C38909   9.763   1.161   4.450 -0.3146  0.5552  1.1104
  289MOL0     O38910   9.841   1.081   4.531 -0.5518  0.1199  0.2265
  289MOL0     C38911   9.801   0.955   4.559  0.4507  0.4477 -0.9818
  289MOL0     C38912   9.826   0.907   4.692 -0.3200 -0.0859  0.3602
  289MOL0     C38913   9.794   0.771   4.709  0.0944 -0.4915 -0.1478
  289MOL0     C38914   9.737   0.686   4.622  0.1605  0.1181 -0.0360
  289MOL0     O38915   9.696   0.562   4.645 -0.0810  0.1646 -0.4340
  289MOL0     C38916   9.716   0.501   4.771  0.7243 -0.8815  0.3176
  289MOL0     C38917   9.623   0.380   4.771 -0.2401 -0.1598 -0.4365
  289MOL0     C38918   9.649   0.292   4.897 -0.0940 -1.2297 -0.8787
  289MOL0     C38919   9.540   0.180   4.911 -0.6565  0.1897 -0.6354
  289MOL0     C38920   9.612   0.047   4.951  0.3354  0.2343 -0.3123
  289MOL0     C38921   9.674   0.046   5.094 -0.2470  0.2872 -0.4377
  289MOL0     C38922   9.759  -0.082   5.118  0.3198  0.0335 -0.2175
  289MOL0     C38923   9.783  -0.110   5.269 -0.0302 -0.7310  0.1596
  289MOL0    Cl38924   9.860   0.026   5.350  0.3436  0.3205  0.2647
  289MOL0     C38925   9.706   0.728   4.498  0.8727  0.3726  0.0454
  289MOL0     C38926   9.748   0.863   4.464  1.2857 -0.1068 -0.1177
  289MOL0     O38927   9.659   1.125   4.398 -0.6342 -0.1879 -0.1580
  289MOL0     C38928   9.892   1.354   4.529 -0.0767  0.2458 -0.3795
  289MOL0     C38929   9.916   1.493   4.526  0.2375 -0.1112  0.2662
  289MOL0     N38930  10.154   2.157   4.307 -0.5587 -0.7175  0.0155
  289MOL0     N38931  10.225   2.247   4.238 -0.4858  0.1995  0.3836
  289MOL0     C38932  10.421   2.195   3.481 -0.2914  0.2359 -0.6755
  289MOL0     C38933  10.362   2.160   3.356 -0.1914 -0.4756 -0.2226
  289MOL0     C38934  10.230   1.962   2.967  1.4238  0.3456 -0.4229
  289MOL0     C38935  10.134   1.873   3.007  0.9682  0.2666  0.9618
  289MOL0     C38936  10.050   1.805   2.918 -0.1403 -0.4922 -0.4958
  289MOL0     C38937  10.043   1.849   2.787 -0.6474  0.2717 -0.9572
  289MOL0     O38938   9.942   1.789   2.714  0.3513  0.1999 -0.5874
  289MOL0     C38939   9.903   1.844   2.580 -1.2341  0.6580  0.3636
  289MOL0     C38940   9.772   1.813   2.516  0.2308 -0.2918 -0.0630
  289MOL0     C38941   9.740   1.666   2.536 -0.6760 -0.2341  0.0340
  289MOL0     C38942   9.595   1.641   2.513 -0.0257 -0.2949  0.1078
  289MOL0     C38943   9.570   1.502   2.546 -0.1822  0.1397  0.3341
  289MOL0     C38944   9.561   1.389   2.575 -0.1339  1.4014 -0.7669
  289MOL0     C38945  10.121   1.953   2.743  0.1951 -0.7328  0.0089
  289MOL0     C38946  10.226   2.001   2.824 -0.1245 -0.0999 -0.4190
  289MOL0     C38947  10.331   2.081   2.761 -0.7814  0.7118 -0.1945
  289MOL0     H38948  10.378   1.813   3.390 -1.6791 -0.8732  0.9450
  289MOL0     H38949  10.475   1.875   3.590 -0.9231  0.1856 -0.2287
  289MOL0     H38950  10.653   1.956   3.700  0.4968 -0.1007 -0.5025
  289MOL0     H38951  10.718   2.087   3.601  1.6529  2.4385  1.8311
  289MOL0     H38952  10.783   2.225   3.786 -1.2290  0.2680 -0.7786
  289MOL0     H38953  10.852   2.071   3.838  0.0611  0.6166  0.8807
  289MOL0     H38954  10.649   2.044   3.980  2.0566  0.1220  1.2636
  289MOL0     H38955  10.583   2.200   3.928 -0.6077 -0.9088 -1.5874
  289MOL0     H38956  10.845   2.154   4.071  1.2400 -1.1181  0.8661
  289MOL0     H38957  10.798   2.315   4.019  1.5189 -0.9135  2.9710
  289MOL0     H38958  10.649   2.142   4.208 -1.6435  0.2465 -1.8920
  289MOL0     H38959  10.748   2.279   4.260 -2.1695  2.8454  0.2144
  289MOL0     H38960  10.626   2.435   4.155 -1.6930 -0.0304  0.3974
  289MOL0     H38961  10.485   2.334   4.121 -1.2243  0.1745  0.3044
  289MOL0     H38962  10.573   2.430   4.393  2.4993 -0.3269 -0.9700
  289MOL0     H38963  10.511   2.266   4.367 -0.1298 -0.4329 -0.4892
  289MOL0     H38964  10.367   2.516   4.391 -1.5124  0.2968 -1.2223
  289MOL0     H38965  10.356   2.501   4.229  0.5707  2.5660  0.6149
  289MOL0     H38966  10.246   2.387   4.541  2.1463 -1.1184  0.1441
  289MOL0     H38967  10.106   2.184   4.633 -0.8319 -0.7745  0.3330
  289MOL0     H38968   9.970   2.134   4.526  0.1718 -0.7885  0.4636
  289MOL0     H38969  10.205   1.955   4.552 -0.3267 -1.6463  1.4943
  289MOL0     H38970  10.063   1.954   4.656 -0.7987 -0.9789 -0.7146
  289MOL0     H38971  10.062   1.918   4.359 -0.9979 -1.6245 -0.6268
  289MOL0     H38972   9.913   1.937   4.455 -0.4358  0.2669  1.8114
  289MOL0     H38973  10.001   1.731   4.587 -0.2610 -1.6806 -1.1776
  289MOL0     H38974  10.095   1.695   4.440 -1.0223  0.6807 -1.9913
  289MOL0     H38975   9.686   1.601   4.298 -0.6301  0.7129  1.7496
  289MOL0     H38976   9.641   1.348   4.298 -0.0365 -1.3664  0.4857
  289MOL0     H38977   9.861   0.968   4.774 -1.5451  1.4169 -0.1901
  289MOL0     H38978   9.817   0.754   4.814 -2.0504  0.0060  0.4452
  289MOL0     H38979   9.816   0.471   4.806 -0.2839 -3.3839  1.2858
  289MOL0     H38980   9.677   0.565   4.851 -0.7509  0.9720 -1.7711
  289MOL0     H38981   9.519   0.412   4.773 -0.5266 -1.0135 -1.1686
  289MOL0     H38982   9.637   0.316   4.683  2.5590  1.4265 -1.2898
  289MOL0     H38983   9.747   0.243   4.895 -0.0049 -1.1277  0.4121
  289MOL0     H38984   9.653   0.355   4.986 -1.7408 -0.9423 -0.9863
  289MOL0     H38985   9.491   0.164   4.815 -5.5797 -1.4526  1.8149
  289MOL0     H38986   9.460   0.212   4.978  0.3097 -0.2674  0.8100
  289MOL0     H38987   9.701   0.036   4.887  0.8493 -0.0012  0.4269
  289MOL0     H38988   9.549  -0.040   4.931  1.6827 -0.4241 -1.9185
  289MOL0     H38989   9.729   0.139   5.112 -1.8821  2.0788 -3.8169
  289MOL0     H38990   9.590   0.040   5.163 -0.6196  1.5966 -0.7503
  289MOL0     H38991   9.858  -0.077   5.073 -0.1884 -0.1652 -1.3798
  289MOL0     H38992   9.715  -0.178   5.088 -0.3497 -0.2752  1.6083
  289MOL0     H38993   9.687  -0.140   5.311  0.4887 -0.8971  1.2787
  289MOL0     H38994   9.846  -0.199   5.277  2.3145  0.2939 -4.0027
  289MOL0     H38995   9.657   0.659   4.430 -1.2499 -0.0737  1.8901
  289MOL0     H38996   9.734   0.894   4.360 -1.2781  1.3625  0.5720
  289MOL0     H38997   9.933   1.283   4.599 -1.3066  1.2153  1.3949
  289MOL0     H38998  10.006   1.523   4.580 -0.3295  0.5260  0.8800
  289MOL0     H38999  10.437   2.298   3.509  1.3029 -0.2492  0.3283
  289MOL0     H39000  10.313   2.237   3.297  0.7785 -1.4724 -2.4322
  289MOL0     H39001  10.114   1.853   3.111 -1.7707  0.1073  0.4784
  289MOL0     H39002  10.000   1.716   2.955 -1.4926  0.1573 -0.7076
  289MOL0     H39003   9.979   1.805   2.512  0.9510 -0.8964  3.4414
  289MOL0     H39004   9.916   1.952   2.592  0.0697  0.6944 -1.1005
  289MOL0     H39005   9.776   1.824   2.407  2.7292  3.1428  0.2103
  289MOL0     H39006   9.697   1.878   2.562 -0.8641 -1.7811  0.3126
  289MOL0     H39007   9.749   1.641   2.642  0.5996  2.1415  0.5621
  289MOL0     H39008   9.812   1.606   2.481 -0.9004 -1.1666  0.7326
  289MOL0     H39009   9.542   1.712   2.578  2.1359  0.3102  1.3270
  289MOL0     H39010   9.578   1.652   2.406 -1.3905 -1.2548  0.2003
  289MOL0     H39011   9.538   1.290   2.609 -1.8444  1.4676 -1.6319
  289MOL0     H39012  10.109   1.991   2.642  1.0108 -0.3900  0.0388
  289MOL0     H39013  10.298   2.116   2.663 -4.1638  1.0647  0.9441
  289MOL0     H39014  10.342   2.165   2.830 -0.5172  0.0862  0.5373
  289MOL0     H39015  10.430   2.037   2.745 -0.1773  1.3541  1.5540
  290MOL0     O39016   7.528  10.847   8.474  0.6022  0.1300  0.3829
  290MOL0     C39017   7.441  10.818   8.557  0.1807  0.7661  0.2022
  290MOL0     O39018   7.412  10.887   8.667  0.6883 -0.0367  0.1062
  290MOL0     C39019   7.502  10.975   8.717 -0.8615  0.4283  0.1202
  290MOL0     C39020   7.612  10.943   8.793  0.0576  0.1786  0.0855
  290MOL0     C39021   7.700  11.051   8.830 -1.1639  0.3709 -0.1083
  290MOL0     C39022   7.678  11.183   8.806  0.1202  0.1603  1.3746
  290MOL0     O39023   7.767  11.281   8.840  0.6118 -1.1794 -0.3602
  290MOL0     C39024   7.846  11.259   8.962  0.5883  0.5039 -0.2762
  290MOL0     C39025   7.882  11.399   9.010 -0.0957  0.3024 -0.0289
  290MOL0     C39026   7.960  11.403   9.148  1.4063  0.8611  0.8484
  290MOL0     C39027   8.020  11.541   9.173 -0.9410  0.0920  1.1795
  290MOL0     C39028   8.048  11.574   9.319  0.5122  0.8992 -0.0295
  290MOL0     C39029   8.074  11.722   9.356 -1.5363 -0.2209 -0.6394
  290MOL0     C39030   8.140  11.736   9.495  0.5671  0.6155 -0.4412
  290MOL0     C39031   8.162  11.885   9.516 -0.8080 -0.5075 -0.7779
  290MOL0     N39032   8.277  11.934   9.439  0.4959  0.0401  0.4831
  290MOL0     C39033   8.275  11.976   9.306 -0.2347 -0.0343  0.9766
  290MOL0     C39034   8.410  11.985   9.262 -0.6556 -0.7937 -0.4200
  290MOL0     C39035   8.464  12.004   9.128 -0.1483 -0.1602  0.7135
  290MOL0     C39036   8.494  12.150   9.083 -0.4598 -0.4313 -0.6523
  290MOL0     C39037   8.362  12.228   9.075 -0.3923 -0.6106 -0.1365
  290MOL0     C39038   8.377  12.366   9.020 -0.0462  0.9346  0.0002
  290MOL0     O39039   8.396  12.466   9.128  0.8006  0.1125  0.1543
  290MOL0     C39040   8.284  12.532   9.173  0.3507  0.7112 -0.4905
  290MOL0     C39041   8.306  12.628   9.267  0.6634 -0.0286 -0.2517
  290MOL0     C39042   8.190  12.684   9.341 -0.0982 -0.0213 -0.2718
  290MOL0     C39043   8.062  12.656   9.295 -0.0799  0.4584 -0.0852
  290MOL0     C39044   7.957  12.751   9.325 -0.3936  0.5420 -0.1081
  290MOL0     O39045   7.831  12.715   9.293  0.2507 -0.2492 -0.6933
  290MOL0     C39046   7.722  12.783   9.347 -0.6037 -0.1909  0.8819
  290MOL0     C39047   7.716  12.837   9.478 -0.4838  0.2306 -0.1945
  290MOL0     C39048   7.598  12.905   9.518 -0.5535 -0.3634  0.2084
  290MOL0     C39049   7.486  12.912   9.440  0.4530 -0.0644 -0.3614
  290MOL0     O39050   7.376  12.976   9.494  0.7125 -0.0653 -0.4702
  290MOL0     C39051   7.394  13.092   9.581 -0.0866 -0.3104  0.0502
  290MOL0     C39052   7.253  13.154   9.598 -0.3364 -0.1228  0.0902
  290MOL0     C39053   7.258  13.292   9.671  0.3805  0.0838  0.8532
  290MOL0     C39054   7.117  13.342   9.702  0.0914  0.4536 -0.0328
  290MOL0     C39055   7.115  13.496   9.702 -0.0092  0.6840 -0.2132
  290MOL0     C39056   6.986  13.550   9.749  0.4973  0.4496 -0.6335
  290MOL0     C39057   6.976  13.704   9.701 -0.0985  0.0553  0.0319
  290MOL0     C39058   6.922  13.723   9.562 -0.1110 -0.0783  0.1915
  290MOL0    Cl39059   6.760  13.672   9.548 -0.1023  0.1618 -0.5596
  290MOL0     C39060   7.488  12.854   9.314 -0.6351  0.3179 -0.3182
  290MOL0     C39061   7.602  12.784   9.269 -0.3641  1.4471  0.3532
  290MOL0     O39062   7.986  12.860   9.377 -0.3754 -0.1134 -0.0723
  290MOL0     C39063   8.048  12.546   9.204  0.5546 -0.7831  0.4722
  290MOL0     C39064   8.154  12.497   9.135 -0.6973 -0.8188  0.3920
  290MOL0     N39065   8.487  11.966   9.378 -0.2382  0.7304 -0.0893
  290MOL0     N39066   8.408  11.931   9.474 -0.5372 -0.2038  0.5660
  290MOL0     C39067   7.569  11.217   8.733  0.1672  1.1265 -0.3055
  290MOL0     C39068   7.486  11.114   8.683  0.1957  1.0210  1.0211
  290MOL0     C39069   7.369  10.691   8.546  0.3433 -0.4213 -0.3144
  290MOL0     C39070   7.329  10.625   8.668  0.2253  0.3055  0.2546
  290MOL0     C39071   7.293  10.486   8.675  1.0877  0.3590 -0.6527
  290MOL0     C39072   7.276  10.414   8.555  0.5235  0.3210 -0.4713
  290MOL0     O39073   7.212  10.295   8.582  0.3413 -0.6268  0.3262
  290MOL0     C39074   7.254  10.184   8.509  0.2834  0.9623 -0.4949
  290MOL0     C39075   7.163  10.149   8.400 -0.3409 -0.6834 -0.1730
  290MOL0     C39076   7.019  10.130   8.440 -0.3986  0.0828 -0.7676
  290MOL0     C39077   6.925  10.080   8.327  0.0449  0.1440 -1.2548
  290MOL0     C39078   6.910  10.183   8.228 -0.3251  0.5996 -0.6051
  290MOL0     C39079   6.924  10.270   8.153 -0.1858 -0.2916 -0.6572
  290MOL0     C39080   7.301  10.482   8.443  0.5374  0.4108  0.2170
  290MOL0     C39081   7.348  10.614   8.427 -0.5460  0.2661 -0.9760
  290MOL0     C39082   7.354  10.673   8.291 -0.4082 -0.6616 -0.7481
  290MOL0     H39083   7.625  10.841   8.827  1.1806  0.6805  1.2426
  290MOL0     H39084   7.790  11.031   8.887  0.8533  2.6657 -2.2371
  290MOL0     H39085   7.787  11.219   9.046 -0.4188 -1.5392 -1.8668
  290MOL0     H39086   7.940  11.202   8.965  0.9043  0.9830 -0.9560
  290MOL0     H39087   7.790  11.457   9.026 -0.0466  1.1080 -2.3621
  290MOL0     H39088   7.953  11.441   8.938  2.1611  0.4714  2.1374
  290MOL0     H39089   8.048  11.338   9.135  0.1033 -0.7408 -0.4099
  290MOL0     H39090   7.906  11.362   9.233 -1.0601 -0.5124 -1.2424
  290MOL0     H39091   8.114  11.553   9.120 -0.4925  0.8041  2.1080
  290MOL0     H39092   7.957  11.626   9.145 -0.3699  0.2118  0.2462
  290MOL0     H39093   7.956  11.550   9.373 -0.8124 -1.2554 -2.9155
  290MOL0     H39094   8.128  11.520   9.371  2.1128  2.6311 -0.5990
  290MOL0     H39095   8.137  11.753   9.272  2.8261  0.5768  2.5698
  290MOL0     H39096   7.989  11.791   9.356 -2.5591 -1.4240  0.4335
  290MOL0     H39097   8.238  11.687   9.492 -0.6504 -2.0188  0.1439
  290MOL0     H39098   8.087  11.679   9.571  1.4639 -0.6511 -0.7284
  290MOL0     H39099   8.074  11.948   9.500 -1.5363 -1.9906 -2.9690
  290MOL0     H39100   8.198  11.892   9.620 -0.9068  0.9690 -0.8237
  290MOL0     H39101   8.189  11.990   9.242 -0.3772 -0.4297  1.0774
  290MOL0     H39102   8.564  11.959   9.121 -0.3337 -0.4120 -0.6302
  290MOL0     H39103   8.391  11.958   9.060 -0.3125 -0.5213  1.1335
  290MOL0     H39104   8.563  12.191   9.158  0.8243 -1.7801 -1.0355
  290MOL0     H39105   8.534  12.141   8.981  0.2498 -1.8386 -0.2788
  290MOL0     H39106   8.304  12.231   9.167  0.4505  0.8811  0.3976
  290MOL0     H39107   8.305  12.181   8.995  0.1284  0.7812 -1.3716
  290MOL0     H39108   8.294  12.387   8.951 -1.1843 -2.6722  0.0637
  290MOL0     H39109   8.463  12.372   8.954 -0.1707  0.5741 -0.1959
  290MOL0     H39110   8.406  12.668   9.282  2.3157 -3.8066 -0.0152
  290MOL0     H39111   8.215  12.757   9.418 -0.1555  1.4789 -1.6196
  290MOL0     H39112   7.800  12.835   9.547 -0.4952  1.6472 -0.1036
  290MOL0     H39113   7.611  12.953   9.615 -0.9741  0.5173 -0.1581
  290MOL0     H39114   7.435  13.061   9.677 -1.8333  0.1682  0.9846
  290MOL0     H39115   7.462  13.159   9.526  2.9535 -0.9138  2.7794
  290MOL0     H39116   7.216  13.153   9.495  1.4635 -2.5722 -0.6250
  290MOL0     H39117   7.193  13.096   9.669  0.9446 -0.5589  0.8568
  290MOL0     H39118   7.324  13.303   9.758 -0.5900  1.7184  1.4321
  290MOL0     H39119   7.302  13.369   9.607 -1.3783  2.9230  2.7942
  290MOL0     H39120   7.090  13.305   9.802 -1.4859  1.6956  0.0363
  290MOL0     H39121   7.044  13.310   9.628 -0.2219 -1.9533  1.2077
  290MOL0     H39122   7.125  13.523   9.597  0.2593 -1.7719 -0.8989
  290MOL0     H39123   7.198  13.541   9.758  0.1409  1.8807 -1.3624
  290MOL0     H39124   6.899  13.501   9.704 -1.4387  1.9860  1.2172
  290MOL0     H39125   6.987  13.556   9.859 -0.3116  4.3398 -0.6758
  290MOL0     H39126   7.074  13.750   9.718 -0.1934 -0.4727  2.4469
  290MOL0     H39127   6.901  13.754   9.762  1.7050 -2.9883  5.4972
  290MOL0     H39128   6.932  13.831   9.545  2.8769  0.0902  2.1733
  290MOL0     H39129   6.976  13.667   9.486 -2.3453  0.4793 -1.9371
  290MOL0     H39130   7.390  12.846   9.268 -0.8456 -0.9834  0.3167
  290MOL0     H39131   7.592  12.712   9.188 -1.6578  2.1563 -0.1487
  290MOL0     H39132   7.947  12.524   9.170  1.8666 -1.4920 -3.3836
  290MOL0     H39133   8.121  12.424   9.061  1.2491 -0.0556 -1.3234
  290MOL0     H39134   7.550  11.320   8.704 -0.6033  0.5837 -1.8246
  290MOL0     H39135   7.405  11.147   8.620  1.6246  0.0349 -1.4753
  290MOL0     H39136   7.335  10.675   8.765 -0.2674  2.0913 -0.6007
  290MOL0     H39137   7.263  10.433   8.765 -0.3650  0.9772 -0.7554
  290MOL0     H39138   7.258  10.104   8.584  1.8259  0.4751 -1.0644
  290MOL0     H39139   7.354  10.196   8.467  0.7544  2.1283  0.8475
  290MOL0     H39140   7.203  10.065   8.343  1.4466 -0.5116  0.7660
  290MOL0     H39141   7.159  10.232   8.329 -0.6562  1.0404  1.7762
  290MOL0     H39142   6.981  10.222   8.486  1.1227  1.4891 -2.1928
  290MOL0     H39143   7.027  10.048   8.512 -0.5374 -0.3206 -1.2074
  290MOL0     H39144   6.953   9.982   8.285  0.1649 -0.1880 -0.4131
  290MOL0     H39145   6.828  10.061   8.375  0.5831 -1.1706 -0.6567
  290MOL0     H39146   6.928  10.352   8.084 -1.6382  0.7390  0.4275
  290MOL0     H39147   7.280  10.423   8.355 -4.1111  1.0535  0.6811
  290MOL0     H39148   7.339  10.781   8.282  4.9203  0.2916 -1.5435
  290MOL0     H39149   7.455  10.661   8.249 -0.4895 -0.6597 -0.9485
  290MOL0     H39150   7.283  10.626   8.222 -1.5588 -0.8460  0.5290
  291MOL0     O39151   4.400   7.118   6.465 -0.1360  0.6795 -0.4898
  291MOL0     C39152   4.453   7.174   6.371 -0.2677 -0.2101 -1.0214
  291MOL0     O39153   4.514   7.297   6.378  0.2555 -0.2141  0.0216
  291MOL0     C39154   4.540   7.322   6.514  0.5652 -0.7690  0.1912
  291MOL0     C39155   4.465   7.391   6.617  0.5596  0.1567  0.2828
  291MOL0     C39156   4.517   7.395   6.743 -0.1236 -0.8791  0.2555
  291MOL0     C39157   4.642   7.363   6.774  0.6448 -0.0036 -0.6266
  291MOL0     O39158   4.703   7.393   6.897  0.1146 -0.6444  0.1127
  291MOL0     C39159   4.752   7.531   6.903 -0.4996  0.9299 -0.3821
  291MOL0     C39160   4.908   7.532   6.899 -0.0844  0.9448 -0.3129
  291MOL0     C39161   4.974   7.660   6.873 -0.2823 -0.2005 -0.1209
  291MOL0     C39162   5.105   7.689   6.945  0.0491  0.4799 -0.1369
  291MOL0     C39163   5.186   7.795   6.863  0.1612  0.4054  0.4826
  291MOL0     C39164   5.330   7.813   6.903  1.2389  0.2096  0.0163
  291MOL0     C39165   5.393   7.950   6.895  0.0467  0.0802  0.3914
  291MOL0     C39166   5.398   8.035   7.014 -0.5443  0.2530  0.1080
  291MOL0     N39167   5.263   8.071   7.066 -0.7949  0.1283 -0.2112
  291MOL0     C39168   5.173   8.154   7.010 -0.2981 -0.0277 -1.3799
  291MOL0     C39169   5.059   8.147   7.084 -0.9245 -0.2610  0.2435
  291MOL0     C39170   4.936   8.236   7.073 -0.8773 -0.2173 -0.1655
  291MOL0     C39171   4.824   8.132   7.094 -0.2376 -0.5383 -0.4634
  291MOL0     C39172   4.811   8.030   6.979  0.4152  0.0650 -0.0486
  291MOL0     C39173   4.677   7.959   6.995 -0.4585  0.2003  0.1543
  291MOL0     O39174   4.679   7.865   6.887  0.1696 -0.4408  0.4141
  291MOL0     C39175   4.568   7.848   6.805 -0.3021 -0.7235 -0.4131
  291MOL0     C39176   4.434   7.882   6.838 -0.1766 -0.6280  0.0376
  291MOL0     C39177   4.327   7.835   6.756  1.0249 -0.2560 -0.6826
  291MOL0     C39178   4.347   7.764   6.641  0.1236  0.0988  0.6047
  291MOL0     C39179   4.238   7.721   6.542 -0.2318  0.4008 -0.0154
  291MOL0     O39180   4.120   7.786   6.568 -0.4903  0.0610  0.2441
  291MOL0     C39181   4.021   7.752   6.482  0.2950  0.1058  0.3124
  291MOL0     C39182   4.002   7.805   6.356  0.4643 -0.9384  0.4735
  291MOL0     C39183   3.890   7.784   6.280  0.7918 -0.2499 -0.1023
  291MOL0     C39184   3.779   7.727   6.342 -0.3517  0.0074 -0.2633
  291MOL0     O39185   3.669   7.709   6.264 -0.4682 -0.0742 -0.3646
  291MOL0     C39186   3.646   7.577   6.227 -0.2040  0.4881  0.1554
  291MOL0     C39187   3.497   7.570   6.205 -0.4030 -0.0482  0.3070
  291MOL0     C39188   3.434   7.658   6.101  0.5777  0.3030  1.0764
  291MOL0     C39189   3.533   7.690   5.985  0.7249 -0.0459  0.2981
  291MOL0     C39190   3.463   7.802   5.908 -0.4181 -0.4358  0.5915
  291MOL0     C39191   3.492   7.787   5.758  0.3859 -0.1076  0.3812
  291MOL0     C39192   3.435   7.901   5.678 -0.2765 -0.5737  0.2612
  291MOL0     C39193   3.456   7.887   5.517 -0.5078 -0.1009 -0.8361
  291MOL0    Cl39194   3.413   8.032   5.430 -0.1120  0.3057  0.4694
  291MOL0     C39195   3.798   7.675   6.476 -0.1903  0.7096  0.3332
  291MOL0     C39196   3.916   7.682   6.548 -0.8247 -0.7956  0.5778
  291MOL0     O39197   4.251   7.628   6.461  0.5135 -0.0281  0.5400
  291MOL0     C39198   4.478   7.731   6.605  0.2857  0.0144 -0.5007
  291MOL0     C39199   4.587   7.777   6.681 -0.0908  0.2116  0.3945
  291MOL0     N39200   5.084   8.050   7.185  0.1030  0.2763 -2.0157
  291MOL0     N39201   5.208   8.012   7.177 -0.0647 -0.0897 -0.3847
  291MOL0     C39202   4.714   7.300   6.677  0.2763 -0.4484 -1.0476
  291MOL0     C39203   4.662   7.272   6.553  0.2936  0.6492  0.0544
  291MOL0     C39204   4.433   7.117   6.240  0.2198 -0.2131  0.3457
  291MOL0     C39205   4.302   7.072   6.206  0.5320 -0.5337 -0.9984
  291MOL0     C39206   4.276   7.001   6.089 -0.0822  0.1619 -0.6977
  291MOL0     C39207   4.367   6.993   5.987 -0.2962  0.2711 -0.6281
  291MOL0     O39208   4.321   6.935   5.872 -0.7588  0.0633 -0.4002
  291MOL0     C39209   4.412   6.891   5.771 -0.2820  0.4896 -0.3473
  291MOL0     C39210   4.332   6.820   5.661 -0.1424 -0.9846  0.6711
  291MOL0     C39211   4.256   6.694   5.710  0.4495  0.5089  0.3755
  291MOL0     C39212   4.104   6.715   5.682  0.3350  0.4769 -0.0397
  291MOL0     C39213   4.037   6.591   5.700 -0.1494 -0.3471  0.1184
  291MOL0     C39214   3.969   6.494   5.717  0.0936 -0.1990  0.0419
  291MOL0     C39215   4.490   7.047   6.010  0.4328  0.0196 -0.1826
  291MOL0     C39216   4.531   7.108   6.130 -0.4619 -0.1870 -0.0013
  291MOL0     C39217   4.667   7.151   6.157 -0.0332 -0.1443  0.0291
  291MOL0     H39218   4.372   7.438   6.588 -0.0604 -1.2017 -0.0440
  291MOL0     H39219   4.468   7.444   6.826  2.7836 -2.4386  3.1352
  291MOL0     H39220   4.711   7.600   6.828  0.6014  4.6014  2.1433
  291MOL0     H39221   4.732   7.578   7.000  0.7036  0.9929 -0.1503
  291MOL0     H39222   4.938   7.454   6.828 -0.5088  0.3739  0.1226
  291MOL0     H39223   4.935   7.486   6.995  0.4642 -0.7390 -1.2297
  291MOL0     H39224   4.901   7.739   6.895 -0.0908 -0.2031  0.5751
  291MOL0     H39225   4.994   7.661   6.766 -0.6379 -2.2071 -0.2312
  291MOL0     H39226   5.086   7.733   7.043 -0.0575  0.4611 -0.1480
  291MOL0     H39227   5.160   7.597   6.965 -1.3377 -0.1386  1.0311
  291MOL0     H39228   5.181   7.781   6.755  1.7603 -0.5139  0.4994
  291MOL0     H39229   5.129   7.887   6.881 -3.1861 -1.2278 -0.8927
  291MOL0     H39230   5.326   7.795   7.010 -2.9216  3.9560  0.8101
  291MOL0     H39231   5.386   7.738   6.847  1.0038  0.3406 -0.4064
  291MOL0     H39232   5.360   8.003   6.805  2.1411 -1.9077 -1.6557
  291MOL0     H39233   5.498   7.929   6.872  0.1950  0.2474  0.8847
  291MOL0     H39234   5.466   7.979   7.079 -0.7698 -0.3987 -0.2017
  291MOL0     H39235   5.450   8.125   6.981  1.4965 -0.5967  0.8628
  291MOL0     H39236   5.185   8.204   6.914 -1.6753 -0.3272 -1.7284
  291MOL0     H39237   4.935   8.314   7.149 -3.3228 -0.5485  0.1922
  291MOL0     H39238   4.920   8.286   6.977 -0.5713 -0.4226 -0.3258
  291MOL0     H39239   4.836   8.071   7.184  2.3239  1.4102  0.6388
  291MOL0     H39240   4.737   8.198   7.094 -0.5820 -0.9763 -1.5216
  291MOL0     H39241   4.901   7.969   6.976  0.5864  0.2043  1.3341
  291MOL0     H39242   4.823   8.085   6.885  2.6117  0.0438  0.1734
  291MOL0     H39243   4.590   8.025   6.983  0.0572  0.5263 -2.4795
  291MOL0     H39244   4.676   7.906   7.090 -1.3749 -0.1466 -0.0428
  291MOL0     H39245   4.402   7.943   6.922  2.8511 -0.8767  1.4991
  291MOL0     H39246   4.229   7.881   6.768  2.4681  3.5407 -1.9365
  291MOL0     H39247   4.069   7.883   6.322  1.5396 -1.7981  0.5476
  291MOL0     H39248   3.882   7.834   6.184  1.1633 -0.2716 -0.1483
  291MOL0     H39249   3.706   7.540   6.143  0.9971  1.8065  0.3895
  291MOL0     H39250   3.655   7.514   6.316 -2.0258  2.5930  1.9633
  291MOL0     H39251   3.479   7.464   6.185 -0.5910  0.0291  0.0574
  291MOL0     H39252   3.456   7.590   6.304 -1.4343  0.6761 -0.2575
  291MOL0     H39253   3.344   7.611   6.059  0.2712  1.2812  0.6036
  291MOL0     H39254   3.412   7.754   6.147  0.5269  1.4870 -1.2662
  291MOL0     H39255   3.559   7.602   5.925 -0.2659  0.4310 -0.8736
  291MOL0     H39256   3.630   7.729   6.019  0.8225 -0.0636  0.0464
  291MOL0     H39257   3.506   7.894   5.949  0.9965 -2.0173  2.8959
  291MOL0     H39258   3.354   7.796   5.916 -0.4658 -1.9266 -0.6854
  291MOL0     H39259   3.598   7.783   5.732 -0.2749 -2.1272 -2.4388
  291MOL0     H39260   3.444   7.691   5.739 -0.8266  0.1944  1.7581
  291MOL0     H39261   3.485   7.990   5.717  0.6940 -1.2882  0.7085
  291MOL0     H39262   3.327   7.905   5.695 -0.3708 -0.3627 -0.3696
  291MOL0     H39263   3.563   7.870   5.505 -0.6204 -1.1108 -0.5370
  291MOL0     H39264   3.406   7.798   5.477  0.3197 -0.0175 -2.1199
  291MOL0     H39265   3.710   7.633   6.525 -1.1940 -0.5052 -2.3198
  291MOL0     H39266   3.928   7.634   6.644 -3.8237 -2.3675  0.2766
  291MOL0     H39267   4.504   7.656   6.531 -0.1811  0.0320 -0.6868
  291MOL0     H39268   4.692   7.761   6.659 -0.0445  1.6420 -0.6002
  291MOL0     H39269   4.819   7.288   6.700  0.3658 -1.8334 -2.0646
  291MOL0     H39270   4.716   7.218   6.476  1.2569  0.5483  0.7818
  291MOL0     H39271   4.221   7.078   6.277  0.3580  1.5272 -1.3229
  291MOL0     H39272   4.174   6.974   6.065 -0.5503  1.1329  0.1271
  291MOL0     H39273   4.495   6.830   5.807 -0.1816  0.6720 -0.2655
  291MOL0     H39274   4.458   6.978   5.723  0.8281 -0.0569 -0.3114
  291MOL0     H39275   4.384   6.788   5.571  0.2900  1.0985  0.1232
  291MOL0     H39276   4.257   6.886   5.616 -1.2692 -3.0081 -0.5070
  291MOL0     H39277   4.266   6.688   5.819 -2.8703  0.3655  0.7849
  291MOL0     H39278   4.283   6.601   5.661  1.6412  1.9926 -1.9856
  291MOL0     H39279   4.072   6.780   5.765 -0.0867 -1.3703  1.2996
  291MOL0     H39280   4.078   6.753   5.583 -3.5596  1.0081  1.0283
  291MOL0     H39281   3.904   6.410   5.732 -1.0633 -0.2904 -4.2438
  291MOL0     H39282   4.566   7.036   5.933  1.6350  0.5730  0.8978
  291MOL0     H39283   4.714   7.078   6.223 -0.5279  0.6143  1.2515
  291MOL0     H39284   4.732   7.165   6.070  1.6653 -2.5189  0.8120
  291MOL0     H39285   4.675   7.247   6.208  2.3357 -0.1026 -0.3115
  292MOL0     O39286   8.174   3.508   9.588 -0.3938 -0.7744 -0.8927
  292MOL0     C39287   8.133   3.476   9.481  0.0470  0.9624  0.3720
  292MOL0     O39288   8.145   3.346   9.421  0.0400  0.7964 -0.2991
  292MOL0     C39289   8.246   3.270   9.468 -0.5021  0.9110 -0.5992
  292MOL0     C39290   8.232   3.139   9.508  0.7473  0.4695 -0.7046
  292MOL0     C39291   8.341   3.058   9.547 -0.9016 -0.7025  0.8265
  292MOL0     C39292   8.473   3.113   9.557 -1.2112 -0.6415  1.0141
  292MOL0     O39293   8.578   3.050   9.610 -0.4443  0.4648 -0.1626
  292MOL0     C39294   8.574   2.916   9.631 -0.1759 -0.0806 -0.1632
  292MOL0     C39295   8.708   2.856   9.676  0.2500 -0.3130 -0.4599
  292MOL0     C39296   8.758   2.934   9.796  0.3673 -0.1867  0.1099
  292MOL0     C39297   8.817   2.851   9.916  0.6269  0.3621  0.8335
  292MOL0     C39298   8.868   2.936  10.023  0.6614  0.6796  0.6392
  292MOL0     C39299   8.910   2.859  10.154  0.2089 -1.0906  0.7936
  292MOL0     C39300   8.820   2.744  10.205  0.7381  0.2685 -0.8295
  292MOL0     C39301   8.742   2.770  10.328  0.8366  0.1922  0.0658
  292MOL0     N39302   8.619   2.839  10.287  0.7820 -1.3169 -0.3687
  292MOL0     C39303   8.582   2.972  10.285  1.1691 -0.1786  0.2481
  292MOL0     C39304   8.447   2.971  10.291  0.4361  0.2050 -0.3463
  292MOL0     C39305   8.347   3.097  10.295  0.2426 -0.4474  0.4993
  292MOL0     C39306   8.396   3.183  10.408  0.0298  0.1017 -0.3342
  292MOL0     C39307   8.414   3.123  10.544  0.0475 -0.3741 -0.2768
  292MOL0     C39308   8.302   3.020  10.586 -0.2387  0.5279 -0.8646
  292MOL0     O39309   8.174   3.072  10.593 -0.1974  0.1191  0.4473
  292MOL0     C39310   8.086   3.054  10.694 -0.0646  0.0253  0.4381
  292MOL0     C39311   7.949   3.054  10.656  0.1039 -0.1565  0.0735
  292MOL0     C39312   7.853   3.051  10.749  0.7167 -0.2174 -0.3506
  292MOL0     C39313   7.886   3.034  10.887 -0.7041  0.8686 -0.3597
  292MOL0     C39314   7.776   3.017  10.988  0.6059 -0.2215 -0.6444
  292MOL0     O39315   7.812   3.006  11.126  0.6136 -1.0240 -0.5118
  292MOL0     C39316   7.710   3.011  11.222  0.3926  0.1568 -0.1919
  292MOL0     C39317   7.730   2.926  11.327  0.4928 -0.7292 -1.0557
  292MOL0     C39318   7.639   2.930  11.433  0.2719 -0.3687 -0.6685
  292MOL0     C39319   7.551   3.038  11.452 -0.4402  1.3008 -0.5412
  292MOL0     O39320   7.485   3.031  11.571 -0.5229 -0.6099 -0.6349
  292MOL0     C39321   7.421   3.159  11.602  0.9501 -0.8103  0.8723
  292MOL0     C39322   7.266   3.135  11.587 -0.3242  0.2004  0.1890
  292MOL0     C39323   7.190   3.279  11.599  0.1584 -0.6162  0.0483
  292MOL0     C39324   7.044   3.267  11.646  0.5244  0.0604  0.0415
  292MOL0     C39325   7.033   3.248  11.801 -1.5166 -0.3363 -0.0114
  292MOL0     C39326   6.896   3.223  11.844 -0.5539  0.2045 -0.4867
  292MOL0     C39327   6.798   3.333  11.815  0.4766  0.1524  0.7131
  292MOL0     C39328   6.657   3.306  11.873  0.4294 -0.1573  1.4323
  292MOL0    Cl39329   6.541   3.448  11.813  0.3273  0.2262  0.0390
  292MOL0     C39330   7.529   3.123  11.343 -0.1986 -0.5112 -0.4488
  292MOL0     C39331   7.619   3.111  11.232  1.0118 -0.0128  0.1598
  292MOL0     O39332   7.663   2.996  10.945 -0.3664 -0.5663  0.0609
  292MOL0     C39333   8.022   3.017  10.920 -0.2825 -0.3472  0.4613
  292MOL0     C39334   8.120   3.036  10.828  0.2019 -0.1957  0.6431
  292MOL0     N39335   8.403   2.840  10.272 -0.1501 -0.6995  0.1884
  292MOL0     N39336   8.502   2.767  10.263  0.1981 -0.4366 -0.0793
  292MOL0     C39337   8.489   3.253   9.530  0.1014  0.3569 -0.4255
  292MOL0     C39338   8.378   3.323   9.484  0.2571  0.4008  0.0727
  292MOL0     C39339   8.046   3.567   9.392 -0.5956 -0.4078 -0.3007
  292MOL0     C39340   8.022   3.523   9.262 -0.0605 -0.8732  0.8588
  292MOL0     C39341   7.948   3.601   9.171  0.0906 -0.1601  0.9486
  292MOL0     C39342   7.895   3.721   9.215  0.3014  0.2576  0.1367
  292MOL0     O39343   7.806   3.780   9.130  0.3656  0.3851 -0.5349
  292MOL0     C39344   7.724   3.884   9.187 -0.1467 -0.0016  0.1724
  292MOL0     C39345   7.610   3.914   9.099  0.0608 -0.6612  0.6509
  292MOL0     C39346   7.522   4.032   9.142  0.7965  0.5719 -0.4545
  292MOL0     C39347   7.448   3.996   9.278 -0.7222 -1.4832  0.1547
  292MOL0     C39348   7.319   4.069   9.291 -0.0841 -0.5055  0.3823
  292MOL0     C39349   7.217   4.137   9.298  0.1282  0.5558  1.2177
  292MOL0     C39350   7.929   3.769   9.343  0.0332  0.0245 -0.1844
  292MOL0     C39351   8.000   3.692   9.437  0.4562 -0.3770 -0.1712
  292MOL0     C39352   8.021   3.755   9.573  0.2015 -0.0066 -0.5867
  292MOL0     H39353   8.137   3.086   9.503  2.0500 -3.0701  4.1511
  292MOL0     H39354   8.313   2.956   9.567 -0.6406 -0.5924  1.8408
  292MOL0     H39355   8.505   2.895   9.714 -0.6917  1.9520 -0.0322
  292MOL0     H39356   8.533   2.873   9.539 -3.4187 -1.4051  1.7244
  292MOL0     H39357   8.787   2.852   9.600  1.5882  0.7948  0.8126
  292MOL0     H39358   8.701   2.750   9.701  1.5386 -0.8138 -2.0390
  292MOL0     H39359   8.677   2.993   9.841 -1.4822 -0.1142 -3.0047
  292MOL0     H39360   8.835   3.006   9.767  2.2626 -1.1325  2.5117
  292MOL0     H39361   8.728   2.800   9.955 -2.4839  4.0942 -0.6746
  292MOL0     H39362   8.896   2.787   9.875 -1.2763 -2.9741  2.0264
  292MOL0     H39363   8.949   2.994   9.977 -2.1152  3.6103 -0.9622
  292MOL0     H39364   8.784   3.003  10.045  0.0871  0.1641  0.0711
  292MOL0     H39365   9.001   2.807  10.123  2.0973  1.3758  1.8133
  292MOL0     H39366   8.948   2.929  10.229 -0.5476  0.3163 -0.1062
  292MOL0     H39367   8.886   2.660  10.231  0.9499  0.8530  0.6727
  292MOL0     H39368   8.759   2.695  10.129 -0.8138 -1.0397  1.1306
  292MOL0     H39369   8.713   2.677  10.376  0.0404  1.1373  1.4968
  292MOL0     H39370   8.788   2.831  10.406 -0.4645  1.8898 -0.4088
  292MOL0     H39371   8.652   3.052  10.305 -0.6682  2.2132 -2.0391
  292MOL0     H39372   8.357   3.154  10.202 -2.1728  2.7461  2.0299
  292MOL0     H39373   8.250   3.054  10.323 -0.2004  1.4521  2.0861
  292MOL0     H39374   8.499   3.217  10.393  0.9327 -1.7055  1.3179
  292MOL0     H39375   8.315   3.256  10.408 -0.9745 -0.9637 -0.9450
  292MOL0     H39376   8.414   3.205  10.616  0.4793 -0.8337  0.2557
  292MOL0     H39377   8.515   3.085  10.556  1.0873  2.2011 -0.2036
  292MOL0     H39378   8.321   2.981  10.687  0.7853  4.5996  0.7333
  292MOL0     H39379   8.301   2.935  10.517 -3.1327 -0.3334  0.0735
  292MOL0     H39380   7.924   3.069  10.552  0.6589  3.4910  0.3251
  292MOL0     H39381   7.748   3.058  10.725  0.4780 -2.2068 -0.0067
  292MOL0     H39382   7.816   2.862  11.333  1.5964  0.7777  4.5780
  292MOL0     H39383   7.644   2.864  11.519  0.5781  0.8553  0.2953
  292MOL0     H39384   7.448   3.191  11.703  0.2051 -2.6393  1.7058
  292MOL0     H39385   7.438   3.246  11.539  0.5987 -2.6441 -1.9345
  292MOL0     H39386   7.245   3.084  11.492 -2.1350 -0.7864  1.0785
  292MOL0     H39387   7.233   3.061  11.660 -1.8083 -0.8593 -1.4877
  292MOL0     H39388   7.247   3.335  11.674 -3.1873  2.3541  0.6287
  292MOL0     H39389   7.194   3.337  11.506 -1.3876  3.2317  2.1615
  292MOL0     H39390   7.011   3.173  11.601  0.9656  1.2448 -2.9152
  292MOL0     H39391   6.987   3.350  11.604 -1.2843 -1.8015 -1.3506
  292MOL0     H39392   7.066   3.341  11.848 -0.7355 -0.5914 -0.0424
  292MOL0     H39393   7.088   3.160  11.833 -0.5551  0.6938  1.2966
  292MOL0     H39394   6.858   3.129  11.802  2.5549 -2.0180  1.2831
  292MOL0     H39395   6.891   3.211  11.952 -2.6254  1.2042 -0.4081
  292MOL0     H39396   6.789   3.337  11.706 -3.3710 -3.3420  0.6699
  292MOL0     H39397   6.841   3.427  11.852  1.7842 -0.6923  1.3902
  292MOL0     H39398   6.621   3.210  11.835  1.5791 -1.3733  3.3018
  292MOL0     H39399   6.670   3.308  11.981 -1.0640 -0.4949  1.6414
  292MOL0     H39400   7.449   3.194  11.359 -1.1993 -2.0794  2.0346
  292MOL0     H39401   7.609   3.189  11.158 -0.1815  1.7028  2.0155
  292MOL0     H39402   8.043   3.001  11.025 -1.7431 -3.9816  0.3337
  292MOL0     H39403   8.224   3.040  10.861 -0.4783  0.3931  2.8916
  292MOL0     H39404   8.590   3.289   9.549  0.1097 -0.1203  0.4794
  292MOL0     H39405   8.386   3.431   9.475 -2.6666  0.8335  1.3817
  292MOL0     H39406   8.052   3.432   9.211 -3.1250 -1.0775 -0.8262
  292MOL0     H39407   7.927   3.560   9.072  2.8244  0.4536  0.0301
  292MOL0     H39408   7.788   3.972   9.197 -0.4149  0.1036  1.0345
  292MOL0     H39409   7.695   3.847   9.285  2.4794 -1.3903  0.5072
  292MOL0     H39410   7.547   3.825   9.093 -1.2884  0.3002  0.1525
  292MOL0     H39411   7.642   3.942   8.998 -0.1701  0.3704  0.8611
  292MOL0     H39412   7.445   4.042   9.065  0.2975  0.3497  0.0026
  292MOL0     H39413   7.581   4.123   9.154  0.8745  0.1675  5.7370
  292MOL0     H39414   7.428   3.889   9.278  1.8682 -2.0506 -1.5644
  292MOL0     H39415   7.515   4.015   9.362  0.6422 -2.0114 -0.7782
  292MOL0     H39416   7.129   4.185   9.335  0.8714  2.9733  0.0645
  292MOL0     H39417   7.903   3.870   9.373 -0.5055  0.0873 -0.8408
  292MOL0     H39418   8.018   3.679   9.652 -0.8457 -1.4757 -1.9819
  292MOL0     H39419   8.117   3.809   9.572  0.1653  0.1104 -2.5002
  292MOL0     H39420   7.947   3.832   9.594  1.8972  2.5082 -3.0517
  293MOL0     O39421   4.584   8.298   6.882  0.6203 -0.4972 -0.4207
  293MOL0     C39422   4.573   8.339   6.767  0.7490  0.1635  0.2493
  293MOL0     O39423   4.673   8.363   6.682  0.0574 -1.2856 -0.4913
  293MOL0     C39424   4.779   8.437   6.734  0.5456 -0.7564 -0.7136
  293MOL0     C39425   4.774   8.528   6.848 -0.6820 -0.3627  0.3250
  293MOL0     C39426   4.891   8.601   6.890 -0.2374 -0.1456  0.0921
  293MOL0     C39427   5.016   8.568   6.836 -0.1636  0.0054  1.0637
  293MOL0     O39428   5.139   8.623   6.869  0.3788 -0.2683 -0.2047
  293MOL0     C39429   5.146   8.684   7.002 -0.5635 -0.1438  0.6622
  293MOL0     C39430   5.106   8.598   7.128 -1.2586  0.1218 -0.2285
  293MOL0     C39431   5.197   8.478   7.162  0.9061 -0.2053  0.1882
  293MOL0     C39432   5.328   8.503   7.223  0.6065  1.1844  0.6239
  293MOL0     C39433   5.404   8.375   7.213  0.5116  0.4329 -0.3841
  293MOL0     C39434   5.359   8.277   7.321 -0.3512 -0.0663 -0.1530
  293MOL0     C39435   5.473   8.180   7.361 -0.1593 -0.0904  0.6744
  293MOL0     C39436   5.428   8.051   7.433  0.7925 -0.9254 -0.3448
  293MOL0     N39437   5.379   8.083   7.575 -0.3138  0.3603  0.4935
  293MOL0     C39438   5.258   8.126   7.594 -0.4942 -0.8454 -0.3996
  293MOL0     C39439   5.232   8.111   7.721  0.8658 -0.8699 -0.3978
  293MOL0     C39440   5.109   8.118   7.805 -0.3515 -0.2983  0.2086
  293MOL0     C39441   4.978   8.146   7.715 -1.0831  0.4917  0.0608
  293MOL0     C39442   4.917   8.025   7.661  0.4727  0.0905 -0.4183
  293MOL0     C39443   4.803   8.050   7.557  0.4525 -0.0202 -0.4168
  293MOL0     O39444   4.731   7.932   7.541  0.3012 -0.0712 -0.8352
  293MOL0     C39445   4.633   7.926   7.442 -0.1095  0.7603 -0.3871
  293MOL0     C39446   4.566   8.037   7.392  0.6357  0.2323  0.3798
  293MOL0     C39447   4.459   8.028   7.302 -0.1836  0.5591  0.1403
  293MOL0     C39448   4.422   7.890   7.255 -0.3065  0.3591  0.0780
  293MOL0     C39449   4.311   7.872   7.160  0.0132  0.5714 -0.0896
  293MOL0     O39450   4.275   7.741   7.143 -0.9311  0.1302  0.3561
  293MOL0     C39451   4.168   7.705   7.058 -0.0234 -0.2193  0.3547
  293MOL0     C39452   4.186   7.581   6.987 -0.1310  0.4568 -0.1253
  293MOL0     C39453   4.084   7.530   6.909  0.0355  0.1890  0.1186
  293MOL0     C39454   3.965   7.599   6.901  0.4504  0.1923 -0.5339
  293MOL0     O39455   3.851   7.537   6.866  0.4227 -0.0587  0.1817
  293MOL0     C39456   3.840   7.393   6.868  0.1780 -1.1388 -0.2475
  293MOL0     C39457   3.690   7.370   6.897  0.5884 -0.0170  0.4563
  293MOL0     C39458   3.600   7.401   6.773 -0.0372  0.2920 -0.7276
  293MOL0     C39459   3.449   7.406   6.813 -0.6903  0.7629  0.0060
  293MOL0     C39460   3.358   7.499   6.734  0.3589 -0.4932 -0.3552
  293MOL0     C39461   3.354   7.477   6.575 -0.2220  0.3092 -0.8662
  293MOL0     C39462   3.287   7.343   6.548  0.5243 -0.1460 -0.5988
  293MOL0     C39463   3.258   7.333   6.395 -0.5220 -0.4013 -0.0985
  293MOL0    Cl39464   3.136   7.465   6.355 -0.1221 -0.0128  0.1503
  293MOL0     C39465   3.949   7.721   6.972 -0.3060 -0.1017  0.2713
  293MOL0     C39466   4.049   7.782   7.041  0.0231  0.0652 -0.4758
  293MOL0     O39467   4.259   7.975   7.121 -0.1539 -0.0522 -0.1651
  293MOL0     C39468   4.508   7.774   7.285 -1.3099  0.0271 -0.1659
  293MOL0     C39469   4.600   7.798   7.391 -0.7066  0.7121 -0.3212
  293MOL0     N39470   5.352   8.079   7.785 -0.2653 -0.6567  0.2848
  293MOL0     N39471   5.444   8.068   7.695 -0.7484  0.3120 -1.0986
  293MOL0     C39472   5.017   8.490   6.719  0.3098  0.4085  0.4296
  293MOL0     C39473   4.903   8.426   6.670  0.5506 -0.4476  0.6995
  293MOL0     C39474   4.427   8.347   6.723  0.1090  0.3484 -1.0506
  293MOL0     C39475   4.335   8.254   6.786 -0.4887  0.1691 -0.7889
  293MOL0     C39476   4.203   8.255   6.730 -1.1321 -0.0926  0.1278
  293MOL0     C39477   4.166   8.335   6.623 -1.0551 -0.5088  1.0943
  293MOL0     O39478   4.060   8.307   6.544 -0.5613  0.1529 -0.5394
  293MOL0     C39479   3.942   8.250   6.607  0.8726 -0.7691  0.2326
  293MOL0     C39480   3.860   8.356   6.671 -0.1195  0.0420  0.2900
  293MOL0     C39481   3.820   8.453   6.554  0.0546  0.9749 -0.5516
  293MOL0     C39482   3.732   8.570   6.598  0.7998 -0.5601  0.5609
  293MOL0     C39483   3.676   8.655   6.493 -0.2691 -0.1610  0.2559
  293MOL0     C39484   3.621   8.729   6.414 -0.5219  1.1282  0.0945
  293MOL0     C39485   4.257   8.429   6.576 -0.3684  0.1784  0.3007
  293MOL0     C39486   4.382   8.443   6.633 -0.1942  0.4387  0.1832
  293MOL0     C39487   4.462   8.554   6.572  0.1364 -0.3383  0.3838
  293MOL0     H39488   4.679   8.546   6.898 -1.8753  2.5295 -2.6003
  293MOL0     H39489   4.877   8.676   6.967  2.5317  0.3787  0.2126
  293MOL0     H39490   5.255   8.696   7.003 -0.4633 -0.1711 -1.9355
  293MOL0     H39491   5.086   8.775   6.999 -1.6289 -0.8672 -1.4539
  293MOL0     H39492   5.011   8.555   7.094  0.5410 -1.9447 -3.2304
  293MOL0     H39493   5.094   8.663   7.215  0.0554 -1.4683  1.2133
  293MOL0     H39494   5.200   8.407   7.079 -0.2901  1.2830 -1.1871
  293MOL0     H39495   5.132   8.435   7.239 -0.3739  1.8241  0.3235
  293MOL0     H39496   5.385   8.580   7.170  2.4546  0.0404  0.8305
  293MOL0     H39497   5.340   8.542   7.325  4.6481  0.3922  0.6042
  293MOL0     H39498   5.397   8.323   7.117  1.9872  0.1009 -0.3289
  293MOL0     H39499   5.509   8.385   7.239  0.5128 -0.7220  0.1277
  293MOL0     H39500   5.351   8.326   7.418 -0.9585 -0.6608  0.1072
  293MOL0     H39501   5.261   8.231   7.302 -1.1560  0.1029  2.9526
  293MOL0     H39502   5.551   8.225   7.423  3.0970 -2.6203 -1.2447
  293MOL0     H39503   5.521   8.144   7.270 -0.1967  0.8832  0.2486
  293MOL0     H39504   5.355   8.002   7.368 -0.2495  4.0804 -3.4953
  293MOL0     H39505   5.512   7.984   7.450 -0.1116 -1.9927  0.0405
  293MOL0     H39506   5.185   8.147   7.517  0.2619 -1.5462 -1.3387
  293MOL0     H39507   5.108   8.024   7.861 -2.0841 -1.2686 -1.3224
  293MOL0     H39508   5.112   8.206   7.870 -1.4097  2.7235 -3.4633
  293MOL0     H39509   4.910   8.201   7.780  1.4185  0.4540  2.9453
  293MOL0     H39510   5.009   8.217   7.637 -0.1210  1.6041  1.3814
  293MOL0     H39511   4.881   7.962   7.743  1.2648  1.8664  1.3696
  293MOL0     H39512   5.008   7.974   7.629  1.5477  0.4306  1.8766
  293MOL0     H39513   4.842   8.071   7.457 -0.7599 -1.2506 -1.1991
  293MOL0     H39514   4.744   8.135   7.591 -1.2971  0.1981 -3.5622
  293MOL0     H39515   4.578   8.134   7.440  2.6753 -0.0347  0.4952
  293MOL0     H39516   4.398   8.112   7.271 -0.9135  0.4806  1.3025
  293MOL0     H39517   4.279   7.527   6.996 -1.0083 -0.7329  2.9756
  293MOL0     H39518   4.102   7.439   6.852  0.6608 -0.5029  1.3799
  293MOL0     H39519   3.855   7.355   6.766 -2.8362 -1.2875 -0.7121
  293MOL0     H39520   3.904   7.354   6.948 -1.1204  0.4382  1.6593
  293MOL0     H39521   3.682   7.264   6.923  0.5787  0.1049  0.9589
  293MOL0     H39522   3.657   7.421   6.988 -1.9423 -1.2151  0.2987
  293MOL0     H39523   3.623   7.504   6.741 -0.2337  0.3002 -0.8460
  293MOL0     H39524   3.624   7.325   6.698  0.9697 -2.9841  2.6222
  293MOL0     H39525   3.445   7.417   6.922  0.9863  0.4545  0.1250
  293MOL0     H39526   3.421   7.303   6.792  3.0031 -0.2228 -0.8803
  293MOL0     H39527   3.377   7.603   6.762 -1.9372  0.7458 -2.8877
  293MOL0     H39528   3.256   7.488   6.772 -0.1403  2.3619 -0.6859
  293MOL0     H39529   3.289   7.556   6.537  1.1973  1.8935 -0.1062
  293MOL0     H39530   3.451   7.484   6.525 -0.6806 -0.1350 -1.8477
  293MOL0     H39531   3.194   7.327   6.603  0.4135 -1.9355 -1.2410
  293MOL0     H39532   3.343   7.256   6.580  2.9679  2.1709  1.9206
  293MOL0     H39533   3.350   7.342   6.336 -1.1943 -0.4643 -1.1931
  293MOL0     H39534   3.216   7.237   6.364  1.7902 -1.8479  1.0251
  293MOL0     H39535   3.856   7.776   6.960 -1.1275 -1.3632  0.6457
  293MOL0     H39536   4.027   7.863   7.110 -0.8755 -0.6506  0.1030
  293MOL0     H39537   4.474   7.675   7.256 -2.9228 -0.2781  2.3407
  293MOL0     H39538   4.640   7.717   7.452 -0.2353  1.4186  0.3248
  293MOL0     H39539   5.106   8.470   6.661  0.8515 -2.3077  2.0034
  293MOL0     H39540   4.927   8.359   6.588 -0.6452 -2.0282  1.5901
  293MOL0     H39541   4.365   8.193   6.870 -0.4424  1.1380 -0.0869
  293MOL0     H39542   4.129   8.185   6.768 -1.6509  0.6407  0.4893
  293MOL0     H39543   3.960   8.172   6.682 -3.2493  1.3103  3.9226
  293MOL0     H39544   3.885   8.205   6.525 -0.3858  0.1483  0.5715
  293MOL0     H39545   3.927   8.404   6.743 -1.9065  0.0204  2.0676
  293MOL0     H39546   3.775   8.309   6.720  0.1823 -1.6895 -0.7598
  293MOL0     H39547   3.766   8.405   6.472  2.5324 -0.9930 -1.1832
  293MOL0     H39548   3.908   8.489   6.500 -0.1960 -0.8142 -2.2702
  293MOL0     H39549   3.648   8.536   6.659 -2.5097 -4.1184 -5.0551
  293MOL0     H39550   3.782   8.642   6.664 -0.7290 -0.1255  1.3010
  293MOL0     H39551   3.581   8.801   6.345  5.5018  5.7739  0.6382
  293MOL0     H39552   4.226   8.488   6.491 -1.5691  2.1640  2.0208
  293MOL0     H39553   4.544   8.584   6.639  0.0044 -1.8267  1.2665
  293MOL0     H39554   4.502   8.535   6.472  1.1169  1.4535  0.3819
  293MOL0     H39555   4.402   8.646   6.570  2.6490  1.4206  0.1132
  294MOL0     O39556   4.475   9.759   9.523 -0.1210  0.1107 -0.3675
  294MOL0     C39557   4.468   9.690   9.421 -0.3035  0.0832  0.7024
  294MOL0     O39558   4.538   9.701   9.303 -0.7970 -0.3406 -0.5244
  294MOL0     C39559   4.655   9.773   9.303 -0.4800  0.3046  0.0257
  294MOL0     C39560   4.675   9.869   9.208 -0.1743  0.4765  0.5070
  294MOL0     C39561   4.778   9.957   9.202 -0.6800 -0.9455 -0.5306
  294MOL0     C39562   4.871   9.954   9.311  0.0406  0.4220  0.4385
  294MOL0     O39563   4.974  10.038   9.314 -0.6387 -0.5305  0.1615
  294MOL0     C39564   4.951  10.169   9.251 -0.4177 -0.2279  0.0990
  294MOL0     C39565   5.037  10.281   9.321 -0.2059  0.5562 -0.1418
  294MOL0     C39566   5.180  10.279   9.270 -0.7885  0.5499  0.3515
  294MOL0     C39567   5.260  10.150   9.309  0.1061 -0.9253 -0.1037
  294MOL0     C39568   5.409  10.138   9.253 -0.5064 -0.4692 -0.1926
  294MOL0     C39569   5.474  10.008   9.315 -0.2041 -0.3156 -0.0827
  294MOL0     C39570   5.613   9.975   9.273 -0.5064 -0.2000 -0.9884
  294MOL0     C39571   5.670   9.853   9.345 -0.3087 -0.0993 -0.0148
  294MOL0     N39572   5.806   9.826   9.294  0.1048  0.4532  0.2252
  294MOL0     C39573   5.852   9.794   9.172 -1.5670 -0.3807  0.0403
  294MOL0     C39574   5.979   9.748   9.191  0.0112  0.2610 -0.5681
  294MOL0     C39575   6.051   9.680   9.084 -1.2150  0.0157  0.5485
  294MOL0     C39576   6.096   9.778   8.972  0.0423  0.8302 -0.3904
  294MOL0     C39577   6.199   9.708   8.875  0.3057  0.2072  0.8642
  294MOL0     C39578   6.334   9.666   8.936  1.1805  0.8904 -0.6748
  294MOL0     O39579   6.378   9.753   9.037 -0.3406  0.6918 -0.1706
  294MOL0     C39580   6.489   9.834   9.019 -0.5754  0.1373 -0.5954
  294MOL0     C39581   6.574   9.857   9.128 -0.5689 -0.5809  0.5191
  294MOL0     C39582   6.691   9.938   9.118  0.5904 -0.3865  0.7628
  294MOL0     C39583   6.716  10.009   8.995 -0.2200  0.3527  0.5716
  294MOL0     C39584   6.820  10.114   8.996 -0.9343  0.2152 -0.7146
  294MOL0     O39585   6.858  10.159   9.111 -1.5155 -0.2718 -0.1674
  294MOL0     C39586   6.951  10.265   9.126  0.0798 -0.0029 -0.5706
  294MOL0     C39587   6.978  10.366   9.033 -0.2227 -0.1429  0.6386
  294MOL0     C39588   7.066  10.468   9.071 -0.3062  0.3242 -1.0497
  294MOL0     C39589   7.147  10.454   9.193  0.3241  0.2088  0.5925
  294MOL0     O39590   7.243  10.544   9.222  0.5568 -0.1571 -0.7738
  294MOL0     C39591   7.385  10.518   9.203 -1.2305 -1.1310  0.0018
  294MOL0     C39592   7.454  10.458   9.323  0.0418  0.4815  0.4166
  294MOL0     C39593   7.598  10.505   9.348 -0.2687  0.4870  0.8143
  294MOL0     C39594   7.631  10.635   9.426 -0.2317 -0.1848 -1.0522
  294MOL0     C39595   7.778  10.691   9.451 -0.0541  1.1046  0.3049
  294MOL0     C39596   7.842  10.583   9.536 -0.1262  0.3134  0.6752
  294MOL0     C39597   7.970  10.641   9.608 -0.1672  0.1345  0.1906
  294MOL0     C39598   8.065  10.522   9.655 -0.5638 -0.3574  0.9314
  294MOL0    Cl39599   8.141  10.586   9.800  0.2383 -0.0544 -0.3158
  294MOL0     C39600   7.117  10.353   9.285  1.0380  0.0293 -0.1556
  294MOL0     C39601   7.023  10.257   9.247 -0.4631 -0.4287  0.2744
  294MOL0     O39602   6.876  10.133   8.890 -0.8587  0.3749  0.8788
  294MOL0     C39603   6.634   9.978   8.882 -0.4836  0.0140  0.4266
  294MOL0     C39604   6.515   9.899   8.896 -0.4859  0.1715  0.0560
  294MOL0     N39605   6.009   9.759   9.322  0.3488 -0.3108 -0.6878
  294MOL0     N39606   5.907   9.809   9.380 -0.2871 -0.4228  0.3658
  294MOL0     C39607   4.864   9.855   9.406  0.8687 -0.2154 -0.4168
  294MOL0     C39608   4.754   9.761   9.401  0.6317 -0.1591  0.0408
  294MOL0     C39609   4.366   9.583   9.405  0.0681 -0.7095  0.7893
  294MOL0     C39610   4.295   9.591   9.285  0.3711  0.2814 -0.1327
  294MOL0     C39611   4.185   9.506   9.268  0.1619 -0.1384  0.1612
  294MOL0     C39612   4.139   9.420   9.364  0.1192 -0.5413 -0.3851
  294MOL0     O39613   4.024   9.348   9.335  0.6483 -0.0705 -0.1875
  294MOL0     C39614   3.986   9.222   9.388  0.4755 -0.9037 -0.9642
  294MOL0     C39615   3.909   9.253   9.512  0.3982  0.1311  0.2427
  294MOL0     C39616   3.839   9.124   9.537 -0.9053  0.3021 -0.1473
  294MOL0     C39617   3.780   9.117   9.674 -0.4476 -0.2291 -0.2347
  294MOL0     C39618   3.636   9.139   9.669 -0.1777 -0.1700 -0.7160
  294MOL0     C39619   3.515   9.155   9.670 -0.2237 -0.1327  0.3929
  294MOL0     C39620   4.213   9.409   9.478 -0.0359 -0.1318  0.3680
  294MOL0     C39621   4.319   9.494   9.504 -0.3419  0.5143  0.1454
  294MOL0     C39622   4.385   9.484   9.641 -0.2125  0.1809  0.2484
  294MOL0     H39623   4.597   9.863   9.132  0.2878 -1.9735  0.1634
  294MOL0     H39624   4.781  10.031   9.123 -2.1057  2.7603  2.6027
  294MOL0     H39625   4.960  10.173   9.142  1.1699 -3.5511 -0.0231
  294MOL0     H39626   4.848  10.200   9.272  0.0868 -0.3736  3.2533
  294MOL0     H39627   5.040  10.249   9.425 -4.1895  0.3684  0.0441
  294MOL0     H39628   4.993  10.377   9.295  0.4070  0.3398 -2.2203
  294MOL0     H39629   5.236  10.365   9.310  3.0477 -0.3960 -2.4076
  294MOL0     H39630   5.194  10.289   9.162  0.2201 -3.3448 -0.0300
  294MOL0     H39631   5.264  10.136   9.418 -1.0614 -1.0430 -0.0682
  294MOL0     H39632   5.210  10.061   9.272  0.8840 -2.1184  1.5652
  294MOL0     H39633   5.407  10.132   9.144  0.3432 -1.9597 -0.1496
  294MOL0     H39634   5.474  10.219   9.286 -0.3072  0.6598 -3.0918
  294MOL0     H39635   5.472  10.031   9.422 -1.8346  2.0058 -0.5402
  294MOL0     H39636   5.406   9.922   9.304  0.4774 -0.6912 -1.5762
  294MOL0     H39637   5.678  10.058   9.306 -1.9501 -0.4958  3.2583
  294MOL0     H39638   5.620   9.950   9.167  0.5523 -2.1621 -0.4979
  294MOL0     H39639   5.667   9.879   9.451 -1.5117 -2.3784  0.5961
  294MOL0     H39640   5.607   9.765   9.325  2.6435 -1.8825 -2.1725
  294MOL0     H39641   5.812   9.809   9.072  2.2863  2.0527 -1.4117
  294MOL0     H39642   6.142   9.634   9.125 -0.0024  0.2096 -1.7570
  294MOL0     H39643   5.998   9.593   9.044  2.1981 -2.7575  1.4817
  294MOL0     H39644   6.009   9.809   8.914  0.7518  0.0697 -1.9301
  294MOL0     H39645   6.139   9.872   9.010  2.1285  1.6574 -4.1704
  294MOL0     H39646   6.226   9.772   8.790 -1.1209 -2.3113 -1.6437
  294MOL0     H39647   6.144   9.629   8.823 -0.9351  3.3006 -2.9994
  294MOL0     H39648   6.402   9.635   8.855 -0.3134  0.6332 -1.8823
  294MOL0     H39649   6.304   9.570   8.980  1.8338 -0.2348 -2.5451
  294MOL0     H39650   6.544   9.814   9.223  1.0905 -0.4124  1.1463
  294MOL0     H39651   6.766   9.958   9.194  0.0963  4.8278  0.2657
  294MOL0     H39652   6.924  10.383   8.940  0.9708 -0.5797 -0.1608
  294MOL0     H39653   7.089  10.555   9.010  4.4861 -0.0395 -0.1347
  294MOL0     H39654   7.405  10.460   9.113  1.7204 -1.5939  0.8419
  294MOL0     H39655   7.431  10.611   9.168 -2.2404 -0.9937 -1.0193
  294MOL0     H39656   7.400  10.505   9.405 -0.7877  1.2581 -0.5491
  294MOL0     H39657   7.449  10.348   9.323  0.7780  0.4411  0.6394
  294MOL0     H39658   7.658  10.420   9.383 -1.1318  0.5554  2.5656
  294MOL0     H39659   7.626  10.527   9.244 -4.1599 -1.0622 -0.7568
  294MOL0     H39660   7.601  10.607   9.527  2.1877 -2.1690 -0.7847
  294MOL0     H39661   7.582  10.724   9.386 -2.8469 -0.7599  0.6426
  294MOL0     H39662   7.772  10.781   9.513 -0.8999 -0.1640  2.1520
  294MOL0     H39663   7.837  10.705   9.360  0.7329 -1.6596  0.2975
  294MOL0     H39664   7.781  10.553   9.622 -1.1634 -0.2834 -0.2354
  294MOL0     H39665   7.850  10.494   9.473  1.2490  2.3897 -2.3471
  294MOL0     H39666   7.934  10.701   9.692 -2.7257 -0.8321 -0.1333
  294MOL0     H39667   8.032  10.702   9.541  1.9408  3.0174  4.3459
  294MOL0     H39668   8.021  10.424   9.676  1.1705 -1.4270 -0.1745
  294MOL0     H39669   8.144  10.505   9.582 -1.7135 -0.1231 -0.4098
  294MOL0     H39670   7.164  10.353   9.383 -3.0954  1.5134  2.0583
  294MOL0     H39671   7.001  10.178   9.318  0.7703  1.0989  2.4428
  294MOL0     H39672   6.661  10.021   8.787 -0.6579 -1.1285 -0.1631
  294MOL0     H39673   6.452   9.877   8.811  0.8706  2.0912 -1.5433
  294MOL0     H39674   4.942   9.854   9.481 -0.6574 -0.8935  1.2383
  294MOL0     H39675   4.748   9.688   9.481 -0.7726  2.1706  2.2282
  294MOL0     H39676   4.316   9.652   9.197 -0.9489 -0.0288 -0.6840
  294MOL0     H39677   4.129   9.512   9.175 -0.3335  3.4995  0.5380
  294MOL0     H39678   4.077   9.172   9.423  1.4311  1.5405  0.2549
  294MOL0     H39679   3.935   9.159   9.315  0.3395 -1.2243 -0.5964
  294MOL0     H39680   3.829   9.323   9.489 -1.7914 -2.4586 -0.4812
  294MOL0     H39681   3.955   9.296   9.602 -2.5736  3.3431  0.4286
  294MOL0     H39682   3.914   9.045   9.539  0.8659  1.7795 -2.4871
  294MOL0     H39683   3.765   9.105   9.458 -0.2710 -0.1970 -0.6288
  294MOL0     H39684   3.804   9.016   9.707  2.4107 -0.2899 -2.1829
  294MOL0     H39685   3.828   9.179   9.751  2.1981 -0.1743 -1.8315
  294MOL0     H39686   3.410   9.161   9.693  0.1572  0.0600  2.1893
  294MOL0     H39687   4.185   9.332   9.550 -0.2694  1.5913  2.2258
  294MOL0     H39688   4.478   9.541   9.642 -0.7270  1.3637  5.2307
  294MOL0     H39689   4.329   9.539   9.718  2.2344  1.7584  1.0279
  294MOL0     H39690   4.415   9.382   9.664  1.3095  0.1277 -1.7324
  295MOL0     O39691   7.879   3.959   4.866 -0.1518 -0.0606 -0.4235
  295MOL0     C39692   7.789   3.880   4.878 -1.0084 -0.3654  0.8774
  295MOL0     O39693   7.687   3.884   4.969  0.0456  0.0936  0.1785
  295MOL0     C39694   7.654   3.997   5.035 -0.9826  0.9003 -0.7970
  295MOL0     C39695   7.683   4.010   5.176 -0.3702  0.0017  0.4685
  295MOL0     C39696   7.650   4.124   5.246  0.7644  0.4695  0.5292
  295MOL0     C39697   7.579   4.226   5.175  0.0523 -0.2878 -0.2657
  295MOL0     O39698   7.519   4.320   5.258 -0.0720  0.4336 -1.0659
  295MOL0     C39699   7.438   4.422   5.208 -0.5701 -0.7346  0.3584
  295MOL0     C39700   7.401   4.525   5.321 -0.4042 -0.5359  0.6582
  295MOL0     C39701   7.364   4.445   5.454  0.0914 -0.5622  0.7877
  295MOL0     C39702   7.335   4.535   5.571  0.0646  0.6647  0.8473
  295MOL0     C39703   7.296   4.469   5.704  0.3481  0.8460  0.2492
  295MOL0     C39704   7.259   4.579   5.803 -0.8119  0.1123  0.4593
  295MOL0     C39705   7.176   4.524   5.923 -0.2114  0.8994 -0.1141
  295MOL0     C39706   7.122   4.610   6.031  0.4935  0.7155 -0.3476
  295MOL0     N39707   7.213   4.715   6.079 -0.4169 -0.5718 -0.2045
  295MOL0     C39708   7.240   4.836   6.017  0.3504 -0.6771  0.3839
  295MOL0     C39709   7.312   4.902   6.111 -0.0625  0.3797  0.2832
  295MOL0     C39710   7.337   5.054   6.127 -0.3762 -0.1279 -0.0975
  295MOL0     C39711   7.199   5.138   6.136  0.6011  0.7785  0.0230
  295MOL0     C39712   7.110   5.077   6.246  0.0603  0.0912  0.5421
  295MOL0     C39713   6.980   5.154   6.262  0.2001  0.1299 -0.3021
  295MOL0     O39714   6.885   5.096   6.352  0.2752  0.3830 -0.4745
  295MOL0     C39715   6.863   4.961   6.339 -0.0229  1.1061 -0.4911
  295MOL0     C39716   6.843   4.904   6.210 -0.4086 -0.9419  0.4213
  295MOL0     C39717   6.826   4.770   6.190 -0.2226 -0.7782 -0.6238
  295MOL0     C39718   6.812   4.686   6.297  0.4565 -0.3601  0.4129
  295MOL0     C39719   6.802   4.542   6.261 -0.5441 -1.0554 -0.5147
  295MOL0     O39720   6.728   4.475   6.349 -0.3150  0.4046  0.0754
  295MOL0     C39721   6.697   4.351   6.302 -0.1769 -0.8136 -0.0997
  295MOL0     C39722   6.571   4.339   6.236 -0.2909  0.6728 -0.0484
  295MOL0     C39723   6.525   4.219   6.188  0.5929 -0.6003  0.0814
  295MOL0     C39724   6.598   4.107   6.213 -0.6726  0.5949 -0.3267
  295MOL0     O39725   6.548   3.989   6.157  0.1443 -0.2017  0.0243
  295MOL0     C39726   6.623   3.869   6.168  0.4718 -0.5160 -0.3980
  295MOL0     C39727   6.570   3.753   6.085 -0.1278 -0.3591 -0.0481
  295MOL0     C39728   6.504   3.772   5.946 -0.7256 -0.0657 -0.1081
  295MOL0     C39729   6.473   3.635   5.892 -0.2117  0.3617  0.2234
  295MOL0     C39730   6.425   3.659   5.750  0.4225  0.7246 -0.3785
  295MOL0     C39731   6.352   3.536   5.691 -0.5361  0.4089 -0.0680
  295MOL0     C39732   6.357   3.533   5.540  0.4102 -0.1841  0.8775
  295MOL0     C39733   6.300   3.394   5.482  0.9738  0.3322  0.1857
  295MOL0    Cl39734   6.123   3.374   5.490 -0.3057  0.6606  0.0029
  295MOL0     C39735   6.727   4.111   6.291 -0.0164 -0.9418  0.0072
  295MOL0     C39736   6.778   4.237   6.321 -0.0685 -0.3986 -0.5431
  295MOL0     O39737   6.881   4.495   6.174 -0.0089  0.8432  0.0333
  295MOL0     C39738   6.826   4.740   6.431 -0.0998  0.6595  0.5751
  295MOL0     C39739   6.871   4.872   6.448  0.6108 -0.2655  0.1925
  295MOL0     N39740   7.336   4.817   6.218 -0.5255  0.0293 -0.6045
  295MOL0     N39741   7.281   4.708   6.200  0.1123 -0.7806  0.2809
  295MOL0     C39742   7.563   4.219   5.038  0.3946 -0.6737 -1.1269
  295MOL0     C39743   7.595   4.110   4.963  0.0556  0.1544  0.3485
  295MOL0     C39744   7.797   3.762   4.780 -0.1405 -0.4572  0.1888
  295MOL0     C39745   7.902   3.761   4.681 -0.7498  0.0907  0.8583
  295MOL0     C39746   7.900   3.663   4.577  0.5276 -0.8435  0.5817
  295MOL0     C39747   7.816   3.558   4.570 -0.1669  0.8648 -0.2989
  295MOL0     O39748   7.815   3.473   4.458  0.5578  0.1542 -0.3027
  295MOL0     C39749   7.829   3.329   4.491  0.1058  0.0387 -0.0235
  295MOL0     C39750   7.697   3.244   4.493 -0.4009 -0.2513 -0.5770
  295MOL0     C39751   7.619   3.244   4.362  0.7468 -0.5426 -1.3074
  295MOL0     C39752   7.703   3.190   4.239  0.5950 -0.1711  0.6676
  295MOL0     C39753   7.801   3.276   4.174  0.0286  0.6329 -0.3071
  295MOL0     C39754   7.891   3.351   4.135  0.0987 -0.1951 -0.9736
  295MOL0     C39755   7.712   3.558   4.661 -0.2502 -0.8886 -0.6361
  295MOL0     C39756   7.706   3.649   4.769 -0.5045  0.5459 -0.5341
  295MOL0     C39757   7.581   3.633   4.856  0.7658 -0.5858  0.1563
  295MOL0     H39758   7.734   3.930   5.228  2.6509  0.9061 -0.8701
  295MOL0     H39759   7.657   4.126   5.355 -0.0653  1.5560  0.5908
  295MOL0     H39760   7.495   4.473   5.129  0.1164 -2.3856 -0.2624
  295MOL0     H39761   7.349   4.372   5.170  1.2838 -3.3302 -0.9094
  295MOL0     H39762   7.324   4.593   5.284  0.0729 -0.1638  0.3425
  295MOL0     H39763   7.488   4.585   5.349 -1.1865  1.2333 -0.5318
  295MOL0     H39764   7.437   4.370   5.486 -1.3983 -2.4508  0.0241
  295MOL0     H39765   7.268   4.399   5.429 -2.0616  2.8474  2.0381
  295MOL0     H39766   7.423   4.597   5.589  2.6212 -2.6462  0.7472
  295MOL0     H39767   7.248   4.596   5.546 -0.4743 -0.5667 -0.3516
  295MOL0     H39768   7.217   4.396   5.686 -0.3583  1.4889  0.6680
  295MOL0     H39769   7.384   4.418   5.743  0.6834  3.0777  2.7410
  295MOL0     H39770   7.350   4.631   5.835 -1.6719  2.5765 -0.8041
  295MOL0     H39771   7.199   4.661   5.763  0.1938  0.3156 -0.7044
  295MOL0     H39772   7.232   4.444   5.973  1.1285  0.6515 -1.9078
  295MOL0     H39773   7.095   4.463   5.883  2.1164 -1.5782 -1.3563
  295MOL0     H39774   7.037   4.666   5.990 -1.1948  0.9128  3.0529
  295MOL0     H39775   7.093   4.544   6.113 -0.7600 -1.7539 -2.6377
  295MOL0     H39776   7.192   4.876   5.928  2.5691  0.2303 -0.4932
  295MOL0     H39777   7.406   5.085   6.205 -3.5018  0.5469  2.6588
  295MOL0     H39778   7.392   5.069   6.034  2.0609 -2.7822  0.7703
  295MOL0     H39779   7.209   5.245   6.152 -0.9335  0.7992  1.0561
  295MOL0     H39780   7.146   5.123   6.042 -1.4121 -1.7786  1.4026
  295MOL0     H39781   7.154   5.086   6.345 -2.0474  4.1210  1.3199
  295MOL0     H39782   7.078   4.974   6.224  1.3654 -0.6488  1.9396
  295MOL0     H39783   6.923   5.164   6.170  0.9950  0.9893 -0.7142
  295MOL0     H39784   6.990   5.260   6.289 -3.2824  0.5503 -0.2086
  295MOL0     H39785   6.835   4.965   6.121 -4.4889 -1.2767  0.3860
  295MOL0     H39786   6.829   4.726   6.091  3.7678  0.4666 -1.2556
  295MOL0     H39787   6.530   4.438   6.217  2.1984  1.7047 -0.5443
  295MOL0     H39788   6.442   4.230   6.119  1.1865 -3.4319 -1.2290
  295MOL0     H39789   6.717   3.894   6.120 -0.8606 -0.5844 -3.2585
  295MOL0     H39790   6.623   3.844   6.274  2.0032  0.4494 -0.1412
  295MOL0     H39791   6.647   3.675   6.081  0.1982 -0.1379  1.4201
  295MOL0     H39792   6.494   3.710   6.152  0.5684  0.5352  1.3488
  295MOL0     H39793   6.412   3.829   5.966  0.1030  0.6947  1.8229
  295MOL0     H39794   6.568   3.826   5.876  0.7397 -0.1479  1.1185
  295MOL0     H39795   6.401   3.587   5.958 -2.4314  2.2803 -0.6558
  295MOL0     H39796   6.558   3.567   5.892  1.5335  2.4105 -0.8603
  295MOL0     H39797   6.515   3.678   5.690  2.2512 -0.5359  1.8120
  295MOL0     H39798   6.360   3.745   5.733  0.2076  0.8195  0.8560
  295MOL0     H39799   6.395   3.443   5.729 -2.7364 -0.3047  0.8769
  295MOL0     H39800   6.249   3.531   5.727 -0.2206  0.1940  0.8379
  295MOL0     H39801   6.462   3.541   5.508 -0.0602 -0.2988 -0.7896
  295MOL0     H39802   6.298   3.611   5.491 -1.7219 -0.5071  2.7767
  295MOL0     H39803   6.331   3.382   5.378  2.3838  0.3217  0.5942
  295MOL0     H39804   6.354   3.308   5.522 -0.3805 -2.4300 -3.3738
  295MOL0     H39805   6.780   4.017   6.308  0.4368 -0.9926 -1.5347
  295MOL0     H39806   6.872   4.257   6.372 -0.5706  2.6439 -0.6637
  295MOL0     H39807   6.822   4.667   6.511  4.1127  0.3190  0.7179
  295MOL0     H39808   6.901   4.911   6.545  0.9727 -2.5916  1.0900
  295MOL0     H39809   7.506   4.302   4.996  1.6735  0.5511 -0.4999
  295MOL0     H39810   7.562   4.104   4.860 -2.4073 -1.1107  1.1380
  295MOL0     H39811   7.980   3.836   4.684 -0.0104 -0.5964 -0.1835
  295MOL0     H39812   7.969   3.663   4.493 -2.9515  1.1568 -2.5686
  295MOL0     H39813   7.873   3.324   4.591  1.2278  1.4257 -0.4107
  295MOL0     H39814   7.903   3.288   4.422  0.5242 -0.7839  0.8929
  295MOL0     H39815   7.630   3.262   4.578 -0.1608 -0.2921 -0.3766
  295MOL0     H39816   7.726   3.142   4.518  1.7255  0.6920  1.1916
  295MOL0     H39817   7.556   3.333   4.356 -2.2075 -2.2810  1.1091
  295MOL0     H39818   7.553   3.159   4.382  1.7859 -0.8804  1.0275
  295MOL0     H39819   7.748   3.095   4.269 -0.8410 -1.0180  0.2291
  295MOL0     H39820   7.642   3.165   4.152  2.8584  2.1677 -1.7774
  295MOL0     H39821   7.978   3.413   4.132 -1.1303  1.8466  1.1706
  295MOL0     H39822   7.636   3.481   4.653 -0.7041 -0.4217 -0.9095
  295MOL0     H39823   7.605   3.643   4.962  1.8094 -1.3495  0.0105
  295MOL0     H39824   7.509   3.705   4.815  0.2210 -2.4891 -2.4503
  295MOL0     H39825   7.529   3.541   4.831 -2.3642  0.7902  1.0867
  296MOL0     O39826   7.662   9.560   3.893  0.7488  0.4745  0.2512
  296MOL0     C39827   7.634   9.599   3.777  0.0417  0.9111  0.2297
  296MOL0     O39828   7.696   9.549   3.663 -0.8885  0.4585  0.1399
  296MOL0     C39829   7.786   9.453   3.683  0.5301  1.1623 -0.7923
  296MOL0     C39830   7.908   9.460   3.748 -0.2820 -0.5924  0.0562
  296MOL0     C39831   7.986   9.344   3.774 -0.6375  0.3181 -0.8593
  296MOL0     C39832   7.947   9.214   3.736  0.9072  0.1234 -0.0950
  296MOL0     O39833   8.031   9.105   3.739 -0.4567 -0.0168  0.3750
  296MOL0     C39834   8.147   9.083   3.811 -0.2163  0.1299 -0.0729
  296MOL0     C39835   8.168   8.932   3.815 -0.6133 -0.9149  0.3299
  296MOL0     C39836   8.296   8.884   3.883 -0.0793  0.2977  0.3946
  296MOL0     C39837   8.412   8.883   3.780 -0.1661  0.6555 -0.4172
  296MOL0     C39838   8.533   8.815   3.837  0.5548  0.2842 -0.8905
  296MOL0     C39839   8.593   8.873   3.971 -0.0436 -0.4397 -0.2173
  296MOL0     C39840   8.734   8.816   3.997  0.4171  1.0609 -0.7629
  296MOL0     C39841   8.805   8.894   4.104  0.1175  0.6419 -0.5283
  296MOL0     N39842   8.936   8.852   4.139 -0.1615 -0.3102 -0.8299
  296MOL0     C39843   9.042   8.853   4.050  0.2685 -0.5439 -0.6428
  296MOL0     C39844   9.147   8.800   4.118  0.7833  0.4454  1.3970
  296MOL0     C39845   9.280   8.766   4.043 -0.5217 -0.3207 -0.5654
  296MOL0     C39846   9.376   8.713   4.148  0.7282 -0.6691  0.1087
  296MOL0     C39847   9.447   8.827   4.221 -0.2078 -0.2807 -0.4628
  296MOL0     C39848   9.577   8.781   4.292  0.7338 -0.2334 -0.1804
  296MOL0     O39849   9.685   8.735   4.210 -0.3875 -1.1542  0.3219
  296MOL0     C39850   9.764   8.828   4.137 -0.7247 -0.6430 -1.1413
  296MOL0     C39851   9.735   8.968   4.134  0.2251  0.2388  0.6178
  296MOL0     C39852   9.812   9.047   4.041  1.0263 -0.5288  1.1258
  296MOL0     C39853   9.920   9.002   3.970 -0.5975  0.9039  0.7097
  296MOL0     C39854  10.008   9.092   3.886 -0.2867  0.3857  0.2245
  296MOL0     O39855  10.138   9.048   3.857  0.4588 -0.2750  0.1825
  296MOL0     C39856  10.220   9.114   3.772  1.0228  0.1603 -0.6263
  296MOL0     C39857  10.175   9.145   3.646 -0.2584 -0.0371  0.0145
  296MOL0     C39858  10.267   9.207   3.558  0.1476  0.6014  0.0331
  296MOL0     C39859  10.394   9.237   3.596  0.7189  0.4212  0.3852
  296MOL0     O39860  10.482   9.273   3.509  0.2640 -0.5970  0.3687
  296MOL0     C39861  10.569   9.172   3.472 -0.0645 -0.3091  0.1647
  296MOL0     C39862  10.640   9.224   3.347 -0.3755 -0.1091  0.1921
  296MOL0     C39863  10.747   9.126   3.307  0.6207 -0.2805 -0.5358
  296MOL0     C39864  10.806   9.167   3.168  0.0079 -0.6194 -1.0481
  296MOL0     C39865  10.921   9.073   3.136  0.7840  0.4941  0.0362
  296MOL0     C39866  11.044   9.122   3.193 -0.0941 -0.3220  0.4141
  296MOL0     C39867  11.164   9.021   3.165  1.1863 -0.1127 -0.1545
  296MOL0     C39868  11.289   9.102   3.149 -0.2055  0.5216 -0.2720
  296MOL0    Cl39869  11.333   9.164   3.310  0.0640  0.0157  0.0326
  296MOL0     C39870  10.438   9.221   3.729  0.4654  0.2780 -0.2114
  296MOL0     C39871  10.352   9.148   3.814 -0.4441 -0.2311 -0.0303
  296MOL0     O39872   9.960   9.199   3.853 -0.4177 -0.5483  0.2033
  296MOL0     C39873   9.958   8.865   3.983 -0.6365 -0.1195 -0.1954
  296MOL0     C39874   9.875   8.781   4.067 -0.4558 -0.0284  0.8264
  296MOL0     N39875   9.101   8.784   4.244 -0.7723 -0.6885  1.3042
  296MOL0     N39876   8.977   8.822   4.260 -0.2443  0.3302 -0.3512
  296MOL0     C39877   7.823   9.205   3.677 -0.9339  0.1559 -0.4804
  296MOL0     C39878   7.745   9.320   3.644  0.0609 -0.3021 -0.7387
  296MOL0     C39879   7.530   9.697   3.748 -0.0911  0.0994  0.9198
  296MOL0     C39880   7.526   9.763   3.626 -0.0600  0.5366 -0.2102
  296MOL0     C39881   7.435   9.875   3.603  0.1950  0.8943 -0.0079
  296MOL0     C39882   7.350   9.916   3.707 -0.0171  0.5562 -0.4612
  296MOL0     O39883   7.263  10.008   3.675 -0.2884 -0.1113  0.3114
  296MOL0     C39884   7.165  10.029   3.778  1.2841  0.2186  0.7325
  296MOL0     C39885   7.084  10.159   3.741  0.8902 -0.7819  0.4833
  296MOL0     C39886   7.144  10.296   3.772  0.4188 -1.0114  0.4795
  296MOL0     C39887   7.116  10.332   3.919  0.2917  0.0719 -0.4509
  296MOL0     C39888   7.192  10.451   3.960 -0.6893  0.2117 -0.0139
  296MOL0     C39889   7.236  10.559   3.994  0.1446 -0.0628  0.5169
  296MOL0     C39890   7.342   9.836   3.824  0.8775 -0.3582  0.8496
  296MOL0     C39891   7.432   9.733   3.848  0.3546 -0.4047 -0.2081
  296MOL0     C39892   7.399   9.648   3.967 -0.0563  0.4931  0.3793
  296MOL0     H39893   7.936   9.559   3.783 -3.2355  0.8310 -1.1759
  296MOL0     H39894   8.077   9.351   3.833 -3.0548  2.5303  3.0348
  296MOL0     H39895   8.231   9.137   3.765  0.7397 -2.0141 -0.9491
  296MOL0     H39896   8.140   9.123   3.913 -1.4001  1.1500 -0.5271
  296MOL0     H39897   8.175   8.892   3.713 -0.2229  0.6838 -0.2937
  296MOL0     H39898   8.081   8.879   3.854 -0.7976 -1.0647 -0.2659
  296MOL0     H39899   8.282   8.782   3.921  3.2659 -0.2373  0.4591
  296MOL0     H39900   8.317   8.945   3.972  1.4137 -0.3683  0.5369
  296MOL0     H39901   8.386   8.829   3.689  0.3691  2.1527 -1.4911
  296MOL0     H39902   8.444   8.984   3.754 -0.9750  0.5691 -1.7941
  296MOL0     H39903   8.508   8.713   3.868  1.6006 -0.3656 -2.0954
  296MOL0     H39904   8.613   8.831   3.764  0.5251  7.7751  0.0019
  296MOL0     H39905   8.598   8.982   3.970  0.3271 -0.4005  1.6398
  296MOL0     H39906   8.529   8.858   4.059  1.2119  2.3534  1.3081
  296MOL0     H39907   8.792   8.803   3.905  2.0893 -1.1285  0.5206
  296MOL0     H39908   8.723   8.715   4.037 -2.3995  1.5019 -0.2244
  296MOL0     H39909   8.819   8.999   4.078 -1.5075  0.9562 -0.2378
  296MOL0     H39910   8.742   8.907   4.192 -2.6114 -0.4539 -2.2082
  296MOL0     H39911   9.030   8.891   3.949  1.1094  2.0150  0.1396
  296MOL0     H39912   9.263   8.686   3.970 -0.3452  2.2067 -3.6004
  296MOL0     H39913   9.295   8.852   3.977 -2.9201  1.1679  0.6641
  296MOL0     H39914   9.321   8.645   4.214  0.1455 -2.7100 -2.2904
  296MOL0     H39915   9.459   8.659   4.101  0.5869 -0.2312 -0.6705
  296MOL0     H39916   9.379   8.867   4.297  0.4137  0.6253 -0.3561
  296MOL0     H39917   9.473   8.913   4.158  1.5173  1.3174  2.1795
  296MOL0     H39918   9.545   8.697   4.354  1.3543 -0.8827 -0.7239
  296MOL0     H39919   9.607   8.853   4.368 -0.9204  0.7451 -0.4067
  296MOL0     H39920   9.644   9.007   4.179 -1.8806 -0.3952 -2.6952
  296MOL0     H39921   9.776   9.148   4.027 -1.6585 -1.2683  2.0311
  296MOL0     H39922  10.075   9.108   3.629 -0.7162  0.6374  1.2006
  296MOL0     H39923  10.247   9.206   3.451  3.5394 -2.2778 -0.7355
  296MOL0     H39924  10.636   9.146   3.554 -3.6673 -3.1536  2.4773
  296MOL0     H39925  10.504   9.088   3.450 -1.1733  0.0472  1.9529
  296MOL0     H39926  10.554   9.233   3.281 -1.8667  0.3517  2.0958
  296MOL0     H39927  10.695   9.318   3.359 -1.1941  0.7424 -2.2951
  296MOL0     H39928  10.829   9.138   3.377  2.1754 -2.1026 -1.9316
  296MOL0     H39929  10.701   9.026   3.312 -0.7481  0.3719  0.6482
  296MOL0     H39930  10.826   9.273   3.154 -0.8173 -0.4736 -1.1826
  296MOL0     H39931  10.734   9.159   3.085  2.1410  1.7686 -3.2929
  296MOL0     H39932  10.919   9.069   3.026  3.7218  3.2432 -0.2742
  296MOL0     H39933  10.900   8.975   3.180 -0.8977  1.2250  0.9439
  296MOL0     H39934  11.071   9.213   3.138 -1.8797  0.2999  0.4893
  296MOL0     H39935  11.040   9.134   3.302 -0.7896  0.1417  0.3434
  296MOL0     H39936  11.150   8.971   3.069 -3.0469  0.8235 -0.1905
  296MOL0     H39937  11.169   8.934   3.231  2.5760  0.3456  0.3788
  296MOL0     H39938  11.366   9.035   3.111 -2.6761 -1.0816 -2.8251
  296MOL0     H39939  11.287   9.178   3.071 -1.2708  1.2548  0.4404
  296MOL0     H39940  10.537   9.249   3.765 -0.5316  3.2859  0.4535
  296MOL0     H39941  10.376   9.109   3.912 -3.6191 -1.8481  0.2235
  296MOL0     H39942  10.046   8.826   3.932 -0.4423  0.2932 -0.1836
  296MOL0     H39943   9.905   8.677   4.079 -0.6300 -0.4880 -2.1337
  296MOL0     H39944   7.785   9.107   3.648  2.9964 -1.6878 -0.0590
  296MOL0     H39945   7.666   9.294   3.575  2.5411  0.3588 -4.1072
  296MOL0     H39946   7.603   9.744   3.552  1.8971  3.0452  1.0181
  296MOL0     H39947   7.425   9.931   3.511 -0.5195  1.9304  0.6778
  296MOL0     H39948   7.207  10.031   3.880 -0.5728 -2.0489  1.6400
  296MOL0     H39949   7.097   9.944   3.780 -1.4890  2.2681 -0.1951
  296MOL0     H39950   6.989  10.164   3.796  1.3688  1.5950  1.1907
  296MOL0     H39951   7.041  10.148   3.641 -1.2470 -1.1858  1.3910
  296MOL0     H39952   7.095  10.378   3.720  2.0896 -0.5131 -0.3929
  296MOL0     H39953   7.252  10.300   3.756  0.6759  0.1260  2.2709
  296MOL0     H39954   7.008  10.333   3.938  0.6051  0.1202  1.5745
  296MOL0     H39955   7.162  10.255   3.982  0.6336 -0.3832 -1.2490
  296MOL0     H39956   7.279  10.657   4.000 -1.4001  0.6529  0.4258
  296MOL0     H39957   7.262   9.835   3.897 -0.0511 -2.8000 -0.0809
  296MOL0     H39958   7.475   9.674   4.041 -1.1349 -0.0437  1.7320
  296MOL0     H39959   7.300   9.658   4.013  1.6389  1.3490  4.2628
  296MOL0     H39960   7.409   9.542   3.939 -6.4790 -1.2895  2.8627
  297MOL0     O39961   4.852   7.867   9.318 -0.0338 -0.1633 -0.2707
  297MOL0     C39962   4.869   7.747   9.299  0.1608 -0.8014 -0.2239
  297MOL0     O39963   4.904   7.689   9.183 -0.0963 -0.1757  0.1217
  297MOL0     C39964   4.820   7.707   9.077 -0.0928  0.9368 -0.0093
  297MOL0     C39965   4.746   7.603   9.024  0.4367  1.1216 -0.2467
  297MOL0     C39966   4.651   7.632   8.925  0.0692 -0.5449 -0.6914
  297MOL0     C39967   4.624   7.763   8.866 -0.3159  0.8094 -0.0436
  297MOL0     O39968   4.549   7.781   8.749  0.2999 -0.0995  0.3271
  297MOL0     C39969   4.598   7.875   8.655  1.2490 -0.1150  0.1946
  297MOL0     C39970   4.539   7.857   8.509 -0.0872 -0.1636  0.4765
  297MOL0     C39971   4.540   7.714   8.463 -0.6505  0.5980 -0.0929
  297MOL0     C39972   4.420   7.632   8.465  0.6028  0.5985  0.3519
  297MOL0     C39973   4.402   7.572   8.326 -0.5020  0.2943 -0.0739
  297MOL0     C39974   4.509   7.468   8.291  0.4524 -0.6574 -0.0264
  297MOL0     C39975   4.474   7.333   8.346  0.2594  0.0041  0.7017
  297MOL0     C39976   4.585   7.229   8.320 -0.0075  0.1980  0.0790
  297MOL0     N39977   4.623   7.219   8.181  0.6826  0.6624  0.3375
  297MOL0     C39978   4.539   7.170   8.079 -0.2381  0.6978  0.2374
  297MOL0     C39979   4.628   7.168   7.973  0.2121  0.9009 -0.8801
  297MOL0     C39980   4.594   7.145   7.832  0.0613  0.8907 -0.2649
  297MOL0     C39981   4.537   7.006   7.812  0.0059 -0.6696 -0.1059
  297MOL0     C39982   4.634   6.884   7.828 -0.5559 -0.6036 -0.6496
  297MOL0     C39983   4.713   6.865   7.698  0.2562  1.0051 -0.5604
  297MOL0     O39984   4.831   6.771   7.721  0.6078  0.4585  0.2521
  297MOL0     C39985   4.808   6.638   7.766 -0.5258  0.1272  1.0599
  297MOL0     C39986   4.700   6.570   7.710  0.2744  0.5077 -0.0210
  297MOL0     C39987   4.678   6.442   7.757  0.1995 -0.1573  0.9138
  297MOL0     C39988   4.767   6.381   7.851  0.2945 -0.6854 -0.3873
  297MOL0     C39989   4.742   6.246   7.908  0.5197  0.2041 -0.2000
  297MOL0     O39990   4.816   6.214   8.008 -1.1909 -0.0111  0.6553
  297MOL0     C39991   4.801   6.099   8.070 -0.4493  0.3791  0.5079
  297MOL0     C39992   4.809   5.979   8.005  0.2279  0.8563  0.4174
  297MOL0     C39993   4.794   5.856   8.067 -0.4525 -0.1533 -0.1509
  297MOL0     C39994   4.757   5.856   8.210 -0.5499 -0.5128 -0.0654
  297MOL0     O39995   4.753   5.735   8.273  0.3626  0.1882  0.2285
  297MOL0     C39996   4.664   5.627   8.236 -0.0555 -0.5612  0.2275
  297MOL0     C39997   4.731   5.501   8.294  0.0682 -0.0195 -0.5143
  297MOL0     C39998   4.822   5.453   8.178 -0.2815 -0.0089  0.4617
  297MOL0     C39999   4.916   5.333   8.227  0.2606  0.0716  0.3271
  297MOL0     C40000   5.007   5.286   8.109 -0.4187  0.7946 -0.3499
  297MOL0     C40001   5.072   5.157   8.129  0.1407  0.6177 -0.2094
  297MOL0     C40002   5.144   5.108   8.012 -0.2155 -0.1588 -0.2697
  297MOL0     C40003   5.252   5.007   8.034 -0.3522 -1.1526 -0.8049
  297MOL0    Cl40004   5.172   4.852   8.075 -0.0703  0.2316  0.1560
  297MOL0     C40005   4.748   5.975   8.278  0.6163 -1.0208  0.5987
  297MOL0     C40006   4.764   6.097   8.212 -0.4869  0.6661 -0.4677
  297MOL0     O40007   4.662   6.174   7.846  0.3235  0.2710 -0.5643
  297MOL0     C40008   4.884   6.455   7.899 -0.0821  0.6161 -0.2311
  297MOL0     C40009   4.897   6.588   7.860 -0.5955 -0.4182  0.6260
  297MOL0     N40010   4.755   7.221   8.008 -0.4666 -0.4133 -0.7479
  297MOL0     N40011   4.733   7.268   8.134 -0.3452 -0.9944  0.5379
  297MOL0     C40012   4.702   7.872   8.926  0.4980  0.4309  0.0471
  297MOL0     C40013   4.788   7.839   9.029  0.1839  1.1542  0.8473
  297MOL0     C40014   4.862   7.672   9.422  0.1909 -0.4739  0.4914
  297MOL0     C40015   4.978   7.600   9.463 -0.0321 -0.7350 -0.4936
  297MOL0     C40016   4.977   7.527   9.583  0.8456  0.1280  0.6949
  297MOL0     C40017   4.864   7.523   9.655  0.2531  0.1566  0.2286
  297MOL0     O40018   4.881   7.440   9.769 -0.2415 -0.2232  0.2504
  297MOL0     C40019   4.762   7.383   9.822  0.5085  0.5294 -0.3389
  297MOL0     C40020   4.812   7.262   9.913 -0.1967 -0.6120 -0.2555
  297MOL0     C40021   4.698   7.241  10.018 -0.2487 -0.6342  0.6238
  297MOL0     C40022   4.746   7.157  10.143 -0.2653 -0.9772 -0.7690
  297MOL0     C40023   4.779   7.029  10.104 -0.0356  0.4376  0.4711
  297MOL0     C40024   4.807   6.914  10.075 -0.3890 -0.5938  0.0636
  297MOL0     C40025   4.749   7.602   9.626 -0.7370 -0.2153  0.3790
  297MOL0     C40026   4.749   7.679   9.508 -0.5452  0.2504 -0.2964
  297MOL0     C40027   4.625   7.755   9.484 -0.1778 -0.3648  0.6526
  297MOL0     H40028   4.745   7.508   9.076 -0.1843  1.3881  0.2579
  297MOL0     H40029   4.591   7.545   8.896 -0.2943 -0.8600  0.9197
  297MOL0     H40030   4.574   7.978   8.683  0.0258 -0.0792 -0.9105
  297MOL0     H40031   4.707   7.866   8.654  1.4195  1.6399 -0.5431
  297MOL0     H40032   4.595   7.920   8.439  1.0598  0.5674  2.0019
  297MOL0     H40033   4.437   7.895   8.499 -0.6913 -1.4252  1.4695
  297MOL0     H40034   4.621   7.662   8.516 -3.1338 -1.3170  2.0888
  297MOL0     H40035   4.584   7.714   8.363 -0.3676 -1.5136 -0.0285
  297MOL0     H40036   4.435   7.542   8.525 -2.5061 -0.1889  0.0904
  297MOL0     H40037   4.334   7.693   8.496  0.8118  1.7088 -1.1474
  297MOL0     H40038   4.306   7.520   8.336 -0.7868  0.3730 -2.0054
  297MOL0     H40039   4.398   7.653   8.253  0.7445  0.7776  0.3698
  297MOL0     H40040   4.527   7.466   8.183  6.1150 -1.2691  0.6617
  297MOL0     H40041   4.601   7.502   8.339 -0.0109 -1.4010  1.4412
  297MOL0     H40042   4.385   7.305   8.288  2.2057  1.2666 -3.2318
  297MOL0     H40043   4.452   7.328   8.453 -0.5680  2.2189  0.7027
  297MOL0     H40044   4.666   7.255   8.388 -1.1691  1.8603  0.9130
  297MOL0     H40045   4.555   7.129   8.354  0.8574 -0.0525  0.1318
  297MOL0     H40046   4.434   7.144   8.085  0.0647 -0.6011  0.1875
  297MOL0     H40047   4.517   7.215   7.796  1.4124  2.4907 -0.1746
  297MOL0     H40048   4.684   7.161   7.772  0.3961 -2.4856 -0.8425
  297MOL0     H40049   4.446   6.986   7.869  0.3217 -2.4255 -0.1627
  297MOL0     H40050   4.491   6.997   7.713  1.7101  0.5135 -1.0361
  297MOL0     H40051   4.580   6.792   7.856 -2.0738  0.1903 -0.8403
  297MOL0     H40052   4.696   6.906   7.915 -1.3091 -4.0367  0.9288
  297MOL0     H40053   4.746   6.960   7.657  0.4837  0.7899 -0.8802
  297MOL0     H40054   4.644   6.833   7.619  1.0955 -2.0035 -0.2038
  297MOL0     H40055   4.634   6.611   7.635 -1.9528  0.8136  1.9996
  297MOL0     H40056   4.603   6.389   7.700 -2.8536  2.5696  2.0940
  297MOL0     H40057   4.822   5.962   7.899  1.4525 -1.5888  0.8978
  297MOL0     H40058   4.803   5.757   8.024 -1.3236 -0.0280 -0.6279
  297MOL0     H40059   4.567   5.648   8.284  0.2601  0.9365  0.2597
  297MOL0     H40060   4.645   5.635   8.129  1.2478 -1.9622 -0.1332
  297MOL0     H40061   4.785   5.541   8.380  3.0625  2.7101 -3.3335
  297MOL0     H40062   4.654   5.429   8.322 -1.0238  0.0007 -3.1595
  297MOL0     H40063   4.758   5.421   8.095  1.8198 -0.8808 -0.9121
  297MOL0     H40064   4.876   5.537   8.134  0.1408 -2.3074 -3.9042
  297MOL0     H40065   4.858   5.242   8.244 -0.1753  0.3364  0.2588
  297MOL0     H40066   4.966   5.356   8.322 -0.4779  1.3517  0.4237
  297MOL0     H40067   5.093   5.353   8.099 -0.9312  1.2825 -1.7744
  297MOL0     H40068   4.955   5.267   8.015  1.7184 -0.0637 -1.4351
  297MOL0     H40069   5.133   5.153   8.220 -0.1707 -0.9110 -0.0301
  297MOL0     H40070   4.994   5.083   8.151  1.7446 -1.2801 -0.5371
  297MOL0     H40071   5.183   5.199   7.966  1.0097  0.7633  2.3906
  297MOL0     H40072   5.076   5.058   7.942  2.5091 -2.7920 -1.2586
  297MOL0     H40073   5.306   4.993   7.940  0.4403 -0.5297 -0.4536
  297MOL0     H40074   5.325   5.035   8.110 -1.5432 -3.0174  1.1491
  297MOL0     H40075   4.739   5.979   8.386  2.1485 -0.0272  0.7283
  297MOL0     H40076   4.752   6.194   8.259 -0.9541  1.0356 -1.3348
  297MOL0     H40077   4.952   6.413   7.972  2.2734  1.3000 -1.9078
  297MOL0     H40078   4.983   6.644   7.895 -0.4763 -1.4570  2.1032
  297MOL0     H40079   4.658   7.964   8.889 -1.9301 -1.2224 -1.4571
  297MOL0     H40080   4.865   7.909   9.058  3.3396 -0.9471 -1.7576
  297MOL0     H40081   5.063   7.597   9.395 -1.1903  0.6734 -2.0942
  297MOL0     H40082   5.055   7.456   9.611  1.9110  0.8501 -0.3929
  297MOL0     H40083   4.686   7.341   9.755 -1.3944  0.5903  1.6885
  297MOL0     H40084   4.701   7.454   9.879  0.0097  0.2052 -0.4657
  297MOL0     H40085   4.903   7.290   9.968  1.0281  1.5008 -3.0707
  297MOL0     H40086   4.829   7.169   9.858  1.3581 -0.4109 -0.1833
  297MOL0     H40087   4.603   7.197   9.987 -3.1922  4.0957  1.8282
  297MOL0     H40088   4.660   7.335  10.057 -0.0712 -0.3687  0.1593
  297MOL0     H40089   4.829   7.194  10.205 -0.1979 -0.7230 -1.0106
  297MOL0     H40090   4.658   7.153  10.208  0.1353  4.2183  0.4918
  297MOL0     H40091   4.799   6.809  10.055 -3.2048 -0.0628 -2.3344
  297MOL0     H40092   4.666   7.609   9.696 -1.6389  4.3195 -0.7987
  297MOL0     H40093   4.635   7.863   9.496  0.3945 -0.0733 -1.9323
  297MOL0     H40094   4.598   7.734   9.380  0.2916  1.5319  0.1181
  297MOL0     H40095   4.549   7.724   9.557 -2.0914  0.5456 -0.8659
  298MOL0     O40096   8.538   1.089   5.908  0.3137  0.1789  0.6784
  298MOL0     C40097   8.482   1.044   5.807 -0.0253  0.7525  0.4289
  298MOL0     O40098   8.508   1.078   5.678 -0.1051  1.2689 -0.3912
  298MOL0     C40099   8.580   1.190   5.655  0.2266  0.6645  0.8904
  298MOL0     C40100   8.708   1.189   5.599 -0.4059  0.0685 -0.1004
  298MOL0     C40101   8.779   1.306   5.584  0.2142  0.1722 -0.5914
  298MOL0     C40102   8.724   1.434   5.617  1.0101  0.0958  0.0095
  298MOL0     O40103   8.781   1.559   5.614  0.6629  0.1689 -0.3723
  298MOL0     C40104   8.917   1.564   5.572 -0.2726 -1.0341  0.6633
  298MOL0     C40105   8.955   1.712   5.599  0.5816  0.7282  0.4668
  298MOL0     C40106   8.981   1.740   5.742  0.1940 -0.7764 -0.0025
  298MOL0     C40107   9.139   1.748   5.763  0.2729  0.1956  0.4221
  298MOL0     C40108   9.174   1.755   5.917 -0.1673  0.3397  0.7223
  298MOL0     C40109   9.328   1.730   5.929  0.3798  0.7305 -0.3721
  298MOL0     C40110   9.404   1.847   5.861  0.8973  0.1277 -0.6656
  298MOL0     C40111   9.551   1.850   5.903 -0.1416  0.2396 -0.0458
  298MOL0     N40112   9.642   1.889   5.791  0.0106 -0.8569  0.3484
  298MOL0     C40113   9.640   1.832   5.672 -0.4454 -0.1528  0.2433
  298MOL0     C40114   9.750   1.883   5.604 -0.5911 -0.0734  0.3208
  298MOL0     C40115   9.782   1.852   5.465  0.1636  0.5951 -0.6039
  298MOL0     C40116   9.925   1.774   5.451 -0.1838  0.6093 -0.7699
  298MOL0     C40117   9.924   1.695   5.312  0.5823  0.6873 -0.7438
  298MOL0     C40118  10.042   1.595   5.270  0.2593  0.1294 -0.1396
  298MOL0     O40119  10.170   1.665   5.260 -0.4232 -0.9298  0.2849
  298MOL0     C40120  10.275   1.575   5.254  0.6691  0.7114  0.1702
  298MOL0     C40121  10.393   1.604   5.317 -0.4712 -1.0054  0.4429
  298MOL0     C40122  10.513   1.540   5.288  0.0061 -0.4487 -0.2514
  298MOL0     C40123  10.513   1.409   5.236  0.2812 -1.0065 -0.3957
  298MOL0     C40124  10.631   1.324   5.245  0.2496  0.1738  0.3109
  298MOL0     O40125  10.738   1.386   5.293 -0.6857  0.1831  0.2833
  298MOL0     C40126  10.830   1.309   5.363  0.2890 -0.4531  0.7685
  298MOL0     C40127  10.963   1.300   5.319 -0.0639  1.1392 -0.4941
  298MOL0     C40128  11.054   1.199   5.384 -0.8812 -0.0465 -0.2315
  298MOL0     C40129  10.998   1.113   5.488 -0.0434 -0.9689 -0.6273
  298MOL0     O40130  11.084   1.015   5.534 -0.0355 -0.3599  0.3016
  298MOL0     C40131  11.043   0.936   5.642  0.2763  0.1169  0.0464
  298MOL0     C40132  11.148   0.840   5.696 -0.2573  0.3362 -0.5053
  298MOL0     C40133  11.263   0.924   5.753  0.5601  0.7183 -0.0849
  298MOL0     C40134  11.347   0.834   5.851 -0.4658 -0.7031 -0.1809
  298MOL0     C40135  11.465   0.919   5.909  0.7748 -0.5201  0.3219
  298MOL0     C40136  11.571   0.974   5.807 -0.2803 -0.6298  0.2461
  298MOL0     C40137  11.688   1.025   5.896 -0.5052 -0.4132  0.9972
  298MOL0     C40138  11.807   1.052   5.805 -0.0954 -0.0434  0.1877
  298MOL0    Cl40139  11.780   1.209   5.721 -0.3937 -0.0454 -0.1257
  298MOL0     C40140  10.866   1.128   5.522  0.3082 -0.7881  0.7992
  298MOL0     C40141  10.784   1.228   5.465  0.6076 -0.0590 -0.7432
  298MOL0     O40142  10.631   1.208   5.202 -0.5529 -0.3518 -0.3852
  298MOL0     C40143  10.386   1.366   5.182 -0.4190  0.1645 -0.0504
  298MOL0     C40144  10.281   1.461   5.184 -0.0020  1.0716  0.2080
  298MOL0     N40145   9.812   1.982   5.685  0.5209  0.7887  0.7861
  298MOL0     N40146   9.746   1.979   5.800 -1.0842  0.2202  0.6410
  298MOL0     C40147   8.593   1.436   5.661  0.0195 -0.1396  1.1474
  298MOL0     C40148   8.526   1.314   5.680  1.1032 -0.7957  0.7252
  298MOL0     C40149   8.390   0.925   5.821  0.0028 -0.5973 -0.0069
  298MOL0     C40150   8.333   0.871   5.701 -0.5402  0.3879 -0.3491
  298MOL0     C40151   8.248   0.768   5.707  0.6867  0.2087  0.0305
  298MOL0     C40152   8.216   0.700   5.821  0.3783 -0.2263  0.2220
  298MOL0     O40153   8.145   0.580   5.829 -0.1844  0.2557 -0.2389
  298MOL0     C40154   8.096   0.524   5.712 -0.0443  0.1305  0.3065
  298MOL0     C40155   8.008   0.405   5.749 -0.4412 -0.2583  0.6573
  298MOL0     C40156   7.878   0.432   5.838  0.1684  0.2607  0.0611
  298MOL0     C40157   7.773   0.517   5.758 -0.2789 -0.5767  0.4406
  298MOL0     C40158   7.748   0.475   5.621 -0.7076  0.4461 -0.1924
  298MOL0     C40159   7.722   0.458   5.505 -0.4096 -0.5013  0.0114
  298MOL0     C40160   8.271   0.744   5.942 -0.5709 -0.5641  0.0464
  298MOL0     C40161   8.359   0.857   5.946  0.5942 -0.0794 -0.0869
  298MOL0     C40162   8.390   0.916   6.086 -0.2941 -0.3275  1.2864
  298MOL0     H40163   8.760   1.098   5.570 -0.0498  0.8346 -1.9967
  298MOL0     H40164   8.878   1.296   5.540 -0.8058  1.3395 -3.3441
  298MOL0     H40165   8.976   1.496   5.635 -2.2392 -0.0922  3.7899
  298MOL0     H40166   8.919   1.536   5.467 -3.3716 -1.3425  0.5720
  298MOL0     H40167   8.867   1.769   5.569  1.5715  1.3196 -1.4784
  298MOL0     H40168   9.035   1.736   5.528 -0.4844  2.3146 -0.2330
  298MOL0     H40169   8.933   1.675   5.817 -2.0960  1.4304  0.5905
  298MOL0     H40170   8.939   1.841   5.746 -2.8164 -1.8912 -1.2508
  298MOL0     H40171   9.193   1.668   5.712 -2.5879 -1.7447  0.2304
  298MOL0     H40172   9.167   1.844   5.718 -0.6191  1.3628  2.2137
  298MOL0     H40173   9.144   1.858   5.936  0.4000  1.1613 -2.2964
  298MOL0     H40174   9.120   1.680   5.976  2.2615 -0.7961  1.6244
  298MOL0     H40175   9.347   1.721   6.036  4.7578  2.5799 -0.8151
  298MOL0     H40176   9.368   1.637   5.889  2.6130  1.0522  0.9579
  298MOL0     H40177   9.361   1.943   5.888  1.8647  1.6313 -3.9284
  298MOL0     H40178   9.392   1.845   5.752 -0.6401 -2.5373 -0.5264
  298MOL0     H40179   9.547   1.920   5.987 -2.4817 -0.2733  0.3485
  298MOL0     H40180   9.588   1.754   5.940 -2.4431 -0.2853  1.0346
  298MOL0     H40181   9.564   1.767   5.630  0.9989 -0.4171 -2.0645
  298MOL0     H40182   9.699   1.788   5.434 -1.7372  0.8236  3.3855
  298MOL0     H40183   9.774   1.947   5.411 -1.3944  0.3183 -0.9133
  298MOL0     H40184  10.017   1.830   5.469  1.0320 -1.4624 -0.2535
  298MOL0     H40185   9.924   1.692   5.523 -0.6709 -0.1620 -1.6322
  298MOL0     H40186   9.898   1.758   5.226  0.4507 -0.3194 -1.4669
  298MOL0     H40187   9.843   1.622   5.314 -0.6550  1.8923 -2.8325
  298MOL0     H40188  10.023   1.552   5.172 -0.8903 -2.6917  1.2077
  298MOL0     H40189  10.044   1.524   5.353 -5.0983 -0.7111 -0.3209
  298MOL0     H40190  10.409   1.692   5.379  2.1434 -0.4658 -0.8626
  298MOL0     H40191  10.600   1.575   5.342  0.0440 -1.5561  0.4246
  298MOL0     H40192  10.994   1.366   5.239 -0.4800  0.8016 -0.9382
  298MOL0     H40193  11.157   1.181   5.353  0.0062  0.2010  2.3786
  298MOL0     H40194  11.022   0.997   5.730 -0.2879  0.6052 -0.4069
  298MOL0     H40195  10.951   0.879   5.626  0.5784  0.0197 -1.4844
  298MOL0     H40196  11.101   0.783   5.776 -2.6646  1.0147 -1.3356
  298MOL0     H40197  11.192   0.772   5.622  2.6547  1.3368  0.1887
  298MOL0     H40198  11.319   0.980   5.678 -1.9950  2.0686 -1.1176
  298MOL0     H40199  11.215   1.006   5.807  1.8445  1.9332 -0.7337
  298MOL0     H40200  11.382   0.741   5.807  0.0278 -2.1826  3.0674
  298MOL0     H40201  11.289   0.802   5.938 -0.9684  3.1777  1.1150
  298MOL0     H40202  11.516   0.854   5.981 -2.9299 -1.5804  2.2147
  298MOL0     H40203  11.412   1.001   5.958 -0.4749 -2.1293  1.7860
  298MOL0     H40204  11.597   0.886   5.747 -4.4073 -1.7528 -0.2591
  298MOL0     H40205  11.522   1.054   5.751 -0.2545 -0.3537  0.6143
  298MOL0     H40206  11.728   0.945   5.958 -1.1054 -0.4289  1.3651
  298MOL0     H40207  11.668   1.116   5.954  2.3289 -0.8208  2.8131
  298MOL0     H40208  11.902   1.046   5.860 -0.4508 -0.4353  0.7647
  298MOL0     H40209  11.813   0.977   5.726  0.3167  0.0953  0.0835
  298MOL0     H40210  10.817   1.059   5.591 -2.7551  0.6352  0.2485
  298MOL0     H40211  10.681   1.220   5.497  1.2064  2.5043  2.3892
  298MOL0     H40212  10.365   1.264   5.151  1.7303 -0.5390  0.6701
  298MOL0     H40213  10.196   1.423   5.128  1.8409 -1.4864 -1.1070
  298MOL0     H40214   8.540   1.531   5.671  0.7590  0.6742 -1.6978
  298MOL0     H40215   8.431   1.318   5.733  0.9220 -1.0610  0.4238
  298MOL0     H40216   8.341   0.912   5.601 -0.1307 -0.7010 -0.7788
  298MOL0     H40217   8.221   0.735   5.608  2.2743  0.0351 -0.3801
  298MOL0     H40218   8.181   0.485   5.655 -0.6364 -1.6351  0.5938
  298MOL0     H40219   8.043   0.597   5.650  2.3857  0.6637 -1.3041
  298MOL0     H40220   8.065   0.328   5.801 -2.2039 -3.8676 -2.2392
  298MOL0     H40221   7.981   0.353   5.656 -0.1521  2.2680 -0.9141
  298MOL0     H40222   7.909   0.488   5.927  1.5857 -0.4802  0.0587
  298MOL0     H40223   7.832   0.336   5.864  3.7885 -1.0768  2.3440
  298MOL0     H40224   7.677   0.526   5.811  1.8867  0.9361  4.5980
  298MOL0     H40225   7.803   0.621   5.741  0.0008 -0.3561  2.1089
  298MOL0     H40226   7.679   0.450   5.407 -0.8129 -0.7578  0.2072
  298MOL0     H40227   8.242   0.687   6.029  0.1989  1.3727  1.6618
  298MOL0     H40228   8.361   0.840   6.159 -3.2203  0.4506  1.0289
  298MOL0     H40229   8.497   0.939   6.095  0.2268 -2.2854  0.5963
  298MOL0     H40230   8.326   1.003   6.104 -0.7188 -0.4057  0.1963
  299MOL0     O40231   6.596   4.687  10.590 -0.2707 -0.5283 -0.1725
  299MOL0     C40232   6.476   4.680  10.584  0.5674  0.0004 -0.5066
  299MOL0     O40233   6.385   4.785  10.585 -0.2878  0.0315 -0.0472
  299MOL0     C40234   6.404   4.918  10.609 -0.1088  0.0367  0.5509
  299MOL0     C40235   6.281   4.988  10.623  0.4388  0.1188 -0.7887
  299MOL0     C40236   6.276   5.126  10.652 -0.3847  0.0998  0.5377
  299MOL0     C40237   6.404   5.191  10.674  0.5184 -0.6414 -0.2935
  299MOL0     O40238   6.408   5.324  10.675  0.6020 -0.0959  0.5035
  299MOL0     C40239   6.488   5.394  10.772 -0.1317 -0.5705  0.5355
  299MOL0     C40240   6.564   5.498  10.688  0.1091 -0.1427 -0.0406
  299MOL0     C40241   6.598   5.631  10.770 -0.0137  0.5024  0.4233
  299MOL0     C40242   6.506   5.744  10.782 -0.2480 -0.6022  0.3072
  299MOL0     C40243   6.565   5.860  10.860 -0.6074  0.2088 -0.2471
  299MOL0     C40244   6.450   5.962  10.874  0.7750 -0.1536 -0.0892
  299MOL0     C40245   6.490   6.099  10.928  0.3294 -1.6119  0.1385
  299MOL0     C40246   6.381   6.167  11.019  0.1284 -0.4837 -0.0772
  299MOL0     N40247   6.436   6.283  11.093  0.4086 -0.1336 -0.1024
  299MOL0     C40248   6.477   6.400  11.030  0.3325 -0.1638 -0.6000
  299MOL0     C40249   6.519   6.476  11.136  1.2542 -0.0815  0.2689
  299MOL0     C40250   6.598   6.599  11.107 -0.5424 -0.7105 -0.3382
  299MOL0     C40251   6.526   6.714  11.035 -1.0434  1.1727 -0.7155
  299MOL0     C40252   6.617   6.828  10.983 -0.0270 -0.4735  0.7242
  299MOL0     C40253   6.546   6.939  10.901 -0.3657 -0.0358  0.6832
  299MOL0     O40254   6.426   6.905  10.835 -0.0491  0.3580  0.8734
  299MOL0     C40255   6.430   6.832  10.715 -0.0229 -0.6862 -0.4612
  299MOL0     C40256   6.538   6.745  10.675  0.1174 -0.6029 -0.1147
  299MOL0     C40257   6.524   6.676  10.553 -1.0941 -0.1570 -0.5792
  299MOL0     C40258   6.420   6.703  10.458  0.5908 -0.9702 -0.1218
  299MOL0     C40259   6.399   6.633  10.328 -0.2823 -0.1918  0.5072
  299MOL0     O40260   6.483   6.533  10.305 -0.1437  0.6090 -0.4551
  299MOL0     C40261   6.481   6.450  10.190 -0.2943  0.4275  0.5924
  299MOL0     C40262   6.450   6.494  10.057 -0.1090 -0.8208 -0.3959
  299MOL0     C40263   6.481   6.422   9.941  0.7704 -0.3228 -0.1486
  299MOL0     C40264   6.513   6.287   9.961 -0.5636 -0.1597  0.7278
  299MOL0     O40265   6.557   6.211   9.849 -1.1110  0.4764 -0.0338
  299MOL0     C40266   6.532   6.251   9.712 -0.0800  0.4952  0.7366
  299MOL0     C40267   6.543   6.123   9.633  0.1847 -0.4284  0.1675
  299MOL0     C40268   6.518   6.148   9.479 -0.3811 -1.4203  0.7875
  299MOL0     C40269   6.518   6.009   9.415  0.1910 -0.0899 -0.1648
  299MOL0     C40270   6.531   6.021   9.259 -0.5141 -0.2818  0.2046
  299MOL0     C40271   6.568   5.891   9.193 -0.7651  0.7138 -0.4773
  299MOL0     C40272   6.439   5.833   9.156  0.6645  0.6031 -0.4838
  299MOL0     C40273   6.472   5.702   9.108 -0.3538  0.0550 -0.0285
  299MOL0    Cl40274   6.340   5.592   9.053  0.1787 -0.1681 -0.2247
  299MOL0     C40275   6.541   6.244  10.084 -0.0150 -0.0250 -0.8647
  299MOL0     C40276   6.538   6.328  10.198 -0.4798  0.2379 -0.4394
  299MOL0     O40277   6.310   6.669  10.252  0.1803 -1.0294  0.2605
  299MOL0     C40278   6.311   6.784  10.504 -0.2191  0.0091  0.3008
  299MOL0     C40279   6.314   6.836  10.635  0.0340  0.1188 -0.1069
  299MOL0     N40280   6.501   6.411  11.251  0.4676 -0.0438 -0.4170
  299MOL0     N40281   6.453   6.299  11.227  0.3252  0.1927 -0.4228
  299MOL0     C40282   6.523   5.119  10.681 -0.2156 -0.5360 -0.2797
  299MOL0     C40283   6.517   4.987  10.647  0.3620  0.0539  0.3402
  299MOL0     C40284   6.410   4.542  10.569 -0.9936 -0.2090 -1.2033
  299MOL0     C40285   6.277   4.525  10.622  0.2813 -0.0323  0.2716
  299MOL0     C40286   6.214   4.403  10.625 -0.6737 -0.0727  0.3133
  299MOL0     C40287   6.288   4.291  10.573  0.7367 -0.0881 -0.0458
  299MOL0     O40288   6.219   4.174  10.584 -0.3131 -0.2537 -0.6496
  299MOL0     C40289   6.267   4.066  10.503  0.2974  0.1938  0.3677
  299MOL0     C40290   6.237   4.082  10.358 -0.1045 -0.5579 -0.2413
  299MOL0     C40291   6.330   4.002  10.265  0.0126  0.3630 -0.3320
  299MOL0     C40292   6.480   4.044  10.246 -0.6099 -0.0796 -0.0197
  299MOL0     C40293   6.495   4.177  10.179 -0.2702 -0.2271  0.6726
  299MOL0     C40294   6.501   4.279  10.105  0.9453  0.4919 -0.6326
  299MOL0     C40295   6.418   4.308  10.511  0.6001  0.9088  0.1960
  299MOL0     C40296   6.480   4.430  10.512  0.2718 -0.4936  0.7382
  299MOL0     C40297   6.608   4.442  10.434 -0.4444 -0.7524 -0.3869
  299MOL0     H40298   6.189   4.938  10.595  0.0020  0.4105  0.1043
  299MOL0     H40299   6.182   5.180  10.665  0.0659  0.7296  1.2370
  299MOL0     H40300   6.415   5.434  10.842 -1.1903 -0.8145 -0.3975
  299MOL0     H40301   6.548   5.323  10.830 -2.0372 -2.3628  0.4238
  299MOL0     H40302   6.508   5.531  10.600 -1.1430  1.2575  1.2133
  299MOL0     H40303   6.658   5.450  10.661 -0.0393  0.6157 -2.0502
  299MOL0     H40304   6.686   5.675  10.724  0.8100 -1.6018 -0.1657
  299MOL0     H40305   6.636   5.607  10.870  1.1539  2.4555  0.4807
  299MOL0     H40306   6.477   5.779  10.683  2.1316  1.2032  0.1520
  299MOL0     H40307   6.421   5.708  10.840 -2.7638  0.6201 -2.3762
  299MOL0     H40308   6.598   5.824  10.958 -5.0204 -0.8013  1.0988
  299MOL0     H40309   6.650   5.906  10.809  0.7805  0.9764  2.5742
  299MOL0     H40310   6.391   5.981  10.783 -1.4665 -0.5002  1.2233
  299MOL0     H40311   6.369   5.925  10.937  0.3836 -1.7137 -1.4087
  299MOL0     H40312   6.528   6.158  10.844  1.5625 -0.4492  1.4431
  299MOL0     H40313   6.577   6.076  10.990 -0.2867 -1.3151  1.1467
  299MOL0     H40314   6.302   6.188  10.946  1.8490 -4.2250 -3.3984
  299MOL0     H40315   6.346   6.094  11.093  1.4237 -2.4911 -1.3444
  299MOL0     H40316   6.488   6.432  10.927 -2.1442 -2.7243 -1.7933
  299MOL0     H40317   6.634   6.644  11.199  0.3343 -0.4409 -0.8024
  299MOL0     H40318   6.683   6.553  11.055  1.2168 -0.3511  2.0566
  299MOL0     H40319   6.488   6.655  10.951  0.7201 -1.2847  0.0764
  299MOL0     H40320   6.443   6.764  11.087 -0.3548  1.9730 -0.3569
  299MOL0     H40321   6.703   6.791  10.928  0.9358 -0.3047  2.0655
  299MOL0     H40322   6.644   6.872  11.080  0.6646 -1.0371  0.7939
  299MOL0     H40323   6.614   6.981  10.827  3.6564 -5.4588  0.7252
  299MOL0     H40324   6.524   7.015  10.977  0.2883 -1.7592  2.6721
  299MOL0     H40325   6.633   6.735  10.726  0.3048 -0.5372 -0.4506
  299MOL0     H40326   6.606   6.610  10.528 -0.6114  0.8063 -1.6765
  299MOL0     H40327   6.422   6.599  10.063  0.8497 -0.6168  1.0693
  299MOL0     H40328   6.462   6.469   9.845 -1.1588  1.9606  1.2317
  299MOL0     H40329   6.432   6.292   9.695  0.6292  1.4797 -1.3796
  299MOL0     H40330   6.607   6.323   9.678  0.1720 -0.5053 -0.9479
  299MOL0     H40331   6.643   6.078   9.646 -0.0130 -0.7259  0.7292
  299MOL0     H40332   6.463   6.057   9.669  0.4901 -0.3798  0.9476
  299MOL0     H40333   6.422   6.201   9.469  0.5251  0.0724 -0.3267
  299MOL0     H40334   6.591   6.216   9.434 -0.5424 -1.9520 -0.3168
  299MOL0     H40335   6.424   5.961   9.445  1.0845 -1.6322  0.3362
  299MOL0     H40336   6.600   5.953   9.462  1.2527  2.3230  1.0503
  299MOL0     H40337   6.607   6.089   9.220 -1.2104  0.0422 -0.6206
  299MOL0     H40338   6.449   6.074   9.210 -0.6300  0.1566  0.8534
  299MOL0     H40339   6.637   5.909   9.110  1.3009  1.8478  1.3734
  299MOL0     H40340   6.625   5.829   9.263  0.7074  2.5811  0.0662
  299MOL0     H40341   6.383   5.888   9.080  2.4409 -0.1896 -2.4881
  299MOL0     H40342   6.373   5.824   9.243 -1.5895  0.5349 -2.1068
  299MOL0     H40343   6.535   5.703   9.019 -1.6771 -4.5340 -1.2884
  299MOL0     H40344   6.521   5.656   9.195  0.7886  0.9814 -0.1539
  299MOL0     H40345   6.598   6.152  10.092  0.4827  0.4349  1.3212
  299MOL0     H40346   6.569   6.283  10.292  1.4510  2.2575 -0.0344
  299MOL0     H40347   6.213   6.795  10.461 -0.6875 -1.0699  1.0588
  299MOL0     H40348   6.231   6.903  10.657  0.6432  0.4577  1.3323
  299MOL0     H40349   6.622   5.160  10.700 -0.4318 -0.5465  0.9551
  299MOL0     H40350   6.607   4.929  10.628 -0.0958 -0.5462 -0.0707
  299MOL0     H40351   6.234   4.611  10.673  4.4709  2.3375  0.2812
  299MOL0     H40352   6.114   4.391  10.666 -1.2081  0.8333 -0.6740
  299MOL0     H40353   6.215   3.975  10.534 -0.7071  1.3977  2.4456
  299MOL0     H40354   6.375   4.049  10.510  0.2334 -0.1847  0.4161
  299MOL0     H40355   6.260   4.184  10.327 -2.1130 -0.1491 -0.4577
  299MOL0     H40356   6.133   4.052  10.344 -0.4958  0.9381 -0.7423
  299MOL0     H40357   6.274   4.009  10.171 -0.8418  0.2392  0.1569
  299MOL0     H40358   6.336   3.900  10.304 -0.2221  1.0670  1.6609
  299MOL0     H40359   6.535   4.036  10.341 -1.9877  0.2467  0.8344
  299MOL0     H40360   6.529   3.965  10.187 -1.0646  0.2573 -0.8578
  299MOL0     H40361   6.486   4.357  10.033  1.1587  0.7708 -0.3811
  299MOL0     H40362   6.464   4.228  10.454 -2.0862 -0.2879 -0.4812
  299MOL0     H40363   6.615   4.371  10.351  1.3673  2.3015 -3.0930
  299MOL0     H40364   6.610   4.535  10.377  3.3994  0.7742  1.8460
  299MOL0     H40365   6.699   4.453  10.495 -0.2779  0.6266 -0.8507
  300MOL0     O40366   6.172   9.289   7.705  0.7870 -0.2494  0.6370
  300MOL0     C40367   6.227   9.208   7.776  0.0087 -0.5509 -0.3150
  300MOL0     O40368   6.170   9.146   7.886 -0.3746  0.2714 -0.4626
  300MOL0     C40369   6.033   9.154   7.897 -0.8457 -0.1832  0.0389
  300MOL0     C40370   5.946   9.066   7.824  0.0762 -0.2208 -0.2256
  300MOL0     C40371   5.812   9.064   7.829 -0.3183  0.7478 -0.3516
  300MOL0     C40372   5.743   9.135   7.917  0.4979 -0.5812 -0.1544
  300MOL0     O40373   5.604   9.127   7.951 -0.5184  0.3532 -0.4112
  300MOL0     C40374   5.512   9.083   7.849  0.5124 -0.0354 -0.5440
  300MOL0     C40375   5.372   9.134   7.855 -0.7131 -0.4691 -0.1481
  300MOL0     C40376   5.278   9.046   7.779  0.3939  0.9192 -0.4715
  300MOL0     C40377   5.137   9.127   7.759 -0.7491  0.1313  0.1862
  300MOL0     C40378   5.051   9.050   7.654 -0.0124  1.0324  0.1945
  300MOL0     C40379   5.083   9.103   7.519 -0.6719 -0.3688  0.6586
  300MOL0     C40380   5.014   9.030   7.403  0.9027  0.7478 -0.4661
  300MOL0     C40381   4.947   9.135   7.306  0.2452 -0.6846 -0.4481
  300MOL0     N40382   4.890   9.077   7.183 -0.5523  0.7283 -0.5662
  300MOL0     C40383   4.923   9.126   7.054 -0.2957  0.5578  0.3282
  300MOL0     C40384   4.831   9.069   6.979 -0.2228 -1.1902 -0.4192
  300MOL0     C40385   4.832   9.059   6.832 -0.6043  0.0312 -0.0276
  300MOL0     C40386   4.952   8.974   6.786 -0.7285 -0.1635 -0.3840
  300MOL0     C40387   4.950   8.946   6.640 -0.1512  0.3003  0.4454
  300MOL0     C40388   5.055   8.843   6.599  0.1559  0.6612  0.6819
  300MOL0     O40389   5.068   8.825   6.453  0.1897 -0.2235 -0.0003
  300MOL0     C40390   4.998   8.723   6.385 -0.2792 -1.0993  0.5267
  300MOL0     C40391   4.877   8.673   6.436 -0.5145  0.2485 -0.8871
  300MOL0     C40392   4.808   8.575   6.369 -0.2159 -0.7015 -0.9799
  300MOL0     C40393   4.850   8.521   6.243  0.2744  0.2306  0.2932
  300MOL0     C40394   4.770   8.412   6.184  0.0354 -0.1566  0.3695
  300MOL0     O40395   4.799   8.378   6.059  0.0549 -0.2509 -0.6886
  300MOL0     C40396   4.777   8.256   6.015 -0.6085 -0.3167 -0.2794
  300MOL0     C40397   4.742   8.260   5.877 -0.2802  0.2586  0.5173
  300MOL0     C40398   4.723   8.142   5.806  0.0433  0.3076 -0.0043
  300MOL0     C40399   4.732   8.013   5.873  0.5914 -0.6587  0.2804
  300MOL0     O40400   4.708   7.899   5.807 -0.1913  0.3687  0.2857
  300MOL0     C40401   4.831   7.841   5.752  0.8261 -0.6077 -0.4344
  300MOL0     C40402   4.876   7.898   5.614  0.2727 -0.8775  0.2351
  300MOL0     C40403   5.002   7.827   5.556  0.1904 -1.0940 -1.5011
  300MOL0     C40404   4.964   7.691   5.500  0.2253 -0.5756  0.3282
  300MOL0     C40405   5.085   7.607   5.448 -0.1733 -0.1276  0.3913
  300MOL0     C40406   5.179   7.554   5.553 -1.2279 -0.8762 -0.0765
  300MOL0     C40407   5.313   7.515   5.480 -0.2336 -0.4175 -0.1128
  300MOL0     C40408   5.407   7.629   5.461  0.2160  0.0359 -0.4257
  300MOL0    Cl40409   5.489   7.629   5.620 -0.4267  0.7680 -0.2062
  300MOL0     C40410   4.745   8.015   6.009  0.3675 -0.0434 -0.4035
  300MOL0     C40411   4.773   8.129   6.080 -0.3277  0.3214 -0.4160
  300MOL0     O40412   4.688   8.360   6.254  0.0183  0.7045  0.2942
  300MOL0     C40413   4.972   8.569   6.192  0.7834 -0.4173  0.6188
  300MOL0     C40414   5.041   8.673   6.261  0.4648 -0.2335 -0.2793
  300MOL0     N40415   4.742   8.994   7.056 -0.3539  0.0777  0.2077
  300MOL0     N40416   4.783   8.991   7.175 -0.3581 -0.9400  0.2888
  300MOL0     C40417   5.818   9.213   8.005 -1.2607  0.0862  0.4241
  300MOL0     C40418   5.957   9.221   7.995  0.1386  0.5487  0.2979
  300MOL0     C40419   6.367   9.199   7.771 -0.0013  0.7921 -0.0865
  300MOL0     C40420   6.440   9.149   7.887  0.8037  0.1984  0.1639
  300MOL0     C40421   6.577   9.120   7.897  0.1716 -1.0747 -0.5733
  300MOL0     C40422   6.650   9.138   7.779  1.0116  0.9462 -0.3198
  300MOL0     O40423   6.778   9.101   7.754  0.3564  0.1794  0.3093
  300MOL0     C40424   6.823   8.988   7.823 -0.5537 -0.1502  0.4219
  300MOL0     C40425   6.776   8.852   7.769 -1.1047  0.6176  0.6465
  300MOL0     C40426   6.880   8.740   7.800  0.2060 -0.6854 -0.2028
  300MOL0     C40427   6.819   8.600   7.766 -0.2472 -0.2224  0.2407
  300MOL0     C40428   6.700   8.565   7.829  0.9454  0.1331 -0.4483
  300MOL0     C40429   6.604   8.535   7.907  0.2967 -0.4480 -0.0684
  300MOL0     C40430   6.584   9.182   7.662 -0.3533 -0.6602  0.8071
  300MOL0     C40431   6.440   9.212   7.653  0.7115  0.0571 -0.0685
  300MOL0     C40432   6.384   9.264   7.526 -0.6569 -0.2175  0.6997
  300MOL0     H40433   5.989   8.998   7.752 -0.6609  0.8106 -1.7020
  300MOL0     H40434   5.759   9.002   7.757 -1.8432  4.0995 -2.3730
  300MOL0     H40435   5.542   9.115   7.749  0.6370 -5.1429 -2.4342
  300MOL0     H40436   5.501   8.974   7.853 -0.5649  0.0808  0.8303
  300MOL0     H40437   5.375   9.235   7.812  0.8043 -0.7539 -0.7712
  300MOL0     H40438   5.343   9.131   7.960  0.4632 -1.4336  0.1736
  300MOL0     H40439   5.257   8.952   7.831 -0.2589  1.1742 -0.2582
  300MOL0     H40440   5.322   9.022   7.681 -2.0012  5.0854 -2.8838
  300MOL0     H40441   5.088   9.133   7.857 -1.3992  1.4829 -0.1967
  300MOL0     H40442   5.150   9.229   7.722  0.4014 -0.1426 -0.2212
  300MOL0     H40443   5.082   8.945   7.652  0.2010  1.1083 -1.4335
  300MOL0     H40444   4.944   9.053   7.676  0.4088  2.6457  2.3528
  300MOL0     H40445   5.053   9.208   7.519  2.8473  0.7702  0.5717
  300MOL0     H40446   5.191   9.090   7.508 -0.6387 -3.1357  2.8691
  300MOL0     H40447   4.929   8.968   7.436  1.6597 -0.8003 -1.2954
  300MOL0     H40448   5.087   8.964   7.354  0.5952 -1.7764  2.1780
  300MOL0     H40449   4.869   9.190   7.359 -1.2721 -3.6239  0.6191
  300MOL0     H40450   5.029   9.204   7.286 -0.6783  0.9117  1.0646
  300MOL0     H40451   5.007   9.184   7.015 -2.0541  3.0911  0.1196
  300MOL0     H40452   4.749   9.004   6.788 -0.1381 -0.3885 -0.3903
  300MOL0     H40453   4.831   9.157   6.782  0.1487  0.3453  0.5420
  300MOL0     H40454   5.040   9.027   6.823 -1.4433  1.2387 -0.6127
  300MOL0     H40455   4.945   8.875   6.834  2.2699 -0.2025  0.1896
  300MOL0     H40456   4.980   9.040   6.594  0.8477 -0.1157  0.2265
  300MOL0     H40457   4.847   8.915   6.621 -0.4937  0.1955  2.2335
  300MOL0     H40458   5.031   8.744   6.640 -3.2514  0.3778 -1.5907
  300MOL0     H40459   5.150   8.883   6.637  0.0398  3.2617 -1.4667
  300MOL0     H40460   4.830   8.708   6.527 -3.9008  2.8691 -3.3748
  300MOL0     H40461   4.743   8.510   6.428 -0.0016 -0.4408 -0.4534
  300MOL0     H40462   4.745   8.362   5.839  1.0643  0.5713  1.3960
  300MOL0     H40463   4.698   8.154   5.702 -6.1506 -1.9350  0.8425
  300MOL0     H40464   4.909   7.853   5.827  0.0182  1.6431  0.1280
  300MOL0     H40465   4.824   7.734   5.735  4.5537 -1.1246  0.3652
  300MOL0     H40466   4.787   7.878   5.553  0.1689  2.2461 -0.7790
  300MOL0     H40467   4.908   8.002   5.623  1.6957 -1.3664  1.0623
  300MOL0     H40468   5.048   7.888   5.478 -1.3073 -1.7068 -2.9179
  300MOL0     H40469   5.071   7.814   5.640 -1.8958 -1.9708  0.1474
  300MOL0     H40470   4.890   7.714   5.422  1.5766 -2.1472 -1.5309
  300MOL0     H40471   4.923   7.632   5.582  0.8482  0.5243  1.4541
  300MOL0     H40472   5.137   7.673   5.378  0.5928  1.1674  2.0964
  300MOL0     H40473   5.039   7.525   5.393 -0.5263  1.4957 -1.8452
  300MOL0     H40474   5.205   7.627   5.630  1.4429  0.1943 -1.8044
  300MOL0     H40475   5.135   7.464   5.597 -2.1261  0.5978  2.2077
  300MOL0     H40476   5.296   7.481   5.377  0.7314 -2.0281  0.2305
  300MOL0     H40477   5.359   7.426   5.522 -3.3253 -2.2426 -0.2758
  300MOL0     H40478   5.478   7.604   5.381  0.5414 -0.8403  0.1171
  300MOL0     H40479   5.357   7.724   5.441 -1.1905  0.2109  3.1778
  300MOL0     H40480   4.726   7.915   6.049 -0.5279  0.4830  0.5333
  300MOL0     H40481   4.789   8.121   6.186  2.4318 -3.3622 -0.9412
  300MOL0     H40482   5.014   8.530   6.100 -1.0474 -2.8673  0.7123
  300MOL0     H40483   5.120   8.724   6.207  0.8482  0.9709  1.3834
  300MOL0     H40484   5.775   9.266   8.089  1.0715  0.3833  1.4893
  300MOL0     H40485   6.003   9.285   8.069 -1.8751  1.7687  0.5741
  300MOL0     H40486   6.380   9.127   7.975 -1.7047  0.4886 -1.3944
  300MOL0     H40487   6.616   9.088   7.992  3.8862 -0.0306 -1.5787
  300MOL0     H40488   6.803   8.989   7.930  1.0945  3.2077  0.8396
  300MOL0     H40489   6.931   8.999   7.810 -0.4350 -2.0525 -0.5089
  300MOL0     H40490   6.774   8.852   7.660  2.5682 -0.5049  0.4275
  300MOL0     H40491   6.680   8.826   7.813 -1.2406  0.1894  0.1016
  300MOL0     H40492   6.907   8.735   7.906 -0.2760  0.8616  0.0127
  300MOL0     H40493   6.972   8.761   7.743 -0.0086 -0.6612 -0.5442
  300MOL0     H40494   6.787   8.599   7.662 -2.5317  0.8841  0.8647
  300MOL0     H40495   6.896   8.522   7.773  1.0817  0.8149 -1.8992
  300MOL0     H40496   6.530   8.514   7.982  1.8423  3.1554  2.7998
  300MOL0     H40497   6.634   9.187   7.566 -0.0176 -1.2622  0.9421
  300MOL0     H40498   6.353   9.367   7.545 -0.8646 -0.2769  0.6872
  300MOL0     H40499   6.460   9.250   7.449 -0.1561  1.9192  0.7538
  300MOL0     H40500   6.300   9.199   7.499  0.0347 -2.0426  2.6911
  301MOL0     O40501   6.695  10.714  10.816 -0.2587  1.1706 -0.3037
  301MOL0     C40502   6.787  10.777  10.871  0.7233 -0.2139 -0.6776
  301MOL0     O40503   6.840  10.893  10.809  0.0289 -0.4331 -0.7989
  301MOL0     C40504   6.813  10.930  10.679 -0.3134  1.2039 -0.6590
  301MOL0     C40505   6.697  10.913  10.616  1.2664  0.1470  0.8377
  301MOL0     C40506   6.686  10.944  10.474 -1.4487 -0.4611 -0.8238
  301MOL0     C40507   6.789  11.008  10.402 -0.4376 -0.0617  0.3579
  301MOL0     O40508   6.775  11.037  10.267 -0.6196 -0.1050  0.2704
  301MOL0     C40509   6.827  11.151  10.201  0.3641  0.2936  0.5812
  301MOL0     C40510   6.760  11.290  10.240  0.4137  0.6069 -0.0011
  301MOL0     C40511   6.843  11.411  10.172 -0.1931  0.1458 -0.7649
  301MOL0     C40512   6.799  11.549  10.201  0.4803 -0.2298  1.0663
  301MOL0     C40513   6.655  11.576  10.155 -0.0231  0.5791 -0.2396
  301MOL0     C40514   6.634  11.728  10.136 -0.0926 -0.3376 -0.6804
  301MOL0     C40515   6.497  11.757  10.082 -0.7116 -0.0052  0.2874
  301MOL0     C40516   6.394  11.766  10.195  0.6296  0.2337 -0.5390
  301MOL0     N40517   6.257  11.765  10.125  0.4268 -1.1163 -0.1675
  301MOL0     C40518   6.186  11.659  10.087 -0.0987  0.3168  0.6339
  301MOL0     C40519   6.090  11.702  10.008  0.2331  0.2607  0.5609
  301MOL0     C40520   5.989  11.608   9.941 -0.1097 -0.3017 -0.2462
  301MOL0     C40521   5.905  11.527  10.031  0.0529 -0.5485 -0.5251
  301MOL0     C40522   5.765  11.477   9.967 -0.2873  0.5252  0.6723
  301MOL0     C40523   5.706  11.380  10.057 -0.6138  0.1094 -0.7620
  301MOL0     O40524   5.788  11.268  10.088 -0.5126  0.5265 -0.9960
  301MOL0     C40525   5.750  11.175  10.185 -0.2753  0.2479  0.6442
  301MOL0     C40526   5.798  11.041  10.180 -0.4643  0.9615  0.4211
  301MOL0     C40527   5.761  10.943  10.269  0.8167 -0.0111  0.0845
  301MOL0     C40528   5.676  10.974  10.380 -0.3290  0.9520 -0.4622
  301MOL0     C40529   5.665  10.879  10.494 -0.4915  0.6491  0.1639
  301MOL0     O40530   5.620  10.938  10.610  0.1255  0.1940  0.4441
  301MOL0     C40531   5.647  10.884  10.730 -0.3624  0.0055 -0.3439
  301MOL0     C40532   5.769  10.912  10.777  0.6377  0.0647  0.0234
  301MOL0     C40533   5.815  10.849  10.897 -0.6320 -0.5191  0.4859
  301MOL0     C40534   5.722  10.784  10.984 -0.2810  0.9267  0.1003
  301MOL0     O40535   5.756  10.736  11.103  0.1463  1.0072  0.0097
  301MOL0     C40536   5.890  10.761  11.163 -0.4070 -0.1068  0.1022
  301MOL0     C40537   5.915  10.706  11.305  0.5092  0.3930 -0.4628
  301MOL0     C40538   5.902  10.555  11.306 -0.4801 -0.5432  0.2729
  301MOL0     C40539   5.917  10.502  11.442  0.3001 -0.9967  0.3713
  301MOL0     C40540   5.871  10.355  11.446 -0.7326  0.5704  0.8203
  301MOL0     C40541   5.899  10.293  11.584  0.5563  0.3460  0.1169
  301MOL0     C40542   5.887  10.134  11.566  0.0866  0.9107 -0.1901
  301MOL0     C40543   5.847  10.068  11.701 -0.0075  0.0468 -0.0325
  301MOL0    Cl40544   5.969  10.119  11.833  0.1771  0.1596  0.0904
  301MOL0     C40545   5.586  10.776  10.944  0.2228 -0.3500 -0.9799
  301MOL0     C40546   5.552  10.821  10.817  0.8768 -0.8189 -0.5228
  301MOL0     O40547   5.672  10.759  10.474  0.1320 -0.1813  0.2616
  301MOL0     C40548   5.623  11.103  10.386 -0.5104  0.3189  0.0166
  301MOL0     C40549   5.659  11.199  10.291 -0.2043  0.8290  0.0245
  301MOL0     N40550   6.101  11.838   9.997 -0.4542  0.0445 -0.6093
  301MOL0     N40551   6.204  11.879  10.068  0.4012  0.3098 -0.3708
  301MOL0     C40552   6.904  11.029  10.476 -0.3910  0.3310 -0.0159
  301MOL0     C40553   6.922  10.984  10.615  0.3879 -0.2989 -0.6184
  301MOL0     C40554   6.836  10.754  11.005  0.6272 -0.0393 -0.4315
  301MOL0     C40555   6.742  10.740  11.102  0.7945  0.5154  0.2475
  301MOL0     C40556   6.763  10.732  11.235  0.9581  0.7480 -0.6525
  301MOL0     C40557   6.896  10.729  11.281  0.8155  0.9148 -0.0487
  301MOL0     O40558   6.930  10.714  11.410  0.6715  0.2357 -1.5472
  301MOL0     C40559   6.840  10.697  11.519 -0.4886 -0.2723  0.6057
  301MOL0     C40560   6.798  10.817  11.594 -0.5186  0.5446  0.0642
  301MOL0     C40561   6.744  10.776  11.730  0.1931  0.2269 -0.0087
  301MOL0     C40562   6.595  10.748  11.732 -0.3228  1.0550  0.0932
  301MOL0     C40563   6.538  10.759  11.867 -0.3692  0.0994  0.1126
  301MOL0     C40564   6.494  10.765  11.984  0.2700  1.0496  0.3907
  301MOL0     C40565   7.002  10.733  11.187  0.8376 -0.7191  0.3923
  301MOL0     C40566   6.972  10.754  11.044 -0.3781  0.0111  0.3517
  301MOL0     C40567   7.084  10.788  10.949  0.1842  0.2564  0.1734
  301MOL0     H40568   6.605  10.878  10.661  1.3164 -1.4933 -0.2608
  301MOL0     H40569   6.599  10.920  10.414 -4.3747 -0.8431  3.1552
  301MOL0     H40570   6.935  11.156  10.212  0.4096  2.1838 -0.4224
  301MOL0     H40571   6.806  11.134  10.095  0.4714 -1.0809  0.7583
  301MOL0     H40572   6.770  11.293  10.349  2.2396  1.3410 -0.1464
  301MOL0     H40573   6.655  11.301  10.211  0.4630  2.4619  0.3867
  301MOL0     H40574   6.842  11.392  10.065  0.9478  0.3426 -0.8295
  301MOL0     H40575   6.948  11.416  10.204 -0.4172  2.3057 -0.2376
  301MOL0     H40576   6.801  11.569  10.308  0.8057 -0.7476  1.1584
  301MOL0     H40577   6.871  11.599  10.136 -0.9270 -0.4840 -0.7650
  301MOL0     H40578   6.634  11.524  10.061  2.2081  0.5298 -0.7597
  301MOL0     H40579   6.584  11.541  10.231 -0.2724  2.6544  0.5505
  301MOL0     H40580   6.641  11.769  10.237 -2.8032 -0.4244 -0.3886
  301MOL0     H40581   6.718  11.770  10.079  0.1233 -1.2012 -1.0220
  301MOL0     H40582   6.477  11.684  10.004  1.2574 -3.4544  2.7277
  301MOL0     H40583   6.515  11.852  10.030  0.7017 -2.0958 -3.3888
  301MOL0     H40584   6.403  11.682  10.265 -2.2190  0.3633  0.1326
  301MOL0     H40585   6.413  11.861  10.246  0.3894 -1.2726  2.6658
  301MOL0     H40586   6.209  11.555  10.109  1.2798  0.8296  1.7780
  301MOL0     H40587   5.929  11.683   9.889  0.1972 -0.0249 -0.2005
  301MOL0     H40588   6.033  11.548   9.861  0.0633 -2.3841  1.3358
  301MOL0     H40589   5.962  11.443  10.073 -3.8140 -2.4588  1.5069
  301MOL0     H40590   5.878  11.589  10.117 -0.2481  2.3546 -2.5630
  301MOL0     H40591   5.783  11.433   9.869  3.0285 -3.2171  2.6414
  301MOL0     H40592   5.689  11.555   9.956 -0.8585 -0.0449  0.5277
  301MOL0     H40593   5.614  11.343  10.010 -0.9685  0.3415 -0.2518
  301MOL0     H40594   5.682  11.431  10.150  1.1671 -3.3281  1.7961
  301MOL0     H40595   5.877  11.020  10.109 -0.5544  0.3062  0.5044
  301MOL0     H40596   5.812  10.848  10.261  0.4002 -0.1335 -1.5440
  301MOL0     H40597   5.834  10.970  10.712 -2.3944  2.7740 -0.8510
  301MOL0     H40598   5.920  10.854  10.922  0.0772 -3.1320 -1.5290
  301MOL0     H40599   5.970  10.727  11.097  0.2953  0.3288  0.7103
  301MOL0     H40600   5.903  10.869  11.166 -0.6915  0.0040 -1.7963
  301MOL0     H40601   6.015  10.736  11.339 -1.7111  2.1267  5.9256
  301MOL0     H40602   5.848  10.754  11.377  0.9189  1.3294 -0.6907
  301MOL0     H40603   5.798  10.532  11.281 -0.2688 -5.4011  2.6899
  301MOL0     H40604   5.974  10.518  11.232 -1.7821 -0.6017 -1.0142
  301MOL0     H40605   5.854  10.561  11.509 -0.2411 -1.0982 -0.0296
  301MOL0     H40606   6.021  10.520  11.468  0.2463  1.5948 -0.8832
  301MOL0     H40607   5.929  10.300  11.371  3.2366  0.5846  3.5747
  301MOL0     H40608   5.763  10.344  11.432 -0.7374 -0.9677  1.8342
  301MOL0     H40609   5.996  10.326  11.622  1.4597  1.2943 -2.7840
  301MOL0     H40610   5.830  10.336  11.657  0.2328  1.1994 -0.6666
  301MOL0     H40611   5.987  10.103  11.536 -0.0216  0.9902 -0.6375
  301MOL0     H40612   5.815  10.109  11.488  1.5296  3.4577 -2.4844
  301MOL0     H40613   5.751  10.117  11.721 -0.5544  0.0559 -2.3707
  301MOL0     H40614   5.847   9.959  11.692  0.7470  0.0884 -0.6392
  301MOL0     H40615   5.519  10.728  11.015  3.0575 -0.9209  1.4995
  301MOL0     H40616   5.446  10.818  10.794  1.1405 -1.3168 -1.7974
  301MOL0     H40617   5.546  11.117  10.461 -0.2304  0.4856  0.2748
  301MOL0     H40618   5.610  11.296  10.295 -1.2896  0.2739  1.0998
  301MOL0     H40619   6.988  11.072  10.422 -0.6577  1.5417  0.4859
  301MOL0     H40620   7.013  10.987  10.675 -1.5272  0.4404  2.5063
  301MOL0     H40621   6.647  10.721  11.054  1.7763 -3.2988 -0.5489
  301MOL0     H40622   6.673  10.737  11.296  3.2755  3.1786  3.0277
  301MOL0     H40623   6.897  10.637  11.590 -1.7305 -0.4831  1.4659
  301MOL0     H40624   6.751  10.642  11.486  0.2760 -1.3284  0.2574
  301MOL0     H40625   6.727  10.886  11.547  2.4896  4.3580  0.5501
  301MOL0     H40626   6.894  10.870  11.602  0.4839 -1.1406 -0.3161
  301MOL0     H40627   6.758  10.866  11.790 -0.9174  2.6060 -3.0808
  301MOL0     H40628   6.801  10.692  11.771 -0.2375 -0.5625 -0.9927
  301MOL0     H40629   6.542  10.826  11.676 -2.4743  0.2321  0.8682
  301MOL0     H40630   6.573  10.650  11.688  1.5869  0.8348 -0.4306
  301MOL0     H40631   6.468  10.765  12.088  2.7218 -3.2210  1.2155
  301MOL0     H40632   7.107  10.722  11.214  0.8665  0.6547  0.9422
  301MOL0     H40633   7.081  10.727  10.859  1.2484 -1.6260  1.3518
  301MOL0     H40634   7.085  10.897  10.932 -2.9517  0.4788  0.7216
  301MOL0     H40635   7.177  10.761  10.999 -1.6740 -1.8622  2.7793
  302MOL0     O40636   2.722   6.875   2.537  0.7190 -0.0867 -0.6634
  302MOL0     C40637   2.809   6.845   2.620  0.5728 -0.2459  0.0981
  302MOL0     O40638   2.905   6.750   2.593  0.1925  0.7885 -1.2256
  302MOL0     C40639   2.937   6.691   2.471  0.2642 -0.2015  0.4408
  302MOL0     C40640   3.058   6.617   2.467 -0.1599 -0.2912 -0.4215
  302MOL0     C40641   3.125   6.569   2.345 -0.2291  0.0497  0.4357
  302MOL0     C40642   3.047   6.585   2.229 -0.3400 -0.9563  0.8332
  302MOL0     O40643   3.108   6.544   2.109  0.0310 -0.0557  0.4183
  302MOL0     C40644   3.056   6.606   1.995 -0.1305  0.2462  0.5881
  302MOL0     C40645   3.168   6.609   1.898 -0.9144 -0.5624 -0.8116
  302MOL0     C40646   3.126   6.669   1.765 -0.6366 -0.1574 -0.1598
  302MOL0     C40647   3.058   6.573   1.673 -0.1631  1.0286  0.6488
  302MOL0     C40648   3.006   6.642   1.540 -0.2104 -0.0614 -0.3813
  302MOL0     C40649   2.928   6.544   1.462  0.9900  0.5485 -0.4771
  302MOL0     C40650   2.895   6.601   1.323 -0.3172  0.6382  0.0560
  302MOL0     C40651   2.847   6.506   1.214  0.0072  0.1012 -0.2123
  302MOL0     N40652   2.723   6.429   1.255 -0.1672 -0.4176 -0.5886
  302MOL0     C40653   2.737   6.327   1.342  0.4607  0.6236 -0.5920
  302MOL0     C40654   2.618   6.318   1.404  0.3959 -0.1834  0.1701
  302MOL0     C40655   2.573   6.200   1.489 -0.2629 -0.0593  1.3364
  302MOL0     C40656   2.545   6.259   1.629 -0.7712  0.3223  0.4152
  302MOL0     C40657   2.502   6.157   1.736 -0.0278  0.0891  0.5304
  302MOL0     C40658   2.428   6.211   1.854 -1.7162 -0.0041  0.6543
  302MOL0     O40659   2.380   6.107   1.939 -0.2724  0.3855  0.0948
  302MOL0     C40660   2.300   6.141   2.041 -0.2565 -0.4363  0.2065
  302MOL0     C40661   2.369   6.135   2.162 -0.8771 -0.8585  0.1276
  302MOL0     C40662   2.314   6.184   2.279  0.9374  0.3993  1.6046
  302MOL0     C40663   2.194   6.254   2.269 -0.6683 -0.1973  0.1074
  302MOL0     C40664   2.144   6.314   2.400 -0.2601 -0.9261  0.0776
  302MOL0     O40665   2.215   6.296   2.514 -0.0426 -0.5353 -0.0738
  302MOL0     C40666   2.161   6.315   2.638  0.4186 -0.2464  0.2922
  302MOL0     C40667   2.023   6.310   2.672  0.1064  0.3290 -0.2517
  302MOL0     C40668   1.989   6.354   2.799  0.2500  0.2434  0.1192
  302MOL0     C40669   2.086   6.377   2.898  0.4290 -0.5501 -0.7080
  302MOL0     O40670   2.058   6.406   3.025 -0.0173 -0.3163  0.3319
  302MOL0     C40671   1.950   6.507   3.048 -0.2822  1.0045  0.3877
  302MOL0     C40672   1.979   6.551   3.190  0.6800 -0.5942  0.8638
  302MOL0     C40673   2.066   6.674   3.210  0.2284 -0.9665 -0.9869
  302MOL0     C40674   1.981   6.803   3.198  0.8346  0.3404  1.3022
  302MOL0     C40675   2.066   6.929   3.234  0.2803  0.1251 -0.2379
  302MOL0     C40676   2.070   6.956   3.385 -0.0438 -1.0928  0.6511
  302MOL0     C40677   2.167   7.079   3.404  0.2160 -0.2082  0.1676
  302MOL0     C40678   2.171   7.136   3.545  0.3738  0.0174  0.2370
  302MOL0    Cl40679   2.017   7.223   3.585 -0.1201 -0.0584  0.1881
  302MOL0     C40680   2.221   6.371   2.862  0.1780  0.5542 -0.8648
  302MOL0     C40681   2.254   6.330   2.734  0.0378 -1.2339  0.2260
  302MOL0     O40682   2.035   6.374   2.394  0.0637  0.2285  1.1274
  302MOL0     C40683   2.126   6.269   2.141 -0.6520 -0.6358 -0.7773
  302MOL0     C40684   2.175   6.209   2.029  1.0241  0.0324  0.2520
  302MOL0     N40685   2.529   6.408   1.338  0.7176  0.8971 -0.2022
  302MOL0     N40686   2.599   6.476   1.247 -0.2833 -0.2320  0.0761
  302MOL0     C40687   2.919   6.641   2.235 -0.8831 -0.0648 -0.1486
  302MOL0     C40688   2.866   6.707   2.346  0.2303 -0.7447 -0.6187
  302MOL0     C40689   2.812   6.900   2.757 -0.2563  0.0728 -0.2312
  302MOL0     C40690   2.698   6.974   2.796 -0.0292  0.2471  1.0548
  302MOL0     C40691   2.688   7.028   2.924 -0.3358  0.1398 -0.6262
  302MOL0     C40692   2.775   7.005   3.034  0.4911  0.1112  0.3792
  302MOL0     O40693   2.745   7.050   3.162 -0.3410  0.4928 -0.9970
  302MOL0     C40694   2.841   7.052   3.268 -0.0006  0.0009  0.9234
  302MOL0     C40695   2.783   7.102   3.396  0.0372 -0.6792  0.2730
  302MOL0     C40696   2.704   6.999   3.475  0.3645 -0.9375  0.4130
  302MOL0     C40697   2.795   6.922   3.571  0.9416  0.2686 -0.4919
  302MOL0     C40698   2.803   6.990   3.704  0.9606 -0.4461 -0.0363
  302MOL0     C40699   2.805   7.033   3.818 -0.0241 -0.0601 -0.0585
  302MOL0     C40700   2.892   6.941   2.987  0.6168  0.8064  0.6816
  302MOL0     C40701   2.908   6.884   2.858  0.0975 -0.0089  0.8341
  302MOL0     C40702   3.046   6.833   2.822  0.0911  0.7821  0.0271
  302MOL0     H40703   3.111   6.607   2.562  0.2716 -1.9838 -0.7951
  302MOL0     H40704   3.226   6.529   2.347 -0.5549 -0.7757  1.5023
  302MOL0     H40705   2.992   6.527   1.954 -1.5936  0.2488  2.7072
  302MOL0     H40706   3.018   6.706   2.019 -1.0754  0.6220 -2.1214
  302MOL0     H40707   3.225   6.517   1.884  0.9650 -0.1794  3.0249
  302MOL0     H40708   3.245   6.670   1.946 -0.2815 -2.1807  0.2875
  302MOL0     H40709   3.213   6.701   1.707  0.1375  2.2421  2.1277
  302MOL0     H40710   3.067   6.760   1.779 -1.2660 -0.7482  1.1937
  302MOL0     H40711   3.117   6.483   1.650 -0.4755  1.3306 -1.6214
  302MOL0     H40712   2.971   6.535   1.727 -0.5447  1.0404  0.0512
  302MOL0     H40713   2.940   6.725   1.570  1.4936  1.2001  0.0284
  302MOL0     H40714   3.092   6.673   1.480  0.3802 -0.0036  0.4782
  302MOL0     H40715   2.986   6.453   1.444 -2.7896 -1.5446 -3.4955
  302MOL0     H40716   2.841   6.513   1.520  1.8426 -1.1364 -0.0126
  302MOL0     H40717   2.988   6.629   1.273 -0.3142 -2.2848 -1.7722
  302MOL0     H40718   2.815   6.676   1.334  1.2092  2.2110  0.9858
  302MOL0     H40719   2.822   6.551   1.118  1.8799  5.0384  1.2829
  302MOL0     H40720   2.922   6.430   1.191  1.1394  0.7015  1.3282
  302MOL0     H40721   2.819   6.261   1.370 -2.7828 -2.6868  2.3264
  302MOL0     H40722   2.483   6.147   1.455  0.9335 -1.7032  0.5234
  302MOL0     H40723   2.664   6.138   1.490  2.4106  3.5604  1.6976
  302MOL0     H40724   2.646   6.291   1.658 -0.2017 -0.7153 -0.3638
  302MOL0     H40725   2.475   6.343   1.620 -1.5098 -0.2089  1.0437
  302MOL0     H40726   2.594   6.103   1.762  0.2258 -0.7960 -1.9163
  302MOL0     H40727   2.433   6.083   1.694  0.3903 -0.2626  0.4561
  302MOL0     H40728   2.356   6.284   1.815  0.5169  2.0486  0.1263
  302MOL0     H40729   2.503   6.267   1.910 -0.3025  0.6039 -1.6776
  302MOL0     H40730   2.469   6.095   2.174 -0.6699 -0.2847  0.3230
  302MOL0     H40731   2.352   6.171   2.380 -0.2613  3.7285  2.6285
  302MOL0     H40732   1.948   6.276   2.602  1.3834 -1.7819 -0.6875
  302MOL0     H40733   1.883   6.366   2.818  0.2609  0.9604 -0.2177
  302MOL0     H40734   1.952   6.587   2.975  0.9313  1.9302  1.3834
  302MOL0     H40735   1.859   6.447   3.041  0.5218 -0.0570 -1.9135
  302MOL0     H40736   1.884   6.567   3.243  0.1223 -1.2295  0.0805
  302MOL0     H40737   2.033   6.474   3.245 -0.8610  0.2291  3.7300
  302MOL0     H40738   2.104   6.667   3.313 -0.5564 -0.3785 -0.6528
  302MOL0     H40739   2.141   6.679   3.130  1.3736 -1.8231 -0.0184
  302MOL0     H40740   1.900   6.803   3.271  0.4579  0.6953  0.8892
  302MOL0     H40741   1.930   6.820   3.103  0.0092 -2.5593  1.1236
  302MOL0     H40742   2.014   7.006   3.177  0.1799  0.0539 -0.2431
  302MOL0     H40743   2.159   6.905   3.181  0.8355 -1.1345  1.2256
  302MOL0     H40744   1.975   6.985   3.431 -1.5645 -0.3117 -2.7315
  302MOL0     H40745   2.115   6.866   3.429 -1.7216 -2.6941 -0.7696
  302MOL0     H40746   2.141   7.159   3.333 -0.0653  1.9212  2.5386
  302MOL0     H40747   2.267   7.038   3.389  1.1157  1.2666  1.8973
  302MOL0     H40748   2.179   7.052   3.615 -0.8652 -0.2331  0.1005
  302MOL0     H40749   2.264   7.192   3.539  0.7554 -0.7677 -4.2657
  302MOL0     H40750   2.297   6.373   2.939 -0.0374  0.4320 -0.6499
  302MOL0     H40751   2.357   6.322   2.701 -0.2234  1.9016 -1.6995
  302MOL0     H40752   2.031   6.320   2.126 -0.5275 -0.1145  0.1256
  302MOL0     H40753   2.141   6.221   1.927 -0.2789 -0.2620  0.6411
  302MOL0     H40754   2.870   6.623   2.140  0.6025  0.2949 -1.0140
  302MOL0     H40755   2.779   6.770   2.332  1.6093  0.8978 -2.3523
  302MOL0     H40756   2.628   6.997   2.716  0.4894 -2.2090 -0.2142
  302MOL0     H40757   2.610   7.090   2.965 -1.0319 -2.5076  2.4768
  302MOL0     H40758   2.932   7.109   3.244 -0.3010 -0.3905 -1.4076
  302MOL0     H40759   2.877   6.950   3.283  0.5127  0.2722  1.6039
  302MOL0     H40760   2.707   7.177   3.375  1.5498  0.5541 -1.0405
  302MOL0     H40761   2.852   7.150   3.467 -2.7121  0.2530  2.5205
  302MOL0     H40762   2.654   6.938   3.399 -0.9442  1.2605 -0.5848
  302MOL0     H40763   2.616   7.043   3.523 -1.0574 -0.9370 -2.0468
  302MOL0     H40764   2.768   6.816   3.576  0.7622  0.2058 -2.2446
  302MOL0     H40765   2.899   6.923   3.538  1.2497 -0.0981  0.4272
  302MOL0     H40766   2.805   7.070   3.919 -0.5702  2.0940 -0.7907
  302MOL0     H40767   2.971   6.912   3.055  0.9295 -1.0150 -0.3882
  302MOL0     H40768   3.041   6.724   2.826 -1.5004  0.7665 -1.1648
  302MOL0     H40769   3.084   6.856   2.722  0.9872 -0.5363  0.0470
  302MOL0     H40770   3.116   6.865   2.900  1.0686  1.2225 -0.9997
  303MOL0     O40771  11.410   9.872   8.779 -0.5975  0.0350 -1.1541
  303MOL0     C40772  11.409   9.788   8.688 -0.4304  0.5259 -0.3814
  303MOL0     O40773  11.482   9.676   8.678 -0.0759 -0.1559 -0.3643
  303MOL0     C40774  11.508   9.608   8.799 -0.4566 -0.4048  0.1245
  303MOL0     C40775  11.424   9.593   8.903 -0.2726  0.1570 -0.6190
  303MOL0     C40776  11.451   9.495   9.009  0.0830 -0.3791  0.3353
  303MOL0     C40777  11.568   9.415   9.008  0.1196 -0.2902  0.1763
  303MOL0     O40778  11.581   9.317   9.101 -0.1971 -0.4677 -0.4255
  303MOL0     C40779  11.721   9.282   9.132 -0.7321  0.4613 -0.9984
  303MOL0     C40780  11.709   9.189   9.252 -0.0699 -0.1940  0.1500
  303MOL0     C40781  11.662   9.257   9.380  0.0285  0.0449  0.6999
  303MOL0     C40782  11.637   9.155   9.486  0.7919  0.1827 -0.1538
  303MOL0     C40783  11.572   9.187   9.622  0.5904 -0.3007  0.2692
  303MOL0     C40784  11.675   9.231   9.731  1.0079 -0.5002  1.4744
  303MOL0     C40785  11.606   9.233   9.877 -0.5415 -0.2503 -0.5215
  303MOL0     C40786  11.621   9.108   9.954 -0.1625 -1.0499  0.0888
  303MOL0     N40787  11.514   9.004   9.957 -0.7008 -0.7591  1.2669
  303MOL0     C40788  11.377   9.018   9.935 -0.6071 -0.2792  0.5315
  303MOL0     C40789  11.336   8.894   9.943  0.0308  0.4783 -0.6948
  303MOL0     C40790  11.191   8.871   9.910 -0.1744 -0.2947  0.4770
  303MOL0     C40791  11.079   8.928  10.001 -0.6673 -0.8789  0.8900
  303MOL0     C40792  11.103   8.880  10.146 -0.2633 -0.5864 -0.2913
  303MOL0     C40793  11.018   8.955  10.244 -0.8352  0.7228  0.4704
  303MOL0     O40794  11.043   8.889  10.372 -0.2419 -0.6726  0.0557
  303MOL0     C40795  11.025   8.968  10.482  0.8524  0.1821 -0.1651
  303MOL0     C40796  10.989   9.107  10.474  0.2822  0.4393  0.8145
  303MOL0     C40797  10.967   9.185  10.582 -0.9409  0.1164  0.4250
  303MOL0     C40798  10.973   9.131  10.701 -0.2171  0.1836 -0.2146
  303MOL0     C40799  10.933   9.220  10.818 -0.3650  0.5970  0.2868
  303MOL0     O40800  10.974   9.170  10.946  0.2862  0.0644 -0.8534
  303MOL0     C40801  10.915   9.212  11.068 -0.4644 -0.5087 -0.3809
  303MOL0     C40802  10.888   9.350  11.096 -1.0357  0.3267 -0.1720
  303MOL0     C40803  10.862   9.387  11.226  0.3477 -0.4831  0.3951
  303MOL0     C40804  10.867   9.297  11.330  0.3508 -0.2274  0.2458
  303MOL0     O40805  10.824   9.328  11.455  0.5041 -0.2597 -0.0583
  303MOL0     C40806  10.876   9.454  11.503 -0.2533 -0.5196  0.6214
  303MOL0     C40807  10.902   9.470  11.653 -0.6954 -0.2512 -0.6028
  303MOL0     C40808  10.792   9.396  11.725 -0.0641 -0.2172 -0.4825
  303MOL0     C40809  10.837   9.372  11.871 -0.1710 -0.2508  0.0284
  303MOL0     C40810  10.937   9.245  11.890 -0.0237  0.8311  0.4303
  303MOL0     C40811  10.884   9.109  11.836 -0.4949 -0.4943  0.1219
  303MOL0     C40812  10.976   8.991  11.884 -0.9405 -0.1286  0.8194
  303MOL0     C40813  10.936   8.861  11.816  0.8544 -0.0204  0.4639
  303MOL0    Cl40814  11.058   8.741  11.865  0.0525 -0.1045 -0.4226
  303MOL0     C40815  10.882   9.154  11.306 -0.9348 -1.1316 -0.1706
  303MOL0     C40816  10.911   9.112  11.176 -0.1812 -0.2131 -0.4225
  303MOL0     O40817  10.849   9.309  10.804 -0.0063  0.5057 -0.4253
  303MOL0     C40818  11.012   8.998  10.716 -1.3457  0.7986 -0.4151
  303MOL0     C40819  11.042   8.914  10.608 -0.0026 -0.3261 -0.2188
  303MOL0     N40820  11.435   8.809   9.969  0.0418  0.2709 -0.4092
  303MOL0     N40821  11.546   8.870   9.968  0.1966 -0.4810  0.2133
  303MOL0     C40822  11.662   9.441   8.906 -0.0433  0.1734 -0.0236
  303MOL0     C40823  11.625   9.532   8.799  0.7190  0.1480 -0.3386
  303MOL0     C40824  11.357   9.828   8.557  0.3317  0.1068 -0.1838
  303MOL0     C40825  11.414   9.786   8.434 -0.5715 -0.9810 -0.1482
  303MOL0     C40826  11.367   9.837   8.315 -0.2595 -0.0733  0.0172
  303MOL0     C40827  11.257   9.918   8.314  0.6747  0.4145 -0.4216
  303MOL0     O40828  11.202   9.968   8.207  0.7145 -0.1500  0.6401
  303MOL0     C40829  11.272  10.070   8.140 -0.5203 -0.2708  0.1501
  303MOL0     C40830  11.190  10.195   8.118  0.6591 -0.0338  0.6650
  303MOL0     C40831  11.080  10.174   8.018  0.1332 -0.7054 -0.4676
  303MOL0     C40832  10.990  10.297   8.026  0.9210  0.5287  0.2915
  303MOL0     C40833  10.885  10.295   7.927  0.3444 -0.2885 -0.7832
  303MOL0     C40834  10.813  10.277   7.831  0.6387  1.1621  0.2021
  303MOL0     C40835  11.180   9.939   8.430 -0.2781  0.4465  0.3275
  303MOL0     C40836  11.228   9.898   8.551 -0.2224  1.4013  0.4161
  303MOL0     C40837  11.147   9.931   8.674 -0.1175  0.0810 -0.7537
  303MOL0     H40838  11.332   9.649   8.918 -0.8054 -1.1930  1.6769
  303MOL0     H40839  11.374   9.480   9.084  1.5676 -4.4072  1.2993
  303MOL0     H40840  11.766   9.219   9.055  2.3320 -2.7554  2.9490
  303MOL0     H40841  11.785   9.369   9.151 -0.7908  1.0540 -3.2105
  303MOL0     H40842  11.810   9.154   9.274  0.0719  1.1524  1.9026
  303MOL0     H40843  11.646   9.103   9.226  1.1193 -0.7310 -1.0547
  303MOL0     H40844  11.574   9.320   9.366 -2.1364 -3.1881 -1.8189
  303MOL0     H40845  11.741   9.324   9.413  1.8269 -1.4765 -0.2823
  303MOL0     H40846  11.571   9.080   9.441  2.5163 -1.7345  0.3015
  303MOL0     H40847  11.733   9.105   9.507  0.3552 -0.7974 -0.4201
  303MOL0     H40848  11.490   9.257   9.605 -2.1477 -3.2768  0.0065
  303MOL0     H40849  11.525   9.099   9.669 -3.1356  0.0481 -2.3706
  303MOL0     H40850  11.763   9.167   9.735 -0.3298 -2.4931  5.8903
  303MOL0     H40851  11.689   9.337   9.710 -0.1077  0.0852  3.4332
  303MOL0     H40852  11.500   9.257   9.876 -1.2217 -2.9140  0.4493
  303MOL0     H40853  11.646   9.323   9.925 -2.8374  1.3256 -1.4213
  303MOL0     H40854  11.721   9.068   9.936  1.0280  0.9058  2.0155
  303MOL0     H40855  11.630   9.133  10.060  0.1254 -1.8595  0.2630
  303MOL0     H40856  11.330   9.111   9.908  2.4827  0.9652 -1.0654
  303MOL0     H40857  11.182   8.912   9.809  2.3963 -0.9087 -0.0822
  303MOL0     H40858  11.182   8.763   9.895  4.1458 -0.8211  0.1671
  303MOL0     H40859  11.086   9.037  10.006  0.3235 -0.9755  4.7832
  303MOL0     H40860  10.979   8.901   9.966 -1.2647 -0.9465  2.5288
  303MOL0     H40861  11.207   8.897  10.178  0.8114 -2.0992 -2.6574
  303MOL0     H40862  11.081   8.773  10.151 -1.2845 -0.8670 -5.3827
  303MOL0     H40863  10.911   8.947  10.224 -0.7496 -1.5420  0.7157
  303MOL0     H40864  11.063   9.054  10.233  0.5599  0.0803  0.1608
  303MOL0     H40865  10.980   9.156  10.378  0.5620 -0.1460  0.4886
  303MOL0     H40866  10.938   9.289  10.568 -0.9913  0.0319 -0.1481
  303MOL0     H40867  10.895   9.432  11.025 -0.8436 -0.0955 -0.6456
  303MOL0     H40868  10.825   9.485  11.252 -3.0690 -2.1784  2.8639
  303MOL0     H40869  10.969   9.479  11.452 -0.7726  2.0032  0.7469
  303MOL0     H40870  10.799   9.529  11.483  1.6134  1.9749  2.1163
  303MOL0     H40871  10.999   9.435  11.690 -0.0112  1.2431 -0.9169
  303MOL0     H40872  10.898   9.577  11.674 -1.3938 -0.2420 -0.7548
  303MOL0     H40873  10.701   9.457  11.717 -1.3293 -1.5817  2.0929
  303MOL0     H40874  10.777   9.300  11.674  1.7449 -0.1299 -1.2383
  303MOL0     H40875  10.739   9.354  11.917  0.3095  1.2388  1.7672
  303MOL0     H40876  10.877   9.460  11.922  2.2951 -1.2039 -0.1661
  303MOL0     H40877  10.966   9.237  11.995 -1.0060 -0.8642  0.6136
  303MOL0     H40878  11.026   9.268  11.831  0.1377 -2.0986 -0.6531
  303MOL0     H40879  10.783   9.087  11.869 -1.3538  0.1787 -1.9047
  303MOL0     H40880  10.871   9.104  11.728 -0.3171 -0.1146  0.0795
  303MOL0     H40881  10.978   8.985  11.994  2.2526  1.8702  0.9891
  303MOL0     H40882  11.080   9.008  11.857 -0.4611 -0.2548  2.4404
  303MOL0     H40883  10.831   8.835  11.828  0.9674 -1.6948 -1.6138
  303MOL0     H40884  10.940   8.862  11.707 -0.3499 -0.5877  0.4000
  303MOL0     H40885  10.878   9.085  11.390  0.0815 -1.2739 -0.2348
  303MOL0     H40886  10.942   9.010  11.154  2.3825  0.7204 -1.6105
  303MOL0     H40887  11.011   8.960  10.818 -1.7109 -0.8499 -1.0043
  303MOL0     H40888  11.061   8.807  10.619 -3.9069 -1.0878  0.5750
  303MOL0     H40889  11.758   9.390   8.900 -0.7283 -1.2357  0.4619
  303MOL0     H40890  11.694   9.545   8.716 -0.4167  0.2721 -1.2921
  303MOL0     H40891  11.506   9.729   8.439  0.0511  0.0850  1.0750
  303MOL0     H40892  11.423   9.823   8.223  2.9384  0.6891  1.6862
  303MOL0     H40893  11.304  10.031   8.044  1.6246  2.4476 -0.3665
  303MOL0     H40894  11.363  10.086   8.198 -1.6255  1.9869  1.4052
  303MOL0     H40895  11.255  10.280   8.098  1.8146 -0.8076  0.9929
  303MOL0     H40896  11.148  10.221   8.216  3.7604  3.0820  1.3648
  303MOL0     H40897  11.027  10.085   8.054  0.6651  0.4508  3.7493
  303MOL0     H40898  11.124  10.144   7.922 -3.3583 -3.7918 -1.3408
  303MOL0     H40899  10.947  10.298   8.127  0.7648 -0.3638  0.2456
  303MOL0     H40900  11.053  10.381   7.999  1.6145  0.4384  1.5447
  303MOL0     H40901  10.740  10.244   7.760  0.2652  0.0179  1.0743
  303MOL0     H40902  11.099  10.011   8.423  0.2778  1.1202  0.7645
  303MOL0     H40903  11.189  10.000   8.748  2.8503 -2.0046 -0.2870
  303MOL0     H40904  11.058   9.988   8.648 -1.0178 -2.0988 -2.8688
  303MOL0     H40905  11.114   9.838   8.721  0.5849  1.3339  2.4265
  304MOL0     O40906   7.406   1.729   7.970  0.4859  0.6867  0.6576
  304MOL0     C40907   7.300   1.664   7.994 -0.2140  0.0043  1.1895
  304MOL0     O40908   7.297   1.534   8.023 -0.2695 -0.3290  0.5004
  304MOL0     C40909   7.419   1.459   8.032  0.5116  0.4432  0.5184
  304MOL0     C40910   7.418   1.347   7.953 -0.0926 -0.2494  0.6082
  304MOL0     C40911   7.534   1.270   7.959  0.3458 -0.6635 -0.1900
  304MOL0     C40912   7.649   1.299   8.034  0.0470 -0.0239 -0.3852
  304MOL0     O40913   7.746   1.210   8.015 -0.7680  1.2856 -0.7742
  304MOL0     C40914   7.820   1.179   8.133 -1.0716  0.3398 -0.7390
  304MOL0     C40915   7.865   1.030   8.126  0.4512 -0.6239  0.0568
  304MOL0     C40916   7.735   0.948   8.096  0.9685 -0.1072 -0.6638
  304MOL0     C40917   7.732   0.895   7.948  0.2772 -0.6731  0.1803
  304MOL0     C40918   7.595   0.846   7.922  0.8068 -0.3366  0.0728
  304MOL0     C40919   7.591   0.748   7.801  0.4249  0.1258 -1.0388
  304MOL0     C40920   7.449   0.732   7.742  0.6093  0.0724 -0.8801
  304MOL0     C40921   7.438   0.671   7.602  0.3876 -0.0433  0.5236
  304MOL0     N40922   7.431   0.773   7.503  0.5849  0.7621 -0.1456
  304MOL0     C40923   7.503   0.884   7.494  0.6872  0.0019  0.1122
  304MOL0     C40924   7.448   0.965   7.396  0.1431  0.1938 -0.7020
  304MOL0     C40925   7.476   1.110   7.384  0.4697 -0.3243  0.4321
  304MOL0     C40926   7.444   1.199   7.503 -1.1107  1.0161 -0.5864
  304MOL0     C40927   7.483   1.350   7.484  0.2693  0.2259 -1.1868
  304MOL0     C40928   7.441   1.424   7.609 -0.1799  0.3350 -0.3794
  304MOL0     O40929   7.305   1.402   7.640 -0.1232  0.2580  0.6414
  304MOL0     C40930   7.211   1.498   7.612  1.3938  0.4274 -1.1090
  304MOL0     C40931   7.080   1.459   7.644  0.5261  0.4410  1.2847
  304MOL0     C40932   6.975   1.548   7.624 -0.6753 -0.2520  1.2095
  304MOL0     C40933   6.999   1.680   7.571  0.1319  0.4014  0.8113
  304MOL0     C40934   6.881   1.768   7.538  0.0418 -0.4627  1.1100
  304MOL0     O40935   6.756   1.710   7.535  0.2222  0.1751 -0.4440
  304MOL0     C40936   6.658   1.786   7.478  0.1665 -0.7012 -0.0627
  304MOL0     C40937   6.663   1.862   7.362 -1.0619 -0.3059  0.9329
  304MOL0     C40938   6.551   1.929   7.315  0.0658  0.9842 -0.0580
  304MOL0     C40939   6.431   1.927   7.387  0.6657 -0.4272 -0.1922
  304MOL0     O40940   6.311   1.976   7.344 -0.0070  0.4757 -0.7030
  304MOL0     C40941   6.312   2.044   7.219 -0.7983 -0.0875 -0.5659
  304MOL0     C40942   6.168   2.061   7.187 -0.7766 -0.0130  0.3906
  304MOL0     C40943   6.138   2.154   7.071 -0.1077 -0.6593  0.0261
  304MOL0     C40944   5.984   2.181   7.063 -0.4733  0.2119  0.2042
  304MOL0     C40945   5.934   2.282   6.959 -0.1422  0.5063 -0.0597
  304MOL0     C40946   5.986   2.255   6.814 -0.9747 -0.2617 -0.4008
  304MOL0     C40947   5.910   2.347   6.721  0.2211  0.7205 -0.1389
  304MOL0     C40948   5.947   2.317   6.581 -0.9113 -0.5880  0.0422
  304MOL0    Cl40949   5.843   2.399   6.462  0.3454 -0.4295  0.0630
  304MOL0     C40950   6.433   1.862   7.508  0.1128 -0.2939  0.5418
  304MOL0     C40951   6.536   1.785   7.548 -0.3491  0.8374 -0.2417
  304MOL0     O40952   6.915   1.886   7.520  0.2803 -0.1440  0.3180
  304MOL0     C40953   7.129   1.714   7.530 -0.4244  0.7750 -0.3986
  304MOL0     C40954   7.234   1.627   7.563 -0.3391 -1.3777 -0.5991
  304MOL0     N40955   7.360   0.891   7.324  0.3309  0.1155 -0.1393
  304MOL0     N40956   7.349   0.782   7.385  0.6229  0.3161 -0.2585
  304MOL0     C40957   7.652   1.416   8.104 -0.1421 -0.0037  0.7348
  304MOL0     C40958   7.531   1.499   8.103  0.2851  0.3450  0.6219
  304MOL0     C40959   7.176   1.742   8.006  0.7922  0.4378 -0.7487
  304MOL0     C40960   7.066   1.693   7.942 -0.4743  0.8507  0.9813
  304MOL0     C40961   6.943   1.757   7.921 -1.0520  0.3631  0.0216
  304MOL0     C40962   6.933   1.878   7.996  0.8298 -0.1439  0.8261
  304MOL0     O40963   6.827   1.957   7.979  0.4006  0.4386  0.0562
  304MOL0     C40964   6.694   1.896   7.968 -0.3822  0.0454 -0.1642
  304MOL0     C40965   6.592   2.003   7.956  0.5586 -0.4745  0.7238
  304MOL0     C40966   6.580   2.114   8.059 -0.3707 -1.6478 -0.3168
  304MOL0     C40967   6.459   2.228   8.052 -0.2814 -0.1732  1.0344
  304MOL0     C40968   6.390   2.213   7.926 -0.4420  0.1185  0.1353
  304MOL0     C40969   6.309   2.198   7.836 -0.1061 -0.1034 -0.3345
  304MOL0     C40970   7.036   1.922   8.080  0.1031  0.3607  0.4270
  304MOL0     C40971   7.159   1.860   8.080 -1.3892 -0.9837  0.3510
  304MOL0     C40972   7.275   1.928   8.157  0.7142 -0.9219 -0.3798
  304MOL0     H40973   7.341   1.331   7.878 -0.4424 -2.6426  1.3723
  304MOL0     H40974   7.541   1.188   7.888  0.1154  1.1838 -2.4579
  304MOL0     H40975   7.905   1.248   8.137 -0.8829  0.0946  2.1490
  304MOL0     H40976   7.768   1.183   8.229  0.6700 -3.2810  0.5508
  304MOL0     H40977   7.914   1.004   8.220  1.9976  5.0541  1.2084
  304MOL0     H40978   7.939   1.021   8.046 -1.3364 -1.2716 -1.6103
  304MOL0     H40979   7.637   0.991   8.117  1.3391  0.7914 -0.7373
  304MOL0     H40980   7.730   0.870   8.173  0.9180  3.2411  3.0256
  304MOL0     H40981   7.763   0.981   7.889  2.2499 -0.1060  1.8934
  304MOL0     H40982   7.802   0.810   7.948  0.6927 -0.3801  1.9000
  304MOL0     H40983   7.555   0.794   8.009 -1.9457 -0.0061 -0.8805
  304MOL0     H40984   7.533   0.933   7.899  2.1284  0.6808  0.2199
  304MOL0     H40985   7.656   0.783   7.720  1.4176 -2.3216 -1.3862
  304MOL0     H40986   7.629   0.648   7.822 -1.3632 -0.6047 -1.0611
  304MOL0     H40987   7.381   0.817   7.753 -0.2395 -0.6970  0.0013
  304MOL0     H40988   7.402   0.661   7.811  0.1200  2.7650  1.7875
  304MOL0     H40989   7.502   0.584   7.585  0.8463  0.2655  0.6537
  304MOL0     H40990   7.343   0.618   7.591  0.6427 -0.9038  2.0891
  304MOL0     H40991   7.597   0.906   7.543  1.7627  2.0144 -2.6432
  304MOL0     H40992   7.577   1.132   7.347 -0.5676  3.1589 -0.6590
  304MOL0     H40993   7.412   1.152   7.307 -0.2656 -0.1314  1.1301
  304MOL0     H40994   7.336   1.187   7.507 -0.9352 -0.3512  1.4599
  304MOL0     H40995   7.485   1.162   7.597  0.1560  1.9096 -0.7586
  304MOL0     H40996   7.425   1.389   7.399 -1.5984 -1.3960 -0.7304
  304MOL0     H40997   7.590   1.364   7.466  0.9295 -0.3121  1.7798
  304MOL0     H40998   7.471   1.529   7.598 -2.6877  1.0755 -0.7525
  304MOL0     H40999   7.504   1.382   7.688  1.9507 -1.3136 -2.8148
  304MOL0     H41000   7.062   1.359   7.682  1.7318  0.8640  3.0333
  304MOL0     H41001   6.870   1.523   7.631 -0.9223 -0.4565 -2.0973
  304MOL0     H41002   6.755   1.867   7.305 -0.9167 -0.7437  1.1231
  304MOL0     H41003   6.564   1.980   7.220  0.6612 -0.7168 -0.9447
  304MOL0     H41004   6.352   2.145   7.227  0.8114 -0.7563  0.1941
  304MOL0     H41005   6.360   1.991   7.136 -1.0971  2.5357 -2.5358
  304MOL0     H41006   6.119   1.964   7.173  1.9100 -1.2598 -1.1487
  304MOL0     H41007   6.121   2.111   7.273 -1.4555  2.0109 -1.0707
  304MOL0     H41008   6.187   2.251   7.084 -3.4395  0.8392  3.2458
  304MOL0     H41009   6.173   2.116   6.974 -1.8350  1.9317 -1.7375
  304MOL0     H41010   5.954   2.221   7.160  0.5287 -1.5239  1.2800
  304MOL0     H41011   5.930   2.086   7.066 -0.4322  0.2194  1.8221
  304MOL0     H41012   5.946   2.387   6.987 -1.8458  0.7593 -0.2054
  304MOL0     H41013   5.826   2.268   6.959 -0.5395  3.1415  0.4941
  304MOL0     H41014   6.093   2.276   6.816 -0.4798 -2.5063  2.1741
  304MOL0     H41015   5.978   2.150   6.786  2.1260 -1.2670  1.8750
  304MOL0     H41016   5.925   2.454   6.737  1.3935  0.2536  2.2773
  304MOL0     H41017   5.805   2.319   6.731  0.7731 -3.0596 -2.6538
  304MOL0     H41018   6.045   2.347   6.542 -1.0158 -0.7789 -0.3755
  304MOL0     H41019   5.943   2.207   6.577  2.1236 -0.7849  0.2969
  304MOL0     H41020   6.346   1.853   7.573 -0.1445  0.2097  0.2759
  304MOL0     H41021   6.503   1.732   7.637  0.6877  0.3859 -0.1136
  304MOL0     H41022   7.156   1.813   7.495 -0.8936  0.8090 -0.6688
  304MOL0     H41023   7.331   1.651   7.523 -0.6780  0.7150 -0.3146
  304MOL0     H41024   7.748   1.440   8.149  1.4102 -2.4288 -1.0041
  304MOL0     H41025   7.519   1.587   8.166 -6.0848 -0.9506  1.9006
  304MOL0     H41026   7.086   1.598   7.892 -2.5254  0.9286 -0.0922
  304MOL0     H41027   6.865   1.714   7.859 -1.3112 -1.1933  1.3509
  304MOL0     H41028   6.675   1.828   8.051  1.4128  0.8754  0.9927
  304MOL0     H41029   6.691   1.842   7.873  3.5523  0.7962 -0.8915
  304MOL0     H41030   6.493   1.959   7.939  0.1637  1.1504 -1.6938
  304MOL0     H41031   6.611   2.055   7.862 -1.6195 -0.9739 -0.0604
  304MOL0     H41032   6.674   2.168   8.071 -0.2830 -1.8480 -0.1042
  304MOL0     H41033   6.573   2.070   8.159  4.6984 -2.0060  0.1272
  304MOL0     H41034   6.386   2.224   8.134 -0.3577  3.9881  1.3886
  304MOL0     H41035   6.505   2.327   8.041  0.9678 -0.9411 -1.4254
  304MOL0     H41036   6.234   2.189   7.760  0.8537  0.4260 -1.3644
  304MOL0     H41037   7.014   2.010   8.140 -0.7517 -0.7662  1.8037
  304MOL0     H41038   7.358   1.870   8.198  3.3913  3.4608  1.0924
  304MOL0     H41039   7.312   2.012   8.096 -1.4086  1.7183  1.7459
  304MOL0     H41040   7.227   1.980   8.240  1.7060  1.5421 -1.2531
  305MOL0     O41041   4.990   8.580   8.869 -0.0056  0.1246 -0.2971
  305MOL0     C41042   5.083   8.660   8.836  0.8944  1.0355 -0.4706
  305MOL0     O41043   5.084   8.742   8.736  0.3319  0.1691  0.2460
  305MOL0     C41044   5.022   8.708   8.619  0.4108 -0.4962  0.0751
  305MOL0     C41045   4.933   8.800   8.570 -0.7101 -0.2813 -0.0027
  305MOL0     C41046   4.850   8.772   8.465 -0.5512 -0.6731 -0.5563
  305MOL0     C41047   4.859   8.656   8.385 -0.9597  0.3139 -0.7539
  305MOL0     O41048   4.776   8.629   8.276  0.2937  0.7022  0.5979
  305MOL0     C41049   4.682   8.722   8.234  0.5327 -0.2980  0.6718
  305MOL0     C41050   4.535   8.711   8.287  0.2320 -0.4613  0.8222
  305MOL0     C41051   4.455   8.596   8.219  0.5611 -0.2470  0.0281
  305MOL0     C41052   4.532   8.463   8.220 -0.7737  0.1831 -0.3324
  305MOL0     C41053   4.452   8.345   8.165  0.1664  0.2350 -1.2470
  305MOL0     C41054   4.414   8.360   8.019  0.0942  0.3951 -0.1225
  305MOL0     C41055   4.264   8.408   7.996  0.6054 -0.0087  0.0111
  305MOL0     C41056   4.242   8.424   7.852  0.7498 -0.8624 -0.5574
  305MOL0     N41057   4.117   8.488   7.819  0.4908 -0.5421 -0.8914
  305MOL0     C41058   4.069   8.608   7.868  0.1556  0.1692  0.1384
  305MOL0     C41059   3.950   8.624   7.805 -0.6266  0.9557  1.1029
  305MOL0     C41060   3.847   8.729   7.826  0.1796 -0.4712 -0.1292
  305MOL0     C41061   3.859   8.840   7.729  1.0992  0.0505  0.3875
  305MOL0     C41062   3.725   8.903   7.710 -0.0999  0.8393 -0.0359
  305MOL0     C41063   3.748   9.060   7.705 -0.2716  0.7177 -0.7667
  305MOL0     O41064   3.623   9.110   7.741 -0.2757 -0.1152 -0.3307
  305MOL0     C41065   3.600   9.241   7.713  0.0376  0.3950  0.0904
  305MOL0     C41066   3.505   9.293   7.618 -0.6958 -0.1956 -0.3660
  305MOL0     C41067   3.483   9.427   7.598  0.5971 -0.0432  0.2002
  305MOL0     C41068   3.564   9.524   7.669 -0.7954  0.5238  0.2747
  305MOL0     C41069   3.542   9.667   7.649  0.1776  1.0018 -0.3446
  305MOL0     O41070   3.424   9.701   7.592 -0.1356 -0.4865  0.2656
  305MOL0     C41071   3.414   9.830   7.537  0.7985  0.2243 -0.8007
  305MOL0     C41072   3.498   9.873   7.425  0.4305  0.3383 -0.9187
  305MOL0     C41073   3.498   9.990   7.367  0.0284  0.1419 -0.4878
  305MOL0     C41074   3.419  10.082   7.418  0.0111 -0.9001  0.2445
  305MOL0     O41075   3.438  10.210   7.366 -0.0736  0.0016  0.1813
  305MOL0     C41076   3.327  10.230   7.270 -0.4352 -0.4127  0.3533
  305MOL0     C41077   3.355  10.367   7.186 -0.1425 -0.0047  0.6696
  305MOL0     C41078   3.224  10.390   7.102 -0.1521  0.6017 -0.1160
  305MOL0     C41079   3.171  10.528   7.093  0.0990 -0.7693 -0.4762
  305MOL0     C41080   3.069  10.547   6.985 -0.0727 -0.3702  0.5361
  305MOL0     C41081   2.992  10.685   6.985 -0.0173  0.0934  0.6368
  305MOL0     C41082   3.066  10.814   6.940  0.0756  0.2127  0.8624
  305MOL0     C41083   3.118  10.795   6.802 -0.7433 -0.9466 -0.1388
  305MOL0    Cl41084   3.125  10.950   6.734  0.3125 -0.1259 -0.0859
  305MOL0     C41085   3.341  10.063   7.535  0.4246 -0.5482 -0.2695
  305MOL0     C41086   3.341   9.932   7.599  0.6213 -0.8012  0.3270
  305MOL0     O41087   3.631   9.744   7.690  0.6037  0.8728  0.7033
  305MOL0     C41088   3.660   9.475   7.755 -0.3569  0.1504 -0.4867
  305MOL0     C41089   3.675   9.342   7.786 -1.2755  0.4382 -0.0959
  305MOL0     N41090   3.926   8.509   7.725 -0.2880  0.3576  0.0728
  305MOL0     N41091   4.023   8.427   7.743 -0.0501 -0.8219  0.0720
  305MOL0     C41092   4.957   8.567   8.429 -1.1290  0.3086 -0.1984
  305MOL0     C41093   5.036   8.590   8.545 -0.3519 -0.2095 -0.2700
  305MOL0     C41094   5.190   8.673   8.937  0.6659  0.1181  0.1701
  305MOL0     C41095   5.246   8.810   8.952  0.2813 -0.2971 -0.1022
  305MOL0     C41096   5.354   8.820   9.044 -0.4896 -0.0839  0.3749
  305MOL0     C41097   5.408   8.714   9.112 -0.1526  1.0570 -0.7496
  305MOL0     O41098   5.493   8.737   9.210 -0.1968 -0.4916  0.2448
  305MOL0     C41099   5.549   8.631   9.292 -0.4854  0.2915 -0.4661
  305MOL0     C41100   5.658   8.698   9.383 -0.6847  0.5132  0.5351
  305MOL0     C41101   5.749   8.608   9.458  0.1815  0.2424  0.0101
  305MOL0     C41102   5.870   8.665   9.525 -0.0619 -0.0009  0.2982
  305MOL0     C41103   5.970   8.719   9.438  0.8356 -0.2252 -0.8448
  305MOL0     C41104   6.041   8.774   9.357  0.0126 -0.1974 -0.0227
  305MOL0     C41105   5.353   8.587   9.084 -0.1662  0.1156 -0.2244
  305MOL0     C41106   5.242   8.561   9.003 -0.7416  0.2528 -0.6477
  305MOL0     C41107   5.204   8.414   8.981 -0.1946  0.5135  0.3333
  305MOL0     H41108   4.920   8.890   8.629 -1.7419 -1.5870  1.9176
  305MOL0     H41109   4.765   8.840   8.458  1.2595  1.7410 -0.2624
  305MOL0     H41110   4.716   8.825   8.252  1.4532 -0.3154 -0.7910
  305MOL0     H41111   4.686   8.727   8.124 -1.3504  3.1652  0.5903
  305MOL0     H41112   4.489   8.806   8.259  2.5849 -0.3639 -3.7109
  305MOL0     H41113   4.540   8.699   8.395  2.2398 -5.0677  0.4749
  305MOL0     H41114   4.421   8.625   8.119  2.9415  4.3224  0.2699
  305MOL0     H41115   4.363   8.582   8.276 -1.4322  2.3340 -2.3168
  305MOL0     H41116   4.609   8.463   8.142 -1.3287  0.8779 -0.9036
  305MOL0     H41117   4.561   8.448   8.325 -2.4689  4.9072  1.1079
  305MOL0     H41118   4.526   8.265   8.164  1.6008  1.5116 -0.8537
  305MOL0     H41119   4.366   8.315   8.225  0.5895  0.1633 -0.6666
  305MOL0     H41120   4.479   8.435   7.973 -0.6588  0.2972 -1.3894
  305MOL0     H41121   4.430   8.265   7.967 -1.9184  0.2107 -0.4931
  305MOL0     H41122   4.233   8.506   8.033 -1.6399 -0.8447  0.5017
  305MOL0     H41123   4.190   8.340   8.038 -0.9949  2.4992  1.5086
  305MOL0     H41124   4.327   8.480   7.810 -0.1667 -1.4294 -3.4333
  305MOL0     H41125   4.248   8.327   7.801  1.7743 -1.7877  1.2444
  305MOL0     H41126   4.116   8.673   7.941 -0.2438  1.0942 -0.4119
  305MOL0     H41127   3.744   8.695   7.840 -0.4313  1.3943  0.2720
  305MOL0     H41128   3.861   8.767   7.928 -2.9703  2.5424 -0.6105
  305MOL0     H41129   3.935   8.910   7.766  2.1218 -0.4335 -0.7304
  305MOL0     H41130   3.893   8.799   7.633 -0.1178 -0.2651  0.0806
  305MOL0     H41131   3.657   8.881   7.793  1.1748 -0.2534  0.7678
  305MOL0     H41132   3.672   8.881   7.617  0.5307 -2.4260  0.2621
  305MOL0     H41133   3.798   9.097   7.615  2.8263  0.0938  0.5472
  305MOL0     H41134   3.819   9.088   7.784 -1.1394  1.1505 -0.1228
  305MOL0     H41135   3.446   9.228   7.555 -0.0748  2.6851 -4.3628
  305MOL0     H41136   3.390   9.449   7.546 -0.2986  2.6588  2.6525
  305MOL0     H41137   3.559   9.795   7.381 -0.8258 -0.5657 -1.1286
  305MOL0     H41138   3.555  10.008   7.276 -0.9662 -1.2549 -1.4302
  305MOL0     H41139   3.316  10.147   7.200  0.6825 -1.9030  1.8600
  305MOL0     H41140   3.230  10.249   7.315 -1.2383 -0.7263 -1.1624
  305MOL0     H41141   3.367  10.453   7.254  3.5025 -0.4884  0.8072
  305MOL0     H41142   3.437  10.359   7.114 -0.2654 -1.5379  0.6768
  305MOL0     H41143   3.257  10.366   7.001  1.2170  2.5517 -0.1836
  305MOL0     H41144   3.144  10.321   7.133 -2.7794  2.9395 -1.1926
  305MOL0     H41145   3.244  10.608   7.079 -1.7949  1.1427  0.0789
  305MOL0     H41146   3.133  10.554   7.192  0.6984  0.8692 -0.6392
  305MOL0     H41147   2.998  10.464   6.993 -0.2631 -0.6289 -2.6158
  305MOL0     H41148   3.119  10.552   6.888 -3.1971  2.7729 -1.1533
  305MOL0     H41149   2.898  10.669   6.932 -1.6125  0.6660  3.0879
  305MOL0     H41150   2.949  10.695   7.086 -1.3919  1.6786 -0.0645
  305MOL0     H41151   3.146  10.846   7.007 -0.2004  3.0078  0.0177
  305MOL0     H41152   2.982  10.884   6.938 -2.0385 -2.1672  1.3062
  305MOL0     H41153   3.217  10.750   6.812 -1.1493 -2.5535 -2.5298
  305MOL0     H41154   3.064  10.721   6.742 -0.6734  0.6387 -2.2916
  305MOL0     H41155   3.285  10.142   7.585 -0.3531 -1.5751  0.5290
  305MOL0     H41156   3.307   9.934   7.702  1.7048  1.2253  0.7040
  305MOL0     H41157   3.720   9.548   7.807 -3.7807  0.1885  4.0611
  305MOL0     H41158   3.743   9.308   7.863 -4.8507 -2.3907  2.1670
  305MOL0     H41159   4.969   8.468   8.386  3.1039 -0.3156  1.9530
  305MOL0     H41160   5.111   8.530   8.595  0.1665  1.6071  1.2487
  305MOL0     H41161   5.207   8.899   8.905  1.4893 -0.3214 -1.2387
  305MOL0     H41162   5.402   8.915   9.065  0.0619 -0.4609  0.8342
  305MOL0     H41163   5.586   8.550   9.227 -1.1459 -0.3450 -0.0642
  305MOL0     H41164   5.480   8.578   9.358 -0.2346 -0.6746 -0.9428
  305MOL0     H41165   5.600   8.766   9.448 -0.9818 -0.5677  1.4320
  305MOL0     H41166   5.722   8.755   9.316 -1.3465  0.4035 -0.2105
  305MOL0     H41167   5.787   8.528   9.395 -0.8862 -0.8204  0.6753
  305MOL0     H41168   5.690   8.554   9.532  2.7940 -3.1864 -0.1640
  305MOL0     H41169   5.832   8.739   9.596 -1.1896  0.8087 -1.0894
  305MOL0     H41170   5.924   8.589   9.582  2.7611  2.8621  1.7285
  305MOL0     H41171   6.112   8.818   9.290  1.3016 -0.8711  0.8459
  305MOL0     H41172   5.395   8.498   9.128 -1.7771 -1.6912 -2.1461
  305MOL0     H41173   5.097   8.403   9.003 -1.1199  2.5288 -2.5345
  305MOL0     H41174   5.224   8.383   8.878 -0.2110 -0.6120  0.6563
  305MOL0     H41175   5.244   8.342   9.053 -3.3381 -0.3506  1.3746
  306MOL0     O41176   3.481  10.736   6.050  0.8712 -0.5368 -0.1432
  306MOL0     C41177   3.494  10.671   6.160 -0.2183  0.0361 -0.5308
  306MOL0     O41178   3.523  10.536   6.181 -0.7038 -0.5603 -0.3432
  306MOL0     C41179   3.558  10.476   6.069 -0.8425 -0.1375 -0.0793
  306MOL0     C41180   3.482  10.403   5.984  0.8154 -0.3693 -0.1418
  306MOL0     C41181   3.534  10.344   5.862  0.2059  0.7751 -0.0731
  306MOL0     C41182   3.677  10.335   5.864 -0.4401 -0.0522  0.4908
  306MOL0     O41183   3.722  10.247   5.776 -0.6520  0.3399  0.4889
  306MOL0     C41184   3.861  10.273   5.725  0.4217 -1.1545  0.5340
  306MOL0     C41185   3.858  10.205   5.587 -0.1481 -0.0196 -0.3352
  306MOL0     C41186   3.792  10.290   5.481 -0.2251  1.0617  0.4107
  306MOL0     C41187   3.644  10.291   5.492  0.8506  0.6445  0.6834
  306MOL0     C41188   3.570  10.353   5.369  0.1528  0.5158 -0.4414
  306MOL0     C41189   3.561  10.277   5.240  0.5306  0.7391  0.5663
  306MOL0     C41190   3.508  10.369   5.129  0.3178 -0.1190  0.8264
  306MOL0     C41191   3.489  10.299   4.989 -0.3682  0.3296 -0.6882
  306MOL0     N41192   3.360  10.226   4.963 -1.6550  0.0894  0.5119
  306MOL0     C41193   3.234  10.273   4.973 -0.7542 -0.2566 -0.3004
  306MOL0     C41194   3.157  10.165   4.939  0.0821  0.1805  0.0128
  306MOL0     C41195   3.004  10.162   4.910 -0.4412  0.5924 -0.7294
  306MOL0     C41196   2.927  10.048   4.989 -0.3544  0.1773  0.0676
  306MOL0     C41197   2.901  10.087   5.136  0.0165  1.2576 -0.1114
  306MOL0     C41198   2.864   9.963   5.209  0.3777  0.8995  0.5208
  306MOL0     O41199   2.739   9.914   5.163 -0.1967 -0.0536  0.4085
  306MOL0     C41200   2.686   9.802   5.223  0.1779 -0.2847  0.3610
  306MOL0     C41201   2.556   9.760   5.187  0.6902  0.4742 -0.2493
  306MOL0     C41202   2.515   9.633   5.232 -0.0339  0.1065  0.9712
  306MOL0     C41203   2.585   9.554   5.317 -0.6627 -0.7702 -1.2709
  306MOL0     C41204   2.535   9.417   5.348  0.6694  0.3132  0.0067
  306MOL0     O41205   2.427   9.376   5.281  0.6087  0.7445 -0.6643
  306MOL0     C41206   2.376   9.247   5.299 -0.4474 -0.4156  0.3396
  306MOL0     C41207   2.397   9.134   5.219 -0.3472  0.6218 -0.0178
  306MOL0     C41208   2.341   9.012   5.273 -0.4755  0.1817 -0.3168
  306MOL0     C41209   2.274   8.999   5.387 -0.4171  0.8328  0.4086
  306MOL0     O41210   2.234   8.870   5.421  0.0630 -1.3784 -0.0893
  306MOL0     C41211   2.168   8.844   5.544 -0.2224  0.2719  0.4656
  306MOL0     C41212   2.156   8.697   5.583  0.1828  0.6079  1.0720
  306MOL0     C41213   2.046   8.669   5.687 -0.7792  0.1086 -0.2020
  306MOL0     C41214   2.031   8.518   5.730  0.6645  1.2929  0.0565
  306MOL0     C41215   1.945   8.486   5.860 -0.0779  0.2668 -1.4947
  306MOL0     C41216   1.826   8.390   5.847 -0.1653  0.3535  0.9363
  306MOL0     C41217   1.869   8.242   5.808 -0.3134 -0.6789  0.7355
  306MOL0     C41218   1.752   8.150   5.787 -0.0774  0.1993  0.0452
  306MOL0    Cl41219   1.665   8.142   5.949 -0.1744 -0.1155 -0.1146
  306MOL0     C41220   2.244   9.112   5.454 -0.0474  0.4968 -0.1384
  306MOL0     C41221   2.290   9.233   5.409  0.3770 -0.8877 -0.4723
  306MOL0     O41222   2.603   9.349   5.419 -0.5018  0.6671  0.2685
  306MOL0     C41223   2.708   9.602   5.376 -0.2854 -1.1659 -0.1621
  306MOL0     C41224   2.754   9.722   5.325 -0.2698 -0.9602  0.0214
  306MOL0     N41225   3.241  10.059   4.908 -0.1644 -0.5872 -0.4775
  306MOL0     N41226   3.363  10.097   4.922  0.1842  0.9715  0.4889
  306MOL0     C41227   3.758  10.405   5.952 -0.5719 -0.2647 -0.7047
  306MOL0     C41228   3.698  10.474   6.055 -0.8625 -0.0747  0.1699
  306MOL0     C41229   3.473  10.758   6.282 -0.0763 -0.0197  0.5162
  306MOL0     C41230   3.430  10.885   6.257 -0.9194  0.0055  0.0597
  306MOL0     C41231   3.419  10.980   6.352 -0.3373 -0.6493 -0.3290
  306MOL0     C41232   3.456  10.950   6.485  0.5203  0.8495  0.0707
  306MOL0     O41233   3.463  11.040   6.591 -0.4044 -0.1188 -0.3218
  306MOL0     C41234   3.407  11.166   6.577 -0.2250  0.8085  0.0269
  306MOL0     C41235   3.426  11.227   6.706  0.0968 -0.5220 -0.0187
  306MOL0     C41236   3.363  11.365   6.714  0.9642  0.8683 -0.3139
  306MOL0     C41237   3.409  11.462   6.612 -0.1345  0.3249 -0.8071
  306MOL0     C41238   3.377  11.606   6.651 -0.2106  0.2245  0.8380
  306MOL0     C41239   3.351  11.719   6.682  0.2301  0.6818 -0.1487
  306MOL0     C41240   3.505  10.822   6.515  0.5988  0.2756  1.6398
  306MOL0     C41241   3.509  10.723   6.414  0.0143 -0.5896  0.7318
  306MOL0     C41242   3.580  10.598   6.449  0.0542 -0.4561 -0.0988
  306MOL0     H41243   3.374  10.408   5.997  0.3869 -0.2394 -3.0679
  306MOL0     H41244   3.475  10.296   5.785  1.4772  1.1939 -1.3520
  306MOL0     H41245   3.887  10.378   5.705  0.9297 -1.5805 -1.1643
  306MOL0     H41246   3.936  10.226   5.788 -0.5462 -2.0138  1.0706
  306MOL0     H41247   3.808  10.110   5.607 -0.4713  0.5934  2.1185
  306MOL0     H41248   3.962  10.183   5.558 -0.3569 -0.9043 -0.4426
  306MOL0     H41249   3.827  10.262   5.381 -0.4169  0.5443  0.4882
  306MOL0     H41250   3.828  10.393   5.489  2.9042 -0.0205  2.0635
  306MOL0     H41251   3.612  10.194   5.530 -0.0414  0.1816 -1.1533
  306MOL0     H41252   3.620  10.358   5.575 -3.3770  0.4236 -0.1457
  306MOL0     H41253   3.467  10.372   5.402  0.0199 -0.8840  0.0422
  306MOL0     H41254   3.614  10.449   5.342  0.3415  0.9591  1.3441
  306MOL0     H41255   3.661  10.237   5.217 -0.6751 -3.7698  2.2762
  306MOL0     H41256   3.480  10.205   5.248  0.4013  0.9775  1.5401
  306MOL0     H41257   3.582  10.448   5.115 -1.4878  1.8087  1.5629
  306MOL0     H41258   3.419  10.423   5.163  1.4326 -0.1364  4.1726
  306MOL0     H41259   3.497  10.379   4.915  0.2209  2.5873  1.6575
  306MOL0     H41260   3.573  10.229   4.982 -1.1878 -0.9871  1.4909
  306MOL0     H41261   3.207  10.378   4.986 -2.8548 -0.5768 -1.5712
  306MOL0     H41262   2.968  10.263   4.932 -2.0263 -0.1408  0.2710
  306MOL0     H41263   2.982  10.138   4.806 -1.4397 -1.8012 -0.0485
  306MOL0     H41264   2.831  10.035   4.938 -0.0469  1.2936 -0.8262
  306MOL0     H41265   2.975   9.950   4.976  1.7823  1.3949 -2.2285
  306MOL0     H41266   2.818  10.156   5.153 -0.4198  0.4233  1.4066
  306MOL0     H41267   2.991  10.130   5.180  1.1908 -0.5411 -0.6328
  306MOL0     H41268   2.859   9.976   5.317  2.2483 -0.4816  0.8205
  306MOL0     H41269   2.938   9.885   5.188  1.2329  1.8607 -0.1075
  306MOL0     H41270   2.494   9.830   5.132  1.2488  0.2906 -1.1291
  306MOL0     H41271   2.426   9.588   5.189  0.4554  0.5805 -0.6116
  306MOL0     H41272   2.440   9.139   5.119  0.0621 -0.3436  0.1040
  306MOL0     H41273   2.357   8.923   5.213  2.6540  1.5427 -1.7786
  306MOL0     H41274   2.224   8.895   5.624  0.7284 -0.4321  0.2750
  306MOL0     H41275   2.073   8.896   5.530  0.8038  1.6275 -2.2898
  306MOL0     H41276   2.119   8.643   5.495 -2.6968  3.3817  0.3576
  306MOL0     H41277   2.249   8.658   5.625 -0.5718 -1.3178  1.0590
  306MOL0     H41278   2.053   8.735   5.774 -1.9534 -0.7656  0.5861
  306MOL0     H41279   1.953   8.708   5.645 -1.6297  2.4910  3.3992
  306MOL0     H41280   2.132   8.479   5.728  0.8174  1.4522  2.0102
  306MOL0     H41281   1.982   8.470   5.645  3.8272  0.5394 -1.4873
  306MOL0     H41282   1.892   8.575   5.894  1.9683  0.5232  1.4268
  306MOL0     H41283   2.008   8.456   5.944  2.5340  0.3325 -3.2802
  306MOL0     H41284   1.800   8.373   5.952  0.8362 -0.2639  1.0940
  306MOL0     H41285   1.747   8.427   5.781 -1.7526 -2.6663  0.9730
  306MOL0     H41286   1.930   8.198   5.887  1.3727 -1.5088 -0.9783
  306MOL0     H41287   1.924   8.230   5.714 -0.5182 -2.3731  0.8028
  306MOL0     H41288   1.692   8.187   5.704  1.3198 -0.6077 -1.3740
  306MOL0     H41289   1.794   8.053   5.758  0.5600  0.9138 -1.5782
  306MOL0     H41290   2.175   9.096   5.536  0.5103 -3.1687 -0.2170
  306MOL0     H41291   2.255   9.318   5.466 -1.7809 -0.8990 -1.7105
  306MOL0     H41292   2.764   9.546   5.450 -1.4444 -0.2282  1.4902
  306MOL0     H41293   2.857   9.743   5.354  0.8917 -1.2640 -3.4201
  306MOL0     H41294   3.866  10.406   5.940 -0.4190 -1.0499  0.5120
  306MOL0     H41295   3.765  10.539   6.111 -1.0503 -0.3846  0.7705
  306MOL0     H41296   3.409  10.922   6.157  0.1931  1.0128  0.1764
  306MOL0     H41297   3.394  11.083   6.329 -1.3571 -1.1943 -1.8273
  306MOL0     H41298   3.301  11.162   6.549  0.4287  0.7170 -2.6830
  306MOL0     H41299   3.465  11.228   6.508  0.6053 -0.8111 -0.7755
  306MOL0     H41300   3.532  11.247   6.723  0.0345  1.2492 -1.4267
  306MOL0     H41301   3.376  11.159   6.776 -1.0382 -2.4313 -2.5468
  306MOL0     H41302   3.372  11.399   6.818 -4.4311 -1.6006  1.3475
  306MOL0     H41303   3.255  11.351   6.715  0.7434  1.5437  3.9306
  306MOL0     H41304   3.516  11.452   6.594  0.6946  2.8240  2.0507
  306MOL0     H41305   3.347  11.443   6.523 -3.4864  1.1393  1.1712
  306MOL0     H41306   3.339  11.817   6.722 -1.0364  0.5702 -0.2242
  306MOL0     H41307   3.537  10.780   6.610  1.9835 -1.4718  0.4527
  306MOL0     H41308   3.511  10.516   6.431  1.6013 -2.6488  3.0375
  306MOL0     H41309   3.673  10.590   6.392  0.3015 -0.9518  0.3616
  306MOL0     H41310   3.589  10.602   6.558  0.9667 -0.7268 -0.1603
  307MOL0     O41311  10.724   0.462   2.055  0.6701 -0.0341  0.4279
  307MOL0     C41312  10.826   0.500   2.003  0.5199 -0.3761  0.1652
  307MOL0     O41313  10.853   0.631   1.986 -0.5356  0.0178  0.7191
  307MOL0     C41314  10.773   0.739   2.009  0.3159 -0.0394 -0.5420
  307MOL0     C41315  10.767   0.834   1.904  0.2511  0.7682  0.3391
  307MOL0     C41316  10.686   0.948   1.908  0.0989  0.9192 -0.8208
  307MOL0     C41317  10.603   0.965   2.017  0.7996 -0.1698  0.6051
  307MOL0     O41318  10.537   1.083   2.038 -0.8391  0.2163 -0.1703
  307MOL0     C41319  10.510   1.144   2.168  0.6663 -0.6620  0.2493
  307MOL0     C41320  10.636   1.176   2.248 -0.5198  0.7913 -0.7098
  307MOL0     C41321  10.626   1.284   2.358  0.0826 -0.0474 -0.4038
  307MOL0     C41322  10.525   1.248   2.465  0.0716  0.9891 -0.6374
  307MOL0     C41323  10.531   1.339   2.584  1.0203  0.0788  0.1496
  307MOL0     C41324  10.642   1.328   2.682 -1.0850 -0.1281  0.5233
  307MOL0     C41325  10.608   1.410   2.813 -0.1890  0.6678 -0.8888
  307MOL0     C41326  10.739   1.421   2.884  0.2220 -0.7823 -0.4160
  307MOL0     N41327  10.794   1.287   2.935 -0.3228 -0.2244 -0.4371
  307MOL0     C41328  10.734   1.205   3.025  0.7592 -0.0635  0.0370
  307MOL0     C41329  10.798   1.086   3.016  0.7783  0.2974 -0.3444
  307MOL0     C41330  10.764   0.951   3.086  0.3327 -0.5822 -0.4037
  307MOL0     C41331  10.742   0.848   2.980 -0.0128  0.3240 -0.1779
  307MOL0     C41332  10.766   0.709   3.049  1.0709  0.0150  0.2669
  307MOL0     C41333  10.674   0.607   2.981 -0.0598 -0.1781 -0.8230
  307MOL0     O41334  10.721   0.476   3.015 -0.0606 -0.2161  0.2136
  307MOL0     C41335  10.649   0.366   2.965 -0.0927  0.6766 -0.5043
  307MOL0     C41336  10.635   0.250   3.045 -0.3919  0.5856  0.0285
  307MOL0     C41337  10.573   0.131   2.984 -0.4754  0.5526  0.2123
  307MOL0     C41338  10.515   0.134   2.857 -0.4706  0.5445  0.0564
  307MOL0     C41339  10.457   0.014   2.797  0.1395 -0.2201  0.0015
  307MOL0     O41340  10.508  -0.112   2.836 -0.0923 -0.4162 -0.3347
  307MOL0     C41341  10.443  -0.224   2.826 -0.1481  0.0119  0.7962
  307MOL0     C41342  10.384  -0.277   2.713 -0.0414 -0.2435  1.3887
  307MOL0     C41343  10.357  -0.409   2.697 -0.3609  0.0583 -0.2333
  307MOL0     C41344  10.389  -0.502   2.803 -0.3388 -0.1747 -0.1045
  307MOL0     O41345  10.364  -0.638   2.801  0.1956 -0.6207 -0.4177
  307MOL0     C41346  10.248  -0.696   2.753 -0.1542 -0.0923  0.2882
  307MOL0     C41347  10.261  -0.841   2.719  1.1690 -0.3898  0.6348
  307MOL0     C41348  10.363  -0.884   2.607 -1.3050  0.2310  0.6078
  307MOL0     C41349  10.339  -1.023   2.546 -0.3653 -0.4374 -0.9433
  307MOL0     C41350  10.454  -1.117   2.578  0.0169 -0.4266  0.9278
  307MOL0     C41351  10.568  -1.082   2.479  0.9581 -0.3682 -0.5330
  307MOL0     C41352  10.664  -1.210   2.478  0.1830 -0.2999 -0.0607
  307MOL0     C41353  10.773  -1.194   2.370 -0.6041 -0.6662  0.1852
  307MOL0    Cl41354  10.698  -1.203   2.206 -0.0796  0.1575  0.8698
  307MOL0     C41355  10.433  -0.448   2.918 -0.1337 -0.3276  0.2027
  307MOL0     C41356  10.461  -0.307   2.929  0.3664  1.1051 -0.1430
  307MOL0     O41357  10.375   0.034   2.706 -0.6757  0.0773 -0.1526
  307MOL0     C41358  10.522   0.250   2.784  0.3026  1.3087  0.8200
  307MOL0     C41359  10.594   0.360   2.832 -0.6847  0.3556  0.2106
  307MOL0     N41360  10.897   1.104   2.922  0.2950  0.0874  0.4168
  307MOL0     N41361  10.890   1.214   2.870  0.0739 -0.1459  1.2559
  307MOL0     C41362  10.598   0.868   2.124 -0.9713  0.0308  0.3676
  307MOL0     C41363  10.683   0.757   2.124  0.3589 -0.6279  0.1923
  307MOL0     C41364  10.930   0.406   1.971  0.0450  0.4524  0.5371
  307MOL0     C41365  10.986   0.330   2.075 -0.6548 -0.0698 -1.2371
  307MOL0     C41366  11.090   0.237   2.037 -0.3044 -0.4633 -0.1242
  307MOL0     C41367  11.129   0.221   1.906 -0.0634  0.1992  0.1028
  307MOL0     O41368  11.220   0.120   1.875 -0.2883  0.2477  0.3818
  307MOL0     C41369  11.325   0.140   1.773  0.3358  1.3888  0.4153
  307MOL0     C41370  11.394   0.002   1.748 -0.3135  0.8378  0.1250
  307MOL0     C41371  11.297  -0.105   1.712 -0.2196  0.4582  1.1660
  307MOL0     C41372  11.213  -0.103   1.575  0.6467 -0.1046  0.3524
  307MOL0     C41373  11.107  -0.007   1.574 -0.0368 -0.1986 -0.6800
  307MOL0     C41374  11.005   0.066   1.572 -0.5410  0.3024  0.4777
  307MOL0     C41375  11.064   0.293   1.808 -0.4457  0.2279  0.4960
  307MOL0     C41376  10.972   0.390   1.835 -0.5242 -0.0849  0.7858
  307MOL0     C41377  10.925   0.464   1.716  0.8613 -0.4993 -0.4127
  307MOL0     H41378  10.837   0.820   1.822  0.2885  1.1328  0.3082
  307MOL0     H41379  10.700   1.019   1.827 -3.8615  0.3450 -2.2041
  307MOL0     H41380  10.447   1.234   2.165 -1.6544 -2.2254 -0.7591
  307MOL0     H41381  10.448   1.070   2.220 -1.0124  0.9016  0.5857
  307MOL0     H41382  10.711   1.213   2.178 -0.3690 -0.0130 -0.9864
  307MOL0     H41383  10.678   1.085   2.291 -2.1428 -0.7153 -2.1475
  307MOL0     H41384  10.605   1.377   2.304  1.2972 -1.7083 -4.0721
  307MOL0     H41385  10.723   1.300   2.406 -0.1894  0.9576 -0.1536
  307MOL0     H41386  10.420   1.254   2.437 -0.5916  0.0817  1.4776
  307MOL0     H41387  10.527   1.142   2.490 -1.1864  0.1724 -3.6171
  307MOL0     H41388  10.521   1.444   2.556  1.3801  0.6480  1.9921
  307MOL0     H41389  10.444   1.310   2.644  0.9696 -0.6289 -0.2516
  307MOL0     H41390  10.665   1.223   2.703 -0.5007 -0.7057 -2.5307
  307MOL0     H41391  10.725   1.381   2.634 -0.5565 -2.9156 -1.9565
  307MOL0     H41392  10.537   1.359   2.879  1.6576 -1.7488 -0.6449
  307MOL0     H41393  10.567   1.508   2.788 -2.2146  0.3030  0.7877
  307MOL0     H41394  10.815   1.460   2.816  0.0010 -1.6449 -1.1715
  307MOL0     H41395  10.731   1.484   2.973 -0.8261 -1.6269  0.1209
  307MOL0     H41396  10.654   1.231   3.095 -0.2936 -0.3388 -1.0326
  307MOL0     H41397  10.847   0.918   3.149 -0.1528  2.9428  2.3868
  307MOL0     H41398  10.673   0.961   3.145  0.0962  1.6403 -1.0450
  307MOL0     H41399  10.639   0.852   2.944  1.3303  0.5108 -4.4824
  307MOL0     H41400  10.809   0.857   2.894 -0.3030 -3.3656 -0.9507
  307MOL0     H41401  10.728   0.731   3.149  1.9585  1.5197  0.3007
  307MOL0     H41402  10.873   0.689   3.044  1.3344  0.5022  2.7190
  307MOL0     H41403  10.697   0.615   2.875 -0.2886  3.1254 -0.7492
  307MOL0     H41404  10.567   0.624   2.995 -0.6222 -1.6359 -2.9020
  307MOL0     H41405  10.678   0.247   3.144 -1.9367  0.7834  0.7385
  307MOL0     H41406  10.572   0.035   3.035  1.2555  0.5141  0.2390
  307MOL0     H41407  10.383  -0.210   2.627 -0.8451 -1.3229  0.5248
  307MOL0     H41408  10.325  -0.457   2.605 -1.9849 -3.2494  1.8715
  307MOL0     H41409  10.166  -0.676   2.823 -0.0508 -3.3497  1.5107
  307MOL0     H41410  10.221  -0.640   2.663 -0.5409  1.5414  1.3762
  307MOL0     H41411  10.275  -0.886   2.818  1.5017 -0.8410  0.3845
  307MOL0     H41412  10.162  -0.883   2.695 -0.8019  3.8247  0.5591
  307MOL0     H41413  10.353  -0.807   2.530  0.5538 -0.1327 -0.0386
  307MOL0     H41414  10.465  -0.874   2.646 -0.6806 -0.2097 -0.8550
  307MOL0     H41415  10.328  -1.016   2.437  1.4236 -1.1890 -1.2068
  307MOL0     H41416  10.248  -1.067   2.588  1.1544 -1.6420  1.2926
  307MOL0     H41417  10.412  -1.216   2.561 -2.6963  0.5598  1.2914
  307MOL0     H41418  10.495  -1.113   2.679 -0.0908  1.9768  0.9454
  307MOL0     H41419  10.529  -1.060   2.379 -0.8160 -2.2732 -0.3325
  307MOL0     H41420  10.618  -0.996   2.523  2.0917  0.4307 -3.1801
  307MOL0     H41421  10.607  -1.296   2.441  0.9276  0.0549 -2.2245
  307MOL0     H41422  10.694  -1.221   2.582  0.4280  2.6703  0.2855
  307MOL0     H41423  10.832  -1.102   2.378  1.0191 -1.5288 -1.2506
  307MOL0     H41424  10.846  -1.274   2.381 -0.9867 -1.2797 -1.4141
  307MOL0     H41425  10.444  -0.517   3.002 -0.5238 -0.7590 -0.0933
  307MOL0     H41426  10.502  -0.267   3.021  0.9783 -1.1824  0.6399
  307MOL0     H41427  10.484   0.254   2.683  1.3030  2.2891  0.4656
  307MOL0     H41428  10.618   0.440   2.763  0.6948  0.0202  0.2786
  307MOL0     H41429  10.527   0.870   2.207 -1.9617 -1.4128 -0.3970
  307MOL0     H41430  10.673   0.676   2.195  0.9874 -0.6746  0.2331
  307MOL0     H41431  10.951   0.340   2.177  0.0107 -1.2173 -0.8827
  307MOL0     H41432  11.141   0.180   2.114  0.5340  1.2779  0.6682
  307MOL0     H41433  11.399   0.213   1.810  1.5695  0.3707  0.0289
  307MOL0     H41434  11.295   0.190   1.680 -0.2267  0.5830  0.1531
  307MOL0     H41435  11.456  -0.026   1.834  1.3795 -0.5666 -1.4622
  307MOL0     H41436  11.462   0.011   1.662  0.4056 -3.5218  0.0110
  307MOL0     H41437  11.222  -0.107   1.791 -3.0711 -1.3305 -1.3705
  307MOL0     H41438  11.342  -0.205   1.720  0.7703  0.6654 -1.1453
  307MOL0     H41439  11.278  -0.086   1.488 -1.0592  1.5903 -0.6497
  307MOL0     H41440  11.170  -0.199   1.546  2.4117 -1.3012  1.4848
  307MOL0     H41441  10.927   0.136   1.553 -0.3630 -0.0296 -1.7337
  307MOL0     H41442  11.094   0.281   1.705  2.6409 -5.4664  1.6629
  307MOL0     H41443  10.841   0.531   1.738  0.5272 -1.6143  2.0265
  307MOL0     H41444  10.999   0.516   1.653 -0.6304 -0.3397 -2.1183
  307MOL0     H41445  10.881   0.381   1.661 -3.6137  1.2877  0.0739
  308MOL0     O41446   5.161   7.348   7.015 -0.9150 -0.1083 -0.0031
  308MOL0     C41447   5.206   7.236   6.993 -0.9456  1.6173 -0.9426
  308MOL0     O41448   5.173   7.124   7.069 -0.1985 -0.9690  0.8693
  308MOL0     C41449   5.049   7.112   7.114  0.5455  0.4370  0.0099
  308MOL0     C41450   4.936   7.149   7.040 -0.7183 -1.2524 -0.2482
  308MOL0     C41451   4.810   7.144   7.093 -0.6053  0.2837  0.1924
  308MOL0     C41452   4.775   7.072   7.211 -1.0681  0.1577  0.0612
  308MOL0     O41453   4.644   7.052   7.237 -0.3476 -0.3194  0.2706
  308MOL0     C41454   4.608   6.980   7.359 -0.3304  0.6609  0.1025
  308MOL0     C41455   4.456   7.005   7.378 -1.4212  0.6195 -0.3279
  308MOL0     C41456   4.390   6.989   7.243 -0.3171 -0.4962  0.3515
  308MOL0     C41457   4.241   7.011   7.252  0.7159 -1.0376  0.4492
  308MOL0     C41458   4.168   6.942   7.129 -0.7494  0.0328 -0.3254
  308MOL0     C41459   4.193   7.025   7.001 -0.3347 -1.2601  0.6518
  308MOL0     C41460   4.101   6.977   6.894 -0.0737 -0.0324  0.7053
  308MOL0     C41461   4.116   7.063   6.767  0.5148 -0.1940  0.5238
  308MOL0     N41462   4.056   6.983   6.660 -0.0344  0.0621 -0.6158
  308MOL0     C41463   4.118   6.888   6.584 -0.0901 -0.4618  0.2733
  308MOL0     C41464   4.027   6.840   6.508 -0.1310  0.5504  0.3198
  308MOL0     C41465   4.056   6.737   6.401  0.1238 -0.8131 -0.2711
  308MOL0     C41466   3.955   6.745   6.283  0.3540 -0.0393  0.1140
  308MOL0     C41467   4.003   6.636   6.183  0.4912 -0.0074  0.2187
  308MOL0     C41468   3.970   6.494   6.228  0.2221 -0.7093  0.6873
  308MOL0     O41469   3.829   6.483   6.207  0.2018  0.4638  0.5467
  308MOL0     C41470   3.778   6.360   6.167  0.3002  0.9293  0.9063
  308MOL0     C41471   3.668   6.358   6.087 -0.2569 -0.1546 -0.0222
  308MOL0     C41472   3.607   6.235   6.050 -0.1617 -0.0457  0.1938
  308MOL0     C41473   3.665   6.111   6.073  0.2636 -0.6336 -0.0865
  308MOL0     C41474   3.603   5.986   6.026 -0.4414  0.2543 -0.2868
  308MOL0     O41475   3.689   5.876   6.019  0.2345 -0.2699 -0.3697
  308MOL0     C41476   3.635   5.753   5.970  0.5150 -0.0248 -1.3162
  308MOL0     C41477   3.569   5.746   5.851  0.2298  0.3871  0.4447
  308MOL0     C41478   3.523   5.619   5.807 -0.4644 -0.9662 -0.0661
  308MOL0     C41479   3.524   5.510   5.885 -0.2223  0.0377 -0.3274
  308MOL0     O41480   3.463   5.403   5.830  0.2712  0.3566 -0.0550
  308MOL0     C41481   3.462   5.279   5.903 -0.2304  1.1210  0.1401
  308MOL0     C41482   3.412   5.174   5.807 -0.4304  0.3806  0.4191
  308MOL0     C41483   3.441   5.028   5.856 -0.0155  0.3623  1.0869
  308MOL0     C41484   3.400   4.939   5.739  0.5856  0.5364  0.2204
  308MOL0     C41485   3.454   4.790   5.748 -0.1303  0.0385 -0.0864
  308MOL0     C41486   3.587   4.771   5.688  0.6397 -0.3389  0.2140
  308MOL0     C41487   3.602   4.640   5.618 -0.4520 -0.3434 -0.6662
  308MOL0     C41488   3.573   4.515   5.703  1.1685  0.2672 -0.7636
  308MOL0    Cl41489   3.634   4.524   5.872 -0.1600 -0.2390  0.1600
  308MOL0     C41490   3.588   5.514   6.013  0.5493 -0.0069  0.2706
  308MOL0     C41491   3.653   5.634   6.049 -0.5317  0.3121 -0.1342
  308MOL0     O41492   3.485   5.997   5.997 -0.1514 -0.1054 -0.8837
  308MOL0     C41493   3.777   6.115   6.157 -0.2765 -0.3195 -0.1138
  308MOL0     C41494   3.840   6.240   6.200  0.3110  0.2066  0.5019
  308MOL0     N41495   3.904   6.891   6.546 -0.1912 -0.0197 -0.0214
  308MOL0     N41496   3.924   6.980   6.640  0.2586 -0.1095  0.1471
  308MOL0     C41497   4.890   7.014   7.278 -0.6251 -0.8923  0.1429
  308MOL0     C41498   5.023   7.043   7.233 -0.5051  0.3936  1.0369
  308MOL0     C41499   5.328   7.231   6.907  0.1755 -0.6948 -0.4222
  308MOL0     C41500   5.430   7.138   6.954 -0.3525  0.6371  0.2657
  308MOL0     C41501   5.549   7.116   6.883  0.1902 -0.0467  0.1349
  308MOL0     C41502   5.574   7.199   6.772  0.5252  0.7423  0.4848
  308MOL0     O41503   5.680   7.199   6.691 -0.1888 -0.2720 -0.1535
  308MOL0     C41504   5.777   7.083   6.698  0.0229 -0.5189 -0.3998
  308MOL0     C41505   5.732   6.974   6.601 -0.4857 -0.7636 -0.6336
  308MOL0     C41506   5.688   7.043   6.472 -0.0651  0.0541 -0.7618
  308MOL0     C41507   5.691   6.936   6.368  1.5691  0.6688 -0.2907
  308MOL0     C41508   5.817   6.907   6.310  0.8354  0.7941 -0.6966
  308MOL0     C41509   5.929   6.880   6.270 -0.7482  0.9462 -0.2530
  308MOL0     C41510   5.484   7.296   6.727  0.6622  0.0238 -1.1068
  308MOL0     C41511   5.350   7.303   6.787 -0.7107  0.1194 -0.2453
  308MOL0     C41512   5.246   7.389   6.711  0.0059 -0.8849  0.2980
  308MOL0     H41513   4.935   7.194   6.941  2.2509  2.1441  1.0223
  308MOL0     H41514   4.727   7.186   7.037 -0.4282 -2.8209 -2.7312
  308MOL0     H41515   4.626   6.873   7.344 -2.1679  0.6537 -2.8683
  308MOL0     H41516   4.659   7.019   7.447 -0.0144 -1.7462  1.0830
  308MOL0     H41517   4.439   7.105   7.417 -1.5120  1.0527 -1.4331
  308MOL0     H41518   4.416   6.929   7.446  2.5736 -1.3883  0.1083
  308MOL0     H41519   4.404   6.884   7.215 -0.5693 -0.5127  0.2809
  308MOL0     H41520   4.428   7.058   7.167 -0.9685  1.5694  1.8090
  308MOL0     H41521   4.202   6.958   7.340  1.4092 -1.5869  0.4359
  308MOL0     H41522   4.222   7.119   7.254  0.2649 -1.1209  1.4648
  308MOL0     H41523   4.202   6.839   7.119 -1.3194 -0.2488  0.4645
  308MOL0     H41524   4.063   6.935   7.160 -0.9970  2.8230 -0.3442
  308MOL0     H41525   4.171   7.131   7.018 -0.9044 -0.8924 -2.0502
  308MOL0     H41526   4.296   7.011   6.967  0.7565  1.2321  2.5679
  308MOL0     H41527   3.997   6.992   6.925 -0.1721  2.0205 -0.4480
  308MOL0     H41528   4.111   6.870   6.875  4.0417  0.7062 -2.6730
  308MOL0     H41529   4.043   7.144   6.761  2.1620  1.2796 -3.6334
  308MOL0     H41530   4.224   7.070   6.750  0.3470 -1.0598 -1.1682
  308MOL0     H41531   4.225   6.871   6.579 -0.2911 -1.8622  0.3675
  308MOL0     H41532   4.157   6.751   6.363 -0.4477  0.2166 -1.5019
  308MOL0     H41533   4.044   6.641   6.451 -2.8026 -0.0436  0.7547
  308MOL0     H41534   3.854   6.724   6.321 -0.0041  2.5490  0.8027
  308MOL0     H41535   3.950   6.839   6.227 -3.4746 -0.2818 -0.2335
  308MOL0     H41536   4.110   6.639   6.160 -0.3017 -1.5145 -5.0445
  308MOL0     H41537   3.949   6.662   6.091  0.6932 -0.3748 -0.0048
  308MOL0     H41538   3.996   6.473   6.332  0.1244  0.7361  1.0286
  308MOL0     H41539   4.019   6.419   6.165  0.3441 -0.8680  0.9705
  308MOL0     H41540   3.620   6.452   6.062 -0.2421  0.0921  0.8642
  308MOL0     H41541   3.516   6.243   5.991 -0.6126 -2.6153  0.4260
  308MOL0     H41542   3.564   5.833   5.787 -1.1128 -0.0630 -0.0996
  308MOL0     H41543   3.466   5.616   5.715 -1.5558  2.0838  0.4009
  308MOL0     H41544   3.564   5.248   5.929 -0.7090 -2.8378 -1.9840
  308MOL0     H41545   3.397   5.283   5.991 -0.3987  0.9005  0.0252
  308MOL0     H41546   3.306   5.198   5.789 -0.5343 -0.7203 -0.5710
  308MOL0     H41547   3.463   5.185   5.711 -0.2254  1.0208  0.5970
  308MOL0     H41548   3.549   5.018   5.873  1.1638  4.2838 -2.3274
  308MOL0     H41549   3.388   5.014   5.950 -1.1121  0.2598  0.4751
  308MOL0     H41550   3.436   4.983   5.646 -2.0706  0.8992 -0.7271
  308MOL0     H41551   3.292   4.926   5.723  0.2017 -2.1068  3.6568
  308MOL0     H41552   3.389   4.723   5.691 -1.8987 -0.8075  2.7469
  308MOL0     H41553   3.463   4.760   5.852  2.7773 -3.0342 -1.0513
  308MOL0     H41554   3.617   4.841   5.610  1.6035  0.0730  0.9332
  308MOL0     H41555   3.670   4.788   5.757 -1.3063  0.8241  2.4285
  308MOL0     H41556   3.707   4.621   5.596 -0.4561 -2.4673  0.8137
  308MOL0     H41557   3.555   4.642   5.519  2.9239 -0.8727 -2.4346
  308MOL0     H41558   3.464   4.503   5.707  1.1632  0.6293  1.0048
  308MOL0     H41559   3.621   4.423   5.668 -0.2495 -0.7168 -0.2156
  308MOL0     H41560   3.595   5.427   6.077  0.1608  1.3278  2.2588
  308MOL0     H41561   3.714   5.654   6.137 -0.3107  1.5498 -0.5444
  308MOL0     H41562   3.812   6.017   6.186  2.0240 -0.9014 -4.1415
  308MOL0     H41563   3.923   6.234   6.271 -0.4215 -1.4495  1.2543
  308MOL0     H41564   4.864   6.932   7.345  1.4177 -1.6811  0.0602
  308MOL0     H41565   5.114   7.000   7.271  0.8495 -0.0075 -2.3701
  308MOL0     H41566   5.421   7.090   7.051 -1.3292  0.3416  0.0388
  308MOL0     H41567   5.613   7.033   6.911  1.7082  0.9102 -0.3857
  308MOL0     H41568   5.802   7.056   6.801 -2.1900  2.2565  1.0090
  308MOL0     H41569   5.872   7.106   6.648 -0.3032 -2.1351 -1.8643
  308MOL0     H41570   5.655   6.911   6.645  0.6908 -0.9740  1.1857
  308MOL0     H41571   5.816   6.905   6.588 -0.5100 -0.7187 -1.0560
  308MOL0     H41572   5.750   7.133   6.457  2.1300 -0.2390  4.4624
  308MOL0     H41573   5.587   7.077   6.495  0.5557  1.7551 -0.4149
  308MOL0     H41574   5.657   6.838   6.402  3.0535 -0.3997 -1.6931
  308MOL0     H41575   5.612   6.958   6.295  2.0148  1.8851 -0.4335
  308MOL0     H41576   6.028   6.853   6.238 -1.3249 -1.0645 -0.5232
  308MOL0     H41577   5.504   7.358   6.641 -2.4559  0.6971 -1.4870
  308MOL0     H41578   5.154   7.331   6.701 -1.1205  0.7688  0.7064
  308MOL0     H41579   5.206   7.473   6.769 -0.3614 -2.0432  1.7840
  308MOL0     H41580   5.279   7.419   6.611 -1.0293 -1.5349 -0.2569
  309MOL0     O41581   6.399   8.361   4.540 -0.1966 -0.5394 -0.7487
  309MOL0     C41582   6.451   8.271   4.478  0.4305  0.1396 -0.8610
  309MOL0     O41583   6.397   8.147   4.456  1.2363 -0.3137 -0.1640
  309MOL0     C41584   6.275   8.131   4.512 -0.8392  1.2371  0.8175
  309MOL0     C41585   6.255   8.068   4.638 -0.0857 -0.9532  0.3810
  309MOL0     C41586   6.127   8.028   4.672  0.8852  0.7168 -0.6978
  309MOL0     C41587   6.017   8.041   4.593 -0.0230 -0.5952  0.0518
  309MOL0     O41588   5.889   8.001   4.625  0.5066  0.9763  0.5962
  309MOL0     C41589   5.847   8.009   4.765  0.0894  0.3224 -0.4427
  309MOL0     C41590   5.698   8.005   4.798  0.1555 -0.2802  0.0976
  309MOL0     C41591   5.614   8.121   4.722 -0.3659  0.0982  0.5723
  309MOL0     C41592   5.474   8.128   4.785 -0.5354  0.0687  0.1398
  309MOL0     C41593   5.383   8.213   4.691  0.9373 -0.4755  0.1678
  309MOL0     C41594   5.239   8.215   4.746  0.5065 -0.0718 -0.5200
  309MOL0     C41595   5.231   8.288   4.881  0.2370 -0.4280 -0.2834
  309MOL0     C41596   5.081   8.309   4.907  0.0725 -0.1263 -0.2862
  309MOL0     N41597   5.064   8.420   5.001 -0.5930  0.1905  1.3674
  309MOL0     C41598   4.975   8.523   4.996  0.2126 -0.2489 -0.4903
  309MOL0     C41599   5.005   8.602   5.100  0.5074 -0.6651  0.0761
  309MOL0     C41600   4.927   8.729   5.138 -1.1021  0.4077  0.4610
  309MOL0     C41601   4.785   8.671   5.184  0.4557  1.0504  0.0040
  309MOL0     C41602   4.724   8.736   5.312 -0.2989 -0.1551  0.1874
  309MOL0     C41603   4.582   8.697   5.349  0.5629  0.6921 -0.1796
  309MOL0     O41604   4.553   8.755   5.480  0.2061  0.4595 -0.3224
  309MOL0     C41605   4.427   8.747   5.536 -0.9633  0.3870  0.4562
  309MOL0     C41606   4.382   8.841   5.623  0.4039  0.0543 -0.5563
  309MOL0     C41607   4.252   8.836   5.671 -0.7324  0.7348  0.3887
  309MOL0     C41608   4.160   8.741   5.618  1.4545 -0.0260 -0.0333
  309MOL0     C41609   4.021   8.744   5.675 -1.3435 -1.4269 -0.3229
  309MOL0     O41610   3.996   8.837   5.774  0.2441  0.6758 -0.0201
  309MOL0     C41611   3.871   8.839   5.830 -0.0326  1.2004 -0.5939
  309MOL0     C41612   3.804   8.958   5.851 -0.0247  0.1224  0.0799
  309MOL0     C41613   3.676   8.962   5.911 -0.5877  0.2286 -0.5781
  309MOL0     C41614   3.620   8.842   5.962 -0.0111  0.3039 -0.5625
  309MOL0     O41615   3.508   8.841   6.048 -0.6372 -0.1257  0.0996
  309MOL0     C41616   3.409   8.935   6.017 -1.0517  0.2794  0.2252
  309MOL0     C41617   3.272   8.883   6.069  0.2850 -0.0064  0.8139
  309MOL0     C41618   3.269   8.884   6.221 -0.4096 -0.4545 -0.5007
  309MOL0     C41619   3.130   8.832   6.270 -0.4535 -0.5202 -0.5431
  309MOL0     C41620   3.114   8.681   6.242 -1.2522  0.1184  0.3731
  309MOL0     C41621   3.200   8.596   6.325  0.1959  0.8369  0.2806
  309MOL0     C41622   3.150   8.444   6.329 -0.4418 -0.0357  0.3170
  309MOL0     C41623   3.201   8.373   6.461  0.1641  0.9851 -0.4731
  309MOL0    Cl41624   3.126   8.212   6.479  0.4665 -0.5359 -0.7932
  309MOL0     C41625   3.685   8.719   5.942 -0.3777  0.0379 -0.5705
  309MOL0     C41626   3.810   8.721   5.869 -0.5466  0.9417 -0.1555
  309MOL0     O41627   3.946   8.664   5.623 -0.6867  0.7942  0.0108
  309MOL0     C41628   4.202   8.650   5.524  1.3605 -0.5307 -0.0752
  309MOL0     C41629   4.331   8.650   5.487 -0.5110 -0.1345  0.2778
  309MOL0     N41630   5.111   8.546   5.173  0.7894  0.2235 -0.5978
  309MOL0     N41631   5.138   8.431   5.117 -0.4271  0.2120  0.3963
  309MOL0     C41632   6.036   8.101   4.470  0.3893 -0.6442  0.4639
  309MOL0     C41633   6.170   8.146   4.426  0.2298 -0.5492  0.2008
  309MOL0     C41634   6.587   8.277   4.423 -0.2117 -0.1154 -0.9126
  309MOL0     C41635   6.630   8.408   4.371  0.4921  0.5702 -1.2199
  309MOL0     C41636   6.756   8.431   4.322 -0.0579 -0.2253 -0.8119
  309MOL0     C41637   6.848   8.327   4.302  0.6716  0.0189 -0.4684
  309MOL0     O41638   6.983   8.341   4.267 -0.0808  0.1871 -0.1368
  309MOL0     C41639   6.998   8.424   4.160  0.2287 -0.2529  0.0707
  309MOL0     C41640   7.120   8.386   4.081 -0.4629 -0.2773 -0.1112
  309MOL0     C41641   7.108   8.245   4.006 -0.0163 -0.2066 -0.3025
  309MOL0     C41642   7.211   8.230   3.896  0.6682 -0.0690 -0.7953
  309MOL0     C41643   7.185   8.313   3.783 -1.4000  0.1644  0.2946
  309MOL0     C41644   7.179   8.394   3.691 -0.1947  1.0424  0.7952
  309MOL0     C41645   6.807   8.197   4.342  0.3705 -0.2466 -0.0285
  309MOL0     C41646   6.682   8.172   4.414 -0.0602 -0.3900  0.8518
  309MOL0     C41647   6.672   8.030   4.461 -0.0616  0.4586 -1.1047
  309MOL0     H41648   6.338   8.043   4.703  0.9911  0.4795 -0.4057
  309MOL0     H41649   6.103   7.974   4.764 -4.9015 -0.0108 -2.2702
  309MOL0     H41650   5.908   7.933   4.815  1.7403  0.9841 -1.4194
  309MOL0     H41651   5.875   8.103   4.813  1.3615 -0.1990 -0.1164
  309MOL0     H41652   5.670   7.993   4.903  0.3526 -1.8456 -0.0052
  309MOL0     H41653   5.672   7.908   4.752  0.5912 -0.8405  1.0083
  309MOL0     H41654   5.617   8.106   4.614  2.3094 -2.0891  0.8365
  309MOL0     H41655   5.660   8.220   4.733  0.3476 -0.2828  1.1221
  309MOL0     H41656   5.427   8.030   4.797  1.6657 -1.2613 -1.2642
  309MOL0     H41657   5.499   8.175   4.880  3.9853 -0.6266 -0.4492
  309MOL0     H41658   5.424   8.313   4.675 -0.4843 -0.2255 -2.6792
  309MOL0     H41659   5.392   8.163   4.594  2.3866 -0.5521  0.3130
  309MOL0     H41660   5.188   8.277   4.672 -2.0898 -1.6416 -0.1736
  309MOL0     H41661   5.193   8.116   4.738 -1.6812  0.7953  0.3902
  309MOL0     H41662   5.280   8.385   4.870 -0.2442 -0.4814 -4.3014
  309MOL0     H41663   5.282   8.228   4.957  0.1186  1.6286  1.4965
  309MOL0     H41664   5.032   8.331   4.812  1.2362 -1.7286 -1.3085
  309MOL0     H41665   5.037   8.216   4.944 -0.7935 -0.0332 -1.0481
  309MOL0     H41666   4.903   8.544   4.918 -0.0793 -3.0314 -1.0955
  309MOL0     H41667   4.984   8.772   5.221 -1.0879  1.2613  0.0163
  309MOL0     H41668   4.937   8.806   5.062  0.8638  2.5498  2.7179
  309MOL0     H41669   4.716   8.690   5.101  2.0608  1.5028 -1.2769
  309MOL0     H41670   4.785   8.564   5.204 -1.1248  1.2993  1.5892
  309MOL0     H41671   4.733   8.845   5.307 -1.7140 -0.0285  0.1507
  309MOL0     H41672   4.795   8.695   5.385  0.8116 -0.4668 -1.0304
  309MOL0     H41673   4.565   8.589   5.343 -0.2036  0.7187  1.0119
  309MOL0     H41674   4.518   8.736   5.270  1.3942  2.2461 -0.1197
  309MOL0     H41675   4.443   8.924   5.659 -0.4519  0.8368 -0.8859
  309MOL0     H41676   4.222   8.910   5.745 -0.3060 -2.4751  4.0598
  309MOL0     H41677   3.846   9.044   5.801 -0.4139 -0.6865 -1.7229
  309MOL0     H41678   3.630   9.061   5.915  0.4823  0.8231 -2.1315
  309MOL0     H41679   3.413   9.040   6.049  1.2245  0.5676 -0.8114
  309MOL0     H41680   3.402   8.955   5.910  0.9124 -0.0623 -0.0076
  309MOL0     H41681   3.190   8.949   6.042  0.8211  0.1565 -0.4667
  309MOL0     H41682   3.252   8.782   6.032 -3.4207  0.4325  1.2840
  309MOL0     H41683   3.342   8.821   6.272 -0.5970 -2.9363 -3.0472
  309MOL0     H41684   3.287   8.989   6.248  0.0687 -0.9195  1.0661
  309MOL0     H41685   3.048   8.882   6.217 -1.4646  0.4369  1.7860
  309MOL0     H41686   3.116   8.851   6.377 -0.4341 -2.9405 -0.0659
  309MOL0     H41687   3.120   8.652   6.136 -0.8788 -2.9335  1.1217
  309MOL0     H41688   3.013   8.650   6.268 -1.5868 -1.6911 -2.5664
  309MOL0     H41689   3.295   8.589   6.271 -0.3573  1.2696 -0.7675
  309MOL0     H41690   3.212   8.634   6.427  4.0106  2.4762 -0.5969
  309MOL0     H41691   3.189   8.384   6.247  2.9181  2.5852 -0.2148
  309MOL0     H41692   3.041   8.459   6.329 -0.0546  3.8386  1.2822
  309MOL0     H41693   3.307   8.348   6.454  0.0258 -0.2494  1.2031
  309MOL0     H41694   3.174   8.436   6.547  2.1076  0.4913  0.5658
  309MOL0     H41695   3.644   8.632   5.994 -1.4132  0.2958 -0.9347
  309MOL0     H41696   3.860   8.627   5.846  0.4062  1.6947 -1.2044
  309MOL0     H41697   4.134   8.584   5.472  1.4811 -0.9114  0.2523
  309MOL0     H41698   4.362   8.579   5.411 -1.4717 -0.1061 -0.1495
  309MOL0     H41699   5.952   8.089   4.402 -0.0913 -0.0811  0.9401
  309MOL0     H41700   6.185   8.175   4.323 -0.8037  0.1634  0.2408
  309MOL0     H41701   6.555   8.485   4.385 -1.2382 -1.5048  2.3682
  309MOL0     H41702   6.787   8.534   4.303  1.0386 -0.4338 -0.2457
  309MOL0     H41703   7.002   8.532   4.176 -1.0111 -0.1531 -0.1920
  309MOL0     H41704   6.908   8.427   4.099  0.3247 -0.0866 -0.0641
  309MOL0     H41705   7.206   8.391   4.148 -2.0924  0.6012  2.0254
  309MOL0     H41706   7.126   8.474   4.016  1.6130  1.3764  2.1216
  309MOL0     H41707   7.007   8.237   3.966 -0.7362 -0.3415  1.4513
  309MOL0     H41708   7.122   8.167   4.081 -1.1481 -2.1758 -2.0588
  309MOL0     H41709   7.307   8.256   3.941  1.6279  0.3050 -2.9716
  309MOL0     H41710   7.192   8.128   3.861 -1.2005  0.3857 -1.2567
  309MOL0     H41711   7.179   8.445   3.596  4.3517  2.9986  1.5898
  309MOL0     H41712   6.872   8.110   4.337  1.9946  0.9772 -1.1133
  309MOL0     H41713   6.766   7.995   4.506 -1.1589 -0.2568  0.7481
  309MOL0     H41714   6.592   8.012   4.534 -0.7013  1.0727 -1.6460
  309MOL0     H41715   6.649   7.961   4.380 -0.4629 -0.0981 -0.5313
  310MOL0     O41716   3.598  10.567   1.551 -0.7116 -0.3259 -0.6876
  310MOL0     C41717   3.621  10.680   1.592  1.2620 -0.3858 -0.0293
  310MOL0     O41718   3.550  10.743   1.698  0.1817 -0.0561 -0.5507
  310MOL0     C41719   3.424  10.705   1.737 -0.4463 -0.8530  0.1535
  310MOL0     C41720   3.331  10.641   1.655  0.4837 -1.4853 -0.6321
  310MOL0     C41721   3.200  10.616   1.707 -0.7181 -0.8329 -0.1756
  310MOL0     C41722   3.164  10.657   1.836 -0.1003 -1.2155 -0.9881
  310MOL0     O41723   3.042  10.642   1.898 -0.6996 -0.3295  0.5762
  310MOL0     C41724   2.958  10.527   1.876 -0.0407 -0.3713 -0.2272
  310MOL0     C41725   2.983  10.444   1.995  0.2615  0.1558 -0.5798
  310MOL0     C41726   2.902  10.315   2.014 -1.1698  0.7236 -0.3667
  310MOL0     C41727   2.762  10.355   2.030  0.5177 -0.8876 -0.0930
  310MOL0     C41728   2.672  10.243   2.059 -0.1985  0.1841  0.3381
  310MOL0     C41729   2.529  10.289   2.057 -0.5396 -0.5769 -0.2507
  310MOL0     C41730   2.447  10.167   2.047  0.2045  0.4140 -0.2935
  310MOL0     C41731   2.456  10.109   1.906 -0.2521 -0.7156 -0.2772
  310MOL0     N41732   2.394   9.973   1.881 -0.2595  0.1354  0.1454
  310MOL0     C41733   2.308   9.913   1.965  0.1109 -1.1757  0.0329
  310MOL0     C41734   2.278   9.791   1.906  0.4083 -0.3836  0.1908
  310MOL0     C41735   2.164   9.698   1.951 -0.2979  0.1783  0.3143
  310MOL0     C41736   2.088   9.654   1.825  0.2294  1.1433  0.4277
  310MOL0     C41737   1.993   9.755   1.780  0.6993 -1.1650 -0.9457
  310MOL0     C41738   1.984   9.762   1.622 -0.0633  0.6065  0.2829
  310MOL0     O41739   1.932   9.635   1.594  0.1627  0.6290  0.1381
  310MOL0     C41740   1.968   9.575   1.475 -0.3706 -0.1060 -0.9518
  310MOL0     C41741   2.101   9.573   1.425  0.4731 -0.4967  0.0144
  310MOL0     C41742   2.137   9.509   1.300  0.4237  0.3351  0.1219
  310MOL0     C41743   2.026   9.452   1.228 -0.0109 -0.1190  0.3124
  310MOL0     C41744   2.036   9.395   1.087 -0.1275  0.5848  0.9147
  310MOL0     O41745   2.152   9.428   1.024 -0.3295  0.2379  0.7773
  310MOL0     C41746   2.212   9.346   0.932  0.1518 -0.4784 -0.6368
  310MOL0     C41747   2.295   9.409   0.836  0.5233 -0.7029  0.4143
  310MOL0     C41748   2.370   9.321   0.744 -0.3236  0.6531  0.3195
  310MOL0     C41749   2.364   9.184   0.753 -0.5519 -0.3292  0.6998
  310MOL0     O41750   2.438   9.118   0.658  0.2994  0.1218  0.0001
  310MOL0     C41751   2.415   8.979   0.629 -0.3369  0.2905 -1.2243
  310MOL0     C41752   2.500   8.948   0.503  0.6080  0.7392 -0.0364
  310MOL0     C41753   2.493   8.799   0.457 -0.0581  0.0674  0.6756
  310MOL0     C41754   2.603   8.773   0.355 -0.6180 -0.3635 -0.8728
  310MOL0     C41755   2.628   8.623   0.340  0.0308  0.7847 -0.5454
  310MOL0     C41756   2.597   8.568   0.205 -1.1222  1.1590  0.2748
  310MOL0     C41757   2.647   8.416   0.208 -0.0712 -0.8729  0.3740
  310MOL0     C41758   2.624   8.346   0.083 -0.2759 -1.0154  0.1115
  310MOL0    Cl41759   2.670   8.174   0.110 -0.2780  0.3572  0.4295
  310MOL0     C41760   2.280   9.130   0.848 -0.6421 -0.7151 -0.6396
  310MOL0     C41761   2.212   9.210   0.937  0.2330  0.4187 -0.3080
  310MOL0     O41762   1.953   9.307   1.052 -1.0053 -0.1432  0.1412
  310MOL0     C41763   1.902   9.459   1.277  0.5839 -0.6666  0.0330
  310MOL0     C41764   1.870   9.514   1.398 -0.3264 -0.9233 -0.3878
  310MOL0     N41765   2.366   9.778   1.791 -0.6927  0.4017 -0.2670
  310MOL0     N41766   2.429   9.890   1.778  0.1476  0.1884  1.0675
  310MOL0     C41767   3.265  10.724   1.913  0.0514  0.2238  0.0888
  310MOL0     C41768   3.391  10.753   1.863 -0.3733  0.1553  0.5157
  310MOL0     C41769   3.741  10.750   1.540  0.8630 -0.8262 -0.2277
  310MOL0     C41770   3.765  10.880   1.587 -1.5517 -0.2455  0.1081
  310MOL0     C41771   3.868  10.960   1.528  0.5518 -0.1478 -0.6047
  310MOL0     C41772   3.956  10.906   1.425 -0.2099  0.8218  0.3434
  310MOL0     O41773   4.070  10.964   1.384 -0.1251  0.8243  0.3604
  310MOL0     C41774   4.149  11.020   1.493 -0.8363 -0.6208  0.0921
  310MOL0     C41775   4.285  10.948   1.499  0.6810 -0.7080 -1.4458
  310MOL0     C41776   4.384  10.997   1.607 -0.5062 -0.5410  0.1467
  310MOL0     C41777   4.502  10.889   1.623  0.3694  0.1716  1.1524
  310MOL0     C41778   4.601  10.947   1.709  0.5968 -0.1706 -1.2006
  310MOL0     C41779   4.683  10.993   1.780  0.7244 -0.4581  0.6846
  310MOL0     C41780   3.939  10.777   1.392  0.0787  0.9573  0.0857
  310MOL0     C41781   3.833  10.695   1.448 -0.6738  0.2349  0.1963
  310MOL0     C41782   3.826  10.558   1.392  0.0847 -1.1131 -0.7902
  310MOL0     H41783   3.365  10.603   1.560  1.3526 -0.0096 -0.9444
  310MOL0     H41784   3.118  10.573   1.649  0.8121 -1.9809 -1.5872
  310MOL0     H41785   2.857  10.567   1.866  0.4224  0.9472  0.1021
  310MOL0     H41786   2.987  10.467   1.789 -3.9950 -3.1431  0.0624
  310MOL0     H41787   2.948  10.496   2.085 -1.8794 -1.6116 -0.2875
  310MOL0     H41788   3.091  10.433   2.008  0.2509 -2.1137 -1.8269
  310MOL0     H41789   2.934  10.277   2.111 -0.9593  2.2861  0.2030
  310MOL0     H41790   2.913  10.244   1.931  1.8917  0.0817  0.4631
  310MOL0     H41791   2.760  10.435   2.105  1.2463  0.5000 -1.4763
  310MOL0     H41792   2.735  10.401   1.934 -0.3690  4.0840  2.1793
  310MOL0     H41793   2.709  10.159   1.998 -1.1254 -0.0478  0.0758
  310MOL0     H41794   2.694  10.219   2.164 -0.3892  1.0670  0.5868
  310MOL0     H41795   2.504  10.347   2.147 -0.7429 -2.8180  1.2159
  310MOL0     H41796   2.515  10.352   1.969 -0.0498  0.5013  0.4188
  310MOL0     H41797   2.342  10.189   2.069 -0.0089 -0.3110 -0.5788
  310MOL0     H41798   2.478  10.089   2.117 -0.0626  2.4779  2.2807
  310MOL0     H41799   2.402  10.179   1.841 -4.3577 -1.4453  2.0237
  310MOL0     H41800   2.562  10.108   1.878  0.8976 -2.0910  3.4595
  310MOL0     H41801   2.272   9.947   2.061 -1.0938  2.8678 -1.6559
  310MOL0     H41802   2.209   9.608   1.994 -1.5040 -0.7333 -0.2788
  310MOL0     H41803   2.096   9.760   2.009  0.2437  2.6913 -1.5443
  310MOL0     H41804   2.165   9.634   1.750 -1.0753  2.5196 -1.3723
  310MOL0     H41805   2.032   9.563   1.846  2.1484  0.0290  0.9495
  310MOL0     H41806   2.014   9.852   1.825 -0.2885 -0.7848 -1.2726
  310MOL0     H41807   1.890   9.731   1.808  1.3306 -1.3451  1.3932
  310MOL0     H41808   2.085   9.779   1.584  1.4017 -4.4548  1.0333
  310MOL0     H41809   1.915   9.842   1.596  1.1006  1.2635 -0.8614
  310MOL0     H41810   2.184   9.613   1.483 -1.1600  2.2882  0.6110
  310MOL0     H41811   2.239   9.507   1.264  0.2447 -2.6581 -0.4607
  310MOL0     H41812   2.319   9.514   0.820 -0.6983 -0.3452  0.8136
  310MOL0     H41813   2.427   9.375   0.669 -1.0092  0.0178 -0.6710
  310MOL0     H41814   2.435   8.913   0.713 -3.5758  3.3443  2.3438
  310MOL0     H41815   2.309   8.975   0.602 -0.2385  0.2388 -1.6156
  310MOL0     H41816   2.455   9.010   0.425  0.3215  1.2272  0.5061
  310MOL0     H41817   2.603   8.980   0.522  0.4907  1.0801  0.0387
  310MOL0     H41818   2.507   8.740   0.549  0.4427 -0.7641  0.0742
  310MOL0     H41819   2.397   8.769   0.412  0.3022 -0.0699 -0.0084
  310MOL0     H41820   2.701   8.812   0.386 -1.1001  0.2996 -0.1414
  310MOL0     H41821   2.567   8.831   0.270 -0.5596  1.3309  0.2108
  310MOL0     H41822   2.567   8.564   0.409  0.2112 -1.0955 -1.8964
  310MOL0     H41823   2.734   8.609   0.363 -0.0306  1.6560  0.3498
  310MOL0     H41824   2.489   8.572   0.188 -1.2316 -0.8451  0.2050
  310MOL0     H41825   2.649   8.621   0.125  3.0207  1.2455  2.7547
  310MOL0     H41826   2.582   8.375   0.286 -2.0905  0.9757 -0.2537
  310MOL0     H41827   2.756   8.420   0.219  0.3113  2.8695 -2.5507
  310MOL0     H41828   2.522   8.353   0.043  0.1299 -3.7698 -1.7419
  310MOL0     H41829   2.693   8.391   0.010 -1.2053 -1.6689 -1.2176
  310MOL0     H41830   2.255   9.024   0.847 -0.9349 -0.7386 -4.6659
  310MOL0     H41831   2.168   9.154   1.019 -0.2643  1.3102  0.0435
  310MOL0     H41832   1.820   9.423   1.217  1.6591 -0.5664 -1.5536
  310MOL0     H41833   1.764   9.530   1.415 -0.4670 -1.0160 -1.1239
  310MOL0     H41834   3.248  10.747   2.018 -2.7534 -2.6422  0.3872
  310MOL0     H41835   3.457  10.786   1.943 -0.6950 -3.7140  2.5948
  310MOL0     H41836   3.716  10.930   1.670  1.0807  1.4590  0.7875
  310MOL0     H41837   3.885  11.066   1.546  0.1538 -0.2237  0.3279
  310MOL0     H41838   4.105  11.019   1.593 -0.7919  1.4678  0.1771
  310MOL0     H41839   4.166  11.126   1.472  1.7601 -1.0209 -0.0781
  310MOL0     H41840   4.330  10.973   1.402 -1.6230  0.9130 -2.1851
  310MOL0     H41841   4.265  10.845   1.527 -0.4533  0.6430  3.6463
  310MOL0     H41842   4.330  11.022   1.699  1.1312 -1.0408  1.2757
  310MOL0     H41843   4.416  11.096   1.574 -1.2150 -0.0637  0.8416
  310MOL0     H41844   4.459  10.799   1.669  1.8938 -1.0728  0.2573
  310MOL0     H41845   4.546  10.864   1.525 -2.5051 -2.0272  0.2597
  310MOL0     H41846   4.758  11.030   1.847  0.1847 -0.4991  1.3165
  310MOL0     H41847   4.018  10.729   1.334  0.8964  1.2686  0.9131
  310MOL0     H41848   3.729  10.539   1.346  0.2940 -1.6713 -0.9957
  310MOL0     H41849   3.885  10.551   1.301  1.0124 -1.0332 -0.2115
  310MOL0     H41850   3.858  10.476   1.457 -1.8533 -1.5829 -0.3632
  311MOL0     O41851  11.349   6.703   6.442  0.0027 -0.3374  0.0885
  311MOL0     C41852  11.408   6.814   6.448 -0.0724  0.9417 -0.0775
  311MOL0     O41853  11.478   6.875   6.345 -0.1027  0.3927  0.8837
  311MOL0     C41854  11.499   6.799   6.234  0.8002  0.4273 -0.3800
  311MOL0     C41855  11.601   6.697   6.239  0.3268 -0.2564  0.9123
  311MOL0     C41856  11.624   6.609   6.138  1.1972 -0.4572  0.2986
  311MOL0     C41857  11.561   6.634   6.016  0.3805 -0.1344  0.2231
  311MOL0     O41858  11.608   6.554   5.913  0.4172 -0.2700 -0.4868
  311MOL0     C41859  11.595   6.622   5.784  0.9575  0.3054 -0.3888
  311MOL0     C41860  11.667   6.543   5.672  0.2578  0.2423  0.2899
  311MOL0     C41861  11.794   6.470   5.720  0.2414 -0.8184 -0.3383
  311MOL0     C41862  11.876   6.408   5.603 -0.0986  0.0139  0.5226
  311MOL0     C41863  11.819   6.273   5.551  1.4099 -0.3863 -0.0171
  311MOL0     C41864  11.910   6.181   5.462  0.0634 -0.3733 -0.3157
  311MOL0     C41865  12.002   6.251   5.368  0.0678  0.4823 -0.3690
  311MOL0     C41866  11.954   6.244   5.228 -0.3931  0.1265 -0.1472
  311MOL0     N41867  11.840   6.330   5.206 -0.4072 -0.3200  0.2622
  311MOL0     C41868  11.819   6.461   5.244 -0.2978  0.0939 -0.1239
  311MOL0     C41869  11.705   6.496   5.172 -0.7873 -0.1035 -0.5656
  311MOL0     C41870  11.661   6.639   5.150 -0.1923 -0.5037 -0.3568
  311MOL0     C41871  11.767   6.744   5.161  0.5005  0.6467 -0.3918
  311MOL0     C41872  11.714   6.881   5.106  0.8721  0.2012  0.1247
  311MOL0     C41873  11.579   6.933   5.174  0.1897  0.6260 -0.5497
  311MOL0     O41874  11.582   6.914   5.313  0.1034  0.8363 -0.0398
  311MOL0     C41875  11.475   6.950   5.390  1.0712 -0.0701  1.1402
  311MOL0     C41876  11.347   6.985   5.349  0.2500  0.6718  0.0867
  311MOL0     C41877  11.254   7.007   5.445 -0.9854 -0.9196  0.2397
  311MOL0     C41878  11.285   6.993   5.584 -0.5268 -0.0618  0.0181
  311MOL0     C41879  11.175   7.013   5.681  0.8505  0.1748 -0.2240
  311MOL0     O41880  11.069   7.079   5.625  0.3364 -0.4608 -0.8815
  311MOL0     C41881  10.958   7.121   5.707 -1.5331 -0.3599  0.4754
  311MOL0     C41882  10.957   7.173   5.835  0.0352 -0.5056 -0.6945
  311MOL0     C41883  10.845   7.208   5.899  0.7340  0.7086  0.0365
  311MOL0     C41884  10.720   7.198   5.837 -0.7205 -0.0739  0.3338
  311MOL0     O41885  10.598   7.230   5.904  0.1859  0.2487 -0.3749
  311MOL0     C41886  10.575   7.370   5.887 -0.2512  0.2137  0.2013
  311MOL0     C41887  10.456   7.412   5.798  0.1093  0.3166 -0.0031
  311MOL0     C41888  10.477   7.391   5.644  0.4978 -0.0452 -0.3465
  311MOL0     C41889  10.598   7.468   5.592  0.0385  0.3121  0.2409
  311MOL0     C41890  10.595   7.476   5.443  0.1271  0.0432 -0.2462
  311MOL0     C41891  10.697   7.593   5.402 -0.9346  0.1371  0.6992
  311MOL0     C41892  10.745   7.587   5.255  0.3586  0.0657 -0.2760
  311MOL0     C41893  10.838   7.699   5.209 -0.4904  0.1213 -1.4490
  311MOL0    Cl41894  10.746   7.856   5.184 -0.2118  0.0272 -0.2404
  311MOL0     C41895  10.715   7.151   5.711 -0.1121 -0.3570 -0.1659
  311MOL0     C41896  10.830   7.109   5.642  0.3880 -0.4397  0.3836
  311MOL0     O41897  11.181   6.980   5.802 -0.2549 -0.3844  0.3180
  311MOL0     C41898  11.412   6.962   5.625 -0.1801  0.0851 -0.6451
  311MOL0     C41899  11.499   6.943   5.528  0.3033 -0.0696 -0.2614
  311MOL0     N41900  11.663   6.390   5.090  0.1893  0.1547 -0.2503
  311MOL0     N41901  11.748   6.301   5.108  0.1522  0.0472 -0.7728
  311MOL0     C41902  11.473   6.736   6.001  0.9862 -0.3483 -0.7346
  311MOL0     C41903  11.433   6.821   6.112 -1.0104  0.5966  0.1647
  311MOL0     C41904  11.387   6.884   6.572 -1.0183  0.1714  0.6373
  311MOL0     C41905  11.349   7.016   6.563  0.2451  1.7230 -0.1431
  311MOL0     C41906  11.345   7.099   6.676  0.8470  1.5828  0.1025
  311MOL0     C41907  11.366   7.060   6.803 -0.7832  0.4198 -0.4142
  311MOL0     O41908  11.342   7.150   6.910 -0.5089  0.5938  0.8255
  311MOL0     C41909  11.383   7.109   7.037  0.3305 -0.3397 -0.8315
  311MOL0     C41910  11.358   7.228   7.129 -0.8095  0.0200 -0.5005
  311MOL0     C41911  11.211   7.265   7.160  0.0376 -0.1263 -0.3869
  311MOL0     C41912  11.207   7.372   7.262 -0.1510 -0.2515 -0.9010
  311MOL0     C41913  11.227   7.330   7.401  0.7348  0.2008 -0.3509
  311MOL0     C41914  11.235   7.296   7.513  0.5191 -0.5280  0.7826
  311MOL0     C41915  11.413   6.928   6.814  0.2761 -0.4421 -0.8600
  311MOL0     C41916  11.422   6.841   6.702 -0.3824  0.1962  1.2140
  311MOL0     C41917  11.487   6.707   6.720  0.2505  0.5765  0.1205
  311MOL0     H41918  11.660   6.699   6.330 -0.2295  1.6592  1.2817
  311MOL0     H41919  11.711   6.544   6.144  0.0570 -1.9497  1.7431
  311MOL0     H41920  11.493   6.646   5.753  0.6042 -1.2464 -0.5359
  311MOL0     H41921  11.644   6.719   5.771  2.6216 -0.7074 -2.2330
  311MOL0     H41922  11.686   6.590   5.576  0.5563 -0.6521 -0.0976
  311MOL0     H41923  11.595   6.465   5.642  0.0229 -0.0194  1.4767
  311MOL0     H41924  11.762   6.392   5.791 -2.8576  1.5442  1.0905
  311MOL0     H41925  11.865   6.535   5.772 -0.2490 -0.8856  0.4374
  311MOL0     H41926  11.879   6.482   5.522  2.2762 -1.3305 -0.7284
  311MOL0     H41927  11.979   6.390   5.637  0.6101  1.0335 -0.9842
  311MOL0     H41928  11.782   6.214   5.636  2.2767 -1.5055 -0.3982
  311MOL0     H41929  11.733   6.305   5.491  2.3343  3.1485  0.2842
  311MOL0     H41930  11.988   6.148   5.531  1.3308 -1.7385 -2.2950
  311MOL0     H41931  11.849   6.099   5.422 -0.9726  1.5218 -2.9088
  311MOL0     H41932  12.093   6.192   5.379 -0.6777 -0.4678  1.0499
  311MOL0     H41933  12.044   6.351   5.382  2.0564 -0.4759  1.1852
  311MOL0     H41934  12.041   6.267   5.165 -0.3539 -1.2157 -0.6263
  311MOL0     H41935  11.912   6.145   5.204 -4.2075  1.9218 -1.6555
  311MOL0     H41936  11.882   6.528   5.301 -2.0351  3.8120 -2.1737
  311MOL0     H41937  11.617   6.649   5.051  0.2870 -0.9818 -0.6231
  311MOL0     H41938  11.574   6.644   5.216  0.5735 -0.2959  0.6767
  311MOL0     H41939  11.801   6.759   5.264  0.2391 -1.6540  0.0775
  311MOL0     H41940  11.861   6.711   5.115 -0.9022  0.1888 -3.1375
  311MOL0     H41941  11.707   6.880   4.997 -1.7912  1.6282  0.1909
  311MOL0     H41942  11.776   6.970   5.124  0.4776  0.7743 -1.2599
  311MOL0     H41943  11.496   6.871   5.140  4.3902 -4.3008 -3.2197
  311MOL0     H41944  11.575   7.042   5.162 -0.4853  0.7987  0.9561
  311MOL0     H41945  11.323   6.993   5.244 -2.7914 -3.4043  0.2095
  311MOL0     H41946  11.157   7.030   5.403 -0.4277  0.5927 -0.2902
  311MOL0     H41947  11.048   7.164   5.893 -0.5568 -2.2916  0.0097
  311MOL0     H41948  10.857   7.231   6.004  3.7636 -0.4487  0.0439
  311MOL0     H41949  10.544   7.413   5.983 -0.7458  0.5457 -0.1037
  311MOL0     H41950  10.665   7.422   5.853 -2.0186  2.2026 -1.7872
  311MOL0     H41951  10.377   7.346   5.835  2.3224 -0.7814  3.1391
  311MOL0     H41952  10.414   7.510   5.819 -4.0531 -1.8838  3.3562
  311MOL0     H41953  10.481   7.285   5.617  3.1074 -0.4487  1.2033
  311MOL0     H41954  10.387   7.431   5.598 -0.5101  0.2403  1.7620
  311MOL0     H41955  10.695   7.429   5.622  0.5367  0.7471 -0.7669
  311MOL0     H41956  10.577   7.570   5.626 -1.0915 -0.4064  1.8689
  311MOL0     H41957  10.494   7.488   5.403 -0.2724  2.0003  1.2550
  311MOL0     H41958  10.634   7.382   5.402  3.0251  2.0214 -2.4439
  311MOL0     H41959  10.648   7.690   5.402 -1.4598 -0.1166  0.1477
  311MOL0     H41960  10.781   7.607   5.471 -0.5562 -1.5885  0.6541
  311MOL0     H41961  10.661   7.575   5.186  0.4017 -0.8721 -0.1770
  311MOL0     H41962  10.796   7.490   5.253 -0.7077 -0.5369  0.5749
  311MOL0     H41963  10.917   7.704   5.284 -1.4021 -1.4856 -0.3186
  311MOL0     H41964  10.884   7.674   5.113 -2.1041  0.5116 -2.3698
  311MOL0     H41965  10.619   7.126   5.668 -0.7204  0.3647  0.7265
  311MOL0     H41966  10.813   7.070   5.542  0.8985  1.2353 -0.3986
  311MOL0     H41967  11.433   6.957   5.732 -0.6956  0.9529 -0.4893
  311MOL0     H41968  11.600   6.920   5.559  0.2660 -2.3796 -1.6265
  311MOL0     H41969  11.414   6.758   5.913 -1.1136 -0.8711  0.4633
  311MOL0     H41970  11.356   6.894   6.089 -1.8561 -0.5869 -0.9129
  311MOL0     H41971  11.322   7.064   6.469 -2.2922  2.9690  1.1230
  311MOL0     H41972  11.303   7.198   6.660 -2.1608  1.0500  3.5124
  311MOL0     H41973  11.492   7.105   7.035  0.3728  0.6395 -1.3041
  311MOL0     H41974  11.336   7.017   7.073  0.4694  0.0775  0.4539
  311MOL0     H41975  11.399   7.316   7.079  0.7394 -1.4109 -1.8688
  311MOL0     H41976  11.400   7.217   7.230 -0.6306  0.0523 -0.5717
  311MOL0     H41977  11.161   7.175   7.198 -0.5899  0.1872 -0.4556
  311MOL0     H41978  11.166   7.302   7.068  2.0358 -1.9347 -2.2162
  311MOL0     H41979  11.276   7.452   7.237 -0.7749  0.7783  0.5099
  311MOL0     H41980  11.103   7.405   7.268 -0.5577 -1.4327 -1.1632
  311MOL0     H41981  11.261   7.253   7.607 -2.3305 -1.2601  1.3414
  311MOL0     H41982  11.452   6.890   6.908 -1.1607  0.3223  0.0650
  311MOL0     H41983  11.414   6.646   6.773  0.3449  0.4338  0.0850
  311MOL0     H41984  11.532   6.661   6.632  1.4553  2.4084 -0.2939
  311MOL0     H41985  11.568   6.725   6.792  2.6129  2.3133 -2.7305
  312MOL0     O41986   5.097   4.525   0.940  0.0061 -0.6015 -0.1066
  312MOL0     C41987   4.977   4.515   0.973 -0.6427 -0.1429  0.6327
  312MOL0     O41988   4.891   4.620   0.967  0.1951  0.0627 -0.0026
  312MOL0     C41989   4.932   4.750   0.976  0.1123 -0.2763  0.5928
  312MOL0     C41990   5.038   4.789   1.049 -0.5863  0.0314 -0.3899
  312MOL0     C41991   5.087   4.918   1.056  0.0194 -0.5226 -0.7589
  312MOL0     C41992   5.017   5.011   0.973 -0.1659  0.0239 -0.2717
  312MOL0     O41993   5.040   5.148   0.974  0.9129 -0.6670 -0.0462
  312MOL0     C41994   5.165   5.200   1.022  0.4405  0.7900 -0.0644
  312MOL0     C41995   5.135   5.334   1.080 -0.5118 -0.1616 -0.1268
  312MOL0     C41996   5.269   5.402   1.126 -0.3745  0.4291 -0.4577
  312MOL0     C41997   5.377   5.396   1.006 -0.1078  0.0908  0.2649
  312MOL0     C41998   5.504   5.473   1.031 -0.1258  0.0306 -0.7083
  312MOL0     C41999   5.487   5.615   0.990  0.2239  0.0106 -0.1583
  312MOL0     C42000   5.595   5.694   1.060 -0.0087 -0.2018 -0.4283
  312MOL0     C42001   5.612   5.849   1.026 -0.3403 -0.2740 -0.2719
  312MOL0     N42002   5.654   5.860   0.880 -1.3166  0.9476  0.0439
  312MOL0     C42003   5.569   5.860   0.776 -0.4312  0.1837  0.1717
  312MOL0     C42004   5.646   5.828   0.673  0.2352  1.3732 -0.6562
  312MOL0     C42005   5.607   5.806   0.531  1.1249 -0.3397 -0.1304
  312MOL0     C42006   5.496   5.701   0.523  0.2913  1.0317  0.5805
  312MOL0     C42007   5.477   5.667   0.373 -0.1458 -0.2185 -0.4759
  312MOL0     C42008   5.426   5.526   0.357 -0.2491 -0.3848 -0.1571
  312MOL0     O42009   5.520   5.432   0.401  0.0901 -0.0130  0.6021
  312MOL0     C42010   5.612   5.385   0.316 -0.0153  1.4054  0.3178
  312MOL0     C42011   5.745   5.391   0.353  0.0694  0.5355 -0.9484
  312MOL0     C42012   5.840   5.313   0.282  0.4017 -0.6494 -1.1302
  312MOL0     C42013   5.805   5.239   0.170 -0.2807  0.6716 -0.6757
  312MOL0     C42014   5.904   5.161   0.105 -0.2436  1.0213 -0.3557
  312MOL0     O42015   5.998   5.105   0.185 -0.0143  0.9625 -0.4237
  312MOL0     C42016   6.094   5.018   0.129  0.2152 -0.1554 -0.0728
  312MOL0     C42017   6.131   4.901   0.197  0.6365 -0.2141 -0.2176
  312MOL0     C42018   6.223   4.813   0.157 -1.0191 -0.3965  0.6639
  312MOL0     C42019   6.298   4.832   0.039  0.3568  0.5059  0.2440
  312MOL0     O42020   6.403   4.751   0.002 -0.5886  0.0853  0.0811
  312MOL0     C42021   6.519   4.818  -0.050  0.6582  0.7200  0.4941
  312MOL0     C42022   6.653   4.762  -0.002  0.8842 -0.2379  0.6917
  312MOL0     C42023   6.682   4.630  -0.072 -0.1393 -1.0690 -0.3153
  312MOL0     C42024   6.830   4.591  -0.058 -0.5269 -0.8475 -1.0728
  312MOL0     C42025   6.869   4.478  -0.148 -0.1554  0.1996  0.1742
  312MOL0     C42026   6.999   4.404  -0.092 -0.3159  0.6822  0.4462
  312MOL0     C42027   6.980   4.307   0.024 -0.2740  0.7453  1.0583
  312MOL0     C42028   7.109   4.241   0.066 -0.5118  0.4222  0.0558
  312MOL0    Cl42029   7.170   4.124  -0.062  0.1963  0.0135 -0.4522
  312MOL0     C42030   6.260   4.940  -0.040 -0.3158 -0.0398 -1.1922
  312MOL0     C42031   6.163   5.037   0.009 -0.5895  0.0886  0.5777
  312MOL0     O42032   5.893   5.141  -0.015 -0.0275 -0.3322  0.3309
  312MOL0     C42033   5.671   5.243   0.125 -0.1683 -0.9930  0.5384
  312MOL0     C42034   5.585   5.326   0.194  0.1609 -0.1637  0.2595
  312MOL0     N42035   5.782   5.802   0.719  0.1557 -0.5983  0.4728
  312MOL0     N42036   5.777   5.827   0.842  0.4018 -0.8409  0.0590
  312MOL0     C42037   4.903   4.974   0.904  0.2462 -0.2310  0.5981
  312MOL0     C42038   4.856   4.841   0.913  0.2571 -0.2796  0.1133
  312MOL0     C42039   4.925   4.382   1.006 -0.2135 -0.0355 -0.1884
  312MOL0     C42040   5.011   4.278   1.039 -0.0519 -0.4761 -0.8863
  312MOL0     C42041   4.970   4.148   1.070 -0.1649  0.4239  0.4019
  312MOL0     C42042   4.832   4.119   1.061 -0.0963 -0.5751  1.0386
  312MOL0     O42043   4.774   4.001   1.094  0.2799 -0.6374 -0.1598
  312MOL0     C42044   4.839   3.898   1.154  0.6308  0.9686 -0.9415
  312MOL0     C42045   4.737   3.787   1.174  0.1159  0.1600 -1.1960
  312MOL0     C42046   4.774   3.655   1.234 -0.2133 -0.2196 -1.0202
  312MOL0     C42047   4.660   3.573   1.295 -0.6243 -0.1565  0.6168
  312MOL0     C42048   4.689   3.427   1.321 -0.3445 -0.2219 -1.0237
  312MOL0     C42049   4.729   3.308   1.351  0.5576 -0.6082 -0.2177
  312MOL0     C42050   4.738   4.221   1.025  0.4973  0.4203  0.0125
  312MOL0     C42051   4.787   4.352   1.014 -0.1436 -0.6466 -1.1333
  312MOL0     C42052   4.676   4.452   0.983  0.1980 -0.3907 -0.5224
  312MOL0     H42053   5.099   4.720   1.107  2.0995  0.9789 -1.9260
  312MOL0     H42054   5.162   4.947   1.128 -1.1997 -0.0622  0.3673
  312MOL0     H42055   5.219   5.142   1.098  1.2126  0.3874 -0.9043
  312MOL0     H42056   5.229   5.196   0.933  1.8149 -0.8487  0.9170
  312MOL0     H42057   5.055   5.323   1.154  0.1481 -2.2098  0.3600
  312MOL0     H42058   5.077   5.380   1.000 -1.3476  0.3223  0.7408
  312MOL0     H42059   5.309   5.354   1.216 -0.1701 -0.3151 -0.9346
  312MOL0     H42060   5.256   5.508   1.148 -1.6447  0.5065 -1.4349
  312MOL0     H42061   5.412   5.293   0.993 -0.7573 -0.0309 -0.5627
  312MOL0     H42062   5.338   5.430   0.910  2.8391  1.9482 -0.4131
  312MOL0     H42063   5.528   5.460   1.136  1.5359 -2.5139 -1.3281
  312MOL0     H42064   5.584   5.438   0.966  0.5555 -1.8498  1.0276
  312MOL0     H42065   5.512   5.618   0.884  2.4558  1.1301  0.3430
  312MOL0     H42066   5.390   5.661   1.008  0.9157  1.7784 -0.7943
  312MOL0     H42067   5.688   5.638   1.052 -1.7791 -3.4794  0.1405
  312MOL0     H42068   5.564   5.696   1.165 -1.4136 -1.1240 -0.7993
  312MOL0     H42069   5.511   5.892   1.031  0.6588  3.3102 -4.6299
  312MOL0     H42070   5.671   5.901   1.102  0.0898 -3.5091  1.8181
  312MOL0     H42071   5.462   5.874   0.771 -0.1328  2.8776 -0.3649
  312MOL0     H42072   5.581   5.903   0.487 -0.0391  1.4127  3.9628
  312MOL0     H42073   5.687   5.770   0.465  1.6853 -1.0470  0.9094
  312MOL0     H42074   5.513   5.606   0.574  0.9836 -0.4026 -2.1669
  312MOL0     H42075   5.401   5.742   0.560  1.1747  1.4799  2.5011
  312MOL0     H42076   5.572   5.673   0.320 -0.1904  0.1007 -0.5246
  312MOL0     H42077   5.410   5.748   0.343  0.3917  0.6335  0.5390
  312MOL0     H42078   5.402   5.513   0.251 -0.5184  1.5822 -0.3725
  312MOL0     H42079   5.334   5.511   0.414 -1.6370 -2.0925 -2.6305
  312MOL0     H42080   5.783   5.452   0.434  1.3382 -1.9481  0.4402
  312MOL0     H42081   5.943   5.316   0.316  0.1709  4.7533  0.1276
  312MOL0     H42082   6.090   4.878   0.295 -0.6196 -2.7378 -1.2494
  312MOL0     H42083   6.240   4.720   0.210  0.1527 -0.9743 -0.6508
  312MOL0     H42084   6.511   4.816  -0.159 -0.2215 -1.3291  0.5472
  312MOL0     H42085   6.529   4.922  -0.018  1.6111 -0.2958  3.8732
  312MOL0     H42086   6.725   4.834  -0.039  1.0048 -1.7101 -2.2989
  312MOL0     H42087   6.658   4.753   0.107 -0.3699  1.2760  0.9133
  312MOL0     H42088   6.615   4.554  -0.032  2.1856 -2.5049  1.1527
  312MOL0     H42089   6.656   4.659  -0.174  0.9358  1.0082 -0.0632
  312MOL0     H42090   6.840   4.554   0.045  0.8245 -2.1439 -1.6385
  312MOL0     H42091   6.902   4.672  -0.072 -1.6437  1.0766  2.7591
  312MOL0     H42092   6.893   4.528  -0.242  0.5546 -1.3218 -0.4910
  312MOL0     H42093   6.791   4.407  -0.177  1.1590 -0.6062 -1.5617
  312MOL0     H42094   7.054   4.354  -0.173 -0.5684  1.2292 -0.0717
  312MOL0     H42095   7.069   4.481  -0.061  1.9102 -1.6358  1.5523
  312MOL0     H42096   6.911   4.230  -0.012  0.5380  0.8824 -0.9160
  312MOL0     H42097   6.938   4.366   0.106  0.2633 -0.5649  2.3340
  312MOL0     H42098   7.182   4.320   0.088 -0.2500 -0.0787  1.0172
  312MOL0     H42099   7.083   4.173   0.147  1.1183 -1.6182 -1.0193
  312MOL0     H42100   6.303   4.948  -0.139 -0.8943 -1.3656 -1.5609
  312MOL0     H42101   6.146   5.119  -0.061 -0.9495 -2.4865 -2.5914
  312MOL0     H42102   5.637   5.198   0.032  4.1197  0.2916 -1.9381
  312MOL0     H42103   5.483   5.334   0.157 -0.0901  0.5600  1.0756
  312MOL0     H42104   4.850   5.036   0.832  0.9281  1.2198  1.2939
  312MOL0     H42105   4.759   4.807   0.881 -0.1935 -0.4549  1.6057
  312MOL0     H42106   5.115   4.312   1.039 -1.0536  3.1788 -3.2972
  312MOL0     H42107   5.045   4.079   1.107  0.8017  1.9977  1.4619
  312MOL0     H42108   4.873   3.929   1.253  0.5451  0.2068 -0.6636
  312MOL0     H42109   4.927   3.872   1.094  0.3398  1.9316 -1.8109
  312MOL0     H42110   4.702   3.760   1.074  1.4070 -0.7211 -1.4279
  312MOL0     H42111   4.654   3.827   1.233 -0.5362  1.6844 -3.0701
  312MOL0     H42112   4.851   3.680   1.308 -2.9143  1.6353  1.3666
  312MOL0     H42113   4.831   3.592   1.165  1.9604  0.3687  0.1288
  312MOL0     H42114   4.632   3.612   1.393  1.4370 -2.2963  2.1554
  312MOL0     H42115   4.573   3.581   1.228 -1.3148  4.2518  1.7200
  312MOL0     H42116   4.756   3.210   1.386 -1.3523 -0.7994  0.9074
  312MOL0     H42117   4.633   4.194   1.035  0.7746 -0.4567  0.7183
  312MOL0     H42118   4.690   4.503   0.887 -1.7790 -2.7296 -2.1827
  312MOL0     H42119   4.575   4.409   0.985 -0.4876  1.1600  0.7107
  312MOL0     H42120   4.670   4.519   1.069 -2.9093 -1.0310 -0.1113
  313MOL0     O42121   4.188  10.830   4.825  0.3796 -0.2751  0.1955
  313MOL0     C42122   4.094  10.754   4.815  0.6812 -0.5875 -0.5092
  313MOL0     O42123   4.074  10.655   4.717  0.2538 -0.5624 -0.3024
  313MOL0     C42124   4.162  10.630   4.621 -0.3229 -0.9746  0.1148
  313MOL0     C42125   4.144  10.679   4.490 -0.4668 -0.2633  0.5410
  313MOL0     C42126   4.235  10.650   4.382  0.6763  0.4552 -0.3365
  313MOL0     C42127   4.358  10.593   4.424 -0.8198 -0.6101  0.3870
  313MOL0     O42128   4.459  10.577   4.332 -0.1918  0.0788 -0.4034
  313MOL0     C42129   4.421  10.503   4.214  0.1448 -0.7314 -0.4732
  313MOL0     C42130   4.534  10.485   4.109 -0.5033  0.1332 -0.1898
  313MOL0     C42131   4.648  10.384   4.143 -0.1807  0.6515 -0.5904
  313MOL0     C42132   4.741  10.368   4.016  0.2225  0.1846  0.4957
  313MOL0     C42133   4.791  10.228   4.008  0.2688  0.6314  0.2803
  313MOL0     C42134   4.920  10.227   3.923 -0.0605  0.0772 -0.5400
  313MOL0     C42135   4.973  10.094   3.885  0.3000 -0.8598  0.2150
  313MOL0     C42136   4.997  10.011   4.005  0.5937  0.2939 -0.9182
  313MOL0     N42137   5.091  10.085   4.103  0.3978 -0.0178  0.0689
  313MOL0     C42138   5.236  10.083   4.101  0.2578  0.5492  0.1945
  313MOL0     C42139   5.279  10.158   4.202 -0.1950 -0.2691 -0.6073
  313MOL0     C42140   5.428  10.157   4.237  0.0639 -0.4117 -1.0616
  313MOL0     C42141   5.449  10.215   4.380 -0.4241 -0.3429  0.1768
  313MOL0     C42142   5.400  10.363   4.409 -0.6670  0.9535  1.6241
  313MOL0     C42143   5.450  10.456   4.294  0.0842  1.1504 -0.3932
  313MOL0     O42144   5.593  10.435   4.260  0.7928  0.3371  0.3346
  313MOL0     C42145   5.685  10.497   4.337 -0.2027 -0.1744  0.2138
  313MOL0     C42146   5.659  10.585   4.447 -0.2522  0.3156  0.2171
  313MOL0     C42147   5.765  10.651   4.508 -1.1669 -0.2615  0.3523
  313MOL0     C42148   5.895  10.634   4.465 -0.6346 -0.6282  0.3145
  313MOL0     C42149   6.008  10.687   4.550 -0.3556  0.2550 -0.3916
  313MOL0     O42150   5.971  10.765   4.657 -0.1884  0.2999 -0.1825
  313MOL0     C42151   6.062  10.804   4.756  0.7896 -0.0628  0.3617
  313MOL0     C42152   6.198  10.777   4.762 -0.1562 -0.1446 -0.0643
  313MOL0     C42153   6.276  10.830   4.867 -0.2142  0.7787 -0.4360
  313MOL0     C42154   6.217  10.905   4.970 -0.6005 -0.2375  0.7513
  313MOL0     O42155   6.302  10.975   5.057 -0.3194 -0.2439 -0.1561
  313MOL0     C42156   6.319  11.114   5.012  0.3205  0.8779  1.0880
  313MOL0     C42157   6.431  11.170   5.089  0.1987  0.8949  0.2989
  313MOL0     C42158   6.398  11.199   5.238 -0.3558  0.2897 -0.5441
  313MOL0     C42159   6.530  11.242   5.302 -0.6792 -0.0863 -0.7225
  313MOL0     C42160   6.517  11.243   5.454 -0.4809 -0.4354 -0.4724
  313MOL0     C42161   6.648  11.291   5.527 -0.0542 -0.8887  0.0220
  313MOL0     C42162   6.613  11.302   5.674  0.0368 -0.4599  0.0132
  313MOL0     C42163   6.732  11.375   5.753  0.3708  0.2982 -0.2164
  313MOL0    Cl42164   6.657  11.457   5.893 -0.1678 -0.1622  0.5624
  313MOL0     C42165   6.074  10.921   4.970  0.0635  0.1393  0.5170
  313MOL0     C42166   5.993  10.869   4.864 -0.0885  0.1481 -0.2361
  313MOL0     O42167   6.124  10.661   4.505  0.0484  0.5917 -0.0030
  313MOL0     C42168   5.923  10.569   4.343 -0.0730  0.4282  0.0720
  313MOL0     C42169   5.812  10.497   4.285 -0.4219  1.0938 -0.4375
  313MOL0     N42170   5.165  10.193   4.273  0.3364  0.7898  0.3162
  313MOL0     N42171   5.056  10.154   4.216 -1.0874  0.0863  0.3129
  313MOL0     C42172   4.382  10.563   4.563 -0.1632  0.1452 -0.3476
  313MOL0     C42173   4.276  10.564   4.655 -0.5557  0.6964 -0.0243
  313MOL0     C42174   3.986  10.756   4.915  0.5955  0.7403  0.2026
  313MOL0     C42175   3.860  10.692   4.878 -0.9951  0.1733  1.1012
  313MOL0     C42176   3.749  10.703   4.958  0.4023  0.1308  0.1693
  313MOL0     C42177   3.752  10.786   5.068 -0.3225 -0.3022  0.1079
  313MOL0     O42178   3.630  10.785   5.125 -0.1154  0.3322 -0.5583
  313MOL0     C42179   3.617  10.841   5.257 -0.5159 -0.6524  0.0345
  313MOL0     C42180   3.476  10.834   5.301  0.0148  0.0332 -0.7655
  313MOL0     C42181   3.428  10.694   5.315  0.9137 -0.4058  0.2625
  313MOL0     C42182   3.291  10.697   5.374 -1.1089 -0.9546  0.1895
  313MOL0     C42183   3.206  10.582   5.359 -0.4808 -0.1484  0.1130
  313MOL0     C42184   3.153  10.476   5.332  0.1358 -0.2381 -0.6502
  313MOL0     C42185   3.870  10.851   5.108 -0.1314 -0.3062  0.7957
  313MOL0     C42186   3.992  10.824   5.039 -0.0573 -0.3578 -0.6423
  313MOL0     C42187   4.114  10.895   5.099  0.0896 -0.4608 -0.3517
  313MOL0     H42188   4.061  10.742   4.459 -1.5691 -2.3428 -0.9677
  313MOL0     H42189   4.218  10.686   4.282  0.8557  0.4328 -0.3754
  313MOL0     H42190   4.392  10.402   4.244  0.9332 -0.6015  0.7868
  313MOL0     H42191   4.335  10.554   4.170  1.4856  1.5646 -0.6025
  313MOL0     H42192   4.577  10.581   4.081 -2.7563  1.1515 -0.3130
  313MOL0     H42193   4.477  10.449   4.023  3.2097  1.1430 -3.3674
  313MOL0     H42194   4.602  10.288   4.167  2.3123 -0.4757  0.0609
  313MOL0     H42195   4.711  10.413   4.228  1.3678  0.0859 -1.4950
  313MOL0     H42196   4.675  10.383   3.930  2.3869 -0.4775 -1.3743
  313MOL0     H42197   4.823  10.441   4.016  1.3819 -1.0736 -0.6496
  313MOL0     H42198   4.806  10.206   4.114 -1.2070  0.3056  0.4485
  313MOL0     H42199   4.712  10.159   3.977 -4.2172  4.7508  1.3665
  313MOL0     H42200   4.901  10.279   3.828 -0.8837  0.2456 -0.2901
  313MOL0     H42201   5.003  10.280   3.969  0.7127  1.1759 -3.0154
  313MOL0     H42202   5.066  10.112   3.829 -0.9622  0.4918 -1.5401
  313MOL0     H42203   4.905  10.056   3.808 -3.5193  4.7298  0.2604
  313MOL0     H42204   4.905   9.987   4.059  1.1973 -0.1670 -0.0722
  313MOL0     H42205   5.042   9.916   3.975 -0.3601 -0.0163 -1.4129
  313MOL0     H42206   5.306  10.038   4.031 -1.1233 -1.2934 -0.0992
  313MOL0     H42207   5.483  10.062   4.228 -1.2805 -1.0683 -3.3903
  313MOL0     H42208   5.487  10.216   4.166 -0.2849  5.3328  2.7642
  313MOL0     H42209   5.400  10.145   4.449  1.3415 -1.4732  0.3600
  313MOL0     H42210   5.553  10.198   4.409 -0.8906 -1.2012  1.4818
  313MOL0     H42211   5.446  10.401   4.501  0.5291  5.1446 -0.4159
  313MOL0     H42212   5.292  10.370   4.420 -1.2772 -2.9513 -0.0315
  313MOL0     H42213   5.427  10.558   4.326 -0.9373  0.5930  0.7185
  313MOL0     H42214   5.407  10.417   4.202 -1.2221 -0.3822  0.8179
  313MOL0     H42215   5.564  10.629   4.478 -1.7417 -2.1844 -0.5420
  313MOL0     H42216   5.751  10.721   4.590  0.1825  0.1820  0.2391
  313MOL0     H42217   6.236  10.699   4.696 -0.4630 -1.3519  1.1308
  313MOL0     H42218   6.382  10.810   4.854 -0.7917 -1.4475 -2.5498
  313MOL0     H42219   6.356  11.116   4.909 -1.7361  0.9783  0.3173
  313MOL0     H42220   6.220  11.159   5.013  0.1780  0.9209 -2.2677
  313MOL0     H42221   6.515  11.101   5.085 -0.1311  0.4872  0.2633
  313MOL0     H42222   6.453  11.265   5.039 -0.7341  1.5983  1.1776
  313MOL0     H42223   6.322  11.278   5.249 -1.1063 -0.3376 -1.1196
  313MOL0     H42224   6.362  11.107   5.285  2.4294 -0.6838 -0.1535
  313MOL0     H42225   6.561  11.343   5.275 -0.4337 -0.2645 -1.1137
  313MOL0     H42226   6.615  11.178   5.277  1.3157  3.1105 -2.8487
  313MOL0     H42227   6.491  11.142   5.488 -2.6707  0.2227 -0.0450
  313MOL0     H42228   6.441  11.311   5.493  2.0515  1.0967  2.1551
  313MOL0     H42229   6.715  11.205   5.532  0.6305 -0.3168  2.9985
  313MOL0     H42230   6.696  11.384   5.493 -1.8726  0.5508  1.1817
  313MOL0     H42231   6.591  11.207   5.723 -0.5494  0.1096  0.8809
  313MOL0     H42232   6.524  11.363   5.687 -1.1112 -1.3141 -3.1192
  313MOL0     H42233   6.809  11.303   5.783 -1.2561 -0.6805  1.8751
  313MOL0     H42234   6.786  11.440   5.684 -0.7730  0.9204 -0.5547
  313MOL0     H42235   6.028  10.973   5.054  1.2762 -0.4130  1.5466
  313MOL0     H42236   5.888  10.895   4.868  0.0733  0.8691 -0.5017
  313MOL0     H42237   6.025  10.559   4.306  0.8615 -0.8667  2.7446
  313MOL0     H42238   5.824  10.429   4.202 -1.1352  2.6294 -1.8630
  313MOL0     H42239   4.478  10.527   4.597 -0.9752  0.2102  2.1573
  313MOL0     H42240   4.291  10.535   4.758 -0.4119 -0.2047 -0.2857
  313MOL0     H42241   3.859  10.616   4.800 -0.9393  2.7175 -1.5402
  313MOL0     H42242   3.655  10.654   4.933 -0.3491 -0.3368  3.4053
  313MOL0     H42243   3.640  10.948   5.248  4.8545 -1.1942  3.2929
  313MOL0     H42244   3.689  10.802   5.328  1.2081  1.7698 -0.2520
  313MOL0     H42245   3.411  10.898   5.240 -0.8055  3.4538  3.2292
  313MOL0     H42246   3.466  10.885   5.398  1.3759  1.6237 -1.4046
  313MOL0     H42247   3.495  10.635   5.377  1.2787  0.5846  0.8423
  313MOL0     H42248   3.433  10.644   5.217  3.1629 -1.4981  0.8733
  313MOL0     H42249   3.295  10.740   5.474 -2.5843  3.2155 -1.3499
  313MOL0     H42250   3.233  10.770   5.317  0.7091 -0.0873 -0.6192
  313MOL0     H42251   3.100  10.385   5.312  0.3908 -0.2125 -1.4913
  313MOL0     H42252   3.879  10.910   5.199 -2.2874  1.0762  0.1733
  313MOL0     H42253   4.196  10.822   5.102 -1.1119 -1.8389  0.1273
  313MOL0     H42254   4.159  10.977   5.042  3.0480 -2.6208 -1.4389
  313MOL0     H42255   4.090  10.939   5.196  1.6790  1.2175 -0.6661
  314MOL0     O42256   6.231   9.487   2.633  0.4155 -0.1070 -0.8129
  314MOL0     C42257   6.259   9.512   2.516  0.3426  0.5158 -0.1543
  314MOL0     O42258   6.189   9.586   2.431  0.9417 -0.2336 -0.1053
  314MOL0     C42259   6.054   9.554   2.406  0.3358 -0.0396  0.1895
  314MOL0     C42260   5.964   9.474   2.478  1.0953 -0.9395 -1.1652
  314MOL0     C42261   5.833   9.446   2.429 -0.2370 -0.3147  0.1551
  314MOL0     C42262   5.801   9.502   2.307 -1.4491  0.1080  0.0615
  314MOL0     O42263   5.680   9.484   2.249  0.6257 -0.5004  0.1532
  314MOL0     C42264   5.607   9.359   2.266 -0.1910 -0.6282  0.0154
  314MOL0     C42265   5.687   9.239   2.223 -0.6457 -0.2460  0.6847
  314MOL0     C42266   5.619   9.109   2.233  0.4579  0.3196 -0.4745
  314MOL0     C42267   5.553   9.069   2.097  0.2868  0.8463  0.2840
  314MOL0     C42268   5.465   8.942   2.101  0.5220  0.4620  0.3716
  314MOL0     C42269   5.519   8.830   2.010 -0.2537  0.9328 -0.2684
  314MOL0     C42270   5.649   8.764   2.052 -0.5877 -0.3516  0.4824
  314MOL0     C42271   5.648   8.699   2.185  0.8254  0.3472  0.3686
  314MOL0     N42272   5.777   8.652   2.248 -0.4694 -0.0015 -0.2663
  314MOL0     C42273   5.839   8.533   2.223 -0.2709 -0.3919 -0.0353
  314MOL0     C42274   5.954   8.535   2.295  0.7158 -0.4826  0.2686
  314MOL0     C42275   6.051   8.420   2.299 -0.0055 -0.0939  0.0488
  314MOL0     C42276   6.129   8.418   2.172 -0.3928 -0.3963  0.4224
  314MOL0     C42277   6.210   8.545   2.150  0.2817 -0.4079 -0.0203
  314MOL0     C42278   6.270   8.548   2.010 -0.3478  0.7578  0.1373
  314MOL0     O42279   6.334   8.680   2.005 -0.5455  0.0659  0.3280
  314MOL0     C42280   6.272   8.798   1.984 -0.4577 -0.4708  0.7271
  314MOL0     C42281   6.347   8.914   2.015  0.2493 -0.4970  0.9149
  314MOL0     C42282   6.314   9.042   1.961  0.8047  0.1345 -0.3184
  314MOL0     C42283   6.191   9.062   1.894 -1.0334  0.4399  0.1016
  314MOL0     C42284   6.155   9.199   1.845  0.1450  0.2600 -0.0922
  314MOL0     O42285   6.226   9.311   1.890  0.1703  0.1867 -0.5529
  314MOL0     C42286   6.199   9.428   1.820 -0.0929 -0.1408 -0.0788
  314MOL0     C42287   6.094   9.507   1.872 -0.8521  0.6691 -0.1925
  314MOL0     C42288   6.045   9.615   1.796 -0.2869  0.1289  0.5195
  314MOL0     C42289   6.112   9.641   1.670  0.1645 -0.1770  0.0243
  314MOL0     O42290   6.073   9.759   1.607 -0.1155 -0.6082 -0.1910
  314MOL0     C42291   6.178   9.854   1.570  0.4047  0.6854  0.2134
  314MOL0     C42292   6.123   9.993   1.542  0.4717  0.7761  0.8718
  314MOL0     C42293   6.046  10.035   1.676 -0.8528  0.8921 -0.2496
  314MOL0     C42294   5.982  10.173   1.667 -0.4654 -0.2061 -0.1145
  314MOL0     C42295   5.972  10.242   1.804 -0.0013  0.4692  0.4269
  314MOL0     C42296   5.877  10.168   1.893  0.1181 -0.5908 -0.8329
  314MOL0     C42297   5.830  10.254   2.011  0.1029 -0.1436 -0.2907
  314MOL0     C42298   5.832  10.186   2.148  0.3451  0.4032  0.2149
  314MOL0    Cl42299   5.710  10.052   2.153  0.5234 -0.0508  0.0978
  314MOL0     C42300   6.227   9.568   1.629  0.0162  0.7207  0.5492
  314MOL0     C42301   6.269   9.457   1.703 -0.4174  0.7456  0.0977
  314MOL0     O42302   6.067   9.208   1.755 -0.0633  0.5900 -0.0986
  314MOL0     C42303   6.106   8.947   1.867  0.6921 -0.9901 -0.0867
  314MOL0     C42304   6.147   8.824   1.916 -0.3924  0.5925 -0.8482
  314MOL0     N42305   5.958   8.649   2.372 -0.7498  0.3568 -0.3352
  314MOL0     N42306   5.854   8.716   2.343  0.2520  0.0276  0.5858
  314MOL0     C42307   5.888   9.595   2.245 -0.4513  0.5088  0.2465
  314MOL0     C42308   6.014   9.621   2.294 -0.5599 -1.0408 -0.3980
  314MOL0     C42309   6.386   9.450   2.467 -0.5440  0.6401  0.4215
  314MOL0     C42310   6.499   9.477   2.552 -0.6023  0.6347 -0.2370
  314MOL0     C42311   6.620   9.410   2.526  0.7380 -0.0932  0.7786
  314MOL0     C42312   6.626   9.323   2.412 -0.4129  0.0377 -0.5588
  314MOL0     O42313   6.747   9.249   2.378  1.0757 -0.4989  0.6449
  314MOL0     C42314   6.739   9.109   2.338 -0.7439 -0.9879  1.0932
  314MOL0     C42315   6.781   9.109   2.187 -0.8296 -0.4577 -0.2741
  314MOL0     C42316   6.774   8.963   2.131 -0.3206  0.1275  0.0480
  314MOL0     C42317   6.895   8.880   2.185 -0.6453  0.6649  0.0653
  314MOL0     C42318   6.879   8.809   2.312 -0.7678 -0.3395  0.0075
  314MOL0     C42319   6.871   8.739   2.407 -0.5783  0.2670 -1.2197
  314MOL0     C42320   6.526   9.321   2.323 -0.0275  0.0689  0.5749
  314MOL0     C42321   6.397   9.374   2.348  0.1303 -0.1874 -0.1044
  314MOL0     C42322   6.292   9.352   2.238  0.2269 -0.3194 -0.7290
  314MOL0     H42323   6.010   9.431   2.566  4.1602 -0.7949 -2.5487
  314MOL0     H42324   5.767   9.374   2.477  0.5958 -1.6511 -0.6413
  314MOL0     H42325   5.574   9.338   2.368 -0.6633  1.5026  0.3471
  314MOL0     H42326   5.521   9.374   2.199 -2.2776 -0.4689  2.5507
  314MOL0     H42327   5.778   9.232   2.283  0.9451 -1.0836 -1.6517
  314MOL0     H42328   5.729   9.256   2.123  1.3415 -0.1869  1.4801
  314MOL0     H42329   5.537   9.109   2.306  1.9116 -1.0006  1.2581
  314MOL0     H42330   5.670   9.019   2.267 -0.1352 -0.8061 -2.4353
  314MOL0     H42331   5.490   9.155   2.073 -0.0557  1.3340  2.6241
  314MOL0     H42332   5.633   9.054   2.024 -3.8944 -2.2401 -4.2982
  314MOL0     H42333   5.440   8.909   2.203 -2.1822  3.8238  0.9829
  314MOL0     H42334   5.366   8.972   2.065  1.3099  2.9569  0.0829
  314MOL0     H42335   5.438   8.757   1.996 -0.0179  0.4499  0.8141
  314MOL0     H42336   5.536   8.877   1.913 -0.6269  2.0557  0.2011
  314MOL0     H42337   5.727   8.841   2.056  0.1517 -1.0837  0.5376
  314MOL0     H42338   5.683   8.690   1.978 -3.7838 -3.2150  1.6437
  314MOL0     H42339   5.612   8.774   2.256  0.6252 -1.5734  2.4063
  314MOL0     H42340   5.575   8.618   2.173 -1.7868  2.6181 -0.2940
  314MOL0     H42341   5.817   8.462   2.145  1.8807 -0.6683 -0.4632
  314MOL0     H42342   6.119   8.437   2.384 -0.1318  0.1860  0.0945
  314MOL0     H42343   6.002   8.325   2.322 -1.1183  1.0271  2.8224
  314MOL0     H42344   6.200   8.334   2.179  0.5735  0.3121 -0.5973
  314MOL0     H42345   6.064   8.396   2.086  2.7514 -1.0047 -1.9888
  314MOL0     H42346   6.292   8.547   2.222 -0.0425  0.8024  0.3493
  314MOL0     H42347   6.156   8.637   2.174 -0.0085 -0.2651 -1.1335
  314MOL0     H42348   6.203   8.536   1.925 -0.7786 -1.4257  0.7216
  314MOL0     H42349   6.344   8.468   2.001 -0.5174  0.5771  0.3118
  314MOL0     H42350   6.448   8.908   2.053  1.0104 -1.7790 -1.1439
  314MOL0     H42351   6.381   9.126   1.975 -0.8405  1.5894 -0.8620
  314MOL0     H42352   6.051   9.469   1.965  2.0254  0.9611  1.3743
  314MOL0     H42353   5.959   9.675   1.821  1.5973  2.1452  2.6139
  314MOL0     H42354   6.263   9.851   1.639  3.0714 -2.0516 -2.7893
  314MOL0     H42355   6.233   9.818   1.482 -1.7395 -1.3123 -0.4131
  314MOL0     H42356   6.200  10.063   1.507  1.1106 -0.3351 -0.0295
  314MOL0     H42357   6.045   9.977   1.467  2.9066  1.4665 -2.0239
  314MOL0     H42358   5.974   9.955   1.696  2.9392 -3.0065 -0.8855
  314MOL0     H42359   6.126  10.037   1.751 -0.3376  1.4995 -0.8035
  314MOL0     H42360   5.882  10.176   1.623 -1.3904  2.4416  1.8266
  314MOL0     H42361   6.044  10.232   1.599 -0.0041 -0.4000  0.1335
  314MOL0     H42362   5.943  10.347   1.797 -1.7172  0.2627  3.1170
  314MOL0     H42363   6.071  10.240   1.852  0.2845  1.0395 -0.1136
  314MOL0     H42364   5.789  10.141   1.832 -0.8739 -0.4946  0.5102
  314MOL0     H42365   5.919  10.075   1.932  1.0419  0.2401  0.1926
  314MOL0     H42366   5.726  10.277   1.985 -0.2053 -0.7366  0.4028
  314MOL0     H42367   5.891  10.345   2.009  1.7385 -1.0029 -5.3147
  314MOL0     H42368   5.932  10.142   2.160 -0.5236 -2.1055 -0.9554
  314MOL0     H42369   5.817  10.263   2.224 -0.2289  0.5964 -0.0897
  314MOL0     H42370   6.284   9.597   1.540  1.4791 -2.6980  0.2386
  314MOL0     H42371   6.351   9.390   1.682 -0.0016  1.3650 -0.2687
  314MOL0     H42372   6.014   8.970   1.814  2.2656  2.4992 -1.6094
  314MOL0     H42373   6.081   8.739   1.900 -2.2466  1.5454  1.1949
  314MOL0     H42374   5.854   9.643   2.154 -1.4591 -2.0479 -0.8395
  314MOL0     H42375   6.075   9.690   2.236 -1.4560 -2.1895 -2.8435
  314MOL0     H42376   6.480   9.533   2.643  1.8336 -0.4476  1.0116
  314MOL0     H42377   6.702   9.421   2.596  1.3774  0.5454 -0.0474
  314MOL0     H42378   6.634   9.078   2.343 -1.7909  2.3162  1.7238
  314MOL0     H42379   6.810   9.054   2.400 -1.7584 -3.3985  0.2544
  314MOL0     H42380   6.881   9.153   2.182 -0.9518 -0.3097 -1.6447
  314MOL0     H42381   6.709   9.170   2.131 -3.1432 -3.7776 -1.2237
  314MOL0     H42382   6.783   8.966   2.021  1.8130 -1.9985  0.0803
  314MOL0     H42383   6.680   8.922   2.168 -0.5624  1.0706  0.5076
  314MOL0     H42384   6.894   8.804   2.107 -2.5645  2.4338 -1.7612
  314MOL0     H42385   6.990   8.934   2.191 -1.4036  1.9870  0.7846
  314MOL0     H42386   6.875   8.666   2.485  1.3078  2.8931  1.4125
  314MOL0     H42387   6.534   9.263   2.232 -0.0216 -0.9751  1.2227
  314MOL0     H42388   6.300   9.262   2.177 -3.1782  0.0055 -1.8174
  314MOL0     H42389   6.196   9.374   2.285  0.7536  2.5955 -0.8203
  314MOL0     H42390   6.304   9.442   2.176 -1.5152  0.8944  0.5987
  315MOL0     O42391   7.829   5.069   2.257  0.2149 -0.1496 -1.0308
  315MOL0     C42392   7.768   5.032   2.361  0.2494 -0.5909  0.5208
  315MOL0     O42393   7.819   4.982   2.471 -0.2886 -0.3132 -0.0731
  315MOL0     C42394   7.955   5.003   2.486 -0.3196 -1.4838 -0.0239
  315MOL0     C42395   7.991   5.130   2.517  0.2625 -0.1535 -0.4326
  315MOL0     C42396   8.133   5.163   2.511  0.7784  0.7245  0.0884
  315MOL0     C42397   8.230   5.061   2.478  0.9000  0.3907 -0.4907
  315MOL0     O42398   8.359   5.097   2.468  0.7590 -0.9616  0.3029
  315MOL0     C42399   8.468   5.007   2.489 -0.3482  0.8622 -0.1926
  315MOL0     C42400   8.573   5.050   2.591 -0.4804 -0.0525 -0.4902
  315MOL0     C42401   8.645   5.175   2.542 -0.2210 -0.1317  0.4647
  315MOL0     C42402   8.752   5.212   2.646  0.9437 -0.6243 -0.2298
  315MOL0     C42403   8.819   5.341   2.607 -0.4492 -0.5438 -0.0874
  315MOL0     C42404   8.933   5.352   2.704  0.2498  0.5502  0.0567
  315MOL0     C42405   9.027   5.470   2.683 -0.0640  0.1864 -0.7893
  315MOL0     C42406   9.134   5.464   2.794 -0.3955 -0.0802  0.1784
  315MOL0     N42407   9.219   5.589   2.789  0.1239  0.3775 -1.0168
  315MOL0     C42408   9.310   5.621   2.700  0.0816  0.7954 -0.0098
  315MOL0     C42409   9.367   5.732   2.737  0.4564 -0.3766  0.3879
  315MOL0     C42410   9.479   5.800   2.673 -0.3624  0.4537  0.2628
  315MOL0     C42411   9.433   5.898   2.572 -0.9731 -0.7484  0.5215
  315MOL0     C42412   9.372   5.831   2.442  0.8032 -0.2280  0.3204
  315MOL0     C42413   9.345   5.936   2.340  0.9711  0.1672 -0.4122
  315MOL0     O42414   9.257   6.033   2.389  0.2413  0.3323  1.0308
  315MOL0     C42415   9.130   5.990   2.405 -0.3265 -0.0353 -0.4297
  315MOL0     C42416   9.048   5.953   2.299 -0.0594  0.2417 -0.3340
  315MOL0     C42417   8.920   5.903   2.326 -0.2546 -0.0398  0.2539
  315MOL0     C42418   8.872   5.879   2.454  0.1274 -0.1991 -0.1331
  315MOL0     C42419   8.745   5.815   2.484  0.3960 -0.1452 -0.2951
  315MOL0     O42420   8.681   5.766   2.374 -0.3651  0.1641  0.0949
  315MOL0     C42421   8.549   5.727   2.387  0.1747  0.2357 -0.0939
  315MOL0     C42422   8.525   5.578   2.408  0.4646  0.4228 -0.3144
  315MOL0     C42423   8.399   5.519   2.427  0.2947  0.0981  0.0078
  315MOL0     C42424   8.283   5.605   2.415 -0.9562  0.3675  0.6063
  315MOL0     O42425   8.163   5.548   2.430  1.0868  0.3981  0.2411
  315MOL0     C42426   8.043   5.622   2.383  0.4306  0.3220  0.1804
  315MOL0     C42427   7.943   5.520   2.317  0.2513  0.2561  0.1611
  315MOL0     C42428   7.795   5.572   2.315 -0.5403  0.2771 -0.1726
  315MOL0     C42429   7.701   5.503   2.215 -0.4823 -0.7645  0.2123
  315MOL0     C42430   7.560   5.568   2.191  0.3320  0.6019 -0.4831
  315MOL0     C42431   7.496   5.482   2.070  1.0174  0.3822  0.2666
  315MOL0     C42432   7.369   5.554   2.018  0.1628  0.1080  0.5344
  315MOL0     C42433   7.255   5.561   2.113  0.2355 -0.5255 -0.3094
  315MOL0    Cl42434   7.112   5.641   2.026 -0.1207 -0.3574 -0.0335
  315MOL0     C42435   8.308   5.747   2.410  0.2233  0.5869 -0.2346
  315MOL0     C42436   8.435   5.800   2.389  0.1957 -0.1837 -0.6494
  315MOL0     O42437   8.706   5.812   2.604  0.4433 -0.4622  0.7684
  315MOL0     C42438   8.955   5.919   2.562  0.0767 -0.3100 -0.4478
  315MOL0     C42439   9.088   5.964   2.535 -0.5733  0.3666  0.0210
  315MOL0     N42440   9.305   5.765   2.856 -0.1204  0.3134  0.5091
  315MOL0     N42441   9.217   5.685   2.888  0.0710  0.2374  0.8344
  315MOL0     C42442   8.180   4.929   2.448  0.2751 -0.9846 -0.0717
  315MOL0     C42443   8.043   4.899   2.462 -0.4841  0.5767 -1.0323
  315MOL0     C42444   7.642   4.979   2.331  0.4450 -0.6186 -0.3099
  315MOL0     C42445   7.631   4.863   2.251  0.1254 -0.2984 -0.0903
  315MOL0     C42446   7.505   4.797   2.238  0.8711 -0.0349 -0.0832
  315MOL0     C42447   7.391   4.857   2.278  0.8147 -0.2183  0.3742
  315MOL0     O42448   7.269   4.791   2.278  0.0152 -0.0980 -0.3074
  315MOL0     C42449   7.232   4.705   2.162 -0.2290  0.0219  0.1540
  315MOL0     C42450   7.261   4.556   2.190 -0.8291 -0.4670  1.1314
  315MOL0     C42451   7.145   4.507   2.275  0.6541  1.4491  0.2329
  315MOL0     C42452   7.190   4.503   2.416 -0.4214  0.1678 -0.3728
  315MOL0     C42453   7.078   4.518   2.518 -0.2706 -0.1400 -0.5017
  315MOL0     C42454   6.991   4.542   2.603 -0.1301 -0.2395  0.1012
  315MOL0     C42455   7.402   4.972   2.356  0.3766 -0.2532  0.3876
  315MOL0     C42456   7.524   5.039   2.381 -0.4258  0.2300 -0.1429
  315MOL0     C42457   7.527   5.164   2.463  1.4493  0.7576 -0.9993
  315MOL0     H42458   7.920   5.210   2.529  0.3619  0.1736 -1.8629
  315MOL0     H42459   8.163   5.268   2.519  0.5536  0.7727  0.3071
  315MOL0     H42460   8.436   4.912   2.534 -0.7822  1.9112  1.8612
  315MOL0     H42461   8.521   4.996   2.394  1.1156  1.3727  0.5260
  315MOL0     H42462   8.646   4.969   2.604  1.5282  1.9576  1.6781
  315MOL0     H42463   8.533   5.073   2.690  2.8173 -1.4273  1.3177
  315MOL0     H42464   8.567   5.251   2.535  1.6926  1.8858  0.0365
  315MOL0     H42465   8.690   5.168   2.443 -2.3708  2.5384 -0.8635
  315MOL0     H42466   8.709   5.219   2.746  0.0087  2.6734 -0.7192
  315MOL0     H42467   8.821   5.127   2.644 -0.1090 -1.6527  2.4895
  315MOL0     H42468   8.861   5.330   2.506 -2.1307  0.4884 -0.9331
  315MOL0     H42469   8.754   5.428   2.616  0.4783  0.3020 -1.2144
  315MOL0     H42470   8.894   5.349   2.807 -2.0864 -0.8287 -0.7842
  315MOL0     H42471   8.997   5.265   2.685 -0.7945  0.1725 -2.0560
  315MOL0     H42472   8.972   5.562   2.703  0.6619 -0.0120  2.8403
  315MOL0     H42473   9.078   5.462   2.586 -0.3486 -0.9566 -0.8607
  315MOL0     H42474   9.077   5.450   2.886 -2.8529  0.1353 -1.2151
  315MOL0     H42475   9.197   5.379   2.765 -0.0651  1.0730 -2.9312
  315MOL0     H42476   9.334   5.561   2.612 -1.9800 -1.8613  1.0865
  315MOL0     H42477   9.544   5.848   2.747  0.6004  1.4668 -1.1885
  315MOL0     H42478   9.553   5.733   2.629 -0.6521  0.0684  0.3507
  315MOL0     H42479   9.362   5.969   2.615  0.0003  1.0347 -0.6697
  315MOL0     H42480   9.519   5.960   2.543 -1.2277 -0.3881  0.5354
  315MOL0     H42481   9.277   5.784   2.472 -1.1885  2.0995 -1.8087
  315MOL0     H42482   9.426   5.746   2.400 -2.6483 -3.8704  2.4843
  315MOL0     H42483   9.304   5.887   2.251  1.4394 -0.7209 -0.1377
  315MOL0     H42484   9.439   5.987   2.317  0.5551  1.6118  0.8901
  315MOL0     H42485   9.085   5.949   2.197 -1.8978 -1.0876 -0.9895
  315MOL0     H42486   8.863   5.899   2.234  1.6658 -0.1860 -1.0012
  315MOL0     H42487   8.616   5.519   2.412  1.5793  2.0741 -0.4167
  315MOL0     H42488   8.378   5.415   2.447 -2.0589  0.7195  1.1027
  315MOL0     H42489   7.981   5.667   2.462 -0.4762 -0.6205  0.0275
  315MOL0     H42490   8.071   5.698   2.310  0.5906 -0.2396 -0.3518
  315MOL0     H42491   7.975   5.511   2.213 -1.1200  4.7117 -0.8540
  315MOL0     H42492   7.929   5.421   2.361  0.3836 -0.6521 -1.7173
  315MOL0     H42493   7.752   5.571   2.415  0.0998  0.6868  0.1147
  315MOL0     H42494   7.788   5.675   2.277 -3.5961 -0.1553 -1.0149
  315MOL0     H42495   7.686   5.396   2.232 -0.1479 -0.9511 -0.6166
  315MOL0     H42496   7.761   5.510   2.123  0.1388  0.1507  0.6664
  315MOL0     H42497   7.560   5.677   2.179 -2.0512  0.7380  0.2155
  315MOL0     H42498   7.513   5.547   2.287  1.0887 -2.8513 -0.7285
  315MOL0     H42499   7.571   5.467   1.992 -1.6055 -1.3211 -2.1471
  315MOL0     H42500   7.488   5.381   2.112  3.2560 -0.0841 -0.2656
  315MOL0     H42501   7.334   5.490   1.937  1.6042 -0.2802  0.1806
  315MOL0     H42502   7.390   5.646   1.964 -0.2307 -0.3140 -0.3547
  315MOL0     H42503   7.235   5.462   2.155  1.2362  0.4997  2.9724
  315MOL0     H42504   7.280   5.630   2.194  1.9615  0.5541 -1.6941
  315MOL0     H42505   8.230   5.822   2.411  0.5765  1.0619 -2.5645
  315MOL0     H42506   8.433   5.907   2.370 -2.5258  0.3019  1.8103
  315MOL0     H42507   8.923   5.909   2.665 -0.0701  0.1911 -0.4437
  315MOL0     H42508   9.150   6.004   2.615  1.2826  2.7561 -2.4542
  315MOL0     H42509   8.252   4.852   2.422  3.4391  1.7818 -0.1424
  315MOL0     H42510   7.995   4.809   2.425 -1.0563 -0.1078  1.2060
  315MOL0     H42511   7.720   4.810   2.217 -1.0648 -1.4935 -1.4791
  315MOL0     H42512   7.498   4.696   2.201 -0.8488  0.2772 -0.7185
  315MOL0     H42513   7.288   4.730   2.072 -0.2323 -2.9285 -0.7685
  315MOL0     H42514   7.127   4.726   2.140 -0.0300  0.1302 -0.7230
  315MOL0     H42515   7.363   4.539   2.225  0.2368  0.6846 -1.1566
  315MOL0     H42516   7.249   4.504   2.094 -2.0175 -0.1877  1.1104
  315MOL0     H42517   7.111   4.405   2.252 -0.8696  1.3543  2.5123
  315MOL0     H42518   7.052   4.564   2.266  0.5154  1.4333  1.3882
  315MOL0     H42519   7.256   4.416   2.428  0.0585  0.4424 -0.9591
  315MOL0     H42520   7.257   4.586   2.440  0.3191 -0.4933 -0.0899
  315MOL0     H42521   6.907   4.564   2.665 -0.9535  0.6244 -1.2719
  315MOL0     H42522   7.329   5.011   2.426 -0.5268  1.8097 -1.6067
  315MOL0     H42523   7.460   5.241   2.424 -2.2035 -2.8102 -2.5353
  315MOL0     H42524   7.483   5.147   2.562  0.2704  3.4401 -0.9832
  315MOL0     H42525   7.628   5.201   2.481  1.9136 -0.8572 -0.0945
  316MOL0     O42526   6.864   5.943   9.621  0.2977 -0.0366  0.4576
  316MOL0     C42527   6.875   5.980   9.737  0.0179  0.0942 -1.1532
  316MOL0     O42528   6.852   5.899   9.851 -0.1286 -0.0785  0.8940
  316MOL0     C42529   6.800   5.780   9.832 -0.1067  0.4234 -1.2732
  316MOL0     C42530   6.665   5.764   9.842  0.2147 -0.0050 -0.1819
  316MOL0     C42531   6.609   5.640   9.843 -0.6189  0.9928  0.0485
  316MOL0     C42532   6.676   5.521   9.829 -0.4660  0.9305 -0.1680
  316MOL0     O42533   6.622   5.391   9.807  0.5104 -1.0593 -0.3422
  316MOL0     C42534   6.483   5.364   9.837  0.4965 -0.6651 -0.0819
  316MOL0     C42535   6.433   5.216   9.838  0.3926  1.0129 -0.3743
  316MOL0     C42536   6.456   5.153   9.701  0.1479  0.3014  0.0467
  316MOL0     C42537   6.380   5.020   9.677 -0.5553  0.3684  0.1193
  316MOL0     C42538   6.230   5.001   9.659  0.7382 -0.5139 -0.9646
  316MOL0     C42539   6.179   5.100   9.553  0.6028 -0.7948 -0.2573
  316MOL0     C42540   6.023   5.119   9.557 -0.5721  1.0313  0.7113
  316MOL0     C42541   5.976   5.181   9.431  0.1004 -0.2070 -1.0918
  316MOL0     N42542   5.829   5.222   9.436  0.6023  0.6129 -0.9265
  316MOL0     C42543   5.762   5.314   9.517  0.7785  0.6193 -0.0445
  316MOL0     C42544   5.636   5.279   9.501 -0.6775 -0.0996  0.1501
  316MOL0     C42545   5.525   5.339   9.577  0.0221 -0.1844 -0.1144
  316MOL0     C42546   5.524   5.293   9.722 -0.4926  0.5892 -0.4794
  316MOL0     C42547   5.486   5.137   9.726 -0.5254 -0.1446  0.2883
  316MOL0     C42548   5.473   5.092   9.867 -0.4201  0.3681 -0.2142
  316MOL0     O42549   5.481   4.950   9.872 -0.0783 -0.0305 -0.9131
  316MOL0     C42550   5.472   4.895  10.004 -0.0592  0.5547  0.9813
  316MOL0     C42551   5.441   4.960  10.127  0.5402  0.3356  0.7742
  316MOL0     C42552   5.445   4.885  10.243  0.1754  0.8273 -0.2712
  316MOL0     C42553   5.479   4.751  10.239 -0.2401  0.9444  0.2357
  316MOL0     C42554   5.485   4.692  10.371 -0.0972  1.5390 -0.9051
  316MOL0     O42555   5.393   4.727  10.457  0.8365  0.7912  0.3222
  316MOL0     C42556   5.372   4.672  10.584 -0.1924  0.1529 -0.2421
  316MOL0     C42557   5.417   4.550  10.644  0.4751 -0.3645 -0.2447
  316MOL0     C42558   5.388   4.521  10.780 -0.0373 -0.2552  0.5117
  316MOL0     C42559   5.313   4.601  10.870 -0.3371 -0.0557  0.2524
  316MOL0     O42560   5.294   4.562  10.997  0.2998 -0.9528 -0.8844
  316MOL0     C42561   5.175   4.623  11.048  0.1891 -0.1718  0.4436
  316MOL0     C42562   5.049   4.579  10.977  0.0569 -0.9684 -0.7213
  316MOL0     C42563   5.045   4.425  10.959 -0.0471  0.1025 -0.3335
  316MOL0     C42564   5.017   4.355  11.097  0.2520 -0.6795  0.0899
  316MOL0     C42565   5.046   4.209  11.093  0.3280  0.3553  0.2933
  316MOL0     C42566   5.028   4.156  11.228 -0.5173  0.1821 -0.6350
  316MOL0     C42567   4.890   4.169  11.289 -0.2587  0.3567 -0.2060
  316MOL0     C42568   4.872   4.098  11.427  0.3204  0.1445 -0.2873
  316MOL0    Cl42569   4.987   4.157  11.544 -0.7647 -0.3580  0.2121
  316MOL0     C42570   5.281   4.720  10.816  0.2168  0.7421  0.4506
  316MOL0     C42571   5.313   4.752  10.682 -1.2413 -0.4022 -0.2868
  316MOL0     O42572   5.575   4.603  10.391  0.8345  0.8214 -0.3599
  316MOL0     C42573   5.509   4.685  10.111  0.4046  0.3165 -0.0117
  316MOL0     C42574   5.504   4.758  10.001  0.1006 -0.1467  0.5251
  316MOL0     N42575   5.620   5.173   9.406 -0.4274 -0.1414 -1.1045
  316MOL0     N42576   5.734   5.136   9.385 -0.7947  0.5382 -0.0730
  316MOL0     C42577   6.815   5.537   9.809 -0.3048  1.0410  1.4288
  316MOL0     C42578   6.877   5.663   9.820 -0.5129 -0.0953 -0.3782
  316MOL0     C42579   6.898   6.125   9.765  0.1212 -0.2145  0.2722
  316MOL0     C42580   6.885   6.161   9.901  0.3632 -0.8084  0.3555
  316MOL0     C42581   6.877   6.296   9.932 -0.5449  0.2353 -0.6720
  316MOL0     C42582   6.916   6.393   9.838  0.6833  0.4827 -1.1235
  316MOL0     O42583   6.927   6.520   9.872 -0.4725 -0.1640  0.1269
  316MOL0     C42584   7.061   6.566   9.884  0.7919 -0.3773  0.8443
  316MOL0     C42585   7.093   6.685   9.790  0.1935  0.1071  0.2379
  316MOL0     C42586   7.249   6.725   9.800 -0.0208 -0.5391  0.5731
  316MOL0     C42587   7.339   6.716   9.673  0.4048 -0.2951  0.5412
  316MOL0     C42588   7.324   6.581   9.622  0.0178  0.2122 -0.7107
  316MOL0     C42589   7.305   6.473   9.567  0.7767 -0.2394  0.4047
  316MOL0     C42590   6.922   6.352   9.706 -0.1293  0.0603  0.4879
  316MOL0     C42591   6.909   6.225   9.662  0.0159  0.1827 -0.5571
  316MOL0     C42592   6.928   6.196   9.517  0.4210  0.9520 -0.5974
  316MOL0     H42593   6.595   5.846   9.855  0.6159  0.5593 -1.4504
  316MOL0     H42594   6.501   5.627   9.849 -0.7954  2.7081  3.0107
  316MOL0     H42595   6.465   5.402   9.938 -1.6987 -4.6512  1.2659
  316MOL0     H42596   6.415   5.406   9.761  0.6906  2.0575  1.1407
  316MOL0     H42597   6.331   5.206   9.877  1.5545 -0.0922  2.6909
  316MOL0     H42598   6.487   5.161   9.915 -2.2127 -1.5826 -0.1980
  316MOL0     H42599   6.558   5.130   9.671 -0.6460 -3.0885 -0.5814
  316MOL0     H42600   6.422   5.228   9.630 -2.0861  1.8779  2.5709
  316MOL0     H42601   6.423   4.979   9.585  0.0411 -1.1247  1.0269
  316MOL0     H42602   6.412   4.948   9.753 -2.2498 -2.1675 -1.4417
  316MOL0     H42603   6.204   4.900   9.627 -0.4465 -0.5344  0.0009
  316MOL0     H42604   6.187   5.034   9.754 -1.1349 -0.7887 -1.6615
  316MOL0     H42605   6.209   5.202   9.581 -0.8958 -0.5508  0.5548
  316MOL0     H42606   6.214   5.055   9.460 -2.2851 -0.8495 -1.4165
  316MOL0     H42607   5.986   5.186   9.634 -2.8763  1.4857 -0.7007
  316MOL0     H42608   5.988   5.016   9.570  2.3512 -0.0507  0.7858
  316MOL0     H42609   6.043   5.266   9.417 -0.1714  0.6339  1.9886
  316MOL0     H42610   6.000   5.111   9.350 -0.5068 -1.0063 -0.5927
  316MOL0     H42611   5.803   5.396   9.575  0.5410  1.7842 -1.4550
  316MOL0     H42612   5.545   5.446   9.584 -0.3345 -0.0089 -1.4311
  316MOL0     H42613   5.434   5.318   9.519 -0.7976 -1.3471  1.5231
  316MOL0     H42614   5.616   5.309   9.779 -0.2385 -1.6446 -0.1803
  316MOL0     H42615   5.459   5.354   9.784 -0.8912 -0.0562 -0.2513
  316MOL0     H42616   5.568   5.079   9.684 -0.4042  0.1605  0.1025
  316MOL0     H42617   5.398   5.117   9.663  1.0822  2.3193 -3.0646
  316MOL0     H42618   5.386   5.139   9.913 -1.2797 -0.4638 -0.9490
  316MOL0     H42619   5.564   5.124   9.920  0.5295 -1.3155 -0.7336
  316MOL0     H42620   5.419   5.066  10.132  1.4083  0.5925 -0.3782
  316MOL0     H42621   5.432   4.940  10.336 -0.0292  1.3779 -0.6240
  316MOL0     H42622   5.491   4.492  10.589 -0.0526 -1.8942  0.5950
  316MOL0     H42623   5.425   4.423  10.808  0.7943 -1.0868 -3.0424
  316MOL0     H42624   5.159   4.595  11.153 -3.5679  2.3042  0.7162
  316MOL0     H42625   5.169   4.732  11.053  0.6648 -0.0551 -1.0320
  316MOL0     H42626   4.961   4.612  11.034  1.2015 -0.6700  0.9641
  316MOL0     H42627   5.044   4.636  10.884  0.8767 -0.4329 -0.4460
  316MOL0     H42628   4.976   4.396  10.880 -2.5618 -1.8297  2.3300
  316MOL0     H42629   5.141   4.404  10.911  0.2787  2.8833 -1.1109
  316MOL0     H42630   4.914   4.379  11.125  0.6450  0.4521  0.5777
  316MOL0     H42631   5.085   4.408  11.163 -1.5681 -0.2277  1.6882
  316MOL0     H42632   5.142   4.191  11.045 -0.4824  1.6300 -1.9580
  316MOL0     H42633   4.973   4.158  11.030 -1.4244 -0.3235  2.7360
  316MOL0     H42634   5.069   4.056  11.234 -1.5930 -0.2431  0.0144
  316MOL0     H42635   5.091   4.204  11.303 -1.5309 -1.3945  1.2967
  316MOL0     H42636   4.813   4.125  11.225 -0.8004 -1.3489  1.5432
  316MOL0     H42637   4.872   4.273  11.319 -3.1123 -0.6680  2.1272
  316MOL0     H42638   4.772   4.104  11.470  0.4266 -0.0607 -0.0040
  316MOL0     H42639   4.900   3.994  11.406 -0.6749 -0.4859  1.3435
  316MOL0     H42640   5.230   4.803  10.864  0.1444  0.1690  1.3653
  316MOL0     H42641   5.269   4.847  10.650 -1.2076 -0.2906 -0.0085
  316MOL0     H42642   5.551   4.585  10.105  1.0244  0.4945  1.1235
  316MOL0     H42643   5.532   4.705   9.911  3.1614  1.6554  0.2758
  316MOL0     H42644   6.874   5.452   9.776  3.3302  4.6088 -2.5559
  316MOL0     H42645   6.982   5.658   9.792 -0.8407  0.0882 -1.7173
  316MOL0     H42646   6.863   6.083   9.973 -2.9003 -2.3094 -2.0076
  316MOL0     H42647   6.876   6.328  10.035 -3.2276 -0.4222 -0.4006
  316MOL0     H42648   7.139   6.489   9.879  1.6649  0.4647  1.2734
  316MOL0     H42649   7.062   6.611   9.983 -0.9445  0.0485  0.6994
  316MOL0     H42650   7.023   6.764   9.817 -3.5445 -2.4177 -1.2030
  316MOL0     H42651   7.064   6.665   9.686  0.9838  0.1004  0.0050
  316MOL0     H42652   7.295   6.654   9.870 -0.1324 -1.5465 -0.3401
  316MOL0     H42653   7.272   6.824   9.840  4.2637 -1.4226  0.7672
  316MOL0     H42654   7.306   6.791   9.600 -2.8211  0.9551  3.0448
  316MOL0     H42655   7.443   6.739   9.698 -0.0857  1.0169  1.4846
  316MOL0     H42656   7.285   6.379   9.519  4.1868 -0.5128 -0.7921
  316MOL0     H42657   6.943   6.418   9.622  1.9796 -1.8740 -0.6364
  316MOL0     H42658   6.965   6.278   9.454  2.4086  0.3404 -0.2859
  316MOL0     H42659   6.999   6.113   9.509  1.9368  1.9502  1.5303
  316MOL0     H42660   6.833   6.158   9.479  0.9464 -3.1472  1.6554
  317MOL0     O42661   9.611   4.276   6.211 -0.3134  0.7799 -0.3343
  317MOL0     C42662   9.578   4.214   6.310  0.2355  0.4610 -0.0502
  317MOL0     O42663   9.648   4.122   6.374  0.2378 -0.7091  0.5551
  317MOL0     C42664   9.782   4.113   6.348  0.5939 -0.1094  0.3975
  317MOL0     C42665   9.867   4.117   6.458  0.4721 -0.1327  0.1134
  317MOL0     C42666  10.006   4.088   6.448  0.0893 -0.7296 -0.3192
  317MOL0     C42667  10.063   4.046   6.329 -0.1410  0.1347 -0.1885
  317MOL0     O42668  10.200   4.014   6.328 -0.2675 -0.1578 -0.4948
  317MOL0     C42669  10.299   4.071   6.410 -0.4933 -0.4234 -0.1014
  317MOL0     C42670  10.312   3.976   6.528  0.7611  0.6984 -0.9755
  317MOL0     C42671  10.417   4.026   6.636  0.7227 -0.8971  0.5909
  317MOL0     C42672  10.564   4.049   6.605 -0.0511  0.6214  0.3548
  317MOL0     C42673  10.645   3.924   6.566  0.2829  0.3930 -0.0081
  317MOL0     C42674  10.765   3.958   6.477 -0.4397 -0.6641 -0.4969
  317MOL0     C42675  10.830   3.827   6.427  0.2770  0.3005  0.4958
  317MOL0     C42676  10.953   3.867   6.354 -0.2697  0.0150 -0.4058
  317MOL0     N42677  11.001   3.749   6.268  0.7505 -0.5415 -0.0717
  317MOL0     C42678  11.028   3.627   6.320 -0.6352  0.2840  0.0663
  317MOL0     C42679  11.034   3.539   6.219  0.1735  0.8970  0.9783
  317MOL0     C42680  11.032   3.394   6.234  0.1057  0.0595 -0.7583
  317MOL0     C42681  11.029   3.321   6.101  1.2253 -0.1352  0.5762
  317MOL0     C42682  11.029   3.160   6.107  0.4491 -1.3242 -0.0674
  317MOL0     C42683  10.905   3.115   6.186  0.2373 -0.7611  1.0030
  317MOL0     O42684  10.788   3.174   6.131 -0.6376  0.0299  0.1384
  317MOL0     C42685  10.661   3.167   6.193 -0.7197  0.6891  0.5426
  317MOL0     C42686  10.549   3.229   6.128  0.6985 -0.0290 -0.4085
  317MOL0     C42687  10.430   3.220   6.199  0.0227 -0.5358  1.0866
  317MOL0     C42688  10.397   3.149   6.317 -0.2720  0.8067  0.0125
  317MOL0     C42689  10.255   3.141   6.367  0.2088  0.0698 -0.4920
  317MOL0     O42690  10.249   3.113   6.505 -0.0712 -0.2837 -0.1481
  317MOL0     C42691  10.129   3.117   6.586  0.3851  0.5945  0.4686
  317MOL0     C42692  10.140   3.073   6.722  0.2771  0.3834  1.1366
  317MOL0     C42693  10.039   3.070   6.809  0.7939  0.0061 -0.4283
  317MOL0     C42694   9.920   3.129   6.775 -0.0911 -0.5668 -1.2316
  317MOL0     O42695   9.823   3.128   6.868 -0.2461  0.1368 -0.0128
  317MOL0     C42696   9.695   3.099   6.819  0.8535 -0.2028  0.0842
  317MOL0     C42697   9.614   3.051   6.946  0.5821 -0.1843 -0.4784
  317MOL0     C42698   9.471   3.014   6.906 -0.4623  0.4100 -0.0018
  317MOL0     C42699   9.399   2.952   7.018 -0.2894  0.5919 -0.6589
  317MOL0     C42700   9.249   2.955   6.993  0.2209 -0.7539 -0.1073
  317MOL0     C42701   9.202   2.874   6.879  0.3308 -0.1262  0.2436
  317MOL0     C42702   9.048   2.883   6.861 -0.1763 -0.2755 -0.2899
  317MOL0     C42703   8.990   2.761   6.773 -0.3782  0.2753 -0.4013
  317MOL0    Cl42704   9.016   2.774   6.596  0.0793 -0.1994 -0.0705
  317MOL0     C42705   9.907   3.198   6.652 -0.6780 -0.0294 -0.5107
  317MOL0     C42706  10.013   3.176   6.554 -0.1913  0.1731 -0.2147
  317MOL0     O42707  10.159   3.149   6.297 -0.1377  0.1615  0.3646
  317MOL0     C42708  10.512   3.093   6.377  0.3433 -0.3270  0.8861
  317MOL0     C42709  10.638   3.104   6.316 -0.3225 -0.7223 -0.0249
  317MOL0     N42710  11.000   3.607   6.108  0.3196 -0.9534  1.0437
  317MOL0     N42711  10.981   3.735   6.136 -0.1789  0.4194  0.3455
  317MOL0     C42712   9.977   4.036   6.218 -0.0639  0.9616 -0.3721
  317MOL0     C42713   9.842   4.077   6.224  0.2548  0.5799 -0.6676
  317MOL0     C42714   9.444   4.230   6.357  0.8548 -0.3219 -0.6214
  317MOL0     C42715   9.346   4.284   6.266 -0.3933  0.4310 -0.0045
  317MOL0     C42716   9.216   4.317   6.318 -0.3011 -0.0948  0.1950
  317MOL0     C42717   9.184   4.298   6.455  0.5008  0.6967 -0.4257
  317MOL0     O42718   9.052   4.311   6.503  0.2051 -0.3247 -0.7992
  317MOL0     C42719   8.947   4.309   6.406 -1.1537 -0.2381  0.0182
  317MOL0     C42720   8.814   4.346   6.468 -0.2387 -0.0973 -0.0746
  317MOL0     C42721   8.714   4.393   6.358 -0.0086 -0.4219 -0.6597
  317MOL0     C42722   8.582   4.414   6.425  0.8523 -0.2367  0.0983
  317MOL0     C42723   8.478   4.461   6.335 -0.0307 -0.8361  0.0424
  317MOL0     C42724   8.374   4.507   6.281  0.0268  0.4447 -0.6919
  317MOL0     C42725   9.275   4.247   6.540 -0.6217  0.9730 -0.7519
  317MOL0     C42726   9.404   4.206   6.494  0.2271 -0.4382  0.2808
  317MOL0     C42727   9.492   4.135   6.593  0.1401 -0.0389  1.0059
  317MOL0     H42728   9.839   4.166   6.551  4.9943 -1.8002  2.6747
  317MOL0     H42729  10.074   4.087   6.532 -0.0598 -2.4725 -0.1883
  317MOL0     H42730  10.393   4.079   6.356 -0.8615 -1.6585 -0.9579
  317MOL0     H42731  10.280   4.173   6.446  1.0600  0.0325 -0.5045
  317MOL0     H42732  10.323   3.872   6.497 -1.6117  0.5638 -1.5133
  317MOL0     H42733  10.222   3.982   6.590  0.7338  0.5655 -1.0007
  317MOL0     H42734  10.398   3.954   6.715 -2.5280 -0.8579 -0.0480
  317MOL0     H42735  10.378   4.127   6.653 -2.2891 -1.9531  0.4471
  317MOL0     H42736  10.579   4.127   6.530  1.5664 -0.4855 -0.5279
  317MOL0     H42737  10.596   4.081   6.705  1.1699  2.9294 -0.6927
  317MOL0     H42738  10.663   3.859   6.652 -1.7114 -1.8307 -1.1382
  317MOL0     H42739  10.591   3.862   6.493  1.4676 -0.6832 -0.0110
  317MOL0     H42740  10.719   4.010   6.392  0.1085  2.9153  1.1849
  317MOL0     H42741  10.838   4.027   6.520 -0.4822 -0.8416 -0.1410
  317MOL0     H42742  10.765   3.754   6.378  0.2006 -1.3043  2.7987
  317MOL0     H42743  10.865   3.774   6.516 -1.6751 -1.5814  0.2203
  317MOL0     H42744  10.924   3.958   6.301  1.0152  0.8776  0.3141
  317MOL0     H42745  11.024   3.902   6.429 -0.0786 -0.4029 -0.3853
  317MOL0     H42746  11.040   3.600   6.424  1.9862  2.4189  0.4226
  317MOL0     H42747  11.115   3.371   6.302  0.2635  2.3625 -0.0899
  317MOL0     H42748  10.941   3.375   6.290 -0.1056  2.9634  0.0418
  317MOL0     H42749  10.942   3.356   6.045  1.3416  0.8577  1.0060
  317MOL0     H42750  11.113   3.354   6.039  0.7155 -1.7880 -1.0679
  317MOL0     H42751  11.118   3.121   6.158  1.4588 -0.5422 -1.1821
  317MOL0     H42752  11.022   3.121   6.006  0.4963  1.5835 -1.2982
  317MOL0     H42753  10.912   3.141   6.292  4.0605  0.2506  0.6543
  317MOL0     H42754  10.909   3.006   6.179 -1.7688 -0.8437  0.5518
  317MOL0     H42755  10.574   3.266   6.029  3.1175 -3.5271 -1.3025
  317MOL0     H42756  10.353   3.285   6.160  0.5780  2.0861  3.9382
  317MOL0     H42757  10.232   3.021   6.746 -1.3501 -2.5058  1.5702
  317MOL0     H42758  10.043   3.032   6.911 -1.5245  0.8783  0.0710
  317MOL0     H42759   9.655   3.195   6.785  0.8144  0.2008  1.2436
  317MOL0     H42760   9.698   3.019   6.744  2.4374 -1.4302  1.3621
  317MOL0     H42761   9.667   2.974   7.003  2.1355  2.1687  1.4478
  317MOL0     H42762   9.604   3.131   7.019  0.9498 -0.2664 -0.3327
  317MOL0     H42763   9.419   3.105   6.873 -2.8989 -0.6845  0.6124
  317MOL0     H42764   9.476   2.949   6.819  1.0240  1.4645 -0.7489
  317MOL0     H42765   9.412   3.003   7.114 -1.7043  0.6892 -0.4987
  317MOL0     H42766   9.429   2.848   7.033 -1.4438  0.1673 -1.2158
  317MOL0     H42767   9.215   3.059   6.988 -0.9982 -1.0331  1.3272
  317MOL0     H42768   9.193   2.920   7.081 -1.1689  1.6215  0.0372
  317MOL0     H42769   9.251   2.908   6.787 -2.6486 -1.9101 -2.2195
  317MOL0     H42770   9.220   2.769   6.904 -1.1231 -0.3440  0.4481
  317MOL0     H42771   9.015   2.974   6.809 -0.0330  1.6643  2.7772
  317MOL0     H42772   9.002   2.881   6.960  1.1125  0.7621  0.3644
  317MOL0     H42773   9.020   2.662   6.810 -2.6691 -0.2519  0.2020
  317MOL0     H42774   8.881   2.760   6.773 -0.3821  0.4880 -1.3184
  317MOL0     H42775   9.813   3.247   6.632  0.1779  0.4166 -4.0008
  317MOL0     H42776   9.987   3.215   6.456 -2.8209  0.3755  0.5034
  317MOL0     H42777  10.497   3.037   6.468 -1.8168  2.6315  2.5127
  317MOL0     H42778  10.713   3.046   6.369 -2.0531 -0.2478  3.2780
  317MOL0     H42779  10.038   4.007   6.133  0.1254  1.9358 -0.5805
  317MOL0     H42780   9.788   4.076   6.129  3.7435  1.3533 -2.8501
  317MOL0     H42781   9.356   4.301   6.159 -1.9191  1.9350  0.0355
  317MOL0     H42782   9.149   4.363   6.246  2.0232  3.5492  0.0803
  317MOL0     H42783   8.932   4.209   6.364  2.7201 -0.5744 -0.9835
  317MOL0     H42784   8.962   4.378   6.323 -1.8319 -0.8440 -0.6232
  317MOL0     H42785   8.835   4.429   6.536 -1.8321 -0.4682  0.9350
  317MOL0     H42786   8.770   4.270   6.533  0.9978  0.1908  1.1551
  317MOL0     H42787   8.708   4.312   6.285 -1.7174 -3.4026  2.4727
  317MOL0     H42788   8.751   4.480   6.303  0.5632 -0.2610 -0.0435
  317MOL0     H42789   8.547   4.315   6.458 -1.1246  0.4415  0.1607
  317MOL0     H42790   8.593   4.479   6.512  0.0755  0.3024 -0.2039
  317MOL0     H42791   8.298   4.539   6.213 -4.1604 -1.8645  2.4461
  317MOL0     H42792   9.245   4.235   6.644 -1.2176  1.3419 -0.8800
  317MOL0     H42793   9.504   4.028   6.571  3.1542  0.0038  1.9745
  317MOL0     H42794   9.597   4.167   6.604  1.6939 -4.4615  1.1539
  317MOL0     H42795   9.452   4.129   6.695  0.5095  1.9089  1.3028
  318MOL0     O42796   5.168   7.887   0.986  0.4214 -0.4650  0.5184
  318MOL0     C42797   5.072   7.820   0.964 -0.1200  0.5375  0.8115
  318MOL0     O42798   5.012   7.740   1.056  0.2136 -0.5513 -0.4200
  318MOL0     C42799   5.065   7.679   1.171 -0.5172  0.7134  0.6269
  318MOL0     C42800   5.190   7.693   1.228  0.2664  0.8226  0.5975
  318MOL0     C42801   5.217   7.634   1.347 -0.7641  0.2441 -0.0033
  318MOL0     C42802   5.125   7.556   1.415  0.4017  0.0104  0.3141
  318MOL0     O42803   5.164   7.498   1.535 -0.4516 -0.0181  0.0441
  318MOL0     C42804   5.189   7.595   1.638 -0.2157 -0.4200 -0.0971
  318MOL0     C42805   5.126   7.582   1.781 -0.5278 -1.9432 -0.4371
  318MOL0     C42806   5.160   7.449   1.839  0.3398  0.0869 -0.4134
  318MOL0     C42807   5.152   7.443   1.995 -0.4725 -0.9155 -1.0426
  318MOL0     C42808   5.197   7.310   2.037 -0.4648  0.2788 -0.0903
  318MOL0     C42809   5.179   7.273   2.189 -0.4459 -0.1080  0.8783
  318MOL0     C42810   5.218   7.130   2.210 -0.5426  0.1112  0.0802
  318MOL0     C42811   5.297   7.097   2.341 -0.8865  0.4310  0.1433
  318MOL0     N42812   5.205   7.102   2.454 -1.6227  0.0225 -0.0973
  318MOL0     C42813   5.192   7.001   2.550 -0.1127 -0.2534  0.1402
  318MOL0     C42814   5.166   7.065   2.665 -0.4634 -0.4292 -0.5034
  318MOL0     C42815   5.145   7.002   2.798  0.0979  0.7755  1.1379
  318MOL0     C42816   5.005   6.931   2.825  0.7409 -0.1065 -0.7657
  318MOL0     C42817   4.977   6.820   2.730  1.5785 -0.5605  0.0449
  318MOL0     C42818   4.876   6.716   2.774  0.5606  0.0103 -0.9134
  318MOL0     O42819   4.936   6.667   2.900  0.2206 -0.7135 -0.2128
  318MOL0     C42820   4.876   6.574   2.980 -0.1129  0.4990  0.6741
  318MOL0     C42821   4.928   6.546   3.100 -0.0764 -0.3626 -0.1930
  318MOL0     C42822   4.877   6.443   3.176 -0.5833  0.1550 -0.8421
  318MOL0     C42823   4.770   6.356   3.135 -0.1500 -0.2391  0.5438
  318MOL0     C42824   4.717   6.246   3.222 -0.0034 -0.8313  0.0472
  318MOL0     O42825   4.782   6.226   3.335  0.9686 -0.0969  0.1786
  318MOL0     C42826   4.726   6.129   3.417 -0.5213  0.2766  0.2757
  318MOL0     C42827   4.602   6.148   3.486  0.1749 -0.1686 -0.6317
  318MOL0     C42828   4.557   6.054   3.571  0.1104 -0.6882 -0.0567
  318MOL0     C42829   4.627   5.933   3.588  0.2095 -0.2647  0.2320
  318MOL0     O42830   4.567   5.841   3.661 -0.5030 -0.0451  0.1480
  318MOL0     C42831   4.635   5.719   3.686  0.2021 -0.5989 -0.1553
  318MOL0     C42832   4.560   5.636   3.802  0.7762 -0.6559 -0.2327
  318MOL0     C42833   4.606   5.488   3.803  0.5777 -0.5895  0.7154
  318MOL0     C42834   4.729   5.469   3.890 -0.3008  0.7087 -0.3001
  318MOL0     C42835   4.759   5.321   3.926  0.4700  0.1701 -0.4536
  318MOL0     C42836   4.643   5.252   3.990 -0.1959 -1.0706  0.0436
  318MOL0     C42837   4.671   5.102   4.016 -0.6866 -0.3533 -0.2062
  318MOL0     C42838   4.565   5.034   4.097  1.3024  0.6290  0.7689
  318MOL0    Cl42839   4.403   5.057   4.027  0.3373  0.3372  0.1947
  318MOL0     C42840   4.747   5.908   3.522  0.8493  0.0826 -0.3180
  318MOL0     C42841   4.798   6.008   3.434 -0.1752 -1.1864  0.1835
  318MOL0     O42842   4.636   6.176   3.174  0.1100 -0.6637 -0.0563
  318MOL0     C42843   4.717   6.383   3.006  0.1849  0.1321  0.1757
  318MOL0     C42844   4.761   6.491   2.930 -0.5011  0.0852  0.2580
  318MOL0     N42845   5.163   7.203   2.641  0.4974  0.5357 -0.5940
  318MOL0     N42846   5.193   7.228   2.518 -0.1659  0.8470 -0.8088
  318MOL0     C42847   4.997   7.544   1.352 -0.5784 -0.0313 -0.2810
  318MOL0     C42848   4.969   7.594   1.227 -0.5388  0.3448  0.2592
  318MOL0     C42849   4.995   7.836   0.837 -0.2143 -0.4657 -0.0777
  318MOL0     C42850   4.867   7.835   0.857  0.4320 -0.6009  1.1347
  318MOL0     C42851   4.773   7.858   0.750  0.0784 -0.6796 -0.2952
  318MOL0     C42852   4.816   7.896   0.624 -0.3141  0.6498  0.3117
  318MOL0     O42853   4.712   7.913   0.538 -0.5096  0.4571  0.3863
  318MOL0     C42854   4.739   8.021   0.443  0.0173 -0.3300 -0.5235
  318MOL0     C42855   4.622   8.102   0.396 -0.2810  0.1562  0.1350
  318MOL0     C42856   4.670   8.186   0.277 -0.1780  0.1990  0.9946
  318MOL0     C42857   4.548   8.261   0.235  0.3453 -0.2159  0.6330
  318MOL0     C42858   4.602   8.372   0.149  0.4516 -0.3666  0.7308
  318MOL0     C42859   4.642   8.473   0.094 -0.2126  1.5706  0.6507
  318MOL0     C42860   4.955   7.888   0.601  0.4184 -0.1993  0.0119
  318MOL0     C42861   5.046   7.868   0.705 -0.4174 -0.6394 -0.8626
  318MOL0     C42862   5.195   7.869   0.678 -0.5391  0.5558 -0.0699
  318MOL0     H42863   5.268   7.747   1.175 -0.4388  1.0307 -0.2442
  318MOL0     H42864   5.313   7.643   1.396 -1.4279 -0.4241  1.4782
  318MOL0     H42865   5.296   7.575   1.647 -0.9209 -4.4751  1.1609
  318MOL0     H42866   5.188   7.702   1.613  5.2286  0.4414  1.9142
  318MOL0     H42867   5.021   7.611   1.772 -0.9443 -2.7805  1.2859
  318MOL0     H42868   5.167   7.667   1.837  0.6690 -1.7212 -1.6222
  318MOL0     H42869   5.264   7.435   1.807  1.0849  0.3907  1.7099
  318MOL0     H42870   5.093   7.373   1.799 -1.1281  1.5419 -0.8081
  318MOL0     H42871   5.213   7.523   2.038 -2.2411 -0.2012  0.2265
  318MOL0     H42872   5.051   7.470   2.027 -0.0003  2.0419 -1.7537
  318MOL0     H42873   5.151   7.243   1.963  1.4158 -1.1863  0.0018
  318MOL0     H42874   5.303   7.302   2.011 -0.1331  1.1963  0.9202
  318MOL0     H42875   5.242   7.338   2.249  0.0485  0.5396 -0.3270
  318MOL0     H42876   5.073   7.290   2.213 -2.8880  1.4838 -7.5377
  318MOL0     H42877   5.293   7.102   2.135 -0.0345 -3.5595  1.7499
  318MOL0     H42878   5.129   7.067   2.202  0.4804 -1.1544 -2.5687
  318MOL0     H42879   5.342   6.998   2.330  0.2186  0.8785  0.4657
  318MOL0     H42880   5.370   7.177   2.356 -1.3910  0.5795  2.0003
  318MOL0     H42881   5.221   6.896   2.546  5.4506  0.9405 -3.9582
  318MOL0     H42882   5.218   6.919   2.800 -1.9914 -1.8476 -5.1808
  318MOL0     H42883   5.169   7.077   2.874  0.6589  2.3303 -0.5048
  318MOL0     H42884   5.001   6.885   2.923 -0.1194 -0.3360 -0.8995
  318MOL0     H42885   4.922   7.002   2.820 -1.2189 -1.8591  2.8616
  318MOL0     H42886   5.072   6.771   2.706 -0.1208 -3.4025 -1.4279
  318MOL0     H42887   4.932   6.872   2.644 -0.7919  0.4252  1.7790
  318MOL0     H42888   4.876   6.630   2.706 -1.6336 -2.5235  1.9738
  318MOL0     H42889   4.776   6.758   2.787  0.2071 -1.6303  3.5087
  318MOL0     H42890   5.002   6.616   3.137 -0.1720 -0.5066  0.2747
  318MOL0     H42891   4.931   6.429   3.269 -2.5551 -0.9884  0.2120
  318MOL0     H42892   4.535   6.234   3.492 -0.5907 -0.6604 -1.8063
  318MOL0     H42893   4.463   6.064   3.624 -1.1422  0.9902 -2.3751
  318MOL0     H42894   4.618   5.658   3.597  2.0680  1.0316 -1.7189
  318MOL0     H42895   4.735   5.734   3.726  0.2657 -1.8806  0.1844
  318MOL0     H42896   4.579   5.686   3.897  1.1367  0.5888 -0.9307
  318MOL0     H42897   4.453   5.648   3.783  0.2141 -3.2387  0.9360
  318MOL0     H42898   4.517   5.436   3.840  0.8618 -3.0208 -1.6876
  318MOL0     H42899   4.626   5.454   3.701  0.6221  1.5338 -0.0520
  318MOL0     H42900   4.711   5.532   3.978 -0.1621 -1.1547  1.1086
  318MOL0     H42901   4.818   5.505   3.836  0.2581  1.2321  0.9332
  318MOL0     H42902   4.845   5.314   3.993  2.5147  1.8681 -2.7712
  318MOL0     H42903   4.783   5.264   3.836  0.3020 -0.2695 -0.2266
  318MOL0     H42904   4.630   5.302   4.086  1.7978 -0.3606 -0.0005
  318MOL0     H42905   4.547   5.249   3.939 -1.0356 -0.8516  1.5520
  318MOL0     H42906   4.769   5.103   4.063 -0.5667  3.2407 -0.3112
  318MOL0     H42907   4.678   5.060   3.915  2.4389 -0.4149 -0.0429
  318MOL0     H42908   4.592   4.928   4.095 -0.2394  0.2069  1.4306
  318MOL0     H42909   4.570   5.075   4.198 -5.1120  2.2768  0.8414
  318MOL0     H42910   4.805   5.817   3.528 -0.3141 -0.5711  2.4833
  318MOL0     H42911   4.891   5.978   3.385 -0.7132 -1.0530 -0.9627
  318MOL0     H42912   4.636   6.320   2.971 -0.3567  1.4983 -1.1586
  318MOL0     H42913   4.714   6.500   2.833  2.8812 -0.3365 -1.5861
  318MOL0     H42914   4.912   7.500   1.404  0.0918  2.7745  3.7006
  318MOL0     H42915   4.870   7.592   1.184 -0.1032 -0.9225 -0.7348
  318MOL0     H42916   4.825   7.833   0.957 -2.7362  0.9248 -0.0285
  318MOL0     H42917   4.666   7.864   0.765 -0.7053 -0.4367 -4.7890
  318MOL0     H42918   4.795   7.981   0.358  0.2343  0.8846 -0.9695
  318MOL0     H42919   4.815   8.090   0.481  0.7917 -1.8173  0.7175
  318MOL0     H42920   4.589   8.171   0.474 -0.6661  3.2862 -2.5696
  318MOL0     H42921   4.538   8.040   0.362 -1.2370  2.4930 -2.0983
  318MOL0     H42922   4.704   8.110   0.206 -0.1294 -3.0363  4.1803
  318MOL0     H42923   4.749   8.261   0.293 -0.1192  0.6274 -0.9992
  318MOL0     H42924   4.485   8.212   0.160  1.1563 -0.4554  0.1056
  318MOL0     H42925   4.487   8.302   0.316 -0.6328  0.0823 -0.2342
  318MOL0     H42926   4.676   8.558   0.038 -1.4692  0.3156 -2.2089
  318MOL0     H42927   4.995   7.901   0.501 -0.7556  0.1102 -0.4356
  318MOL0     H42928   5.240   7.958   0.723 -0.5181  0.6828 -0.3384
  318MOL0     H42929   5.231   7.773   0.713  2.1464  1.4542 -0.1467
  318MOL0     H42930   5.220   7.871   0.571  2.6829 -1.2232  0.5423
  319MOL0     O42931   2.531   5.070   8.867 -0.4890  0.8283 -0.5413
  319MOL0     C42932   2.435   4.999   8.889 -0.5572 -0.1327  0.4699
  319MOL0     O42933   2.437   4.901   8.985 -0.1766  0.4912  0.4490
  319MOL0     C42934   2.561   4.857   9.025 -0.5888  0.6551 -0.5593
  319MOL0     C42935   2.614   4.733   8.984 -0.4286  0.4343 -0.7857
  319MOL0     C42936   2.731   4.684   9.035 -0.6644  0.5795 -0.0989
  319MOL0     C42937   2.796   4.746   9.137  0.0088 -0.4458  0.3354
  319MOL0     O42938   2.918   4.692   9.175 -0.3934 -1.0404  0.5351
  319MOL0     C42939   2.964   4.695   9.303 -0.2656 -0.0946 -0.0674
  319MOL0     C42940   3.003   4.553   9.345 -0.3569  0.8172 -0.6576
  319MOL0     C42941   3.086   4.481   9.242  0.6882  0.5025 -0.5838
  319MOL0     C42942   3.225   4.540   9.204 -0.5069 -0.1509 -0.1907
  319MOL0     C42943   3.298   4.443   9.107  0.0901  0.4875  0.2762
  319MOL0     C42944   3.441   4.402   9.142  0.0297 -0.2908  0.4429
  319MOL0     C42945   3.532   4.534   9.123 -0.5444 -0.2394  0.5459
  319MOL0     C42946   3.660   4.521   9.196  0.2823 -0.4336  1.2169
  319MOL0     N42947   3.756   4.429   9.135 -1.2170  0.1184 -0.4278
  319MOL0     C42948   3.779   4.419   9.006 -0.2980  0.6784  0.1959
  319MOL0     C42949   3.843   4.306   8.987  0.0454  0.2882  0.9412
  319MOL0     C42950   3.888   4.244   8.859  0.0502  0.1733  0.1801
  319MOL0     C42951   3.817   4.313   8.735  0.7725 -0.3494  0.6621
  319MOL0     C42952   3.863   4.261   8.609  0.5012 -0.5059  1.3320
  319MOL0     C42953   3.810   4.327   8.478  0.8372  0.6883  0.0267
  319MOL0     O42954   3.678   4.281   8.438  1.0260  1.0059  0.3355
  319MOL0     C42955   3.636   4.319   8.318  0.7440  0.0765 -0.6270
  319MOL0     C42956   3.528   4.243   8.265  0.1599  0.3713  0.0197
  319MOL0     C42957   3.471   4.287   8.141  0.4954  0.0907 -0.0905
  319MOL0     C42958   3.512   4.407   8.073  0.6362 -0.6690  0.3772
  319MOL0     C42959   3.462   4.452   7.941 -0.8452  0.3447  0.1316
  319MOL0     O42960   3.518   4.568   7.892 -0.5429 -0.0193 -0.2798
  319MOL0     C42961   3.504   4.614   7.766 -0.4518 -0.0172 -0.7122
  319MOL0     C42962   3.442   4.542   7.657  0.4783  1.5785  0.2748
  319MOL0     C42963   3.440   4.594   7.525 -0.2170 -0.1587 -1.1962
  319MOL0     C42964   3.499   4.717   7.501 -0.2221 -0.9982  0.4031
  319MOL0     O42965   3.506   4.784   7.379 -0.4305  0.1358 -0.7724
  319MOL0     C42966   3.518   4.708   7.257  1.5851  0.0491 -0.6199
  319MOL0     C42967   3.524   4.808   7.146  0.0899 -0.5679  0.4422
  319MOL0     C42968   3.387   4.874   7.117  0.0190  1.5354  0.0670
  319MOL0     C42969   3.392   4.925   6.980  0.2184 -0.8029 -0.6542
  319MOL0     C42970   3.261   5.004   6.941  0.2002  0.3812 -0.6418
  319MOL0     C42971   3.297   5.071   6.817  0.6719 -0.2895  1.4539
  319MOL0     C42972   3.161   5.132   6.760 -0.4849  0.6043 -0.4781
  319MOL0     C42973   3.186   5.191   6.628 -0.5812  0.1991 -0.0651
  319MOL0    Cl42974   3.032   5.257   6.558 -0.3066 -0.0206  0.0939
  319MOL0     C42975   3.569   4.781   7.607  0.4539  0.0410 -0.1507
  319MOL0     C42976   3.571   4.732   7.737 -0.0161 -0.4000  0.7042
  319MOL0     O42977   3.383   4.376   7.885  0.2414 -0.1622 -0.9108
  319MOL0     C42978   3.614   4.474   8.137 -0.3965 -0.0671  0.0551
  319MOL0     C42979   3.681   4.433   8.256  0.4796  0.0774 -0.0237
  319MOL0     N42980   3.867   4.235   9.101  0.9430 -0.2943 -0.2090
  319MOL0     N42981   3.811   4.312   9.189  0.1538 -0.0598 -1.5266
  319MOL0     C42982   2.756   4.872   9.180  0.4997 -0.2023  0.0385
  319MOL0     C42983   2.634   4.927   9.125  0.6666 -0.2292  0.6992
  319MOL0     C42984   2.307   5.015   8.810  0.9721  0.0042 -0.1115
  319MOL0     C42985   2.196   4.931   8.851 -0.3403  0.2045 -0.7980
  319MOL0     C42986   2.067   4.947   8.799 -0.6214 -0.5078  0.0554
  319MOL0     C42987   2.044   5.055   8.706  0.1269 -0.1666  0.0450
  319MOL0     O42988   1.936   5.069   8.623 -0.0693  0.2629 -0.3779
  319MOL0     C42989   1.814   5.001   8.661  0.2976 -0.2861 -0.3043
  319MOL0     C42990   1.695   5.068   8.608 -0.4985 -0.3199  0.3119
  319MOL0     C42991   1.674   5.081   8.457 -0.4108 -1.1594 -0.1090
  319MOL0     C42992   1.589   4.969   8.401  0.2299  0.3721 -0.0040
  319MOL0     C42993   1.659   4.841   8.396  0.3495 -1.1662  0.7393
  319MOL0     C42994   1.709   4.728   8.387 -0.7103 -0.7013 -0.4027
  319MOL0     C42995   2.152   5.145   8.674  0.9341  0.6778 -0.6445
  319MOL0     C42996   2.281   5.122   8.722  0.4172  0.0554 -0.1838
  319MOL0     C42997   2.370   5.244   8.692 -0.2754 -0.4150  0.1511
  319MOL0     H42998   2.567   4.681   8.901 -0.6626  2.4091 -1.9546
  319MOL0     H42999   2.770   4.590   8.998 -3.4948 -1.4924  1.8398
  319MOL0     H43000   3.056   4.753   9.309 -1.0705  1.1509  0.6821
  319MOL0     H43001   2.901   4.742   9.380 -0.8372 -1.3046  0.2301
  319MOL0     H43002   2.907   4.502   9.363 -0.0115  0.3258 -0.1848
  319MOL0     H43003   3.052   4.548   9.442 -0.8760 -0.4520 -0.4334
  319MOL0     H43004   3.029   4.482   9.149 -0.7150 -0.3155  0.2327
  319MOL0     H43005   3.089   4.377   9.276 -4.3512  1.0253  2.4363
  319MOL0     H43006   3.212   4.644   9.171 -0.0531 -0.0243  0.0259
  319MOL0     H43007   3.294   4.551   9.288 -0.1245  3.8574 -0.8300
  319MOL0     H43008   3.240   4.351   9.100 -1.5130  1.1832  3.0108
  319MOL0     H43009   3.295   4.482   9.005  2.9468 -1.3624 -0.6376
  319MOL0     H43010   3.449   4.355   9.241  0.7022  2.1600  1.6300
  319MOL0     H43011   3.481   4.327   9.073  0.7219 -0.2722  0.8066
  319MOL0     H43012   3.482   4.621   9.167 -1.4448 -0.4830  0.0177
  319MOL0     H43013   3.542   4.570   9.020 -3.1463  0.4047  0.4487
  319MOL0     H43014   3.720   4.610   9.218 -0.0946  0.1029  0.1400
  319MOL0     H43015   3.632   4.470   9.289 -0.8288 -0.0232  1.1238
  319MOL0     H43016   3.750   4.495   8.934  0.7400  3.2186  2.3201
  319MOL0     H43017   3.994   4.265   8.844  0.0217  0.4276  0.3278
  319MOL0     H43018   3.872   4.136   8.855 -0.1416  0.2239 -0.8158
  319MOL0     H43019   3.708   4.311   8.740  0.5522  4.1993  1.8928
  319MOL0     H43020   3.831   4.422   8.742 -2.0483  0.3394 -2.0929
  319MOL0     H43021   3.847   4.154   8.596 -2.3937 -0.6378  4.6114
  319MOL0     H43022   3.968   4.293   8.613  0.4962  0.0208 -1.1210
  319MOL0     H43023   3.872   4.309   8.390  0.5770  0.0686 -0.0309
  319MOL0     H43024   3.796   4.435   8.495 -0.3764  0.4163  0.8738
  319MOL0     H43025   3.481   4.159   8.317 -0.5305  1.5264  1.3431
  319MOL0     H43026   3.397   4.218   8.100  2.0231 -2.3531  1.0185
  319MOL0     H43027   3.383   4.454   7.679 -0.1586  1.2939 -2.2921
  319MOL0     H43028   3.380   4.544   7.450 -0.1404 -3.3639  0.6933
  319MOL0     H43029   3.617   4.662   7.247  1.4721 -0.3329 -0.0842
  319MOL0     H43030   3.446   4.626   7.249  2.1840 -0.7058  1.1468
  319MOL0     H43031   3.592   4.892   7.163 -0.5136  0.2605 -1.0498
  319MOL0     H43032   3.555   4.745   7.062  0.6170 -0.1689  0.3362
  319MOL0     H43033   3.304   4.803   7.122  1.1533  0.2547  1.7079
  319MOL0     H43034   3.375   4.947   7.197 -2.4218 -1.4969  2.7348
  319MOL0     H43035   3.418   4.845   6.911  2.2099 -1.8896  1.2395
  319MOL0     H43036   3.471   5.001   6.986  0.4040 -1.0560  0.3078
  319MOL0     H43037   3.226   5.077   7.015  1.2978  1.5010 -1.2086
  319MOL0     H43038   3.183   4.928   6.932 -2.9022  3.2381  0.1265
  319MOL0     H43039   3.369   5.148   6.843  1.3093 -0.8738  1.4388
  319MOL0     H43040   3.335   4.999   6.743 -1.0669  1.1794 -1.0315
  319MOL0     H43041   3.139   5.195   6.846 -0.7166 -0.4506  0.2410
  319MOL0     H43042   3.088   5.051   6.757  2.8034 -2.7483  0.9188
  319MOL0     H43043   3.260   5.272   6.632  0.4384 -0.6787 -0.8739
  319MOL0     H43044   3.216   5.101   6.575 -1.7484 -1.8700  2.5420
  319MOL0     H43045   3.622   4.869   7.572 -0.9325 -0.0998 -2.8723
  319MOL0     H43046   3.636   4.776   7.812 -1.9561 -0.0109  2.2723
  319MOL0     H43047   3.655   4.564   8.093  0.1230 -1.6330 -3.0301
  319MOL0     H43048   3.759   4.492   8.304 -0.2824  1.2046 -0.1450
  319MOL0     H43049   2.813   4.928   9.253 -3.2549  0.3713  2.8471
  319MOL0     H43050   2.598   5.018   9.172  1.0409 -1.3685  3.3566
  319MOL0     H43051   2.206   4.846   8.918 -1.0583  0.7854  0.0608
  319MOL0     H43052   1.978   4.887   8.818 -0.6871 -0.0552  1.2531
  319MOL0     H43053   1.808   4.988   8.769  1.0559 -5.0766 -0.6278
  319MOL0     H43054   1.819   4.897   8.626  1.5244 -0.3103 -0.0947
  319MOL0     H43055   1.701   5.175   8.626 -1.0230 -0.1941 -0.2584
  319MOL0     H43056   1.610   5.024   8.661  0.5633 -0.8111  1.6925
  319MOL0     H43057   1.769   5.070   8.404  0.0166  1.9994 -0.1894
  319MOL0     H43058   1.621   5.177   8.449  0.5989 -0.6007 -0.2792
  319MOL0     H43059   1.500   4.945   8.460  2.9928 -3.1736  3.2103
  319MOL0     H43060   1.559   4.998   8.300  0.9161 -0.2707 -0.4074
  319MOL0     H43061   1.773   4.642   8.395 -2.2040 -1.6778  2.1789
  319MOL0     H43062   2.136   5.227   8.604 -0.2529 -0.3136 -1.5658
  319MOL0     H43063   2.323   5.342   8.681 -0.8800 -0.8411 -1.3935
  319MOL0     H43064   2.434   5.270   8.777 -1.2275  3.5000 -0.1256
  319MOL0     H43065   2.433   5.221   8.605 -0.5663  0.6880 -0.3745
  320MOL0     O43066   3.252   2.520   6.649  0.0422 -0.0207  0.1641
  320MOL0     C43067   3.260   2.628   6.593  0.1599  1.5167  0.3327
  320MOL0     O43068   3.362   2.666   6.503  0.8710  0.1257 -1.2249
  320MOL0     C43069   3.481   2.600   6.491  0.6907 -0.9182  0.8411
  320MOL0     C43070   3.533   2.493   6.564  0.2071 -0.3221  0.3022
  320MOL0     C43071   3.662   2.437   6.536 -0.1670  0.1176  0.2876
  320MOL0     C43072   3.745   2.496   6.441  0.2242  0.1942 -0.5345
  320MOL0     O43073   3.864   2.446   6.419 -0.6466 -0.2133 -0.3649
  320MOL0     C43074   3.917   2.468   6.289 -0.3178 -0.1243 -0.3497
  320MOL0     C43075   4.048   2.384   6.268 -0.4160  0.4879 -0.5689
  320MOL0     C43076   4.012   2.244   6.215  0.7202  0.5788 -0.6216
  320MOL0     C43077   4.136   2.160   6.173  0.0188  0.1270  0.6346
  320MOL0     C43078   4.239   2.146   6.293 -0.5482 -0.1728  0.2066
  320MOL0     C43079   4.341   2.036   6.279  0.7157 -0.1473 -0.3755
  320MOL0     C43080   4.409   2.014   6.413  0.7437  0.1985 -0.4021
  320MOL0     C43081   4.329   1.923   6.512  0.1303 -0.9916  0.3137
  320MOL0     N43082   4.291   1.788   6.462  0.5636 -0.2529 -0.2982
  320MOL0     C43083   4.158   1.748   6.450  0.3322  0.4845  0.5356
  320MOL0     C43084   4.177   1.624   6.399 -0.2148 -0.5780  0.6354
  320MOL0     C43085   4.053   1.551   6.357  1.0250  0.5900  1.1785
  320MOL0     C43086   4.064   1.524   6.193 -0.3931  0.8536 -0.2666
  320MOL0     C43087   4.061   1.658   6.113  0.4949  0.7065 -0.2033
  320MOL0     C43088   3.945   1.751   6.149 -0.1626  0.9983 -0.3129
  320MOL0     O43089   3.923   1.855   6.052 -0.0427 -0.8593  0.1629
  320MOL0     C43090   3.801   1.897   6.007 -0.6869  0.2844 -0.0348
  320MOL0     C43091   3.692   1.886   6.084  0.9936  0.0504 -0.4371
  320MOL0     C43092   3.569   1.941   6.060  0.7375  0.1125  1.1485
  320MOL0     C43093   3.560   2.021   5.943  0.2929  1.1315 -0.4371
  320MOL0     C43094   3.435   2.090   5.907 -0.3901  0.2316 -0.1680
  320MOL0     O43095   3.419   2.164   5.797  0.0207 -0.0978 -0.5623
  320MOL0     C43096   3.322   2.259   5.794  0.5518 -0.3481 -0.5410
  320MOL0     C43097   3.198   2.237   5.738  0.1977  0.0192 -0.2938
  320MOL0     C43098   3.095   2.336   5.733 -0.8524 -0.4459  0.0852
  320MOL0     C43099   3.123   2.464   5.785  0.7694  0.0551  0.0189
  320MOL0     O43100   3.015   2.561   5.775 -0.7388 -1.0775 -0.2735
  320MOL0     C43101   3.063   2.695   5.826  0.4262 -1.1316 -0.6177
  320MOL0     C43102   2.993   2.808   5.753  0.2877 -0.9709 -0.2243
  320MOL0     C43103   3.044   2.949   5.806  0.6082 -0.1216 -0.5905
  320MOL0     C43104   2.933   3.056   5.771 -0.3514 -0.1987  0.1440
  320MOL0     C43105   2.993   3.192   5.782 -0.3561 -0.5858  0.8930
  320MOL0     C43106   2.874   3.292   5.770 -0.2352  0.6132  0.0005
  320MOL0     C43107   2.787   3.292   5.898  0.4051 -0.6212  0.5154
  320MOL0     C43108   2.679   3.398   5.889  0.2285 -0.4676 -0.1228
  320MOL0    Cl43109   2.764   3.541   5.937  0.5135 -0.1540 -0.2889
  320MOL0     C43110   3.245   2.485   5.844  0.3394  0.2844 -0.3409
  320MOL0     C43111   3.342   2.384   5.849 -0.3293 -0.5023  0.0970
  320MOL0     O43112   3.348   2.081   5.996 -0.6004  0.1800  0.1255
  320MOL0     C43113   3.670   2.019   5.851  0.1389 -1.1786 -0.1692
  320MOL0     C43114   3.796   1.971   5.887 -0.4775  0.0636  0.2439
  320MOL0     N43115   4.310   1.588   6.383  0.5731 -0.2429 -0.0195
  320MOL0     N43116   4.373   1.693   6.408  0.1445  0.1204  0.5882
  320MOL0     C43117   3.691   2.607   6.368  0.2553  0.1601 -0.6721
  320MOL0     C43118   3.556   2.655   6.388 -0.3223  0.2465  1.0619
  320MOL0     C43119   3.144   2.718   6.625  0.5560  0.0796  0.0880
  320MOL0     C43120   3.163   2.849   6.577  1.3429  0.8811 -0.2298
  320MOL0     C43121   3.049   2.929   6.579 -0.1309 -0.1394 -0.2031
  320MOL0     C43122   2.934   2.901   6.667 -0.0135 -1.6810 -0.0749
  320MOL0     O43123   2.821   2.974   6.666 -0.1634  0.2028  0.9603
  320MOL0     C43124   2.784   3.074   6.565 -0.5514 -0.4186  0.4201
  320MOL0     C43125   2.845   3.221   6.585 -0.5392  0.2770 -0.1527
  320MOL0     C43126   2.808   3.284   6.713 -0.6609 -0.2144 -0.0573
  320MOL0     C43127   2.655   3.300   6.728  0.3326 -0.0767 -0.6878
  320MOL0     C43128   2.628   3.379   6.851 -0.3854  0.4320 -0.4330
  320MOL0     C43129   2.608   3.452   6.945 -1.2387  0.3512 -0.6450
  320MOL0     C43130   2.941   2.788   6.738 -0.1592  0.2427 -0.7494
  320MOL0     C43131   3.038   2.692   6.711 -0.1163  0.3226  0.3988
  320MOL0     C43132   3.010   2.558   6.785  0.1670  0.2039  0.7543
  320MOL0     H43133   3.482   2.459   6.653 -1.3602  1.5053  0.1524
  320MOL0     H43134   3.707   2.359   6.597 -1.1232 -1.9757 -1.5421
  320MOL0     H43135   3.845   2.458   6.207 -1.8173 -1.5833  1.0554
  320MOL0     H43136   3.951   2.572   6.291  4.3273 -1.4390  1.3028
  320MOL0     H43137   4.102   2.370   6.363 -2.0852 -1.0087  0.2034
  320MOL0     H43138   4.114   2.421   6.189  0.7321 -3.2551 -1.5657
  320MOL0     H43139   3.952   2.263   6.125 -0.0124  0.9661 -0.0695
  320MOL0     H43140   3.945   2.194   6.286  2.9703  1.2313  2.1165
  320MOL0     H43141   4.103   2.068   6.125  1.4056 -0.0973  0.0722
  320MOL0     H43142   4.197   2.212   6.099 -2.1758 -2.0765 -3.0089
  320MOL0     H43143   4.292   2.241   6.310  0.9770 -1.1927  1.4675
  320MOL0     H43144   4.181   2.126   6.384 -0.4477 -2.6114 -0.1963
  320MOL0     H43145   4.285   1.943   6.269  1.7625 -1.4587  3.9559
  320MOL0     H43146   4.409   2.049   6.194  0.7432 -2.2036 -0.7157
  320MOL0     H43147   4.411   2.113   6.461  2.5665 -0.5428  1.1839
  320MOL0     H43148   4.510   1.975   6.394  0.0643 -3.2666  2.2413
  320MOL0     H43149   4.388   1.915   6.604  2.5843  0.9465 -0.9976
  320MOL0     H43150   4.231   1.964   6.539  1.0282  1.6720 -0.2398
  320MOL0     H43151   4.069   1.802   6.480  0.1542 -0.7328  2.3451
  320MOL0     H43152   4.040   1.452   6.401  0.7514  1.0818  2.2409
  320MOL0     H43153   3.963   1.609   6.379 -1.1852 -2.5947  1.1814
  320MOL0     H43154   4.158   1.470   6.194 -1.3484 -0.8725  0.6506
  320MOL0     H43155   3.993   1.451   6.153  0.7363 -0.4102 -0.0028
  320MOL0     H43156   4.058   1.618   6.011  0.7878 -0.6550  0.2925
  320MOL0     H43157   4.156   1.706   6.136  0.6797 -0.0080  0.5810
  320MOL0     H43158   3.959   1.791   6.250 -1.2244 -0.6709  0.5340
  320MOL0     H43159   3.854   1.690   6.151 -2.7985  4.5754  0.6733
  320MOL0     H43160   3.690   1.835   6.180  0.6748 -2.2136 -1.5765
  320MOL0     H43161   3.493   1.936   6.138  1.0944 -0.3888  1.4748
  320MOL0     H43162   3.181   2.135   5.704  1.3440  0.8452 -3.7231
  320MOL0     H43163   3.009   2.307   5.673  0.1497  0.1512 -1.7193
  320MOL0     H43164   3.036   2.705   5.931  1.0887  2.4226 -0.6761
  320MOL0     H43165   3.170   2.718   5.822 -0.0707  1.7890  0.5669
  320MOL0     H43166   3.002   2.802   5.644  1.4846  2.8160 -0.4692
  320MOL0     H43167   2.885   2.805   5.769  0.2195 -1.9242 -0.7690
  320MOL0     H43168   3.046   2.945   5.915 -0.8854  1.8107 -0.4264
  320MOL0     H43169   3.142   2.972   5.764  1.4718  1.4314  2.0249
  320MOL0     H43170   2.844   3.037   5.834 -0.1377 -2.3965 -0.1295
  320MOL0     H43171   2.907   3.040   5.666  0.8316 -0.1239 -0.1741
  320MOL0     H43172   3.073   3.208   5.709 -2.5737  1.3112 -1.3186
  320MOL0     H43173   3.046   3.211   5.876  2.5157  1.6453 -0.9919
  320MOL0     H43174   2.908   3.397   5.770 -1.6733  1.1417  2.3591
  320MOL0     H43175   2.807   3.271   5.686 -1.2416  2.2135  0.3463
  320MOL0     H43176   2.835   3.299   5.996 -0.2623  3.5007  0.7098
  320MOL0     H43177   2.724   3.202   5.900 -0.0098 -0.3261  0.8890
  320MOL0     H43178   2.633   3.407   5.790 -1.4673 -0.2340  0.6446
  320MOL0     H43179   2.607   3.378   5.968  0.7212 -2.0731 -0.0474
  320MOL0     H43180   3.265   2.582   5.889  0.9794  0.5689 -1.2152
  320MOL0     H43181   3.431   2.405   5.908 -1.0315  4.5448 -0.2171
  320MOL0     H43182   3.662   2.060   5.750  2.2281  1.5637  0.6657
  320MOL0     H43183   3.891   1.990   5.836 -0.0272 -1.2519  0.5649
  320MOL0     H43184   3.752   2.660   6.295  0.6836  0.6427  0.0281
  320MOL0     H43185   3.508   2.738   6.336  1.0300 -0.6183 -1.7836
  320MOL0     H43186   3.251   2.884   6.524  1.5011  1.5058  0.4329
  320MOL0     H43187   3.051   3.017   6.516  2.2432 -0.4850 -0.6923
  320MOL0     H43188   2.676   3.063   6.550 -0.1541 -0.5543 -3.6978
  320MOL0     H43189   2.816   3.029   6.470  1.5711 -3.8665  2.5836
  320MOL0     H43190   2.807   3.285   6.505  2.5547 -0.0428 -2.0450
  320MOL0     H43191   2.954   3.214   6.581 -0.5789 -0.7339  0.2364
  320MOL0     H43192   2.850   3.385   6.710 -3.7231  1.1595 -1.4788
  320MOL0     H43193   2.859   3.241   6.800 -1.0838  0.6546  0.6361
  320MOL0     H43194   2.614   3.351   6.640  2.8928 -0.3783 -2.1491
  320MOL0     H43195   2.610   3.201   6.748  2.4475 -0.7006  1.3731
  320MOL0     H43196   2.604   3.504   7.038 -2.2148 -1.8106  0.5935
  320MOL0     H43197   2.863   2.764   6.810 -1.3206  0.1949 -1.9683
  320MOL0     H43198   2.942   2.572   6.869  0.7305  0.4054  1.1846
  320MOL0     H43199   2.970   2.487   6.712 -2.0531 -0.0147  2.0774
  320MOL0     H43200   3.103   2.515   6.823  0.4692  0.3400  0.1802
  321MOL0     O43201   0.399   6.178   7.193 -0.0163  0.4306  0.4049
  321MOL0     C43202   0.405   6.067   7.249  0.0364  0.1693 -0.5005
  321MOL0     O43203   0.475   6.041   7.368  0.2876 -0.7057  1.0822
  321MOL0     C43204   0.548   6.140   7.435 -0.7377  0.8649  0.1414
  321MOL0     C43205   0.507   6.265   7.486  1.3459  0.9958  0.1347
  321MOL0     C43206   0.599   6.354   7.546 -0.0254  0.2168  1.0157
  321MOL0     C43207   0.736   6.313   7.550  1.1214  0.2521 -0.1502
  321MOL0     O43208   0.847   6.383   7.608  0.1807  0.1576 -0.0553
  321MOL0     C43209   0.829   6.526   7.660 -0.4435  0.7677 -0.7075
  321MOL0     C43210   0.949   6.555   7.755 -0.3465 -0.1587 -0.3509
  321MOL0     C43211   0.944   6.700   7.801  0.2353 -0.4650  0.0155
  321MOL0     C43212   1.070   6.729   7.894 -0.4332 -0.5069  0.1150
  321MOL0     C43213   1.034   6.817   8.019 -0.8957 -0.6852  0.7846
  321MOL0     C43214   1.162   6.859   8.096 -1.1534  0.0959 -0.0852
  321MOL0     C43215   1.124   6.946   8.216 -1.1532  0.3142  0.4974
  321MOL0     C43216   1.229   6.955   8.328 -0.6405 -0.2953 -0.8775
  321MOL0     N43217   1.161   7.033   8.437  0.1147  1.3979  0.9599
  321MOL0     C43218   1.158   7.171   8.440  0.3937 -0.5666  0.1879
  321MOL0     C43219   1.106   7.205   8.558 -0.3754 -0.5129 -0.7077
  321MOL0     C43220   1.101   7.347   8.603 -0.5021  0.5850  0.5543
  321MOL0     C43221   1.015   7.435   8.507 -0.2068  0.5814 -0.7772
  321MOL0     C43222   0.860   7.414   8.509  0.4130 -0.2880 -0.0468
  321MOL0     C43223   0.811   7.299   8.415  0.5530  0.1369  0.4132
  321MOL0     O43224   0.796   7.367   8.292  0.5167  0.1465  0.0070
  321MOL0     C43225   0.729   7.295   8.191 -0.0706  0.5070 -0.3269
  321MOL0     C43226   0.628   7.354   8.120 -0.1555  0.0569 -0.2463
  321MOL0     C43227   0.564   7.293   8.015 -0.8389  0.1000 -0.4450
  321MOL0     C43228   0.600   7.163   7.985 -1.3843 -0.1179 -0.0246
  321MOL0     C43229   0.553   7.095   7.866 -0.4596  0.4684 -0.2238
  321MOL0     O43230   0.557   6.956   7.867 -0.2101 -0.1274 -0.5806
  321MOL0     C43231   0.522   6.891   7.755 -0.4905 -0.0642  0.8295
  321MOL0     C43232   0.402   6.825   7.741 -1.1099 -1.3303 -0.6065
  321MOL0     C43233   0.375   6.742   7.629  0.2572 -1.1292 -0.3035
  321MOL0     C43234   0.477   6.733   7.534  0.5268  0.1471  1.2169
  321MOL0     O43235   0.466   6.633   7.439  0.1711 -0.0161  0.7441
  321MOL0     C43236   0.340   6.620   7.385 -0.8157 -0.4823  0.0244
  321MOL0     C43237   0.365   6.530   7.274  0.8496 -0.2285  0.2468
  321MOL0     C43238   0.241   6.490   7.190 -0.9551  0.7903  0.2509
  321MOL0     C43239   0.226   6.569   7.068  0.4627 -0.5685  0.6013
  321MOL0     C43240   0.304   6.534   6.950 -0.6111  0.1966 -0.2620
  321MOL0     C43241   0.250   6.406   6.875 -1.0130 -0.0038 -1.3571
  321MOL0     C43242   0.373   6.340   6.814  0.2693 -0.8733  0.2659
  321MOL0     C43243   0.328   6.230   6.707  0.4690  0.2617  1.1058
  321MOL0    Cl43244   0.300   6.299   6.547  0.3499 -0.2648  0.0152
  321MOL0     C43245   0.608   6.796   7.543 -0.2739  0.3446 -0.4568
  321MOL0     C43246   0.620   6.872   7.657  0.3292 -0.5545 -1.2544
  321MOL0     O43247   0.524   7.155   7.768  0.7050 -0.3302  0.2573
  321MOL0     C43248   0.706   7.103   8.052 -0.4547  0.1250  0.8975
  321MOL0     C43249   0.762   7.166   8.164  0.0844  0.0751  0.2578
  321MOL0     N43250   1.079   7.091   8.627 -0.2690 -0.3217 -0.3277
  321MOL0     N43251   1.125   6.989   8.562  0.2372 -0.1539  0.7257
  321MOL0     C43252   0.765   6.184   7.515 -0.0937  0.6519 -0.1031
  321MOL0     C43253   0.679   6.098   7.453  0.8292  0.2555 -1.6533
  321MOL0     C43254   0.328   5.951   7.203 -0.2488  0.5813 -0.0477
  321MOL0     C43255   0.342   5.826   7.265 -0.5504  0.8988  0.2795
  321MOL0     C43256   0.253   5.721   7.248  0.4030  0.3592  0.1100
  321MOL0     C43257   0.148   5.734   7.158 -0.9121  0.0793 -0.2333
  321MOL0     O43258   0.048   5.650   7.160  0.4661 -0.0882 -0.7837
  321MOL0     C43259  -0.071   5.707   7.208  0.1029  0.0677 -0.6449
  321MOL0     C43260  -0.189   5.625   7.155 -0.3525  0.3614  0.0172
  321MOL0     C43261  -0.204   5.637   7.008  0.6262  0.4247  0.1429
  321MOL0     C43262  -0.274   5.770   6.971  0.0942 -0.8837  0.0364
  321MOL0     C43263  -0.420   5.766   6.984 -0.3449 -0.0342 -0.2759
  321MOL0     C43264  -0.537   5.757   6.997 -0.7844 -0.3925 -0.3991
  321MOL0     C43265   0.150   5.842   7.074 -0.0217  0.3936 -0.4759
  321MOL0     C43266   0.231   5.949   7.099 -0.2257 -0.1800  0.0304
  321MOL0     C43267   0.204   6.069   7.018  0.2826 -0.5737 -1.0220
  321MOL0     H43268   0.399   6.268   7.479  0.8301  2.1381  4.8659
  321MOL0     H43269   0.570   6.454   7.577  0.2411  0.7332 -0.3711
  321MOL0     H43270   0.816   6.593   7.574  1.6504  2.1139 -0.0393
  321MOL0     H43271   0.736   6.519   7.716  0.1349  1.0230  0.3068
  321MOL0     H43272   1.029   6.557   7.681  0.3035  0.4023  0.3509
  321MOL0     H43273   0.965   6.482   7.834  3.5183 -1.9976 -2.5725
  321MOL0     H43274   0.856   6.712   7.865  1.7295  0.2129  2.0352
  321MOL0     H43275   0.946   6.773   7.720  3.2811 -2.2570 -1.7477
  321MOL0     H43276   1.100   6.633   7.937  0.2270  0.3188  1.5751
  321MOL0     H43277   1.158   6.762   7.838  0.2676 -2.1473  0.1935
  321MOL0     H43278   0.972   6.903   7.992 -1.6522 -1.8048 -1.2875
  321MOL0     H43279   0.962   6.769   8.086 -1.4180 -0.1685  0.6009
  321MOL0     H43280   1.216   6.772   8.136 -0.8331  0.4744  0.3246
  321MOL0     H43281   1.237   6.922   8.048  0.6409 -0.5527  1.7115
  321MOL0     H43282   1.033   6.904   8.260  0.1348 -2.5159  0.6252
  321MOL0     H43283   1.092   7.043   8.176  0.3148  1.1330  1.2354
  321MOL0     H43284   1.262   6.858   8.367 -0.7145  0.3144  0.7780
  321MOL0     H43285   1.317   7.012   8.295 -0.5794  0.4205  0.4851
  321MOL0     H43286   1.201   7.248   8.377 -2.1759  0.5519 -0.2942
  321MOL0     H43287   1.068   7.351   8.707 -2.5531 -3.8671  0.2955
  321MOL0     H43288   1.202   7.388   8.594  0.0975 -0.8792  0.2671
  321MOL0     H43289   1.042   7.541   8.515 -3.9154  1.9118 -3.4207
  321MOL0     H43290   1.061   7.422   8.409 -0.5671  1.9955 -1.1698
  321MOL0     H43291   0.792   7.498   8.493  0.2281  0.2423  2.9292
  321MOL0     H43292   0.831   7.378   8.608 -4.9468  0.7764 -0.9379
  321MOL0     H43293   0.713   7.272   8.455 -0.8206  2.8121 -0.8493
  321MOL0     H43294   0.880   7.214   8.409  0.6849  0.1691  1.3910
  321MOL0     H43295   0.596   7.453   8.150 -0.5597 -0.1932  0.1615
  321MOL0     H43296   0.477   7.343   7.973 -1.6350  1.3337  2.4200
  321MOL0     H43297   0.329   6.838   7.821 -1.8867 -0.7350 -1.3833
  321MOL0     H43298   0.293   6.671   7.637  0.3420 -1.0327  3.3619
  321MOL0     H43299   0.263   6.575   7.449 -0.1831  1.5653  2.3684
  321MOL0     H43300   0.306   6.713   7.338 -1.8834 -0.8614  0.0046
  321MOL0     H43301   0.443   6.575   7.211 -0.0612 -0.6145 -1.1958
  321MOL0     H43302   0.403   6.435   7.312 -2.3407 -1.7376 -0.0629
  321MOL0     H43303   0.262   6.387   7.161  1.8074  1.1759  0.6433
  321MOL0     H43304   0.152   6.498   7.253  0.4893  1.4331  2.3033
  321MOL0     H43305   0.265   6.667   7.097  0.5239 -1.2945  3.1660
  321MOL0     H43306   0.117   6.576   7.059  0.4270  0.3937  1.6030
  321MOL0     H43307   0.409   6.515   6.976 -0.9017 -0.1848  0.6751
  321MOL0     H43308   0.304   6.613   6.875  2.6818 -0.8361 -1.5346
  321MOL0     H43309   0.197   6.341   6.945 -2.6768  1.8432 -0.7915
  321MOL0     H43310   0.173   6.443   6.807 -2.3267  0.8492  0.5189
  321MOL0     H43311   0.413   6.280   6.896  2.4460 -1.2973 -1.0274
  321MOL0     H43312   0.451   6.405   6.773  0.2690 -0.9937  0.0748
  321MOL0     H43313   0.402   6.151   6.694 -0.6108 -1.2314  3.3650
  321MOL0     H43314   0.242   6.181   6.754 -0.2096  1.0743  0.7391
  321MOL0     H43315   0.693   6.778   7.477  2.8166  1.0968  3.0052
  321MOL0     H43316   0.717   6.913   7.683 -0.9807  0.4193  2.9682
  321MOL0     H43317   0.733   7.007   8.008 -1.5129  0.3822 -0.3625
  321MOL0     H43318   0.822   7.098   8.223 -0.0979 -1.4960 -1.2920
  321MOL0     H43319   0.861   6.151   7.553  1.2253  2.8464 -1.3312
  321MOL0     H43320   0.705   5.998   7.421 -0.4376 -0.7001  0.0745
  321MOL0     H43321   0.416   5.817   7.344 -1.6279 -1.4878  1.0888
  321MOL0     H43322   0.238   5.634   7.312  1.3635  0.5461  0.6110
  321MOL0     H43323  -0.088   5.814   7.192  1.0512  0.2214 -0.6388
  321MOL0     H43324  -0.065   5.686   7.315  3.5908  3.6576  0.0573
  321MOL0     H43325  -0.285   5.651   7.201  0.2351  0.8311  1.0321
  321MOL0     H43326  -0.171   5.521   7.183 -0.1304  0.9449  2.2894
  321MOL0     H43327  -0.266   5.551   6.980  0.8264  0.1198  0.6223
  321MOL0     H43328  -0.107   5.627   6.958 -0.0864  1.6986 -1.6012
  321MOL0     H43329  -0.244   5.862   7.022 -3.1309  1.0815 -1.2949
  321MOL0     H43330  -0.256   5.791   6.865 -1.5986 -0.0422 -0.1316
  321MOL0     H43331  -0.641   5.732   7.006 -0.1008 -2.7910  2.1192
  321MOL0     H43332   0.065   5.854   7.007  0.1234 -0.5915 -0.8568
  321MOL0     H43333   0.300   6.115   6.991 -0.1379  1.3356  0.5457
  321MOL0     H43334   0.158   6.045   6.922 -1.2337  0.3430 -0.5544
  321MOL0     H43335   0.153   6.151   7.069 -0.8534 -1.9387  0.1373
  322MOL0     O43336   6.310   5.787   3.674  0.7943 -0.4192  0.1278
  322MOL0     C43337   6.403   5.710   3.683 -0.1084 -0.5278  0.0109
  322MOL0     O43338   6.538   5.751   3.674 -1.0253  0.4835  0.0658
  322MOL0     C43339   6.577   5.880   3.653 -0.1598 -0.0586 -0.1744
  322MOL0     C43340   6.713   5.904   3.682  0.6605 -0.4876 -0.4072
  322MOL0     C43341   6.767   6.032   3.667  0.1966 -0.7769 -0.1360
  322MOL0     C43342   6.698   6.140   3.598  0.3828  0.2707 -0.0269
  322MOL0     O43343   6.739   6.263   3.566  0.3995  0.3119 -0.3383
  322MOL0     C43344   6.858   6.309   3.621 -0.1042  0.0455 -1.1589
  322MOL0     C43345   6.971   6.271   3.523 -0.1863 -0.0186 -0.1701
  322MOL0     C43346   7.102   6.272   3.606 -0.0295 -0.2890  0.6563
  322MOL0     C43347   7.165   6.413   3.591  0.0200  0.3003 -0.2007
  322MOL0     C43348   7.282   6.431   3.685  0.5406 -1.3943  0.1100
  322MOL0     C43349   7.301   6.579   3.704  0.3043 -1.2960  0.5225
  322MOL0     C43350   7.448   6.616   3.759 -0.2630 -0.1996  0.1090
  322MOL0     C43351   7.497   6.538   3.881  0.4143  0.0989 -0.2869
  322MOL0     N43352   7.620   6.591   3.942  0.1384  1.2096  0.5619
  322MOL0     C43353   7.644   6.719   3.989  0.0203  0.5344  0.4152
  322MOL0     C43354   7.778   6.724   4.009 -0.0400  0.1827 -0.0760
  322MOL0     C43355   7.836   6.858   4.059 -0.0139 -0.1741 -0.9128
  322MOL0     C43356   7.933   6.815   4.172  0.2574 -0.7954  1.0741
  322MOL0     C43357   8.015   6.927   4.233 -0.5650 -1.0276 -0.2472
  322MOL0     C43358   8.085   6.881   4.354 -1.2779 -0.2359  0.0219
  322MOL0     O43359   8.194   6.798   4.322  0.5162 -0.0220 -0.8959
  322MOL0     C43360   8.300   6.862   4.265  0.1746 -0.8831 -0.5135
  322MOL0     C43361   8.338   6.994   4.291  1.1654 -0.6718 -0.1127
  322MOL0     C43362   8.444   7.053   4.236  0.3119 -0.2535 -0.5648
  322MOL0     C43363   8.539   6.981   4.169  0.5077  0.7410 -0.6881
  322MOL0     C43364   8.654   7.053   4.113 -0.3144 -0.4753  1.5976
  322MOL0     O43365   8.749   6.971   4.056  0.1883 -0.6823 -0.4650
  322MOL0     C43366   8.849   7.035   3.987 -0.0081 -0.4587 -0.1851
  322MOL0     C43367   8.949   7.095   4.057  0.0636  0.4406  0.3751
  322MOL0     C43368   9.059   7.153   3.988 -0.1760  0.8111 -0.0753
  322MOL0     C43369   9.065   7.150   3.846  0.4448  0.5245 -0.1975
  322MOL0     O43370   9.170   7.205   3.776  0.0541  0.1119 -0.3680
  322MOL0     C43371   9.144   7.246   3.644 -0.8024 -0.0922  0.5324
  322MOL0     C43372   9.230   7.372   3.617 -0.1039  0.1520 -0.2493
  322MOL0     C43373   9.374   7.363   3.660  0.1328 -0.2286 -0.0579
  322MOL0     C43374   9.452   7.245   3.591  1.4702  0.2830  0.3692
  322MOL0     C43375   9.601   7.233   3.627  0.0236 -1.0003 -0.0858
  322MOL0     C43376   9.691   7.343   3.561  0.5687 -0.3017 -0.4885
  322MOL0     C43377   9.835   7.354   3.627  0.3416 -0.3369 -0.7658
  322MOL0     C43378   9.924   7.453   3.554 -0.6579 -0.3153 -0.0629
  322MOL0    Cl43379  10.087   7.466   3.628 -0.0794 -0.1573  0.0213
  322MOL0     C43380   8.961   7.086   3.776  0.9074  0.9351 -0.6275
  322MOL0     C43381   8.853   7.028   3.848 -0.2114 -1.1463  1.2468
  322MOL0     O43382   8.650   7.176   4.097 -0.1355 -0.1113  0.3073
  322MOL0     C43383   8.506   6.847   4.142  0.3695 -0.6951  0.6369
  322MOL0     C43384   8.396   6.788   4.195  1.8597  0.1833  0.1468
  322MOL0     N43385   7.823   6.599   3.991  0.3570  0.6182  0.2871
  322MOL0     N43386   7.736   6.509   3.960  0.9611  0.5038  0.4876
  322MOL0     C43387   6.567   6.102   3.549  0.0164 -0.6936 -0.7399
  322MOL0     C43388   6.508   5.979   3.581  0.4611 -0.2197 -0.8368
  322MOL0     C43389   6.374   5.573   3.694  0.5394  0.6041  1.0395
  322MOL0     C43390   6.463   5.491   3.623  0.1249 -0.6206 -1.3988
  322MOL0     C43391   6.454   5.353   3.636 -0.6922 -0.3120 -0.4416
  322MOL0     C43392   6.354   5.285   3.702 -0.0749  0.9374 -0.4113
  322MOL0     O43393   6.350   5.145   3.724  0.4352  0.2217  0.9930
  322MOL0     C43394   6.376   5.069   3.601  0.5306  0.1892  0.4205
  322MOL0     C43395   6.477   4.949   3.650  0.2146 -0.2781  0.2469
  322MOL0     C43396   6.414   4.859   3.764 -0.1095 -1.0245 -0.1386
  322MOL0     C43397   6.519   4.766   3.814  0.3379  0.1313  0.9288
  322MOL0     C43398   6.473   4.700   3.930 -0.3865  0.3476 -0.5010
  322MOL0     C43399   6.441   4.657   4.036 -0.3425  0.6592  0.3483
  322MOL0     C43400   6.264   5.363   3.767  0.5294 -0.7088  0.3923
  322MOL0     C43401   6.270   5.512   3.766  0.0283  1.2163  0.1726
  322MOL0     C43402   6.145   5.568   3.821  1.1120 -1.2729 -0.0131
  322MOL0     H43403   6.758   5.812   3.721 -0.8324 -1.2198 -0.3556
  322MOL0     H43404   6.872   6.047   3.692 -0.0028 -0.1535  0.3519
  322MOL0     H43405   6.846   6.417   3.636 -1.6273 -0.3875  1.3683
  322MOL0     H43406   6.858   6.267   3.722 -4.1946  0.7515 -0.6720
  322MOL0     H43407   6.973   6.340   3.438  2.0700  2.5198  1.7369
  322MOL0     H43408   6.952   6.167   3.497  0.4016 -0.1556 -0.0651
  322MOL0     H43409   7.172   6.195   3.572 -2.1728 -1.9448 -0.2242
  322MOL0     H43410   7.083   6.243   3.710 -3.3540 -1.5895 -0.1710
  322MOL0     H43411   7.194   6.422   3.486  0.8551  2.3799  0.1473
  322MOL0     H43412   7.096   6.496   3.608  0.3769  0.6949 -0.6512
  322MOL0     H43413   7.287   6.368   3.775 -1.8351 -1.3851  0.3053
  322MOL0     H43414   7.373   6.395   3.637 -0.5428 -3.2038 -0.6765
  322MOL0     H43415   7.294   6.624   3.605  1.0967 -2.4846 -0.0926
  322MOL0     H43416   7.223   6.612   3.774  1.3009 -1.4124  1.7195
  322MOL0     H43417   7.450   6.722   3.788  1.0628 -0.4352  0.9734
  322MOL0     H43418   7.511   6.586   3.675 -0.7552  0.7989 -0.6396
  322MOL0     H43419   7.416   6.517   3.952  0.8413 -1.7532 -0.2871
  322MOL0     H43420   7.533   6.441   3.845  1.9551  0.5898 -0.1271
  322MOL0     H43421   7.572   6.798   4.008 -1.4698 -0.5780 -0.4119
  322MOL0     H43422   7.883   6.906   3.973 -2.7277  0.1387 -2.3107
  322MOL0     H43423   7.763   6.928   4.100 -1.2225 -1.9365  0.0642
  322MOL0     H43424   7.888   6.761   4.255  1.6420  2.5561  4.2514
  322MOL0     H43425   8.005   6.746   4.126  0.2862 -0.2712  0.3163
  322MOL0     H43426   7.951   7.015   4.246 -2.7241 -2.1944 -2.1851
  322MOL0     H43427   8.096   6.959   4.168  1.0362 -0.3496  1.9790
  322MOL0     H43428   8.014   6.830   4.419  1.3908 -1.5776  2.1124
  322MOL0     H43429   8.113   6.960   4.424 -0.5213 -2.4714  2.4403
  322MOL0     H43430   8.277   7.060   4.352  4.2637  0.4743  1.9474
  322MOL0     H43431   8.448   7.159   4.258  0.7617 -0.1541 -1.0781
  322MOL0     H43432   8.943   7.097   4.165  1.6882 -3.8239  0.7659
  322MOL0     H43433   9.142   7.191   4.047 -1.5209 -0.5289  2.8784
  322MOL0     H43434   9.175   7.166   3.576  0.1969  1.5882 -1.0743
  322MOL0     H43435   9.042   7.280   3.620 -0.7274 -1.4185 -2.0312
  322MOL0     H43436   9.213   7.399   3.513 -3.4980  3.4669  0.9304
  322MOL0     H43437   9.191   7.459   3.670  1.5417  0.4262  0.5659
  322MOL0     H43438   9.419   7.458   3.630  2.4015 -0.6970  1.5753
  322MOL0     H43439   9.386   7.356   3.768 -1.5025  0.2045  0.1815
  322MOL0     H43440   9.425   7.245   3.485 -0.2860 -0.4858  0.7859
  322MOL0     H43441   9.404   7.155   3.631  0.3492  0.7045  0.0056
  322MOL0     H43442   9.638   7.143   3.577  2.5741  0.0454 -0.2301
  322MOL0     H43443   9.612   7.236   3.736 -1.5115 -1.9431  0.1210
  322MOL0     H43444   9.697   7.317   3.455  1.7389  1.0349 -0.7765
  322MOL0     H43445   9.645   7.441   3.579  2.5576  1.1994 -2.9503
  322MOL0     H43446   9.883   7.255   3.630 -0.5891 -0.7853  2.0636
  322MOL0     H43447   9.811   7.386   3.728 -2.4730  1.4208 -1.8630
  322MOL0     H43448   9.944   7.413   3.454 -1.4804 -1.6545  0.2762
  322MOL0     H43449   9.877   7.551   3.545  0.1738  0.0388 -0.6135
  322MOL0     H43450   8.971   7.077   3.668 -0.5450  0.1887 -0.7232
  322MOL0     H43451   8.780   6.963   3.800 -1.0148  0.2651  0.5043
  322MOL0     H43452   8.562   6.772   4.087  3.9653 -1.8665  5.2784
  322MOL0     H43453   8.381   6.680   4.191  0.9467  0.3199 -0.4350
  322MOL0     H43454   6.504   6.170   3.492 -2.8468 -0.6823  2.1695
  322MOL0     H43455   6.405   5.972   3.548 -0.1893  2.6691  0.2459
  322MOL0     H43456   6.538   5.541   3.562  1.0275  0.1603  0.2770
  322MOL0     H43457   6.533   5.297   3.587 -0.4234 -1.1929  0.9425
  322MOL0     H43458   6.417   5.122   3.515 -1.1821 -0.5082 -0.8855
  322MOL0     H43459   6.292   5.017   3.555 -0.1799  3.1816 -1.9154
  322MOL0     H43460   6.565   5.004   3.685  0.9611  0.5105 -2.5851
  322MOL0     H43461   6.506   4.880   3.570 -3.0046  0.6088 -1.8844
  322MOL0     H43462   6.326   4.804   3.730 -0.1684 -0.3780 -1.0691
  322MOL0     H43463   6.382   4.918   3.851  0.3296 -2.0498  0.7431
  322MOL0     H43464   6.530   4.682   3.744 -1.8739 -0.5244  1.3186
  322MOL0     H43465   6.619   4.806   3.834  0.0826  1.3176 -0.0650
  322MOL0     H43466   6.417   4.627   4.136 -2.3274  1.5568  0.1758
  322MOL0     H43467   6.174   5.316   3.808  0.6808 -2.7579 -1.4598
  322MOL0     H43468   6.168   5.664   3.869 -0.4128 -0.6134 -0.5026
  322MOL0     H43469   6.068   5.596   3.748  0.2688 -0.1345  1.2715
  322MOL0     H43470   6.112   5.507   3.905 -0.0803  1.1214  1.3698
  323MOL0     O43471  11.334   0.415   0.644 -0.0483  0.1581 -0.0900
  323MOL0     C43472  11.294   0.498   0.721 -0.1423 -0.2902 -0.6106
  323MOL0     O43473  11.277   0.481   0.860  0.5218  0.4974  0.3216
  323MOL0     C43474  11.258   0.348   0.894  0.4050  0.4956 -0.9295
  323MOL0     C43475  11.129   0.312   0.931 -0.1972 -0.7445  0.1477
  323MOL0     C43476  11.109   0.189   0.983  0.8082  0.1912  0.0761
  323MOL0     C43477  11.212   0.093   0.996  0.4708  0.0757  0.5306
  323MOL0     O43478  11.198  -0.037   1.048 -0.6248  0.0224  0.8234
  323MOL0     C43479  11.099  -0.121   0.985 -0.1761  0.8592 -1.5543
  323MOL0     C43480  11.086  -0.262   1.053  0.0870  0.0772  0.8833
  323MOL0     C43481  10.947  -0.288   1.122  0.6832 -0.1447  0.6629
  323MOL0     C43482  10.900  -0.186   1.230  0.3606 -0.4104  0.1411
  323MOL0     C43483  10.778  -0.234   1.299  0.2686  0.7423 -0.2367
  323MOL0     C43484  10.653  -0.243   1.213 -0.8730 -0.6004 -0.9312
  323MOL0     C43485  10.520  -0.280   1.279  0.4520  0.4432  0.4043
  323MOL0     C43486  10.464  -0.166   1.372 -0.2551  0.2352 -0.1134
  323MOL0     N43487  10.423  -0.050   1.291 -0.4719 -0.1146  0.7136
  323MOL0     C43488  10.294  -0.034   1.248 -0.1817  0.6714 -0.3261
  323MOL0     C43489  10.295   0.075   1.170  0.0272 -0.6033  0.1233
  323MOL0     C43490  10.188   0.138   1.092  0.0488 -0.4981 -0.1478
  323MOL0     C43491  10.205   0.148   0.941 -0.3057  0.0803  0.6211
  323MOL0     C43492  10.221   0.005   0.881 -0.2943 -0.3317  0.4056
  323MOL0     C43493  10.087  -0.073   0.861  0.7833  0.0160  0.8099
  323MOL0     O43494  10.020   0.005   0.754  0.2626  0.6380 -0.5932
  323MOL0     C43495  10.045  -0.010   0.617 -1.8178  0.2091 -0.3899
  323MOL0     C43496   9.998   0.091   0.534  0.7629 -0.1562 -0.1298
  323MOL0     C43497  10.022   0.104   0.394  0.0244  0.9693 -1.0359
  323MOL0     C43498  10.100  -0.003   0.334 -0.1216 -0.6174 -0.9249
  323MOL0     C43499  10.129   0.005   0.195 -0.6399 -0.1120  0.3652
  323MOL0     O43500  10.078   0.112   0.131  0.3945 -0.2676  0.1112
  323MOL0     C43501  10.108   0.117  -0.000  0.3704  0.7064 -0.6028
  323MOL0     C43502  10.052   0.026  -0.093 -0.0293  0.1710 -0.4035
  323MOL0     C43503  10.075   0.042  -0.230  0.0277 -0.3834 -0.6639
  323MOL0     C43504  10.156   0.144  -0.271 -0.3426 -0.4184 -0.5581
  323MOL0     O43505  10.206   0.141  -0.398 -0.2727  0.3080 -0.5493
  323MOL0     C43506  10.158   0.056  -0.505  0.0193  0.3211  0.3523
  323MOL0     C43507  10.214   0.093  -0.648  0.6432  0.0323 -0.1709
  323MOL0     C43508  10.154   0.233  -0.690  0.2465  0.3862  0.3098
  323MOL0     C43509  10.146   0.259  -0.838 -0.1593  0.1534 -0.4935
  323MOL0     C43510  10.041   0.179  -0.901  0.0097  0.6374  0.3278
  323MOL0     C43511  10.074   0.149  -1.047 -0.1024  0.6329  0.1764
  323MOL0     C43512  10.093   0.277  -1.136 -0.9279  0.4567 -0.6082
  323MOL0     C43513  10.081   0.238  -1.275  0.2354  0.5179 -0.3921
  323MOL0    Cl43514   9.930   0.153  -1.321  0.1796  0.0956 -0.4891
  323MOL0     C43515  10.202   0.238  -0.187 -0.2773 -0.5482 -0.8224
  323MOL0     C43516  10.182   0.226  -0.048 -0.1297  0.2281 -1.2996
  323MOL0     O43517  10.189  -0.084   0.133  0.4335  0.0973  0.2022
  323MOL0     C43518  10.148  -0.102   0.426  1.2712  0.2020 -0.4723
  323MOL0     C43519  10.123  -0.116   0.561  0.5341 -0.3342 -0.6865
  323MOL0     N43520  10.421   0.123   1.163  0.3549  0.3227 -0.3348
  323MOL0     N43521  10.495   0.063   1.260 -0.1986 -1.1296 -0.1321
  323MOL0     C43522  11.338   0.134   0.965  0.3767  0.2363  0.0785
  323MOL0     C43523  11.360   0.257   0.913 -0.6682  0.7468 -0.0969
  323MOL0     C43524  11.263   0.635   0.670 -0.3858  0.0466  0.4090
  323MOL0     C43525  11.261   0.655   0.524 -0.8619  0.1593 -1.0380
  323MOL0     C43526  11.251   0.788   0.474 -0.1625  0.9382  0.3430
  323MOL0     C43527  11.209   0.891   0.555  0.3478  0.7451  0.1590
  323MOL0     O43528  11.187   1.008   0.483  0.6384 -0.5966  0.4632
  323MOL0     C43529  11.068   1.083   0.521 -0.1090 -0.1255  0.0534
  323MOL0     C43530  10.948   1.030   0.443 -0.4493  0.0988  0.6322
  323MOL0     C43531  10.874   1.144   0.361  0.3603 -0.6651 -0.3305
  323MOL0     C43532  10.753   1.083   0.292 -0.6612 -0.3217 -0.0022
  323MOL0     C43533  10.808   1.007   0.169 -0.0493  0.3250 -0.6392
  323MOL0     C43534  10.848   0.934   0.084 -0.5244 -0.6033 -0.3625
  323MOL0     C43535  11.204   0.872   0.698  0.7410 -0.4832 -0.3097
  323MOL0     C43536  11.234   0.747   0.753 -0.2637  0.4347  0.6269
  323MOL0     C43537  11.226   0.755   0.901  0.1522 -0.4137 -0.2869
  323MOL0     H43538  11.065   0.400   0.937  1.5329  0.6881 -1.2618
  323MOL0     H43539  11.015   0.166   1.031  2.4416 -1.8744  2.6129
  323MOL0     H43540  10.998  -0.079   0.972 -0.2038  2.2203  2.1035
  323MOL0     H43541  11.145  -0.143   0.888  2.4902  0.0770 -0.2000
  323MOL0     H43542  11.163  -0.277   1.129  0.0467 -2.4838  0.5152
  323MOL0     H43543  11.108  -0.337   0.976  0.3501  1.8495 -0.8637
  323MOL0     H43544  10.946  -0.389   1.164 -0.5082 -1.9884 -3.3050
  323MOL0     H43545  10.877  -0.291   1.038  2.1791 -0.7854 -0.6167
  323MOL0     H43546  10.980  -0.158   1.299 -0.9053  1.2545  1.0060
  323MOL0     H43547  10.879  -0.090   1.181 -2.0273 -1.5746 -1.2590
  323MOL0     H43548  10.785  -0.332   1.347 -1.1229 -0.9696 -3.2778
  323MOL0     H43549  10.748  -0.164   1.378  0.0299 -1.1687  1.4676
  323MOL0     H43550  10.629  -0.156   1.151 -0.0358  1.9129  1.9821
  323MOL0     H43551  10.681  -0.322   1.143  0.1561 -1.8347  0.7665
  323MOL0     H43552  10.538  -0.374   1.330  1.1064 -0.5965 -1.6400
  323MOL0     H43553  10.441  -0.288   1.203 -0.7492  1.3959  1.5078
  323MOL0     H43554  10.374  -0.198   1.427 -2.6697  2.3567 -2.5257
  323MOL0     H43555  10.535  -0.143   1.451  0.7938 -1.9183 -0.3573
  323MOL0     H43556  10.212  -0.104   1.263  1.8907 -1.3218  3.0759
  323MOL0     H43557  10.094   0.086   1.112 -0.0671  0.8308  3.6991
  323MOL0     H43558  10.191   0.234   1.144 -0.3472 -1.5658  1.9662
  323MOL0     H43559  10.114   0.193   0.900 -0.7472 -1.0142  0.3589
  323MOL0     H43560  10.290   0.215   0.927 -0.4052  0.7699  2.8723
  323MOL0     H43561  10.297  -0.058   0.927 -3.1219 -2.6998  2.2391
  323MOL0     H43562  10.258   0.024   0.780 -1.5337 -2.0135 -0.4118
  323MOL0     H43563  10.032  -0.087   0.955 -0.6114 -2.6422 -0.2914
  323MOL0     H43564  10.105  -0.173   0.822  1.3313 -0.0042  1.1009
  323MOL0     H43565   9.956   0.181   0.577 -0.6166  0.8438 -3.2750
  323MOL0     H43566   9.975   0.185   0.340  2.4601  2.2335 -1.3842
  323MOL0     H43567   9.990  -0.052  -0.050 -0.1733  0.1011 -0.7322
  323MOL0     H43568  10.027  -0.028  -0.298 -0.5718 -0.5956 -0.0370
  323MOL0     H43569  10.181  -0.048  -0.479  0.0454  0.3220  0.3355
  323MOL0     H43570  10.049   0.065  -0.516  0.2393  1.1121 -1.5578
  323MOL0     H43571  10.323   0.080  -0.654  0.5435 -0.1285 -2.1689
  323MOL0     H43572  10.177   0.018  -0.718 -2.9813  3.3465 -2.1973
  323MOL0     H43573  10.054   0.253  -0.650 -1.0813  0.4831 -2.7774
  323MOL0     H43574  10.233   0.299  -0.653  0.7943 -0.2883  0.3648
  323MOL0     H43575  10.247   0.228  -0.868  0.4829 -1.2132  2.6732
  323MOL0     H43576  10.153   0.367  -0.855  1.0317  0.1048 -0.4254
  323MOL0     H43577   9.946   0.231  -0.885 -0.9758 -1.3377  1.2172
  323MOL0     H43578  10.032   0.079  -0.857  2.0276  0.5848  0.7205
  323MOL0     H43579  10.168   0.093  -1.044 -0.7717 -0.6218 -1.3360
  323MOL0     H43580  10.004   0.071  -1.077  2.2247 -1.9658  1.0778
  323MOL0     H43581  10.191   0.319  -1.116 -1.0702  0.7990 -0.6223
  323MOL0     H43582  10.017   0.353  -1.116 -1.7759 -0.8200  1.2916
  323MOL0     H43583  10.102   0.323  -1.340  1.8528  0.7233  0.3402
  323MOL0     H43584  10.162   0.165  -1.283 -0.2137 -0.2292  1.3543
  323MOL0     H43585  10.268   0.314  -0.227  0.9896 -1.0964  0.1516
  323MOL0     H43586  10.219   0.300   0.022 -0.1835 -2.0287  1.2635
  323MOL0     H43587  10.212  -0.182   0.390  1.4271  0.9814 -1.9987
  323MOL0     H43588  10.158  -0.212   0.596 -0.1349 -1.5090 -3.0283
  323MOL0     H43589  11.415   0.058   0.964 -0.5411 -0.7538 -1.4233
  323MOL0     H43590  11.462   0.285   0.886 -0.8540  1.0500 -0.5038
  323MOL0     H43591  11.294   0.573   0.460  2.1047  0.6098 -0.2133
  323MOL0     H43592  11.257   0.803   0.367 -3.0861 -2.5125 -0.4849
  323MOL0     H43593  11.088   1.187   0.496  0.5696  0.3395  2.3134
  323MOL0     H43594  11.043   1.073   0.627 -2.3539  0.6378 -0.3398
  323MOL0     H43595  10.879   0.975   0.508 -0.7352  0.3057  0.5114
  323MOL0     H43596  10.990   0.949   0.384  4.0851 -1.1149  4.8879
  323MOL0     H43597  10.937   1.205   0.296 -0.9917 -0.0212 -1.0822
  323MOL0     H43598  10.841   1.227   0.424 -0.2489 -0.2061 -1.2228
  323MOL0     H43599  10.698   1.014   0.358  0.2835 -0.5984  0.5159
  323MOL0     H43600  10.677   1.158   0.270  0.3281  0.1950 -1.8199
  323MOL0     H43601  10.884   0.848   0.031  2.2934 -0.2644  0.8359
  323MOL0     H43602  11.176   0.956   0.761  2.1983 -0.1246 -0.1041
  323MOL0     H43603  11.135   0.703   0.932 -2.7222  5.2584  2.2464
  323MOL0     H43604  11.315   0.701   0.935 -0.3170  0.1072  1.9050
  323MOL0     H43605  11.227   0.852   0.950  1.0023  0.1605 -1.3706
  324MOL0     O43606   8.942  11.007   3.256  0.3057 -0.4085  0.0454
  324MOL0     C43607   8.916  11.014   3.377 -0.2121 -0.3414  0.3553
  324MOL0     O43608   9.005  11.049   3.478 -0.2048  0.3427 -0.3112
  324MOL0     C43609   9.133  11.085   3.441 -0.1351 -0.0861  1.5186
  324MOL0     C43610   9.158  11.222   3.426 -0.0824  0.3437 -0.6262
  324MOL0     C43611   9.292  11.266   3.410 -0.2977  0.5657 -0.0632
  324MOL0     C43612   9.388  11.164   3.365  0.0113  0.1847 -0.8768
  324MOL0     O43613   9.516  11.186   3.338 -0.7279 -0.3994  0.6895
  324MOL0     C43614   9.581  11.279   3.430 -0.1570 -0.1949 -0.1163
  324MOL0     C43615   9.682  11.372   3.365  0.0192  0.3895 -0.1391
  324MOL0     C43616   9.613  11.494   3.319 -0.0999  0.6458  0.3207
  324MOL0     C43617   9.733  11.560   3.248  0.3902  0.3833 -0.2459
  324MOL0     C43618   9.694  11.701   3.218 -0.0597 -0.2417 -0.6633
  324MOL0     C43619   9.794  11.791   3.135  0.0801  0.0488 -0.3371
  324MOL0     C43620   9.841  11.743   3.002  0.0685 -0.5689  1.2015
  324MOL0     C43621   9.723  11.697   2.914 -0.4157  0.0308  0.2969
  324MOL0     N43622   9.621  11.807   2.888  0.3228 -0.4291  1.2459
  324MOL0     C43623   9.635  11.878   2.769  1.3019  0.3678 -0.1209
  324MOL0     C43624   9.507  11.936   2.753 -0.2441  0.0797  0.1764
  324MOL0     C43625   9.462  12.007   2.630 -0.5524 -0.1310  0.5917
  324MOL0     C43626   9.460  11.919   2.502 -0.6501  0.4015  0.6901
  324MOL0     C43627   9.368  11.803   2.502  0.2764  0.1244 -0.3797
  324MOL0     C43628   9.394  11.712   2.389 -0.0593  0.2668  0.3011
  324MOL0     O43629   9.514  11.629   2.429 -0.4340 -0.2436 -0.3526
  324MOL0     C43630   9.519  11.493   2.405 -0.1300  0.4558 -0.3061
  324MOL0     C43631   9.590  11.415   2.501  0.5579 -0.6757 -0.5291
  324MOL0     C43632   9.596  11.285   2.487  0.4672  0.6289 -0.1498
  324MOL0     C43633   9.540  11.218   2.372 -0.2581  0.1532  0.3700
  324MOL0     C43634   9.564  11.069   2.361  0.1794 -0.7978 -0.0837
  324MOL0     O43635   9.470  11.003   2.298  0.3840  0.7621 -0.1164
  324MOL0     C43636   9.510  10.873   2.259  0.1423  0.0273  0.9537
  324MOL0     C43637   9.423  10.761   2.295  0.2258 -0.2117  0.5887
  324MOL0     C43638   9.455  10.631   2.259 -0.2994 -0.4507 -0.2802
  324MOL0     C43639   9.557  10.608   2.169 -0.1094 -1.0138  0.6507
  324MOL0     O43640   9.557  10.487   2.104 -0.4763  0.2577 -0.1884
  324MOL0     C43641   9.680  10.447   2.033 -0.1805 -0.3116  0.0245
  324MOL0     C43642   9.676  10.295   2.019 -0.1719 -0.5476  0.4063
  324MOL0     C43643   9.807  10.254   1.969 -0.6733 -0.2475 -0.3468
  324MOL0     C43644   9.789  10.148   1.869  0.4067  1.1303 -0.6800
  324MOL0     C43645   9.916  10.059   1.867  0.4083  0.5670  0.9396
  324MOL0     C43646   9.901   9.932   1.782 -0.1041 -0.1766 -0.3799
  324MOL0     C43647   9.841   9.938   1.642 -0.0399  0.9024 -0.8169
  324MOL0     C43648   9.887  10.052   1.546  0.0081 -0.5385  0.6229
  324MOL0    Cl43649   9.741  10.087   1.444 -0.1338 -0.1000 -0.1886
  324MOL0     C43650   9.645  10.710   2.138  0.4460  0.0672  0.4334
  324MOL0     C43651   9.619  10.843   2.174 -0.8013 -0.3647  0.5022
  324MOL0     O43652   9.656  11.025   2.429  0.2003 -0.0536 -0.2755
  324MOL0     C43653   9.459  11.289   2.287  0.3211  0.5001  0.0033
  324MOL0     C43654   9.453  11.429   2.295  0.0027  0.7852 -0.2263
  324MOL0     N43655   9.427  11.893   2.856 -0.6089  0.0231 -1.1455
  324MOL0     N43656   9.493  11.813   2.929 -0.2670 -0.2862 -0.1598
  324MOL0     C43657   9.351  11.030   3.361 -0.3485  0.6992  0.2752
  324MOL0     C43658   9.225  10.989   3.404 -0.6248  1.2404 -0.2203
  324MOL0     C43659   8.776  10.956   3.410 -1.0891 -0.3115  0.3159
  324MOL0     C43660   8.703  10.897   3.302 -0.0976 -0.5387  0.1024
  324MOL0     C43661   8.575  10.847   3.320 -0.7530  0.4988 -0.5762
  324MOL0     C43662   8.508  10.843   3.445  0.3158 -0.1952  0.6129
  324MOL0     O43663   8.382  10.789   3.445  0.4016  0.4901 -0.3047
  324MOL0     C43664   8.300  10.823   3.565 -0.0902 -0.3096  0.3569
  324MOL0     C43665   8.158  10.773   3.518  0.2270  0.1734 -0.1226
  324MOL0     C43666   8.147  10.622   3.531 -0.4530  0.5585 -0.3466
  324MOL0     C43667   8.069  10.571   3.664 -0.1772  0.0759  0.6422
  324MOL0     C43668   7.922  10.572   3.637  0.6081  0.5330 -0.5087
  324MOL0     C43669   7.795  10.574   3.606  0.3446  0.1828 -1.1554
  324MOL0     C43670   8.581  10.897   3.552 -0.5110 -0.0282  0.2243
  324MOL0     C43671   8.708  10.942   3.538  0.7739  0.0557 -0.1199
  324MOL0     C43672   8.786  10.990   3.660  0.4734  0.3242  0.1284
  324MOL0     H43673   9.080  11.293   3.449  1.4596  2.2720 -1.1226
  324MOL0     H43674   9.318  11.372   3.407 -0.4929  0.6230 -2.8530
  324MOL0     H43675   9.515  11.331   3.501  1.4337  1.3902  0.3013
  324MOL0     H43676   9.649  11.217   3.490  1.0076  0.0035 -1.1958
  324MOL0     H43677   9.750  11.318   3.298  2.8357  0.0996  2.7285
  324MOL0     H43678   9.743  11.395   3.452 -0.6301  3.9959 -0.4544
  324MOL0     H43679   9.583  11.546   3.410  0.8799  0.4243  0.7875
  324MOL0     H43680   9.528  11.473   3.253 -0.4520  2.0551  0.2937
  324MOL0     H43681   9.817  11.546   3.315  0.4448  0.4665 -0.2961
  324MOL0     H43682   9.754  11.510   3.153 -2.6477  0.0857 -0.8640
  324MOL0     H43683   9.604  11.698   3.154 -1.7052 -0.3255  1.5387
  324MOL0     H43684   9.672  11.748   3.314 -1.5131 -1.1120 -0.5315
  324MOL0     H43685   9.749  11.890   3.118  0.7027  1.0373  3.0122
  324MOL0     H43686   9.878  11.810   3.202 -3.5108 -1.1563  5.3049
  324MOL0     H43687   9.901  11.654   3.021 -1.0552 -1.3279  1.2754
  324MOL0     H43688   9.914  11.808   2.953  0.1788 -2.4209 -1.3108
  324MOL0     H43689   9.770  11.677   2.817 -0.0680  1.6247  0.1086
  324MOL0     H43690   9.677  11.609   2.960  1.7860 -1.3881 -0.0277
  324MOL0     H43691   9.722  11.870   2.705 -0.0038 -1.1429 -1.8083
  324MOL0     H43692   9.367  12.059   2.637 -4.3132 -5.7531 -1.5960
  324MOL0     H43693   9.526  12.094   2.613 -2.2779  1.3046  1.1822
  324MOL0     H43694   9.426  11.980   2.418  0.9600 -0.3358 -0.5473
  324MOL0     H43695   9.568  11.904   2.489 -0.4900  1.4449  0.7140
  324MOL0     H43696   9.265  11.840   2.505  1.3917  3.6160  1.0146
  324MOL0     H43697   9.375  11.749   2.597 -1.6014  0.3353 -0.0834
  324MOL0     H43698   9.414  11.745   2.287 -0.5107 -3.5557 -1.1656
  324MOL0     H43699   9.303  11.651   2.394 -0.7148  1.0105 -1.6334
  324MOL0     H43700   9.645  11.475   2.572 -1.1070  1.8338 -1.2340
  324MOL0     H43701   9.651  11.227   2.560 -1.1672  0.3019  0.8575
  324MOL0     H43702   9.325  10.778   2.337 -0.0169  0.6366 -0.2664
  324MOL0     H43703   9.391  10.546   2.281 -1.6159 -0.4617 -3.5980
  324MOL0     H43704   9.681  10.481   1.929  1.2533 -1.0993 -0.2368
  324MOL0     H43705   9.773  10.474   2.082  0.9940 -2.4427 -0.9055
  324MOL0     H43706   9.659  10.244   2.114  0.7108  3.3436  2.8928
  324MOL0     H43707   9.590  10.274   1.956 -2.2976  2.7780  1.9454
  324MOL0     H43708   9.848  10.336   1.909  2.6129 -0.4407  1.3985
  324MOL0     H43709   9.859  10.233   2.063  0.7150 -0.6224 -1.1720
  324MOL0     H43710   9.774  10.194   1.771  0.2482  0.5119 -0.9450
  324MOL0     H43711   9.705  10.083   1.894 -0.7835  2.7157 -0.3740
  324MOL0     H43712   9.943  10.015   1.963 -1.7290 -3.2687 -0.0079
  324MOL0     H43713   9.995  10.121   1.824  1.3536 -0.6797  0.8455
  324MOL0     H43714  10.001   9.888   1.776 -0.1610 -1.0603  3.0768
  324MOL0     H43715   9.843   9.853   1.832  0.4064 -0.4158 -0.1559
  324MOL0     H43716   9.733   9.951   1.656  0.3321  6.2328 -0.9799
  324MOL0     H43717   9.873   9.843   1.600  3.2819  1.8503 -0.7281
  324MOL0     H43718   9.917  10.148   1.591  1.3290  0.8298 -2.8697
  324MOL0     H43719   9.970  10.013   1.487 -0.9230 -1.5268 -0.0588
  324MOL0     H43720   9.732  10.687   2.078 -1.7292 -4.4196 -1.4314
  324MOL0     H43721   9.687  10.924   2.149 -3.6828  2.0305 -0.0839
  324MOL0     H43722   9.400  11.239   2.211  0.1062  0.2643  0.3228
  324MOL0     H43723   9.398  11.474   2.212  2.7431  3.9228 -0.5308
  324MOL0     H43724   9.439  10.970   3.340 -0.4250  0.6466  0.0994
  324MOL0     H43725   9.205  10.882   3.410  2.9014  0.4109 -1.2525
  324MOL0     H43726   8.756  10.893   3.208  3.4884  3.5706  1.6098
  324MOL0     H43727   8.521  10.805   3.235 -0.1019  2.5871 -2.0828
  324MOL0     H43728   8.299  10.932   3.576  1.4651 -0.2743  0.3048
  324MOL0     H43729   8.325  10.766   3.655 -2.9586  0.9867  2.1330
  324MOL0     H43730   8.158  10.797   3.411 -0.2779  0.3883 -0.0721
  324MOL0     H43731   8.079  10.824   3.572 -2.1449 -1.7565 -1.5668
  324MOL0     H43732   8.249  10.586   3.545 -1.2211 -0.6615  2.9765
  324MOL0     H43733   8.111  10.570   3.441 -1.7729  3.2548 -1.4867
  324MOL0     H43734   8.111  10.473   3.687  3.3105  1.8684  2.7302
  324MOL0     H43735   8.089  10.636   3.749 -1.2684 -0.1715  1.1098
  324MOL0     H43736   7.692  10.580   3.579  0.7178 -0.4743 -2.8672
  324MOL0     H43737   8.528  10.884   3.646 -1.8375 -2.7108 -0.8092
  324MOL0     H43738   8.724  10.991   3.751 -1.2345  2.7539 -0.9520
  324MOL0     H43739   8.876  10.931   3.679  0.1015 -0.0463  0.8019
  324MOL0     H43740   8.816  11.092   3.637  4.3225 -0.9948 -1.4747
  325MOL0     O43741   4.594   1.373   1.770 -0.5202  0.2968 -0.5090
  325MOL0     C43742   4.538   1.460   1.840  1.1972  0.2151 -0.2216
  325MOL0     O43743   4.441   1.431   1.940  0.0799  0.0759  0.5670
  325MOL0     C43744   4.406   1.297   1.956 -0.8122  0.3832 -1.0540
  325MOL0     C43745   4.385   1.257   2.095  0.9221  0.5267 -0.2734
  325MOL0     C43746   4.341   1.131   2.121 -0.2019  0.3547 -1.1708
  325MOL0     C43747   4.311   1.046   2.017 -0.4841  1.0738 -0.1858
  325MOL0     O43748   4.268   0.917   2.050  0.3873  0.1124  0.4023
  325MOL0     C43749   4.277   0.808   1.958  0.4565  0.7144  1.1440
  325MOL0     C43750   4.248   0.675   2.023  0.1419  0.0121 -0.0820
  325MOL0     C43751   4.328   0.678   2.158  0.7165  0.4214 -0.4237
  325MOL0     C43752   4.480   0.660   2.144  0.1755  0.5494 -0.3739
  325MOL0     C43753   4.558   0.786   2.163 -0.1774 -1.0905  0.1682
  325MOL0     C43754   4.565   0.863   2.292  1.1074 -0.4347  0.5798
  325MOL0     C43755   4.647   0.776   2.394  0.1241 -0.9501 -0.9576
  325MOL0     C43756   4.653   0.863   2.519 -0.8122 -1.0989 -0.9666
  325MOL0     N43757   4.739   0.815   2.627 -0.2164 -0.1789 -0.1152
  325MOL0     C43758   4.724   0.698   2.694 -0.7206  0.8112  0.1752
  325MOL0     C43759   4.815   0.702   2.799 -0.2869 -1.1349 -0.6065
  325MOL0     C43760   4.802   0.611   2.919  0.4608  0.2000 -0.4465
  325MOL0     C43761   4.912   0.507   2.903  0.6960  0.1896 -0.3549
  325MOL0     C43762   5.047   0.548   2.958  0.8028  0.0354  0.1441
  325MOL0     C43763   5.158   0.473   2.898 -0.4805  0.8510  0.1057
  325MOL0     O43764   5.279   0.531   2.926 -0.4117 -0.8068 -1.1821
  325MOL0     C43765   5.390   0.485   2.873  0.0629 -0.6748  0.6873
  325MOL0     C43766   5.510   0.514   2.927  0.3675 -0.2051 -0.1981
  325MOL0     C43767   5.632   0.458   2.878  0.1641 -0.0355 -0.6866
  325MOL0     C43768   5.635   0.366   2.778  0.7020 -0.0076  0.2749
  325MOL0     C43769   5.759   0.303   2.741 -0.4737  0.2098 -0.1298
  325MOL0     O43770   5.754   0.207   2.638  0.2266  0.2609 -0.2807
  325MOL0     C43771   5.862   0.194   2.556 -0.3949 -0.3090 -0.3589
  325MOL0     C43772   5.965   0.287   2.528  0.0248 -0.4607 -0.5346
  325MOL0     C43773   6.077   0.254   2.458  0.2485  0.7638  0.1518
  325MOL0     C43774   6.100   0.118   2.415  0.0647 -0.1365 -0.6768
  325MOL0     O43775   6.210   0.071   2.347 -0.7303  1.2936 -0.2880
  325MOL0     C43776   6.338   0.125   2.392 -0.2003  0.0086 -0.7494
  325MOL0     C43777   6.434   0.007   2.408 -0.1286  0.4988 -0.0596
  325MOL0     C43778   6.371  -0.094   2.503  0.1426 -0.2605  0.1704
  325MOL0     C43779   6.479  -0.197   2.546  0.5283  0.1047  0.1336
  325MOL0     C43780   6.478  -0.319   2.456 -0.1625 -0.0638 -0.6270
  325MOL0     C43781   6.544  -0.445   2.507 -0.0790 -0.3368 -0.1199
  325MOL0     C43782   6.695  -0.446   2.524 -0.2973 -0.4257 -0.6918
  325MOL0     C43783   6.755  -0.534   2.635 -0.4248 -0.0519 -0.3889
  325MOL0    Cl43784   6.683  -0.479   2.784  0.2665 -0.3539 -0.2928
  325MOL0     C43785   5.993   0.026   2.446 -0.8280 -1.0657  0.1830
  325MOL0     C43786   5.878   0.066   2.510  1.0443  0.1657 -0.2476
  325MOL0     O43787   5.859   0.345   2.796 -0.2869  0.4003  0.6905
  325MOL0     C43788   5.517   0.331   2.721  0.4627  0.4552  0.2812
  325MOL0     C43789   5.399   0.393   2.768 -0.3131 -0.0704  0.4361
  325MOL0     N43790   4.898   0.810   2.776  0.0981 -0.1928  0.2147
  325MOL0     N43791   4.847   0.880   2.677 -0.6078 -0.1280  0.5386
  325MOL0     C43792   4.321   1.091   1.882 -0.6447 -0.4149  0.0892
  325MOL0     C43793   4.363   1.221   1.854 -1.1054  1.0483 -0.4368
  325MOL0     C43794   4.554   1.597   1.806 -0.1873 -0.9158 -0.3726
  325MOL0     C43795   4.472   1.694   1.868  0.1298  0.1501  0.4506
  325MOL0     C43796   4.497   1.833   1.860 -0.6450  0.7101  0.2852
  325MOL0     C43797   4.620   1.877   1.806  0.7705  0.4168 -0.4056
  325MOL0     O43798   4.685   1.996   1.838  0.0095  1.2021 -0.2720
  325MOL0     C43799   4.614   2.111   1.886  0.6879  0.0518  0.5541
  325MOL0     C43800   4.696   2.233   1.850  0.0015 -0.2109  0.1977
  325MOL0     C43801   4.852   2.224   1.897 -0.1065  0.2208  0.3903
  325MOL0     C43802   4.938   2.348   1.872  0.1463  0.6809  0.1918
  325MOL0     C43803   4.880   2.468   1.931 -0.5199  0.3651 -0.0905
  325MOL0     C43804   4.815   2.571   1.959  0.5129  0.6763  0.0049
  325MOL0     C43805   4.690   1.779   1.721 -0.3751 -0.7883  0.0869
  325MOL0     C43806   4.661   1.645   1.719 -0.7240 -0.4783 -0.7095
  325MOL0     C43807   4.753   1.552   1.638 -0.3137 -0.5779  0.8216
  325MOL0     H43808   4.425   1.321   2.173  0.1394 -1.1167  1.5405
  325MOL0     H43809   4.330   1.090   2.221 -0.9610  1.4702 -0.7809
  325MOL0     H43810   4.194   0.807   1.887 -0.4962 -0.0556  2.2463
  325MOL0     H43811   4.375   0.793   1.911 -0.0017 -2.0646  0.9281
  325MOL0     H43812   4.281   0.583   1.973  2.0719 -0.2710  1.5860
  325MOL0     H43813   4.141   0.664   2.042  0.3004 -2.3498 -0.2520
  325MOL0     H43814   4.299   0.583   2.203  0.7796 -1.3186 -3.7832
  325MOL0     H43815   4.304   0.766   2.219  1.4588  1.0274 -0.9719
  325MOL0     H43816   4.508   0.594   2.228 -1.1220  0.3492 -0.0684
  325MOL0     H43817   4.509   0.608   2.052  2.2256 -0.5240  0.8011
  325MOL0     H43818   4.659   0.763   2.127 -0.2853 -3.7514  1.3359
  325MOL0     H43819   4.507   0.861   2.102  1.6764  2.2473  2.4330
  325MOL0     H43820   4.610   0.958   2.261 -0.2642 -0.3813 -1.4312
  325MOL0     H43821   4.467   0.895   2.328 -0.6769 -2.0960 -2.3736
  325MOL0     H43822   4.746   0.772   2.349  0.7681  1.6691  0.0085
  325MOL0     H43823   4.607   0.676   2.412 -2.2413  0.1218  0.2379
  325MOL0     H43824   4.685   0.966   2.502 -2.3811 -0.1489  1.3222
  325MOL0     H43825   4.558   0.866   2.572  0.4608  2.9074  1.5872
  325MOL0     H43826   4.650   0.620   2.677  0.4695 -0.6048  1.2628
  325MOL0     H43827   4.824   0.677   3.004  3.9566  1.6372 -2.2320
  325MOL0     H43828   4.703   0.566   2.915  1.0430 -1.0994 -3.7430
  325MOL0     H43829   4.872   0.422   2.959 -2.4289  0.9857 -1.1707
  325MOL0     H43830   4.917   0.474   2.799 -2.3233 -1.8592  0.0339
  325MOL0     H43831   5.037   0.540   3.066 -1.4089  1.2442  0.0920
  325MOL0     H43832   5.065   0.652   2.927 -0.2882 -0.1298 -1.1403
  325MOL0     H43833   5.145   0.469   2.789  4.0975 -1.8553 -0.5847
  325MOL0     H43834   5.155   0.367   2.925 -1.9217  0.7270 -0.4352
  325MOL0     H43835   5.517   0.573   3.018 -0.8852  1.3039 -1.0179
  325MOL0     H43836   5.724   0.494   2.923 -1.0930  1.0570  1.1379
  325MOL0     H43837   5.960   0.387   2.570  1.0154 -0.4760 -0.3506
  325MOL0     H43838   6.141   0.339   2.438  0.0186  0.8794 -0.1034
  325MOL0     H43839   6.375   0.185   2.309  1.9167  0.3695  0.3981
  325MOL0     H43840   6.329   0.181   2.486  0.0101  4.0011 -2.8674
  325MOL0     H43841   6.439  -0.054   2.318 -1.7420 -0.3865  0.4053
  325MOL0     H43842   6.538   0.035   2.430  0.1678  0.1180 -0.9575
  325MOL0     H43843   6.347  -0.050   2.600 -2.0562 -2.7967  0.9061
  325MOL0     H43844   6.276  -0.140   2.472 -0.4588  1.5720 -0.8517
  325MOL0     H43845   6.447  -0.229   2.646  0.4188  1.0964  0.4244
  325MOL0     H43846   6.580  -0.155   2.546 -1.0922  4.4262 -0.7731
  325MOL0     H43847   6.526  -0.288   2.363 -0.0344 -1.6436 -1.1065
  325MOL0     H43848   6.378  -0.354   2.426 -0.4072  2.8978 -3.8590
  325MOL0     H43849   6.490  -0.469   2.600 -1.0252  1.0610 -0.2796
  325MOL0     H43850   6.516  -0.522   2.434  0.7766  0.3901 -1.2366
  325MOL0     H43851   6.729  -0.344   2.539 -1.5042 -0.1871  0.6306
  325MOL0     H43852   6.737  -0.481   2.429  0.9602 -0.1937 -0.2344
  325MOL0     H43853   6.727  -0.639   2.632  1.5028 -0.6359  0.3215
  325MOL0     H43854   6.864  -0.525   2.647 -0.3707 -1.2003  0.0276
  325MOL0     H43855   6.002  -0.080   2.425  0.8149 -1.0783  0.7816
  325MOL0     H43856   5.797  -0.003   2.534 -0.1591  2.6307  3.7974
  325MOL0     H43857   5.517   0.258   2.641  0.4199  0.0928  0.6116
  325MOL0     H43858   5.306   0.366   2.718  0.5706  0.8929 -1.8535
  325MOL0     H43859   4.297   1.033   1.794  0.7435  1.1983 -1.4107
  325MOL0     H43860   4.371   1.255   1.751  0.1830 -2.6202 -1.7030
  325MOL0     H43861   4.387   1.663   1.928 -3.0457  1.5790 -2.9314
  325MOL0     H43862   4.438   1.901   1.920 -0.1261 -0.2093  1.8807
  325MOL0     H43863   4.597   2.122   1.994 -2.2932 -1.5828  0.3329
  325MOL0     H43864   4.517   2.123   1.838  1.4442 -1.9280 -1.6014
  325MOL0     H43865   4.659   2.323   1.900  0.2268  0.2874 -0.5152
  325MOL0     H43866   4.688   2.245   1.742 -2.2427 -0.4932  0.2811
  325MOL0     H43867   4.901   2.142   1.843 -2.1513 -0.4001 -0.5946
  325MOL0     H43868   4.853   2.198   2.004 -1.6802 -0.5417  0.2452
  325MOL0     H43869   5.040   2.334   1.908  0.4937  1.6512 -0.3568
  325MOL0     H43870   4.932   2.354   1.762  1.1998 -2.2527 -0.1115
  325MOL0     H43871   4.775   2.667   1.986  2.6881  2.1481 -1.6616
  325MOL0     H43872   4.786   1.805   1.679 -0.5753 -0.7429 -0.3504
  325MOL0     H43873   4.819   1.621   1.585 -0.5417 -0.3260  0.8621
  325MOL0     H43874   4.815   1.474   1.681  1.1561  0.0652 -0.0425
  325MOL0     H43875   4.685   1.511   1.563 -0.2771  2.0497 -0.8082
  326MOL0     O43876   3.711   3.433   4.044  0.5480 -0.0778  0.0894
  326MOL0     C43877   3.638   3.339   4.067 -0.0062 -0.0116 -0.1808
  326MOL0     O43878   3.663   3.211   4.025  0.0327  0.0583  0.5736
  326MOL0     C43879   3.765   3.180   3.932  0.5237 -0.1837  0.4305
  326MOL0     C43880   3.796   3.263   3.823 -0.5261 -0.2874  0.4223
  326MOL0     C43881   3.900   3.233   3.736 -0.5616  0.0267 -0.2411
  326MOL0     C43882   3.983   3.123   3.760  0.0396 -0.2575  0.5653
  326MOL0     O43883   4.081   3.097   3.669 -0.2337 -0.0819  0.5215
  326MOL0     C43884   4.119   2.960   3.664 -0.0781 -0.1141 -0.0162
  326MOL0     C43885   4.204   2.943   3.534  0.6064 -0.1249  0.2042
  326MOL0     C43886   4.356   2.985   3.548  0.5213 -0.8333  0.1129
  326MOL0     C43887   4.409   2.999   3.409  0.3309 -0.6336  0.6685
  326MOL0     C43888   4.557   3.026   3.405 -0.9162  0.7592 -0.0216
  326MOL0     C43889   4.609   3.024   3.266  0.8872  0.4164 -0.3991
  326MOL0     C43890   4.744   3.092   3.242  0.9555 -0.1404  0.1307
  326MOL0     C43891   4.861   3.001   3.288 -0.8307 -0.5372  0.8685
  326MOL0     N43892   4.989   3.069   3.272 -1.0182  0.0951  0.3491
  326MOL0     C43893   5.077   3.125   3.366 -0.4709 -0.1736  0.6568
  326MOL0     C43894   5.173   3.187   3.289  0.5745  0.0516 -0.0712
  326MOL0     C43895   5.283   3.270   3.332 -0.2110  0.4129 -1.1375
  326MOL0     C43896   5.383   3.326   3.237  0.1759  0.0286  0.1752
  326MOL0     C43897   5.479   3.428   3.295  0.4953 -0.3526  0.2643
  326MOL0     C43898   5.421   3.574   3.305 -0.4132 -0.3422  0.4519
  326MOL0     O43899   5.334   3.584   3.416 -0.3425  0.5035 -0.4031
  326MOL0     C43900   5.261   3.697   3.434  0.5765 -0.1925  0.5708
  326MOL0     C43901   5.260   3.812   3.359 -0.1908 -0.1022 -0.8483
  326MOL0     C43902   5.187   3.924   3.409 -0.2618  0.3331  0.3060
  326MOL0     C43903   5.104   3.914   3.515  0.1488  0.7775 -0.7569
  326MOL0     C43904   5.024   4.031   3.554 -0.5606  0.2063 -0.0298
  326MOL0     O43905   4.968   4.019   3.677  0.3204  0.7807 -1.2453
  326MOL0     C43906   4.895   4.117   3.739  0.4159  0.3274  0.1001
  326MOL0     C43907   4.828   4.232   3.694 -0.0125 -1.3028 -0.2826
  326MOL0     C43908   4.773   4.322   3.787  0.0054  0.3833  0.0707
  326MOL0     C43909   4.787   4.307   3.921 -0.6198  0.1709 -0.6809
  326MOL0     O43910   4.735   4.397   4.011  0.2299 -0.5556 -0.0850
  326MOL0     C43911   4.651   4.346   4.120  0.4147  0.9069 -0.0920
  326MOL0     C43912   4.553   4.447   4.157 -0.6644 -0.1582 -0.2360
  326MOL0     C43913   4.615   4.566   4.243 -0.4862 -0.0935  0.4174
  326MOL0     C43914   4.511   4.682   4.264 -0.2240  0.1668  0.8596
  326MOL0     C43915   4.401   4.643   4.365  0.7404 -0.7759  1.1201
  326MOL0     C43916   4.270   4.739   4.359 -0.9491  0.2064 -0.0054
  326MOL0     C43917   4.205   4.713   4.226  0.1745 -0.2133  0.5990
  326MOL0     C43918   4.062   4.764   4.227  1.4717 -0.2723  0.9621
  326MOL0    Cl43919   3.947   4.660   4.304 -0.7673 -0.2036 -0.4333
  326MOL0     C43920   4.854   4.187   3.967  0.0558  0.0233 -0.1864
  326MOL0     C43921   4.896   4.096   3.874  0.1258 -0.3401 -0.1161
  326MOL0     O43922   5.025   4.137   3.492 -0.6843  0.0214 -0.1528
  326MOL0     C43923   5.086   3.791   3.585 -0.1620 -0.1963 -0.6942
  326MOL0     C43924   5.175   3.688   3.544  0.6022 -0.6482  0.7024
  326MOL0     N43925   5.142   3.159   3.154  0.3753  0.1670  0.3255
  326MOL0     N43926   5.032   3.096   3.143  0.1151  0.1917 -0.1366
  326MOL0     C43927   3.948   3.041   3.860  0.4270 -0.0661 -0.5297
  326MOL0     C43928   3.837   3.058   3.948 -0.7847  0.1488  0.7779
  326MOL0     C43929   3.549   3.337   4.180  0.1492 -1.2119  0.2461
  326MOL0     C43930   3.426   3.284   4.164 -0.7359  0.0920 -0.5591
  326MOL0     C43931   3.333   3.281   4.268 -0.5793  0.0753  0.4483
  326MOL0     C43932   3.376   3.312   4.394 -1.1143  0.3823 -0.2854
  326MOL0     O43933   3.283   3.296   4.502 -0.0347 -0.1531  0.1816
  326MOL0     C43934   3.340   3.213   4.607  0.7462  0.5179  0.4506
  326MOL0     C43935   3.247   3.174   4.723  0.2912 -0.0494 -0.0520
  326MOL0     C43936   3.155   3.056   4.692 -0.1763 -0.0378  0.2687
  326MOL0     C43937   3.078   3.059   4.559  0.1429 -1.0220 -0.6740
  326MOL0     C43938   3.027   2.924   4.519 -0.6610 -0.3508 -0.1912
  326MOL0     C43939   3.005   2.808   4.492 -0.0442  0.2460  0.4097
  326MOL0     C43940   3.506   3.372   4.415  0.0780  0.0024 -0.1519
  326MOL0     C43941   3.588   3.386   4.312  0.3658  0.3575 -1.3485
  326MOL0     C43942   3.731   3.407   4.340 -0.1451 -0.3609  1.3262
  326MOL0     H43943   3.759   3.364   3.814  0.0060  0.3680  4.1240
  326MOL0     H43944   3.930   3.307   3.663  0.1635  0.9832  0.9866
  326MOL0     H43945   4.178   2.925   3.749 -1.1485  0.6570  1.0813
  326MOL0     H43946   4.038   2.887   3.658 -0.9635  0.8055  0.4549
  326MOL0     H43947   4.148   2.998   3.458  0.4174 -1.2069 -0.4646
  326MOL0     H43948   4.210   2.837   3.510  0.3499 -0.8505  2.9478
  326MOL0     H43949   4.405   2.897   3.591  2.1558 -0.4284 -0.8047
  326MOL0     H43950   4.380   3.070   3.613 -2.8087  1.6627 -1.6156
  326MOL0     H43951   4.393   2.909   3.349  0.3377  0.7721 -1.5556
  326MOL0     H43952   4.355   3.082   3.362 -2.0004 -2.1027  0.5854
  326MOL0     H43953   4.583   3.122   3.450  1.7865  0.5633 -1.0076
  326MOL0     H43954   4.605   2.942   3.457 -2.8934 -1.8385 -2.0953
  326MOL0     H43955   4.613   2.928   3.213 -1.8082  0.7478 -1.3770
  326MOL0     H43956   4.525   3.073   3.215 -2.7981 -3.5184  1.2464
  326MOL0     H43957   4.744   3.180   3.308  3.8017 -0.5655  0.8282
  326MOL0     H43958   4.763   3.126   3.140 -0.8031 -2.5463 -1.0813
  326MOL0     H43959   4.852   2.971   3.393  2.6227  1.2642  1.8297
  326MOL0     H43960   4.866   2.909   3.229  1.9584  0.1594 -0.1486
  326MOL0     H43961   5.072   3.141   3.473 -2.2294 -1.5126  0.8279
  326MOL0     H43962   5.246   3.358   3.384 -0.4065  0.6195 -1.6174
  326MOL0     H43963   5.338   3.209   3.404 -3.0024  0.4500  1.1608
  326MOL0     H43964   5.437   3.236   3.205 -2.2753 -1.2506 -0.5794
  326MOL0     H43965   5.337   3.373   3.150 -0.7447  1.1644  1.2429
  326MOL0     H43966   5.559   3.432   3.221  0.2630  0.5899  0.0524
  326MOL0     H43967   5.518   3.390   3.390 -1.7764 -3.1169  0.2521
  326MOL0     H43968   5.368   3.611   3.216 -0.3325  1.1163  0.9731
  326MOL0     H43969   5.510   3.637   3.312  0.9226 -2.1888  0.7695
  326MOL0     H43970   5.318   3.814   3.268  1.3398  0.2767  0.1049
  326MOL0     H43971   5.193   4.018   3.356 -2.4110  0.9357  1.0310
  326MOL0     H43972   4.822   4.254   3.588 -0.2763 -1.2889 -0.2647
  326MOL0     H43973   4.724   4.410   3.747  1.2395  0.9123 -0.3543
  326MOL0     H43974   4.609   4.248   4.099 -2.1713  1.7436  0.8014
  326MOL0     H43975   4.716   4.323   4.206 -0.5257  1.2038  0.7183
  326MOL0     H43976   4.499   4.488   4.071  1.5070  0.2444 -1.4679
  326MOL0     H43977   4.480   4.399   4.223 -0.2752  0.4642  0.6762
  326MOL0     H43978   4.638   4.519   4.339  1.0049 -2.5158 -1.0163
  326MOL0     H43979   4.702   4.610   4.194 -0.2226 -2.7242 -1.7251
  326MOL0     H43980   4.484   4.709   4.161 -1.5549 -0.4536  1.0378
  326MOL0     H43981   4.557   4.773   4.306  0.2701  1.5877 -2.3960
  326MOL0     H43982   4.428   4.656   4.471  1.5847 -1.2734  0.9727
  326MOL0     H43983   4.370   4.538   4.355  0.1125 -0.5712  0.8349
  326MOL0     H43984   4.208   4.708   4.444  0.3710  0.6687  1.1604
  326MOL0     H43985   4.292   4.845   4.368  0.4134 -0.1849  1.9240
  326MOL0     H43986   4.207   4.606   4.205  2.6863 -0.5616  2.1263
  326MOL0     H43987   4.250   4.770   4.143 -4.5794 -1.2939 -3.1513
  326MOL0     H43988   4.037   4.859   4.274 -2.9962  0.9344 -3.0210
  326MOL0     H43989   4.027   4.767   4.123  0.6502 -0.4347  1.2296
  326MOL0     H43990   4.899   4.176   4.065 -0.3736 -0.7828 -0.0740
  326MOL0     H43991   4.941   4.006   3.914 -2.5843 -1.9394 -0.4706
  326MOL0     H43992   5.023   3.773   3.672 -0.5971  2.1517 -0.4437
  326MOL0     H43993   5.181   3.599   3.606  0.2127  0.5272  2.4773
  326MOL0     H43994   4.004   2.949   3.877 -1.3909 -0.9167  1.3329
  326MOL0     H43995   3.815   2.991   4.031 -2.5068  1.7233  1.6948
  326MOL0     H43996   3.390   3.238   4.072 -0.6634  0.9797 -1.0381
  326MOL0     H43997   3.229   3.250   4.259 -1.1002  1.2881  1.7419
  326MOL0     H43998   3.414   3.268   4.666 -0.0210 -0.1780  2.1444
  326MOL0     H43999   3.389   3.124   4.565 -1.6564  1.0426 -4.1146
  326MOL0     H44000   3.192   3.260   4.762 -1.3467  0.0732 -2.4082
  326MOL0     H44001   3.307   3.137   4.807 -0.2432  0.8299  0.7326
  326MOL0     H44002   3.086   3.031   4.773 -0.1950 -2.3734 -0.4145
  326MOL0     H44003   3.218   2.967   4.684 -2.0530 -1.3005 -1.4402
  326MOL0     H44004   2.987   3.118   4.571 -0.5563 -2.4922  2.1532
  326MOL0     H44005   3.138   3.098   4.476  2.2255 -0.5578  0.9856
  326MOL0     H44006   3.009   2.706   4.461  1.1428  0.2894  0.3503
  326MOL0     H44007   3.535   3.419   4.508 -1.3341 -0.7592  0.7055
  326MOL0     H44008   3.756   3.438   4.442 -0.2008 -0.8992  1.5053
  326MOL0     H44009   3.790   3.319   4.316  2.8617  2.4826 -3.5243
  326MOL0     H44010   3.779   3.488   4.284  1.9626 -0.1313  3.3220
  327MOL0     O44011   6.327   1.412   5.954  0.2045  0.7526 -0.2508
  327MOL0     C44012   6.450   1.388   5.972  0.5233 -0.0158  0.3358
  327MOL0     O44013   6.510   1.376   6.094  0.0864  0.7002 -0.6610
  327MOL0     C44014   6.437   1.374   6.210  0.1390 -0.3865 -0.1198
  327MOL0     C44015   6.407   1.247   6.264 -0.3480 -1.0867 -0.3930
  327MOL0     C44016   6.360   1.236   6.394  0.2082  0.0500  0.4347
  327MOL0     C44017   6.345   1.341   6.477  0.2663 -0.8271  0.6525
  327MOL0     O44018   6.280   1.337   6.594  0.4325 -0.0055  0.3885
  327MOL0     C44019   6.153   1.394   6.611 -0.5957  0.5238 -1.2361
  327MOL0     C44020   6.095   1.338   6.745 -0.6558  0.3727 -0.8350
  327MOL0     C44021   6.043   1.442   6.844  0.7450  0.2820 -0.2709
  327MOL0     C44022   6.153   1.524   6.920 -0.0487  0.2673  0.2775
  327MOL0     C44023   6.171   1.455   7.045 -0.6844  1.0238 -0.1175
  327MOL0     C44024   6.270   1.522   7.123  0.1503  0.0507 -0.2759
  327MOL0     C44025   6.304   1.432   7.241  0.0556  0.1514 -0.0286
  327MOL0     C44026   6.367   1.515   7.348  0.3069 -0.4077 -0.1534
  327MOL0     N44027   6.498   1.459   7.382 -0.3534 -0.3415 -0.2553
  327MOL0     C44028   6.606   1.430   7.302  0.7239 -0.5055  0.2309
  327MOL0     C44029   6.708   1.392   7.385  0.5781  0.7561  0.2281
  327MOL0     C44030   6.827   1.314   7.350  0.4129  1.0852 -0.5527
  327MOL0     C44031   6.782   1.167   7.346  0.3171 -0.0603 -0.1034
  327MOL0     C44032   6.903   1.068   7.337 -0.0257  0.5206  0.7816
  327MOL0     C44033   7.001   1.065   7.449 -0.6291  0.4167  0.3720
  327MOL0     O44034   6.928   1.018   7.568 -0.0080  0.7084  0.4236
  327MOL0     C44035   6.917   0.888   7.609  0.3678  0.0449  0.6314
  327MOL0     C44036   6.990   0.787   7.551 -0.1481  0.3671  0.0801
  327MOL0     C44037   6.976   0.657   7.603  0.2811 -0.7181  0.4958
  327MOL0     C44038   6.902   0.628   7.709  0.3428 -0.0810 -0.7474
  327MOL0     C44039   6.909   0.491   7.766 -0.5340  0.5265 -0.0117
  327MOL0     O44040   6.833   0.448   7.872 -0.2130 -0.3293  0.4395
  327MOL0     C44041   6.854   0.316   7.903  0.3309  0.4142 -0.9792
  327MOL0     C44042   6.784   0.206   7.844 -0.7052 -0.6891 -0.5130
  327MOL0     C44043   6.804   0.072   7.884  0.4146  0.3371  0.2041
  327MOL0     C44044   6.919   0.039   7.959  0.8438  0.5326  0.6100
  327MOL0     O44045   6.953  -0.091   7.981 -0.3672  0.4287 -0.0200
  327MOL0     C44046   6.891  -0.205   7.910 -0.6642  0.7639 -0.3832
  327MOL0     C44047   6.921  -0.341   7.973  0.1499 -0.2430  0.2708
  327MOL0     C44048   6.850  -0.363   8.101  0.5023 -0.0677 -0.0855
  327MOL0     C44049   6.884  -0.492   8.178  0.6289  0.6829 -0.8689
  327MOL0     C44050   6.834  -0.497   8.328 -0.6000  0.9428 -0.2872
  327MOL0     C44051   6.899  -0.401   8.445  0.1737  0.1430 -0.3229
  327MOL0     C44052   6.866  -0.465   8.580  0.0947 -0.2673 -0.4997
  327MOL0     C44053   6.919  -0.368   8.691  0.0822 -0.5106  0.0318
  327MOL0    Cl44054   7.099  -0.352   8.685 -0.3687 -0.3494 -0.1552
  327MOL0     C44055   6.990   0.143   8.010  0.9027 -0.4582  0.4951
  327MOL0     C44056   6.967   0.282   7.979  0.6086  0.3580  0.2445
  327MOL0     O44057   6.989   0.423   7.706 -0.2723  0.6762 -0.2864
  327MOL0     C44058   6.822   0.731   7.770  0.2463  0.8005 -0.7531
  327MOL0     C44059   6.823   0.859   7.712 -0.6069  0.4954 -0.7853
  327MOL0     N44060   6.667   1.396   7.514  0.3127 -0.3207  0.3804
  327MOL0     N44061   6.544   1.445   7.517 -0.1879  0.1446  0.3175
  327MOL0     C44062   6.361   1.468   6.414 -0.3588  0.0357 -0.3491
  327MOL0     C44063   6.417   1.485   6.279  0.4191 -0.7995 -0.1544
  327MOL0     C44064   6.539   1.404   5.853 -0.4039  0.6807 -0.6461
  327MOL0     C44065   6.674   1.387   5.874 -0.7472  0.3091 -0.1369
  327MOL0     C44066   6.770   1.386   5.767  0.6745  0.5610  0.0663
  327MOL0     C44067   6.720   1.395   5.631  0.2261  0.4177  0.0268
  327MOL0     O44068   6.790   1.379   5.523 -0.0853  0.3458 -0.1955
  327MOL0     C44069   6.922   1.321   5.528  0.3977  0.4630  0.4362
  327MOL0     C44070   7.033   1.424   5.492  0.3608 -0.7061  0.0002
  327MOL0     C44071   7.015   1.475   5.351 -0.8011 -0.8333  1.0884
  327MOL0     C44072   7.106   1.596   5.310 -0.7230  0.4946 -0.1872
  327MOL0     C44073   7.044   1.661   5.198 -0.1222  1.4070  0.4138
  327MOL0     C44074   6.991   1.701   5.095  0.8758  0.0698 -0.1156
  327MOL0     C44075   6.584   1.418   5.616  0.1021 -0.8854  0.3571
  327MOL0     C44076   6.500   1.438   5.726  0.0383 -0.2370  0.9898
  327MOL0     C44077   6.360   1.485   5.680  0.7246  0.6129 -0.5906
  327MOL0     H44078   6.428   1.163   6.200  3.9874  0.0216 -0.7479
  327MOL0     H44079   6.329   1.145   6.445  2.2809 -2.2444 -2.1168
  327MOL0     H44080   6.165   1.503   6.608 -0.8122  0.5895 -0.0923
  327MOL0     H44081   6.089   1.373   6.524  1.3607 -0.9022 -2.4186
  327MOL0     H44082   6.182   1.287   6.788  0.2396 -0.1050 -3.0439
  327MOL0     H44083   6.009   1.271   6.732  1.3999 -2.6410 -0.0706
  327MOL0     H44084   5.976   1.383   6.908  1.8357 -3.8250 -2.5166
  327MOL0     H44085   5.979   1.509   6.787 -2.0370 -1.9360  0.0066
  327MOL0     H44086   6.243   1.529   6.858  0.1247  0.8442  0.5624
  327MOL0     H44087   6.133   1.629   6.943  1.7164  0.7089 -0.0628
  327MOL0     H44088   6.080   1.440   7.105  0.9539  3.8665  3.4706
  327MOL0     H44089   6.212   1.356   7.022  0.1378  1.0338  1.1784
  327MOL0     H44090   6.363   1.537   7.068 -0.4205  1.4160 -0.9220
  327MOL0     H44091   6.228   1.620   7.150 -2.7832 -0.5056 -2.3354
  327MOL0     H44092   6.364   1.346   7.209 -2.4809 -2.1744  1.0746
  327MOL0     H44093   6.215   1.389   7.287  0.8277 -1.2623  0.1929
  327MOL0     H44094   6.388   1.611   7.300  1.6224 -0.7669 -0.3223
  327MOL0     H44095   6.305   1.543   7.433 -0.6129  3.0223 -1.7525
  327MOL0     H44096   6.610   1.453   7.196  1.3084  1.0307  0.5678
  327MOL0     H44097   6.868   1.338   7.252 -1.2282 -2.5853 -2.3638
  327MOL0     H44098   6.893   1.333   7.435  0.0762  0.9871 -0.2671
  327MOL0     H44099   6.739   1.139   7.443  2.1918 -2.3012  0.1594
  327MOL0     H44100   6.710   1.156   7.265  0.4970  0.4237 -0.3295
  327MOL0     H44101   6.963   1.080   7.246 -0.2034 -2.5180  0.1822
  327MOL0     H44102   6.863   0.967   7.335  0.7117  0.1676 -2.8184
  327MOL0     H44103   7.040   1.165   7.470  0.6214 -0.3417  1.9282
  327MOL0     H44104   7.086   1.006   7.413 -1.9969 -2.2529  1.2505
  327MOL0     H44105   7.052   0.816   7.466 -0.7674 -0.0545 -0.5231
  327MOL0     H44106   7.049   0.587   7.565  0.8814  0.1479  0.0202
  327MOL0     H44107   6.703   0.226   7.775  0.5301  2.3767 -1.2327
  327MOL0     H44108   6.740  -0.013   7.862  1.2025 -0.2089 -0.0405
  327MOL0     H44109   6.782  -0.209   7.905 -0.7693 -2.2253  1.2986
  327MOL0     H44110   6.928  -0.214   7.807  1.5941  1.7251  0.2761
  327MOL0     H44111   6.896  -0.420   7.901 -0.1377  2.7059 -3.1483
  327MOL0     H44112   7.026  -0.344   8.002 -0.0341 -0.4404  0.9240
  327MOL0     H44113   6.868  -0.281   8.171  1.3192  0.0362 -0.4055
  327MOL0     H44114   6.743  -0.355   8.082  0.7432  2.3140 -0.7683
  327MOL0     H44115   6.991  -0.510   8.185  0.1196 -2.0417  1.6528
  327MOL0     H44116   6.836  -0.573   8.122 -0.2479  1.0612 -0.6832
  327MOL0     H44117   6.853  -0.596   8.372 -1.7401  2.8858  5.5236
  327MOL0     H44118   6.725  -0.487   8.321 -0.9792 -0.5500  2.1964
  327MOL0     H44119   7.008  -0.394   8.435  0.1443  0.3609 -0.4962
  327MOL0     H44120   6.863  -0.300   8.424  1.2668  0.5239 -0.4234
  327MOL0     H44121   6.913  -0.563   8.590  1.4500  0.2171 -1.7627
  327MOL0     H44122   6.759  -0.488   8.576  0.0306  0.0268 -0.5204
  327MOL0     H44123   6.885  -0.265   8.672  0.1792 -0.1512  1.7023
  327MOL0     H44124   6.884  -0.402   8.789  1.4543 -0.9247  0.3934
  327MOL0     H44125   7.063   0.119   8.087 -2.8498 -3.6610  3.4509
  327MOL0     H44126   7.036   0.360   8.008  0.7041  0.8128 -1.1208
  327MOL0     H44127   6.766   0.718   7.862  2.1533 -0.3179  0.2906
  327MOL0     H44128   6.767   0.936   7.764 -0.4429 -1.3972  2.4449
  327MOL0     H44129   6.344   1.552   6.480  1.9420  0.1004  0.2606
  327MOL0     H44130   6.455   1.577   6.236  2.2024 -1.6858 -0.5731
  327MOL0     H44131   6.720   1.374   5.971  1.0600  4.0447 -0.3222
  327MOL0     H44132   6.877   1.381   5.785  0.7421 -0.1298 -0.4624
  327MOL0     H44133   6.925   1.231   5.466  0.7033  1.7412 -1.4638
  327MOL0     H44134   6.939   1.276   5.627  0.7086  0.1637  0.2477
  327MOL0     H44135   7.128   1.370   5.495  0.2384 -0.9152  0.1100
  327MOL0     H44136   7.027   1.504   5.566  0.7893 -1.1241  0.4891
  327MOL0     H44137   6.909   1.496   5.338 -0.6043 -0.9754 -1.1581
  327MOL0     H44138   7.047   1.395   5.283 -2.8949 -0.4382 -0.4367
  327MOL0     H44139   7.112   1.666   5.394  2.3486  0.0698  0.0705
  327MOL0     H44140   7.211   1.567   5.298 -0.6803 -1.6741  3.7543
  327MOL0     H44141   6.947   1.733   5.003  0.7465 -0.7265 -0.3395
  327MOL0     H44142   6.548   1.428   5.514 -0.4125  0.2556  0.6372
  327MOL0     H44143   6.298   1.395   5.677  2.5996 -0.8255  1.0233
  327MOL0     H44144   6.323   1.560   5.751 -1.3167 -0.8941  0.0183
  327MOL0     H44145   6.368   1.543   5.587  1.0485 -0.4815 -1.2633
  328MOL0     O44146   8.221   7.330   4.350 -0.3732 -0.5139 -0.2657
  328MOL0     C44147   8.205   7.450   4.385 -0.4965  0.3991 -0.2308
  328MOL0     O44148   8.149   7.482   4.505 -1.0379 -0.6186  0.2664
  328MOL0     C44149   8.100   7.383   4.578  1.1527 -0.3376 -0.7539
  328MOL0     C44150   8.174   7.345   4.688  1.1507 -0.4528  0.7288
  328MOL0     C44151   8.118   7.251   4.774 -0.7285 -0.0159 -0.0787
  328MOL0     C44152   7.995   7.186   4.761 -0.8709  0.4759 -0.3810
  328MOL0     O44153   7.953   7.084   4.837  0.7884 -0.0360  0.6202
  328MOL0     C44154   8.029   7.054   4.952  0.7435  0.7613  0.1600
  328MOL0     C44155   7.960   6.929   5.014  0.3734 -0.4995  0.3711
  328MOL0     C44156   7.835   6.967   5.094 -0.6950  0.2624 -0.5571
  328MOL0     C44157   7.861   7.017   5.242 -0.1576 -0.6588  1.2815
  328MOL0     C44158   7.738   7.047   5.313 -0.3996 -0.2171 -0.2021
  328MOL0     C44159   7.681   6.919   5.379 -0.7001  0.7718  0.2172
  328MOL0     C44160   7.550   6.938   5.437  0.9242 -0.0129  0.9699
  328MOL0     C44161   7.472   6.801   5.470 -0.1342  0.5800 -0.0130
  328MOL0     N44162   7.330   6.833   5.502 -0.2464 -0.2435  0.4012
  328MOL0     C44163   7.239   6.884   5.412 -0.0993 -0.8097 -1.4864
  328MOL0     C44164   7.113   6.860   5.459  0.0593  0.2961 -0.2602
  328MOL0     C44165   6.983   6.900   5.408  0.1394 -0.6155 -0.1808
  328MOL0     C44166   6.911   6.994   5.508  0.1730  1.0297 -0.7102
  328MOL0     C44167   6.858   6.912   5.634  0.3975  0.9141  0.9018
  328MOL0     C44168   6.730   6.964   5.693 -0.4945 -0.6838 -0.2380
  328MOL0     O44169   6.690   6.881   5.806  0.0574 -0.7835  0.1286
  328MOL0     C44170   6.737   6.922   5.935  0.0808 -1.2214 -0.8066
  328MOL0     C44171   6.795   7.053   5.971  0.4293  0.1421 -0.3229
  328MOL0     C44172   6.819   7.088   6.101  0.2346 -0.1428  0.4187
  328MOL0     C44173   6.798   6.993   6.203  0.4166  0.0399  1.6063
  328MOL0     C44174   6.838   7.039   6.339  0.1029  0.3238  1.2381
  328MOL0     O44175   6.831   7.174   6.356  0.2796  0.0929  0.5227
  328MOL0     C44176   6.879   7.240   6.462  0.1688 -0.6644  0.3325
  328MOL0     C44177   6.982   7.207   6.544  0.2997  0.6667 -0.6833
  328MOL0     C44178   7.018   7.285   6.647 -0.3220  0.2220 -0.3482
  328MOL0     C44179   6.959   7.407   6.666 -0.2691 -0.7746  0.2084
  328MOL0     O44180   7.009   7.485   6.767  0.3278 -0.8451 -0.4417
  328MOL0     C44181   6.941   7.617   6.788  0.0086  0.2547 -0.5093
  328MOL0     C44182   7.043   7.684   6.874 -0.2477  0.3220  0.1990
  328MOL0     C44183   6.982   7.812   6.938 -0.2228  0.1530 -0.6530
  328MOL0     C44184   6.966   7.928   6.828  0.0980 -0.1501 -0.8337
  328MOL0     C44185   6.849   8.024   6.874 -1.1404 -0.3720 -0.3956
  328MOL0     C44186   6.865   8.163   6.801  0.3252  0.7664  0.4146
  328MOL0     C44187   6.757   8.263   6.852 -1.2105  0.4267  0.4955
  328MOL0     C44188   6.782   8.407   6.807 -0.0168 -0.1907  0.4646
  328MOL0    Cl44189   6.644   8.516   6.834  0.2600 -0.4438  0.2341
  328MOL0     C44190   6.862   7.452   6.575 -0.4615 -1.0176 -0.2984
  328MOL0     C44191   6.823   7.370   6.472 -1.0085 -0.5068 -0.1277
  328MOL0     O44192   6.866   6.960   6.423  0.7667 -0.2792 -0.5520
  328MOL0     C44193   6.752   6.861   6.165  0.9469 -0.5258 -0.3492
  328MOL0     C44194   6.715   6.833   6.037  0.3563  0.4887  0.2621
  328MOL0     N44195   7.131   6.801   5.584 -0.8695 -0.0301 -0.3612
  328MOL0     N44196   7.263   6.780   5.607 -0.2451 -0.2866  0.2607
  328MOL0     C44197   7.921   7.225   4.649 -0.2058  0.2679  0.0157
  328MOL0     C44198   7.971   7.329   4.561  0.2150  0.0234  0.1470
  328MOL0     C44199   8.256   7.565   4.285  0.0244  1.0122 -0.1586
  328MOL0     C44200   8.205   7.697   4.288  0.5493  0.4661 -0.4528
  328MOL0     C44201   8.246   7.799   4.204 -0.2606 -0.5513 -0.5079
  328MOL0     C44202   8.333   7.779   4.107  0.0328 -0.2808 -0.4679
  328MOL0     O44203   8.369   7.886   4.027 -0.6515 -0.4148  0.0213
  328MOL0     C44204   8.480   7.873   3.938 -0.0247 -0.2370  0.2709
  328MOL0     C44205   8.465   7.999   3.845  0.0456  0.2298 -0.0974
  328MOL0     C44206   8.543   7.986   3.710 -0.2524  0.1563 -0.1309
  328MOL0     C44207   8.493   7.862   3.621 -0.5648  0.3550  0.2331
  328MOL0     C44208   8.552   7.883   3.487  0.1607 -0.2228 -0.0352
  328MOL0     C44209   8.619   7.903   3.390  0.7752 -1.1180 -0.5310
  328MOL0     C44210   8.397   7.654   4.107 -0.9986 -0.2118  1.0955
  328MOL0     C44211   8.363   7.546   4.188  0.6499 -0.3998 -0.1987
  328MOL0     C44212   8.444   7.421   4.178 -0.8526  0.1512  0.1398
  328MOL0     H44213   8.270   7.395   4.698  0.5109  1.2894 -1.1884
  328MOL0     H44214   8.176   7.220   4.860 -1.1160 -0.5509 -0.0047
  328MOL0     H44215   8.134   7.027   4.932  0.6071 -0.1039  0.5701
  328MOL0     H44216   8.023   7.137   5.022 -1.3656 -0.6428  1.7557
  328MOL0     H44217   8.022   6.873   5.085  2.3920  1.0430 -0.0724
  328MOL0     H44218   7.929   6.866   4.930  1.1654  0.8639 -1.0091
  328MOL0     H44219   7.770   6.880   5.099 -1.0701  0.5996  0.7050
  328MOL0     H44220   7.779   7.050   5.048  0.1401  2.9499  2.8885
  328MOL0     H44221   7.913   6.942   5.303 -1.0669 -0.1877  2.6722
  328MOL0     H44222   7.920   7.109   5.248  0.4278 -0.7564 -1.5069
  328MOL0     H44223   7.764   7.126   5.384  4.7277  0.2383 -2.1675
  328MOL0     H44224   7.666   7.092   5.245 -0.5578  0.2662  0.2772
  328MOL0     H44225   7.668   6.850   5.295 -2.1185  0.2759  0.8104
  328MOL0     H44226   7.755   6.875   5.446 -1.3748 -1.1923 -0.2615
  328MOL0     H44227   7.483   7.001   5.378  0.2281  0.4217  2.1869
  328MOL0     H44228   7.576   6.989   5.530  0.7553 -1.3363  1.7688
  328MOL0     H44229   7.473   6.746   5.376 -0.9394  0.5428 -0.0010
  328MOL0     H44230   7.520   6.747   5.552 -2.6534 -0.0227  1.1544
  328MOL0     H44231   7.272   6.934   5.321  1.0119 -0.0426 -0.6892
  328MOL0     H44232   7.004   6.963   5.321  3.1387  1.0625  1.5749
  328MOL0     H44233   6.919   6.816   5.381 -3.3958  1.8774 -0.2101
  328MOL0     H44234   6.997   7.055   5.536  3.0013 -0.2078 -5.5556
  328MOL0     H44235   6.829   7.049   5.460 -1.9988 -0.0328  1.5369
  328MOL0     H44236   6.928   6.908   5.718 -0.9790  2.2144  2.1894
  328MOL0     H44237   6.836   6.812   5.595  1.5339  0.3510  1.6477
  328MOL0     H44238   6.650   6.978   5.619 -1.7713  0.6549  1.3220
  328MOL0     H44239   6.751   7.070   5.710  1.5499 -1.0036 -0.5147
  328MOL0     H44240   6.814   7.131   5.899  4.6151 -1.4818 -1.2633
  328MOL0     H44241   6.858   7.188   6.114  3.0861 -0.2462 -4.5345
  328MOL0     H44242   7.026   7.108   6.540 -0.3036  0.3705 -0.2120
  328MOL0     H44243   7.099   7.252   6.711 -0.7196  1.1824  0.6715
  328MOL0     H44244   6.938   7.671   6.692 -1.8353 -0.0299 -0.6521
  328MOL0     H44245   6.843   7.605   6.834  0.4960 -0.8455  0.2831
  328MOL0     H44246   7.075   7.618   6.955  0.3436 -0.2029 -0.4604
  328MOL0     H44247   7.127   7.718   6.813  1.6834  1.1870  3.0975
  328MOL0     H44248   6.881   7.796   6.977 -0.8652  1.3240 -1.7329
  328MOL0     H44249   7.051   7.845   7.017  1.7117 -0.6589 -1.9490
  328MOL0     H44250   6.928   7.886   6.735 -1.2900  0.1937 -0.4504
  328MOL0     H44251   7.058   7.979   6.797 -0.3086  0.1371 -1.5926
  328MOL0     H44252   6.862   8.042   6.981  1.0768 -0.4413 -0.5964
  328MOL0     H44253   6.747   7.990   6.856 -2.3972  3.0787 -0.5292
  328MOL0     H44254   6.959   8.200   6.841  1.9178 -1.5190 -0.9690
  328MOL0     H44255   6.851   8.155   6.692  0.1120 -1.0552  0.5379
  328MOL0     H44256   6.750   8.267   6.961 -0.4078  0.1281  0.5653
  328MOL0     H44257   6.660   8.227   6.817 -2.8518  3.0117  2.0493
  328MOL0     H44258   6.873   8.437   6.860 -0.1908  0.6185  0.3127
  328MOL0     H44259   6.807   8.392   6.702 -1.6992 -1.9126  0.2373
  328MOL0     H44260   6.818   7.551   6.573  0.8914 -0.4105 -0.6853
  328MOL0     H44261   6.743   7.402   6.405 -0.7552 -3.2716 -1.8868
  328MOL0     H44262   6.732   6.792   6.247 -1.7523  0.3413 -0.1940
  328MOL0     H44263   6.667   6.742   6.003  2.9140 -0.8044 -0.1053
  328MOL0     H44264   7.828   7.172   4.632  1.4448 -2.7767 -0.2789
  328MOL0     H44265   7.912   7.335   4.470 -0.5202  1.1357  0.6764
  328MOL0     H44266   8.130   7.710   4.365 -0.2406 -3.1084 -0.4275
  328MOL0     H44267   8.191   7.892   4.214  2.8844  1.6550 -2.0713
  328MOL0     H44268   8.474   7.773   3.893 -0.7999  0.0516 -0.2937
  328MOL0     H44269   8.571   7.878   3.998  1.3344  0.0246 -1.7181
  328MOL0     H44270   8.501   8.089   3.897 -0.8240 -0.1768  1.2576
  328MOL0     H44271   8.360   8.023   3.830  0.7579  4.7618  0.5325
  328MOL0     H44272   8.650   7.982   3.734 -0.6631 -1.4244  1.5991
  328MOL0     H44273   8.515   8.072   3.648 -0.5181  0.7593  0.8075
  328MOL0     H44274   8.536   7.776   3.673  2.0951  0.6314 -1.3735
  328MOL0     H44275   8.384   7.846   3.626 -0.4599 -0.1335  4.1257
  328MOL0     H44276   8.676   7.916   3.300 -0.3893  5.7011 -0.7823
  328MOL0     H44277   8.486   7.654   4.045 -1.4725 -1.9877  0.3404
  328MOL0     H44278   8.490   7.418   4.277  0.3550  4.8953 -0.0490
  328MOL0     H44279   8.379   7.335   4.162 -1.2877  0.6268 -0.7268
  328MOL0     H44280   8.524   7.421   4.103 -2.0192  1.6183 -1.1879
  329MOL0     O44281  10.386   4.792   9.133  0.4589  0.3769 -0.0754
  329MOL0     C44282  10.342   4.675   9.120  0.5991 -0.8344  0.6683
  329MOL0     O44283  10.241   4.620   9.184  0.6275 -0.0910 -0.0143
  329MOL0     C44284  10.126   4.688   9.220  0.0405 -0.6207  0.2208
  329MOL0     C44285  10.028   4.603   9.267 -0.1289 -0.0434  0.7529
  329MOL0     C44286   9.910   4.661   9.315  0.9379 -0.0824  0.1269
  329MOL0     C44287   9.879   4.794   9.297  0.7913  0.0286 -0.7475
  329MOL0     O44288   9.767   4.863   9.339 -0.0560  0.2372  0.2843
  329MOL0     C44289   9.685   4.803   9.444 -0.0617 -0.0924 -0.2124
  329MOL0     C44290   9.544   4.872   9.450 -0.0777  0.8358 -0.0042
  329MOL0     C44291   9.463   4.811   9.563 -0.5302  0.2394  0.6781
  329MOL0     C44292   9.326   4.865   9.556  0.3037  0.6835  0.4409
  329MOL0     C44293   9.224   4.807   9.651  0.7553  1.4052 -0.3281
  329MOL0     C44294   9.268   4.699   9.759  0.4320 -0.2446 -0.4713
  329MOL0     C44295   9.160   4.673   9.863  0.6679 -1.0034  0.5480
  329MOL0     C44296   9.014   4.652   9.804  0.2723  0.4359  0.2025
  329MOL0     N44297   8.991   4.511   9.746  0.0734  0.2237 -0.5607
  329MOL0     C44298   9.012   4.485   9.622 -0.7397  0.1278  0.9967
  329MOL0     C44299   8.993   4.351   9.616  0.3126 -0.1388  0.9342
  329MOL0     C44300   8.990   4.270   9.492  0.1213  0.0091  0.2637
  329MOL0     C44301   9.082   4.152   9.494  0.0490  0.7420  0.1262
  329MOL0     C44302   9.013   4.021   9.440  0.4472 -0.1523  0.5513
  329MOL0     C44303   9.111   3.909   9.426  0.4430  0.3136  0.5774
  329MOL0     O44304   9.174   3.873   9.553  0.5407  0.0097  0.0929
  329MOL0     C44305   9.300   3.824   9.531  0.0657 -0.7928 -0.4022
  329MOL0     C44306   9.392   3.848   9.631 -1.7772 -0.3880 -0.6304
  329MOL0     C44307   9.523   3.803   9.636 -0.0991 -0.3737  1.3885
  329MOL0     C44308   9.568   3.724   9.518 -0.3147  0.1088  0.0037
  329MOL0     C44309   9.711   3.701   9.481  0.2891 -0.3118  0.0289
  329MOL0     O44310   9.810   3.771   9.536 -0.7058 -0.2250 -0.4832
  329MOL0     C44311   9.936   3.727   9.491  0.5702  0.2728 -0.8148
  329MOL0     C44312   9.998   3.755   9.371  0.4191  0.2477  1.0438
  329MOL0     C44313  10.122   3.711   9.327  0.6923  0.7067 -0.4794
  329MOL0     C44314  10.186   3.622   9.416 -0.1683 -0.3517 -0.1438
  329MOL0     O44315  10.313   3.581   9.394  0.1142  0.2538  0.1516
  329MOL0     C44316  10.351   3.537   9.267  0.1323 -0.6915 -0.4074
  329MOL0     C44317  10.480   3.451   9.267  0.0316 -0.0264 -0.4937
  329MOL0     C44318  10.514   3.420   9.125  0.3014  0.2774  0.3080
  329MOL0     C44319  10.599   3.302   9.103  0.5775  0.3736  0.4130
  329MOL0     C44320  10.579   3.257   8.960  0.7688  0.1352 -0.5511
  329MOL0     C44321  10.667   3.139   8.924  0.3839 -0.0678  0.7105
  329MOL0     C44322  10.648   3.121   8.768 -0.0644 -0.2662 -0.3122
  329MOL0     C44323  10.719   2.989   8.733 -0.2909  0.1864  0.1290
  329MOL0    Cl44324  10.733   2.963   8.558 -0.1888 -0.2815 -0.0944
  329MOL0     C44325  10.134   3.596   9.544  0.3778 -0.2699  0.1798
  329MOL0     C44326  10.008   3.642   9.571  0.2605 -0.1776  0.4053
  329MOL0     O44327   9.730   3.611   9.404  0.0935 -0.0171  0.4810
  329MOL0     C44328   9.462   3.689   9.418 -0.4932 -0.7449 -0.6182
  329MOL0     C44329   9.332   3.736   9.431  0.4651  0.2987  0.0921
  329MOL0     N44330   8.961   4.299   9.744  0.2574 -0.1283 -0.9863
  329MOL0     N44331   8.957   4.402   9.825 -0.4546 -0.4286 -0.1939
  329MOL0     C44332   9.972   4.879   9.247  0.1300 -0.1522  0.6493
  329MOL0     C44333  10.101   4.828   9.210  0.9185  0.6398 -0.5661
  329MOL0     C44334  10.431   4.570   9.068  0.9799 -0.3393 -0.5483
  329MOL0     C44335  10.564   4.598   9.083 -0.7218  1.4343  0.1372
  329MOL0     C44336  10.654   4.491   9.048  0.3594  0.2975  0.0865
  329MOL0     C44337  10.611   4.378   8.980  0.1500  0.0897 -0.6058
  329MOL0     O44338  10.685   4.266   8.940 -0.4762 -0.6953  0.1651
  329MOL0     C44339  10.797   4.221   9.015 -0.0265 -0.1265 -0.6142
  329MOL0     C44340  10.766   4.173   9.158 -0.5833 -0.4969 -0.0797
  329MOL0     C44341  10.668   4.061   9.168  0.2781  0.4394 -0.3984
  329MOL0     C44342  10.669   4.022   9.311 -0.3263  1.0829  0.4165
  329MOL0     C44343  10.557   3.939   9.368 -0.9969 -0.1022 -0.1749
  329MOL0     C44344  10.459   3.880   9.406 -0.4716  0.2126  0.4043
  329MOL0     C44345  10.472   4.358   8.965 -0.4484  0.1846 -0.0059
  329MOL0     C44346  10.389   4.458   9.011  0.4294  0.2353  0.5586
  329MOL0     C44347  10.239   4.431   8.981  0.0419  0.7173 -0.3016
  329MOL0     H44348  10.058   4.499   9.275 -0.8587 -0.2295  1.1015
  329MOL0     H44349   9.843   4.596   9.370 -2.4931  0.9112 -2.4722
  329MOL0     H44350   9.665   4.696   9.430 -1.5079  0.5249 -4.4968
  329MOL0     H44351   9.736   4.822   9.538 -1.0675  1.5461  0.0324
  329MOL0     H44352   9.490   4.870   9.354  0.9122  0.3740 -0.5697
  329MOL0     H44353   9.559   4.974   9.486  2.9936  1.0568 -1.5582
  329MOL0     H44354   9.506   4.842   9.659 -1.2289 -3.0351  2.2035
  329MOL0     H44355   9.468   4.702   9.560  2.9645  0.3086 -0.7571
  329MOL0     H44356   9.323   4.973   9.575  1.9819  0.9388 -0.6454
  329MOL0     H44357   9.290   4.845   9.455  2.5029  1.1702 -0.4971
  329MOL0     H44358   9.200   4.891   9.717  0.3306  2.2359 -1.5121
  329MOL0     H44359   9.138   4.763   9.600  3.7957 -2.9302 -2.2863
  329MOL0     H44360   9.300   4.604   9.714  1.0302 -0.2041 -0.1497
  329MOL0     H44361   9.363   4.713   9.812  1.2763 -4.4456 -0.4832
  329MOL0     H44362   9.137   4.761   9.925  0.2233 -0.7846  0.0826
  329MOL0     H44363   9.188   4.583   9.918  5.0709 -1.4382 -1.9885
  329MOL0     H44364   8.953   4.664   9.895 -1.7772  1.4824 -1.2213
  329MOL0     H44365   8.973   4.738   9.750 -1.2541  3.1598  5.0397
  329MOL0     H44366   9.045   4.555   9.546  0.3339  0.7503  2.0094
  329MOL0     H44367   8.884   4.252   9.474 -0.2966  3.1905 -1.0318
  329MOL0     H44368   9.018   4.339   9.411  2.1286  2.3061  2.7359
  329MOL0     H44369   9.165   4.181   9.428  0.0261 -1.1843 -0.8099
  329MOL0     H44370   9.110   4.140   9.599 -0.3342  0.2019  0.1672
  329MOL0     H44371   8.965   4.036   9.343 -1.2593  1.0215  1.5286
  329MOL0     H44372   8.929   3.991   9.504  1.0440  2.4952  2.7700
  329MOL0     H44373   9.177   3.928   9.341  1.0533 -2.2523  0.4010
  329MOL0     H44374   9.059   3.819   9.391  0.3878  1.0007 -1.2196
  329MOL0     H44375   9.373   3.925   9.705 -1.3539  0.8775 -1.7926
  329MOL0     H44376   9.601   3.829   9.707 -0.1732  1.2771  0.8877
  329MOL0     H44377   9.948   3.821   9.301  1.3822 -0.3805 -0.2703
  329MOL0     H44378  10.158   3.730   9.226 -1.2966 -2.2395 -1.8778
  329MOL0     H44379  10.259   3.496   9.223 -1.3089  2.6601 -0.8683
  329MOL0     H44380  10.390   3.622   9.210 -0.5743 -0.1643 -0.1244
  329MOL0     H44381  10.561   3.511   9.309  1.4802 -1.6100 -0.8810
  329MOL0     H44382  10.483   3.364   9.334  1.3386 -0.8903 -1.5870
  329MOL0     H44383  10.424   3.408   9.064 -0.2411 -2.4564  1.5054
  329MOL0     H44384  10.568   3.501   9.074  1.4062 -0.1887  0.7209
  329MOL0     H44385  10.573   3.226   9.177  3.0110  0.2643  1.2536
  329MOL0     H44386  10.701   3.339   9.114 -0.3602  3.4927 -0.4948
  329MOL0     H44387  10.605   3.333   8.887 -1.3619 -0.2568 -1.8044
  329MOL0     H44388  10.472   3.239   8.946  0.9161  0.0564 -1.6788
  329MOL0     H44389  10.774   3.152   8.946 -0.0558  2.4743  1.6353
  329MOL0     H44390  10.630   3.049   8.973 -0.4781  0.2937  0.7435
  329MOL0     H44391  10.674   3.210   8.710 -0.3206  0.0868  0.1060
  329MOL0     H44392  10.542   3.102   8.746 -0.4279  0.0107  1.0551
  329MOL0     H44393  10.815   2.977   8.785  0.1428  1.2528 -0.3951
  329MOL0     H44394  10.653   2.912   8.775 -0.6580 -0.0772 -0.9123
  329MOL0     H44395  10.173   3.513   9.602  1.2794 -2.3957 -3.1958
  329MOL0     H44396   9.959   3.605   9.660  1.7139 -4.4759 -0.3426
  329MOL0     H44397   9.491   3.633   9.330  0.7908  1.0702 -1.4281
  329MOL0     H44398   9.255   3.698   9.364  0.9631  0.4622 -0.5904
  329MOL0     H44399   9.942   4.983   9.231  0.4165 -0.4632 -2.7258
  329MOL0     H44400  10.175   4.890   9.160 -0.8033  0.0573 -4.1708
  329MOL0     H44401  10.602   4.687   9.132 -4.1250  2.8327  0.5002
  329MOL0     H44402  10.761   4.512   9.046  0.0141  2.2798  0.7590
  329MOL0     H44403  10.872   4.299   9.030 -0.1796 -0.4218  2.1380
  329MOL0     H44404  10.847   4.140   8.960  0.0824  0.6992 -1.7757
  329MOL0     H44405  10.724   4.264   9.204  0.3331 -0.3235  0.4348
  329MOL0     H44406  10.853   4.144   9.218 -2.1616  0.9112  3.1916
  329MOL0     H44407  10.712   3.980   9.109  0.7026  1.5943 -1.7122
  329MOL0     H44408  10.563   4.064   9.138 -0.7248 -1.1777  2.5300
  329MOL0     H44409  10.755   3.955   9.319 -2.1389 -1.5833 -0.7651
  329MOL0     H44410  10.684   4.107   9.378 -0.4646  1.6673 -0.2861
  329MOL0     H44411  10.394   3.810   9.456 -0.8302  1.6066  1.9803
  329MOL0     H44412  10.426   4.265   8.931 -0.1628 -0.7012  1.8928
  329MOL0     H44413  10.233   4.362   8.896 -1.6411  0.0557  0.2955
  329MOL0     H44414  10.184   4.382   9.062 -0.3700  0.8593 -0.4879
  329MOL0     H44415  10.187   4.521   8.947  0.3036  1.1827  0.5062
  330MOL0     O44416  10.103   2.606   4.642  0.2966 -0.4993 -0.2626
  330MOL0     C44417  10.020   2.668   4.715 -0.6759  0.4934  0.7713
  330MOL0     O44418   9.929   2.603   4.792  0.1571 -0.4654  0.0629
  330MOL0     C44419   9.923   2.464   4.792 -0.3089 -0.6951 -0.1157
  330MOL0     C44420   9.809   2.397   4.741  0.1929  0.9015 -0.2163
  330MOL0     C44421   9.813   2.258   4.752  0.0094  1.1205  0.6106
  330MOL0     C44422   9.901   2.192   4.837 -0.4470  0.1130 -1.3258
  330MOL0     O44423   9.894   2.058   4.869 -0.8497 -0.0699 -0.3983
  330MOL0     C44424   9.762   1.999   4.871  0.8199 -0.2825 -0.8410
  330MOL0     C44425   9.755   1.869   4.797  0.3027 -0.3566  0.7810
  330MOL0     C44426   9.821   1.755   4.871  0.5984  0.3626  0.7749
  330MOL0     C44427   9.774   1.621   4.851  0.6041  0.5259 -0.6127
  330MOL0     C44428   9.847   1.507   4.937 -0.3263  0.0708  0.5628
  330MOL0     C44429   9.753   1.387   4.904 -0.0173  0.9262 -0.8687
  330MOL0     C44430   9.817   1.254   4.953 -0.0769  0.2884  0.0391
  330MOL0     C44431   9.835   1.251   5.106  0.1015 -0.4766  0.3543
  330MOL0     N44432   9.708   1.277   5.165 -0.2020 -0.1952 -0.0575
  330MOL0     C44433   9.603   1.190   5.162 -0.9467  0.0656 -0.3151
  330MOL0     C44434   9.514   1.250   5.248 -0.1693  0.5466 -0.2572
  330MOL0     C44435   9.366   1.208   5.268  0.0764  0.2291 -0.3847
  330MOL0     C44436   9.352   1.076   5.347 -0.5774 -0.9826  0.5774
  330MOL0     C44437   9.207   1.044   5.353  0.6441  0.8436 -0.3967
  330MOL0     C44438   9.184   0.910   5.411  0.7491 -0.1628 -0.1747
  330MOL0     O44439   9.208   0.813   5.308  0.3019  0.5706 -0.0351
  330MOL0     C44440   9.123   0.704   5.306 -0.2480  0.6786 -0.4644
  330MOL0     C44441   9.050   0.690   5.193  0.3040  0.3754  0.6439
  330MOL0     C44442   8.961   0.579   5.168 -0.3273 -0.2964  0.0057
  330MOL0     C44443   8.935   0.483   5.269  0.2691 -0.4716  0.1169
  330MOL0     C44444   8.836   0.376   5.251  0.6773  0.4655  0.1665
  330MOL0     O44445   8.797   0.349   5.124 -0.3156  0.3546 -0.0939
  330MOL0     C44446   8.713   0.236   5.105 -0.6217  0.6083  0.1839
  330MOL0     C44447   8.761   0.123   5.040  0.7446 -0.1205  0.9372
  330MOL0     C44448   8.671   0.021   5.012 -0.4234 -0.6006  0.7640
  330MOL0     C44449   8.531   0.034   5.040  0.7900 -0.4820 -0.2783
  330MOL0     O44450   8.449  -0.061   4.980 -0.3504 -0.3136 -0.3622
  330MOL0     C44451   8.307  -0.091   5.006 -0.1358  0.4800 -1.2664
  330MOL0     C44452   8.215  -0.016   4.914  0.2733 -0.4905 -0.1855
  330MOL0     C44453   8.070  -0.066   4.923  0.0773  0.6400 -0.1155
  330MOL0     C44454   7.965   0.019   4.854 -0.3414  0.3140 -0.0219
  330MOL0     C44455   7.904  -0.059   4.747  0.4716 -0.0236  0.1430
  330MOL0     C44456   8.006  -0.066   4.626 -0.2607  0.0907  0.7613
  330MOL0     C44457   7.932  -0.077   4.491  0.2765  0.5218 -0.4146
  330MOL0     C44458   8.013  -0.130   4.374  0.4252  0.1390  0.1227
  330MOL0    Cl44459   7.885  -0.165   4.260 -0.5497 -0.3247 -0.1314
  330MOL0     C44460   8.486   0.156   5.089  0.2867 -0.4700  0.1940
  330MOL0     C44461   8.574   0.259   5.119  0.1304 -0.1089  0.4857
  330MOL0     O44462   8.799   0.327   5.354 -0.2949 -0.2709  0.0620
  330MOL0     C44463   9.006   0.499   5.388 -1.0248 -0.9662  0.0137
  330MOL0     C44464   9.103   0.613   5.409  0.2155  0.2847 -0.8399
  330MOL0     N44465   9.564   1.366   5.307 -0.4581 -0.3772 -0.1213
  330MOL0     N44466   9.676   1.380   5.249 -0.4452  0.2856  0.7453
  330MOL0     C44467  10.009   2.266   4.888  0.4366 -0.2206  0.4119
  330MOL0     C44468  10.018   2.400   4.860 -0.6016 -0.0132  0.2032
  330MOL0     C44469  10.011   2.814   4.718  0.9269  0.6537  0.3410
  330MOL0     C44470   9.903   2.870   4.793 -0.9207  0.6315  1.2301
  330MOL0     C44471   9.880   3.011   4.798  0.0973 -0.5831 -0.7754
  330MOL0     C44472   9.968   3.092   4.722  0.0011 -0.3941 -0.0416
  330MOL0     O44473   9.933   3.226   4.742  0.4430  0.3988  0.0943
  330MOL0     C44474  10.018   3.323   4.678  0.0786 -0.7041  1.0429
  330MOL0     C44475   9.948   3.459   4.683 -0.1327  1.4130 -0.0300
  330MOL0     C44476   9.922   3.502   4.822  0.1281  0.2489 -0.7278
  330MOL0     C44477   9.825   3.622   4.843 -0.5167  0.7458 -0.4609
  330MOL0     C44478   9.814   3.728   4.738  0.1744  0.9948 -0.0918
  330MOL0     C44479   9.788   3.810   4.654 -1.3695 -0.2049  0.1201
  330MOL0     C44480  10.080   3.041   4.652  0.9900 -0.3255  0.1105
  330MOL0     C44481  10.107   2.897   4.655 -0.2404 -0.4919  0.0984
  330MOL0     C44482  10.216   2.850   4.555 -0.4029 -0.2471  0.0483
  330MOL0     H44483   9.723   2.445   4.696 -1.1081 -1.5028 -0.4396
  330MOL0     H44484   9.748   2.186   4.704 -0.9165  0.2058  3.0915
  330MOL0     H44485   9.727   1.988   4.975 -2.2325  0.5455 -1.6822
  330MOL0     H44486   9.678   2.062   4.840 -0.5838  0.3031  3.4282
  330MOL0     H44487   9.800   1.873   4.697 -2.3442 -1.2950 -0.5523
  330MOL0     H44488   9.651   1.844   4.778  0.2533 -1.4656  2.3569
  330MOL0     H44489   9.830   1.787   4.975 -0.8101  2.9159  0.2027
  330MOL0     H44490   9.924   1.751   4.834  0.1620 -0.0226 -0.4540
  330MOL0     H44491   9.665   1.618   4.864  0.0308  0.2272 -4.4750
  330MOL0     H44492   9.785   1.599   4.745 -4.3491 -2.2527 -0.8538
  330MOL0     H44493   9.952   1.494   4.912 -0.2386  1.5250  0.0473
  330MOL0     H44494   9.842   1.524   5.045 -0.0254  3.1393  0.1903
  330MOL0     H44495   9.653   1.400   4.948  0.3676 -0.6791  0.5725
  330MOL0     H44496   9.734   1.376   4.797 -1.2373 -0.0981 -0.5747
  330MOL0     H44497   9.920   1.247   4.915  0.0221 -1.3200  0.5243
  330MOL0     H44498   9.761   1.169   4.915  3.0504 -1.6279 -0.7084
  330MOL0     H44499   9.868   1.150   5.132  3.0388  0.0727 -0.8281
  330MOL0     H44500   9.904   1.320   5.156  1.1207 -2.9175  2.5372
  330MOL0     H44501   9.579   1.102   5.103 -2.1476 -1.1554  1.8817
  330MOL0     H44502   9.324   1.280   5.339 -0.3223 -1.4821  1.1972
  330MOL0     H44503   9.308   1.214   5.176 -2.5691  0.7689  1.1976
  330MOL0     H44504   9.420   1.008   5.294 -0.2690 -0.6749  0.5744
  330MOL0     H44505   9.385   1.085   5.451 -0.4419  0.0589  0.4477
  330MOL0     H44506   9.151   1.045   5.258  3.0409  0.0872 -1.9112
  330MOL0     H44507   9.166   1.106   5.433  1.5748 -2.7444  3.1697
  330MOL0     H44508   9.084   0.896   5.455  1.9463 -0.7716  2.6111
  330MOL0     H44509   9.253   0.895   5.495 -2.1433 -0.7312  2.2835
  330MOL0     H44510   9.056   0.771   5.120 -0.8076  0.4267  0.5860
  330MOL0     H44511   8.897   0.595   5.082  1.4505  3.2551 -0.8562
  330MOL0     H44512   8.866   0.109   5.019  1.1530 -1.7493  3.5972
  330MOL0     H44513   8.709  -0.069   4.966 -3.0677 -1.4823  0.1231
  330MOL0     H44514   8.299  -0.195   4.973  5.3905 -0.1881 -1.3728
  330MOL0     H44515   8.271  -0.085   5.109 -1.8135 -3.2446 -1.4852
  330MOL0     H44516   8.204   0.086   4.953 -0.8065 -1.6007  2.7309
  330MOL0     H44517   8.252  -0.015   4.811 -0.1017  1.0339 -0.3431
  330MOL0     H44518   8.057  -0.171   4.896 -2.0093  1.8794 -4.9973
  330MOL0     H44519   8.044  -0.048   5.028  0.6590 -0.5226  0.2440
  330MOL0     H44520   8.011   0.108   4.811  2.3307 -1.3712 -0.8601
  330MOL0     H44521   7.899   0.065   4.928  1.8732  1.8932  1.0787
  330MOL0     H44522   7.820   0.005   4.721  0.6702  1.8311  3.5822
  330MOL0     H44523   7.868  -0.156   4.782  0.3673 -0.0275  0.0260
  330MOL0     H44524   8.069   0.021   4.608  2.0735 -1.7330 -0.3618
  330MOL0     H44525   8.074  -0.152   4.625 -0.7170 -0.2813  0.7907
  330MOL0     H44526   7.889   0.020   4.468 -1.1994  0.4972  2.0032
  330MOL0     H44527   7.846  -0.142   4.508 -2.1244  3.5579 -0.1621
  330MOL0     H44528   8.085  -0.055   4.341  2.7466 -2.3504 -0.9350
  330MOL0     H44529   8.060  -0.226   4.398  1.9636  1.2043  1.6693
  330MOL0     H44530   8.378   0.169   5.095  0.2903  0.5020 -1.2677
  330MOL0     H44531   8.544   0.356   5.156 -2.3156 -0.7313  0.2664
  330MOL0     H44532   8.995   0.427   5.468 -0.1184 -1.4195 -0.2625
  330MOL0     H44533   9.153   0.617   5.506  1.7977  0.4136 -1.6274
  330MOL0     H44534  10.078   2.204   4.946 -0.9184 -3.3257 -1.0532
  330MOL0     H44535  10.110   2.450   4.887  0.0619  0.7090 -2.9392
  330MOL0     H44536   9.841   2.806   4.855  0.7085 -0.4020  1.8561
  330MOL0     H44537   9.789   3.051   4.844  0.2335 -1.2931  0.1516
  330MOL0     H44538  10.041   3.303   4.573  3.4945  1.1248  1.3168
  330MOL0     H44539  10.114   3.322   4.729  1.8426  0.9008 -1.9453
  330MOL0     H44540   9.854   3.449   4.629 -0.9565  0.9333  1.4315
  330MOL0     H44541  10.013   3.534   4.637  0.4370  1.4028  0.7301
  330MOL0     H44542  10.022   3.520   4.864  0.6539 -1.0996 -1.3216
  330MOL0     H44543   9.879   3.418   4.878  1.4285 -1.1095 -1.6521
  330MOL0     H44544   9.719   3.599   4.856 -1.3651  3.8942 -0.9774
  330MOL0     H44545   9.854   3.671   4.937  2.3214  2.4241 -2.0902
  330MOL0     H44546   9.766   3.887   4.581  0.6035 -1.3305 -1.7670
  330MOL0     H44547  10.143   3.102   4.588 -2.1357  1.1751 -1.7614
  330MOL0     H44548  10.278   2.935   4.523  0.9013 -0.6987  1.2674
  330MOL0     H44549  10.280   2.784   4.615  2.0903  0.7558 -1.3451
  330MOL0     H44550  10.178   2.805   4.463  1.6184  2.3630 -2.2375
  331MOL0     O44551   4.712  10.512  10.487  0.4929 -0.5674  0.5575
  331MOL0     C44552   4.819  10.448  10.500  0.4710  0.2629 -0.5696
  331MOL0     O44553   4.863  10.342  10.420 -0.3348  0.3696  1.0196
  331MOL0     C44554   4.764  10.293  10.337  0.2921  0.2210 -0.0633
  331MOL0     C44555   4.649  10.230  10.383  0.0647 -1.1926 -1.1091
  331MOL0     C44556   4.548  10.170  10.302  0.5621 -0.3717 -0.3244
  331MOL0     C44557   4.569  10.187  10.157  0.1945  0.9303 -0.0924
  331MOL0     O44558   4.487  10.116  10.073  0.3385  0.0646  0.6063
  331MOL0     C44559   4.348  10.151  10.064 -0.2245 -0.1222  0.3179
  331MOL0     C44560   4.305  10.102   9.923 -0.7325  0.6738 -0.3526
  331MOL0     C44561   4.343  10.194   9.809 -0.8338  0.4979  0.2298
  331MOL0     C44562   4.267  10.186   9.672 -0.8494 -0.1583 -0.7258
  331MOL0     C44563   4.286  10.047   9.610 -0.1105 -0.5947  0.1580
  331MOL0     C44564   4.231  10.050   9.461 -0.3269 -0.8073  0.2834
  331MOL0     C44565   4.089  10.019   9.436 -0.1063  0.1962 -0.5906
  331MOL0     C44566   4.057   9.863   9.435 -0.9173  0.7283 -0.4367
  331MOL0     N44567   3.919   9.834   9.397  0.0228 -1.0831 -0.3324
  331MOL0     C44568   3.869   9.708   9.419  0.1780  0.1334 -0.0884
  331MOL0     C44569   3.762   9.694   9.332  0.7123  0.6356 -0.0444
  331MOL0     C44570   3.698   9.563   9.305  0.7973  0.3718 -0.2796
  331MOL0     C44571   3.568   9.538   9.388 -0.6681 -0.5154 -0.0204
  331MOL0     C44572   3.479   9.449   9.295  0.4449  0.3107  0.2842
  331MOL0     C44573   3.343   9.431   9.358 -0.9116  1.1258 -0.3455
  331MOL0     O44574   3.266   9.554   9.362  0.1667 -0.5840 -0.2702
  331MOL0     C44575   3.166   9.575   9.263 -0.5212  0.8412 -1.3164
  331MOL0     C44576   3.081   9.680   9.287 -0.1460 -0.8011  0.0628
  331MOL0     C44577   2.991   9.720   9.191  0.8255  0.6068 -0.7030
  331MOL0     C44578   2.985   9.656   9.065  0.4061  0.6057  0.0348
  331MOL0     C44579   2.881   9.690   8.957 -0.5391  0.3493  0.1848
  331MOL0     O44580   2.792   9.783   9.004  0.0452 -0.2161 -0.0798
  331MOL0     C44581   2.768   9.877   8.912  0.2927  0.2283  0.2019
  331MOL0     C44582   2.849   9.988   8.909 -0.1942  0.1916  0.3815
  331MOL0     C44583   2.817  10.095   8.829  0.3191 -0.0808 -0.5685
  331MOL0     C44584   2.700  10.091   8.754  0.0420 -0.4089  0.3959
  331MOL0     O44585   2.667  10.192   8.668  0.0375  0.0633 -0.1779
  331MOL0     C44586   2.538  10.248   8.664 -0.4342 -0.6028  0.6229
  331MOL0     C44587   2.517  10.375   8.577 -0.6231  0.1818 -1.1471
  331MOL0     C44588   2.375  10.426   8.582  0.1169  0.3213  0.7197
  331MOL0     C44589   2.352  10.530   8.477 -0.3273  0.3177 -0.5852
  331MOL0     C44590   2.213  10.595   8.491  0.2385  0.4128  0.1947
  331MOL0     C44591   2.189  10.722   8.400 -0.1761  0.5991 -0.4625
  331MOL0     C44592   2.045  10.769   8.399 -0.6002  1.1127  0.5228
  331MOL0     C44593   2.029  10.889   8.307  0.0417  0.2593 -0.1118
  331MOL0    Cl44594   1.862  10.926   8.269 -0.0724  0.0038  0.5257
  331MOL0     C44595   2.617   9.981   8.761 -0.0153 -0.2430 -0.6206
  331MOL0     C44596   2.646   9.874   8.843 -0.9955 -0.3853 -0.9310
  331MOL0     O44597   2.883   9.631   8.853 -0.6024 -0.1994  0.3333
  331MOL0     C44598   3.070   9.551   9.038  0.0649 -0.0036 -0.3448
  331MOL0     C44599   3.166   9.517   9.136  0.0633 -0.0146  0.5331
  331MOL0     N44600   3.744   9.814   9.269 -0.0247 -0.0718 -0.5796
  331MOL0     N44601   3.841   9.896   9.302 -0.2269 -0.4038 -0.8930
  331MOL0     C44602   4.683  10.243  10.111 -0.2164 -0.1168 -1.0817
  331MOL0     C44603   4.776  10.301  10.195 -0.1160  0.3320 -0.2861
  331MOL0     C44604   4.912  10.495  10.612 -0.0974  0.6240 -0.1768
  331MOL0     C44605   4.851  10.517  10.738 -0.4350 -0.7549  0.3679
  331MOL0     C44606   4.923  10.581  10.837  0.3629 -0.1993  0.5181
  331MOL0     C44607   5.058  10.619  10.814 -1.0232 -0.2043 -1.9420
  331MOL0     O44608   5.143  10.665  10.916 -0.6511 -0.0563  0.2827
  331MOL0     C44609   5.226  10.570  10.994 -0.2079  0.0674  0.3321
  331MOL0     C44610   5.175  10.549  11.127  0.6823  0.9778 -0.7976
  331MOL0     C44611   5.233  10.428  11.202  0.1465  0.1517 -0.0348
  331MOL0     C44612   5.373  10.385  11.162  0.3049  0.3641 -1.3569
  331MOL0     C44613   5.435  10.284  11.255 -0.1506 -0.1586  0.5351
  331MOL0     C44614   5.489  10.195  11.321  0.3263 -0.6385  0.3511
  331MOL0     C44615   5.119  10.596  10.689 -0.2145 -0.2352 -0.2323
  331MOL0     C44616   5.043  10.540  10.579  0.3754  0.6744 -0.9280
  331MOL0     C44617   5.104  10.511  10.440 -0.5915 -0.1455  1.0287
  331MOL0     H44618   4.642  10.220  10.491  2.0362  0.7544 -0.7368
  331MOL0     H44619   4.465  10.114  10.343  0.1377  1.7646  2.0057
  331MOL0     H44620   4.297  10.109  10.151  0.5571 -1.4200  0.1726
  331MOL0     H44621   4.326  10.258  10.064 -0.7503 -0.2196 -0.9351
  331MOL0     H44622   4.199  10.075   9.928 -0.3115 -1.5197 -1.7069
  331MOL0     H44623   4.355  10.007   9.903 -1.2190  0.6948 -1.7668
  331MOL0     H44624   4.449  10.185   9.788 -0.5468 -0.5338  1.9196
  331MOL0     H44625   4.337  10.300   9.838  2.8039  0.6939  0.7185
  331MOL0     H44626   4.161  10.211   9.686 -1.4989 -2.7249 -0.5071
  331MOL0     H44627   4.305  10.263   9.605 -2.7976  2.1943  0.6875
  331MOL0     H44628   4.395  10.037   9.609 -0.1066 -0.7017 -1.1124
  331MOL0     H44629   4.243   9.962   9.663 -0.2831 -0.2130  0.6352
  331MOL0     H44630   4.242  10.149   9.416 -2.1541  2.3594  5.9330
  331MOL0     H44631   4.289   9.969   9.415 -1.1764 -2.0024  1.2328
  331MOL0     H44632   4.058  10.053   9.336 -1.7636 -2.3371 -1.0113
  331MOL0     H44633   4.031  10.073   9.512  1.3563 -0.0535  0.7464
  331MOL0     H44634   4.119   9.824   9.354 -1.0695 -0.0956 -0.1654
  331MOL0     H44635   4.085   9.821   9.532  1.0677 -1.3614 -1.7942
  331MOL0     H44636   3.916   9.631   9.479  0.1242 -0.3642 -0.6772
  331MOL0     H44637   3.665   9.576   9.202  1.6548 -2.7612 -1.0502
  331MOL0     H44638   3.772   9.483   9.295  0.8979  0.6028 -1.5763
  331MOL0     H44639   3.584   9.486   9.483 -2.3743  0.4568  0.8281
  331MOL0     H44640   3.515   9.631   9.406  2.3175  0.9405  2.1697
  331MOL0     H44641   3.523   9.349   9.299  0.9504  0.4334 -1.3818
  331MOL0     H44642   3.463   9.490   9.195  2.2159 -0.7226 -0.4732
  331MOL0     H44643   3.361   9.397   9.460  2.1571 -1.1488 -1.5067
  331MOL0     H44644   3.289   9.350   9.307 -0.9048  2.7082 -3.0832
  331MOL0     H44645   3.083   9.725   9.386  5.2989  0.2438 -0.1924
  331MOL0     H44646   2.937   9.809   9.220 -1.3995 -2.0688  4.6467
  331MOL0     H44647   2.936   9.973   8.971  2.2309 -1.2339 -3.0614
  331MOL0     H44648   2.875  10.186   8.829 -3.1635  2.3426 -1.2832
  331MOL0     H44649   2.472  10.174   8.616  1.2144 -0.5131 -1.9787
  331MOL0     H44650   2.504  10.275   8.764 -0.4206 -1.7327  0.9530
  331MOL0     H44651   2.578  10.454   8.621  0.2597 -1.5649  0.9450
  331MOL0     H44652   2.540  10.336   8.477 -0.4802 -0.5111 -0.8487
  331MOL0     H44653   2.310  10.341   8.558 -2.0976  1.2285  2.9362
  331MOL0     H44654   2.342  10.450   8.684 -2.6902 -2.0998  0.5341
  331MOL0     H44655   2.349  10.488   8.376 -4.9278 -2.1222  0.2952
  331MOL0     H44656   2.426  10.609   8.497 -0.4535 -0.2949  2.8652
  331MOL0     H44657   2.202  10.622   8.596  0.1912  0.6093  0.1386
  331MOL0     H44658   2.140  10.516   8.472  1.3081 -0.2573 -1.3218
  331MOL0     H44659   2.248  10.802   8.445  1.6480 -1.1848  0.4574
  331MOL0     H44660   2.235  10.701   8.303  2.4488  3.9977 -0.1381
  331MOL0     H44661   2.023  10.806   8.500 -0.8555  3.8037 -0.4413
  331MOL0     H44662   1.976  10.690   8.370  1.7749 -1.9385  2.5009
  331MOL0     H44663   2.060  10.986   8.347 -0.2998  0.0039  0.8140
  331MOL0     H44664   2.072  10.879   8.207  1.8400  2.3438  0.3774
  331MOL0     H44665   2.535   9.970   8.690 -0.1763  0.3770 -0.5350
  331MOL0     H44666   2.575   9.792   8.849 -1.1766 -0.1880 -0.3339
  331MOL0     H44667   3.074   9.497   8.944  0.4914  0.2122 -0.4548
  331MOL0     H44668   3.239   9.439   9.115  2.0497  1.7237  0.6708
  331MOL0     H44669   4.689  10.244  10.003 -1.6283 -0.1665 -1.1822
  331MOL0     H44670   4.870  10.344  10.159  0.7593 -0.6529  0.7602
  331MOL0     H44671   4.743  10.504  10.748 -0.3526 -1.1834  0.7685
  331MOL0     H44672   4.870  10.604  10.929 -1.9834 -0.8215 -0.6076
  331MOL0     H44673   5.321  10.623  11.001 -1.1972  2.1936 -1.3946
  331MOL0     H44674   5.238  10.471  10.949  1.5108  0.1826  0.4662
  331MOL0     H44675   5.068  10.531  11.118  0.9004 -1.3150  0.3802
  331MOL0     H44676   5.184  10.633  11.198 -1.2753  0.7176 -0.1799
  331MOL0     H44677   5.162  10.345  11.188 -0.5335  0.7445 -0.1859
  331MOL0     H44678   5.228  10.451  11.309  0.4880  0.4268 -0.0793
  331MOL0     H44679   5.370  10.338  11.064 -2.1102 -1.4563 -0.5014
  331MOL0     H44680   5.430  10.479  11.166  1.3956 -0.3263  0.6208
  331MOL0     H44681   5.522  10.110  11.377  1.5950  0.3938  1.2290
  331MOL0     H44682   5.217  10.634  10.661 -1.1503  0.2607 -3.2058
  331MOL0     H44683   5.032  10.538  10.363 -0.0028  0.6876  0.7554
  331MOL0     H44684   5.198  10.564  10.423 -1.7869  1.9919  0.7386
  331MOL0     H44685   5.120  10.403  10.435 -2.4442 -0.4385  0.5812
  332MOL0     O44686   8.676   0.279   6.790 -0.9240  0.4396 -0.5923
  332MOL0     C44687   8.649   0.321   6.898 -0.2589 -0.1995 -0.9668
  332MOL0     O44688   8.680   0.271   7.015  0.2198  0.3488 -0.2363
  332MOL0     C44689   8.753   0.153   7.013 -0.6350  0.1317  0.5950
  332MOL0     C44690   8.892   0.147   7.018 -0.5210  0.5680  0.2137
  332MOL0     C44691   8.952   0.018   7.041  0.2110 -0.2054  0.0272
  332MOL0     C44692   8.883  -0.102   7.066  0.5742  0.7073  1.0403
  332MOL0     O44693   8.961  -0.196   7.130 -0.1287  0.2394  0.2233
  332MOL0     C44694   8.882  -0.297   7.195 -0.0294  1.1758 -0.5600
  332MOL0     C44695   8.971  -0.389   7.270  0.1752 -0.1655 -0.1304
  332MOL0     C44696   8.896  -0.478   7.373  0.2568  0.6177  0.2027
  332MOL0     C44697   8.827  -0.602   7.306  0.2139 -0.2073  0.2985
  332MOL0     C44698   8.759  -0.702   7.397 -0.0072  0.5180 -0.6242
  332MOL0     C44699   8.616  -0.665   7.429  0.5471  0.0644  0.1142
  332MOL0     C44700   8.528  -0.787   7.460 -0.0616  0.1800  0.5543
  332MOL0     C44701   8.414  -0.749   7.555  0.6293  0.5498  0.0737
  332MOL0     N44702   8.290  -0.707   7.500 -0.5066  0.4912 -0.2823
  332MOL0     C44703   8.229  -0.774   7.390 -0.0454 -0.0588  0.0167
  332MOL0     C44704   8.139  -0.681   7.351 -0.1837  0.2377  0.6911
  332MOL0     C44705   8.046  -0.705   7.233  0.0719 -0.4612  0.8449
  332MOL0     C44706   8.000  -0.568   7.172 -0.1228 -0.2725  1.0912
  332MOL0     C44707   7.865  -0.527   7.234  0.2308 -0.1967 -0.1018
  332MOL0     C44708   7.806  -0.400   7.181 -0.1594  0.3371  0.1884
  332MOL0     O44709   7.775  -0.419   7.038  0.0538 -0.2136 -0.2335
  332MOL0     C44710   7.660  -0.482   7.005  0.5725 -0.1539  0.5619
  332MOL0     C44711   7.533  -0.480   7.074  0.3058  0.8716 -0.6562
  332MOL0     C44712   7.421  -0.541   7.025 -0.0390 -0.0259 -0.8552
  332MOL0     C44713   7.412  -0.583   6.890  0.1346 -0.4656 -0.4730
  332MOL0     C44714   7.285  -0.637   6.834  0.7909 -0.7306  0.3119
  332MOL0     O44715   7.159  -0.611   6.905 -1.3555 -0.7615  0.7010
  332MOL0     C44716   7.061  -0.701   6.883  0.1002 -0.9643  0.9399
  332MOL0     C44717   7.075  -0.828   6.920  0.5149  0.0246  0.1974
  332MOL0     C44718   6.968  -0.921   6.900 -0.3101  0.9095  0.6708
  332MOL0     C44719   6.852  -0.884   6.834  0.6270 -0.0967 -0.2100
  332MOL0     O44720   6.761  -0.980   6.804 -0.0644  0.2847 -0.0389
  332MOL0     C44721   6.792  -1.078   6.715 -0.0170  0.3807  0.3461
  332MOL0     C44722   6.659  -1.096   6.632  0.8335  1.5869 -0.2318
  332MOL0     C44723   6.670  -1.216   6.527  1.0723 -0.1556 -0.1143
  332MOL0     C44724   6.560  -1.216   6.413  0.5536  0.4849 -0.6216
  332MOL0     C44725   6.594  -1.325   6.307 -0.7630  0.4348  0.7487
  332MOL0     C44726   6.495  -1.364   6.194 -0.9592  0.5334  0.0212
  332MOL0     C44727   6.367  -1.431   6.247  0.2001  0.1700 -1.1642
  332MOL0     C44728   6.274  -1.488   6.134 -0.2443  0.8513 -0.6571
  332MOL0    Cl44729   6.146  -1.609   6.213  0.0923 -0.2251 -0.4511
  332MOL0     C44730   6.837  -0.753   6.791 -0.2839  0.5416  0.0525
  332MOL0     C44731   6.939  -0.659   6.818  0.0020 -0.3644 -0.4341
  332MOL0     O44732   7.297  -0.701   6.731  0.3529 -0.0632  0.3355
  332MOL0     C44733   7.538  -0.581   6.823 -0.2954  1.1172 -0.7358
  332MOL0     C44734   7.665  -0.541   6.876 -0.2462 -0.2795  0.2851
  332MOL0     N44735   8.151  -0.564   7.428  0.0239  0.5454 -1.1347
  332MOL0     N44736   8.236  -0.582   7.522 -0.7288  0.3231  1.5456
  332MOL0     C44737   8.744  -0.093   7.040  0.2350  0.1472 -0.4434
  332MOL0     C44738   8.680   0.029   7.023 -0.3475 -0.5910 -0.0844
  332MOL0     C44739   8.557   0.443   6.905 -0.7261 -0.0145  0.6985
  332MOL0     C44740   8.546   0.509   7.030  0.2899  0.1535  0.8866
  332MOL0     C44741   8.472   0.618   7.047  0.6940  0.0815  0.4614
  332MOL0     C44742   8.382   0.658   6.943  0.8277 -0.2705 -0.4929
  332MOL0     O44743   8.302   0.767   6.970 -0.3416 -0.8172 -0.7620
  332MOL0     C44744   8.210   0.830   6.874 -0.2572 -0.1525 -0.2697
  332MOL0     C44745   8.120   0.929   6.959 -0.3166 -0.7477  0.9723
  332MOL0     C44746   8.192   1.047   7.022  0.2694  0.0238 -0.7089
  332MOL0     C44747   8.218   1.165   6.926 -0.6880 -0.1135  0.7460
  332MOL0     C44748   8.265   1.284   6.998  0.7917 -0.2029 -0.0135
  332MOL0     C44749   8.287   1.378   7.076  0.0380 -0.2189 -0.1633
  332MOL0     C44750   8.378   0.592   6.818 -0.5477  1.1883  0.1624
  332MOL0     C44751   8.466   0.481   6.799 -0.5570  0.2325 -0.7287
  332MOL0     C44752   8.469   0.431   6.652 -0.2183  0.0936 -0.5909
  332MOL0     H44753   8.955   0.234   7.029  1.5345 -1.0099  1.8841
  332MOL0     H44754   9.060   0.027   7.048  0.1443 -0.3301  1.4580
  332MOL0     H44755   8.801  -0.255   7.256 -0.3619  0.8994 -0.8100
  332MOL0     H44756   8.824  -0.358   7.126 -4.2586  2.4108  1.5564
  332MOL0     H44757   9.038  -0.327   7.330 -2.0648  1.5652  0.7638
  332MOL0     H44758   9.030  -0.447   7.199 -2.3153  0.4730 -2.9709
  332MOL0     H44759   8.812  -0.429   7.423 -0.1978  1.3992 -1.2649
  332MOL0     H44760   8.962  -0.520   7.449 -3.0149 -2.2553  1.7685
  332MOL0     H44761   8.763  -0.572   7.222  1.7180 -0.0155 -0.8487
  332MOL0     H44762   8.918  -0.651   7.269  1.9692  1.5688  1.9886
  332MOL0     H44763   8.759  -0.798   7.344 -2.6558  0.3971 -0.5581
  332MOL0     H44764   8.826  -0.703   7.483 -1.7019  0.5797  0.7585
  332MOL0     H44765   8.610  -0.604   7.520 -4.4085  0.0540  0.0862
  332MOL0     H44766   8.568  -0.606   7.351 -0.3187  1.4649  1.6251
  332MOL0     H44767   8.594  -0.859   7.510  1.8944  0.8489 -0.9178
  332MOL0     H44768   8.483  -0.832   7.371 -2.5233 -2.3203  2.8675
  332MOL0     H44769   8.382  -0.831   7.620 -2.0787 -1.1221 -3.0282
  332MOL0     H44770   8.439  -0.674   7.630 -2.3198 -1.7314  3.7506
  332MOL0     H44771   8.251  -0.875   7.356  2.4422  0.9406 -1.6198
  332MOL0     H44772   8.117  -0.749   7.162 -0.7258 -2.4389  1.2029
  332MOL0     H44773   7.961  -0.771   7.252 -0.0875 -1.0114 -1.4658
  332MOL0     H44774   8.068  -0.484   7.193 -2.4496  1.9126  0.3889
  332MOL0     H44775   7.995  -0.597   7.066  1.0850 -0.5541  1.0939
  332MOL0     H44776   7.861  -0.513   7.343 -0.7411 -0.1319 -0.1351
  332MOL0     H44777   7.798  -0.608   7.204 -1.7825  1.2178  0.3614
  332MOL0     H44778   7.881  -0.324   7.205  1.4974 -1.5590  1.3465
  332MOL0     H44779   7.718  -0.384   7.244  0.0943 -1.1091  0.9632
  332MOL0     H44780   7.521  -0.446   7.176 -0.7614 -0.6555 -0.2529
  332MOL0     H44781   7.329  -0.541   7.083 -2.3804 -0.1800 -4.2722
  332MOL0     H44782   7.168  -0.855   6.970  0.3832  1.8172  1.4854
  332MOL0     H44783   6.977  -1.025   6.929 -1.0888 -0.0600 -2.2182
  332MOL0     H44784   6.874  -1.049   6.650  0.1019  0.6373  0.6110
  332MOL0     H44785   6.809  -1.178   6.757  2.5158  0.2503 -0.7898
  332MOL0     H44786   6.577  -1.128   6.698  4.0872 -3.8123  1.7630
  332MOL0     H44787   6.628  -1.005   6.579  1.1975  1.0275 -1.4173
  332MOL0     H44788   6.765  -1.208   6.472  0.7407  1.7652 -0.4467
  332MOL0     H44789   6.663  -1.308   6.586 -3.6354 -1.2674 -1.9496
  332MOL0     H44790   6.547  -1.123   6.358 -4.3176  1.8017  2.2048
  332MOL0     H44791   6.459  -1.229   6.452  0.1083 -0.6897 -2.0922
  332MOL0     H44792   6.620  -1.414   6.366 -0.5535 -0.1101 -0.1533
  332MOL0     H44793   6.689  -1.287   6.268  0.6470 -0.2273  3.2964
  332MOL0     H44794   6.479  -1.281   6.125  1.2450 -0.5478 -1.9133
  332MOL0     H44795   6.551  -1.438   6.137 -0.2444 -0.7074  2.1845
  332MOL0     H44796   6.313  -1.359   6.309  1.3160  1.8460 -2.0713
  332MOL0     H44797   6.394  -1.520   6.304 -1.9368  1.3166  1.8966
  332MOL0     H44798   6.227  -1.398   6.094 -0.0371  1.9627  1.4089
  332MOL0     H44799   6.322  -1.558   6.066 -2.2968 -1.1219 -0.1761
  332MOL0     H44800   6.743  -0.720   6.748 -0.5488  3.6118  2.6262
  332MOL0     H44801   6.927  -0.560   6.775  1.8629  0.9437  1.8033
  332MOL0     H44802   7.535  -0.613   6.719 -2.4327 -0.9947 -0.1089
  332MOL0     H44803   7.758  -0.526   6.822 -1.5220  1.7240 -1.5195
  332MOL0     H44804   8.669  -0.165   7.070 -0.3734  0.2647 -1.6325
  332MOL0     H44805   8.571   0.031   7.012 -0.7187  0.2388  2.9185
  332MOL0     H44806   8.598   0.497   7.125  2.3384  0.8040 -0.0831
  332MOL0     H44807   8.468   0.668   7.143 -3.1535 -2.2255  1.7330
  332MOL0     H44808   8.144   0.747   6.848 -0.1823 -1.2854  2.6863
  332MOL0     H44809   8.252   0.880   6.786  0.6499  1.5213  1.0366
  332MOL0     H44810   8.088   0.859   7.036  0.6645 -1.7619  0.4830
  332MOL0     H44811   8.038   0.974   6.902  1.5890  2.1466  0.3076
  332MOL0     H44812   8.288   1.008   7.058  0.0571  0.5115  0.4087
  332MOL0     H44813   8.130   1.087   7.102 -0.1221 -1.2888 -0.3319
  332MOL0     H44814   8.291   1.130   6.853  0.2138  0.4400  1.3699
  332MOL0     H44815   8.126   1.200   6.878 -0.4442  3.2818  2.4604
  332MOL0     H44816   8.296   1.460   7.144 -3.7448  0.0215  0.2747
  332MOL0     H44817   8.305   0.623   6.743 -0.5104 -0.7847 -0.7700
  332MOL0     H44818   8.575   0.428   6.629 -0.0462 -0.9202  0.2507
  332MOL0     H44819   8.423   0.332   6.647 -0.3169  0.0258  1.0574
  332MOL0     H44820   8.414   0.490   6.578  2.5267 -0.0862 -2.9512
  333MOL0     O44821   8.446   8.119   0.850 -0.5484  0.4353 -0.3416
  333MOL0     C44822   8.455   8.106   0.726  0.2441  0.9232 -0.0656
  333MOL0     O44823   8.417   7.993   0.649 -0.1365 -0.2264 -1.1247
  333MOL0     C44824   8.343   7.892   0.703 -0.0235  0.1749  0.3589
  333MOL0     C44825   8.230   7.915   0.776 -0.0012 -0.1764  0.0928
  333MOL0     C44826   8.163   7.810   0.834 -0.2580 -0.5179  0.3960
  333MOL0     C44827   8.198   7.675   0.814  0.2640 -0.7029  0.6798
  333MOL0     O44828   8.141   7.571   0.876  1.2362 -0.4108 -0.7904
  333MOL0     C44829   8.161   7.568   1.015 -0.2354 -0.2022 -0.9098
  333MOL0     C44830   8.073   7.469   1.079 -0.7449  0.2135 -0.1391
  333MOL0     C44831   7.920   7.482   1.056  0.6964  0.3855 -0.4854
  333MOL0     C44832   7.825   7.389   1.123 -0.1162  0.3721  0.8982
  333MOL0     C44833   7.836   7.249   1.060 -0.3569  0.3366 -0.7121
  333MOL0     C44834   7.709   7.163   1.037  0.0548  0.0304 -0.5470
  333MOL0     C44835   7.626   7.157   1.171  0.1097 -1.0221  1.0617
  333MOL0     C44836   7.700   7.100   1.299 -0.2326  0.6324 -0.0095
  333MOL0     N44837   7.628   7.097   1.427  0.0680 -0.0127  0.0994
  333MOL0     C44838   7.514   7.173   1.455  0.0359 -1.2262  0.0057
  333MOL0     C44839   7.488   7.148   1.583 -0.8547  0.5780  0.3418
  333MOL0     C44840   7.361   7.187   1.661 -0.6978  0.7191 -0.3029
  333MOL0     C44841   7.380   7.315   1.739 -0.0958 -0.3789 -0.0258
  333MOL0     C44842   7.259   7.357   1.809  0.1606  0.0617 -0.2074
  333MOL0     C44843   7.282   7.491   1.875 -0.1354  0.7065 -0.3092
  333MOL0     O44844   7.348   7.597   1.807 -0.5326  0.5803 -0.0068
  333MOL0     C44845   7.285   7.672   1.710  0.3173  0.7152 -0.2318
  333MOL0     C44846   7.148   7.663   1.675 -1.1928  0.0771 -0.3934
  333MOL0     C44847   7.109   7.720   1.556  0.1208 -0.4650 -0.0362
  333MOL0     C44848   7.201   7.788   1.474  0.5728  0.7065  0.9206
  333MOL0     C44849   7.159   7.846   1.340 -0.3036  0.3443  0.0971
  333MOL0     O44850   7.073   7.766   1.268  0.4632 -0.8970 -0.2770
  333MOL0     C44851   6.992   7.845   1.182  0.3281  0.2156  0.1928
  333MOL0     C44852   7.055   7.911   1.082  0.3155 -0.1544  1.2331
  333MOL0     C44853   6.978   7.996   0.996 -0.6476  0.1801 -1.5324
  333MOL0     C44854   6.838   7.992   0.998 -0.4519  0.5429 -0.4453
  333MOL0     O44855   6.761   8.046   0.895  0.0467  0.7539 -0.3609
  333MOL0     C44856   6.818   8.149   0.820 -0.3803  0.8489  1.1326
  333MOL0     C44857   6.897   8.080   0.698 -0.0610 -0.2978  0.2280
  333MOL0     C44858   6.848   7.943   0.655 -0.6019  0.3996 -1.1144
  333MOL0     C44859   6.860   7.931   0.504 -0.9340  0.3961  0.5194
  333MOL0     C44860   6.820   7.798   0.448 -0.0859 -0.4457  0.4961
  333MOL0     C44861   6.894   7.673   0.496 -0.6037 -0.7025 -0.1416
  333MOL0     C44862   7.043   7.689   0.468  0.7229 -0.4052 -0.9686
  333MOL0     C44863   7.088   7.721   0.331 -0.4357  0.4949  0.1351
  333MOL0    Cl44864   7.269   7.696   0.324  0.0185  0.2715 -0.2106
  333MOL0     C44865   6.780   7.931   1.116 -0.2174  0.1075  0.1466
  333MOL0     C44866   6.854   7.858   1.211 -0.1683  0.6934  0.1606
  333MOL0     O44867   7.187   7.963   1.317 -0.5029  0.3783 -0.2448
  333MOL0     C44868   7.335   7.807   1.512 -0.5152  0.7027 -1.0838
  333MOL0     C44869   7.371   7.734   1.624 -0.3892 -0.0695 -0.7429
  333MOL0     N44870   7.593   7.065   1.631 -0.3857  0.6357  0.2221
  333MOL0     N44871   7.676   7.039   1.536  0.8708  0.3864  0.1541
  333MOL0     C44872   8.306   7.656   0.730  0.0170  0.5122  0.2775
  333MOL0     C44873   8.373   7.757   0.674 -0.1592 -0.4847  0.3919
  333MOL0     C44874   8.511   8.223   0.653 -0.5053  0.1922  0.5740
  333MOL0     C44875   8.475   8.249   0.526  0.1385 -0.6424 -0.2822
  333MOL0     C44876   8.493   8.377   0.468 -0.0968 -0.8399  0.9819
  333MOL0     C44877   8.573   8.473   0.531  0.7952 -0.6114  0.9221
  333MOL0     O44878   8.605   8.592   0.477 -0.0212  0.2329 -1.2077
  333MOL0     C44879   8.517   8.641   0.374 -0.7333 -0.9303 -0.2825
  333MOL0     C44880   8.557   8.775   0.345  0.3522 -0.1607 -0.4485
  333MOL0     C44881   8.452   8.864   0.294 -0.0434 -0.0020  0.4609
  333MOL0     C44882   8.530   8.998   0.260  0.0767  0.0825  0.0214
  333MOL0     C44883   8.483   9.054   0.138 -0.0917  0.0230 -0.2200
  333MOL0     C44884   8.447   9.090   0.028 -0.8359 -0.2501  0.1735
  333MOL0     C44885   8.611   8.436   0.652 -0.9373 -0.2855  0.3098
  333MOL0     C44886   8.593   8.315   0.711  0.8770 -1.2529  0.2291
  333MOL0     C44887   8.669   8.298   0.837  0.1612  0.3769  0.7827
  333MOL0     H44888   8.201   8.018   0.794 -0.9423 -0.8114  2.6894
  333MOL0     H44889   8.074   7.830   0.893 -0.7824 -0.6767 -0.3230
  333MOL0     H44890   8.261   7.529   1.036  0.8624  0.7668 -3.8159
  333MOL0     H44891   8.143   7.668   1.056 -0.6515  0.7218 -3.1972
  333MOL0     H44892   8.084   7.472   1.188 -1.7285 -1.2045  0.0234
  333MOL0     H44893   8.104   7.370   1.043 -0.2354  0.7599 -1.2567
  333MOL0     H44894   7.902   7.470   0.949  2.4109 -2.5785 -0.5672
  333MOL0     H44895   7.896   7.585   1.083 -1.0214  0.5087 -2.2294
  333MOL0     H44896   7.839   7.373   1.231 -1.8089 -0.6912  1.0017
  333MOL0     H44897   7.720   7.417   1.121 -0.8484 -2.1151  0.3316
  333MOL0     H44898   7.882   7.251   0.961 -0.2619  1.3305 -0.6600
  333MOL0     H44899   7.893   7.183   1.125 -0.4243  1.8616  0.9824
  333MOL0     H44900   7.655   7.221   0.962 -1.5654 -0.0438  0.5057
  333MOL0     H44901   7.731   7.067   0.990  0.7345  1.3699 -3.1109
  333MOL0     H44902   7.543   7.092   1.143  0.3873 -0.4194 -1.3655
  333MOL0     H44903   7.590   7.258   1.190  2.2120  0.2729 -1.1854
  333MOL0     H44904   7.745   7.004   1.276 -1.2370  0.5444 -1.7526
  333MOL0     H44905   7.782   7.169   1.324  1.5143 -1.8831  1.6374
  333MOL0     H44906   7.468   7.248   1.391  1.3030 -3.4087 -3.8118
  333MOL0     H44907   7.274   7.204   1.597  0.1646  0.8775 -1.4505
  333MOL0     H44908   7.338   7.109   1.735  1.6815 -0.3867 -0.6266
  333MOL0     H44909   7.461   7.296   1.810  1.2476 -1.1275 -1.6828
  333MOL0     H44910   7.410   7.390   1.665  2.0210 -0.7491  0.3765
  333MOL0     H44911   7.231   7.287   1.888 -1.3910  1.2361  0.3247
  333MOL0     H44912   7.182   7.362   1.732 -1.5088 -1.3180  1.2941
  333MOL0     H44913   7.342   7.468   1.963  1.8743  3.0308 -0.9758
  333MOL0     H44914   7.184   7.526   1.910 -0.7561  1.5423 -2.7297
  333MOL0     H44915   7.069   7.617   1.734 -0.2679 -1.3444 -0.1931
  333MOL0     H44916   7.007   7.712   1.519 -0.1551  1.8665  0.0925
  333MOL0     H44917   7.161   7.901   1.059  0.1272 -0.4349  0.4506
  333MOL0     H44918   7.047   8.044   0.927  3.0514 -3.9763 -1.1623
  333MOL0     H44919   6.731   8.202   0.780 -1.4644 -0.2657  1.9131
  333MOL0     H44920   6.882   8.215   0.879 -0.0984  3.0123 -1.4076
  333MOL0     H44921   6.894   8.147   0.612  2.8200 -0.8825 -0.4213
  333MOL0     H44922   7.005   8.075   0.714 -0.0431  1.0390  0.6480
  333MOL0     H44923   6.910   7.866   0.701 -0.6227  0.6975 -0.5805
  333MOL0     H44924   6.745   7.915   0.679 -0.0898 -0.1392  0.5776
  333MOL0     H44925   6.960   7.968   0.480 -1.5704  0.6020 -2.1096
  333MOL0     H44926   6.786   7.999   0.461 -1.8009 -1.8295 -1.7596
  333MOL0     H44927   6.824   7.796   0.338  0.5886 -0.5715  0.5157
  333MOL0     H44928   6.712   7.781   0.450 -0.3056 -0.8831 -3.9494
  333MOL0     H44929   6.872   7.646   0.600 -0.5953  1.0528  0.3529
  333MOL0     H44930   6.878   7.580   0.441  1.6130 -2.2751  1.6409
  333MOL0     H44931   7.104   7.602   0.494  2.7892  1.8042  2.4849
  333MOL0     H44932   7.078   7.762   0.542 -2.0845  0.0437  0.0274
  333MOL0     H44933   7.048   7.663   0.248 -0.5605  0.1992  0.4032
  333MOL0     H44934   7.072   7.827   0.305  2.5760  0.5385 -2.1349
  333MOL0     H44935   6.673   7.925   1.135 -0.9883  1.0132 -3.2188
  333MOL0     H44936   6.812   7.824   1.305  0.3865  2.0640  0.9351
  333MOL0     H44937   7.413   7.850   1.450  0.9624  1.1856  1.0102
  333MOL0     H44938   7.479   7.727   1.638 -0.5353 -2.4488 -0.4692
  333MOL0     H44939   8.340   7.556   0.704  0.4052  0.2453  1.7439
  333MOL0     H44940   8.462   7.748   0.612  0.1696  2.7681  0.1736
  333MOL0     H44941   8.418   8.169   0.482 -1.5297 -1.6789  3.3438
  333MOL0     H44942   8.450   8.387   0.369  2.1707 -3.9312 -0.4869
  333MOL0     H44943   8.408   8.643   0.389 -0.7429  2.0149 -0.1788
  333MOL0     H44944   8.551   8.573   0.295  0.3695 -1.8167  0.9023
  333MOL0     H44945   8.637   8.766   0.271  0.9855  1.7497 -0.0677
  333MOL0     H44946   8.592   8.827   0.435  1.7603 -1.3092 -0.2993
  333MOL0     H44947   8.373   8.881   0.367 -2.2840 -2.5385 -1.1869
  333MOL0     H44948   8.406   8.826   0.202 -1.1231  0.0395  0.9686
  333MOL0     H44949   8.508   9.078   0.332 -1.2741  1.3290 -1.6666
  333MOL0     H44950   8.637   8.977   0.262  0.2672  1.0325  1.7785
  333MOL0     H44951   8.416   9.116  -0.071 -1.0632 -1.8182 -0.1934
  333MOL0     H44952   8.668   8.516   0.698 -0.2300 -0.7378  0.2334
  333MOL0     H44953   8.588   8.303   0.910 -1.8609 -0.9405 -1.2596
  333MOL0     H44954   8.718   8.200   0.832  0.5181  0.5998 -0.4041
  333MOL0     H44955   8.744   8.374   0.860 -3.2201  4.5243 -0.6974
  334MOL0     O44956   1.245   3.591   1.120 -0.3390  0.4762 -0.0512
  334MOL0     C44957   1.203   3.544   1.014  0.0816 -0.1934  1.0170
  334MOL0     O44958   1.248   3.567   0.883 -0.3185  0.2421 -0.1423
  334MOL0     C44959   1.361   3.642   0.879 -0.0293 -0.2775 -0.4906
  334MOL0     C44960   1.377   3.740   0.782  0.0926 -0.5492 -0.0245
  334MOL0     C44961   1.499   3.802   0.767 -0.5804  0.5196  1.4004
  334MOL0     C44962   1.615   3.774   0.836  0.0715 -0.0841 -0.0379
  334MOL0     O44963   1.733   3.830   0.791  0.5941  0.0511 -0.1553
  334MOL0     C44964   1.852   3.753   0.777 -1.1321 -0.4143  0.7456
  334MOL0     C44965   1.944   3.798   0.895  0.0850 -0.7296  0.4604
  334MOL0     C44966   2.075   3.731   0.868 -0.2987  0.1660  0.8547
  334MOL0     C44967   2.149   3.729   1.003 -0.5651  0.1348  0.4256
  334MOL0     C44968   2.216   3.864   1.021 -0.6681  0.3056 -0.2892
  334MOL0     C44969   2.295   3.885   1.154  0.2764 -1.0895  0.7297
  334MOL0     C44970   2.331   4.027   1.173  0.9174 -0.7027  0.6765
  334MOL0     C44971   2.426   4.046   1.282 -0.0895 -0.4551  0.6964
  334MOL0     N44972   2.448   4.191   1.306 -0.9902  0.0810  0.7720
  334MOL0     C44973   2.574   4.256   1.315  0.3447 -0.2127 -0.0576
  334MOL0     C44974   2.540   4.387   1.354  0.5887  0.8019  0.0467
  334MOL0     C44975   2.619   4.513   1.368  0.2196 -0.5248  0.4320
  334MOL0     C44976   2.762   4.480   1.420  0.6542 -0.3146  0.0383
  334MOL0     C44977   2.868   4.588   1.405 -0.1927 -0.4937  0.0863
  334MOL0     C44978   3.012   4.526   1.418 -0.7105 -0.6456 -0.1241
  334MOL0     O44979   3.104   4.634   1.409  0.0096  0.4105  0.9831
  334MOL0     C44980   3.235   4.622   1.415 -0.5704  0.3086  0.6922
  334MOL0     C44981   3.294   4.515   1.481  0.3181  0.0243  0.7327
  334MOL0     C44982   3.433   4.518   1.501 -0.2768 -0.0722  1.5068
  334MOL0     C44983   3.517   4.621   1.457 -0.8210 -0.2766  0.4885
  334MOL0     C44984   3.655   4.623   1.497  0.3877 -0.3979 -0.4155
  334MOL0     O44985   3.693   4.511   1.579  0.2789 -0.5566 -0.2120
  334MOL0     C44986   3.827   4.497   1.604 -0.3424  0.2888  0.3600
  334MOL0     C44987   3.865   4.553   1.726 -0.3281 -0.2225 -0.9427
  334MOL0     C44988   4.009   4.546   1.753 -0.1124 -0.3607  0.2862
  334MOL0     C44989   4.102   4.493   1.660 -0.0925  1.2043 -0.4323
  334MOL0     O44990   4.232   4.479   1.678  0.5126 -0.2911 -0.0609
  334MOL0     C44991   4.290   4.607   1.683 -0.2404  0.1446  0.4358
  334MOL0     C44992   4.417   4.590   1.766  0.5188  0.5804  1.0447
  334MOL0     C44993   4.434   4.698   1.864  0.1133  1.3583  0.4025
  334MOL0     C44994   4.558   4.666   1.953 -0.3496 -0.0406 -0.0109
  334MOL0     C44995   4.550   4.764   2.071 -0.2354 -0.1709 -0.1362
  334MOL0     C44996   4.461   4.709   2.180  0.0863  0.1613 -0.2021
  334MOL0     C44997   4.471   4.803   2.304  0.2245  0.1675 -0.0850
  334MOL0     C44998   4.383   4.922   2.282  0.4175 -0.7434  0.1920
  334MOL0    Cl44999   4.389   5.016   2.434  0.3420  0.0902  0.1189
  334MOL0     C45000   4.053   4.430   1.550  0.7230  0.7346  0.5987
  334MOL0     C45001   3.909   4.423   1.525 -1.4220  0.7444 -0.7196
  334MOL0     O45002   3.736   4.706   1.452  0.1377 -0.5057  0.0311
  334MOL0     C45003   3.455   4.718   1.375  0.1703 -0.4017  0.6203
  334MOL0     C45004   3.318   4.728   1.366  0.5563 -0.7155 -0.3281
  334MOL0     N45005   2.401   4.398   1.363 -0.4380 -0.0313 -0.6174
  334MOL0     N45006   2.351   4.283   1.331 -0.4501 -0.1620  0.8105
  334MOL0     C45007   1.603   3.680   0.945 -0.1970 -0.4821  0.4105
  334MOL0     C45008   1.481   3.613   0.959  0.2350 -0.4871  0.4750
  334MOL0     C45009   1.066   3.487   1.026  0.8144  0.0992  1.3919
  334MOL0     C45010   0.956   3.519   0.936 -0.0050  0.0448  0.3024
  334MOL0     C45011   0.833   3.457   0.954  0.2222 -0.4450  0.5219
  334MOL0     C45012   0.811   3.376   1.060  0.6466 -0.3056 -0.0971
  334MOL0     O45013   0.681   3.321   1.062  0.0020 -0.5203 -0.1720
  334MOL0     C45014   0.660   3.203   1.145  0.1146  0.0760 -0.3258
  334MOL0     C45015   0.514   3.149   1.149  0.2923  0.7022 -0.1102
  334MOL0     C45016   0.421   3.277   1.175  0.1069 -0.3347  0.3236
  334MOL0     C45017   0.446   3.352   1.300 -0.0192 -0.1320  0.3198
  334MOL0     C45018   0.436   3.270   1.424 -0.6682 -1.0699 -0.0026
  334MOL0     C45019   0.429   3.203   1.522  0.3045  1.3597  0.8404
  334MOL0     C45020   0.910   3.357   1.157 -0.6161  0.3488  0.7325
  334MOL0     C45021   1.038   3.401   1.134 -0.4901  0.3520  0.2408
  334MOL0     C45022   1.134   3.363   1.243 -0.2675 -0.3041  0.1635
  334MOL0     H45023   1.298   3.754   0.709  1.8270  5.8257 -1.3091
  334MOL0     H45024   1.528   3.850   0.674  1.0323 -2.3407  0.3145
  334MOL0     H45025   1.848   3.644   0.767 -0.6929 -0.7322  3.2883
  334MOL0     H45026   1.900   3.787   0.685 -3.1901  0.5045 -0.0572
  334MOL0     H45027   1.904   3.769   0.993  1.1333  2.4011  1.9600
  334MOL0     H45028   1.949   3.907   0.895 -1.3173 -0.6318  1.9486
  334MOL0     H45029   2.131   3.772   0.784 -0.0596 -2.1883 -0.2095
  334MOL0     H45030   2.062   3.628   0.832  0.3874  0.6471 -0.8307
  334MOL0     H45031   2.083   3.717   1.090 -2.0819  2.7042 -0.2600
  334MOL0     H45032   2.237   3.664   1.007  0.4639  1.5279  3.8275
  334MOL0     H45033   2.278   3.881   0.932  0.3746 -0.0584  0.3619
  334MOL0     H45034   2.136   3.939   1.017 -2.6913 -1.7673 -1.6915
  334MOL0     H45035   2.238   3.837   1.235 -1.4172  1.5911  1.2403
  334MOL0     H45036   2.392   3.835   1.153  2.3932  2.6446  1.2505
  334MOL0     H45037   2.249   4.095   1.200  2.6786  1.6358  0.4974
  334MOL0     H45038   2.380   4.074   1.087 -0.2853  1.7403  1.2363
  334MOL0     H45039   2.381   4.007   1.373  0.1492  0.8794  1.4042
  334MOL0     H45040   2.522   3.998   1.262  1.3355  2.9283 -1.5588
  334MOL0     H45041   2.671   4.213   1.293  2.2161  3.2289  0.6092
  334MOL0     H45042   2.622   4.556   1.268  1.2931  1.5134  1.2820
  334MOL0     H45043   2.578   4.585   1.439 -1.5225  0.7676 -1.7800
  334MOL0     H45044   2.761   4.452   1.526 -1.0358  0.5091  0.2682
  334MOL0     H45045   2.802   4.389   1.373  0.0842 -0.2574 -0.5675
  334MOL0     H45046   2.847   4.662   1.482 -5.3895 -1.7585  0.2617
  334MOL0     H45047   2.866   4.638   1.308 -0.0633  1.2083  0.9345
  334MOL0     H45048   3.035   4.453   1.340 -0.4381  1.9105 -2.5901
  334MOL0     H45049   3.018   4.490   1.521 -0.3378  1.2454  0.5370
  334MOL0     H45050   3.224   4.442   1.520  0.9850 -1.8237 -1.3036
  334MOL0     H45051   3.462   4.447   1.577  1.7436  0.3020  1.1301
  334MOL0     H45052   3.794   4.607   1.787 -1.9656  0.4024 -3.2447
  334MOL0     H45053   4.047   4.599   1.840 -0.1753  1.4550 -0.7532
  334MOL0     H45054   4.318   4.667   1.596  0.1467  0.6376  0.9009
  334MOL0     H45055   4.225   4.675   1.738  3.2052  2.8092  1.5669
  334MOL0     H45056   4.414   4.498   1.826  1.8454 -1.2689 -1.5254
  334MOL0     H45057   4.493   4.570   1.690 -4.2080  0.3374 -4.3164
  334MOL0     H45058   4.438   4.794   1.811 -1.2103  2.6052  2.4027
  334MOL0     H45059   4.349   4.699   1.932  0.8150 -0.6081  1.3800
  334MOL0     H45060   4.636   4.700   1.885 -1.3877  3.0090  0.1713
  334MOL0     H45061   4.563   4.558   1.972 -1.7302 -0.2409 -0.6305
  334MOL0     H45062   4.510   4.856   2.026 -0.6047 -0.7645 -1.0371
  334MOL0     H45063   4.654   4.780   2.104 -0.7122  0.0024  1.3287
  334MOL0     H45064   4.356   4.697   2.152  0.7343 -0.7078 -2.4354
  334MOL0     H45065   4.483   4.614   2.228 -2.1281  0.3806  1.4291
  334MOL0     H45066   4.573   4.843   2.313 -0.5975  2.7771 -1.4694
  334MOL0     H45067   4.445   4.746   2.394 -0.0377 -0.4765 -0.5567
  334MOL0     H45068   4.417   4.987   2.201  0.8148 -0.5187  0.5289
  334MOL0     H45069   4.281   4.887   2.269  0.2489  0.4855 -2.4649
  334MOL0     H45070   4.120   4.381   1.480 -2.4653  0.1433 -2.2909
  334MOL0     H45071   3.882   4.359   1.441  2.4864 -1.4166 -0.5766
  334MOL0     H45072   3.513   4.803   1.341 -1.1294  0.5694  0.7502
  334MOL0     H45073   3.261   4.795   1.302 -1.4064 -2.4847 -0.5232
  334MOL0     H45074   1.676   3.653   1.021 -0.6477 -0.8983  0.7007
  334MOL0     H45075   1.472   3.554   1.049 -1.2466  0.3956  0.9256
  334MOL0     H45076   0.975   3.588   0.855 -1.7425  3.2153  2.3695
  334MOL0     H45077   0.749   3.464   0.886  0.1050 -1.8395  0.4821
  334MOL0     H45078   0.680   3.215   1.252 -1.5700 -1.9923  0.3052
  334MOL0     H45079   0.722   3.119   1.110  0.3803  0.0071  0.2900
  334MOL0     H45080   0.496   3.091   1.240  1.2390  1.2435  0.4307
  334MOL0     H45081   0.495   3.086   1.061 -1.4129 -1.9363  1.9782
  334MOL0     H45082   0.314   3.258   1.186 -0.8001  4.3609  2.0155
  334MOL0     H45083   0.431   3.339   1.086  3.5130 -1.6295 -0.3572
  334MOL0     H45084   0.542   3.405   1.293  0.1051 -0.2444  1.0904
  334MOL0     H45085   0.370   3.430   1.309  0.4450  0.3674  0.0038
  334MOL0     H45086   0.414   3.147   1.613 -0.5573 -1.3333 -0.8290
  334MOL0     H45087   0.900   3.300   1.249 -1.9271  1.2469  1.1733
  334MOL0     H45088   1.115   3.269   1.295 -1.1936 -0.0603  0.2807
  334MOL0     H45089   1.231   3.349   1.194  0.3544  0.9376  0.9900
  334MOL0     H45090   1.153   3.451   1.304  3.1424  0.7473 -2.0748
  335MOL0     O45091   9.294   4.493   3.986 -0.2628 -0.6387  0.0623
  335MOL0     C45092   9.337   4.605   3.968  0.5707 -0.1395  0.0243
  335MOL0     O45093   9.313   4.725   4.041  0.2625 -0.5616  0.2418
  335MOL0     C45094   9.211   4.720   4.132 -1.0069 -0.5847 -0.3875
  335MOL0     C45095   9.227   4.718   4.275  0.2080  0.1255 -0.2261
  335MOL0     C45096   9.114   4.729   4.359 -0.5938 -0.1755 -0.7676
  335MOL0     C45097   8.987   4.744   4.307  0.4687 -0.1208  1.1496
  335MOL0     O45098   8.880   4.765   4.385  0.5242 -0.0480  0.6675
  335MOL0     C45099   8.886   4.775   4.531 -0.3554 -0.6222 -0.6158
  335MOL0     C45100   8.760   4.816   4.600 -0.2645 -0.3733  0.2957
  335MOL0     C45101   8.775   4.862   4.747 -0.2224  0.0165 -0.0315
  335MOL0     C45102   8.787   4.743   4.834 -0.3695  0.1672 -0.2956
  335MOL0     C45103   8.812   4.798   4.972  0.0856  0.8930 -0.0918
  335MOL0     C45104   8.829   4.686   5.087  0.2883  0.1630  0.6598
  335MOL0     C45105   8.926   4.570   5.051 -0.1922  0.1268 -0.0905
  335MOL0     C45106   8.893   4.464   5.163 -0.1018 -0.2533 -0.0283
  335MOL0     N45107   8.984   4.350   5.164 -0.1564  0.2576 -0.7411
  335MOL0     C45108   8.955   4.243   5.238  0.6101  1.3783  0.4885
  335MOL0     C45109   9.063   4.171   5.247  0.1571  0.9658  0.3320
  335MOL0     C45110   9.078   4.042   5.329  0.0757  0.1244 -0.0824
  335MOL0     C45111   9.093   3.911   5.252  0.6829 -0.5874  0.2809
  335MOL0     C45112   8.962   3.833   5.219 -1.3882  0.9293 -0.1586
  335MOL0     C45113   8.934   3.733   5.330 -0.0694  0.1250  0.2800
  335MOL0     O45114   8.923   3.803   5.453  0.5680  0.2818  0.4626
  335MOL0     C45115   8.909   3.725   5.562 -0.1712 -0.6434  0.1999
  335MOL0     C45116   8.982   3.771   5.672  0.2614  0.0805  0.1231
  335MOL0     C45117   8.960   3.704   5.792  0.1534  0.3557 -0.5590
  335MOL0     C45118   8.856   3.609   5.807 -0.3581 -0.1823 -1.3960
  335MOL0     C45119   8.830   3.549   5.948 -0.2717 -0.1565  0.2141
  335MOL0     O45120   8.919   3.583   6.045 -0.9625  0.4213 -0.0210
  335MOL0     C45121   8.888   3.572   6.176  0.1660 -0.0038 -0.4940
  335MOL0     C45122   8.752   3.580   6.223 -0.1761 -0.0415 -0.7029
  335MOL0     C45123   8.734   3.584   6.367 -0.7767  0.2338  0.5656
  335MOL0     C45124   8.838   3.576   6.463 -0.8439 -0.7275  0.3628
  335MOL0     O45125   8.812   3.580   6.596  0.0670  0.0499 -0.5946
  335MOL0     C45126   8.777   3.455   6.652 -0.2399 -0.1028 -0.4118
  335MOL0     C45127   8.684   3.500   6.759  0.2381 -0.0345 -0.0565
  335MOL0     C45128   8.757   3.558   6.882 -0.1263  0.1083  0.4388
  335MOL0     C45129   8.647   3.576   6.989 -0.1767 -1.0694 -0.0374
  335MOL0     C45130   8.628   3.447   7.064 -0.6677  1.0318  0.9542
  335MOL0     C45131   8.517   3.439   7.166 -0.2281 -0.2515 -0.4807
  335MOL0     C45132   8.380   3.445   7.102  0.2164  0.8305  0.4545
  335MOL0     C45133   8.263   3.410   7.199  1.1585 -0.3760  1.0161
  335MOL0    Cl45134   8.244   3.545   7.310 -0.4759  0.0793 -0.1556
  335MOL0     C45135   8.969   3.564   6.412  0.0097  0.7923 -0.2097
  335MOL0     C45136   8.989   3.558   6.274 -0.5446  0.4707 -0.0684
  335MOL0     O45137   8.723   3.482   5.955 -0.2749 -0.0315 -0.7934
  335MOL0     C45138   8.783   3.568   5.699  0.3293  0.2839  0.3595
  335MOL0     C45139   8.815   3.620   5.570  0.2696 -0.4553  0.0901
  335MOL0     N45140   9.168   4.228   5.170  0.1843 -0.5761  0.8369
  335MOL0     N45141   9.120   4.346   5.130  0.8933  0.6146  0.0130
  335MOL0     C45142   8.975   4.749   4.167  0.2142 -1.0187  0.2415
  335MOL0     C45143   9.081   4.734   4.077 -0.5151  0.7465 -0.6603
  335MOL0     C45144   9.419   4.615   3.845  0.6542  0.3254 -0.7617
  335MOL0     C45145   9.526   4.523   3.840  0.1134  0.7043 -0.8083
  335MOL0     C45146   9.600   4.518   3.723 -0.3807 -0.8318 -1.2224
  335MOL0     C45147   9.566   4.594   3.613  0.1674  0.1979 -0.0027
  335MOL0     O45148   9.632   4.595   3.495 -0.0489 -0.4724  0.0449
  335MOL0     C45149   9.730   4.503   3.450 -0.1777 -0.3064  0.9686
  335MOL0     C45150   9.666   4.368   3.435 -0.1222 -0.7665  0.0266
  335MOL0     C45151   9.600   4.375   3.296  0.3193 -0.6425  0.8337
  335MOL0     C45152   9.548   4.233   3.269 -0.6813  0.3366 -0.6317
  335MOL0     C45153   9.491   4.233   3.131  0.5513 -0.0469 -0.3779
  335MOL0     C45154   9.436   4.248   3.021  0.0879 -0.1775  0.2710
  335MOL0     C45155   9.463   4.687   3.625 -0.0363 -0.2303  0.0075
  335MOL0     C45156   9.394   4.705   3.744 -0.4021 -0.3034  0.0960
  335MOL0     C45157   9.288   4.810   3.760  0.1655  0.2181 -0.6004
  335MOL0     H45158   9.324   4.719   4.323 -0.7230 -0.6994  1.7477
  335MOL0     H45159   9.135   4.734   4.465  1.7854 -0.5394 -1.1744
  335MOL0     H45160   8.916   4.678   4.571 -0.0966 -0.5520 -0.6420
  335MOL0     H45161   8.968   4.843   4.554 -0.1230 -0.0788 -2.8218
  335MOL0     H45162   8.691   4.731   4.598  0.8615 -1.4062  2.1741
  335MOL0     H45163   8.707   4.897   4.549 -1.0851 -0.2161  1.3435
  335MOL0     H45164   8.692   4.931   4.768 -1.3579 -1.2183 -0.3034
  335MOL0     H45165   8.865   4.924   4.752  1.1470 -1.7196 -1.5462
  335MOL0     H45166   8.694   4.686   4.824 -1.2430  0.6916  3.3511
  335MOL0     H45167   8.864   4.674   4.797 -2.6612 -1.9566 -1.4260
  335MOL0     H45168   8.901   4.861   4.966  0.1815  0.7795  0.0919
  335MOL0     H45169   8.728   4.862   5.001 -0.0248  1.4039 -1.5125
  335MOL0     H45170   8.868   4.731   5.179  0.0111  2.1733 -0.1565
  335MOL0     H45171   8.727   4.652   5.110 -0.0554  1.5390  1.2334
  335MOL0     H45172   9.032   4.592   5.067 -0.5138  2.0989 -0.4579
  335MOL0     H45173   8.909   4.523   4.953 -0.7342 -0.7310  0.3968
  335MOL0     H45174   8.892   4.518   5.258 -0.6952  3.0001 -1.7511
  335MOL0     H45175   8.792   4.430   5.136 -0.4379 -0.1290  1.0365
  335MOL0     H45176   8.864   4.211   5.288  1.0105 -1.9994 -0.6733
  335MOL0     H45177   9.172   4.062   5.382 -0.3170  0.1699  0.6095
  335MOL0     H45178   8.995   4.037   5.400 -0.8951  1.8788 -1.0403
  335MOL0     H45179   9.159   3.921   5.165 -2.3618  1.4776 -1.9902
  335MOL0     H45180   9.147   3.847   5.322  1.9023  0.5479  0.4204
  335MOL0     H45181   8.975   3.783   5.122  0.5558 -0.9004  0.9830
  335MOL0     H45182   8.872   3.896   5.220 -0.2403  2.6333 -0.4256
  335MOL0     H45183   9.022   3.668   5.336  0.3000  0.7429  2.0501
  335MOL0     H45184   8.850   3.668   5.301 -0.1465  0.4753 -0.2901
  335MOL0     H45185   9.051   3.854   5.665  0.9681 -0.5828 -1.1842
  335MOL0     H45186   9.025   3.716   5.878 -2.7123 -0.7446  1.9627
  335MOL0     H45187   8.661   3.597   6.167 -0.1797 -2.1814 -1.4304
  335MOL0     H45188   8.637   3.587   6.415  0.0024 -3.3822  2.7062
  335MOL0     H45189   8.729   3.387   6.581  1.0369 -1.1026 -0.3464
  335MOL0     H45190   8.864   3.404   6.693  1.1810  2.2435 -0.3529
  335MOL0     H45191   8.635   3.592   6.727 -0.9086  1.1528  4.4204
  335MOL0     H45192   8.608   3.421   6.764  1.1831 -0.9251  0.6257
  335MOL0     H45193   8.830   3.486   6.922 -0.3722  0.5528  1.7161
  335MOL0     H45194   8.820   3.646   6.869  0.2433  0.3330  3.2618
  335MOL0     H45195   8.554   3.591   6.933  1.4777  0.8405 -2.5492
  335MOL0     H45196   8.658   3.671   7.043  0.3872 -0.3155 -1.4149
  335MOL0     H45197   8.725   3.404   7.090  0.2531  2.8507  0.6944
  335MOL0     H45198   8.600   3.371   6.991  5.1827  0.9314 -1.6777
  335MOL0     H45199   8.522   3.343   7.218 -0.4523 -0.6261 -1.1549
  335MOL0     H45200   8.532   3.514   7.244 -1.0391 -1.8553  1.2982
  335MOL0     H45201   8.367   3.395   7.005 -0.8364 -1.1094  1.5345
  335MOL0     H45202   8.359   3.550   7.079 -1.3452 -0.0188 -2.4610
  335MOL0     H45203   8.170   3.396   7.144  1.3806 -1.9586  1.0144
  335MOL0     H45204   8.282   3.322   7.260 -0.2432  0.3205  2.5216
  335MOL0     H45205   9.048   3.532   6.479 -0.1956  2.9972  1.1889
  335MOL0     H45206   9.088   3.550   6.232  0.0166 -1.9332  1.5283
  335MOL0     H45207   8.709   3.490   5.709  0.2298 -0.2920 -3.3345
  335MOL0     H45208   8.755   3.582   5.488 -0.8921  1.5747 -0.0447
  335MOL0     H45209   8.876   4.778   4.132  0.9242  0.7690 -0.3812
  335MOL0     H45210   9.073   4.734   3.969  1.3532  2.1032 -0.8626
  335MOL0     H45211   9.559   4.458   3.920  3.5603 -0.6005 -3.0496
  335MOL0     H45212   9.674   4.439   3.728 -0.4904 -0.8503  1.5294
  335MOL0     H45213   9.796   4.488   3.536 -4.5849 -2.1096  4.4179
  335MOL0     H45214   9.794   4.544   3.370 -0.7652  2.8072  1.9692
  335MOL0     H45215   9.598   4.352   3.519 -0.2261 -0.4119  0.0096
  335MOL0     H45216   9.745   4.293   3.424  0.2843 -0.0728 -2.4157
  335MOL0     H45217   9.671   4.398   3.216 -0.0517  3.8673  1.5581
  335MOL0     H45218   9.514   4.443   3.291  1.7850  1.4178  2.1262
  335MOL0     H45219   9.619   4.151   3.281 -0.2622  0.9967  2.2025
  335MOL0     H45220   9.462   4.224   3.337 -0.2027  0.4466 -0.0014
  335MOL0     H45221   9.375   4.263   2.935 -0.7414 -0.9868  0.7017
  335MOL0     H45222   9.439   4.761   3.549  2.3334 -1.1380 -1.7764
  335MOL0     H45223   9.301   4.883   3.841 -0.6901  0.6757 -0.8577
  335MOL0     H45224   9.280   4.872   3.670  1.5371  1.5000  0.1095
  335MOL0     H45225   9.200   4.753   3.788 -0.3172  0.4813 -1.5393
  336MOL0     O45226   5.902   3.961   1.212 -0.2617 -0.1006  0.1110
  336MOL0     C45227   5.882   3.948   1.087 -0.0810 -0.1386 -0.6103
  336MOL0     O45228   5.902   3.833   1.023 -0.0787  0.3893  0.0744
  336MOL0     C45229   5.958   3.723   1.084 -0.3280  0.1311 -1.1095
  336MOL0     C45230   5.901   3.652   1.195  0.6816 -0.8801  0.0964
  336MOL0     C45231   5.952   3.535   1.237  0.0324 -0.1542  0.4012
  336MOL0     C45232   6.063   3.483   1.175  0.6142  0.2645 -0.2740
  336MOL0     O45233   6.084   3.358   1.219 -0.3276  0.2530  0.2265
  336MOL0     C45234   6.215   3.304   1.227 -0.5917  0.5231 -0.7383
  336MOL0     C45235   6.304   3.382   1.316 -0.3472  0.1678  0.0235
  336MOL0     C45236   6.441   3.337   1.275 -0.4516  0.5856  0.5015
  336MOL0     C45237   6.508   3.403   1.145  0.2501  0.0366 -0.4407
  336MOL0     C45238   6.625   3.317   1.093  0.4319 -0.7459 -0.4364
  336MOL0     C45239   6.710   3.251   1.198  0.2239  0.1463 -1.1025
  336MOL0     C45240   6.831   3.185   1.129  0.6344  0.6623 -0.6602
  336MOL0     C45241   6.950   3.269   1.086 -0.1564 -0.2520  0.2809
  336MOL0     N45242   7.059   3.185   1.012  0.3072 -0.5139  0.5832
  336MOL0     C45243   7.193   3.188   1.042 -1.1277 -0.4228 -1.0852
  336MOL0     C45244   7.256   3.160   0.934  0.0249 -1.0274 -0.0748
  336MOL0     C45245   7.404   3.165   0.902  0.8900 -0.9794  0.5135
  336MOL0     C45246   7.450   3.044   0.826  0.9796  0.5475  0.5504
  336MOL0     C45247   7.602   3.037   0.796  1.2236  0.7130 -0.3324
  336MOL0     C45248   7.688   3.001   0.911 -0.1360  0.0138  0.6407
  336MOL0     O45249   7.684   3.088   1.009  0.2752 -0.1332  0.7142
  336MOL0     C45250   7.776   3.068   1.106 -0.5073 -0.3381  0.1362
  336MOL0     C45251   7.780   3.158   1.210  0.1284 -0.3061 -0.1246
  336MOL0     C45252   7.870   3.160   1.315  0.5749  1.0858  0.3479
  336MOL0     C45253   7.953   3.045   1.322 -0.0310  0.1208 -0.3149
  336MOL0     C45254   8.042   3.029   1.434  0.3421  0.8151 -0.3761
  336MOL0     O45255   8.026   3.129   1.535  0.7440 -0.4659  0.1954
  336MOL0     C45256   8.085   3.110   1.657  1.2228 -0.3846  0.8758
  336MOL0     C45257   8.210   3.049   1.678 -0.4828 -0.1313 -0.4045
  336MOL0     C45258   8.267   3.046   1.809 -0.4940  0.1485 -0.0522
  336MOL0     C45259   8.196   3.105   1.914 -0.3076 -0.7646  1.0222
  336MOL0     O45260   8.256   3.120   2.030  0.4999  0.6491 -0.2864
  336MOL0     C45261   8.198   3.206   2.130  0.4005  1.0272  0.2600
  336MOL0     C45262   8.278   3.195   2.267  0.6411 -0.3194 -0.4342
  336MOL0     C45263   8.185   3.226   2.383  0.0656 -0.7689 -0.1296
  336MOL0     C45264   8.248   3.175   2.518 -0.6501  0.2146  0.2952
  336MOL0     C45265   8.186   3.230   2.643 -0.4172 -1.0660 -1.4250
  336MOL0     C45266   8.277   3.201   2.762  0.0542 -1.0177 -0.4911
  336MOL0     C45267   8.203   3.247   2.892 -1.7545  0.1681 -0.3893
  336MOL0     C45268   8.309   3.259   3.003 -0.3133 -0.1189  0.2726
  336MOL0    Cl45269   8.207   3.307   3.141 -0.3308  0.3718  0.1203
  336MOL0     C45270   8.057   3.122   1.896 -0.9172 -0.8852  0.6706
  336MOL0     C45271   8.003   3.130   1.764 -0.2183 -0.5092  0.0535
  336MOL0     O45272   8.110   2.931   1.436 -0.0653  0.5663 -0.1545
  336MOL0     C45273   7.932   2.947   1.224 -0.6095  0.1571 -0.3177
  336MOL0     C45274   7.854   2.952   1.113  0.8551  0.0934 -0.8387
  336MOL0     N45275   7.160   3.140   0.834  0.0731 -0.2853 -0.1677
  336MOL0     N45276   7.042   3.146   0.877 -0.0993 -0.2537 -0.1289
  336MOL0     C45277   6.129   3.538   1.066  0.8962 -0.7338 -0.0404
  336MOL0     C45278   6.072   3.661   1.029  0.1249 -1.0693 -0.4758
  336MOL0     C45279   5.819   4.056   1.011  0.9087 -2.0155 -0.2291
  336MOL0     C45280   5.725   4.146   1.072 -0.2562 -0.9585  0.6940
  336MOL0     C45281   5.647   4.236   0.990 -0.2158 -0.4423 -0.2534
  336MOL0     C45282   5.676   4.246   0.848 -0.1091  0.0882  0.3857
  336MOL0     O45283   5.616   4.319   0.748  0.3638  0.3487 -0.3624
  336MOL0     C45284   5.487   4.366   0.780 -0.1113 -0.0917 -0.4755
  336MOL0     C45285   5.491   4.510   0.826 -1.2055 -1.9349  0.0836
  336MOL0     C45286   5.543   4.602   0.715  0.9022  1.3257  0.1455
  336MOL0     C45287   5.533   4.750   0.752 -0.2110  0.0958 -0.0797
  336MOL0     C45288   5.389   4.773   0.785  0.0827 -0.7874  0.2277
  336MOL0     C45289   5.266   4.807   0.793 -0.4729 -0.2805 -0.4758
  336MOL0     C45290   5.778   4.162   0.798  0.9056 -0.8166  0.2248
  336MOL0     C45291   5.854   4.074   0.878 -0.8053 -0.1688 -0.0032
  336MOL0     C45292   5.975   4.009   0.818 -0.4047 -0.1226  0.0825
  336MOL0     H45293   5.816   3.699   1.242  1.0737 -1.4604  1.4503
  336MOL0     H45294   5.906   3.488   1.324 -0.5682  2.3233  1.4999
  336MOL0     H45295   6.197   3.202   1.261 -0.6038  0.6096 -0.4824
  336MOL0     H45296   6.255   3.306   1.125  1.8934 -0.7062  0.1495
  336MOL0     H45297   6.272   3.360   1.418 -1.6613  0.4448 -0.3110
  336MOL0     H45298   6.296   3.486   1.285  0.5725 -0.2463 -1.7716
  336MOL0     H45299   6.439   3.229   1.259  2.0240  0.9108 -3.0720
  336MOL0     H45300   6.518   3.350   1.352  1.1239 -1.0226 -0.6991
  336MOL0     H45301   6.447   3.417   1.055  0.5043  0.9986 -0.4707
  336MOL0     H45302   6.531   3.507   1.170 -1.7083  0.6029 -0.7952
  336MOL0     H45303   6.577   3.248   1.024 -2.3774 -0.6396  1.2529
  336MOL0     H45304   6.679   3.393   1.035 -0.4722 -1.4474 -2.2514
  336MOL0     H45305   6.743   3.331   1.265 -1.0798  1.2323 -1.7031
  336MOL0     H45306   6.656   3.172   1.250 -0.8535  1.2539 -0.4800
  336MOL0     H45307   6.797   3.139   1.035 -2.5127  0.6148  0.4156
  336MOL0     H45308   6.867   3.106   1.195 -2.5553  0.0770  0.5230
  336MOL0     H45309   6.908   3.347   1.022  1.8111  0.7955  0.1892
  336MOL0     H45310   6.995   3.311   1.176  1.2377 -1.4201  0.1714
  336MOL0     H45311   7.226   3.225   1.138 -1.7168 -0.8957 -0.6909
  336MOL0     H45312   7.413   3.257   0.844  1.8038 -0.9112  0.7502
  336MOL0     H45313   7.463   3.173   0.993  0.9369  0.5727  0.3614
  336MOL0     H45314   7.426   2.953   0.882  0.5510  0.4410  0.1997
  336MOL0     H45315   7.402   3.034   0.728  0.2880 -0.5400  0.9796
  336MOL0     H45316   7.632   3.136   0.762 -2.2448  1.8967 -0.3629
  336MOL0     H45317   7.614   2.974   0.707 -2.2672 -1.2305  0.3716
  336MOL0     H45318   7.790   3.002   0.871  0.0005  2.6388  0.8891
  336MOL0     H45319   7.658   2.901   0.946 -0.2933  0.1272  0.8344
  336MOL0     H45320   7.707   3.239   1.201 -0.2244 -0.7273 -1.2404
  336MOL0     H45321   7.873   3.245   1.382  1.6073  1.2806  0.0688
  336MOL0     H45322   8.255   3.013   1.586 -1.6279  2.0900 -1.9370
  336MOL0     H45323   8.363   2.999   1.826 -1.5790 -2.1789  0.0393
  336MOL0     H45324   8.201   3.311   2.102  2.8562  0.2731 -2.7552
  336MOL0     H45325   8.094   3.178   2.149  1.4478 -2.4681  1.7039
  336MOL0     H45326   8.313   3.093   2.285 -1.1994 -0.8099  0.6469
  336MOL0     H45327   8.366   3.259   2.267  1.2557 -1.0513  2.0611
  336MOL0     H45328   8.158   3.332   2.386  1.8187 -0.1321 -2.8662
  336MOL0     H45329   8.090   3.172   2.373  1.7774 -3.9564 -0.1400
  336MOL0     H45330   8.348   3.218   2.516  0.5517 -2.4166 -0.2239
  336MOL0     H45331   8.250   3.066   2.525  1.5142  0.1983  0.2000
  336MOL0     H45332   8.100   3.167   2.668 -0.9644  0.7382  1.6941
  336MOL0     H45333   8.155   3.333   2.623 -2.4479 -1.3338 -0.0619
  336MOL0     H45334   8.295   3.094   2.773 -1.7297 -1.0846  3.1437
  336MOL0     H45335   8.369   3.259   2.763 -0.3980 -0.2491  1.5188
  336MOL0     H45336   8.117   3.181   2.904 -4.4534  3.0265 -2.5483
  336MOL0     H45337   8.162   3.348   2.892 -0.8280  0.5594 -1.0473
  336MOL0     H45338   8.350   3.161   3.029 -4.8331 -2.1585  0.6809
  336MOL0     H45339   8.391   3.329   2.986 -0.1306 -0.3580  0.1677
  336MOL0     H45340   7.981   3.128   1.973 -1.9756  2.8448 -0.4179
  336MOL0     H45341   7.897   3.149   1.749  0.0548  0.8195 -0.3631
  336MOL0     H45342   7.991   2.856   1.223 -0.3541  0.0717  3.8904
  336MOL0     H45343   7.850   2.876   1.036 -1.0761  0.8893 -1.5721
  336MOL0     H45344   6.210   3.483   1.020 -0.4178 -2.0499 -0.8479
  336MOL0     H45345   6.109   3.705   0.937  0.1415 -0.1420 -0.0371
  336MOL0     H45346   5.699   4.149   1.177  0.9155  2.2276  0.9934
  336MOL0     H45347   5.567   4.299   1.029  0.8513 -0.7348  2.6461
  336MOL0     H45348   5.433   4.312   0.858  0.4128  1.3943  0.9733
  336MOL0     H45349   5.432   4.346   0.687 -0.0130 -1.3955 -0.2680
  336MOL0     H45350   5.550   4.530   0.916 -2.1384 -1.9057  0.6968
  336MOL0     H45351   5.386   4.536   0.839 -1.1428 -2.1675  1.1651
  336MOL0     H45352   5.490   4.594   0.620  2.1347  0.2365 -0.4795
  336MOL0     H45353   5.647   4.581   0.689  1.8363  3.1950  2.0649
  336MOL0     H45354   5.606   4.787   0.824 -1.5607  1.1701  0.7928
  336MOL0     H45355   5.565   4.809   0.665 -1.3927  0.6262 -0.1793
  336MOL0     H45356   5.161   4.824   0.807 -0.4560 -0.5174 -0.0557
  336MOL0     H45357   5.813   4.169   0.695  1.4330  0.0879  0.4580
  336MOL0     H45358   5.969   3.900   0.804  0.5295 -0.0686 -0.8861
  336MOL0     H45359   6.003   4.053   0.722  3.8261 -1.0742  0.6878
  336MOL0     H45360   6.055   4.031   0.889  0.8325  1.5926 -1.7365
  337MOL0     O45361   5.305   8.650   2.500 -0.2435 -0.1647 -0.2259
  337MOL0     C45362   5.416   8.677   2.546 -0.0582  0.5324  0.3378
  337MOL0     O45363   5.444   8.778   2.635 -0.7940  0.1562 -0.0521
  337MOL0     C45364   5.347   8.864   2.658  0.1552 -0.4156 -1.2822
  337MOL0     C45365   5.351   8.996   2.632 -1.0759  1.1498 -0.3365
  337MOL0     C45366   5.257   9.086   2.686 -0.1619  0.0958 -0.7561
  337MOL0     C45367   5.145   9.038   2.757 -0.1420  0.0930 -0.0183
  337MOL0     O45368   5.049   9.129   2.813  0.1297  0.0627  1.4213
  337MOL0     C45369   4.908   9.089   2.802 -0.1289  1.4139  0.4631
  337MOL0     C45370   4.818   9.204   2.842  0.1279 -0.5652 -1.1163
  337MOL0     C45371   4.860   9.314   2.745 -0.8872  0.3233  0.1039
  337MOL0     C45372   4.761   9.431   2.723 -0.6809 -0.2691  0.0112
  337MOL0     C45373   4.779   9.521   2.601 -0.1384 -0.3549 -0.2051
  337MOL0     C45374   4.751   9.460   2.465  0.2356 -0.1098  0.4373
  337MOL0     C45375   4.712   9.558   2.352  0.6684 -0.2960  1.1228
  337MOL0     C45376   4.655   9.481   2.233 -0.7401  0.5751 -0.2053
  337MOL0     N45377   4.607   9.563   2.118 -0.3267  0.6351  0.0935
  337MOL0     C45378   4.636   9.693   2.078 -0.8283  0.6655  0.0793
  337MOL0     C45379   4.570   9.708   1.964  0.5640 -0.9585  0.8216
  337MOL0     C45380   4.583   9.834   1.871  0.0118  0.4891  0.2073
  337MOL0     C45381   4.663   9.813   1.741  0.1629  0.5336 -0.4969
  337MOL0     C45382   4.676   9.933   1.652  0.1116 -0.2191 -0.8504
  337MOL0     C45383   4.537   9.994   1.636  0.9627  0.6239 -0.0258
  337MOL0     O45384   4.432   9.893   1.609  0.1712  0.0285  0.5111
  337MOL0     C45385   4.295   9.927   1.613 -0.1451 -0.5684  0.3331
  337MOL0     C45386   4.251  10.049   1.567 -0.0928  0.2327 -1.0002
  337MOL0     C45387   4.113  10.081   1.552 -0.1323  0.4364 -0.0912
  337MOL0     C45388   4.020   9.992   1.602 -0.2154  0.0774  1.3982
  337MOL0     C45389   3.873  10.018   1.602 -0.4132 -1.2441 -0.0231
  337MOL0     O45390   3.781   9.945   1.666  0.1841 -0.3027 -0.2621
  337MOL0     C45391   3.646   9.969   1.660  0.4255  0.1229  0.7047
  337MOL0     C45392   3.585  10.072   1.730  0.1650  0.7206 -0.1004
  337MOL0     C45393   3.450  10.101   1.727  0.3439 -0.2809 -0.4421
  337MOL0     C45394   3.364  10.016   1.662 -0.1228 -0.6123  0.9244
  337MOL0     O45395   3.232  10.056   1.655  0.5751  1.0753 -0.2227
  337MOL0     C45396   3.173  10.126   1.545 -0.3052 -0.2193  0.6289
  337MOL0     C45397   3.038  10.065   1.541  0.4287 -0.4581 -0.4598
  337MOL0     C45398   2.934  10.172   1.600 -0.3966 -0.1435 -0.3832
  337MOL0     C45399   2.796  10.114   1.593  0.1165  0.0775 -0.3703
  337MOL0     C45400   2.687  10.210   1.654  0.7129 -1.2069  0.2167
  337MOL0     C45401   2.680  10.363   1.609 -0.2298  0.4850 -0.0582
  337MOL0     C45402   2.563  10.441   1.674 -0.0866  0.2223 -0.4978
  337MOL0     C45403   2.441  10.448   1.578 -0.5948 -0.3975  0.5972
  337MOL0    Cl45404   2.298  10.521   1.651  0.1972 -0.4088 -0.1015
  337MOL0     C45405   3.415   9.915   1.578  0.2231 -0.1770  0.0297
  337MOL0     C45406   3.556   9.891   1.580  0.0993 -0.5910  0.2350
  337MOL0     O45407   3.850  10.115   1.526 -0.2670  0.3690 -0.1064
  337MOL0     C45408   4.063   9.861   1.645 -0.2181 -0.7418  0.8589
  337MOL0     C45409   4.205   9.827   1.649  0.4243 -0.1857 -1.0928
  337MOL0     N45410   4.494   9.603   1.933  1.1236 -0.1544  0.0151
  337MOL0     N45411   4.519   9.522   2.029 -0.1326 -0.6847  0.8941
  337MOL0     C45412   5.138   8.901   2.785 -1.3117 -0.0294  1.2449
  337MOL0     C45413   5.241   8.818   2.738 -0.2895 -1.2815 -0.5002
  337MOL0     C45414   5.520   8.574   2.543 -0.9124  0.2308 -0.5607
  337MOL0     C45415   5.638   8.591   2.620  0.5654  0.3061 -0.5731
  337MOL0     C45416   5.747   8.509   2.615  0.2371  0.9991 -1.5255
  337MOL0     C45417   5.733   8.386   2.543  0.5128 -1.1265  0.5271
  337MOL0     O45418   5.818   8.274   2.548  0.0270 -0.4758  0.2321
  337MOL0     C45419   5.944   8.278   2.610  0.1753  0.2105 -0.9423
  337MOL0     C45420   5.904   8.253   2.755 -0.1965  0.0048 -0.5125
  337MOL0     C45421   6.036   8.242   2.833  0.5814 -0.5702 -0.5240
  337MOL0     C45422   6.002   8.206   2.982 -0.3924 -0.1873  0.8236
  337MOL0     C45423   6.133   8.188   3.056  0.1878  0.6681 -0.4226
  337MOL0     C45424   6.224   8.187   3.136 -0.0082  0.0588 -0.7214
  337MOL0     C45425   5.623   8.378   2.460  0.6094  0.0814 -0.0801
  337MOL0     C45426   5.520   8.471   2.452 -0.4751  0.0181  0.3927
  337MOL0     C45427   5.424   8.468   2.343  0.1740  0.6148 -0.3327
  337MOL0     H45428   5.432   9.042   2.576 -2.2816 -0.0107 -3.2608
  337MOL0     H45429   5.273   9.193   2.688  2.0132 -0.0228  4.2853
  337MOL0     H45430   4.894   9.054   2.699  3.2302  1.2968 -0.0476
  337MOL0     H45431   4.887   9.015   2.880  1.5721 -2.2548 -2.2553
  337MOL0     H45432   4.839   9.235   2.945  4.1655 -1.2329 -1.5930
  337MOL0     H45433   4.715   9.169   2.828 -0.4001  0.6206 -0.4078
  337MOL0     H45434   4.877   9.278   2.643  0.6623  3.7818 -1.0233
  337MOL0     H45435   4.950   9.365   2.779 -1.3723  3.0201 -2.1940
  337MOL0     H45436   4.659   9.392   2.713 -0.4496 -0.6923 -0.8232
  337MOL0     H45437   4.759   9.481   2.820 -1.5839 -3.5598  1.8468
  337MOL0     H45438   4.711   9.605   2.617  1.3464  0.6773  1.1142
  337MOL0     H45439   4.874   9.576   2.602  0.4269 -1.2574  1.5709
  337MOL0     H45440   4.829   9.391   2.431  0.7026  0.9336 -0.7023
  337MOL0     H45441   4.663   9.395   2.476 -0.6280  0.8817 -0.4319
  337MOL0     H45442   4.801   9.612   2.319  0.2515 -1.8395 -3.1639
  337MOL0     H45443   4.636   9.624   2.395 -0.9804  0.9707 -3.1714
  337MOL0     H45444   4.730   9.416   2.188  1.1790  0.9168  2.3149
  337MOL0     H45445   4.576   9.413   2.265  1.9715 -3.6318 -1.6022
  337MOL0     H45446   4.700   9.769   2.122 -0.9967  2.4207 -2.4562
  337MOL0     H45447   4.482   9.868   1.851 -1.5400 -2.8230  1.6352
  337MOL0     H45448   4.635   9.915   1.924  1.4899 -0.0735 -0.3156
  337MOL0     H45449   4.757   9.763   1.768 -0.4175 -2.4100 -3.2338
  337MOL0     H45450   4.610   9.727   1.698 -3.1146  0.6220  2.8766
  337MOL0     H45451   4.703   9.906   1.549 -0.8849 -0.6574 -1.0026
  337MOL0     H45452   4.748  10.004   1.693  1.7846 -2.7254  0.8471
  337MOL0     H45453   4.546  10.064   1.553 -0.0434 -3.0216 -3.5285
  337MOL0     H45454   4.527  10.039   1.735 -0.9957 -4.3657  2.4114
  337MOL0     H45455   4.324  10.121   1.532 -0.5594  1.2296 -0.0151
  337MOL0     H45456   4.083  10.180   1.521 -2.1893 -0.6041 -1.6553
  337MOL0     H45457   3.661  10.130   1.782  0.8379  0.5479 -0.8848
  337MOL0     H45458   3.405  10.186   1.778  0.6655 -1.1793  1.4219
  337MOL0     H45459   3.183  10.232   1.573 -0.0744  0.2702 -1.2075
  337MOL0     H45460   3.240  10.117   1.459  5.0467 -0.7646  4.3236
  337MOL0     H45461   3.024  10.038   1.436 -0.7905  0.5826 -0.5846
  337MOL0     H45462   3.025   9.973   1.598 -0.0417  0.5438  1.1332
  337MOL0     H45463   2.962  10.197   1.703 -1.3171 -3.1591  0.6930
  337MOL0     H45464   2.954  10.267   1.550  1.4039 -0.1434  0.2549
  337MOL0     H45465   2.800  10.023   1.653 -0.1497  0.2760 -0.0465
  337MOL0     H45466   2.777  10.100   1.486  0.3930  2.2442 -0.7634
  337MOL0     H45467   2.704  10.207   1.762 -1.9357  0.5533  0.7831
  337MOL0     H45468   2.591  10.164   1.628 -0.8140  0.7135  2.1600
  337MOL0     H45469   2.777  10.409   1.627  0.0003  1.7378 -3.8317
  337MOL0     H45470   2.671  10.353   1.501 -2.5135 -0.7490  0.1696
  337MOL0     H45471   2.596  10.537   1.713  1.9188 -1.7819  3.3113
  337MOL0     H45472   2.528  10.383   1.761  0.6581 -0.6485 -0.7620
  337MOL0     H45473   2.466  10.514   1.493 -1.9649  1.3785  1.5052
  337MOL0     H45474   2.412  10.357   1.525  1.5897 -1.3567  0.9384
  337MOL0     H45475   3.361   9.844   1.515  1.0115 -1.0551  0.3207
  337MOL0     H45476   3.585   9.817   1.506 -0.0176  1.1827 -1.6813
  337MOL0     H45477   3.999   9.781   1.680  1.1363 -2.0510  0.4239
  337MOL0     H45478   4.233   9.729   1.687 -2.8102 -2.1716 -3.3863
  337MOL0     H45479   5.053   8.856   2.836 -1.2889  0.6700  1.9146
  337MOL0     H45480   5.239   8.714   2.768  0.1199 -0.8556  1.0882
  337MOL0     H45481   5.655   8.674   2.689 -1.9419 -0.4003  1.0132
  337MOL0     H45482   5.835   8.533   2.674 -1.0236  3.9113 -0.6511
  337MOL0     H45483   5.991   8.376   2.599  2.1800 -0.4403  1.0599
  337MOL0     H45484   6.001   8.196   2.566 -2.2055 -3.0520  1.5552
  337MOL0     H45485   5.845   8.161   2.762 -1.0289  0.5422 -0.3528
  337MOL0     H45486   5.849   8.343   2.783 -1.6273 -0.1213 -2.6658
  337MOL0     H45487   6.089   8.338   2.826 -1.7156  0.9355  1.3723
  337MOL0     H45488   6.101   8.168   2.786  1.7880  1.5293 -2.3742
  337MOL0     H45489   5.957   8.297   3.022  1.4151  1.4501 -0.6796
  337MOL0     H45490   5.941   8.115   2.981  1.1012 -1.2437 -0.9920
  337MOL0     H45491   6.308   8.191   3.203 -1.1305  2.5804  0.6968
  337MOL0     H45492   5.638   8.290   2.398 -0.4017  0.6069 -1.0900
  337MOL0     H45493   5.335   8.413   2.374  0.5518  1.1392  1.7888
  337MOL0     H45494   5.421   8.567   2.298  3.5841  0.3852 -1.3249
  337MOL0     H45495   5.474   8.414   2.262  0.0600 -1.9527  1.1820
  338MOL0     O45496   7.224   8.856   0.984 -0.2863  0.1011 -0.5102
  338MOL0     C45497   7.323   8.865   0.915 -0.3586  0.1958 -0.0441
  338MOL0     O45498   7.439   8.799   0.936  0.1521 -0.7654 -0.2024
  338MOL0     C45499   7.454   8.722   1.044 -0.4372 -0.9856 -0.4285
  338MOL0     C45500   7.505   8.761   1.164 -1.1355 -0.2184 -0.1674
  338MOL0     C45501   7.528   8.668   1.274 -0.3494  0.0621  0.4319
  338MOL0     C45502   7.487   8.531   1.263  0.3632  0.9367  0.9865
  338MOL0     O45503   7.516   8.451   1.365 -0.7793 -0.2357 -0.1503
  338MOL0     C45504   7.434   8.336   1.382 -0.6212 -0.2847 -0.3141
  338MOL0     C45505   7.477   8.211   1.306  1.2723  1.4443 -0.6511
  338MOL0     C45506   7.618   8.175   1.332  0.5864 -0.4503 -0.0663
  338MOL0     C45507   7.651   8.044   1.412  0.0630  0.2591 -0.3779
  338MOL0     C45508   7.793   7.998   1.391 -0.1155 -0.2461 -0.8465
  338MOL0     C45509   7.913   8.101   1.408  0.0603 -0.7355  0.0367
  338MOL0     C45510   8.045   8.030   1.402 -0.9493 -0.6540  0.5166
  338MOL0     C45511   8.096   7.985   1.259  0.4081  0.4223 -0.4158
  338MOL0     N45512   8.210   7.899   1.269 -0.0239 -0.5029  0.6587
  338MOL0     C45513   8.311   7.906   1.182  0.4942 -0.1726 -0.8471
  338MOL0     C45514   8.375   7.792   1.218 -0.8837  0.3252  0.1815
  338MOL0     C45515   8.494   7.746   1.147  0.5077 -0.3928 -1.0698
  338MOL0     C45516   8.610   7.812   1.205 -0.1170  0.0779  0.5464
  338MOL0     C45517   8.745   7.740   1.172 -0.5204  0.5676 -0.6212
  338MOL0     C45518   8.771   7.698   1.023  0.6191 -0.1359  0.2325
  338MOL0     O45519   8.774   7.817   0.934  0.3913 -0.1279 -0.3977
  338MOL0     C45520   8.772   7.797   0.799  0.0861 -0.0970  0.4997
  338MOL0     C45521   8.762   7.679   0.734  0.4351  1.0675 -0.4450
  338MOL0     C45522   8.769   7.663   0.598  0.4298  0.2098  0.3747
  338MOL0     C45523   8.775   7.773   0.513 -0.7451  0.1305 -0.0596
  338MOL0     C45524   8.793   7.759   0.366 -0.5801  0.6836 -0.0055
  338MOL0     O45525   8.714   7.659   0.307 -0.1740 -0.8380  0.8015
  338MOL0     C45526   8.755   7.616   0.185  1.2468  1.2124  0.5595
  338MOL0     C45527   8.886   7.567   0.155  0.5731 -0.2683 -0.0735
  338MOL0     C45528   8.925   7.510   0.039 -0.1702 -0.0961  0.0856
  338MOL0     C45529   8.837   7.501  -0.071  0.1122  0.1802 -0.5206
  338MOL0     O45530   8.869   7.462  -0.204 -0.3308  0.0075 -0.4748
  338MOL0     C45531   8.990   7.514  -0.270  0.6394 -1.0987 -0.4112
  338MOL0     C45532   9.015   7.666  -0.251  0.0222  0.0225 -0.1674
  338MOL0     C45533   9.123   7.735  -0.337 -0.3142  0.4718  0.5107
  338MOL0     C45534   9.266   7.675  -0.330  0.3060 -0.3768  0.0801
  338MOL0     C45535   9.341   7.707  -0.199  0.2339 -0.7354 -0.2719
  338MOL0     C45536   9.478   7.650  -0.188 -0.0225  0.2795  0.8558
  338MOL0     C45537   9.586   7.698  -0.091  0.8489 -0.0003 -0.1970
  338MOL0     C45538   9.716   7.617  -0.064  1.0405 -0.0357 -0.7479
  338MOL0    Cl45539   9.838   7.641  -0.175 -0.4523 -0.0464  0.6193
  338MOL0     C45540   8.701   7.532  -0.045 -0.0146 -1.3200  0.3975
  338MOL0     C45541   8.657   7.590   0.075 -1.2401 -0.5891 -0.3970
  338MOL0     O45542   8.874   7.835   0.302 -0.1409  0.1249 -0.0385
  338MOL0     C45543   8.783   7.893   0.573  1.4159 -0.6807 -0.0606
  338MOL0     C45544   8.771   7.905   0.712 -0.6923  0.2093 -1.1198
  338MOL0     N45545   8.308   7.718   1.319  0.4018  0.3391  0.3893
  338MOL0     N45546   8.199   7.780   1.339 -0.6183  0.6062  0.2685
  338MOL0     C45547   7.408   8.499   1.143 -0.2802 -0.5781  0.2904
  338MOL0     C45548   7.405   8.594   1.033  0.2316 -0.0475 -0.4373
  338MOL0     C45549   7.313   8.940   0.788 -0.9486 -0.7146  0.5718
  338MOL0     C45550   7.275   9.071   0.798  0.4925  0.3869 -0.1503
  338MOL0     C45551   7.245   9.141   0.679 -0.2332  0.5614 -0.0846
  338MOL0     C45552   7.249   9.083   0.554  0.1485 -0.9918  0.0988
  338MOL0     O45553   7.218   9.165   0.442  0.1635 -0.2167 -0.1603
  338MOL0     C45554   7.079   9.187   0.428  0.4965  0.5355 -0.1624
  338MOL0     C45555   7.002   9.079   0.351  0.9425  0.0714 -0.2991
  338MOL0     C45556   7.056   9.019   0.225 -0.7443 -1.2192 -0.2665
  338MOL0     C45557   7.020   9.096   0.098  0.7298 -0.2903  0.6388
  338MOL0     C45558   7.131   9.167   0.049 -0.4276  0.0962 -0.2323
  338MOL0     C45559   7.231   9.219   0.003 -0.0730 -0.4851  0.6286
  338MOL0     C45560   7.300   8.951   0.541 -0.2642 -0.4514 -0.0676
  338MOL0     C45561   7.337   8.883   0.658  0.0385 -0.9057  0.0092
  338MOL0     C45562   7.399   8.748   0.637 -1.1753 -0.6521  0.4169
  338MOL0     H45563   7.527   8.866   1.156 -0.9446 -0.3913 -2.4470
  338MOL0     H45564   7.577   8.698   1.366 -0.4230 -1.5876  1.0447
  338MOL0     H45565   7.446   8.317   1.489 -1.3608  0.5031 -0.0784
  338MOL0     H45566   7.329   8.362   1.367 -0.2790  0.1120 -2.4935
  338MOL0     H45567   7.464   8.228   1.199 -0.9676  0.3273 -0.6078
  338MOL0     H45568   7.421   8.122   1.335  1.6023  1.2793 -0.5110
  338MOL0     H45569   7.669   8.254   1.387 -0.1159 -0.6491  0.8992
  338MOL0     H45570   7.660   8.179   1.231  0.2887 -0.0263 -0.1746
  338MOL0     H45571   7.633   8.059   1.519  1.8185 -0.1171 -0.0004
  338MOL0     H45572   7.586   7.963   1.381  2.9462 -2.0291 -0.8644
  338MOL0     H45573   7.806   7.914   1.460 -2.8401 -1.6985 -1.9710
  338MOL0     H45574   7.803   7.953   1.292  0.0111  1.6674 -1.7558
  338MOL0     H45575   7.904   8.175   1.328  2.2918  1.0999  1.3386
  338MOL0     H45576   7.912   8.160   1.500  0.8782 -0.3169 -0.2137
  338MOL0     H45577   8.041   7.946   1.472  1.6564 -0.1141  1.4454
  338MOL0     H45578   8.127   8.096   1.433  0.6457 -0.3190 -3.7634
  338MOL0     H45579   8.018   7.932   1.204 -1.7752  1.2932  1.6167
  338MOL0     H45580   8.124   8.083   1.219  1.1392  1.0949  1.5850
  338MOL0     H45581   8.333   7.978   1.103 -4.1691  0.9114 -1.4820
  338MOL0     H45582   8.518   7.643   1.176  0.2121  0.4542  2.7927
  338MOL0     H45583   8.484   7.750   1.038  1.4810 -2.3383 -1.2709
  338MOL0     H45584   8.615   7.918   1.175 -0.1791  0.1102  0.6478
  338MOL0     H45585   8.613   7.803   1.314  3.9496 -0.5038  0.5578
  338MOL0     H45586   8.757   7.645   1.225 -1.8687  0.2943 -0.7796
  338MOL0     H45587   8.831   7.801   1.201  0.3055 -0.6064 -0.4913
  338MOL0     H45588   8.692   7.634   0.984 -2.1341  0.6109  3.9522
  338MOL0     H45589   8.872   7.658   1.019  0.4465 -0.6316  0.7170
  338MOL0     H45590   8.758   7.586   0.790 -0.3867  0.9543 -0.6796
  338MOL0     H45591   8.778   7.562   0.560  1.1005 -0.1664  1.4890
  338MOL0     H45592   8.949   7.571   0.243 -1.0220  0.2649  1.0905
  338MOL0     H45593   9.027   7.474   0.025 -0.6489 -1.5746  0.3408
  338MOL0     H45594   9.080   7.464  -0.233  0.7328 -0.1434  0.7092
  338MOL0     H45595   8.982   7.502  -0.379 -2.1726  4.3245 -1.1001
  338MOL0     H45596   8.922   7.716  -0.279 -0.5961 -1.0847 -0.1618
  338MOL0     H45597   9.052   7.681  -0.149 -0.8327  0.7842  0.0427
  338MOL0     H45598   9.088   7.733  -0.441 -0.0250  1.9930  0.3604
  338MOL0     H45599   9.129   7.841  -0.309  0.4612  0.0583  2.0143
  338MOL0     H45600   9.314   7.727  -0.414  1.5861 -0.3999  0.7679
  338MOL0     H45601   9.265   7.566  -0.334  0.9763 -0.3615 -1.9179
  338MOL0     H45602   9.289   7.678  -0.107 -0.6796  0.1967 -0.4813
  338MOL0     H45603   9.344   7.816  -0.193 -2.7776 -0.6317  1.0579
  338MOL0     H45604   9.458   7.544  -0.169 -2.8365  0.3899 -0.9430
  338MOL0     H45605   9.521   7.664  -0.288 -1.5886  5.2524  0.6255
  338MOL0     H45606   9.547   7.685   0.010  0.0112  1.2877 -0.3211
  338MOL0     H45607   9.608   7.804  -0.108  1.0555 -0.0955 -0.5128
  338MOL0     H45608   9.761   7.659   0.026 -0.5459  1.7050 -0.7040
  338MOL0     H45609   9.689   7.512  -0.053 -1.8854  0.8726  2.4165
  338MOL0     H45610   8.626   7.522  -0.123 -2.7348 -2.1804  2.9327
  338MOL0     H45611   8.552   7.614   0.085 -0.8226  1.9005 -1.2013
  338MOL0     H45612   8.798   7.983   0.515  0.6927 -0.1938  0.4879
  338MOL0     H45613   8.771   8.000   0.764  1.4234 -1.7662  2.9407
  338MOL0     H45614   7.355   8.405   1.140  0.5975 -1.0592 -1.0206
  338MOL0     H45615   7.354   8.572   0.940 -0.6690 -0.2793  0.0899
  338MOL0     H45616   7.243   9.124   0.887 -1.7328  0.0092 -0.6739
  338MOL0     H45617   7.214   9.244   0.668 -2.6955  0.0003  0.9234
  338MOL0     H45618   7.066   9.265   0.352 -1.9615 -1.0477 -1.5418
  338MOL0     H45619   7.034   9.213   0.524 -1.8782 -0.9322 -0.7676
  338MOL0     H45620   6.898   9.108   0.329 -0.3806 -3.8637 -0.1627
  338MOL0     H45621   6.990   9.005   0.430  0.9995  2.7813  2.4160
  338MOL0     H45622   7.042   8.911   0.217 -1.9245 -1.4662  3.2952
  338MOL0     H45623   7.165   9.022   0.233 -0.4358  3.1803 -2.8968
  338MOL0     H45624   6.983   9.034   0.016 -2.9879  1.6271  0.6506
  338MOL0     H45625   6.939   9.166   0.122  0.7647 -0.2454  0.6250
  338MOL0     H45626   7.323   9.267  -0.025 -0.6871 -1.1368 -2.9059
  338MOL0     H45627   7.322   8.906   0.445 -2.3490  0.0678 -0.8542
  338MOL0     H45628   7.503   8.767   0.606 -1.9617  0.6799 -1.6251
  338MOL0     H45629   7.403   8.680   0.722  1.0732  0.2945  1.1448
  338MOL0     H45630   7.347   8.693   0.558 -0.5971 -1.5344  0.6372
  339MOL0     O45631   3.722   5.406   9.189 -0.0720 -0.0060 -0.2741
  339MOL0     C45632   3.753   5.307   9.124 -0.7783 -0.3422 -0.2481
  339MOL0     O45633   3.705   5.281   8.997  0.0156 -0.0361 -0.2078
  339MOL0     C45634   3.635   5.384   8.931  0.3779 -0.0283  1.2167
  339MOL0     C45635   3.512   5.436   8.995  0.3766  0.1152  1.2720
  339MOL0     C45636   3.443   5.537   8.933  0.1689 -0.4584  0.6616
  339MOL0     C45637   3.479   5.593   8.810  0.1280 -0.4095 -0.6825
  339MOL0     O45638   3.395   5.684   8.756  0.8419  0.5767  0.6773
  339MOL0     C45639   3.400   5.810   8.827 -0.4138  1.0916 -0.3631
  339MOL0     C45640   3.326   5.909   8.728 -0.2565  1.8539  1.0332
  339MOL0     C45641   3.309   6.051   8.780 -0.5593 -0.4507 -0.7162
  339MOL0     C45642   3.216   6.081   8.903 -0.3468  1.4851  0.2656
  339MOL0     C45643   3.181   6.229   8.925  0.9109 -0.8616  0.2022
  339MOL0     C45644   3.085   6.289   8.816  0.0851 -0.5545 -0.4248
  339MOL0     C45645   2.936   6.243   8.798  0.2070  0.4178  0.2262
  339MOL0     C45646   2.848   6.328   8.886  0.3480  0.1299 -0.5013
  339MOL0     N45647   2.708   6.304   8.873  0.0177  0.1014  0.1646
  339MOL0     C45648   2.617   6.278   8.973 -1.2981  0.0365 -0.0561
  339MOL0     C45649   2.497   6.270   8.908 -0.0664 -0.3246 -0.4155
  339MOL0     C45650   2.363   6.247   8.965  0.4003  0.6480  0.8458
  339MOL0     C45651   2.282   6.120   8.908 -0.8319 -0.2660  0.7330
  339MOL0     C45652   2.164   6.097   8.990  0.7162  0.5627 -0.7062
  339MOL0     C45653   2.057   6.012   8.918 -0.0725 -0.1230 -0.1670
  339MOL0     O45654   2.003   6.063   8.798  0.0762 -0.4605 -0.0504
  339MOL0     C45655   1.870   6.101   8.811  0.6651  0.2078  0.1498
  339MOL0     C45656   1.791   6.084   8.702  0.0631 -0.0853 -0.4246
  339MOL0     C45657   1.656   6.129   8.701 -0.8407 -0.6603 -0.6093
  339MOL0     C45658   1.604   6.194   8.815 -0.4322 -0.5131  0.1233
  339MOL0     C45659   1.457   6.246   8.820 -0.3468  0.7301 -1.0668
  339MOL0     O45660   1.407   6.273   8.944 -1.1504 -0.6149  2.0393
  339MOL0     C45661   1.272   6.275   8.950  0.3005 -0.6822 -0.4878
  339MOL0     C45662   1.201   6.171   9.015 -0.1192  0.1945  1.4456
  339MOL0     C45663   1.059   6.177   9.029 -0.6377  0.4455  0.3024
  339MOL0     C45664   0.990   6.283   8.978  0.5205 -1.1403 -0.4643
  339MOL0     O45665   0.856   6.302   8.980 -0.0535 -0.2729 -0.4597
  339MOL0     C45666   0.774   6.217   9.062 -0.7010 -0.3125  0.8181
  339MOL0     C45667   0.627   6.257   9.062 -0.4937  0.8399 -1.1479
  339MOL0     C45668   0.544   6.184   9.178 -0.4382 -0.0422  0.0859
  339MOL0     C45669   0.579   6.037   9.176  0.1991 -0.5349  0.0540
  339MOL0     C45670   0.469   5.934   9.224 -0.1489 -0.6187  0.7402
  339MOL0     C45671   0.522   5.792   9.224 -0.5805 -0.7307 -0.0712
  339MOL0     C45672   0.432   5.712   9.313  0.5686 -0.0794 -0.2227
  339MOL0     C45673   0.454   5.565   9.265  0.0778  0.7749  0.7428
  339MOL0    Cl45674   0.340   5.458   9.343  0.1345 -0.0358 -0.4613
  339MOL0     C45675   1.054   6.390   8.913  0.2292  0.1550 -1.1002
  339MOL0     C45676   1.198   6.392   8.906 -0.2010 -0.5863 -0.6795
  339MOL0     O45677   1.396   6.250   8.713  0.1658 -1.0163 -0.3348
  339MOL0     C45678   1.681   6.197   8.930  0.3252  0.1497 -0.5341
  339MOL0     C45679   1.815   6.152   8.933 -0.4349 -0.6269  0.0372
  339MOL0     N45680   2.515   6.280   8.778 -0.3329 -0.0983  0.9284
  339MOL0     N45681   2.640   6.307   8.752 -0.2540  0.0753 -0.7782
  339MOL0     C45682   3.598   5.544   8.752  0.3783  0.0334  0.8819
  339MOL0     C45683   3.681   5.448   8.816  0.4414  1.1710 -0.7584
  339MOL0     C45684   3.845   5.209   9.184 -0.3665  0.1477  0.6805
  339MOL0     C45685   3.808   5.084   9.152  0.0204  0.5661  0.3964
  339MOL0     C45686   3.876   4.974   9.199  0.0839  0.3152  0.4320
  339MOL0     C45687   3.994   4.986   9.278 -0.2307  0.0659  0.1089
  339MOL0     O45688   4.063   4.870   9.298 -0.2425  0.5488 -0.6551
  339MOL0     C45689   4.185   4.876   9.373 -0.2682  0.3572  0.4296
  339MOL0     C45690   4.248   4.735   9.393 -0.2846  0.3159  1.1894
  339MOL0     C45691   4.156   4.640   9.472 -0.9900  0.0015  0.6170
  339MOL0     C45692   4.064   4.562   9.383  0.4264  0.7142 -0.1547
  339MOL0     C45693   3.963   4.480   9.467  0.7055  0.1994  0.0956
  339MOL0     C45694   3.881   4.421   9.533  0.9052  0.6282  0.1318
  339MOL0     C45695   4.030   5.118   9.311 -0.6144  0.1244  0.4184
  339MOL0     C45696   3.958   5.229   9.264  0.3232  0.6358 -0.2751
  339MOL0     C45697   4.022   5.359   9.291 -0.0005  0.2735 -0.2437
  339MOL0     H45698   3.479   5.397   9.091  0.7649 -0.4320  1.1894
  339MOL0     H45699   3.358   5.586   8.980 -2.7939 -4.2428 -0.2426
  339MOL0     H45700   3.353   5.796   8.925  0.8135  3.4977  0.6377
  339MOL0     H45701   3.504   5.839   8.843 -0.1888  0.9883 -1.5283
  339MOL0     H45702   3.223   5.874   8.712  0.7645 -1.7031  1.3949
  339MOL0     H45703   3.383   5.911   8.635 -0.2599 -2.3485  0.7742
  339MOL0     H45704   3.284   6.106   8.689 -1.0354  0.3748 -0.1012
  339MOL0     H45705   3.406   6.091   8.810 -0.5980  0.2846 -1.5521
  339MOL0     H45706   3.122   6.035   8.873  0.8895 -0.6327 -0.6357
  339MOL0     H45707   3.254   6.035   8.995 -0.2240  0.5079 -0.2621
  339MOL0     H45708   3.147   6.244   9.027 -0.8385  4.9414 -0.8607
  339MOL0     H45709   3.280   6.275   8.926  0.3076  0.5124 -0.1748
  339MOL0     H45710   3.083   6.398   8.827 -4.0696 -0.4033 -0.8994
  339MOL0     H45711   3.137   6.259   8.725  1.3132 -1.8558  0.6582
  339MOL0     H45712   2.919   6.142   8.837  1.4229 -0.2288 -0.8550
  339MOL0     H45713   2.908   6.251   8.692 -2.9768  0.5356  0.9799
  339MOL0     H45714   2.877   6.301   8.988 -4.1524 -1.1033  0.6864
  339MOL0     H45715   2.860   6.436   8.874 -3.5747  1.5095  4.5455
  339MOL0     H45716   2.649   6.268   9.076  0.3404  1.2889 -0.4135
  339MOL0     H45717   2.363   6.243   9.074  1.0167  5.5938  1.2319
  339MOL0     H45718   2.305   6.331   8.927 -1.4769 -1.6500 -1.8277
  339MOL0     H45719   2.265   6.143   8.802 -2.5295  0.2197  1.0696
  339MOL0     H45720   2.357   6.041   8.908  0.7170  1.1465  0.8500
  339MOL0     H45721   2.117   6.191   9.021  0.3862  0.4120 -0.7408
  339MOL0     H45722   2.205   6.046   9.078 -1.5450 -2.4503 -1.2430
  339MOL0     H45723   1.977   5.992   8.990 -0.0540  1.5839  0.3686
  339MOL0     H45724   2.118   5.923   8.904  0.3477  0.1641 -0.1701
  339MOL0     H45725   1.841   6.051   8.611 -0.4947  1.5439 -1.3708
  339MOL0     H45726   1.596   6.135   8.611 -2.1499  4.3126  0.2626
  339MOL0     H45727   1.258   6.086   9.050  1.8964  0.8590 -0.0583
  339MOL0     H45728   1.003   6.091   9.063  0.5092  0.4748  2.4553
  339MOL0     H45729   0.777   6.111   9.035 -0.9448 -0.0464 -0.2953
  339MOL0     H45730   0.811   6.221   9.165 -1.7546 -1.7190  1.2940
  339MOL0     H45731   0.631   6.365   9.081  0.2800  0.8689 -1.4312
  339MOL0     H45732   0.579   6.237   8.966  0.8063 -3.3399 -1.1003
  339MOL0     H45733   0.560   6.228   9.277  0.6676  0.2411 -0.2068
  339MOL0     H45734   0.441   6.185   9.143 -0.2943 -1.5734 -0.4630
  339MOL0     H45735   0.678   6.022   9.221  0.7624  0.5176 -0.8052
  339MOL0     H45736   0.595   6.010   9.072  4.6172 -1.4686  0.7600
  339MOL0     H45737   0.378   5.940   9.163 -0.6025  0.5734  1.5261
  339MOL0     H45738   0.439   5.957   9.326 -0.5276 -3.4276  1.3415
  339MOL0     H45739   0.521   5.762   9.118 -0.2994  2.5784 -1.1275
  339MOL0     H45740   0.622   5.779   9.267 -1.7305  1.6812  3.8132
  339MOL0     H45741   0.325   5.727   9.292 -0.4183 -2.4094  2.4356
  339MOL0     H45742   0.453   5.717   9.420  0.0248  1.1914 -0.1571
  339MOL0     H45743   0.434   5.560   9.158 -0.4266  1.3595  0.8062
  339MOL0     H45744   0.554   5.524   9.285  0.9882  3.0664  1.1043
  339MOL0     H45745   0.998   6.482   8.904  2.1064  1.2814 -1.8922
  339MOL0     H45746   1.246   6.483   8.871  0.1112 -1.0421 -1.4608
  339MOL0     H45747   1.632   6.244   9.015 -1.6635  0.5469 -1.8389
  339MOL0     H45748   1.884   6.166   9.016 -1.7629  0.4792  0.9819
  339MOL0     H45749   3.638   5.587   8.661  1.2201 -1.4505  0.5224
  339MOL0     H45750   3.769   5.400   8.775  1.1219 -1.8660  3.4929
  339MOL0     H45751   3.722   5.073   9.087  0.9328 -0.2592 -0.6914
  339MOL0     H45752   3.867   4.870   9.169  2.7296  0.2453 -0.3722
  339MOL0     H45753   4.161   4.916   9.472  1.5071  0.1261  0.9870
  339MOL0     H45754   4.258   4.943   9.327 -0.7709  0.7511  0.1939
  339MOL0     H45755   4.343   4.751   9.445  1.7333  2.7336 -2.7468
  339MOL0     H45756   4.266   4.688   9.296  0.8029  1.7900  0.6378
  339MOL0     H45757   4.106   4.693   9.554 -1.2637  0.6141  0.0657
  339MOL0     H45758   4.211   4.561   9.523  0.5888  0.5438 -0.1515
  339MOL0     H45759   4.008   4.630   9.318 -4.3614 -0.3195  2.4144
  339MOL0     H45760   4.121   4.485   9.330  2.2764  0.3753  2.1450
  339MOL0     H45761   3.803   4.375   9.590  0.7475  0.3112 -0.3357
  339MOL0     H45762   4.118   5.148   9.367 -0.4996 -2.8640  2.0625
  339MOL0     H45763   4.117   5.366   9.237 -1.2226  0.8098 -2.4405
  339MOL0     H45764   3.953   5.438   9.258 -2.7230 -2.3284 -1.3013
  339MOL0     H45765   4.044   5.375   9.397 -3.1825  0.9855  0.4335
  340MOL0     O45766   0.373   9.901  11.384  0.6676  0.2817  0.0597
  340MOL0     C45767   0.364   9.779  11.351 -0.6824 -0.2087 -0.2113
  340MOL0     O45768   0.373   9.734  11.227 -0.4604  0.2192 -0.5476
  340MOL0     C45769   0.361   9.828  11.126 -0.0121  0.1853 -0.7168
  340MOL0     C45770   0.242   9.846  11.054 -0.0576 -0.3702  0.2987
  340MOL0     C45771   0.226   9.932  10.943 -0.1768 -0.7556  0.2155
  340MOL0     C45772   0.341  10.002  10.896  0.3240 -0.6959  0.1828
  340MOL0     O45773   0.335  10.072  10.778  0.1710  0.5103 -0.2583
  340MOL0     C45774   0.254  10.024  10.668  0.8177  0.3514  1.1929
  340MOL0     C45775   0.143  10.130  10.637  0.2031  0.3657 -0.2365
  340MOL0     C45776   0.208  10.271  10.603 -0.2337  0.8106 -0.1853
  340MOL0     C45777   0.093  10.371  10.563  0.5452 -0.4484 -0.6291
  340MOL0     C45778   0.159  10.501  10.525  0.4718  0.0564  0.4485
  340MOL0     C45779   0.058  10.608  10.493  0.7869  0.4388 -0.6341
  340MOL0     C45780   0.127  10.736  10.453  0.0989  0.3860 -0.6982
  340MOL0     C45781   0.038  10.854  10.409  0.0294 -0.0044  0.5383
  340MOL0     N45782  -0.104  10.817  10.377  0.3610  0.0320 -0.5061
  340MOL0     C45783  -0.186  10.786  10.482  0.2252  0.4723  0.3738
  340MOL0     C45784  -0.301  10.738  10.418  0.7229  0.4700 -0.4901
  340MOL0     C45785  -0.420  10.678  10.487  0.0776 -0.5167  0.0271
  340MOL0     C45786  -0.387  10.541  10.545 -0.2347 -0.3110 -1.1382
  340MOL0     C45787  -0.394  10.422  10.451  0.7836  0.5764  0.2513
  340MOL0     C45788  -0.535  10.406  10.376 -0.6783 -0.2385 -0.0812
  340MOL0     O45789  -0.643  10.372  10.455  0.5250 -0.1575 -0.0477
  340MOL0     C45790  -0.753  10.354  10.381  0.9998 -0.2241 -0.1685
  340MOL0     C45791  -0.785  10.229  10.347 -0.6320  1.2933  0.7307
  340MOL0     C45792  -0.909  10.189  10.298  1.1824  0.1314 -0.5188
  340MOL0     C45793  -1.007  10.290  10.272  0.9882 -0.3325  0.6560
  340MOL0     C45794  -1.143  10.257  10.222  0.1228 -0.2478  0.4222
  340MOL0     O45795  -1.211  10.364  10.177  0.0072  0.0330 -0.2463
  340MOL0     C45796  -1.344  10.356  10.131  0.1459 -0.2887  0.6136
  340MOL0     C45797  -1.413  10.476  10.140 -0.8595  0.6364 -0.7155
  340MOL0     C45798  -1.547  10.484  10.102 -0.5372 -0.4148  0.5914
  340MOL0     C45799  -1.607  10.367  10.040  0.5731 -0.5399  0.2800
  340MOL0     O45800  -1.731  10.371   9.991  0.1393 -0.1852 -0.4593
  340MOL0     C45801  -1.768  10.490   9.925  0.1346 -0.2907 -0.5888
  340MOL0     C45802  -1.897  10.464   9.843 -0.4071  0.7055 -0.6564
  340MOL0     C45803  -1.874  10.349   9.738 -0.7006 -0.1051  0.0018
  340MOL0     C45804  -1.735  10.351   9.678  0.0538  0.6955 -0.0269
  340MOL0     C45805  -1.728  10.251   9.563  0.2879 -1.1200 -1.0798
  340MOL0     C45806  -1.597  10.253   9.499 -0.8071  1.5830 -0.5336
  340MOL0     C45807  -1.597  10.162   9.373 -0.2608  0.6441 -0.0381
  340MOL0     C45808  -1.472  10.198   9.276  0.7768  0.0343 -0.3688
  340MOL0    Cl45809  -1.494  10.353   9.205  0.0767 -0.1428 -0.0124
  340MOL0     C45810  -1.538  10.246  10.023 -0.0308  0.1544 -0.1926
  340MOL0     C45811  -1.407  10.240  10.075  0.3700 -0.5916 -0.1261
  340MOL0     O45812  -1.181  10.144  10.248  0.0048 -0.3384 -0.4223
  340MOL0     C45813  -0.974  10.424  10.302  0.1075 -0.1697 -0.3792
  340MOL0     C45814  -0.851  10.460  10.347 -0.4058  0.5873 -0.1823
  340MOL0     N45815  -0.284  10.761  10.283 -0.6533  0.4621  0.0671
  340MOL0     N45816  -0.164  10.805  10.259  0.2304 -0.6039 -0.1705
  340MOL0     C45817   0.458   9.997  10.980 -0.1889  0.8876  0.1336
  340MOL0     C45818   0.468   9.911  11.089 -0.2082 -0.1959 -0.0709
  340MOL0     C45819   0.328   9.679  11.449 -0.8166  0.3652 -0.1836
  340MOL0     C45820   0.314   9.545  11.404 -0.2807  0.2705 -0.7276
  340MOL0     C45821   0.276   9.445  11.490 -0.2088 -0.1552  0.2612
  340MOL0     C45822   0.236   9.471  11.621  0.6115  0.1631  0.4601
  340MOL0     O45823   0.188   9.373  11.694 -0.5855  0.9875  0.1366
  340MOL0     C45824   0.058   9.398  11.724  0.5822  0.0294  0.0139
  340MOL0     C45825  -0.028   9.296  11.641  0.7415 -0.5666 -0.5640
  340MOL0     C45826  -0.171   9.290  11.705  0.0447  0.8052  1.0520
  340MOL0     C45827  -0.232   9.154  11.666  0.3044  0.1488  0.3813
  340MOL0     C45828  -0.253   9.153  11.524 -0.1102  0.0970 -0.2435
  340MOL0     C45829  -0.268   9.168  11.401  0.6537 -0.3850  0.5338
  340MOL0     C45830   0.243   9.603  11.672  0.7956 -0.1330  0.5453
  340MOL0     C45831   0.299   9.706  11.588  0.8016  0.1204  0.2506
  340MOL0     C45832   0.322   9.845  11.648 -0.2357  0.9498  0.3951
  340MOL0     H45833   0.157   9.781  11.072  0.2029 -0.6350  0.5971
  340MOL0     H45834   0.140   9.938  10.877  0.3494  0.6982 -0.3786
  340MOL0     H45835   0.317  10.007  10.581 -0.4992 -1.8862  0.6197
  340MOL0     H45836   0.209   9.925  10.677 -0.1466  0.5418 -0.9159
  340MOL0     H45837   0.073  10.156  10.718 -1.0678  1.3049 -1.5914
  340MOL0     H45838   0.086  10.099  10.549  1.0756  0.5510 -0.8823
  340MOL0     H45839   0.275  10.244  10.521  0.3000  2.8670 -0.4738
  340MOL0     H45840   0.265  10.306  10.689 -1.7104 -1.4815  1.8526
  340MOL0     H45841   0.038  10.314  10.488  3.7485  0.0453 -3.6168
  340MOL0     H45842   0.036  10.394  10.653 -0.2448 -0.4795 -1.1103
  340MOL0     H45843   0.228  10.527  10.607  1.4302 -0.7623 -0.0672
  340MOL0     H45844   0.221  10.482  10.437 -2.5370 -1.9169 -1.4277
  340MOL0     H45845  -0.014  10.581  10.415 -1.0340  1.4036  0.6332
  340MOL0     H45846   0.012  10.631  10.590  1.2099  0.5305 -0.4534
  340MOL0     H45847   0.202  10.720  10.375  1.5130  1.2631  0.4157
  340MOL0     H45848   0.187  10.767  10.539  0.7459 -0.8574 -0.6809
  340MOL0     H45849   0.040  10.923  10.494  1.0466 -0.6570  1.0729
  340MOL0     H45850   0.084  10.906  10.325  2.9156  2.0148  3.1190
  340MOL0     H45851  -0.152  10.776  10.585  1.7721 -1.0472 -0.2443
  340MOL0     H45852  -0.457  10.747  10.564 -0.6581  0.8637 -1.5064
  340MOL0     H45853  -0.504  10.654  10.421 -1.4097 -1.1592  2.0221
  340MOL0     H45854  -0.293  10.539  10.600 -1.2675 -0.0419  0.7019
  340MOL0     H45855  -0.460  10.522  10.624 -1.3427 -1.0439 -2.3052
  340MOL0     H45856  -0.390  10.329  10.510 -0.5124  0.1659 -0.2660
  340MOL0     H45857  -0.321  10.423  10.371 -1.5777 -2.2960 -2.1991
  340MOL0     H45858  -0.522  10.317  10.313 -0.6270  0.2869 -0.8265
  340MOL0     H45859  -0.545  10.488  10.305  2.4222  0.7424  0.4635
  340MOL0     H45860  -0.725  10.139  10.358  1.2415  2.2098 -1.1795
  340MOL0     H45861  -0.930  10.085  10.276  1.8192 -0.2386  0.5483
  340MOL0     H45862  -1.348  10.556  10.174 -1.1215  1.1605 -1.4265
  340MOL0     H45863  -1.587  10.585  10.096  3.5016  1.4191  1.4383
  340MOL0     H45864  -1.805  10.554  10.006  0.7290  0.2634 -0.7471
  340MOL0     H45865  -1.686  10.543   9.876  0.2173  1.3304  1.1792
  340MOL0     H45866  -1.980  10.431   9.907 -1.4586  2.2238 -1.1759
  340MOL0     H45867  -1.919  10.564   9.804 -0.5660  1.1420  0.5107
  340MOL0     H45868  -1.879  10.255   9.795 -0.8969  0.5005  1.0002
  340MOL0     H45869  -1.951  10.347   9.661 -0.5900  1.4709 -0.1736
  340MOL0     H45870  -1.649  10.328   9.742 -0.4377  1.4784  0.9482
  340MOL0     H45871  -1.736  10.455   9.644 -0.0101  0.6569 -0.1410
  340MOL0     H45872  -1.801  10.273   9.484 -1.1916 -3.9878 -0.6430
  340MOL0     H45873  -1.761  10.151   9.594 -1.9821 -0.5187 -1.3614
  340MOL0     H45874  -1.571  10.354   9.467 -0.2673  2.7699  3.1105
  340MOL0     H45875  -1.524  10.218   9.573 -1.9500 -0.2220 -0.1846
  340MOL0     H45876  -1.686  10.172   9.310  0.6590 -0.2965 -1.5719
  340MOL0     H45877  -1.586  10.057   9.402 -2.5222  1.0184  2.6132
  340MOL0     H45878  -1.388  10.180   9.345 -0.3749 -0.9024  0.8464
  340MOL0     H45879  -1.474  10.120   9.200 -0.4835  0.1201 -0.4348
  340MOL0     H45880  -1.575  10.152   9.982  3.2012 -1.3562  0.0295
  340MOL0     H45881  -1.346  10.150  10.074  0.6978 -0.5673  3.8940
  340MOL0     H45882  -1.049  10.501  10.286 -0.5262 -0.3810  1.3811
  340MOL0     H45883  -0.821  10.562  10.367 -0.0738  0.4085  0.2599
  340MOL0     H45884   0.545  10.057  10.955 -1.2096  1.4141 -2.5772
  340MOL0     H45885   0.556   9.913  11.153 -1.6427  2.1443  2.0025
  340MOL0     H45886   0.331   9.516  11.301  2.0257 -1.8270  0.1252
  340MOL0     H45887   0.273   9.341  11.459 -0.0851 -0.4359  1.1667
  340MOL0     H45888   0.020   9.498  11.701 -0.8203 -0.0372  1.8447
  340MOL0     H45889   0.052   9.397  11.833  0.3172  0.9466  0.0156
  340MOL0     H45890   0.023   9.199  11.647  1.4231 -0.1372  1.8713
  340MOL0     H45891  -0.039   9.323  11.536 -0.6031  0.0644 -0.2877
  340MOL0     H45892  -0.224   9.377  11.666  3.7153  1.5534 -3.0066
  340MOL0     H45893  -0.165   9.289  11.815 -2.7027  2.4080  1.3040
  340MOL0     H45894  -0.169   9.071  11.698  1.6385  1.6731  1.8737
  340MOL0     H45895  -0.331   9.137  11.711  0.4494 -3.2745 -0.3163
  340MOL0     H45896  -0.285   9.161  11.295  1.7495 -0.6462  0.3668
  340MOL0     H45897   0.226   9.620  11.777 -1.2296  1.5709  0.0012
  340MOL0     H45898   0.267   9.924  11.597 -2.1010 -0.7466 -0.3369
  340MOL0     H45899   0.301   9.850  11.755  0.9490  1.2578  0.6318
  340MOL0     H45900   0.429   9.869  11.636 -0.1082 -0.6628 -2.9662
  341MOL0     O45901   2.437   7.925   1.481 -0.6389 -0.0755  0.0534
  341MOL0     C45902   2.335   7.964   1.423  0.6782 -0.0512 -0.4678
  341MOL0     O45903   2.329   8.025   1.297  0.0909 -0.1920  0.7943
  341MOL0     C45904   2.442   8.034   1.225  0.0104 -0.5797 -0.5485
  341MOL0     C45905   2.427   8.012   1.084 -0.1619 -0.2157  0.3682
  341MOL0     C45906   2.534   8.035   0.988  0.0480  0.9461 -0.3048
  341MOL0     C45907   2.661   8.077   1.037 -0.4006 -0.0635  0.2640
  341MOL0     O45908   2.771   8.089   0.953 -0.4262  1.1714 -0.1001
  341MOL0     C45909   2.746   8.148   0.826  0.4896 -0.4823  0.0895
  341MOL0     C45910   2.883   8.169   0.760  0.6976  0.2877 -0.6820
  341MOL0     C45911   2.893   8.292   0.682 -0.2961  0.6595 -0.5270
  341MOL0     C45912   3.033   8.295   0.617 -0.9018 -0.4242  0.2228
  341MOL0     C45913   3.096   8.438   0.605 -0.1260  0.2460 -0.0520
  341MOL0     C45914   3.133   8.494   0.744 -0.4646 -0.4108 -1.0396
  341MOL0     C45915   3.208   8.632   0.725 -0.1953  0.4272  0.3635
  341MOL0     C45916   3.259   8.698   0.859 -0.6502  1.1120 -0.0803
  341MOL0     N45917   3.369   8.621   0.926 -0.1309 -0.1441  0.8596
  341MOL0     C45918   3.336   8.538   1.024  0.5511 -0.0581  0.3291
  341MOL0     C45919   3.461   8.483   1.059 -0.1633  0.3360 -0.2002
  341MOL0     C45920   3.471   8.397   1.175 -0.0093  0.6037  0.4652
  341MOL0     C45921   3.460   8.500   1.297  0.4034  0.1036 -0.9159
  341MOL0     C45922   3.471   8.414   1.428 -0.4014  0.8878 -0.3587
  341MOL0     C45923   3.472   8.503   1.552 -1.0562 -0.5491 -0.3283
  341MOL0     O45924   3.579   8.596   1.551 -0.1620 -0.2264 -0.8906
  341MOL0     C45925   3.566   8.726   1.611  0.4662 -0.5294 -0.4324
  341MOL0     C45926   3.663   8.817   1.561 -0.8839  0.4344 -0.8834
  341MOL0     C45927   3.668   8.948   1.624  0.4563  0.6263  0.1962
  341MOL0     C45928   3.589   8.980   1.732  0.4883  0.7068  0.9195
  341MOL0     C45929   3.593   9.124   1.793 -0.5001  0.8616  0.1999
  341MOL0     O45930   3.515   9.155   1.902 -0.3349 -0.4186 -0.6437
  341MOL0     C45931   3.533   9.268   1.973  0.0038 -0.1377 -0.2919
  341MOL0     C45932   3.421   9.316   2.040  0.7153  0.2288 -0.3974
  341MOL0     C45933   3.419   9.434   2.112 -0.5680  0.4017 -0.4021
  341MOL0     C45934   3.533   9.501   2.130  0.2717 -0.8363 -0.4011
  341MOL0     O45935   3.542   9.629   2.184  0.4696 -0.0096  0.8560
  341MOL0     C45936   3.447   9.727   2.139 -0.1359  0.1420  0.3651
  341MOL0     C45937   3.503   9.795   2.013  0.3729 -0.7110  0.3633
  341MOL0     C45938   3.658   9.823   2.033  0.2472  0.2838  0.8291
  341MOL0     C45939   3.696   9.927   2.143  0.5780  0.4762 -0.2771
  341MOL0     C45940   3.839   9.975   2.110  0.4819  0.0976 -0.2132
  341MOL0     C45941   3.878  10.088   2.207  0.3426  0.0539 -0.8408
  341MOL0     C45942   4.005  10.163   2.169  0.1999 -0.0101 -0.9803
  341MOL0     C45943   4.035  10.265   2.275  0.6222  0.4070 -0.3402
  341MOL0    Cl45944   4.116  10.205   2.421  0.2964  0.0881 -0.4949
  341MOL0     C45945   3.647   9.450   2.069 -0.7058 -0.1039  0.0886
  341MOL0     C45946   3.644   9.345   1.984 -0.8757  0.3522  0.0491
  341MOL0     O45947   3.650   9.204   1.722 -0.2918  0.0211 -0.2371
  341MOL0     C45948   3.506   8.885   1.790 -0.3763  0.5265  0.8068
  341MOL0     C45949   3.487   8.765   1.724 -0.1610 -0.2586  0.6124
  341MOL0     N45950   3.558   8.528   0.966  0.0817  0.6587  0.4740
  341MOL0     N45951   3.501   8.610   0.898 -0.1742 -1.0420 -0.2440
  341MOL0     C45952   2.675   8.090   1.176 -0.6842 -0.5329 -0.2150
  341MOL0     C45953   2.572   8.074   1.266  0.7591  1.3570  0.0465
  341MOL0     C45954   2.209   7.941   1.485  0.0744 -0.7873  0.6289
  341MOL0     C45955   2.108   8.032   1.454  0.2858 -0.6834  0.9019
  341MOL0     C45956   1.985   8.031   1.518  0.3648 -0.4195 -0.5278
  341MOL0     C45957   1.961   7.940   1.626 -0.0649  1.0014  0.7178
  341MOL0     O45958   1.851   7.931   1.703  0.9270 -1.0192 -0.4248
  341MOL0     C45959   1.730   7.985   1.643 -0.3543 -0.2713 -0.4144
  341MOL0     C45960   1.616   7.933   1.723 -0.3028  0.4319 -0.2726
  341MOL0     C45961   1.546   8.046   1.799  0.3446  0.4594 -0.8633
  341MOL0     C45962   1.409   7.988   1.849 -0.0637 -0.1808 -0.2389
  341MOL0     C45963   1.348   8.087   1.943 -0.4515  0.4469 -0.3209
  341MOL0     C45964   1.303   8.172   2.019 -0.6384 -0.9250  0.4260
  341MOL0     C45965   2.067   7.858   1.667 -0.2230  0.0222 -0.7044
  341MOL0     C45966   2.186   7.850   1.597 -0.3509 -0.1843  0.6377
  341MOL0     C45967   2.297   7.773   1.662  0.7011 -0.3945 -0.9121
  341MOL0     H45968   2.333   7.972   1.047 -0.2642  1.7479 -1.7757
  341MOL0     H45969   2.531   8.007   0.883 -0.4332  1.4111 -0.4234
  341MOL0     H45970   2.696   8.075   0.761 -1.7701  0.1112  1.0789
  341MOL0     H45971   2.684   8.237   0.835  0.4348 -0.4384 -0.6442
  341MOL0     H45972   2.901   8.083   0.695 -3.0770 -2.5910  1.5910
  341MOL0     H45973   2.966   8.163   0.831 -1.6986 -1.9551  2.2748
  341MOL0     H45974   2.863   8.363   0.760 -2.8669 -2.2333  1.3646
  341MOL0     H45975   2.809   8.283   0.613 -3.0263  2.4729  2.2583
  341MOL0     H45976   3.110   8.236   0.667 -0.1215 -0.2449 -0.7392
  341MOL0     H45977   3.023   8.251   0.517  3.3727 -3.0117  0.6940
  341MOL0     H45978   3.187   8.433   0.544 -0.7590  4.4511 -1.6949
  341MOL0     H45979   3.027   8.500   0.547  3.3386  0.7574 -4.1587
  341MOL0     H45980   3.040   8.498   0.802 -0.3955 -1.4139 -0.8415
  341MOL0     H45981   3.199   8.428   0.800  2.0919  2.4861 -0.3179
  341MOL0     H45982   3.146   8.698   0.664  1.5254  0.7670 -1.1005
  341MOL0     H45983   3.289   8.617   0.652 -1.2822  3.1217 -1.5854
  341MOL0     H45984   3.303   8.794   0.830 -0.7310  0.0878 -4.2610
  341MOL0     H45985   3.175   8.711   0.927 -1.8232  0.0664 -1.2536
  341MOL0     H45986   3.248   8.542   1.086  0.0260 -2.4690 -0.1594
  341MOL0     H45987   3.385   8.329   1.174 -1.0504  1.9069 -0.4875
  341MOL0     H45988   3.564   8.340   1.172 -0.9813 -1.3415 -5.8359
  341MOL0     H45989   3.530   8.584   1.300  1.7233 -0.8822 -2.5743
  341MOL0     H45990   3.362   8.550   1.296 -0.5851 -1.7481 -0.9067
  341MOL0     H45991   3.555   8.343   1.432 -0.6791  0.6230  1.8233
  341MOL0     H45992   3.383   8.351   1.442  0.3467  0.1615  1.3933
  341MOL0     H45993   3.476   8.434   1.637 -1.7014  1.0535  1.0622
  341MOL0     H45994   3.383   8.567   1.554 -2.4119 -2.3484 -0.1801
  341MOL0     H45995   3.726   8.805   1.474  1.0923 -0.2240  0.5485
  341MOL0     H45996   3.745   9.012   1.583 -0.6104  2.0783  0.4013
  341MOL0     H45997   3.331   9.259   2.021  0.4170 -0.2893  2.1804
  341MOL0     H45998   3.321   9.471   2.143 -2.0540 -0.5273 -3.5385
  341MOL0     H45999   3.352   9.675   2.126 -0.1481  0.0591  0.7734
  341MOL0     H46000   3.434   9.805   2.214 -1.0576 -0.7003  1.1108
  341MOL0     H46001   3.496   9.740   1.919  1.7487  3.3032 -2.3754
  341MOL0     H46002   3.451   9.889   1.995 -0.1763 -0.8268  1.3170
  341MOL0     H46003   3.708   9.725   2.035 -0.8233 -0.2696  2.0824
  341MOL0     H46004   3.702   9.860   1.940 -0.0634 -1.7159 -0.1888
  341MOL0     H46005   3.676   9.886   2.243  3.1888  1.2954  0.6645
  341MOL0     H46006   3.630  10.014   2.136  0.9859  0.6774 -2.2505
  341MOL0     H46007   3.836  10.013   2.007 -1.5124 -1.2008 -0.6949
  341MOL0     H46008   3.903   9.886   2.111  0.2241 -0.3239  4.7540
  341MOL0     H46009   3.801  10.166   2.204 -0.9628 -1.0579  1.2737
  341MOL0     H46010   3.897  10.040   2.304  2.3943  0.9572 -0.7464
  341MOL0     H46011   3.992  10.221   2.077 -1.6941  0.2295 -0.6067
  341MOL0     H46012   4.094  10.099   2.159  1.3139  1.1871  0.7193
  341MOL0     H46013   4.093  10.350   2.238  1.2649 -0.5265 -1.5484
  341MOL0     H46014   3.939  10.304   2.312  0.3480  0.1346 -0.7557
  341MOL0     H46015   3.739   9.508   2.074  0.0048 -0.8599 -2.6029
  341MOL0     H46016   3.733   9.319   1.928 -1.0392 -1.6050  0.6280
  341MOL0     H46017   3.445   8.894   1.879  1.1673 -2.2191  2.2622
  341MOL0     H46018   3.410   8.703   1.768  1.0163 -0.0690  3.1032
  341MOL0     H46019   2.765   8.112   1.234 -1.1185 -0.6342  0.5125
  341MOL0     H46020   2.576   8.087   1.374 -3.1368  1.4736  0.3154
  341MOL0     H46021   2.125   8.117   1.389 -0.5758 -0.4700  0.9476
  341MOL0     H46022   1.909   8.099   1.482 -0.3928 -0.2516  1.2932
  341MOL0     H46023   1.726   7.937   1.545 -1.3636 -0.8880 -0.0931
  341MOL0     H46024   1.727   8.094   1.634 -1.1268  0.0335  2.5559
  341MOL0     H46025   1.644   7.855   1.794 -1.3597  2.5844  2.7379
  341MOL0     H46026   1.553   7.893   1.643  2.0783 -1.4899 -1.2959
  341MOL0     H46027   1.520   8.127   1.730 -0.5092 -0.2864 -1.4312
  341MOL0     H46028   1.614   8.087   1.875 -0.8149  1.3572 -0.2844
  341MOL0     H46029   1.339   7.967   1.768  2.0515 -1.0583 -1.9335
  341MOL0     H46030   1.439   7.899   1.905  1.5260  0.8256  0.5896
  341MOL0     H46031   1.261   8.251   2.079  1.9932  0.8095  0.1843
  341MOL0     H46032   2.047   7.793   1.752  0.6748  1.0327  0.3181
  341MOL0     H46033   2.350   7.702   1.597 -1.1290 -1.0127 -1.7972
  341MOL0     H46034   2.368   7.842   1.709  2.7302 -2.3898 -0.8837
  341MOL0     H46035   2.265   7.708   1.744  0.8922  0.3568 -0.2312
  342MOL0     O46036   3.735  10.293   4.531 -0.3864 -0.6497 -0.3646
  342MOL0     C46037   3.617  10.267   4.534 -0.2495  0.7961 -0.3523
  342MOL0     O46038   3.564  10.148   4.494  0.3727  0.3920 -0.1707
  342MOL0     C46039   3.652  10.050   4.453  1.1740  0.1476  0.5771
  342MOL0     C46040   3.640   9.929   4.515  0.0933 -0.1879  1.6256
  342MOL0     C46041   3.730   9.828   4.472  0.0930  0.3318 -0.1946
  342MOL0     C46042   3.812   9.843   4.358  0.7419 -0.2104  0.2248
  342MOL0     O46043   3.870   9.726   4.320  1.5512  0.1122 -0.1607
  342MOL0     C46044   3.984   9.741   4.237 -0.4660 -0.2926  0.4562
  342MOL0     C46045   3.944   9.745   4.083  0.5073  0.2826 -1.4548
  342MOL0     C46046   3.923   9.609   4.028 -0.1010  0.0808 -0.2460
  342MOL0     C46047   3.840   9.512   4.112  0.2798 -0.0582  0.3670
  342MOL0     C46048   3.821   9.374   4.039 -0.3210  0.1430  0.0956
  342MOL0     C46049   3.743   9.261   4.125  0.0750 -0.8143 -0.7121
  342MOL0     C46050   3.820   9.193   4.232 -0.0824  0.9327 -0.6560
  342MOL0     C46051   3.741   9.074   4.291 -0.1581 -0.1637 -0.0949
  342MOL0     N46052   3.595   9.110   4.318  0.0173  0.2658  0.1396
  342MOL0     C46053   3.541   9.156   4.440  0.4863 -0.2296  0.6328
  342MOL0     C46054   3.411   9.154   4.413 -0.7086  0.1022  0.5566
  342MOL0     C46055   3.307   9.184   4.515  0.7513  0.9019  0.1931
  342MOL0     C46056   3.277   9.070   4.610 -0.3060 -0.4037 -0.0449
  342MOL0     C46057   3.148   9.085   4.694  0.2664 -0.5400 -0.2522
  342MOL0     C46058   3.128   8.971   4.795  0.8641 -0.3776  0.0911
  342MOL0     O46059   3.001   8.998   4.845  0.3043 -0.1654 -0.4975
  342MOL0     C46060   2.890   8.958   4.782 -0.0114  1.1581  0.2395
  342MOL0     C46061   2.873   8.841   4.712 -0.4544 -0.5992 -0.5199
  342MOL0     C46062   2.754   8.812   4.658  0.4234  1.0444  0.3712
  342MOL0     C46063   2.643   8.899   4.659  0.3245  0.4036 -0.2115
  342MOL0     C46064   2.520   8.869   4.581  0.6446  0.5444  0.1193
  342MOL0     O46065   2.417   8.956   4.600 -0.4867  0.6913 -0.1666
  342MOL0     C46066   2.298   8.925   4.526  0.1723  0.3849 -0.3760
  342MOL0     C46067   2.182   8.887   4.599 -0.5706  0.3019 -0.5482
  342MOL0     C46068   2.062   8.845   4.535  0.3708  0.9018 -0.2811
  342MOL0     C46069   2.058   8.843   4.397 -0.9010  0.0850 -0.7892
  342MOL0     O46070   1.938   8.815   4.344  0.3710 -0.1613  0.5570
  342MOL0     C46071   1.916   8.746   4.219 -0.1951  0.1368  0.2538
  342MOL0     C46072   1.928   8.591   4.235  0.0849 -0.6908  1.2408
  342MOL0     C46073   2.066   8.556   4.290  0.6793  0.6741 -1.1742
  342MOL0     C46074   2.074   8.403   4.313 -0.0277 -0.0569 -0.1641
  342MOL0     C46075   2.208   8.371   4.396 -0.8737  0.6519  0.8782
  342MOL0     C46076   2.241   8.221   4.407 -0.8484  0.2063  1.1447
  342MOL0     C46077   2.360   8.197   4.515  0.4472 -0.2478  0.8559
  342MOL0     C46078   2.337   8.063   4.593 -1.2315  1.1654  0.3687
  342MOL0    Cl46079   2.211   8.093   4.716  0.2732  0.0438 -0.0323
  342MOL0     C46080   2.179   8.882   4.326  0.1831  1.0764 -0.0261
  342MOL0     C46081   2.298   8.914   4.390  0.3858 -0.1262 -0.3202
  342MOL0     O46082   2.518   8.772   4.509  0.3059  0.4852 -0.7384
  342MOL0     C46083   2.654   9.017   4.732  0.2981 -0.0395 -0.0903
  342MOL0     C46084   2.777   9.038   4.797  0.0158  0.0827  0.0020
  342MOL0     N46085   3.386   9.104   4.290  0.9232 -0.7520  0.2726
  342MOL0     N46086   3.493   9.072   4.237 -0.0156 -0.5361 -0.3926
  342MOL0     C46087   3.802   9.960   4.291 -1.1123  0.0471 -0.2318
  342MOL0     C46088   3.731  10.065   4.342 -0.9641 -0.6766  0.1827
  342MOL0     C46089   3.523  10.380   4.592  0.2479  0.9441  0.5119
  342MOL0     C46090   3.577  10.500   4.634  0.3606 -0.2864  0.2197
  342MOL0     C46091   3.508  10.600   4.702  0.0862  0.4742  0.5772
  342MOL0     C46092   3.371  10.583   4.728 -0.7371 -0.3931  0.7708
  342MOL0     O46093   3.287  10.676   4.786  0.1346 -0.1945  0.3007
  342MOL0     C46094   3.344  10.759   4.885  0.1338 -0.1224  0.2884
  342MOL0     C46095   3.236  10.807   4.979  0.1822 -0.0332 -0.2790
  342MOL0     C46096   3.163  10.935   4.942  0.1617  0.0075  0.2136
  342MOL0     C46097   3.068  10.992   5.048  0.3222 -0.6518 -1.1346
  342MOL0     C46098   3.132  10.997   5.184  0.8427 -0.0028  0.5383
  342MOL0     C46099   3.192  11.004   5.293 -0.1617  0.1166  0.2524
  342MOL0     C46100   3.310  10.471   4.675 -0.0805 -0.9724 -0.4522
  342MOL0     C46101   3.377  10.367   4.606 -0.6467  0.5111  0.3795
  342MOL0     C46102   3.294  10.242   4.576  0.2212 -0.2714  0.6275
  342MOL0     H46103   3.572   9.919   4.599  0.4127 -0.4547  1.8545
  342MOL0     H46104   3.726   9.735   4.527 -0.0218  1.8864  2.6357
  342MOL0     H46105   4.044   9.831   4.256 -0.3393 -0.3231  0.1980
  342MOL0     H46106   4.060   9.664   4.246 -0.8447 -1.1202 -2.2796
  342MOL0     H46107   4.020   9.803   4.029  1.8044 -0.0143 -0.0120
  342MOL0     H46108   3.845   9.789   4.064  0.4295 -1.0277 -4.7436
  342MOL0     H46109   4.026   9.575   4.011 -0.2140 -0.2731 -0.2279
  342MOL0     H46110   3.870   9.625   3.934 -1.1434 -0.0307  0.3052
  342MOL0     H46111   3.895   9.483   4.202  1.7132 -0.9780 -0.7714
  342MOL0     H46112   3.746   9.560   4.140 -0.3080  0.3336 -2.0478
  342MOL0     H46113   3.749   9.397   3.960  0.3576 -0.5850 -0.7511
  342MOL0     H46114   3.921   9.344   4.007  0.4395  0.4543  2.0083
  342MOL0     H46115   3.651   9.303   4.168  1.2570 -1.5687  2.9131
  342MOL0     H46116   3.702   9.187   4.056 -2.5689 -0.5854  0.4953
  342MOL0     H46117   3.842   9.259   4.316  0.1514  0.1202 -0.0682
  342MOL0     H46118   3.911   9.147   4.192 -0.2991  0.4266 -0.5821
  342MOL0     H46119   3.736   8.990   4.222 -0.1901 -1.8893  1.9000
  342MOL0     H46120   3.785   9.032   4.382 -0.5971  1.6754  1.0284
  342MOL0     H46121   3.595   9.194   4.527  2.9193 -1.1010 -0.4212
  342MOL0     H46122   3.331   9.271   4.576  1.6043  0.2363  0.8343
  342MOL0     H46123   3.213   9.201   4.461 -0.2442 -2.3980  0.6541
  342MOL0     H46124   3.272   8.977   4.553 -1.1840  0.6171 -1.7145
  342MOL0     H46125   3.368   9.064   4.671 -1.1587  0.1894  1.3475
  342MOL0     H46126   3.072   9.096   4.615  0.0764 -4.6299 -0.8594
  342MOL0     H46127   3.155   9.181   4.746  0.6061  0.4963 -2.1220
  342MOL0     H46128   3.196   8.974   4.881  0.8237  1.7799  0.1013
  342MOL0     H46129   3.143   8.874   4.746  1.5126 -0.0440 -0.4054
  342MOL0     H46130   2.960   8.776   4.709 -0.6244 -0.9257  0.8510
  342MOL0     H46131   2.745   8.720   4.602  1.8163  0.5707  0.8866
  342MOL0     H46132   2.186   8.888   4.707  0.1374  3.4039 -0.5020
  342MOL0     H46133   1.976   8.818   4.596 -0.1610  1.1675 -0.9068
  342MOL0     H46134   1.816   8.777   4.185  1.5548  2.4582 -3.4240
  342MOL0     H46135   1.988   8.788   4.148 -0.3170  2.0931  1.2068
  342MOL0     H46136   1.846   8.549   4.293  0.5115 -0.0837  2.3056
  342MOL0     H46137   1.938   8.562   4.130  1.6906 -0.8086  1.3870
  342MOL0     H46138   2.152   8.579   4.226  1.2442 -2.8040 -1.8666
  342MOL0     H46139   2.070   8.612   4.384  0.4005  0.3524 -0.9666
  342MOL0     H46140   2.063   8.359   4.214 -1.4264  1.3581 -0.6793
  342MOL0     H46141   1.984   8.376   4.369 -0.3720  0.9842 -0.1865
  342MOL0     H46142   2.200   8.411   4.498  0.3708  2.9088  0.1567
  342MOL0     H46143   2.289   8.427   4.350 -2.1319  1.0864 -0.9190
  342MOL0     H46144   2.148   8.164   4.414 -0.9287  0.0786 -0.5293
  342MOL0     H46145   2.276   8.191   4.307 -0.3174  0.8332  1.1385
  342MOL0     H46146   2.388   8.272   4.591  0.9367  0.8282 -0.3472
  342MOL0     H46147   2.452   8.192   4.457  0.9530  1.3609  1.4459
  342MOL0     H46148   2.298   7.991   4.520  0.6556 -1.6074  1.8953
  342MOL0     H46149   2.426   8.020   4.641 -0.9879  1.8008  0.4932
  342MOL0     H46150   2.160   8.890   4.219  2.8568  2.5297 -0.4686
  342MOL0     H46151   2.390   8.935   4.336  2.7972  0.3550  3.6029
  342MOL0     H46152   2.563   9.077   4.736  1.2010  1.3031  1.3379
  342MOL0     H46153   2.781   9.122   4.865  1.1242  1.8020 -2.0713
  342MOL0     H46154   3.843   9.984   4.193  0.2514 -1.9514 -0.2137
  342MOL0     H46155   3.731  10.164   4.298 -0.1404 -0.1801  1.2473
  342MOL0     H46156   3.682  10.515   4.613  0.3850  0.3369  0.7564
  342MOL0     H46157   3.555  10.691   4.738  0.9038 -0.3876  1.7562
  342MOL0     H46158   3.395  10.843   4.837 -1.5949 -0.3120 -2.0457
  342MOL0     H46159   3.410  10.701   4.950 -3.4147 -1.2024  3.3127
  342MOL0     H46160   3.279  10.829   5.078 -1.8146  0.3748  0.5426
  342MOL0     H46161   3.172  10.718   4.985 -0.5140  0.5480  1.6279
  342MOL0     H46162   3.101  10.925   4.853 -0.1205  2.4073  0.0762
  342MOL0     H46163   3.240  11.011   4.924 -1.1572  1.6433  1.1370
  342MOL0     H46164   3.041  11.096   5.025 -3.7911 -1.0742  0.9255
  342MOL0     H46165   2.976  10.934   5.045  1.3327 -2.2722 -1.8690
  342MOL0     H46166   3.238  11.003   5.389  1.0296  1.7417 -0.2573
  342MOL0     H46167   3.203  10.475   4.686 -0.0425  0.6766 -0.4404
  342MOL0     H46168   3.290  10.244   4.466 -0.6229 -1.6808  0.6134
  342MOL0     H46169   3.340  10.149   4.611 -0.5508 -1.5136 -1.4252
  342MOL0     H46170   3.194  10.249   4.620 -0.5886  1.2070 -1.2718
  343MOL0     O46171   7.615   0.224   2.359 -0.2885 -0.0160  0.1000
  343MOL0     C46172   7.601   0.252   2.475 -0.1128  0.0153 -0.1171
  343MOL0     O46173   7.695   0.242   2.569 -0.7652  0.0509  0.2115
  343MOL0     C46174   7.764   0.125   2.589 -1.3261  0.2559  0.6487
  343MOL0     C46175   7.737  -0.002   2.541 -0.0412 -0.2599  1.2722
  343MOL0     C46176   7.820  -0.120   2.553 -1.2832 -0.5597  0.1747
  343MOL0     C46177   7.935  -0.117   2.637  0.4346  0.2462  0.0182
  343MOL0     O46178   7.986  -0.244   2.672  0.0807  0.8786 -0.2046
  343MOL0     C46179   8.077  -0.240   2.786 -0.2821 -0.0179  0.1063
  343MOL0     C46180   8.074  -0.378   2.862 -0.2213 -1.2840  0.3183
  343MOL0     C46181   8.201  -0.385   2.959 -0.0042 -0.7102  0.3640
  343MOL0     C46182   8.238  -0.519   2.980  0.3228 -0.1779  0.6873
  343MOL0     C46183   8.160  -0.590   3.098 -0.9175  0.7284 -0.6394
  343MOL0     C46184   8.212  -0.742   3.096 -0.5776 -0.2039  0.1667
  343MOL0     C46185   8.121  -0.844   3.017 -0.6845 -0.2626 -0.5125
  343MOL0     C46186   8.095  -0.831   2.870  0.9666  0.8697 -0.7984
  343MOL0     N46187   8.208  -0.841   2.782 -0.3734 -0.2526  0.4280
  343MOL0     C46188   8.285  -0.950   2.773 -0.2513  0.6107 -0.0913
  343MOL0     C46189   8.353  -0.929   2.658 -0.4314 -0.3803 -0.3203
  343MOL0     C46190   8.461  -1.029   2.610  0.0266  0.0435 -0.9922
  343MOL0     C46191   8.461  -1.056   2.453  0.4466 -0.2693  0.8430
  343MOL0     C46192   8.321  -1.055   2.388 -0.4881  0.4116  0.0575
  343MOL0     C46193   8.228  -1.138   2.459 -0.7741 -0.3776  0.3841
  343MOL0     O46194   8.126  -1.194   2.377 -0.4039  0.5011  0.0112
  343MOL0     C46195   8.004  -1.127   2.345 -0.0275 -0.3177 -0.2490
  343MOL0     C46196   7.908  -1.198   2.265 -0.5890  0.1355 -0.2346
  343MOL0     C46197   7.776  -1.144   2.242  0.0957  0.9970  0.3465
  343MOL0     C46198   7.743  -1.029   2.303  0.1824 -0.5275 -0.6686
  343MOL0     C46199   7.607  -0.973   2.271  0.3773 -0.6487  0.3532
  343MOL0     O46200   7.515  -1.065   2.219  0.0704 -0.1378 -0.0903
  343MOL0     C46201   7.383  -1.041   2.210 -0.4878 -0.3779  0.1056
  343MOL0     C46202   7.311  -1.010   2.324  0.1689  0.7191  0.0836
  343MOL0     C46203   7.178  -0.992   2.317  0.8402  0.1812 -0.7481
  343MOL0     C46204   7.103  -1.006   2.203 -0.1379 -0.1174  0.1974
  343MOL0     O46205   6.965  -0.991   2.198 -0.4027  0.2232  0.3969
  343MOL0     C46206   6.882  -1.067   2.098 -0.2998 -0.0042 -0.1782
  343MOL0     C46207   6.863  -1.214   2.138 -0.7426  0.5635 -0.0507
  343MOL0     C46208   6.772  -1.225   2.262 -0.0111  0.0222 -0.7837
  343MOL0     C46209   6.856  -1.245   2.398  0.6868  0.1649  0.6598
  343MOL0     C46210   6.769  -1.237   2.519  0.1682  0.1959 -0.5986
  343MOL0     C46211   6.753  -1.088   2.558  0.7583  0.3672 -0.1189
  343MOL0     C46212   6.629  -1.069   2.646  0.0784 -0.1257 -0.0786
  343MOL0     C46213   6.600  -0.920   2.655  0.0132 -0.1088  0.3825
  343MOL0    Cl46214   6.547  -0.860   2.498  0.0240 -0.0135 -0.2605
  343MOL0     C46215   7.170  -1.045   2.090  0.1727 -0.3183  0.6211
  343MOL0     C46216   7.309  -1.056   2.090 -0.1052 -0.5712 -0.1722
  343MOL0     O46217   7.582  -0.863   2.324  0.3338 -0.7326  1.0049
  343MOL0     C46218   7.835  -0.968   2.397 -0.2932 -0.4791  0.5295
  343MOL0     C46219   7.959  -1.012   2.411 -0.6833 -0.4946  0.5944
  343MOL0     N46220   8.327  -0.802   2.602  0.3134 -0.0148  0.0802
  343MOL0     N46221   8.236  -0.751   2.683 -0.1097 -0.1171 -0.1841
  343MOL0     C46222   7.965   0.016   2.681  0.4871  0.2733 -0.1916
  343MOL0     C46223   7.893   0.133   2.654 -0.9477  0.3858  0.4165
  343MOL0     C46224   7.488   0.338   2.519 -0.5750 -0.5375  0.5067
  343MOL0     C46225   7.531   0.457   2.578 -0.9366 -0.1197 -0.7961
  343MOL0     C46226   7.432   0.544   2.631 -0.7885 -0.2638  0.8949
  343MOL0     C46227   7.291   0.515   2.631 -0.2246  0.0361 -0.1219
  343MOL0     O46228   7.219   0.610   2.700 -0.0663 -0.4297 -0.0846
  343MOL0     C46229   7.079   0.581   2.720  0.5236 -0.2364  0.7258
  343MOL0     C46230   7.042   0.678   2.834 -0.3933  0.3450 -0.6340
  343MOL0     C46231   6.893   0.683   2.864 -0.2186 -0.5379 -0.4106
  343MOL0     C46232   6.848   0.777   2.974  0.0792 -0.3786  1.4939
  343MOL0     C46233   6.702   0.763   2.999 -0.0561  0.3949  0.6758
  343MOL0     C46234   6.586   0.752   3.029  1.1376  0.4827  0.0240
  343MOL0     C46235   7.251   0.398   2.563  0.2143  0.5844 -0.4562
  343MOL0     C46236   7.350   0.309   2.512  0.8209  0.0389  0.4293
  343MOL0     C46237   7.297   0.182   2.464  0.2091  0.4584 -0.1740
  343MOL0     H46238   7.655  -0.002   2.470  2.1382 -1.3910 -1.4905
  343MOL0     H46239   7.802  -0.218   2.511  1.9298 -1.5799  0.8980
  343MOL0     H46240   8.178  -0.226   2.746  0.6296 -5.0790 -0.1096
  343MOL0     H46241   8.044  -0.160   2.852 -1.2118  0.1658 -0.5649
  343MOL0     H46242   8.073  -0.452   2.781 -1.3383  0.9507 -1.8740
  343MOL0     H46243   7.984  -0.390   2.922 -1.0626  0.4587 -0.5398
  343MOL0     H46244   8.190  -0.326   3.050  2.8447 -0.6297  0.7210
  343MOL0     H46245   8.290  -0.339   2.916  1.0931 -2.3236  0.7983
  343MOL0     H46246   8.233  -0.570   2.883  2.2302 -1.2166  1.0827
  343MOL0     H46247   8.346  -0.507   2.998  0.5815  0.0681 -0.8269
  343MOL0     H46248   8.166  -0.535   3.192  1.1439 -0.6042  0.0816
  343MOL0     H46249   8.055  -0.573   3.074 -1.0867  2.8341  1.2209
  343MOL0     H46250   8.315  -0.734   3.062 -0.9447  0.1964 -0.9077
  343MOL0     H46251   8.211  -0.776   3.200 -2.1138 -3.1655 -0.6908
  343MOL0     H46252   8.017  -0.829   3.049 -0.6048 -2.1807  0.8324
  343MOL0     H46253   8.153  -0.948   3.026 -3.7083 -1.1338  2.4714
  343MOL0     H46254   8.018  -0.907   2.854  0.9970  1.0392 -1.8190
  343MOL0     H46255   8.039  -0.739   2.851 -2.0814 -0.5597  0.5969
  343MOL0     H46256   8.290  -1.040   2.833 -4.0178 -1.0131 -1.8674
  343MOL0     H46257   8.561  -1.001   2.645  0.4769 -2.2076 -0.2958
  343MOL0     H46258   8.450  -1.128   2.657 -2.9207 -0.6758 -2.9078
  343MOL0     H46259   8.515  -0.976   2.402 -3.1559  3.1373  1.8962
  343MOL0     H46260   8.494  -1.157   2.426  1.4154 -0.3290  2.1173
  343MOL0     H46261   8.328  -1.083   2.282 -0.1238 -2.0817  0.6764
  343MOL0     H46262   8.284  -0.952   2.389  1.6142  1.2391 -1.0932
  343MOL0     H46263   8.181  -1.089   2.545 -1.7807  2.5597 -1.6875
  343MOL0     H46264   8.277  -1.229   2.495 -0.8604 -1.2777 -1.6198
  343MOL0     H46265   7.950  -1.276   2.202 -0.1248 -2.2600  2.8051
  343MOL0     H46266   7.707  -1.183   2.168  0.7018 -0.0153  0.2810
  343MOL0     H46267   7.361  -1.011   2.421 -1.6190  0.2274  1.0478
  343MOL0     H46268   7.120  -0.958   2.402 -3.3444 -4.3763 -1.2822
  343MOL0     H46269   6.778  -1.031   2.101 -0.5874 -0.8498  1.6025
  343MOL0     H46270   6.916  -1.051   1.996  0.8773 -3.2123 -0.3784
  343MOL0     H46271   6.810  -1.252   2.050 -1.1471 -1.8216  1.1372
  343MOL0     H46272   6.962  -1.260   2.153 -1.8100 -1.3400  1.5333
  343MOL0     H46273   6.709  -1.137   2.280 -0.0980 -0.1575 -0.1884
  343MOL0     H46274   6.711  -1.311   2.232 -0.7389 -0.5549  2.0406
  343MOL0     H46275   6.936  -1.171   2.391  2.2420 -1.2701  2.4016
  343MOL0     H46276   6.913  -1.338   2.394  0.8407 -0.4287  6.8125
  343MOL0     H46277   6.814  -1.292   2.602  0.9118  3.6350  1.5101
  343MOL0     H46278   6.684  -1.299   2.488 -1.8535  2.2034  0.5940
  343MOL0     H46279   6.842  -1.048   2.608 -0.8774  1.9745  1.7155
  343MOL0     H46280   6.748  -1.024   2.470 -0.9437  0.0009 -0.3110
  343MOL0     H46281   6.639  -1.097   2.751 -0.5188 -0.8023 -0.1995
  343MOL0     H46282   6.552  -1.130   2.599 -0.0674  0.7237 -0.9590
  343MOL0     H46283   6.527  -0.906   2.734  1.5344  0.9255  1.6768
  343MOL0     H46284   6.687  -0.858   2.680 -1.1935  0.6669  2.9375
  343MOL0     H46285   7.115  -1.049   1.997  1.6682  0.8428 -0.3535
  343MOL0     H46286   7.370  -1.067   2.001  0.1689 -3.0380  0.2499
  343MOL0     H46287   7.810  -0.876   2.448 -2.7325  0.6284 -2.3506
  343MOL0     H46288   8.028  -0.962   2.479  1.8001 -0.9202 -1.4403
  343MOL0     H46289   8.053   0.016   2.744 -0.4926  1.5862  1.2590
  343MOL0     H46290   7.927   0.229   2.692 -0.7608  0.4256  0.1471
  343MOL0     H46291   7.636   0.485   2.578 -1.2244  1.0279 -0.6549
  343MOL0     H46292   7.458   0.640   2.674 -0.8711 -0.5014  1.4761
  343MOL0     H46293   7.056   0.479   2.753 -1.2019  0.1505  0.7651
  343MOL0     H46294   7.014   0.613   2.638  1.2425  0.2041  0.3171
  343MOL0     H46295   7.082   0.776   2.808  1.1060  0.1230  0.7198
  343MOL0     H46296   7.095   0.646   2.924 -0.6121  4.6427  1.2427
  343MOL0     H46297   6.866   0.583   2.898 -0.3543 -0.7820 -1.2267
  343MOL0     H46298   6.844   0.711   2.771 -1.6597 -2.0603 -0.1408
  343MOL0     H46299   6.909   0.762   3.063  3.2688 -0.8147 -0.5806
  343MOL0     H46300   6.872   0.875   2.930  3.3784 -2.1174 -1.0687
  343MOL0     H46301   6.481   0.746   3.051  0.9713 -0.4236 -0.9489
  343MOL0     H46302   7.148   0.362   2.564 -0.2070  1.7087 -1.5173
  343MOL0     H46303   7.194   0.177   2.428 -1.2843 -4.1066  3.7541
  343MOL0     H46304   7.355   0.146   2.378  0.7297  0.2706  0.2487
  343MOL0     H46305   7.293   0.106   2.542 -0.8341  1.7703  1.1002
  344MOL0     O46306   3.185   5.882   6.664  0.1272 -0.0585 -0.4213
  344MOL0     C46307   3.272   5.949   6.713 -0.1349  0.0492 -0.0208
  344MOL0     O46308   3.263   6.081   6.746  0.4665  0.4343  0.5757
  344MOL0     C46309   3.153   6.147   6.693 -0.5711  0.1303  1.0894
  344MOL0     C46310   3.103   6.249   6.774 -0.2407  0.2772 -0.3101
  344MOL0     C46311   3.001   6.326   6.726  0.0091  0.6161 -0.4857
  344MOL0     C46312   2.944   6.312   6.603  0.6252 -0.1964  0.0357
  344MOL0     O46313   2.844   6.403   6.578 -0.1513  0.2530 -0.4164
  344MOL0     C46314   2.794   6.394   6.447  0.5454  0.2791  1.1720
  344MOL0     C46315   2.679   6.491   6.421  0.1980  0.1219  0.3581
  344MOL0     C46316   2.716   6.640   6.457  0.1024  0.1836 -0.4801
  344MOL0     C46317   2.596   6.738   6.422 -0.2761 -0.3649  0.6602
  344MOL0     C46318   2.633   6.826   6.299 -0.3854 -0.2256  0.3746
  344MOL0     C46319   2.635   6.741   6.171 -0.0715 -1.0171  0.4707
  344MOL0     C46320   2.686   6.818   6.054  0.3659 -0.0802 -1.1724
  344MOL0     C46321   2.663   6.738   5.923  0.1999  0.5037 -0.2783
  344MOL0     N46322   2.756   6.624   5.903  0.3719  0.2129  0.9887
  344MOL0     C46323   2.892   6.632   5.874 -0.2204  0.6727 -0.0681
  344MOL0     C46324   2.935   6.502   5.853  0.4104  0.7998 -0.0273
  344MOL0     C46325   3.056   6.459   5.777 -0.3899  0.1164 -0.8352
  344MOL0     C46326   3.159   6.393   5.871 -0.3231 -0.2681 -0.3379
  344MOL0     C46327   3.099   6.303   5.985 -0.3235  0.0130  0.8280
  344MOL0     C46328   3.175   6.183   6.028 -0.0669  0.5258  0.1408
  344MOL0     O46329   3.143   6.149   6.161 -0.5561  0.7254 -0.3226
  344MOL0     C46330   3.247   6.085   6.225  0.1060  0.8786  0.8699
  344MOL0     C46331   3.340   6.165   6.290 -0.3622  0.3104  0.0087
  344MOL0     C46332   3.452   6.099   6.346  0.7703  1.4941  0.0148
  344MOL0     C46333   3.469   5.956   6.336  0.0732  0.4218 -0.4390
  344MOL0     C46334   3.587   5.894   6.409 -0.5679 -0.4447  0.2284
  344MOL0     O46335   3.644   5.963   6.514 -0.9391  0.2070  0.2182
  344MOL0     C46336   3.760   5.932   6.579  0.1357  0.5654  0.4118
  344MOL0     C46337   3.830   5.808   6.596  0.4830  0.1680  0.2618
  344MOL0     C46338   3.947   5.801   6.675 -0.7741  0.2124  0.1997
  344MOL0     C46339   3.999   5.918   6.741  0.0786 -0.0555 -0.1090
  344MOL0     O46340   4.107   5.900   6.826 -0.5508  0.9963 -0.7264
  344MOL0     C46341   4.123   6.002   6.926 -0.3575  0.4337  0.3645
  344MOL0     C46342   4.237   5.975   7.016 -0.0174 -0.4115  0.0834
  344MOL0     C46343   4.217   5.844   7.089 -0.1906  0.1295 -0.0574
  344MOL0     C46344   4.336   5.816   7.191  0.0083 -0.7708 -0.1806
  344MOL0     C46345   4.313   5.676   7.254  0.5600  0.7706 -0.6413
  344MOL0     C46346   4.353   5.659   7.405 -0.2660  0.1296 -0.0795
  344MOL0     C46347   4.271   5.560   7.483 -0.6959  0.1643 -0.2811
  344MOL0     C46348   4.274   5.410   7.435  0.0742  0.1921  0.4517
  344MOL0    Cl46349   4.440   5.359   7.416 -0.0497 -0.1130  0.4722
  344MOL0     C46350   3.926   6.032   6.719 -0.7147 -0.2643 -0.5955
  344MOL0     C46351   3.814   6.041   6.639  0.3372 -1.1986  0.2291
  344MOL0     O46352   3.626   5.789   6.357  0.0709 -0.1530  0.1017
  344MOL0     C46353   3.366   5.875   6.276  0.3926 -0.3560  0.3712
  344MOL0     C46354   3.254   5.944   6.225  0.1160  0.5177 -0.0369
  344MOL0     N46355   2.837   6.422   5.894  0.2943 -1.5229  0.8593
  344MOL0     N46356   2.738   6.490   5.932  0.9508  0.0181  0.9536
  344MOL0     C46357   2.990   6.212   6.520 -0.6138 -0.2462 -0.3348
  344MOL0     C46358   3.096   6.132   6.559  0.1521  0.4823 -1.0072
  344MOL0     C46359   3.392   5.870   6.760 -0.0602 -0.9224  0.2736
  344MOL0     C46360   3.478   5.949   6.838 -0.5376  1.1336  0.0572
  344MOL0     C46361   3.597   5.885   6.899 -1.0608 -0.4689  1.0001
  344MOL0     C46362   3.632   5.755   6.872  0.1310  0.9716  0.4620
  344MOL0     O46363   3.734   5.691   6.932 -0.0013  1.0421  0.1076
  344MOL0     C46364   3.817   5.751   7.026  0.4197  0.5731  0.7512
  344MOL0     C46365   3.756   5.775   7.163 -0.1357  0.2150 -0.9327
  344MOL0     C46366   3.850   5.799   7.275  0.0350 -0.7282  0.8817
  344MOL0     C46367   3.942   5.683   7.311 -0.4557 -0.2761 -0.4207
  344MOL0     C46368   3.871   5.574   7.372 -0.1781  0.7729  1.1190
  344MOL0     C46369   3.828   5.470   7.416  0.3768  0.1050 -0.2702
  344MOL0     C46370   3.552   5.683   6.778  0.1066  0.0459 -0.0091
  344MOL0     C46371   3.437   5.736   6.718 -0.3972 -1.0081 -0.1038
  344MOL0     C46372   3.363   5.654   6.607 -0.2282  0.5761 -0.0082
  344MOL0     H46373   3.141   6.267   6.875 -1.7340 -2.2237  0.7741
  344MOL0     H46374   2.979   6.408   6.793  0.6325  0.8382 -0.5451
  344MOL0     H46375   2.878   6.424   6.383 -1.8757  3.8576 -0.7087
  344MOL0     H46376   2.755   6.294   6.427 -0.0217  0.7750 -0.3459
  344MOL0     H46377   2.597   6.468   6.489  0.5963  1.2129  1.2353
  344MOL0     H46378   2.646   6.481   6.317 -0.0677  1.0803  0.3383
  344MOL0     H46379   2.804   6.673   6.400  1.3409  0.1486  1.3097
  344MOL0     H46380   2.741   6.646   6.564 -2.8389 -1.3272  0.3874
  344MOL0     H46381   2.503   6.688   6.395  0.2906 -0.6057 -0.9226
  344MOL0     H46382   2.579   6.800   6.511  1.7339  3.2886 -1.2873
  344MOL0     H46383   2.558   6.903   6.285  2.6307  2.4499 -3.5642
  344MOL0     H46384   2.731   6.873   6.306 -0.2308  0.3890 -3.4314
  344MOL0     H46385   2.698   6.653   6.189  0.2196 -0.8804  0.1295
  344MOL0     H46386   2.532   6.706   6.161 -0.0767 -0.4563 -1.7893
  344MOL0     H46387   2.794   6.831   6.069  0.0408  0.7848  0.7512
  344MOL0     H46388   2.639   6.917   6.058 -1.3294 -0.8399 -1.3952
  344MOL0     H46389   2.569   6.682   5.928  1.5562 -1.8144  4.5005
  344MOL0     H46390   2.685   6.807   5.841  3.3386  0.5338  0.4774
  344MOL0     H46391   2.955   6.717   5.854  0.3343  0.3057  0.1069
  344MOL0     H46392   3.031   6.385   5.700 -1.2054 -0.2026 -0.2817
  344MOL0     H46393   3.098   6.537   5.713  2.5818 -1.8752 -1.5472
  344MOL0     H46394   3.215   6.327   5.805 -0.4338 -1.0154  0.3011
  344MOL0     H46395   3.233   6.457   5.921 -0.3717 -0.3250 -0.1922
  344MOL0     H46396   2.997   6.266   5.973  0.8608 -3.4053  0.2773
  344MOL0     H46397   3.093   6.377   6.065 -1.4327  0.9536 -0.0756
  344MOL0     H46398   3.279   6.205   6.003 -0.2404  3.3947  1.5175
  344MOL0     H46399   3.149   6.099   5.964  1.9680  1.5886 -2.2585
  344MOL0     H46400   3.359   6.272   6.298  0.3981  0.3271 -1.5291
  344MOL0     H46401   3.527   6.159   6.397  2.6692 -0.6401 -0.1345
  344MOL0     H46402   3.797   5.711   6.558 -0.1392 -0.5398  2.4282
  344MOL0     H46403   3.995   5.705   6.692  0.6705  0.9084  0.1533
  344MOL0     H46404   4.140   6.103   6.885  1.8283  0.5958  1.5795
  344MOL0     H46405   4.034   6.008   6.989 -0.6543 -3.7299  0.5612
  344MOL0     H46406   4.317   5.968   6.942 -0.1666 -0.5522 -0.0655
  344MOL0     H46407   4.263   6.064   7.075 -1.0139  0.9772 -1.5007
  344MOL0     H46408   4.122   5.844   7.144  0.2891 -3.8687  1.0707
  344MOL0     H46409   4.208   5.762   7.017  0.6850  0.9251 -1.1073
  344MOL0     H46410   4.330   5.901   7.260 -3.5482  0.8724 -2.2118
  344MOL0     H46411   4.423   5.814   7.125 -1.1543 -1.8104 -1.7789
  344MOL0     H46412   4.365   5.596   7.201  1.2135  0.9300 -0.2551
  344MOL0     H46413   4.206   5.655   7.246  0.6290  0.2557 -0.2419
  344MOL0     H46414   4.460   5.644   7.420 -0.7436 -1.0199  2.9128
  344MOL0     H46415   4.328   5.752   7.456 -2.6903 -0.6865  0.3445
  344MOL0     H46416   4.168   5.588   7.506  0.1643  0.6844  3.8788
  344MOL0     H46417   4.325   5.567   7.578  0.2129 -2.3248 -0.5615
  344MOL0     H46418   4.243   5.337   7.510 -0.1435  1.3705  1.5574
  344MOL0     H46419   4.202   5.390   7.355 -1.0272 -0.0528  1.4640
  344MOL0     H46420   3.965   6.122   6.767  1.4684 -2.4101  1.9778
  344MOL0     H46421   3.755   6.132   6.640 -2.3516 -2.8178 -0.4186
  344MOL0     H46422   3.369   5.767   6.277 -1.9918 -0.4726  1.3447
  344MOL0     H46423   3.178   5.878   6.184  2.0792 -1.1847 -1.1219
  344MOL0     H46424   2.961   6.182   6.419  0.8826 -5.3023  0.4415
  344MOL0     H46425   3.139   6.066   6.484 -0.4801 -1.4958  0.2910
  344MOL0     H46426   3.451   6.049   6.871 -0.4872  0.5049  2.1705
  344MOL0     H46427   3.661   5.942   6.966  0.9440  0.6121 -1.6118
  344MOL0     H46428   3.863   5.841   6.985  2.4524 -0.3988  0.8030
  344MOL0     H46429   3.902   5.684   7.040  0.3973  0.7784  1.9494
  344MOL0     H46430   3.702   5.683   7.190  0.2796  0.1905 -0.1551
  344MOL0     H46431   3.677   5.851   7.160  0.0167  0.3796 -0.8429
  344MOL0     H46432   3.789   5.823   7.363 -2.4881 -3.3809 -0.0106
  344MOL0     H46433   3.914   5.883   7.247  2.3267 -2.9095 -0.9697
  344MOL0     H46434   3.996   5.645   7.224 -1.9649  0.8460 -1.9002
  344MOL0     H46435   4.017   5.718   7.384 -2.7491 -0.1511  2.0162
  344MOL0     H46436   3.797   5.377   7.459  2.0592 -1.0951 -1.4981
  344MOL0     H46437   3.585   5.586   6.743 -1.8750  0.2898 -2.8585
  344MOL0     H46438   3.391   5.688   6.507 -0.8587  0.3135 -0.2745
  344MOL0     H46439   3.383   5.550   6.634 -0.2400  1.2739  3.1434
  344MOL0     H46440   3.255   5.651   6.619 -0.3121  1.4897 -0.4811
  345MOL0     O46441   9.369   2.183   2.019  0.3715  0.4114  0.4637
  345MOL0     C46442   9.373   2.219   1.901 -0.2532  0.6602 -0.4414
  345MOL0     O46443   9.269   2.260   1.836  0.4254  0.1882 -0.2806
  345MOL0     C46444   9.143   2.256   1.905  0.0997 -0.8083 -0.1304
  345MOL0     C46445   9.050   2.187   1.829 -0.0238  0.4543  0.1256
  345MOL0     C46446   8.922   2.177   1.878 -0.6724  0.2732 -0.1722
  345MOL0     C46447   8.885   2.231   1.998 -0.2321 -0.0084 -0.5426
  345MOL0     O46448   8.751   2.228   2.028 -0.1659 -0.0489 -0.1029
  345MOL0     C46449   8.732   2.210   2.171 -0.1946  0.7737 -0.7342
  345MOL0     C46450   8.583   2.176   2.206  0.9760  0.4249 -0.1467
  345MOL0     C46451   8.572   2.149   2.358 -0.2973  0.2508  0.3812
  345MOL0     C46452   8.428   2.089   2.386  0.0435  0.1332 -0.2293
  345MOL0     C46453   8.433   2.022   2.525  0.3059 -0.3993  0.2671
  345MOL0     C46454   8.316   1.925   2.548 -0.0326 -0.4108 -0.3182
  345MOL0     C46455   8.337   1.795   2.472 -0.0552 -0.0040  0.7312
  345MOL0     C46456   8.273   1.678   2.538 -0.3008 -0.0224 -0.0282
  345MOL0     N46457   8.124   1.682   2.530  0.4101  1.0359 -0.4283
  345MOL0     C46458   8.041   1.781   2.562 -0.0109 -0.9076  0.6947
  345MOL0     C46459   7.917   1.737   2.551  0.2740  0.3629  0.6558
  345MOL0     C46460   7.779   1.785   2.584  0.4122 -0.2917 -0.1717
  345MOL0     C46461   7.693   1.675   2.650  0.6055 -0.2370 -0.7410
  345MOL0     C46462   7.560   1.658   2.571  1.0505 -0.0304 -0.8585
  345MOL0     C46463   7.455   1.565   2.637 -0.2436  0.8424 -0.3368
  345MOL0     O46464   7.417   1.618   2.762 -0.3170  0.4832 -0.4524
  345MOL0     C46465   7.328   1.543   2.834  0.0666  0.6286 -0.3600
  345MOL0     C46466   7.261   1.430   2.784 -0.5101  1.0432  0.3748
  345MOL0     C46467   7.164   1.371   2.862  0.5063  0.0200  0.1288
  345MOL0     C46468   7.129   1.416   3.000  0.3726  0.3002  1.3123
  345MOL0     C46469   7.013   1.374   3.069 -0.2361  0.4574  0.0566
  345MOL0     O46470   6.901   1.356   2.989 -0.2230  0.2856 -0.4592
  345MOL0     C46471   6.798   1.288   3.049 -0.6325  0.2560  0.6753
  345MOL0     C46472   6.805   1.162   3.109 -0.2592  0.2650  0.3019
  345MOL0     C46473   6.687   1.099   3.155 -0.0092 -0.4689 -0.1614
  345MOL0     C46474   6.567   1.163   3.139  0.5045  0.5851 -0.5155
  345MOL0     O46475   6.453   1.102   3.192 -0.2283 -0.6301 -1.3869
  345MOL0     C46476   6.322   1.167   3.206 -1.7290 -0.6680  0.6460
  345MOL0     C46477   6.225   1.072   3.282 -0.3417  0.7123 -0.1396
  345MOL0     C46478   6.091   1.139   3.294 -0.4675  0.0507 -0.1942
  345MOL0     C46479   5.996   1.064   3.386 -1.1734  1.1714 -1.0033
  345MOL0     C46480   5.877   1.152   3.404  0.3352  0.1536  0.1564
  345MOL0     C46481   5.759   1.058   3.433 -0.1216 -0.0463 -0.2679
  345MOL0     C46482   5.637   1.124   3.466  0.1844 -0.0728  0.6394
  345MOL0     C46483   5.526   1.026   3.496 -0.0157 -1.1969  0.6847
  345MOL0    Cl46484   5.575   0.891   3.594  0.3183  0.1937 -0.2428
  345MOL0     C46485   6.559   1.280   3.063 -0.0652  0.2747 -0.2306
  345MOL0     C46486   6.678   1.342   3.021  0.8321  0.2395 -0.0661
  345MOL0     O46487   7.022   1.371   3.195  0.3671  0.5895  0.2052
  345MOL0     C46488   7.206   1.525   3.045 -1.1818  0.2589  0.0569
  345MOL0     C46489   7.300   1.583   2.962  0.2917 -0.1293  0.0250
  345MOL0     N46490   7.926   1.604   2.506  0.4326  0.3158 -0.3145
  345MOL0     N46491   8.052   1.565   2.511  0.1668 -0.2604  1.1527
  345MOL0     C46492   8.980   2.304   2.078 -0.5536 -0.2824 -0.2834
  345MOL0     C46493   9.112   2.311   2.028 -0.3843  0.3657  0.1569
  345MOL0     C46494   9.501   2.237   1.835 -0.2760 -0.2662 -0.5717
  345MOL0     C46495   9.573   2.361   1.855  0.7950 -0.2345  0.1184
  345MOL0     C46496   9.699   2.374   1.794  0.6309 -1.1457  0.1749
  345MOL0     C46497   9.762   2.273   1.722 -0.6057 -0.5335 -0.5034
  345MOL0     O46498   9.891   2.286   1.670 -0.2653 -0.7659  0.1533
  345MOL0     C46499   9.964   2.411   1.661 -0.0939  0.4512 -0.2217
  345MOL0     C46500   9.904   2.507   1.562  0.0436  0.0861  0.0790
  345MOL0     C46501   9.902   2.433   1.419 -0.0366 -0.6957 -0.1837
  345MOL0     C46502   9.852   2.521   1.301 -0.2168 -0.1842 -0.7242
  345MOL0     C46503   9.719   2.583   1.325 -1.1192  0.0459 -0.4698
  345MOL0     C46504   9.610   2.633   1.311  0.1101 -0.2201 -0.6142
  345MOL0     C46505   9.695   2.152   1.717  0.3933  0.4310  0.4340
  345MOL0     C46506   9.565   2.132   1.768 -0.3092  0.3638  0.0824
  345MOL0     C46507   9.488   2.001   1.740 -0.5323  1.0096  0.5045
  345MOL0     H46508   9.093   2.148   1.737 -2.1149  0.5184 -0.9265
  345MOL0     H46509   8.842   2.134   1.819  0.3047 -0.3328 -1.0852
  345MOL0     H46510   8.796   2.128   2.204 -2.6675 -0.5750  0.9714
  345MOL0     H46511   8.748   2.303   2.226 -3.9605  1.0182  0.2184
  345MOL0     H46512   8.561   2.080   2.157 -3.4217  0.7126  0.8389
  345MOL0     H46513   8.520   2.253   2.162  2.3859  0.5291 -2.1235
  345MOL0     H46514   8.588   2.245   2.408  1.9010 -0.5368  1.2789
  345MOL0     H46515   8.650   2.084   2.398  0.1409  0.0333 -0.7964
  345MOL0     H46516   8.348   2.164   2.385  1.5382  1.7869 -1.1465
  345MOL0     H46517   8.411   2.007   2.316 -1.6780  1.4145 -1.3966
  345MOL0     H46518   8.527   1.971   2.550 -1.0427 -1.6882  3.2430
  345MOL0     H46519   8.435   2.100   2.602  1.3575  1.1103 -1.2154
  345MOL0     H46520   8.288   1.906   2.652 -3.0485 -0.4915 -1.0611
  345MOL0     H46521   8.225   1.975   2.514  0.6636  0.1971 -1.3487
  345MOL0     H46522   8.443   1.773   2.461 -0.7225 -3.1514 -0.5487
  345MOL0     H46523   8.288   1.796   2.374 -1.9163  2.8002  1.5752
  345MOL0     H46524   8.300   1.584   2.488 -2.9974 -1.6451  1.3032
  345MOL0     H46525   8.314   1.672   2.640  0.0290 -1.1656 -0.2103
  345MOL0     H46526   8.061   1.886   2.584  2.7213 -1.6227  2.1085
  345MOL0     H46527   7.787   1.867   2.656  2.1492  0.4252 -1.1178
  345MOL0     H46528   7.727   1.827   2.497 -2.7919  0.3596  1.8844
  345MOL0     H46529   7.743   1.579   2.669  1.8782 -0.1636 -3.3037
  345MOL0     H46530   7.660   1.717   2.745 -0.4846 -0.6104 -0.9328
  345MOL0     H46531   7.586   1.616   2.474 -0.0406 -0.9830 -0.7571
  345MOL0     H46532   7.525   1.761   2.557  2.3185  0.7964  1.5944
  345MOL0     H46533   7.492   1.463   2.651  1.8012  1.3633 -1.5986
  345MOL0     H46534   7.366   1.572   2.575 -0.7825  1.4062  0.4689
  345MOL0     H46535   7.275   1.393   2.683 -1.5994  0.9138  0.2613
  345MOL0     H46536   7.110   1.289   2.817 -0.3588  0.1545  0.8846
  345MOL0     H46537   6.902   1.118   3.129 -0.2087 -1.1475 -2.6683
  345MOL0     H46538   6.697   0.994   3.180 -1.2295 -0.0083  2.6739
  345MOL0     H46539   6.335   1.255   3.269  0.6102 -0.8454  0.4732
  345MOL0     H46540   6.276   1.192   3.110 -2.4703 -0.7258  0.9746
  345MOL0     H46541   6.209   0.984   3.220 -1.6716  0.6708  0.2431
  345MOL0     H46542   6.272   1.032   3.372  3.6595 -1.1332 -2.7454
  345MOL0     H46543   6.116   1.237   3.337  2.1734 -1.1792  1.3616
  345MOL0     H46544   6.035   1.153   3.202  1.2402  0.6824 -1.1814
  345MOL0     H46545   6.031   1.033   3.484 -1.6557  0.0943 -1.1521
  345MOL0     H46546   5.958   0.975   3.334 -0.6723 -1.4432  2.7473
  345MOL0     H46547   5.844   1.206   3.315 -0.6220  1.5198  1.2852
  345MOL0     H46548   5.892   1.226   3.483 -1.3511 -0.3995  1.0399
  345MOL0     H46549   5.740   0.994   3.347  1.1898  2.4798 -2.5839
  345MOL0     H46550   5.786   0.998   3.521  1.7824  0.1175 -0.7046
  345MOL0     H46551   5.606   1.192   3.386  3.8566  3.0362  1.5498
  345MOL0     H46552   5.659   1.184   3.556 -1.9626 -0.7935  1.7430
  345MOL0     H46553   5.435   1.073   3.534 -0.2307  0.0475 -1.2196
  345MOL0     H46554   5.496   0.989   3.398  0.2671 -0.3314  0.2575
  345MOL0     H46555   6.459   1.317   3.042  0.1193 -0.5933 -2.9682
  345MOL0     H46556   6.667   1.438   2.971  3.0080  1.3923  1.4888
  345MOL0     H46557   7.203   1.571   3.143 -1.2016  0.4864 -0.0515
  345MOL0     H46558   7.354   1.671   2.994  1.4238 -1.8328  3.1689
  345MOL0     H46559   8.961   2.371   2.161 -2.3998  1.3331 -1.9041
  345MOL0     H46560   9.195   2.356   2.082 -0.0968  2.4739 -1.8983
  345MOL0     H46561   9.541   2.458   1.891  1.3863  0.5539 -1.3701
  345MOL0     H46562   9.739   2.475   1.788 -0.3780 -0.5531  2.4565
  345MOL0     H46563  10.070   2.403   1.634 -0.3726 -0.4550 -1.0737
  345MOL0     H46564   9.980   2.445   1.764 -0.5731 -2.0292  0.7292
  345MOL0     H46565   9.965   2.597   1.550 -2.9576  1.9009 -4.2225
  345MOL0     H46566   9.806   2.547   1.588  1.0098  4.1559 -1.7636
  345MOL0     H46567   9.859   2.332   1.419  0.6904 -1.0296 -1.4102
  345MOL0     H46568  10.008   2.411   1.406  0.0603 -1.4415  1.5943
  345MOL0     H46569   9.931   2.597   1.295 -0.2497 -0.1083 -0.2908
  345MOL0     H46570   9.855   2.469   1.206  2.0922  1.1295 -1.4510
  345MOL0     H46571   9.517   2.685   1.312  2.3032  4.1613  1.5498
  345MOL0     H46572   9.746   2.071   1.665 -1.5788  1.0691 -2.8315
  345MOL0     H46573   9.400   1.973   1.799 -1.8857  0.7083 -1.5200
  345MOL0     H46574   9.454   2.024   1.638  2.9140  4.9174 -0.0043
  345MOL0     H46575   9.555   1.915   1.748 -2.2798 -0.3870  0.8670
  346MOL0     O46576   9.324   9.278   7.376  0.1248  0.6798  0.8152
  346MOL0     C46577   9.249   9.193   7.323  0.1691 -0.8336 -0.1785
  346MOL0     O46578   9.146   9.218   7.240  0.4564 -0.5536  0.7356
  346MOL0     C46579   9.143   9.324   7.155 -0.3368 -0.7058 -0.2891
  346MOL0     C46580   9.039   9.315   7.066 -0.0812 -0.2900  0.2095
  346MOL0     C46581   9.004   9.420   6.983 -0.1117  0.0454  0.0648
  346MOL0     C46582   9.076   9.539   6.990  0.4701 -0.3677 -0.5175
  346MOL0     O46583   9.035   9.654   6.928  0.2118  0.1192  0.4800
  346MOL0     C46584   9.142   9.756   6.878 -0.0380 -0.5727  0.2162
  346MOL0     C46585   9.147   9.776   6.727  0.4866  0.4898 -0.1181
  346MOL0     C46586   9.141   9.643   6.659  1.2530  0.1873 -0.1058
  346MOL0     C46587   9.185   9.638   6.515  0.0435  0.9075 -0.4597
  346MOL0     C46588   9.184   9.495   6.464  0.0444  0.0854  0.9627
  346MOL0     C46589   9.051   9.413   6.457  0.0784  0.6113 -0.2005
  346MOL0     C46590   9.032   9.324   6.333 -0.0020  0.6062  0.0564
  346MOL0     C46591   8.991   9.425   6.225 -0.3360  0.0420  0.0958
  346MOL0     N46592   8.987   9.340   6.100  0.7773  0.3193 -0.1483
  346MOL0     C46593   9.097   9.294   6.029  0.9830 -0.0451 -0.4068
  346MOL0     C46594   9.044   9.211   5.935 -0.6397  0.1118 -0.4380
  346MOL0     C46595   9.121   9.122   5.851 -0.8961 -0.0068  0.6518
  346MOL0     C46596   9.145   9.190   5.711  0.3195  0.5992 -0.1330
  346MOL0     C46597   9.248   9.099   5.634  1.3153 -0.3044 -0.4256
  346MOL0     C46598   9.392   9.108   5.658 -0.7477  0.8772  0.0668
  346MOL0     O46599   9.427   9.132   5.794 -0.8782 -0.0309 -0.4056
  346MOL0     C46600   9.547   9.104   5.855  0.4239  0.5901 -0.2995
  346MOL0     C46601   9.666   9.098   5.784  0.2757  0.4944 -0.4106
  346MOL0     C46602   9.783   9.056   5.845 -0.5393  0.6103 -0.7017
  346MOL0     C46603   9.792   9.027   5.981 -0.2346 -1.0163  0.1044
  346MOL0     C46604   9.914   8.969   6.042  0.3107  0.5707  0.3444
  346MOL0     O46605   9.906   8.956   6.177 -0.3079  0.1401 -0.1714
  346MOL0     C46606  10.002   8.884   6.245 -0.1719  0.1770 -0.1122
  346MOL0     C46607  10.006   8.905   6.386  0.3013 -0.1447  0.4315
  346MOL0     C46608  10.107   8.838   6.460 -0.7037  0.3489 -0.5371
  346MOL0     C46609  10.213   8.766   6.397 -0.0623  0.2383  0.8230
  346MOL0     O46610  10.316   8.694   6.455 -0.3039 -0.4757 -0.3195
  346MOL0     C46611  10.353   8.744   6.593 -0.0044 -0.9394  1.1078
  346MOL0     C46612  10.494   8.713   6.630 -0.3102  0.5822  0.0122
  346MOL0     C46613  10.578   8.812   6.552  0.0180  1.1656 -0.0734
  346MOL0     C46614  10.733   8.791   6.582 -0.5155  0.5274  0.6029
  346MOL0     C46615  10.811   8.918   6.535  0.3389  0.2549  0.8344
  346MOL0     C46616  10.804   8.935   6.388  0.5735  0.1713  0.1757
  346MOL0     C46617  10.881   9.060   6.336  0.2304 -0.5083 -0.0913
  346MOL0     C46618  10.904   9.044   6.188 -0.2206  0.3559 -0.6383
  346MOL0    Cl46619  10.948   9.199   6.109 -0.0566  0.1420 -0.1927
  346MOL0     C46620  10.201   8.737   6.259  0.4507 -0.7595  0.2476
  346MOL0     C46621  10.091   8.790   6.182 -0.0963 -1.0248 -0.8347
  346MOL0     O46622  10.016   8.958   5.971  0.1687 -0.9723 -0.7726
  346MOL0     C46623   9.673   9.059   6.053 -0.8034  0.4999 -1.2961
  346MOL0     C46624   9.550   9.103   5.995 -0.0939  0.4607 -0.3099
  346MOL0     N46625   8.907   9.216   5.952 -0.0917 -0.3438 -0.0571
  346MOL0     N46626   8.872   9.291   6.048  0.6416  0.6701 -0.3344
  346MOL0     C46627   9.191   9.546   7.073 -0.1835  0.4413  0.0881
  346MOL0     C46628   9.233   9.439   7.142 -0.1319  0.5187 -0.4690
  346MOL0     C46629   9.259   9.063   7.386  0.2773  0.1670 -0.0641
  346MOL0     C46630   9.179   8.957   7.336 -0.3310 -0.0977  0.3349
  346MOL0     C46631   9.168   8.828   7.400  0.1207 -1.0177  0.0861
  346MOL0     C46632   9.255   8.794   7.502 -0.0245  0.6718 -0.4944
  346MOL0     O46633   9.260   8.671   7.552  0.3402  0.2616  0.5804
  346MOL0     C46634   9.225   8.656   7.689  0.0176  0.4046 -1.1068
  346MOL0     C46635   9.082   8.628   7.700 -1.4967 -0.2196  0.1810
  346MOL0     C46636   9.058   8.574   7.842 -0.0107 -0.4474 -0.1848
  346MOL0     C46637   9.036   8.675   7.947 -0.8595 -0.6085  0.2057
  346MOL0     C46638   8.912   8.748   7.930 -0.0504  0.1866 -0.3243
  346MOL0     C46639   8.806   8.811   7.912  0.3738 -0.3106 -1.1693
  346MOL0     C46640   9.345   8.890   7.545  0.2695 -0.1626 -0.0441
  346MOL0     C46641   9.341   9.026   7.493  0.6025  0.1030 -0.1381
  346MOL0     C46642   9.460   9.104   7.549  0.1474 -0.2403  0.2543
  346MOL0     H46643   8.975   9.228   7.069 -1.4402  0.6078 -1.3791
  346MOL0     H46644   8.914   9.397   6.925 -0.5477 -2.5636  1.6066
  346MOL0     H46645   9.119   9.852   6.924 -2.9684 -3.1802  5.1374
  346MOL0     H46646   9.245   9.725   6.900  0.5393  0.8055 -0.4694
  346MOL0     H46647   9.239   9.828   6.701 -0.7835  2.0391 -1.8180
  346MOL0     H46648   9.066   9.838   6.687 -0.3806 -0.2667  0.4171
  346MOL0     H46649   9.037   9.610   6.660  1.1840  0.1750 -2.3248
  346MOL0     H46650   9.201   9.575   6.720  0.5361  1.7732  2.5216
  346MOL0     H46651   9.118   9.707   6.463 -0.1467  0.9920 -0.1064
  346MOL0     H46652   9.280   9.686   6.490 -0.4804  2.2425  0.0151
  346MOL0     H46653   9.209   9.513   6.359  0.5608 -1.1584  0.8579
  346MOL0     H46654   9.256   9.437   6.522 -1.7748 -0.8185  2.4348
  346MOL0     H46655   9.036   9.345   6.541  0.8156  0.1113 -0.4644
  346MOL0     H46656   8.967   9.481   6.474 -1.5879 -1.9568  3.0604
  346MOL0     H46657   8.948   9.259   6.359  0.2922  0.0657 -0.3287
  346MOL0     H46658   9.127   9.276   6.308 -0.3193 -0.1123  0.1937
  346MOL0     H46659   8.893   9.472   6.242  0.0771  1.0159 -0.1554
  346MOL0     H46660   9.056   9.510   6.201 -1.5930  0.6676 -1.3325
  346MOL0     H46661   9.201   9.315   6.049  1.4141 -1.6407 -0.8171
  346MOL0     H46662   9.213   9.091   5.901  1.5831  2.3170 -2.1417
  346MOL0     H46663   9.052   9.037   5.847 -3.3089  1.6386  3.2273
  346MOL0     H46664   9.047   9.199   5.663  0.4175 -0.4042 -0.5433
  346MOL0     H46665   9.184   9.291   5.729  1.8237  0.7633 -3.5698
  346MOL0     H46666   9.235   9.128   5.529 -1.0789 -1.4233 -0.5158
  346MOL0     H46667   9.210   8.997   5.636 -0.2593  0.2440 -0.3832
  346MOL0     H46668   9.421   9.204   5.614 -3.0688  2.5560  1.8915
  346MOL0     H46669   9.448   9.024   5.617 -1.1336  0.8678 -0.4587
  346MOL0     H46670   9.662   9.104   5.675  0.7709 -0.8255 -0.5192
  346MOL0     H46671   9.870   9.035   5.784  0.6241  0.7759  0.8385
  346MOL0     H46672   9.927   8.958   6.439 -0.5578 -0.8714 -0.1067
  346MOL0     H46673  10.119   8.854   6.566 -1.1399  2.5817 -0.7584
  346MOL0     H46674  10.333   8.851   6.607 -0.3741 -0.8017 -0.3509
  346MOL0     H46675  10.287   8.686   6.658 -1.9760 -0.8005 -0.6683
  346MOL0     H46676  10.514   8.734   6.736 -0.4298  1.2607 -0.0960
  346MOL0     H46677  10.515   8.609   6.606 -0.1238  0.7670 -0.6478
  346MOL0     H46678  10.564   8.812   6.444 -0.6228  0.1373 -0.0110
  346MOL0     H46679  10.549   8.910   6.591 -1.8807  0.8320 -0.5242
  346MOL0     H46680  10.767   8.692   6.551  0.6649  0.9849  0.3954
  346MOL0     H46681  10.746   8.788   6.691 -0.5194  1.1797  0.6246
  346MOL0     H46682  10.917   8.902   6.558  0.6089 -4.6508 -2.3331
  346MOL0     H46683  10.782   9.009   6.587 -0.9526 -0.2770  1.0798
  346MOL0     H46684  10.844   8.843   6.344  2.0023  0.0889  1.5470
  346MOL0     H46685  10.699   8.942   6.360  0.4173 -0.2906  0.6355
  346MOL0     H46686  10.980   9.069   6.383 -0.3966 -1.8752  1.5635
  346MOL0     H46687  10.820   9.149   6.355 -0.4089 -1.4377  2.5435
  346MOL0     H46688  10.975   8.962   6.172 -0.2462  0.5402 -1.7933
  346MOL0     H46689  10.810   9.013   6.142  0.5494  0.1431 -2.1433
  346MOL0     H46690  10.264   8.661   6.214 -1.7737 -1.5654 -1.7051
  346MOL0     H46691  10.076   8.761   6.079  0.2942  1.7030 -1.7573
  346MOL0     H46692   9.670   9.060   6.161  1.3012 -3.7735 -0.9838
  346MOL0     H46693   9.466   9.120   6.060 -0.0223 -0.5250  0.0469
  346MOL0     H46694   9.249   9.637   7.084  0.2336  0.1487  0.3405
  346MOL0     H46695   9.321   9.450   7.205 -1.3934  1.2191  1.2439
  346MOL0     H46696   9.115   8.987   7.253 -1.0877  3.2350  1.9639
  346MOL0     H46697   9.094   8.755   7.366 -1.2247 -0.4480  1.6448
  346MOL0     H46698   9.248   8.744   7.749 -1.5102 -1.7660  3.1057
  346MOL0     H46699   9.293   8.578   7.726 -1.7559 -2.4607 -3.4438
  346MOL0     H46700   9.054   8.559   7.619 -0.8070  0.8952 -1.0405
  346MOL0     H46701   9.022   8.718   7.685 -2.3318 -0.6872  0.6387
  346MOL0     H46702   9.135   8.504   7.876 -0.7080 -1.7393 -1.1901
  346MOL0     H46703   8.975   8.503   7.841 -3.7967  3.3747  3.2314
  346MOL0     H46704   9.031   8.635   8.048 -4.4637 -0.5993  0.1797
  346MOL0     H46705   9.118   8.748   7.942 -1.3990 -0.0679 -1.6777
  346MOL0     H46706   8.710   8.852   7.886  0.4193  0.2123 -0.5216
  346MOL0     H46707   9.415   8.861   7.623 -2.1364 -0.3656  2.2126
  346MOL0     H46708   9.517   9.164   7.478 -0.1810  2.1770  1.9075
  346MOL0     H46709   9.427   9.170   7.630  2.0496  1.6851 -0.4740
  346MOL0     H46710   9.528   9.034   7.598 -0.4662  0.1164  1.6789
  347MOL0     O46711   1.624   9.181   7.423  0.4971 -0.0626 -0.3420
  347MOL0     C46712   1.600   9.087   7.360 -0.9296  0.3408  0.8897
  347MOL0     O46713   1.697   9.015   7.304 -0.0268 -0.2275 -0.5605
  347MOL0     C46714   1.824   9.068   7.281  0.2304 -1.2456 -0.2995
  347MOL0     C46715   1.913   9.072   7.382  0.6725  0.0595  0.6175
  347MOL0     C46716   2.034   9.136   7.370 -0.2220  0.4899  0.6360
  347MOL0     C46717   2.080   9.182   7.243  0.0227  0.8877  0.3767
  347MOL0     O46718   2.199   9.244   7.222 -0.5148  0.2952 -0.0359
  347MOL0     C46719   2.273   9.266   7.343 -0.1502  1.0956 -0.0279
  347MOL0     C46720   2.392   9.361   7.319  0.3384  0.0128  1.0617
  347MOL0     C46721   2.465   9.393   7.441 -0.3455 -0.4961 -0.8170
  347MOL0     C46722   2.604   9.449   7.395  0.5227 -0.3461 -0.2914
  347MOL0     C46723   2.596   9.581   7.316 -1.1085  0.2434 -0.5398
  347MOL0     C46724   2.506   9.685   7.380 -0.2487 -0.5068  0.4759
  347MOL0     C46725   2.537   9.825   7.332  0.6459  0.0682  0.3702
  347MOL0     C46726   2.404   9.904   7.309 -0.5017  0.1715 -0.2281
  347MOL0     N46727   2.433  10.033   7.246  0.5540 -0.0240  0.9537
  347MOL0     C46728   2.487  10.058   7.123  0.0272  0.5852  0.4159
  347MOL0     C46729   2.513  10.196   7.127 -0.3269  0.1772  0.2390
  347MOL0     C46730   2.564  10.279   7.011  0.1514 -0.4935  0.2842
  347MOL0     C46731   2.642  10.400   7.047  0.2716 -0.4401 -0.5802
  347MOL0     C46732   2.648  10.504   6.934  0.9026  0.5409 -0.8439
  347MOL0     C46733   2.696  10.435   6.802  0.0682 -1.0710  0.4234
  347MOL0     O46734   2.830  10.387   6.843 -0.4719 -0.6959 -0.3919
  347MOL0     C46735   2.877  10.299   6.748 -0.8318  0.5309 -0.0827
  347MOL0     C46736   2.888  10.167   6.796 -0.5048 -0.6262  0.2152
  347MOL0     C46737   2.936  10.061   6.707  1.0894  0.6535 -0.1750
  347MOL0     C46738   3.004  10.097   6.589 -0.8052 -0.3992 -0.5537
  347MOL0     C46739   3.088   9.993   6.516  0.2489  0.3300 -0.3845
  347MOL0     O46740   3.135   9.886   6.580  0.5677 -0.0494 -0.6395
  347MOL0     C46741   3.204   9.781   6.526  0.3170  0.2458  0.1418
  347MOL0     C46742   3.292   9.714   6.612  1.1671  0.4227  0.1876
  347MOL0     C46743   3.390   9.632   6.555 -0.0645 -0.2981  0.8087
  347MOL0     C46744   3.385   9.604   6.419 -0.0222 -0.1611 -0.3222
  347MOL0     O46745   3.482   9.513   6.375  0.2578  0.1716  0.7960
  347MOL0     C46746   3.521   9.511   6.232 -0.0691  0.7654 -0.3405
  347MOL0     C46747   3.641   9.414   6.210  0.7980  0.3149 -0.5697
  347MOL0     C46748   3.602   9.278   6.267  0.3501 -0.5795 -0.3436
  347MOL0     C46749   3.689   9.165   6.205 -0.1816 -0.6105 -0.2212
  347MOL0     C46750   3.713   9.057   6.309  0.2671  0.0630 -0.6961
  347MOL0     C46751   3.800   8.939   6.248  0.2378 -0.7324 -0.8701
  347MOL0     C46752   3.925   8.905   6.333  0.1417 -0.5096 -0.3160
  347MOL0     C46753   4.007   8.779   6.298  0.4507  0.0065  0.0534
  347MOL0    Cl46754   4.165   8.767   6.390  0.2705  0.0787 -0.7196
  347MOL0     C46755   3.286   9.651   6.330 -0.2509  0.0442  0.0177
  347MOL0     C46756   3.198   9.737   6.387 -0.1621 -0.5605 -0.6052
  347MOL0     O46757   3.119  10.026   6.404 -0.6139 -0.3023 -0.4502
  347MOL0     C46758   2.989  10.228   6.546 -0.8220 -0.6788  0.1268
  347MOL0     C46759   2.926  10.327   6.623  0.1373 -0.8719  0.2052
  347MOL0     N46760   2.465  10.252   7.242  0.3285 -0.1736  0.5900
  347MOL0     N46761   2.423  10.152   7.312 -0.3897  0.2308  0.1870
  347MOL0     C46762   1.995   9.155   7.142  0.1997 -0.2137  0.9092
  347MOL0     C46763   1.868   9.104   7.163  0.1425 -0.1527 -0.0966
  347MOL0     C46764   1.462   9.040   7.325  0.0566 -0.1805  0.7522
  347MOL0     C46765   1.427   8.900   7.326  1.4947 -0.2094 -0.1569
  347MOL0     C46766   1.299   8.847   7.314 -0.2881  0.3888 -0.2973
  347MOL0     C46767   1.200   8.935   7.272 -0.1675 -0.5251 -0.0902
  347MOL0     O46768   1.073   8.904   7.231  0.0474 -0.6443 -0.1826
  347MOL0     C46769   1.008   8.862   7.353  0.5655 -0.4314  0.0243
  347MOL0     C46770   0.877   8.808   7.319  1.1858 -0.3983 -0.3720
  347MOL0     C46771   0.885   8.658   7.277  0.0633 -0.6337 -0.2189
  347MOL0     C46772   0.939   8.554   7.375 -0.4297 -0.2338 -0.0418
  347MOL0     C46773   0.956   8.418   7.323 -0.4923 -0.2231  0.1818
  347MOL0     C46774   0.982   8.316   7.260 -0.5881 -0.0359  0.1458
  347MOL0     C46775   1.227   9.076   7.268  0.5504  0.2212  0.3478
  347MOL0     C46776   1.360   9.124   7.277 -0.2248 -0.1368 -0.1677
  347MOL0     C46777   1.376   9.277   7.258 -1.2017  1.0808 -1.2114
  347MOL0     H46778   1.885   9.025   7.476 -2.1642 -2.4932 -1.3303
  347MOL0     H46779   2.089   9.128   7.463 -2.8266  0.2528  2.2637
  347MOL0     H46780   2.215   9.309   7.425 -2.0124  1.4503 -1.4615
  347MOL0     H46781   2.316   9.170   7.373 -3.4720 -0.4432  0.2007
  347MOL0     H46782   2.352   9.448   7.266  2.3481 -0.8137 -2.0798
  347MOL0     H46783   2.458   9.310   7.249 -0.8092  0.0147 -0.0449
  347MOL0     H46784   2.473   9.312   7.513 -2.4669 -0.2480 -0.2305
  347MOL0     H46785   2.406   9.463   7.502 -2.4817 -1.7588 -1.3144
  347MOL0     H46786   2.664   9.461   7.485  2.7466 -2.1579 -1.4459
  347MOL0     H46787   2.651   9.362   7.351  0.0945 -0.6036 -0.2489
  347MOL0     H46788   2.698   9.621   7.313 -1.6153  1.7884  0.7975
  347MOL0     H46789   2.563   9.562   7.214 -1.9999  0.1051 -0.2387
  347MOL0     H46790   2.402   9.656   7.361  0.8972 -3.2203 -2.5352
  347MOL0     H46791   2.540   9.682   7.484  0.0291 -0.5898  0.3826
  347MOL0     H46792   2.582   9.822   7.232 -0.5240  3.5107 -0.4124
  347MOL0     H46793   2.606   9.886   7.391  2.2744  0.4051 -1.7789
  347MOL0     H46794   2.327   9.857   7.247 -1.8543  0.2337  1.3545
  347MOL0     H46795   2.359   9.920   7.407 -0.1362  0.6185 -0.1243
  347MOL0     H46796   2.504   9.991   7.040  0.3353  1.3486 -0.1400
  347MOL0     H46797   2.614  10.212   6.940 -2.3152 -4.0349  1.6155
  347MOL0     H46798   2.471  10.320   6.970  0.1218  0.4079  1.2256
  347MOL0     H46799   2.593  10.454   7.129  0.1468  1.0426 -1.5895
  347MOL0     H46800   2.746  10.371   7.068  0.2721  1.7255  3.4883
  347MOL0     H46801   2.718  10.582   6.967 -0.4896  0.1715  3.4669
  347MOL0     H46802   2.546  10.538   6.915  0.8967 -0.4844 -2.9481
  347MOL0     H46803   2.698  10.510   6.722 -3.0581 -1.5248 -0.2457
  347MOL0     H46804   2.621  10.363   6.766 -0.7898 -0.3204  0.6494
  347MOL0     H46805   2.848  10.141   6.894  3.1267 -1.5429  1.6031
  347MOL0     H46806   2.940   9.957   6.739  2.6775 -0.4093 -3.4093
  347MOL0     H46807   3.293   9.730   6.719 -0.5809 -1.6367  0.5992
  347MOL0     H46808   3.465   9.578   6.612 -1.3698 -1.3577  1.5751
  347MOL0     H46809   3.433   9.482   6.173 -2.2798  1.2992  2.4737
  347MOL0     H46810   3.548   9.615   6.209  1.8450  0.4495  0.2878
  347MOL0     H46811   3.668   9.410   6.104  1.4133 -0.2134 -0.3989
  347MOL0     H46812   3.733   9.439   6.264  0.3741  0.6684  0.0001
  347MOL0     H46813   3.617   9.292   6.375 -0.9781  4.6593 -0.5660
  347MOL0     H46814   3.496   9.255   6.260  0.3699 -0.1321 -2.6289
  347MOL0     H46815   3.787   9.200   6.170 -0.2804 -1.8994 -1.9574
  347MOL0     H46816   3.644   9.125   6.114  0.0941  1.5996 -1.4002
  347MOL0     H46817   3.620   9.016   6.349 -0.2264  2.4989  0.8957
  347MOL0     H46818   3.771   9.110   6.385 -0.9789  0.8846 -0.2832
  347MOL0     H46819   3.738   8.851   6.228  1.9186 -2.8528  2.2837
  347MOL0     H46820   3.846   8.980   6.158 -0.7838 -0.9063 -1.4903
  347MOL0     H46821   3.900   8.889   6.438  0.3827  0.7075 -0.0572
  347MOL0     H46822   3.980   8.998   6.314 -1.7602  0.3613 -1.8867
  347MOL0     H46823   3.943   8.692   6.315 -1.6866  2.1178  4.8435
  347MOL0     H46824   4.036   8.788   6.193  1.2095  3.2971  0.4343
  347MOL0     H46825   3.272   9.621   6.227  1.6508 -3.3293  0.5989
  347MOL0     H46826   3.122   9.787   6.328  0.5483 -2.7106 -3.5096
  347MOL0     H46827   3.036  10.246   6.450 -3.5052 -0.4178 -1.2515
  347MOL0     H46828   2.930  10.427   6.582  3.7071 -2.1538 -3.2291
  347MOL0     H46829   2.034   9.175   7.043 -1.1774 -0.6002  0.2701
  347MOL0     H46830   1.799   9.071   7.086 -2.1919  1.5197  1.1455
  347MOL0     H46831   1.509   8.833   7.350  0.6380 -0.4971  2.2241
  347MOL0     H46832   1.269   8.743   7.322  2.7031 -0.5006  0.9575
  347MOL0     H46833   0.988   8.950   7.414 -0.9886  0.4473 -1.6462
  347MOL0     H46834   1.058   8.779   7.402  0.7722 -2.9580 -3.9676
  347MOL0     H46835   0.834   8.873   7.242 -1.4465 -0.1553  1.2112
  347MOL0     H46836   0.816   8.808   7.409  1.9139 -3.4633  0.2112
  347MOL0     H46837   0.953   8.658   7.192  0.3571  0.4350 -0.0017
  347MOL0     H46838   0.778   8.648   7.253 -0.6980  0.2514  2.4376
  347MOL0     H46839   1.038   8.586   7.407  0.9399 -1.0357 -3.0868
  347MOL0     H46840   0.874   8.543   7.462  0.0703 -0.7492  0.2714
  347MOL0     H46841   1.020   8.230   7.209 -4.1266 -0.7669 -1.5493
  347MOL0     H46842   1.144   9.140   7.240  0.5191  0.5749  1.2208
  347MOL0     H46843   1.482   9.300   7.253 -1.3493  1.9680 -0.5987
  347MOL0     H46844   1.334   9.296   7.159  0.6930 -0.9984 -2.4948
  347MOL0     H46845   1.333   9.322   7.348  1.0712  0.2385  0.3897
  348MOL0     O46846  11.008   5.906   6.330 -0.1894  0.1789  0.3646
  348MOL0     C46847  11.073   5.921   6.225  0.3958  0.0454  0.4825
  348MOL0     O46848  11.045   6.002   6.120  0.2306 -0.2017  0.9330
  348MOL0     C46849  10.932   6.072   6.132 -1.3040 -0.8493  0.6677
  348MOL0     C46850  10.917   6.180   6.221 -0.4718  0.5691 -0.7999
  348MOL0     C46851  10.788   6.231   6.244 -0.4567  0.1229 -1.3390
  348MOL0     C46852  10.682   6.195   6.165 -0.2079 -0.0045 -0.8972
  348MOL0     O46853  10.556   6.236   6.200  0.2084 -0.3069 -0.9286
  348MOL0     C46854  10.454   6.143   6.174 -0.4529  0.7952  0.5718
  348MOL0     C46855  10.325   6.159   6.246 -0.1155 -0.2214 -0.1929
  348MOL0     C46856  10.352   6.245   6.373  0.1566 -0.6885  0.0452
  348MOL0     C46857  10.234   6.250   6.472  0.3589 -0.6658  0.2655
  348MOL0     C46858  10.250   6.355   6.588  0.7502 -0.4890 -1.2199
  348MOL0     C46859  10.331   6.279   6.702 -0.2489 -0.0456  0.5840
  348MOL0     C46860  10.389   6.363   6.817  0.2142 -0.7225 -0.7776
  348MOL0     C46861  10.435   6.270   6.926  0.1399 -0.3299 -0.8446
  348MOL0     N46862  10.537   6.167   6.887 -0.3160 -0.1860 -0.3164
  348MOL0     C46863  10.657   6.187   6.824  0.5908 -0.9336 -0.2917
  348MOL0     C46864  10.696   6.061   6.803  0.2882 -0.0111 -0.7463
  348MOL0     C46865  10.822   6.011   6.755 -0.1772 -0.2583  0.2700
  348MOL0     C46866  10.822   5.974   6.608 -0.1965  0.2826  0.2401
  348MOL0     C46867  10.704   5.883   6.565  0.3899 -0.9655  0.2459
  348MOL0     C46868  10.728   5.813   6.432  0.8133 -0.1391 -0.1621
  348MOL0     O46869  10.594   5.778   6.393 -0.1389  0.5984 -0.2042
  348MOL0     C46870  10.583   5.675   6.303  0.2705  0.1586 -0.6001
  348MOL0     C46871  10.629   5.693   6.169  0.0321 -0.4091 -0.6784
  348MOL0     C46872  10.616   5.588   6.076  0.0653  0.3243 -0.4928
  348MOL0     C46873  10.562   5.467   6.123  0.1435 -0.2551 -0.0206
  348MOL0     C46874  10.557   5.348   6.037 -0.5661  0.2101  0.9883
  348MOL0     O46875  10.613   5.363   5.918 -0.2149 -0.2218  0.0504
  348MOL0     C46876  10.592   5.260   5.826 -0.4708 -0.4584  0.9672
  348MOL0     C46877  10.688   5.166   5.791  0.3045  0.0112  0.7755
  348MOL0     C46878  10.668   5.067   5.700 -0.2849 -0.1421 -0.1800
  348MOL0     C46879  10.543   5.053   5.642  1.1363 -0.6339  0.2076
  348MOL0     O46880  10.505   4.954   5.551  0.4380 -0.1693 -0.1411
  348MOL0     C46881  10.590   4.838   5.526 -0.4080 -0.1035  0.8445
  348MOL0     C46882  10.578   4.734   5.636  0.1548  0.5080 -0.7418
  348MOL0     C46883  10.621   4.600   5.583  0.2900  0.0157  0.0788
  348MOL0     C46884  10.607   4.483   5.691  0.1954 -1.3082 -0.4689
  348MOL0     C46885  10.461   4.447   5.709 -0.4298 -0.3416  0.2463
  348MOL0     C46886  10.461   4.343   5.836 -0.2186 -0.0813  0.0395
  348MOL0     C46887  10.315   4.310   5.859 -0.2722  0.3103 -0.8906
  348MOL0     C46888  10.285   4.206   5.967  0.0905 -0.3048  0.1814
  348MOL0    Cl46889  10.302   4.299   6.122 -0.2198  0.2141  0.0289
  348MOL0     C46890  10.436   5.148   5.668 -0.6377  0.2586 -0.0747
  348MOL0     C46891  10.466   5.253   5.759  0.8367 -0.3745  0.1962
  348MOL0     O46892  10.501   5.249   6.080  0.2794 -0.0971 -0.1803
  348MOL0     C46893  10.520   5.461   6.262 -0.0238  0.8684 -0.3328
  348MOL0     C46894  10.523   5.566   6.351 -0.2966  1.3741  0.3159
  348MOL0     N46895  10.596   5.968   6.846 -0.1760 -0.1350  0.9096
  348MOL0     N46896  10.500   6.034   6.896 -0.7702 -0.9569 -0.1799
  348MOL0     C46897  10.705   6.104   6.062  0.3936  0.2528 -0.0970
  348MOL0     C46898  10.827   6.031   6.052  0.3515  0.2526  0.7338
  348MOL0     C46899  11.184   5.822   6.187 -0.4517  0.4584 -0.3110
  348MOL0     C46900  11.200   5.778   6.056 -0.9813  0.0601  0.0984
  348MOL0     C46901  11.295   5.680   6.027 -0.0402 -0.1471 -0.0915
  348MOL0     C46902  11.396   5.640   6.113 -0.7902 -0.3098 -0.3828
  348MOL0     O46903  11.500   5.547   6.091 -0.6521 -0.7709 -0.7417
  348MOL0     C46904  11.493   5.488   5.962  0.2366 -0.1058 -0.5583
  348MOL0     C46905  11.596   5.379   5.939  0.4563 -0.7072 -0.2554
  348MOL0     C46906  11.568   5.280   5.829 -1.1759 -0.2177 -0.5726
  348MOL0     C46907  11.559   5.352   5.690 -0.0772  0.4760 -0.4112
  348MOL0     C46908  11.689   5.396   5.638 -0.0090  0.4487  0.1152
  348MOL0     C46909  11.792   5.415   5.587 -0.6468  0.1565  1.0612
  348MOL0     C46910  11.375   5.686   6.245 -0.2333  0.5796  0.2183
  348MOL0     C46911  11.274   5.771   6.284  0.2590  0.6894 -0.6415
  348MOL0     C46912  11.276   5.810   6.428 -0.4988 -0.2379 -0.8815
  348MOL0     H46913  11.005   6.193   6.282 -0.5000 -0.7308 -0.4391
  348MOL0     H46914  10.769   6.311   6.316 -1.2522 -2.5470  1.6399
  348MOL0     H46915  10.428   6.146   6.068 -0.0845  1.8368  0.5001
  348MOL0     H46916  10.497   6.046   6.204 -1.7270  0.2576  0.7219
  348MOL0     H46917  10.285   6.065   6.286  6.7194 -3.0207  1.4580
  348MOL0     H46918  10.257   6.212   6.179 -1.0668 -0.6669  0.3970
  348MOL0     H46919  10.386   6.345   6.344  0.0388 -1.0786 -1.5532
  348MOL0     H46920  10.435   6.212   6.436  1.8410 -0.9765 -2.2167
  348MOL0     H46921  10.136   6.279   6.431 -0.4038  0.3724  2.6643
  348MOL0     H46922  10.217   6.150   6.511  1.9326 -0.4837  1.4951
  348MOL0     H46923  10.306   6.444   6.559  1.7077 -0.9001 -0.6899
  348MOL0     H46924  10.152   6.376   6.631  1.6467 -0.7428  1.0903
  348MOL0     H46925  10.260   6.219   6.759  0.0159 -0.5300  0.4141
  348MOL0     H46926  10.408   6.209   6.665 -0.4274 -0.3304  0.7421
  348MOL0     H46927  10.316   6.432   6.859 -1.4482 -1.6619 -1.9868
  348MOL0     H46928  10.463   6.436   6.782 -0.5392  0.2534 -0.3639
  348MOL0     H46929  10.477   6.323   7.012  0.0522 -1.0691 -0.3350
  348MOL0     H46930  10.344   6.230   6.973  0.6961  0.1414  0.7221
  348MOL0     H46931  10.704   6.284   6.810  1.2093 -1.2095 -0.1409
  348MOL0     H46932  10.893   6.095   6.758 -0.9594  0.4021  0.4763
  348MOL0     H46933  10.857   5.924   6.812 -1.1217  1.3410  3.5112
  348MOL0     H46934  10.818   6.070   6.555 -1.7966  0.8709  1.3407
  348MOL0     H46935  10.920   5.927   6.595 -0.2307 -0.7128  2.9143
  348MOL0     H46936  10.615   5.944   6.552 -0.5498 -2.5843 -1.4126
  348MOL0     H46937  10.685   5.809   6.644 -2.5409 -2.2844 -1.5310
  348MOL0     H46938  10.784   5.721   6.453  0.2529 -0.3013  0.6733
  348MOL0     H46939  10.770   5.881   6.357 -0.6450 -1.4456 -2.2776
  348MOL0     H46940  10.664   5.793   6.146  0.4154  0.3976  2.9160
  348MOL0     H46941  10.667   5.608   5.983 -0.2830  1.3831 -0.4707
  348MOL0     H46942  10.790   5.168   5.829  0.5374 -1.6860  0.3590
  348MOL0     H46943  10.744   4.990   5.691 -0.8745 -0.8121  0.4301
  348MOL0     H46944  10.577   4.785   5.430  2.9751 -0.9035  0.6968
  348MOL0     H46945  10.695   4.864   5.515 -0.6107  0.1610 -0.8736
  348MOL0     H46946  10.654   4.769   5.707  1.5365 -1.6481 -1.0627
  348MOL0     H46947  10.482   4.745   5.688  0.8095 -1.3654  1.0079
  348MOL0     H46948  10.563   4.568   5.496  0.1642  3.1507 -1.1467
  348MOL0     H46949  10.729   4.599   5.561  1.1801  3.1466  3.3333
  348MOL0     H46950  10.654   4.512   5.786 -0.5314 -0.5844 -0.3215
  348MOL0     H46951  10.652   4.389   5.657  0.7540 -0.9127 -0.8415
  348MOL0     H46952  10.428   4.395   5.618 -1.0453  1.0851 -0.3832
  348MOL0     H46953  10.398   4.534   5.728  0.7773  0.2944  1.5224
  348MOL0     H46954  10.525   4.257   5.816  0.9018  0.8055 -0.3033
  348MOL0     H46955  10.497   4.403   5.920 -2.1838  2.9242 -1.1043
  348MOL0     H46956  10.278   4.273   5.762  2.5594 -0.9119 -1.5895
  348MOL0     H46957  10.262   4.403   5.882 -0.0957 -0.2915  2.2943
  348MOL0     H46958  10.178   4.185   5.951  0.7388 -1.6187 -3.4350
  348MOL0     H46959  10.357   4.125   5.981  2.8353  2.0399  0.6728
  348MOL0     H46960  10.338   5.138   5.622 -1.2116 -0.2091  1.2209
  348MOL0     H46961  10.387   5.323   5.784 -1.7436 -3.1394  0.3256
  348MOL0     H46962  10.482   5.364   6.294  0.4167  0.1378 -1.9254
  348MOL0     H46963  10.494   5.559   6.455 -0.7559  4.3469  0.4554
  348MOL0     H46964  10.631   6.062   5.995  1.7179  0.4632 -1.7615
  348MOL0     H46965  10.845   5.963   5.969 -2.0672 -0.0922  0.4249
  348MOL0     H46966  11.143   5.832   5.981 -5.9727 -0.4300  3.0371
  348MOL0     H46967  11.295   5.637   5.927 -2.4755 -3.4691  1.1450
  348MOL0     H46968  11.499   5.568   5.888  1.4200  1.2316  0.9146
  348MOL0     H46969  11.393   5.444   5.960  0.3710 -0.9291  3.1812
  348MOL0     H46970  11.599   5.320   6.031 -1.9561 -2.2975 -1.0985
  348MOL0     H46971  11.695   5.423   5.927  1.7104 -3.0207  1.0405
  348MOL0     H46972  11.485   5.211   5.846 -0.3760 -1.3869 -1.2301
  348MOL0     H46973  11.645   5.202   5.825 -2.9545 -2.0931 -0.2080
  348MOL0     H46974  11.521   5.279   5.617 -0.4892  1.2179 -0.9560
  348MOL0     H46975  11.501   5.444   5.696  3.1257  2.5497  1.3980
  348MOL0     H46976  11.878   5.435   5.525 -0.5418 -0.8095  0.8711
  348MOL0     H46977  11.448   5.656   6.319  1.8155  2.0091 -1.0943
  348MOL0     H46978  11.282   5.919   6.432  3.1093 -0.2904 -1.4619
  348MOL0     H46979  11.185   5.774   6.477 -0.5241 -0.2190 -0.9147
  348MOL0     H46980  11.356   5.763   6.487 -1.6214 -0.5068  0.4722
  349MOL0     O46981   6.043   4.194   9.333  0.4073 -0.1487  0.0904
  349MOL0     C46982   6.077   4.288   9.264 -1.1338 -0.5916  0.8380
  349MOL0     O46983   5.992   4.386   9.225 -0.4651  0.1358 -0.0004
  349MOL0     C46984   5.860   4.381   9.252  0.7699 -0.1710 -0.0871
  349MOL0     C46985   5.777   4.428   9.150  0.2596  0.6099 -0.1806
  349MOL0     C46986   5.639   4.416   9.161 -0.1170  0.6577 -0.1711
  349MOL0     C46987   5.575   4.391   9.286 -0.2001 -0.9134  0.2011
  349MOL0     O46988   5.434   4.395   9.304  0.3709  0.8634  0.5607
  349MOL0     C46989   5.375   4.334   9.421  0.4528 -0.5388  0.7677
  349MOL0     C46990   5.221   4.325   9.406 -0.3453 -0.8225  0.7606
  349MOL0     C46991   5.170   4.468   9.405 -0.2625 -0.0712  1.0956
  349MOL0     C46992   5.014   4.452   9.391  0.3238 -0.3858 -0.0853
  349MOL0     C46993   4.946   4.579   9.353 -0.8003 -0.6012 -0.3697
  349MOL0     C46994   5.002   4.708   9.411  0.6114 -0.7132 -0.1073
  349MOL0     C46995   4.893   4.810   9.397 -0.6550 -0.8049 -0.2744
  349MOL0     C46996   4.865   4.840   9.252 -1.0617 -0.0797  0.6858
  349MOL0     N46997   4.788   4.962   9.232  0.5970 -0.0623 -0.5496
  349MOL0     C46998   4.654   4.993   9.268 -0.6094  0.8050  0.1336
  349MOL0     C46999   4.618   5.104   9.186 -0.3302  0.8566 -0.4050
  349MOL0     C47000   4.488   5.164   9.194  0.7264  0.4690 -0.5206
  349MOL0     C47001   4.460   5.234   9.069  0.2184 -0.0604 -0.1305
  349MOL0     C47002   4.311   5.238   9.037 -0.2868  0.5903  0.7931
  349MOL0     C47003   4.289   5.342   8.931  0.4173  0.1310  0.3685
  349MOL0     O47004   4.150   5.374   8.939 -0.9938  0.2380 -0.3128
  349MOL0     C47005   4.099   5.475   8.875  0.5449 -0.0717  0.5639
  349MOL0     C47006   3.992   5.538   8.949 -0.8121 -0.2628  0.7505
  349MOL0     C47007   3.923   5.652   8.892  1.4788  0.5342 -0.2259
  349MOL0     C47008   3.969   5.699   8.765  0.1343  1.0077  0.0463
  349MOL0     C47009   3.909   5.822   8.702  0.2576  0.4647 -0.7245
  349MOL0     O47010   3.966   5.877   8.595 -0.1972 -0.1639  0.2737
  349MOL0     C47011   3.911   5.986   8.535  0.2185 -0.5752 -0.2370
  349MOL0     C47012   3.880   6.099   8.595  0.2027  0.1406 -0.3577
  349MOL0     C47013   3.832   6.214   8.532  0.0262  0.2031 -0.7380
  349MOL0     C47014   3.818   6.214   8.395 -0.7864  0.4342  1.0922
  349MOL0     O47015   3.773   6.331   8.340  0.4017 -1.1737  0.0403
  349MOL0     C47016   3.668   6.314   8.245 -0.3314  0.4921  1.3301
  349MOL0     C47017   3.597   6.455   8.214  0.0999 -0.3635 -0.1302
  349MOL0     C47018   3.487   6.437   8.109  0.2614  0.4981  0.1508
  349MOL0     C47019   3.463   6.564   8.014 -0.8657 -0.0093 -0.4253
  349MOL0     C47020   3.424   6.696   8.075  1.0104  0.0063 -0.3456
  349MOL0     C47021   3.301   6.679   8.161 -0.1056 -0.5211 -0.0364
  349MOL0     C47022   3.169   6.685   8.086  0.0124  0.0403  0.2678
  349MOL0     C47023   3.063   6.587   8.133  0.0198  0.5199 -1.3515
  349MOL0    Cl47024   3.017   6.606   8.307 -0.2000 -0.2538  0.1455
  349MOL0     C47025   3.866   6.100   8.332 -0.3061  0.4292  0.7789
  349MOL0     C47026   3.905   5.986   8.398  0.1215 -0.2430 -0.0253
  349MOL0     O47027   3.805   5.861   8.758  0.2034 -0.3864  0.4387
  349MOL0     C47028   4.074   5.641   8.695 -0.3602  0.2635 -0.1280
  349MOL0     C47029   4.141   5.518   8.741 -0.0849 -0.4105 -0.4714
  349MOL0     N47030   4.725   5.136   9.102  0.6992 -0.7664 -0.2331
  349MOL0     N47031   4.827   5.056   9.134 -0.3606  0.3183  0.3237
  349MOL0     C47032   5.662   4.369   9.389  0.2721  0.5214 -0.5167
  349MOL0     C47033   5.801   4.364   9.377  0.4152 -0.5934  0.5479
  349MOL0     C47034   6.219   4.310   9.226  0.6600 -0.3089  0.7839
  349MOL0     C47035   6.245   4.427   9.145 -0.1151  0.7499 -0.5746
  349MOL0     C47036   6.387   4.454   9.108  1.7262  0.2013 -0.6791
  349MOL0     C47037   6.488   4.366   9.154 -0.6663 -0.7484  0.7240
  349MOL0     O47038   6.619   4.367   9.122  0.2990 -0.0134  0.3065
  349MOL0     C47039   6.652   4.471   9.031  0.5045 -0.0107  0.0372
  349MOL0     C47040   6.806   4.467   8.994 -0.1164 -0.0906 -0.5294
  349MOL0     C47041   6.919   4.457   9.100  0.5000 -0.4391  1.1921
  349MOL0     C47042   7.064   4.462   9.060  0.2292 -0.6831 -0.1581
  349MOL0     C47043   7.118   4.337   9.004 -0.4652 -0.1663  0.2902
  349MOL0     C47044   7.177   4.244   8.948 -0.4650 -0.2432  0.6187
  349MOL0     C47045   6.460   4.265   9.231  1.1179  0.3893  0.3701
  349MOL0     C47046   6.329   4.232   9.275 -0.8730 -0.7825 -0.7467
  349MOL0     C47047   6.317   4.115   9.369  0.1136 -0.6241  0.1733
  349MOL0     H47048   5.818   4.472   9.060 -2.3648  0.7978 -1.3548
  349MOL0     H47049   5.574   4.439   9.077 -0.1706  1.7711  0.1598
  349MOL0     H47050   5.418   4.234   9.437  1.1192 -0.0269  2.4248
  349MOL0     H47051   5.379   4.395   9.512 -5.3770  0.9668  0.3857
  349MOL0     H47052   5.196   4.269   9.497  1.8533 -2.7762  0.2673
  349MOL0     H47053   5.194   4.272   9.314  0.3831  0.4006 -0.1985
  349MOL0     H47054   5.204   4.524   9.317  2.6179 -3.0763  0.1331
  349MOL0     H47055   5.199   4.528   9.492 -1.7498  0.0701  1.5364
  349MOL0     H47056   4.984   4.379   9.315  1.2745  0.6550 -1.5162
  349MOL0     H47057   4.971   4.411   9.483 -1.0382  1.1433  0.0107
  349MOL0     H47058   4.950   4.586   9.244  1.3932 -0.1118 -0.2964
  349MOL0     H47059   4.841   4.568   9.381 -0.1120  1.1986  3.4998
  349MOL0     H47060   5.029   4.702   9.517 -1.0813 -2.4032  0.2913
  349MOL0     H47061   5.092   4.738   9.357  0.5623 -1.7375 -0.7798
  349MOL0     H47062   4.918   4.901   9.453  2.2994 -2.1321  0.7922
  349MOL0     H47063   4.796   4.771   9.431 -0.7989 -0.4624 -0.2940
  349MOL0     H47064   4.961   4.849   9.201 -2.4617  1.1466 -1.9415
  349MOL0     H47065   4.814   4.758   9.202  0.6234 -0.2887 -0.7949
  349MOL0     H47066   4.593   4.944   9.343  1.3465 -1.8916  0.1143
  349MOL0     H47067   4.409   5.091   9.217  0.0004  1.5095  0.4310
  349MOL0     H47068   4.495   5.238   9.274 -1.3281  0.7267 -0.5287
  349MOL0     H47069   4.512   5.329   9.080  1.8793 -1.1608  2.9254
  349MOL0     H47070   4.516   5.177   8.995 -1.1729 -1.0132 -0.4874
  349MOL0     H47071   4.251   5.268   9.123  0.8219  3.3732  0.6969
  349MOL0     H47072   4.277   5.137   9.010 -0.0480  1.0609 -1.3928
  349MOL0     H47073   4.322   5.299   8.836  0.2595 -0.6272  0.6460
  349MOL0     H47074   4.344   5.433   8.955 -1.9115  1.0300  2.7114
  349MOL0     H47075   3.949   5.506   9.043 -4.1045  0.2492 -0.4457
  349MOL0     H47076   3.839   5.700   8.941  2.0455 -1.7390  3.3726
  349MOL0     H47077   3.908   6.110   8.700 -0.5734  0.0695 -0.1297
  349MOL0     H47078   3.808   6.306   8.584 -0.7127  0.3549 -1.3226
  349MOL0     H47079   3.712   6.274   8.153 -1.7619  1.1470  0.3199
  349MOL0     H47080   3.586   6.245   8.266 -0.8143 -0.2685 -2.4436
  349MOL0     H47081   3.563   6.512   8.301  0.0588  0.4465 -0.6694
  349MOL0     H47082   3.676   6.514   8.166 -0.3264  1.2412  1.0445
  349MOL0     H47083   3.511   6.355   8.040  1.5895  0.0660  1.0905
  349MOL0     H47084   3.394   6.412   8.162 -1.9158  1.1066 -3.0813
  349MOL0     H47085   3.382   6.541   7.943  0.3898  0.6179 -2.1298
  349MOL0     H47086   3.557   6.581   7.960 -0.4519 -2.7027 -0.6505
  349MOL0     H47087   3.410   6.777   8.002 -0.5691 -0.1257 -0.2078
  349MOL0     H47088   3.508   6.738   8.132  0.2608 -0.4978  1.1934
  349MOL0     H47089   3.304   6.587   8.219 -0.5447 -1.2111 -1.0813
  349MOL0     H47090   3.316   6.760   8.233  0.3845 -0.5056 -0.1476
  349MOL0     H47091   3.185   6.673   7.979 -0.2472  0.3959  0.1865
  349MOL0     H47092   3.138   6.790   8.093  0.2153  0.4213 -3.0731
  349MOL0     H47093   2.975   6.610   8.073 -0.5712  2.5864  0.2008
  349MOL0     H47094   3.103   6.486   8.122  4.5126  1.4016  3.0531
  349MOL0     H47095   3.876   6.097   8.224  1.0242 -0.3226  0.8997
  349MOL0     H47096   3.931   5.893   8.348 -2.5202 -0.7877 -0.5859
  349MOL0     H47097   4.108   5.680   8.600 -0.9073  2.3904  0.4950
  349MOL0     H47098   4.223   5.478   8.683  2.1092  1.1489  1.3685
  349MOL0     H47099   5.615   4.324   9.476 -2.0934  1.8576 -1.0409
  349MOL0     H47100   5.863   4.344   9.464  0.4652 -0.1126  0.6250
  349MOL0     H47101   6.171   4.491   9.097 -1.1260 -0.5292 -0.7720
  349MOL0     H47102   6.406   4.531   9.035 -0.2602  2.0752  0.6688
  349MOL0     H47103   6.639   4.569   9.079  0.3099 -0.8153  1.7268
  349MOL0     H47104   6.604   4.465   8.933  1.5640  1.2537 -0.5958
  349MOL0     H47105   6.817   4.556   8.932 -3.8997  1.3166  0.5798
  349MOL0     H47106   6.817   4.391   8.916 -0.1986 -1.5140  0.7922
  349MOL0     H47107   6.912   4.360   9.150  1.9666 -2.2959 -1.8700
  349MOL0     H47108   6.908   4.548   9.160 -0.1438  1.0533 -1.0230
  349MOL0     H47109   7.075   4.537   8.981 -0.2333 -0.3074  0.1341
  349MOL0     H47110   7.121   4.479   9.152 -0.3831  0.7999 -0.0208
  349MOL0     H47111   7.236   4.170   8.896 -1.1515 -0.6238  0.3725
  349MOL0     H47112   6.545   4.205   9.260  1.0135  0.4693  0.8437
  349MOL0     H47113   6.413   4.072   9.400 -0.7098 -2.6213  0.1008
  349MOL0     H47114   6.264   4.151   9.457 -1.3829 -1.3637 -0.3902
  349MOL0     H47115   6.260   4.037   9.318 -2.8483  0.7878  1.1397
  350MOL0     O47116   8.162   4.279   6.086 -0.1797 -0.1196  0.0781
  350MOL0     C47117   8.273   4.237   6.062 -0.5696  0.4010 -0.9089
  350MOL0     O47118   8.314   4.107   6.065  0.0729  0.4283 -0.4671
  350MOL0     C47119   8.219   4.008   6.099  0.3152 -0.2980 -0.5077
  350MOL0     C47120   8.132   3.959   6.000  1.2849  0.4928  0.2081
  350MOL0     C47121   8.047   3.852   6.043 -0.1646 -0.5227  0.6262
  350MOL0     C47122   8.043   3.811   6.176 -0.3722  0.4660  0.2382
  350MOL0     O47123   7.949   3.722   6.206  0.0905 -0.7813 -0.6761
  350MOL0     C47124   7.973   3.595   6.144  0.0778 -0.0212  0.3878
  350MOL0     C47125   7.861   3.495   6.180 -0.2549 -0.0644 -0.6801
  350MOL0     C47126   7.874   3.457   6.326  0.3036  0.5304  0.1375
  350MOL0     C47127   7.764   3.358   6.356 -0.0004 -1.0005  0.6541
  350MOL0     C47128   7.778   3.277   6.483  0.5873 -0.0135 -0.0856
  350MOL0     C47129   7.658   3.193   6.519  0.5101 -0.4446  0.8899
  350MOL0     C47130   7.628   3.082   6.420  0.0903 -0.2294  0.5328
  350MOL0     C47131   7.570   2.949   6.465 -0.3221 -0.1487  0.1289
  350MOL0     N47132   7.596   2.835   6.379 -0.5733  0.1569 -0.3219
  350MOL0     C47133   7.566   2.829   6.247  0.1927  0.5762  0.7044
  350MOL0     C47134   7.627   2.711   6.213  0.6822 -0.2192  1.4409
  350MOL0     C47135   7.630   2.648   6.082 -1.3819  0.2646 -0.9187
  350MOL0     C47136   7.552   2.524   6.068  0.0826  0.6297  0.3700
  350MOL0     C47137   7.400   2.558   6.076  0.2573  0.0154  0.7093
  350MOL0     C47138   7.335   2.591   5.944  0.2347  0.3131  0.1744
  350MOL0     O47139   7.198   2.620   5.977 -0.6511  0.9374  0.3737
  350MOL0     C47140   7.131   2.661   5.866 -0.3591 -0.7870 -0.2182
  350MOL0     C47141   7.116   2.798   5.847  0.5897 -0.1567  0.7581
  350MOL0     C47142   7.022   2.836   5.748  0.3025  0.2207 -0.0997
  350MOL0     C47143   6.940   2.741   5.685  0.4228  0.0620  0.5316
  350MOL0     C47144   6.839   2.783   5.591  0.2167 -0.1277 -0.0694
  350MOL0     O47145   6.807   2.919   5.594  0.5335  0.4102  0.0039
  350MOL0     C47146   6.757   2.954   5.480 -0.3482  0.1525  0.6537
  350MOL0     C47147   6.619   2.940   5.458  1.1170  0.4962  0.7579
  350MOL0     C47148   6.568   2.964   5.337  1.4265 -0.0321  0.9816
  350MOL0     C47149   6.650   3.016   5.232  0.2471 -0.5541 -0.5434
  350MOL0     O47150   6.603   3.055   5.112 -0.1731 -0.4422 -0.7789
  350MOL0     C47151   6.561   2.940   5.027  0.2705 -0.5761 -0.4595
  350MOL0     C47152   6.414   2.955   4.993 -1.0781  1.0565  0.0406
  350MOL0     C47153   6.380   2.886   4.858 -0.2123 -0.8080  0.2621
  350MOL0     C47154   6.379   2.732   4.894 -0.4253  0.2882 -0.4275
  350MOL0     C47155   6.333   2.646   4.776 -0.2692 -0.2562 -0.8271
  350MOL0     C47156   6.341   2.493   4.816 -0.4259  0.1446 -0.5440
  350MOL0     C47157   6.260   2.406   4.714  0.2802  0.4399 -0.6428
  350MOL0     C47158   6.109   2.407   4.724 -0.4381  0.0089  0.5285
  350MOL0    Cl47159   6.034   2.287   4.610 -0.2679 -0.0618 -0.2634
  350MOL0     C47160   6.787   3.038   5.260  0.0084 -0.4537  0.2424
  350MOL0     C47161   6.843   3.013   5.380 -0.3634  0.1569 -0.3155
  350MOL0     O47162   6.776   2.699   5.532  0.8420  0.3793  0.6986
  350MOL0     C47163   6.969   2.606   5.704 -0.2102 -0.2191 -0.1416
  350MOL0     C47164   7.065   2.558   5.791  0.0461 -0.4629  0.4806
  350MOL0     N47165   7.692   2.651   6.309  0.0054  0.0586 -0.4883
  350MOL0     N47166   7.673   2.728   6.415  0.8452  0.5910  0.7803
  350MOL0     C47167   8.121   3.867   6.273 -1.2648 -0.7872  0.2142
  350MOL0     C47168   8.225   3.957   6.230  0.3261 -0.0607  0.0870
  350MOL0     C47169   8.368   4.339   6.011 -0.1531 -0.1985 -0.0928
  350MOL0     C47170   8.505   4.328   6.029 -0.4154 -0.5121 -0.4360
  350MOL0     C47171   8.595   4.432   6.000  0.1053  0.9505 -0.3157
  350MOL0     C47172   8.558   4.538   5.919 -0.7731 -0.3609  0.6302
  350MOL0     O47173   8.650   4.630   5.869  0.0071 -0.6824  0.3195
  350MOL0     C47174   8.786   4.624   5.915 -0.4408  1.0693 -0.9205
  350MOL0     C47175   8.861   4.745   5.869 -0.6312 -0.4455 -0.0096
  350MOL0     C47176   9.000   4.757   5.934 -1.0517 -0.0453 -0.2144
  350MOL0     C47177   9.039   4.905   5.931 -1.5312  0.0480  0.6125
  350MOL0     C47178   9.065   4.952   5.792 -0.2035  0.3706 -0.3540
  350MOL0     C47179   9.084   4.997   5.680  0.0270  0.9196 -0.3732
  350MOL0     C47180   8.425   4.547   5.891 -0.2620 -0.8226 -0.2213
  350MOL0     C47181   8.328   4.460   5.934 -0.1127  0.2565  0.0379
  350MOL0     C47182   8.181   4.496   5.892 -0.5875 -0.3000  0.4308
  350MOL0     H47183   8.135   3.984   5.894  0.3294 -4.1536 -1.1517
  350MOL0     H47184   7.976   3.816   5.970  1.2428  1.2306 -1.7772
  350MOL0     H47185   7.974   3.602   6.035 -1.2842 -1.5141  0.2374
  350MOL0     H47186   8.071   3.562   6.178 -0.5632  1.1357  3.7506
  350MOL0     H47187   7.873   3.414   6.107 -3.5149 -1.6152  0.3144
  350MOL0     H47188   7.761   3.536   6.164 -0.2993  0.3345  0.5167
  350MOL0     H47189   7.854   3.551   6.377 -0.1164  1.5123 -1.7285
  350MOL0     H47190   7.974   3.416   6.346 -0.0710 -0.3635  0.2278
  350MOL0     H47191   7.675   3.422   6.357  1.3157  0.9600  1.6303
  350MOL0     H47192   7.769   3.282   6.278  0.1986 -0.5810  0.2505
  350MOL0     H47193   7.869   3.217   6.471  0.7215  0.2119 -0.2186
  350MOL0     H47194   7.808   3.345   6.563 -2.6712  0.5693  0.7557
  350MOL0     H47195   7.668   3.149   6.619  3.7269  0.1445  0.9226
  350MOL0     H47196   7.569   3.257   6.520  0.6440 -0.2568  0.7730
  350MOL0     H47197   7.723   3.049   6.377 -0.0936  2.2532 -2.1103
  350MOL0     H47198   7.563   3.116   6.338 -1.6257 -1.9282  1.1302
  350MOL0     H47199   7.621   2.930   6.560  0.9668  2.7196  0.1051
  350MOL0     H47200   7.461   2.953   6.475 -0.7220  1.8432 -3.4476
  350MOL0     H47201   7.515   2.895   6.178 -3.0394 -0.9471  1.4522
  350MOL0     H47202   7.611   2.712   5.996  1.5424  1.3490 -0.8955
  350MOL0     H47203   7.734   2.618   6.067 -1.3128  0.0758 -0.1330
  350MOL0     H47204   7.573   2.464   5.979 -1.1080 -3.2399  2.4563
  350MOL0     H47205   7.572   2.466   6.158  0.1551  3.0776  2.0485
  350MOL0     H47206   7.381   2.644   6.141  1.6722  0.5595  0.4445
  350MOL0     H47207   7.348   2.472   6.119 -0.7611 -0.1330 -0.7644
  350MOL0     H47208   7.343   2.507   5.875  1.1325  1.5888 -1.3433
  350MOL0     H47209   7.381   2.677   5.894 -1.8897  0.0300 -2.4408
  350MOL0     H47210   7.172   2.870   5.905  0.6598  0.2478  0.1980
  350MOL0     H47211   7.012   2.943   5.737  0.8785  0.2745 -0.1447
  350MOL0     H47212   6.563   2.888   5.536 -1.4992 -4.2586 -3.6963
  350MOL0     H47213   6.467   2.949   5.300  2.1097  1.2177 -1.6134
  350MOL0     H47214   6.605   2.941   4.927  0.4884 -1.9161 -0.3869
  350MOL0     H47215   6.572   2.840   5.069 -0.0120 -0.5850 -0.4040
  350MOL0     H47216   6.357   2.915   5.078  1.3581  2.0885  2.2962
  350MOL0     H47217   6.386   3.061   4.982 -2.0344  1.0785  2.1765
  350MOL0     H47218   6.287   2.926   4.819 -0.2336 -0.8150  0.3058
  350MOL0     H47219   6.455   2.913   4.783 -0.2189 -0.4193  0.3972
  350MOL0     H47220   6.312   2.707   4.977  1.6720 -1.0492  0.9504
  350MOL0     H47221   6.478   2.700   4.927 -1.1283 -0.4371  1.0891
  350MOL0     H47222   6.393   2.683   4.692 -2.8990  0.7659 -2.3924
  350MOL0     H47223   6.228   2.664   4.752 -0.1003 -0.7035 -1.9737
  350MOL0     H47224   6.448   2.472   4.818 -0.0973  1.7074  0.8225
  350MOL0     H47225   6.303   2.475   4.917 -2.6231  1.7753 -1.0115
  350MOL0     H47226   6.280   2.303   4.747 -0.5845  0.3000 -0.5412
  350MOL0     H47227   6.291   2.424   4.611 -0.2752  1.3477 -0.6598
  350MOL0     H47228   6.079   2.375   4.824 -0.5532  0.7368  0.7358
  350MOL0     H47229   6.067   2.506   4.704 -1.5188 -0.6752 -0.7631
  350MOL0     H47230   6.852   3.076   5.182  2.6479 -0.5787  2.2359
  350MOL0     H47231   6.947   3.027   5.405 -0.6386 -0.4894  1.3489
  350MOL0     H47232   6.918   2.527   5.651  2.7670 -1.2179 -1.7829
  350MOL0     H47233   7.084   2.452   5.803  3.5741  0.0985  1.2224
  350MOL0     H47234   8.122   3.840   6.378  1.0790 -0.4024  0.3441
  350MOL0     H47235   8.298   3.997   6.300 -0.2443 -1.6946  1.6767
  350MOL0     H47236   8.552   4.243   6.077 -1.6254  0.9153  3.7828
  350MOL0     H47237   8.690   4.414   6.049  0.3774 -2.3419 -1.7736
  350MOL0     H47238   8.841   4.536   5.882 -2.2891 -0.0891 -1.0705
  350MOL0     H47239   8.791   4.628   6.024  2.0537 -0.8389 -0.8837
  350MOL0     H47240   8.790   4.828   5.879 -0.2007 -0.2351  1.6564
  350MOL0     H47241   8.883   4.738   5.762 -0.0222  1.3310 -0.0287
  350MOL0     H47242   9.077   4.703   5.880 -0.5552  2.0172 -1.6771
  350MOL0     H47243   9.004   4.721   6.037  0.2767  1.1084  0.1539
  350MOL0     H47244   8.951   4.956   5.971 -0.8425 -0.1345  2.4770
  350MOL0     H47245   9.126   4.938   5.989  1.7566 -3.8270 -1.5538
  350MOL0     H47246   9.112   5.016   5.579  0.2002  1.1424 -0.2857
  350MOL0     H47247   8.398   4.633   5.830 -3.3014 -1.8622 -0.5042
  350MOL0     H47248   8.123   4.516   5.982 -2.2129 -1.7043 -0.2539
  350MOL0     H47249   8.180   4.592   5.838 -0.3094  0.1720  1.2489
  350MOL0     H47250   8.146   4.416   5.826  0.2163  0.2002 -0.6476
  351MOL0     O47251   9.134   0.464   5.757 -0.2667  0.2899  0.6567
  351MOL0     C47252   9.215   0.399   5.816 -0.0883  0.8508  0.0169
  351MOL0     O47253   9.348   0.434   5.830  0.4207  0.3226  0.7182
  351MOL0     C47254   9.394   0.540   5.754 -0.8045  0.4291  0.9683
  351MOL0     C47255   9.442   0.650   5.827 -0.0893 -0.4124  0.5835
  351MOL0     C47256   9.488   0.758   5.753 -0.0466 -1.0890 -0.1795
  351MOL0     C47257   9.479   0.763   5.620  0.2331  0.2573  0.2560
  351MOL0     O47258   9.522   0.870   5.549  0.4733  0.6558  0.4037
  351MOL0     C47259   9.647   0.924   5.572 -0.1134 -1.1285 -1.3529
  351MOL0     C47260   9.701   1.018   5.455  0.6589 -0.1468 -0.3626
  351MOL0     C47261   9.831   1.080   5.486 -0.2156 -0.2928  0.0670
  351MOL0     C47262   9.949   1.001   5.423  0.6354 -0.6697 -0.3418
  351MOL0     C47263  10.086   1.071   5.424 -0.4266 -0.2814 -0.2838
  351MOL0     C47264  10.116   1.091   5.571 -0.5782  0.5341 -1.0084
  351MOL0     C47265  10.256   1.139   5.604 -0.7420  0.0871  0.6671
  351MOL0     C47266  10.292   1.175   5.737 -0.3799  0.1833 -0.2002
  351MOL0     N47267  10.423   1.244   5.746 -0.0954 -0.2658  0.9092
  351MOL0     C47268  10.445   1.372   5.690 -0.7541  0.5128 -0.2251
  351MOL0     C47269  10.575   1.402   5.716  0.2362  0.4941 -0.2177
  351MOL0     C47270  10.664   1.521   5.691 -0.7112 -0.3262  0.8006
  351MOL0     C47271  10.758   1.538   5.805 -0.3000  0.3814  0.7466
  351MOL0     C47272  10.840   1.666   5.801 -0.2965 -0.0377 -0.1246
  351MOL0     C47273  10.950   1.662   5.899 -0.2969  0.1570  0.1273
  351MOL0     O47274  11.039   1.773   5.872  0.6383 -0.0566  0.2967
  351MOL0     C47275  11.136   1.798   5.967  0.2351 -0.0416  0.6485
  351MOL0     C47276  11.136   1.742   6.099  0.8716  0.9697 -0.6041
  351MOL0     C47277  11.225   1.787   6.198 -0.3023 -0.8251  0.2429
  351MOL0     C47278  11.322   1.880   6.164 -1.0636 -0.1724 -0.2239
  351MOL0     C47279  11.412   1.945   6.257 -0.5829 -0.2618 -0.3262
  351MOL0     O47280  11.456   2.061   6.217 -0.3467  0.5244  0.3287
  351MOL0     C47281  11.536   2.132   6.306 -0.1973  0.5244  0.0077
  351MOL0     C47282  11.665   2.100   6.318 -0.5407  0.0004  0.2167
  351MOL0     C47283  11.758   2.198   6.381 -0.2804 -0.1023  0.0798
  351MOL0     C47284  11.707   2.315   6.435 -0.6613 -0.6149 -0.0526
  351MOL0     O47285  11.799   2.395   6.500  0.1167  0.1255 -0.4533
  351MOL0     C47286  11.790   2.534   6.495  0.1408 -0.0682  0.1849
  351MOL0     C47287  11.895   2.604   6.584  0.2093 -0.0625  0.2694
  351MOL0     C47288  12.039   2.594   6.537  0.3699  0.0105  0.4417
  351MOL0     C47289  12.143   2.559   6.650  0.1983 -0.6816  0.2748
  351MOL0     C47290  12.139   2.651   6.780 -0.0909  0.9067 -0.1662
  351MOL0     C47291  12.242   2.604   6.895 -1.0774 -0.2173 -0.4360
  351MOL0     C47292  12.251   2.712   7.009 -0.0557  0.1025  0.2795
  351MOL0     C47293  12.290   2.650   7.140  0.5106  0.9582  0.6544
  351MOL0    Cl47294  12.463   2.593   7.122 -0.2041  0.3551  0.0035
  351MOL0     C47295  11.571   2.348   6.424  0.0983  0.3406 -0.1560
  351MOL0     C47296  11.491   2.253   6.362 -0.3242  0.3839  0.1211
  351MOL0     O47297  11.451   1.889   6.357 -0.2371 -0.4098  0.1526
  351MOL0     C47298  11.328   1.934   6.035  0.1737  0.5315 -0.0396
  351MOL0     C47299  11.228   1.893   5.934  0.0658  0.5917  0.0042
  351MOL0     N47300  10.634   1.292   5.778  0.9930  0.2804 -0.1674
  351MOL0     N47301  10.537   1.198   5.792  0.0254 -0.2351 -0.1359
  351MOL0     C47302   9.426   0.654   5.547 -0.7551  0.6373  0.1839
  351MOL0     C47303   9.382   0.537   5.615  0.3143 -0.8154  0.6561
  351MOL0     C47304   9.173   0.268   5.886  0.3322  0.1118  0.6933
  351MOL0     C47305   9.269   0.204   5.976  1.5021 -0.2761  0.1315
  351MOL0     C47306   9.219   0.091   6.045  0.4927 -0.2387 -0.0008
  351MOL0     C47307   9.091   0.041   6.033  0.7524 -0.4949 -0.1758
  351MOL0     O47308   9.058  -0.057   6.117  0.0421  0.1508  1.0236
  351MOL0     C47309   9.078  -0.185   6.047 -0.1979  0.1127  0.3529
  351MOL0     C47310   9.040  -0.299   6.147 -0.7207  0.1341 -0.6074
  351MOL0     C47311   8.889  -0.291   6.182 -0.3048  0.2267 -0.8574
  351MOL0     C47312   8.787  -0.347   6.083  0.8265 -0.2203 -0.3961
  351MOL0     C47313   8.660  -0.323   6.140  0.1263 -0.1503 -0.6249
  351MOL0     C47314   8.544  -0.308   6.174 -0.1806 -0.5247  0.3800
  351MOL0     C47315   9.002   0.096   5.941 -0.3425 -0.3290  0.0590
  351MOL0     C47316   9.041   0.207   5.868  0.7068  0.5331  0.0924
  351MOL0     C47317   8.937   0.271   5.786 -0.2722  0.3626  0.2875
  351MOL0     H47318   9.419   0.658   5.932 -0.6744 -0.9309  0.5055
  351MOL0     H47319   9.527   0.852   5.791 -2.6081 -0.3195  0.8179
  351MOL0     H47320   9.643   0.994   5.656 -0.8832 -1.1180 -1.3966
  351MOL0     H47321   9.726   0.849   5.586 -0.8350 -1.5039  1.3832
  351MOL0     H47322   9.635   1.105   5.458 -1.2873 -1.5722  0.8979
  351MOL0     H47323   9.703   0.965   5.360  3.5015 -3.0073  1.1274
  351MOL0     H47324   9.840   1.076   5.595  0.2471 -0.0926  0.0386
  351MOL0     H47325   9.828   1.186   5.461 -1.1358 -0.3914 -0.2462
  351MOL0     H47326   9.952   0.902   5.469  2.1318  0.2516  1.7453
  351MOL0     H47327   9.922   0.994   5.318  3.8741  3.8287 -1.8241
  351MOL0     H47328  10.170   1.008   5.391  1.3096  0.7397  1.9301
  351MOL0     H47329  10.093   1.167   5.372 -1.1362  0.0360  0.1959
  351MOL0     H47330  10.055   1.168   5.618  1.7197  2.5254 -1.1143
  351MOL0     H47331  10.098   0.990   5.610  1.2667  1.3674  2.3841
  351MOL0     H47332  10.277   1.233   5.553  1.7596 -0.8092 -0.0973
  351MOL0     H47333  10.325   1.064   5.562 -0.1931  0.9647 -0.0364
  351MOL0     H47334  10.217   1.237   5.787  2.5474  4.5739 -0.7535
  351MOL0     H47335  10.299   1.077   5.787  1.0560 -0.8493 -2.3078
  351MOL0     H47336  10.374   1.433   5.634 -0.5095  2.4641  1.4694
  351MOL0     H47337  10.710   1.521   5.592 -1.8702 -1.6351  0.2348
  351MOL0     H47338  10.601   1.611   5.695  2.1772  1.9953 -1.3854
  351MOL0     H47339  10.707   1.520   5.900  2.6454 -0.2800  2.3340
  351MOL0     H47340  10.833   1.461   5.786 -0.2321  0.8348 -1.0490
  351MOL0     H47341  10.772   1.741   5.842  0.6688 -1.2597  4.1579
  351MOL0     H47342  10.873   1.692   5.700 -3.0640  2.3609 -0.5473
  351MOL0     H47343  11.002   1.567   5.892  2.7980  1.4388  2.9726
  351MOL0     H47344  10.899   1.680   5.995 -0.4522  2.4952 -0.3317
  351MOL0     H47345  11.065   1.667   6.131 -0.5162  1.6854 -1.8605
  351MOL0     H47346  11.235   1.743   6.296 -0.7938  1.8312  1.5818
  351MOL0     H47347  11.710   2.015   6.269  0.6442  0.3349  0.6836
  351MOL0     H47348  11.864   2.174   6.381  0.8760  4.1015  1.8767
  351MOL0     H47349  11.805   2.559   6.389  3.6761  0.2073  0.6301
  351MOL0     H47350  11.692   2.573   6.526 -0.0735 -0.2882 -0.2047
  351MOL0     H47351  11.859   2.707   6.579  1.2502  0.3448  0.8681
  351MOL0     H47352  11.890   2.575   6.689 -0.6993  0.5469  0.4042
  351MOL0     H47353  12.045   2.524   6.453 -0.1333  1.7445 -1.1060
  351MOL0     H47354  12.056   2.693   6.493 -2.2363 -0.5906 -2.2257
  351MOL0     H47355  12.240   2.572   6.601 -0.7642 -2.3377 -2.2727
  351MOL0     H47356  12.120   2.454   6.668  1.4108 -1.0154 -0.0098
  351MOL0     H47357  12.040   2.647   6.826  0.0990 -3.6425  0.2974
  351MOL0     H47358  12.156   2.756   6.754  1.1213  0.3391 -1.7929
  351MOL0     H47359  12.219   2.504   6.933  2.4652 -0.9067  0.2671
  351MOL0     H47360  12.336   2.597   6.840  0.5774 -1.3660  2.2944
  351MOL0     H47361  12.147   2.742   7.023 -1.2073 -1.5711 -3.4118
  351MOL0     H47362  12.297   2.805   6.974 -1.2538 -0.0257 -1.8086
  351MOL0     H47363  12.272   2.725   7.218  0.8248  4.6529 -2.5550
  351MOL0     H47364  12.227   2.560   7.145  2.4758 -0.6410 -1.3943
  351MOL0     H47365  11.544   2.450   6.449  2.0177  0.2991  2.4628
  351MOL0     H47366  11.394   2.285   6.326 -0.1136 -0.8709 -1.6805
  351MOL0     H47367  11.401   2.010   6.009  1.9133 -1.3595 -0.9587
  351MOL0     H47368  11.236   1.939   5.836  3.0450  0.2413 -0.0153
  351MOL0     H47369   9.441   0.660   5.440  1.4299 -0.9558  0.3347
  351MOL0     H47370   9.347   0.452   5.558  0.1429 -0.0334 -0.4493
  351MOL0     H47371   9.372   0.235   5.991  2.0424 -2.6676  1.9370
  351MOL0     H47372   9.279   0.024   6.105  1.8888  1.3028  0.3852
  351MOL0     H47373   9.183  -0.203   6.022 -0.5865 -1.8404 -0.0862
  351MOL0     H47374   9.020  -0.196   5.955 -0.6269  0.0074  0.6307
  351MOL0     H47375   9.097  -0.301   6.241 -2.2797 -1.9731  0.3967
  351MOL0     H47376   9.070  -0.394   6.101  1.8740  0.6188 -0.0869
  351MOL0     H47377   8.879  -0.186   6.210  1.1135 -0.0529  0.8885
  351MOL0     H47378   8.883  -0.355   6.271 -0.1577 -1.2044 -1.8410
  351MOL0     H47379   8.792  -0.283   5.995 -1.8638  1.4279  0.5337
  351MOL0     H47380   8.796  -0.455   6.064  4.3316  0.6986 -6.0924
  351MOL0     H47381   8.447  -0.282   6.211 -0.8311  0.5235 -1.8473
  351MOL0     H47382   8.905   0.048   5.928 -1.0207  0.0931  2.8323
  351MOL0     H47383   8.859   0.200   5.761  0.4020 -0.8241  1.3983
  351MOL0     H47384   8.901   0.355   5.846  1.8855 -0.0526  2.3196
  351MOL0     H47385   8.966   0.307   5.687 -3.3740  0.0661 -0.8305
  352MOL0     O47386   7.374   6.112   1.645 -0.1363 -0.7246  0.0564
  352MOL0     C47387   7.414   6.036   1.732  1.1138 -0.2345  0.8026
  352MOL0     O47388   7.374   5.902   1.739  0.2771  0.0053 -0.6107
  352MOL0     C47389   7.272   5.858   1.660  0.2173  0.5767 -0.2394
  352MOL0     C47390   7.289   5.849   1.517  0.5412  0.1015 -0.5446
  352MOL0     C47391   7.192   5.793   1.435  1.0488 -0.2737 -0.0995
  352MOL0     C47392   7.075   5.748   1.495 -0.1792 -0.4137 -0.3056
  352MOL0     O47393   6.972   5.707   1.419 -0.2930 -0.5131 -0.0091
  352MOL0     C47394   6.869   5.800   1.374 -0.7440  0.8759  0.4081
  352MOL0     C47395   6.735   5.770   1.442 -0.2882  0.6161  0.2633
  352MOL0     C47396   6.632   5.872   1.393 -0.2542 -0.8509 -0.0239
  352MOL0     C47397   6.532   5.886   1.515  0.1884  1.0002  0.2923
  352MOL0     C47398   6.433   5.994   1.489  0.6228 -0.5200  0.2109
  352MOL0     C47399   6.497   6.130   1.500  0.3071 -0.7028 -0.6409
  352MOL0     C47400   6.397   6.247   1.505  0.4142 -0.3021 -0.4280
  352MOL0     C47401   6.344   6.260   1.648 -0.3726 -0.2927 -0.1735
  352MOL0     N47402   6.226   6.345   1.643 -0.2728  0.0786 -0.3338
  352MOL0     C47403   6.098   6.320   1.660  0.4067  0.8656  0.7377
  352MOL0     C47404   6.041   6.444   1.673 -0.1147  0.3428  0.3561
  352MOL0     C47405   5.891   6.465   1.667  0.4709  0.6037 -0.9486
  352MOL0     C47406   5.824   6.438   1.530  0.2188 -0.3360  0.1313
  352MOL0     C47407   5.893   6.514   1.420 -0.2569 -1.3810 -0.1611
  352MOL0     C47408   5.850   6.479   1.282 -0.2257 -0.1752 -1.0700
  352MOL0     O47409   5.824   6.337   1.280 -0.4535  0.6780  0.0181
  352MOL0     C47410   5.757   6.296   1.166  0.3366  0.1558 -0.6357
  352MOL0     C47411   5.804   6.301   1.037 -0.5224 -0.4006  0.2596
  352MOL0     C47412   5.719   6.259   0.928  0.6975 -0.0334 -0.2304
  352MOL0     C47413   5.582   6.218   0.946 -0.3152 -0.6142  0.2767
  352MOL0     C47414   5.486   6.196   0.838 -0.6544  0.8748  0.1294
  352MOL0     O47415   5.509   6.257   0.725  0.5219 -0.0585 -0.6154
  352MOL0     C47416   5.424   6.241   0.614  0.1443  0.6981 -0.7540
  352MOL0     C47417   5.377   6.350   0.548  0.2005 -0.6389  0.6737
  352MOL0     C47418   5.300   6.338   0.429  0.1379 -0.3695  0.0732
  352MOL0     C47419   5.279   6.214   0.375 -0.0683  0.0613 -0.6059
  352MOL0     O47420   5.208   6.198   0.268 -0.0782  0.3078  1.2072
  352MOL0     C47421   5.171   6.296   0.172 -1.1462 -0.2972 -0.4314
  352MOL0     C47422   5.045   6.370   0.218 -0.3115 -0.0062  1.2102
  352MOL0     C47423   5.046   6.512   0.171 -1.2748 -0.3808 -0.1678
  352MOL0     C47424   5.058   6.517   0.012  0.1525 -0.4036 -0.1763
  352MOL0     C47425   5.090   6.659  -0.044 -0.0931  0.1689 -0.4903
  352MOL0     C47426   4.997   6.772  -0.002  0.2531  0.7012  0.2385
  352MOL0     C47427   5.066   6.903  -0.052 -0.3727 -0.3194  0.4099
  352MOL0     C47428   4.979   7.017   0.003  0.5907 -0.5827  0.7693
  352MOL0    Cl47429   5.006   7.029   0.179  0.3714  0.7415 -0.4489
  352MOL0     C47430   5.310   6.103   0.454 -0.8016 -0.9930 -0.6061
  352MOL0     C47431   5.379   6.117   0.571 -0.4411 -0.0725 -0.9639
  352MOL0     O47432   5.388   6.130   0.863 -0.6144  0.2345  0.3153
  352MOL0     C47433   5.540   6.220   1.083  0.1074  0.6579  0.7094
  352MOL0     C47434   5.623   6.258   1.191 -0.2046 -0.5101  0.7924
  352MOL0     N47435   6.141   6.535   1.674 -0.2954  0.1013 -0.7331
  352MOL0     N47436   6.250   6.474   1.640 -0.1347 -0.4729  0.2633
  352MOL0     C47437   7.058   5.743   1.638 -0.7128 -0.0719 -0.3753
  352MOL0     C47438   7.156   5.806   1.715  0.1474 -0.4367 -0.0305
  352MOL0     C47439   7.529   6.066   1.816  0.0329  0.8077 -0.1881
  352MOL0     C47440   7.638   6.135   1.766 -0.3788  0.2317 -0.4234
  352MOL0     C47441   7.743   6.180   1.856  0.6429  0.1340  0.3547
  352MOL0     C47442   7.739   6.153   1.992  0.0147 -0.8680 -0.3581
  352MOL0     O47443   7.839   6.217   2.061  0.2077  0.0997  0.4936
  352MOL0     C47444   7.885   6.147   2.175  0.0141  0.3168  0.6205
  352MOL0     C47445   7.913   6.236   2.297 -0.3871 -0.3741 -0.9763
  352MOL0     C47446   8.013   6.350   2.264 -0.7904  0.1504 -0.2977
  352MOL0     C47447   8.044   6.463   2.365 -0.4924 -0.7297 -0.7871
  352MOL0     C47448   7.922   6.527   2.413  0.2990 -0.1721 -0.2859
  352MOL0     C47449   7.815   6.576   2.440 -0.4957 -0.3435 -0.3489
  352MOL0     C47450   7.632   6.077   2.033  0.3030  0.5166 -0.4382
  352MOL0     C47451   7.526   6.037   1.954 -0.0859  0.2040  0.7150
  352MOL0     C47452   7.394   5.979   2.009 -1.0137  0.8109  0.2874
  352MOL0     H47453   7.386   5.883   1.482  0.4371  0.5118 -0.4374
  352MOL0     H47454   7.201   5.790   1.327 -0.3451 -0.1026 -0.2324
  352MOL0     H47455   6.913   5.900   1.378  1.3154  0.0081  0.8928
  352MOL0     H47456   6.840   5.771   1.272 -4.6855 -0.0407  1.6198
  352MOL0     H47457   6.754   5.772   1.550  2.9606  0.6780 -0.2254
  352MOL0     H47458   6.707   5.667   1.420  2.1481  0.2592 -1.6218
  352MOL0     H47459   6.576   5.855   1.300 -1.5868  0.5973  0.4739
  352MOL0     H47460   6.689   5.964   1.378  0.0083 -0.9247  0.5189
  352MOL0     H47461   6.481   5.791   1.531 -1.3368  2.1240  2.5758
  352MOL0     H47462   6.586   5.911   1.607  1.6531 -0.6699 -0.0491
  352MOL0     H47463   6.377   5.965   1.400 -1.8074  0.7533  1.2377
  352MOL0     H47464   6.351   5.979   1.560 -1.3011  3.2733 -0.9304
  352MOL0     H47465   6.579   6.144   1.571 -1.6238  0.8750  1.4173
  352MOL0     H47466   6.536   6.151   1.400 -2.0077  1.3145 -1.2252
  352MOL0     H47467   6.314   6.217   1.440 -1.2631 -0.4975  1.7064
  352MOL0     H47468   6.446   6.336   1.463 -0.0939 -0.7259 -1.9877
  352MOL0     H47469   6.301   6.163   1.677  0.1946  0.0774  2.1635
  352MOL0     H47470   6.415   6.304   1.719  2.5935 -0.3192 -2.8964
  352MOL0     H47471   6.051   6.224   1.644 -0.0297  0.9491  1.4886
  352MOL0     H47472   5.846   6.395   1.737 -0.3763  3.2657  1.3419
  352MOL0     H47473   5.860   6.564   1.699  0.4219  0.9533 -2.0287
  352MOL0     H47474   5.834   6.329   1.523  0.1555 -0.3530  0.2991
  352MOL0     H47475   5.718   6.463   1.538 -0.3145 -2.4756  0.5305
  352MOL0     H47476   5.999   6.489   1.425  0.1113  0.2519  3.8750
  352MOL0     H47477   5.890   6.621   1.445  0.5074 -1.5720  0.8113
  352MOL0     H47478   5.923   6.507   1.206 -1.2795  2.8244 -1.1171
  352MOL0     H47479   5.764   6.543   1.256 -0.1534  0.7802  0.8816
  352MOL0     H47480   5.911   6.307   1.023 -0.4122  0.5283  1.3922
  352MOL0     H47481   5.763   6.281   0.831 -0.8062  1.8089 -0.5650
  352MOL0     H47482   5.412   6.447   0.582  0.1823 -0.7458  1.0084
  352MOL0     H47483   5.274   6.434   0.384 -0.3726 -0.0752  0.9657
  352MOL0     H47484   5.258   6.361   0.159  1.4701 -3.6967 -1.6629
  352MOL0     H47485   5.169   6.248   0.074 -1.2695 -2.3147  0.4820
  352MOL0     H47486   4.959   6.317   0.176  2.0760 -4.7253  1.6736
  352MOL0     H47487   5.027   6.357   0.325  1.0192  0.3761  1.4957
  352MOL0     H47488   4.951   6.557   0.202 -0.8298  2.0097 -1.9103
  352MOL0     H47489   5.135   6.562   0.212 -0.5947 -2.6069  1.1992
  352MOL0     H47490   4.959   6.482  -0.018 -1.3270  0.9164  2.6956
  352MOL0     H47491   5.142   6.452  -0.015  0.0941 -1.7645  2.5997
  352MOL0     H47492   5.084   6.640  -0.151 -1.1709 -3.5324  0.0815
  352MOL0     H47493   5.196   6.683  -0.029  1.1342 -3.3658 -2.2288
  352MOL0     H47494   4.895   6.763  -0.042 -0.4142  1.3264  1.7544
  352MOL0     H47495   4.999   6.781   0.107 -1.3335 -1.2557  0.5114
  352MOL0     H47496   5.067   6.900  -0.161  1.4750  1.7618  0.3080
  352MOL0     H47497   5.170   6.921  -0.022  0.2507 -0.6038 -1.4884
  352MOL0     H47498   4.997   7.113  -0.047  2.8149 -2.0329 -1.4662
  352MOL0     H47499   4.880   6.973  -0.015  2.1235 -3.0402 -3.0887
  352MOL0     H47500   5.288   6.000   0.427  1.2703 -1.9329  1.0328
  352MOL0     H47501   5.414   6.032   0.628 -0.8271  0.5389  0.2015
  352MOL0     H47502   5.434   6.206   1.100  0.4485 -0.9626  1.7437
  352MOL0     H47503   5.578   6.253   1.290 -2.4031 -0.8676 -0.1708
  352MOL0     H47504   6.976   5.690   1.687 -2.1013  0.6124 -1.8798
  352MOL0     H47505   7.131   5.814   1.820 -2.5190  1.1189 -0.6842
  352MOL0     H47506   7.641   6.172   1.664  2.0549  0.1229 -0.4560
  352MOL0     H47507   7.819   6.243   1.810  0.4987  0.2259  0.2435
  352MOL0     H47508   7.983   6.111   2.144 -0.1397  0.5172 -0.1426
  352MOL0     H47509   7.817   6.068   2.208  0.5571  0.8360  3.1599
  352MOL0     H47510   7.947   6.179   2.384  0.7666  0.2915 -0.9633
  352MOL0     H47511   7.822   6.282   2.335  0.1394  0.6009 -0.8601
  352MOL0     H47512   7.984   6.385   2.165  3.2329 -0.2713 -1.8326
  352MOL0     H47513   8.107   6.303   2.234 -0.5263  0.3092  0.2719
  352MOL0     H47514   8.100   6.426   2.451 -1.3057 -1.0954 -0.4015
  352MOL0     H47515   8.102   6.531   2.301 -1.8767  2.2378  0.8834
  352MOL0     H47516   7.718   6.620   2.450 -0.4857  0.2676 -2.4248
  352MOL0     H47517   7.620   6.047   2.137  0.9257  0.0759 -0.4871
  352MOL0     H47518   7.301   6.026   1.974 -1.1642  1.4785  1.5111
  352MOL0     H47519   7.387   5.873   1.986  2.3761  0.3445  1.0162
  352MOL0     H47520   7.393   5.993   2.117  0.7697  1.1547  0.2776
  353MOL0     O47521  10.051   2.873   7.780  0.0058 -0.3448  0.2133
  353MOL0     C47522  10.008   2.963   7.710  0.7278 -0.2306 -0.0104
  353MOL0     O47523   9.877   2.964   7.660 -0.7425  0.1636 -1.0918
  353MOL0     C47524   9.786   2.890   7.726 -0.7870  0.1918 -0.4269
  353MOL0     C47525   9.673   2.951   7.775  0.1786  0.0769  0.3193
  353MOL0     C47526   9.578   2.882   7.857 -0.4551 -0.0757 -0.2217
  353MOL0     C47527   9.584   2.740   7.864 -0.1109 -0.7953 -0.6838
  353MOL0     O47528   9.495   2.668   7.938 -0.2658 -0.1063 -0.9176
  353MOL0     C47529   9.442   2.552   7.871  0.5427 -0.0513  0.1382
  353MOL0     C47530   9.293   2.550   7.900  0.1177  0.4543  0.2771
  353MOL0     C47531   9.224   2.423   7.855 -0.1173  0.2754  0.5178
  353MOL0     C47532   9.069   2.426   7.868  0.8137 -0.4827 -0.1599
  353MOL0     C47533   8.986   2.290   7.810  0.0047 -0.4144 -0.3906
  353MOL0     C47534   9.047   2.157   7.847  0.5011  0.2040 -0.7226
  353MOL0     C47535   8.968   2.039   7.782 -0.4784 -0.6369  0.5303
  353MOL0     C47536   8.847   2.000   7.867 -0.3967 -0.8050 -0.2231
  353MOL0     N47537   8.728   2.059   7.807 -0.1094 -0.6631 -0.4420
  353MOL0     C47538   8.660   2.004   7.707  0.3845  0.4762 -0.0695
  353MOL0     C47539   8.559   2.093   7.668  0.3798 -0.8500  0.7054
  353MOL0     C47540   8.465   2.077   7.547  0.4571 -0.5789 -0.0386
  353MOL0     C47541   8.336   2.002   7.580  0.4836  1.1751 -1.0302
  353MOL0     C47542   8.258   1.990   7.450  0.1022  0.8657 -0.0989
  353MOL0     C47543   8.165   1.868   7.444  0.1990 -0.2071 -0.9916
  353MOL0     O47544   8.235   1.742   7.452 -0.1318 -0.4836 -0.1498
  353MOL0     C47545   8.150   1.633   7.410  0.5796  0.6395 -0.0970
  353MOL0     C47546   8.202   1.503   7.425  0.1487 -0.0044 -0.1215
  353MOL0     C47547   8.129   1.388   7.383  0.6102  0.2351  0.0532
  353MOL0     C47548   7.999   1.400   7.334 -0.4275  0.0641 -0.8260
  353MOL0     C47549   7.917   1.274   7.315  0.4574 -0.6231  0.1881
  353MOL0     O47550   7.986   1.154   7.338 -0.0351 -0.3029  0.4778
  353MOL0     C47551   7.911   1.040   7.331 -0.1163 -0.3506 -0.3144
  353MOL0     C47552   7.894   0.967   7.451  0.9655  0.1041 -0.1596
  353MOL0     C47553   7.837   0.836   7.454 -0.9724 -0.3474  0.6524
  353MOL0     C47554   7.788   0.780   7.341  0.2105  0.2990  0.4738
  353MOL0     O47555   7.736   0.648   7.352 -0.1326  0.4974 -0.4375
  353MOL0     C47556   7.642   0.603   7.248  0.1332 -0.4066 -0.3903
  353MOL0     C47557   7.619   0.450   7.254 -0.3943  0.3770 -0.9253
  353MOL0     C47558   7.746   0.373   7.216  0.6297 -0.3340  0.2599
  353MOL0     C47559   7.751   0.235   7.291 -0.4007 -0.8764  0.4431
  353MOL0     C47560   7.637   0.134   7.278  0.2041 -0.2643  0.6090
  353MOL0     C47561   7.622   0.067   7.146 -0.4017 -0.4275 -0.3512
  353MOL0     C47562   7.485  -0.006   7.142  0.4409  0.1754  0.1240
  353MOL0     C47563   7.480  -0.136   7.232  0.7115  0.8094 -0.3544
  353MOL0    Cl47564   7.355  -0.250   7.168  1.0186 -0.3206 -0.3012
  353MOL0     C47565   7.796   0.850   7.220 -0.3115  0.5524  0.0558
  353MOL0     C47566   7.858   0.976   7.213  0.2215  1.1606  0.3359
  353MOL0     O47567   7.794   1.293   7.314 -0.2039 -0.5512 -0.1316
  353MOL0     C47568   7.948   1.528   7.316  0.5569 -1.1942  0.1959
  353MOL0     C47569   8.019   1.649   7.350 -0.4867  0.2472  1.0973
  353MOL0     N47570   8.583   2.209   7.739 -0.7375  0.7212 -1.5613
  353MOL0     N47571   8.670   2.182   7.829  0.6169  0.6746 -0.4448
  353MOL0     C47572   9.689   2.676   7.795  0.0786  0.9400 -0.0741
  353MOL0     C47573   9.784   2.757   7.745 -1.2706  0.6339 -0.0006
  353MOL0     C47574  10.092   3.056   7.648 -0.8762  0.5095 -0.0493
  353MOL0     C47575  10.066   3.098   7.515  0.1956  0.6002 -0.8046
  353MOL0     C47576  10.153   3.191   7.454 -0.5186  0.1395  0.3980
  353MOL0     C47577  10.260   3.247   7.527  0.0043 -1.2978  0.2986
  353MOL0     O47578  10.342   3.358   7.483 -0.0220 -0.1333 -0.0354
  353MOL0     C47579  10.335   3.420   7.351  0.0926  0.0833  0.2686
  353MOL0     C47580  10.383   3.329   7.235 -0.1566 -0.1924 -0.5314
  353MOL0     C47581  10.509   3.245   7.262  0.0477 -0.7934  0.3251
  353MOL0     C47582  10.523   3.124   7.167  0.1847 -0.2555  0.5552
  353MOL0     C47583  10.538   3.177   7.031 -0.1971 -0.2296 -0.2738
  353MOL0     C47584  10.544   3.209   6.911 -0.1941 -0.2142  0.0067
  353MOL0     C47585  10.284   3.207   7.662 -0.9560  0.8490 -0.5660
  353MOL0     C47586  10.203   3.112   7.728  0.0447 -0.3875  0.9411
  353MOL0     C47587  10.225   3.083   7.878 -0.1763 -0.6772 -0.7022
  353MOL0     H47588   9.663   3.055   7.747 -2.2919 -0.6653 -1.9691
  353MOL0     H47589   9.493   2.918   7.914  0.0752 -2.4409  2.2914
  353MOL0     H47590   9.460   2.548   7.763 -1.5470 -2.4772 -0.2125
  353MOL0     H47591   9.498   2.474   7.925  1.3388  1.6021  1.8245
  353MOL0     H47592   9.253   2.644   7.860 -2.5252  0.2887  2.2308
  353MOL0     H47593   9.276   2.554   8.008  1.6380 -0.6427  0.5827
  353MOL0     H47594   9.255   2.347   7.927 -0.7365  0.4689  0.9955
  353MOL0     H47595   9.247   2.390   7.753  0.7327  1.0796  0.4365
  353MOL0     H47596   9.043   2.444   7.973 -0.2563  0.4763 -0.5675
  353MOL0     H47597   9.032   2.510   7.808 -0.5487 -1.7423 -1.1417
  353MOL0     H47598   8.882   2.304   7.842 -0.0301 -0.7034 -0.3759
  353MOL0     H47599   8.986   2.305   7.702 -1.2885 -2.5315 -0.7374
  353MOL0     H47600   9.155   2.160   7.826  0.4269 -0.8311 -1.2990
  353MOL0     H47601   9.042   2.143   7.956  1.2624  5.3939  0.2398
  353MOL0     H47602   9.033   1.951   7.788  0.9089  0.0499 -2.5073
  353MOL0     H47603   8.947   2.067   7.679 -3.4915 -1.8472  0.7152
  353MOL0     H47604   8.838   1.891   7.861 -0.9213 -0.9876  2.6662
  353MOL0     H47605   8.861   2.036   7.969  2.3888  2.2979 -1.5410
  353MOL0     H47606   8.680   1.906   7.666  1.5031 -0.4616  2.5597
  353MOL0     H47607   8.442   2.181   7.520  1.5788 -0.3412 -0.1358
  353MOL0     H47608   8.512   2.026   7.462  0.6385  1.6288 -1.3436
  353MOL0     H47609   8.359   1.902   7.619 -3.1309  0.2774 -0.7644
  353MOL0     H47610   8.270   2.051   7.651 -2.1234 -1.7393 -1.2082
  353MOL0     H47611   8.325   1.960   7.369 -1.6642 -2.2237 -0.5761
  353MOL0     H47612   8.203   2.083   7.430 -2.1685 -0.8201 -2.3481
  353MOL0     H47613   8.117   1.888   7.348 -2.9291  2.4218  0.9168
  353MOL0     H47614   8.087   1.859   7.519 -0.1387 -0.9473 -1.4240
  353MOL0     H47615   8.296   1.473   7.469 -0.0522 -0.8407 -0.2541
  353MOL0     H47616   8.177   1.291   7.379 -1.1775 -0.8024 -6.0203
  353MOL0     H47617   7.941   1.016   7.536  0.3389  5.0857 -2.2961
  353MOL0     H47618   7.830   0.776   7.545  3.2379  1.2554  2.3144
  353MOL0     H47619   7.544   0.643   7.278  0.7802  0.0890  1.1247
  353MOL0     H47620   7.667   0.620   7.143 -2.0593  0.3986 -0.8472
  353MOL0     H47621   7.596   0.427   7.358  5.5004 -0.3154  0.5966
  353MOL0     H47622   7.536   0.415   7.193 -1.3500  1.2496 -0.1622
  353MOL0     H47623   7.733   0.371   7.108  3.6979  2.2304 -0.2948
  353MOL0     H47624   7.839   0.430   7.223  0.4354 -0.1756  2.4322
  353MOL0     H47625   7.764   0.258   7.397 -5.0444  0.7217  0.9038
  353MOL0     H47626   7.838   0.190   7.242 -0.5318 -1.6295  0.8985
  353MOL0     H47627   7.541   0.186   7.286 -1.2288 -2.1878 -2.4109
  353MOL0     H47628   7.654   0.062   7.358  1.4710 -1.4235 -0.6572
  353MOL0     H47629   7.627   0.149   7.074  2.9689  0.5666  0.8177
  353MOL0     H47630   7.705  -0.002   7.131  0.2020  0.2516 -0.2173
  353MOL0     H47631   7.482  -0.036   7.036 -1.2927  0.6685  0.0074
  353MOL0     H47632   7.394   0.052   7.163 -1.0894 -2.0592 -0.0098
  353MOL0     H47633   7.580  -0.172   7.257 -0.8821 -1.5201  3.4113
  353MOL0     H47634   7.440  -0.120   7.333  0.6568  2.7611 -0.6364
  353MOL0     H47635   7.751   0.809   7.130  0.4152  1.5471 -0.7859
  353MOL0     H47636   7.855   1.028   7.117 -1.1272 -1.0676 -0.9221
  353MOL0     H47637   7.845   1.525   7.280  0.8489  0.2717 -0.8350
  353MOL0     H47638   7.965   1.743   7.341 -0.1588  0.2545 -1.6733
  353MOL0     H47639   9.703   2.568   7.796 -1.6805  0.5990 -2.1493
  353MOL0     H47640   9.871   2.708   7.702 -2.2494  0.6923 -2.1846
  353MOL0     H47641   9.976   3.063   7.466 -1.5248  0.3800  2.2777
  353MOL0     H47642  10.123   3.224   7.354 -2.6708  2.4029  1.6548
  353MOL0     H47643  10.401   3.507   7.345 -0.3519  0.3639 -0.6541
  353MOL0     H47644  10.233   3.461   7.349  0.2906  0.6518  1.1021
  353MOL0     H47645  10.399   3.390   7.145  3.8877 -2.3282 -1.4979
  353MOL0     H47646  10.297   3.263   7.218  0.9441 -2.4740  2.1266
  353MOL0     H47647  10.500   3.196   7.360 -0.1358 -1.8099 -0.1920
  353MOL0     H47648  10.598   3.306   7.281 -1.4530  0.7724  3.1546
  353MOL0     H47649  10.613   3.065   7.189  0.6926  0.2958  0.0133
  353MOL0     H47650  10.435   3.060   7.165  2.4791 -3.6460 -0.7315
  353MOL0     H47651  10.553   3.254   6.815 -0.0216 -0.2097  0.0257
  353MOL0     H47652  10.361   3.267   7.711 -0.5138 -0.2569  0.1252
  353MOL0     H47653  10.292   2.998   7.898 -0.9844 -0.8229  1.6287
  353MOL0     H47654  10.265   3.166   7.937  1.5223 -2.0147  0.1422
  353MOL0     H47655  10.125   3.057   7.912 -2.8509  4.9280 -2.9871
  354MOL0     O47656   6.514   2.370   3.149  0.2985 -0.2756 -0.3707
  354MOL0     C47657   6.587   2.299   3.078  0.1847 -0.1963  0.2990
  354MOL0     O47658   6.601   2.159   3.105 -0.6509 -0.3613  0.2033
  354MOL0     C47659   6.510   2.087   3.176 -0.0902  0.7648 -1.1389
  354MOL0     C47660   6.556   1.999   3.268  0.0629 -0.0946  0.3816
  354MOL0     C47661   6.472   1.922   3.345  0.4297  0.0883 -0.3370
  354MOL0     C47662   6.333   1.937   3.347 -0.5299 -0.9413  0.3967
  354MOL0     O47663   6.262   1.859   3.435 -0.1514 -0.2175 -0.1510
  354MOL0     C47664   6.132   1.891   3.462  0.0279 -0.4443 -1.1718
  354MOL0     C47665   6.097   1.831   3.605 -0.5743 -0.7998  0.5450
  354MOL0     C47666   5.955   1.861   3.648 -0.7883 -0.8705 -0.0454
  354MOL0     C47667   5.914   1.786   3.776 -0.3900 -0.5409 -0.4432
  354MOL0     C47668   5.992   1.814   3.904  0.2603 -0.2333  1.1561
  354MOL0     C47669   5.987   1.952   3.956  0.3746  0.3885 -0.1806
  354MOL0     C47670   5.845   1.989   3.996 -0.0772  0.7138  0.0717
  354MOL0     C47671   5.825   1.977   4.145  0.8651  0.2470 -0.8937
  354MOL0     N47672   5.705   2.048   4.200  0.3382  0.3023 -0.1530
  354MOL0     C47673   5.691   2.183   4.210  0.3518  0.5682 -0.0397
  354MOL0     C47674   5.595   2.208   4.292  0.7311  0.8665 -1.1743
  354MOL0     C47675   5.540   2.344   4.314 -0.4076 -0.2674  1.0141
  354MOL0     C47676   5.514   2.366   4.461 -0.2891 -0.1072  0.0153
  354MOL0     C47677   5.633   2.378   4.550 -0.4913 -0.2977  0.3400
  354MOL0     C47678   5.708   2.514   4.527 -0.1744  0.8939 -1.0638
  354MOL0     O47679   5.626   2.628   4.543 -0.0542 -0.5718 -0.4626
  354MOL0     C47680   5.668   2.741   4.475  0.2146 -1.0999 -0.6871
  354MOL0     C47681   5.802   2.794   4.486  0.4809 -0.5746  0.4288
  354MOL0     C47682   5.841   2.912   4.429  0.0917  0.5489 -0.0257
  354MOL0     C47683   5.747   2.984   4.351  0.2354  0.5692  0.3062
  354MOL0     C47684   5.779   3.110   4.295 -1.3160  0.5028  0.4449
  354MOL0     O47685   5.904   3.162   4.333  0.4706 -0.4708  0.2596
  354MOL0     C47686   5.917   3.291   4.272 -0.2060 -0.8126  0.2735
  354MOL0     C47687   5.960   3.293   4.134 -0.4093 -0.1551  0.2355
  354MOL0     C47688   5.969   3.414   4.062  0.7736  0.8249 -0.2116
  354MOL0     C47689   5.952   3.532   4.134 -0.0443 -0.2201 -0.0388
  354MOL0     O47690   5.983   3.653   4.084 -0.2286 -0.3336 -0.4584
  354MOL0     C47691   6.025   3.660   3.946 -0.2075 -0.1067 -0.2985
  354MOL0     C47692   6.070   3.804   3.908 -0.5697 -0.1040  0.1525
  354MOL0     C47693   6.197   3.854   3.989  0.1130  0.6882 -0.9813
  354MOL0     C47694   6.276   3.948   3.903 -0.2946 -0.5319  0.3188
  354MOL0     C47695   6.419   3.964   3.970 -0.5206 -0.3001 -0.6561
  354MOL0     C47696   6.414   4.017   4.117  0.4073 -0.3896  0.3443
  354MOL0     C47697   6.331   4.145   4.157  0.4773  0.1341 -0.3926
  354MOL0     C47698   6.378   4.267   4.076  0.0279  0.3147  0.0820
  354MOL0    Cl47699   6.289   4.400   4.141 -0.0040 -0.8717  0.1948
  354MOL0     C47700   5.920   3.529   4.271 -0.4033  0.6830 -0.1485
  354MOL0     C47701   5.903   3.415   4.340  0.2334 -0.8801  0.3766
  354MOL0     O47702   5.700   3.160   4.211 -0.1235  0.2532 -0.1390
  354MOL0     C47703   5.614   2.930   4.338 -0.2954 -0.7330  0.2060
  354MOL0     C47704   5.582   2.809   4.394 -0.5546 -0.0205  0.5882
  354MOL0     N47705   5.528   2.091   4.323 -0.5763  1.1866  0.1452
  354MOL0     N47706   5.606   1.992   4.270 -0.7992 -0.6292 -0.1846
  354MOL0     C47707   6.281   2.039   3.262  0.1041 -0.3009  0.0913
  354MOL0     C47708   6.373   2.096   3.168  0.5828  0.4402  0.3131
  354MOL0     C47709   6.679   2.353   2.980 -0.4779  0.1385  0.5542
  354MOL0     C47710   6.746   2.258   2.903 -0.2339 -0.3484 -0.0996
  354MOL0     C47711   6.848   2.293   2.805 -0.7420  0.1025 -0.1179
  354MOL0     C47712   6.894   2.424   2.801 -0.1077  0.0512 -0.0139
  354MOL0     O47713   7.006   2.481   2.736 -0.4001 -0.4200 -0.8101
  354MOL0     C47714   7.090   2.397   2.655  0.1603 -0.5134  0.3029
  354MOL0     C47715   7.028   2.379   2.517 -1.1903 -0.3318  0.4030
  354MOL0     C47716   7.034   2.504   2.424  0.9062 -0.9884  0.1781
  354MOL0     C47717   6.949   2.477   2.299  0.2279  0.5923 -0.1098
  354MOL0     C47718   7.022   2.380   2.213  0.1395 -0.1833  0.1606
  354MOL0     C47719   7.088   2.317   2.130  0.3670  0.9928 -0.1379
  354MOL0     C47720   6.821   2.518   2.876  0.4562  0.4278  0.1298
  354MOL0     C47721   6.718   2.488   2.967 -0.6723  0.2757  0.2048
  354MOL0     C47722   6.635   2.599   3.023  0.0859 -1.1935 -0.6894
  354MOL0     H47723   6.663   1.988   3.284  0.4395 -0.2783 -1.9422
  354MOL0     H47724   6.508   1.840   3.407 -0.2851  0.3519  0.4575
  354MOL0     H47725   6.115   1.999   3.456 -2.3572 -0.6764  0.1326
  354MOL0     H47726   6.067   1.846   3.386  0.1960 -0.5217 -1.2686
  354MOL0     H47727   6.170   1.868   3.678 -0.4734 -1.3691  0.7361
  354MOL0     H47728   6.104   1.722   3.599 -1.4962 -0.7875 -3.0543
  354MOL0     H47729   5.883   1.829   3.573 -1.2833 -0.5120  0.2655
  354MOL0     H47730   5.945   1.969   3.667 -1.9779 -1.2692  1.9504
  354MOL0     H47731   5.807   1.789   3.797 -0.3879 -0.4434 -0.4476
  354MOL0     H47732   5.935   1.681   3.750  1.7107 -0.3595  0.3232
  354MOL0     H47733   5.962   1.743   3.982 -1.4738 -1.4863 -0.5292
  354MOL0     H47734   6.093   1.779   3.881  0.3158  0.3922  0.3841
  354MOL0     H47735   6.055   1.940   4.041 -1.0210  0.0518  0.9306
  354MOL0     H47736   6.025   2.027   3.886  3.2831  0.5500  1.3769
  354MOL0     H47737   5.767   1.931   3.945 -2.5588  0.9353  3.3357
  354MOL0     H47738   5.821   2.091   3.967 -3.3330  0.6760  2.0906
  354MOL0     H47739   5.822   1.874   4.180 -0.2146 -0.9351 -4.0625
  354MOL0     H47740   5.912   2.023   4.193  1.7437 -0.7094 -1.5164
  354MOL0     H47741   5.769   2.252   4.180  3.3579 -0.6412  4.0199
  354MOL0     H47742   5.595   2.429   4.274  0.9078 -0.4950  2.2231
  354MOL0     H47743   5.441   2.341   4.267 -0.6141 -0.0187  1.4223
  354MOL0     H47744   5.455   2.457   4.469 -0.8841 -0.4403 -0.5240
  354MOL0     H47745   5.463   2.279   4.503  0.4905  0.7153  2.9025
  354MOL0     H47746   5.706   2.300   4.529 -1.2766 -0.4084 -2.2862
  354MOL0     H47747   5.591   2.380   4.651 -3.6645  0.2685 -0.8868
  354MOL0     H47748   5.740   2.509   4.423  0.6880 -2.1439 -0.7715
  354MOL0     H47749   5.792   2.525   4.595 -0.2236  1.2690 -1.0617
  354MOL0     H47750   5.876   2.749   4.550  0.6938  0.7917  1.1883
  354MOL0     H47751   5.942   2.945   4.454  0.6290 -1.6030  0.8155
  354MOL0     H47752   5.977   3.197   4.086  0.0602 -1.4161  2.7522
  354MOL0     H47753   5.998   3.410   3.957 -0.7463  2.8434 -0.7677
  354MOL0     H47754   6.098   3.579   3.933 -3.4360 -3.2704 -0.3971
  354MOL0     H47755   5.942   3.652   3.874  0.4656 -2.3435 -0.9019
  354MOL0     H47756   6.084   3.819   3.801  0.9169 -0.6340  0.2516
  354MOL0     H47757   5.996   3.883   3.924  2.8312  4.1147 -2.8685
  354MOL0     H47758   6.167   3.906   4.080  4.7617  2.2084 -0.0684
  354MOL0     H47759   6.256   3.769   4.023  2.6602  1.7852 -2.3360
  354MOL0     H47760   6.234   4.048   3.885  2.1029  0.5287  0.1804
  354MOL0     H47761   6.292   3.903   3.805 -1.5979 -0.2830 -0.0239
  354MOL0     H47762   6.480   4.036   3.914 -0.2824 -0.0888 -0.1377
  354MOL0     H47763   6.473   3.870   3.980 -1.5425 -0.7568  0.9158
  354MOL0     H47764   6.369   3.941   4.181  0.0545  0.8705  1.6630
  354MOL0     H47765   6.511   4.044   4.160 -0.0098 -0.4339  1.3441
  354MOL0     H47766   6.332   4.148   4.266  0.9247 -2.7481 -0.2315
  354MOL0     H47767   6.225   4.130   4.135  0.7574 -0.1324 -1.6481
  354MOL0     H47768   6.486   4.277   4.088  0.7157 -2.2025 -2.6662
  354MOL0     H47769   6.351   4.263   3.970 -0.2368 -1.7864  0.1787
  354MOL0     H47770   5.916   3.623   4.326  0.4794  0.9088 -0.4451
  354MOL0     H47771   5.902   3.423   4.448  1.4166 -0.4145  0.3697
  354MOL0     H47772   5.544   2.984   4.275  0.0943 -0.3799  0.0692
  354MOL0     H47773   5.482   2.770   4.379 -0.1877 -0.2954 -1.2624
  354MOL0     H47774   6.176   2.068   3.253  0.0988  0.2171  1.5329
  354MOL0     H47775   6.326   2.153   3.090  3.5579  1.8003 -0.6238
  354MOL0     H47776   6.727   2.151   2.897  0.0771 -0.4934  1.3104
  354MOL0     H47777   6.895   2.220   2.740 -3.0204 -0.1422 -1.5905
  354MOL0     H47778   7.119   2.301   2.700 -1.0500 -2.6457 -3.0843
  354MOL0     H47779   7.183   2.455   2.645 -0.7791  0.6801 -2.4994
  354MOL0     H47780   6.924   2.344   2.530 -0.3723 -4.2831 -1.8061
  354MOL0     H47781   7.080   2.299   2.463  0.8288 -0.2757  2.1658
  354MOL0     H47782   7.139   2.521   2.398  1.2489  0.7549  2.3944
  354MOL0     H47783   6.987   2.589   2.475 -0.5955 -1.1289 -0.9273
  354MOL0     H47784   6.851   2.435   2.323  0.6501 -2.3433 -2.7606
  354MOL0     H47785   6.939   2.565   2.235  2.3043 -0.2597 -1.7428
  354MOL0     H47786   7.139   2.260   2.054 -3.0983  0.9199 -2.6273
  354MOL0     H47787   6.841   2.624   2.869 -1.3820  0.9611  2.0132
  354MOL0     H47788   6.652   2.606   3.131 -0.3825  0.5570 -0.7102
  354MOL0     H47789   6.657   2.691   2.968 -2.4670 -2.0018 -3.3049
  354MOL0     H47790   6.528   2.584   3.008 -0.6679  0.7520  2.0089
  355MOL0     O47791   7.750   7.500   9.144 -0.6700  0.2491  0.0362
  355MOL0     C47792   7.853   7.509   9.208 -0.2959 -0.4947 -0.7940
  355MOL0     O47793   7.876   7.616   9.300  0.0278 -0.4381 -0.6341
  355MOL0     C47794   7.774   7.674   9.375 -1.0133  0.8927  0.5016
  355MOL0     C47795   7.639   7.674   9.354 -0.4881 -0.1522 -0.7357
  355MOL0     C47796   7.562   7.748   9.444  0.2308  0.6423 -0.2827
  355MOL0     C47797   7.619   7.828   9.546  0.4169 -0.1162  0.2856
  355MOL0     O47798   7.551   7.920   9.627  0.0298  0.6374  0.1364
  355MOL0     C47799   7.431   7.863   9.693 -0.2455 -0.5787  0.1378
  355MOL0     C47800   7.345   7.990   9.727 -1.1249  0.2470  0.9743
  355MOL0     C47801   7.392   8.026   9.872  0.3746  0.0768 -0.4408
  355MOL0     C47802   7.347   8.167   9.904 -0.8185 -0.0120  0.0566
  355MOL0     C47803   7.407   8.214  10.044 -0.1616  0.7558  0.4385
  355MOL0     C47804   7.547   8.268  10.048  0.5155 -0.2263  0.3965
  355MOL0     C47805   7.611   8.275  10.185 -0.0307  0.6291  0.0826
  355MOL0     C47806   7.756   8.336  10.176 -0.2825  1.0150 -0.5384
  355MOL0     N47807   7.802   8.367  10.309  0.8629 -0.1481 -0.0158
  355MOL0     C47808   7.764   8.480  10.368 -0.4860 -0.2905 -0.7565
  355MOL0     C47809   7.855   8.522  10.458 -0.1178  0.3148  0.9366
  355MOL0     C47810   7.870   8.639  10.548  0.1943  0.1903 -0.7224
  355MOL0     C47811   8.017   8.672  10.584 -0.0351  0.4174 -0.2022
  355MOL0     C47812   8.047   8.773  10.693 -0.5063 -1.1665  0.3009
  355MOL0     C47813   8.035   8.923  10.643 -0.6600  0.0528  0.3721
  355MOL0     O47814   7.901   8.958  10.631  1.0422 -1.7154 -0.5049
  355MOL0     C47815   7.875   9.085  10.603 -0.0312 -0.4051 -0.6057
  355MOL0     C47816   7.748   9.148  10.638 -0.4749 -0.0491  1.3617
  355MOL0     C47817   7.715   9.276  10.592 -0.1450  0.1585  0.2290
  355MOL0     C47818   7.802   9.352  10.513  0.0600 -0.7699  0.1300
  355MOL0     C47819   7.770   9.487  10.461 -0.4019  0.0843  0.2705
  355MOL0     O47820   7.637   9.520  10.457 -0.2946 -0.1154 -0.4116
  355MOL0     C47821   7.601   9.650  10.449 -0.6544 -0.1660 -0.3734
  355MOL0     C47822   7.669   9.766  10.504 -0.0838  0.3222  0.2230
  355MOL0     C47823   7.613   9.895  10.497 -0.3372  0.1106  0.1203
  355MOL0     C47824   7.488   9.916  10.446  0.1493  0.3487  0.0339
  355MOL0     O47825   7.439  10.041  10.424  0.7243 -0.8438 -0.5942
  355MOL0     C47826   7.510  10.128  10.333  0.0027 -1.6447 -0.7049
  355MOL0     C47827   7.429  10.258  10.295  0.1148  0.7691  0.2958
  355MOL0     C47828   7.406  10.335  10.422 -0.5924  1.0417 -0.5026
  355MOL0     C47829   7.327  10.460  10.417 -0.1727  0.1953  0.3811
  355MOL0     C47830   7.282  10.507  10.554 -0.3050  0.0676  0.9353
  355MOL0     C47831   7.157  10.593  10.559 -0.5799  1.0283 -0.3850
  355MOL0     C47832   7.037  10.511  10.527 -0.4737 -1.4575  0.0617
  355MOL0     C47833   6.921  10.537  10.628 -0.3428  0.9176  0.2298
  355MOL0    Cl47834   6.927  10.436  10.771 -0.4541  0.1642 -0.0167
  355MOL0     C47835   7.413   9.805  10.391 -0.8962 -0.3668 -0.2203
  355MOL0     C47836   7.470   9.680  10.403  0.4813 -0.1666  0.7299
  355MOL0     O47837   7.864   9.550  10.413  0.1728 -0.0259 -0.0613
  355MOL0     C47838   7.926   9.290  10.489  0.1145 -0.7615  0.6879
  355MOL0     C47839   7.959   9.164  10.532 -0.1116  0.3428 -0.8794
  355MOL0     N47840   7.952   8.424  10.442  0.8501 -0.1127 -1.1942
  355MOL0     N47841   7.920   8.337  10.364 -0.6775  0.5488  0.8993
  355MOL0     C47842   7.756   7.830   9.560 -0.4031  0.4000  0.7252
  355MOL0     C47843   7.835   7.753   9.465  0.6818 -0.8051 -0.6218
  355MOL0     C47844   7.976   7.428   9.170  0.4777  0.1849 -0.3042
  355MOL0     C47845   8.093   7.441   9.246 -0.4293 -0.1812 -0.3431
  355MOL0     C47846   8.201   7.359   9.231 -0.5314 -0.2249  0.6342
  355MOL0     C47847   8.203   7.263   9.131  0.3462 -0.6034 -0.4446
  355MOL0     O47848   8.320   7.199   9.127  0.3465  0.6598  0.5808
  355MOL0     C47849   8.361   7.136   9.003 -0.8928  0.5497 -0.9362
  355MOL0     C47850   8.482   7.051   9.030  0.5865 -0.3435 -0.7188
  355MOL0     C47851   8.608   7.136   9.043  1.0629  0.1830  0.0161
  355MOL0     C47852   8.620   7.212   9.171 -0.0127  0.0410  0.7224
  355MOL0     C47853   8.754   7.274   9.184  0.6683  0.2141  0.1484
  355MOL0     C47854   8.852   7.339   9.183 -0.6457  0.7181 -0.0820
  355MOL0     C47855   8.085   7.253   9.042 -0.0893 -0.0366  1.0418
  355MOL0     C47856   7.979   7.340   9.057 -0.5295  0.6372 -0.1689
  355MOL0     C47857   7.873   7.309   8.948 -0.2221 -0.3826  0.1424
  355MOL0     H47858   7.595   7.622   9.269  2.1583 -2.4304 -0.8776
  355MOL0     H47859   7.456   7.749   9.419 -0.1953 -0.3390  1.3415
  355MOL0     H47860   7.374   7.802   9.622  0.1890 -1.8094  0.8274
  355MOL0     H47861   7.463   7.805   9.780 -0.5626  0.5121  1.0074
  355MOL0     H47862   7.242   7.952   9.723  0.0804 -3.6333  2.0377
  355MOL0     H47863   7.366   8.076   9.663 -2.3342 -0.6840 -0.7672
  355MOL0     H47864   7.498   8.009   9.890  0.4360 -0.5225 -1.2958
  355MOL0     H47865   7.344   7.958   9.944  0.3831 -0.6697 -1.1230
  355MOL0     H47866   7.384   8.232   9.824 -0.0995  0.1677  0.5279
  355MOL0     H47867   7.239   8.170   9.918 -0.5171  0.4819  3.0501
  355MOL0     H47868   7.337   8.288  10.083 -1.9765 -0.1563 -0.9267
  355MOL0     H47869   7.398   8.128  10.111 -3.3331  0.8910  0.3457
  355MOL0     H47870   7.611   8.196   9.996  2.4302 -0.1052  2.4214
  355MOL0     H47871   7.551   8.367  10.000 -0.4378 -0.5505 -0.3761
  355MOL0     H47872   7.624   8.175  10.229  4.3477 -0.1749 -2.3894
  355MOL0     H47873   7.545   8.335  10.248 -0.1381 -0.5394  1.1333
  355MOL0     H47874   7.822   8.257  10.136 -0.7015  0.3028  0.1486
  355MOL0     H47875   7.762   8.426  10.115  2.5551  2.0455  1.0661
  355MOL0     H47876   7.666   8.523  10.346 -0.1114  2.1782  1.8745
  355MOL0     H47877   7.820   8.726  10.504  2.3767  0.9239 -1.9089
  355MOL0     H47878   7.814   8.607  10.636 -0.7373  2.0936 -0.5828
  355MOL0     H47879   8.064   8.581  10.624  2.3920  1.4394 -0.5435
  355MOL0     H47880   8.076   8.697  10.496  1.3243  2.0327  1.0891
  355MOL0     H47881   8.149   8.762  10.730 -0.3989  0.8712  0.6713
  355MOL0     H47882   7.990   8.766  10.787 -1.3647  0.4105 -0.0642
  355MOL0     H47883   8.098   8.936  10.554  1.3192  2.5686  1.9856
  355MOL0     H47884   8.087   8.991  10.711  2.2148 -1.4936 -0.1104
  355MOL0     H47885   7.670   9.104  10.699  1.3254 -1.8531  2.5135
  355MOL0     H47886   7.616   9.314  10.612  0.1630  0.7271  0.7243
  355MOL0     H47887   7.773   9.762  10.538  0.3348 -0.8232 -1.1098
  355MOL0     H47888   7.666   9.981  10.537 -0.8229  0.9936 -1.0771
  355MOL0     H47889   7.597  10.166  10.388  0.8256 -1.1033 -2.3018
  355MOL0     H47890   7.542  10.081  10.240  0.8703  0.4297 -1.5248
  355MOL0     H47891   7.491  10.314  10.224  2.1473  1.5197  2.5480
  355MOL0     H47892   7.332  10.230  10.252 -1.2415  0.2476  3.4400
  355MOL0     H47893   7.342  10.269  10.482  0.8894  0.0584  0.0315
  355MOL0     H47894   7.497  10.347  10.480 -1.9069 -0.0033  1.9372
  355MOL0     H47895   7.232  10.444  10.366  0.3641  3.1758 -1.8471
  355MOL0     H47896   7.378  10.539  10.361 -1.0500 -0.2999 -1.1719
  355MOL0     H47897   7.360  10.571  10.595 -0.2120  1.3748 -1.1062
  355MOL0     H47898   7.267  10.423  10.622  2.3814 -0.3566  1.0869
  355MOL0     H47899   7.155  10.635  10.660  3.2714  2.2856 -0.6721
  355MOL0     H47900   7.162  10.687  10.503 -0.0403  2.7205  2.3263
  355MOL0     H47901   7.061  10.405  10.512  2.3196 -0.8083 -0.6025
  355MOL0     H47902   7.007  10.537  10.425  0.1641 -2.2022 -0.3239
  355MOL0     H47903   6.931  10.643  10.655 -1.3556  2.0526 -3.3474
  355MOL0     H47904   6.824  10.523  10.580 -0.0708 -1.0569  0.1574
  355MOL0     H47905   7.316   9.820  10.345 -0.9235 -2.2618 -0.9081
  355MOL0     H47906   7.408   9.601  10.361 -0.7717  0.0778  2.0295
  355MOL0     H47907   7.999   9.342  10.428  0.4316 -1.3834  0.5227
  355MOL0     H47908   8.061   9.132  10.510 -1.2221 -2.7193 -2.0645
  355MOL0     H47909   7.795   7.888   9.643 -0.1576 -1.2866  1.8390
  355MOL0     H47910   7.942   7.766   9.469  0.9865 -3.0221 -0.1445
  355MOL0     H47911   8.077   7.500   9.336  2.0206  0.9212 -0.5608
  355MOL0     H47912   8.286   7.362   9.299  0.3132 -0.9511 -0.3563
  355MOL0     H47913   8.398   7.221   8.946  3.8818  1.2904  2.5561
  355MOL0     H47914   8.297   7.073   8.941  3.9810 -3.8159 -2.3019
  355MOL0     H47915   8.494   6.977   8.949  0.0901  0.5720 -1.6524
  355MOL0     H47916   8.466   6.988   9.118  0.3857 -0.1788 -0.6373
  355MOL0     H47917   8.608   7.220   8.973  0.5083  0.8960  0.8567
  355MOL0     H47918   8.695   7.075   9.019  0.7985 -0.1336 -0.1481
  355MOL0     H47919   8.555   7.300   9.169 -0.8881 -0.6097 -0.2685
  355MOL0     H47920   8.590   7.146   9.252  1.6284  0.1765  1.4832
  355MOL0     H47921   8.952   7.377   9.179 -0.6739  1.1425  2.0841
  355MOL0     H47922   8.089   7.186   8.956  1.0683  0.0918  0.9837
  355MOL0     H47923   7.844   7.405   8.903  0.0435  1.1000  2.9042
  355MOL0     H47924   7.915   7.242   8.873 -4.3851 -4.8810  1.2730
  355MOL0     H47925   7.782   7.262   8.986  1.1730 -3.7650 -0.3498
  356MOL0     O47926   9.036   7.109   4.982  0.5601 -0.5537 -0.3745
  356MOL0     C47927   8.983   7.062   5.080  0.1411 -0.1059  0.5547
  356MOL0     O47928   8.910   6.946   5.074  0.0755 -0.3216 -0.1933
  356MOL0     C47929   8.904   6.859   4.974 -0.0909  0.0516  0.4894
  356MOL0     C47930   8.791   6.774   4.958 -0.8331  0.1231  0.7412
  356MOL0     C47931   8.797   6.675   4.854 -0.0760 -0.1990  0.2467
  356MOL0     C47932   8.912   6.652   4.779 -0.3574 -0.4767 -1.0312
  356MOL0     O47933   8.899   6.549   4.688 -0.0906 -0.1020  0.2820
  356MOL0     C47934   9.020   6.475   4.647  0.0486 -0.3740  0.1777
  356MOL0     C47935   8.987   6.336   4.588  0.0862 -0.6209 -0.3184
  356MOL0     C47936   8.942   6.243   4.704  0.9633  0.0524  0.7190
  356MOL0     C47937   8.897   6.110   4.631 -0.2767  0.2326 -0.0017
  356MOL0     C47938   8.801   6.031   4.721  0.4057  0.3570  0.0398
  356MOL0     C47939   8.756   5.896   4.665  0.7969 -0.6634  0.0465
  356MOL0     C47940   8.766   5.797   4.784  0.7357  0.2175  0.3419
  356MOL0     C47941   8.675   5.675   4.764  0.3306  0.5519 -0.0291
  356MOL0     N47942   8.534   5.723   4.765 -0.0893 -0.7133 -0.2316
  356MOL0     C47943   8.472   5.733   4.638  0.8394  0.9041 -0.6007
  356MOL0     C47944   8.342   5.714   4.680 -0.1172 -0.1415  0.5308
  356MOL0     C47945   8.219   5.704   4.588  0.0248  0.6730 -0.0424
  356MOL0     C47946   8.148   5.566   4.589 -0.4462  0.1973  0.6843
  356MOL0     C47947   8.246   5.457   4.554 -0.4131 -0.0141 -0.5729
  356MOL0     C47948   8.181   5.321   4.512  0.5207  0.3102 -0.1276
  356MOL0     O47949   8.275   5.216   4.534 -0.5220  0.8933 -0.3688
  356MOL0     C47950   8.239   5.095   4.465  0.3926  0.4580  0.5305
  356MOL0     C47951   8.110   5.049   4.431  0.4921 -0.1773 -0.3880
  356MOL0     C47952   8.091   4.931   4.356  1.3252  0.0101  0.0942
  356MOL0     C47953   8.197   4.848   4.316  0.1059  0.0655  0.1742
  356MOL0     C47954   8.173   4.722   4.246 -0.7266  0.6725  0.3476
  356MOL0     O47955   8.291   4.654   4.211 -0.8356  0.0662  0.1110
  356MOL0     C47956   8.283   4.524   4.171 -0.1373 -0.2062  0.1911
  356MOL0     C47957   8.244   4.423   4.263 -0.0918  0.5319  0.3346
  356MOL0     C47958   8.254   4.293   4.204  0.1213  0.3950  0.3145
  356MOL0     C47959   8.303   4.267   4.079  0.2523 -0.1411  0.2458
  356MOL0     O47960   8.321   4.135   4.045  0.1893 -0.2396  1.2383
  356MOL0     C47961   8.424   4.089   3.954 -0.7766 -0.1138 -0.2285
  356MOL0     C47962   8.442   3.948   3.973  0.0917  0.4498  0.2831
  356MOL0     C47963   8.321   3.864   3.927  0.7882 -0.3734  0.3975
  356MOL0     C47964   8.289   3.880   3.781 -0.1006  0.5033  0.3692
  356MOL0     C47965   8.388   3.811   3.682  0.2906  0.9941  0.3686
  356MOL0     C47966   8.404   3.663   3.720  0.1527  0.7533 -0.6612
  356MOL0     C47967   8.458   3.571   3.607  0.9879 -0.2784 -0.7239
  356MOL0     C47968   8.402   3.437   3.623  0.2194 -0.0641 -0.2418
  356MOL0    Cl47969   8.489   3.316   3.519 -0.1677  0.1824  0.2741
  356MOL0     C47970   8.337   4.376   3.994 -0.1941 -0.4094  0.3620
  356MOL0     C47971   8.336   4.503   4.044  1.0130  0.0302 -0.5110
  356MOL0     O47972   8.065   4.692   4.205  0.4498  0.3613  0.5648
  356MOL0     C47973   8.327   4.892   4.355  0.5405  0.4660  0.4746
  356MOL0     C47974   8.339   5.009   4.431  0.0298  0.1303 -0.4613
  356MOL0     N47975   8.328   5.698   4.813  0.0243  0.0739 -0.0808
  356MOL0     N47976   8.441   5.699   4.859  1.0113  1.0047  0.0298
  356MOL0     C47977   9.022   6.728   4.800 -1.0040 -0.5781  0.3434
  356MOL0     C47978   9.019   6.830   4.898  1.7400 -0.0298  0.4585
  356MOL0     C47979   8.959   7.157   5.196 -0.3962 -0.0605  1.1666
  356MOL0     C47980   8.841   7.139   5.260 -0.3232  0.4228  0.3656
  356MOL0     C47981   8.799   7.219   5.365 -0.0501 -0.4843 -0.5720
  356MOL0     C47982   8.891   7.323   5.411  0.2919 -0.1300 -0.0337
  356MOL0     O47983   8.847   7.401   5.514  0.0256  0.2048 -0.2767
  356MOL0     C47984   8.918   7.524   5.543 -0.8202  0.7063  1.4909
  356MOL0     C47985   8.825   7.616   5.624 -0.0723 -0.1732 -0.3388
  356MOL0     C47986   8.779   7.550   5.756 -0.6180 -0.2344  0.4170
  356MOL0     C47987   8.755   7.649   5.866 -0.2364  0.6252 -0.6621
  356MOL0     C47988   8.760   7.586   5.992  0.9844  1.0881 -0.4292
  356MOL0     C47989   8.765   7.547   6.106  1.8801  0.3415 -0.1990
  356MOL0     C47990   9.014   7.319   5.347  0.4729 -0.0914  0.4683
  356MOL0     C47991   9.057   7.245   5.241  0.4685 -0.6046  0.3556
  356MOL0     C47992   9.199   7.262   5.173  0.6259 -0.0515 -1.2152
  356MOL0     H47993   8.699   6.774   5.016 -0.2874 -3.6584  1.8149
  356MOL0     H47994   8.708   6.619   4.827  1.6778 -2.7284 -0.7258
  356MOL0     H47995   9.070   6.526   4.564  1.5382 -1.8795  0.1128
  356MOL0     H47996   9.096   6.468   4.725 -0.2311  0.9152  0.6003
  356MOL0     H47997   9.078   6.297   4.542  0.2235  1.1513 -1.6303
  356MOL0     H47998   8.913   6.354   4.510 -1.6496 -2.9872  0.6902
  356MOL0     H47999   8.852   6.273   4.757 -0.3531 -1.4351 -0.5588
  356MOL0     H48000   9.021   6.207   4.771  0.5045 -2.9404 -0.1639
  356MOL0     H48001   8.835   6.145   4.549 -0.6799 -0.0709  0.1714
  356MOL0     H48002   8.986   6.055   4.597  0.1829  0.3601  0.9377
  356MOL0     H48003   8.851   6.003   4.814 -0.1569 -0.3647  0.1369
  356MOL0     H48004   8.718   6.099   4.745 -0.1730 -0.7272  1.2363
  356MOL0     H48005   8.652   5.902   4.633  1.1086 -2.2528 -1.4033
  356MOL0     H48006   8.821   5.859   4.585  0.5287 -2.9467  0.8147
  356MOL0     H48007   8.742   5.846   4.880  2.8690  1.4277  0.3296
  356MOL0     H48008   8.871   5.767   4.783  0.6321 -0.2851 -2.7031
  356MOL0     H48009   8.706   5.615   4.678  0.2982  0.6568 -0.1142
  356MOL0     H48010   8.681   5.599   4.844  0.7731 -0.8278 -1.3203
  356MOL0     H48011   8.520   5.747   4.542 -2.2139  0.5435 -2.3126
  356MOL0     H48012   8.150   5.784   4.615 -1.8196 -0.5640 -0.8319
  356MOL0     H48013   8.258   5.723   4.487  3.4460 -1.2707  0.7683
  356MOL0     H48014   8.115   5.543   4.691  3.8221 -3.3848  1.5222
  356MOL0     H48015   8.070   5.575   4.513  0.3175 -1.3049 -0.3159
  356MOL0     H48016   8.328   5.450   4.625  0.9848  2.8323 -1.7593
  356MOL0     H48017   8.292   5.483   4.459  1.6094 -2.7557 -0.4386
  356MOL0     H48018   8.159   5.323   4.405  1.1325 -3.7033 -0.4890
  356MOL0     H48019   8.093   5.305   4.575  0.2317  1.3537 -0.2607
  356MOL0     H48020   8.029   5.116   4.456  1.6871  0.8003  1.0726
  356MOL0     H48021   7.995   4.894   4.322 -0.1394  1.6939  2.1676
  356MOL0     H48022   8.208   4.452   4.362 -2.2383  0.8352 -0.4961
  356MOL0     H48023   8.226   4.205   4.261  0.7617 -2.0361 -2.8416
  356MOL0     H48024   8.387   4.124   3.858 -2.8551  0.3348  0.6824
  356MOL0     H48025   8.517   4.139   3.982 -1.3454  0.4293  0.7648
  356MOL0     H48026   8.534   3.911   3.927 -1.1048  0.2556 -2.0657
  356MOL0     H48027   8.464   3.937   4.080  1.6354  0.2955 -0.0181
  356MOL0     H48028   8.332   3.759   3.954  1.9177 -0.1711  0.7651
  356MOL0     H48029   8.236   3.903   3.984  1.6208  0.3258  1.1824
  356MOL0     H48030   8.285   3.987   3.756  0.2361  1.3101  3.3990
  356MOL0     H48031   8.192   3.837   3.755  0.5256  0.2433 -1.7290
  356MOL0     H48032   8.487   3.855   3.695  2.2956 -2.9271 -0.0246
  356MOL0     H48033   8.354   3.819   3.578  1.8148  0.3522 -0.2112
  356MOL0     H48034   8.471   3.650   3.806  1.3960 -0.6096 -1.7676
  356MOL0     H48035   8.304   3.631   3.748  0.7157 -2.4934 -1.8891
  356MOL0     H48036   8.567   3.558   3.605  0.9518 -1.5532  1.9034
  356MOL0     H48037   8.434   3.613   3.509  1.4778  2.0266  0.0927
  356MOL0     H48038   8.410   3.409   3.728 -3.1803 -0.9296 -0.1227
  356MOL0     H48039   8.295   3.441   3.603  0.6462  1.3430 -2.7104
  356MOL0     H48040   8.378   4.352   3.897 -0.0568  1.9405 -0.2003
  356MOL0     H48041   8.358   4.586   3.977 -1.5172  1.6632  0.5009
  356MOL0     H48042   8.418   4.843   4.322  0.8766  0.8747  0.7864
  356MOL0     H48043   8.437   5.050   4.456  0.3636  0.2100 -1.8498
  356MOL0     H48044   9.118   6.715   4.751 -0.5364 -0.4971  1.2164
  356MOL0     H48045   9.111   6.888   4.901  1.7737  0.1617 -2.3878
  356MOL0     H48046   8.773   7.057   5.239  1.0907 -0.2934 -1.7700
  356MOL0     H48047   8.706   7.209   5.420  0.1842 -3.0297 -0.4951
  356MOL0     H48048   8.941   7.575   5.449  0.3525 -1.6381  0.4295
  356MOL0     H48049   9.012   7.515   5.600 -0.3014 -1.6348  0.3910
  356MOL0     H48050   8.735   7.634   5.564  0.1782 -1.4488 -1.1299
  356MOL0     H48051   8.872   7.713   5.645  0.2766 -0.5285  0.6102
  356MOL0     H48052   8.858   7.482   5.789 -0.9679 -2.6853 -3.2011
  356MOL0     H48053   8.688   7.497   5.727  0.2772  0.3509 -4.3874
  356MOL0     H48054   8.837   7.722   5.867  0.1755  0.1581  0.0273
  356MOL0     H48055   8.653   7.688   5.853 -1.9741 -2.7969  1.3933
  356MOL0     H48056   8.772   7.493   6.198 -1.3551 -1.4511 -0.8469
  356MOL0     H48057   9.085   7.392   5.386  2.6951 -3.0280  2.3989
  356MOL0     H48058   9.264   7.324   5.235  1.9356 -0.7698 -1.8235
  356MOL0     H48059   9.259   7.172   5.152 -0.2986 -0.7458 -0.9222
  356MOL0     H48060   9.198   7.315   5.077 -0.9000  3.0156  0.3522
  357MOL0     O48061   7.809   0.795   1.122 -0.3462 -0.3531  0.3698
  357MOL0     C48062   7.854   0.788   1.231 -0.4845  0.3157 -0.0901
  357MOL0     O48063   7.909   0.685   1.289 -0.0079 -0.3476 -0.5929
  357MOL0     C48064   7.913   0.565   1.225 -0.5306 -0.3158  0.4510
  357MOL0     C48065   7.883   0.451   1.308 -0.3174 -0.5897  0.4157
  357MOL0     C48066   7.878   0.322   1.255 -0.3354 -0.9678 -0.1316
  357MOL0     C48067   7.897   0.294   1.121  0.5732 -0.4097 -0.2179
  357MOL0     O48068   7.888   0.161   1.068  1.5112 -0.3528 -0.2557
  357MOL0     C48069   7.940   0.119   0.941  0.1889  0.4180  0.1581
  357MOL0     C48070   7.919  -0.031   0.928 -0.5262  0.6287  0.0836
  357MOL0     C48071   7.814  -0.068   0.829 -0.5983 -0.0072 -0.0684
  357MOL0     C48072   7.861  -0.047   0.680 -0.2460 -0.7241 -0.1030
  357MOL0     C48073   7.749  -0.069   0.588 -0.0120  0.1383 -1.2661
  357MOL0     C48074   7.791  -0.055   0.441 -0.1636 -0.2742  0.0636
  357MOL0     C48075   7.675  -0.036   0.350  0.4127 -0.2287 -0.1032
  357MOL0     C48076   7.713  -0.005   0.205 -0.1715  0.9641  0.2113
  357MOL0     N48077   7.792   0.115   0.199  0.2316 -0.1668  0.0738
  357MOL0     C48078   7.764   0.233   0.254 -0.4328 -0.3085 -0.9471
  357MOL0     C48079   7.879   0.300   0.231 -0.4475  0.3987  0.5271
  357MOL0     C48080   7.928   0.414   0.310  0.1023 -0.2721  0.0473
  357MOL0     C48081   7.812   0.523   0.308 -0.4795 -0.4605 -0.1348
  357MOL0     C48082   7.859   0.659   0.333  0.8265 -0.0561 -0.1606
  357MOL0     C48083   7.746   0.747   0.388  1.0404 -1.1411  0.2122
  357MOL0     O48084   7.738   0.737   0.526 -0.6947 -0.5684 -0.3824
  357MOL0     C48085   7.683   0.846   0.598 -0.2216  0.0049 -0.6128
  357MOL0     C48086   7.710   0.843   0.731  0.0676  0.7244 -0.6595
  357MOL0     C48087   7.670   0.948   0.811 -0.2221 -1.1676  0.5159
  357MOL0     C48088   7.592   1.061   0.760 -0.3858  0.2106 -0.7516
  357MOL0     C48089   7.556   1.176   0.848  0.0910  0.6414 -0.3214
  357MOL0     O48090   7.609   1.170   0.977 -0.4607 -0.5282  0.4236
  357MOL0     C48091   7.596   1.275   1.067 -0.2717  0.7119  0.5098
  357MOL0     C48092   7.475   1.341   1.076  0.2080 -0.3165 -0.4414
  357MOL0     C48093   7.465   1.443   1.169 -0.6656 -0.3386 -0.5393
  357MOL0     C48094   7.570   1.477   1.261  0.4247 -0.4292 -0.0939
  357MOL0     O48095   7.563   1.576   1.354 -0.0115 -0.2012 -0.1732
  357MOL0     C48096   7.504   1.702   1.328 -0.7008  0.1892 -0.8994
  357MOL0     C48097   7.479   1.788   1.457 -0.2828  1.2274  0.2228
  357MOL0     C48098   7.368   1.887   1.421 -0.2138  0.4485  0.3165
  357MOL0     C48099   7.338   1.981   1.535 -0.8201 -0.6221 -0.1051
  357MOL0     C48100   7.258   2.101   1.485  0.1262 -0.7972 -0.2452
  357MOL0     C48101   7.257   2.214   1.601  0.0766  0.4375  0.8025
  357MOL0     C48102   7.144   2.320   1.584  0.4683 -0.0317 -0.2395
  357MOL0     C48103   7.177   2.455   1.639 -0.1475  0.2010 -0.3462
  357MOL0    Cl48104   7.218   2.455   1.814 -0.8890  0.2903  0.3281
  357MOL0     C48105   7.692   1.404   1.247  0.0560  1.0491  0.5215
  357MOL0     C48106   7.706   1.305   1.156  1.0266 -0.4369  0.3619
  357MOL0     O48107   7.505   1.274   0.796  0.8633  0.3433  0.1895
  357MOL0     C48108   7.555   1.049   0.623  0.3735 -0.8814 -0.5024
  357MOL0     C48109   7.601   0.945   0.546  0.5257 -0.3872 -0.6518
  357MOL0     N48110   7.958   0.241   0.136 -0.6063  0.5079 -0.3101
  357MOL0     N48111   7.906   0.119   0.124  0.2473  0.6041  0.3035
  357MOL0     C48112   7.926   0.406   1.040 -1.2740 -0.1714  0.0476
  357MOL0     C48113   7.947   0.539   1.095 -0.2456 -0.0060  0.3378
  357MOL0     C48114   7.855   0.913   1.308  0.8950  0.5143 -0.7725
  357MOL0     C48115   7.970   0.988   1.320  0.8781  0.5482 -0.5038
  357MOL0     C48116   7.975   1.103   1.402  0.1055  0.7654  0.1413
  357MOL0     C48117   7.872   1.144   1.481 -0.1528 -0.0925 -0.8695
  357MOL0     O48118   7.893   1.247   1.564  0.6448 -0.4923 -0.9506
  357MOL0     C48119   7.872   1.209   1.703  0.4672  0.6795  0.6191
  357MOL0     C48120   7.979   1.118   1.775  0.3638 -0.8639  0.8728
  357MOL0     C48121   7.976   0.961   1.752  0.3344 -0.0983  0.1382
  357MOL0     C48122   7.849   0.876   1.777 -0.5438 -0.3700  0.1107
  357MOL0     C48123   7.765   0.938   1.880  0.8459 -0.2940  0.3433
  357MOL0     C48124   7.707   1.007   1.959 -0.0974 -0.0893  0.0803
  357MOL0     C48125   7.748   1.078   1.467  0.6547  0.5741 -0.7638
  357MOL0     C48126   7.737   0.964   1.383 -0.2595 -0.4557 -0.4179
  357MOL0     C48127   7.600   0.901   1.351  0.4523  0.5338  0.8571
  357MOL0     H48128   7.872   0.465   1.415  1.3547 -0.2439  0.5642
  357MOL0     H48129   7.855   0.239   1.321  0.5891 -0.9846  0.1893
  357MOL0     H48130   7.888   0.167   0.858 -1.6643  0.0420  1.0487
  357MOL0     H48131   8.045   0.149   0.928  0.2208  0.5474  0.6899
  357MOL0     H48132   7.875  -0.070   1.021 -2.1873  1.9529 -0.1026
  357MOL0     H48133   8.014  -0.082   0.908  2.0645  5.2649 -0.7258
  357MOL0     H48134   7.726  -0.007   0.848 -1.4401 -1.6674  1.7564
  357MOL0     H48135   7.781  -0.172   0.843  0.5396 -0.3545  0.1282
  357MOL0     H48136   7.901   0.055   0.677  1.5598 -1.4005 -3.1027
  357MOL0     H48137   7.933  -0.121   0.645  0.3452 -0.1247 -0.1760
  357MOL0     H48138   7.715  -0.171   0.606 -0.7017  0.8456  2.2638
  357MOL0     H48139   7.666  -0.006   0.622  0.0519  0.1112 -1.0582
  357MOL0     H48140   7.860   0.029   0.428 -0.2410 -0.4091 -1.4692
  357MOL0     H48141   7.857  -0.138   0.413  1.9629  1.2556  0.3182
  357MOL0     H48142   7.620   0.051   0.386  0.0619 -0.9459  1.1420
  357MOL0     H48143   7.601  -0.116   0.352 -2.0393  1.8337  3.7178
  357MOL0     H48144   7.757  -0.099   0.170 -2.1715 -0.9240  2.3867
  357MOL0     H48145   7.629  -0.001   0.134 -0.1227  0.1629  0.0947
  357MOL0     H48146   7.690   0.270   0.324 -1.8120  0.9220 -2.9582
  357MOL0     H48147   7.949   0.382   0.413  1.1868 -2.6252 -0.8363
  357MOL0     H48148   8.016   0.457   0.262 -0.2873  3.0667  2.0349
  357MOL0     H48149   7.776   0.516   0.205  4.0323 -2.6971 -1.8171
  357MOL0     H48150   7.729   0.508   0.377 -0.9236 -1.3436 -0.8348
  357MOL0     H48151   7.889   0.701   0.236  1.0497  2.2178  0.8176
  357MOL0     H48152   7.928   0.658   0.417 -0.7857  2.3976  1.3129
  357MOL0     H48153   7.649   0.720   0.346  1.0282 -1.9691  0.7441
  357MOL0     H48154   7.768   0.852   0.366 -0.7034 -0.2001  2.5434
  357MOL0     H48155   7.748   0.753   0.778 -2.4241  1.1007  2.4516
  357MOL0     H48156   7.694   0.945   0.917  0.3512 -1.4087  0.3802
  357MOL0     H48157   7.387   1.303   1.025 -0.3667 -0.6453  0.7595
  357MOL0     H48158   7.373   1.499   1.182 -1.2625 -1.6736  1.5720
  357MOL0     H48159   7.571   1.763   1.265  1.1471  1.7161  2.2868
  357MOL0     H48160   7.407   1.684   1.283  0.0421 -0.3811 -2.3476
  357MOL0     H48161   7.442   1.718   1.532  0.0023 -1.0087 -1.6274
  357MOL0     H48162   7.577   1.826   1.488  0.5197 -0.5586  0.0037
  357MOL0     H48163   7.400   1.944   1.334 -3.7721 -0.1493 -1.5598
  357MOL0     H48164   7.275   1.846   1.381  0.8590 -1.8485  0.0489
  357MOL0     H48165   7.435   2.023   1.564 -1.5799  2.2334 -1.3499
  357MOL0     H48166   7.294   1.938   1.625 -2.1914 -1.2439 -1.0495
  357MOL0     H48167   7.156   2.070   1.462 -0.6051  0.8183  0.6344
  357MOL0     H48168   7.300   2.149   1.396  0.5732 -0.2473  0.2461
  357MOL0     H48169   7.231   2.165   1.695  0.9524 -3.8731 -0.9487
  357MOL0     H48170   7.354   2.264   1.611  0.2209  0.6804 -1.2573
  357MOL0     H48171   7.048   2.285   1.621 -0.2535  1.2805 -0.8245
  357MOL0     H48172   7.128   2.324   1.476 -4.1477 -0.6309  0.2442
  357MOL0     H48173   7.264   2.490   1.581 -0.6915  2.2631  0.0048
  357MOL0     H48174   7.091   2.519   1.618 -0.0238 -0.3274 -2.7891
  357MOL0     H48175   7.771   1.433   1.315 -0.0897  0.4216  0.9575
  357MOL0     H48176   7.791   1.237   1.152  0.7542 -0.7725  0.2560
  357MOL0     H48177   7.502   1.127   0.570  3.8329  1.5593 -0.7180
  357MOL0     H48178   7.576   0.943   0.440 -3.8307 -0.1067  0.2055
  357MOL0     H48179   7.946   0.379   0.937  0.5633  0.1462  0.2930
  357MOL0     H48180   7.977   0.615   1.023 -1.1367 -0.0474 -0.0955
  357MOL0     H48181   8.053   0.961   1.256 -0.9099 -1.0982 -2.2837
  357MOL0     H48182   8.070   1.154   1.415  2.7444 -3.4518 -0.3879
  357MOL0     H48183   7.782   1.147   1.709  2.9034 -3.0707  1.9871
  357MOL0     H48184   7.851   1.296   1.766 -1.8504 -0.8122  2.0579
  357MOL0     H48185   7.966   1.136   1.882 -1.0359  1.8321  0.3378
  357MOL0     H48186   8.075   1.154   1.738  0.8906 -3.6492 -0.7598
  357MOL0     H48187   8.056   0.915   1.812 -0.5563 -1.5438  0.2581
  357MOL0     H48188   8.025   0.937   1.657 -0.8421  3.1228 -1.4374
  357MOL0     H48189   7.786   0.883   1.688  2.6773 -0.8170 -2.3630
  357MOL0     H48190   7.871   0.772   1.800  0.3789  0.4979  3.8758
  357MOL0     H48191   7.668   1.065   2.040  3.2215  1.0862  1.0119
  357MOL0     H48192   7.657   1.110   1.517  0.6544  2.6815 -2.0355
  357MOL0     H48193   7.536   0.988   1.366  2.8382  3.0268 -1.9833
  357MOL0     H48194   7.593   0.870   1.247  3.2366 -1.0264  1.0289
  357MOL0     H48195   7.582   0.819   1.421  3.6051  1.0314  2.4588
  358MOL0     O48196   2.094   7.476   6.029 -0.6339  0.0363 -0.5394
  358MOL0     C48197   2.023   7.434   5.940 -0.2421 -0.2698 -0.9510
  358MOL0     O48198   2.019   7.477   5.813  0.1200 -0.1355  0.1702
  358MOL0     C48199   2.036   7.609   5.785 -0.2034 -0.2239 -0.4010
  358MOL0     C48200   2.156   7.681   5.810 -0.4835 -0.6207  0.6321
  358MOL0     C48201   2.171   7.812   5.753  0.4043 -0.2438 -0.2259
  358MOL0     C48202   2.069   7.875   5.682 -0.7229 -0.0806  0.2168
  358MOL0     O48203   2.096   8.005   5.635 -0.2100 -0.2717  0.2805
  358MOL0     C48204   2.016   8.045   5.520  0.2523  0.4836 -0.6786
  358MOL0     C48205   2.087   8.162   5.455 -0.1273  0.1467  0.0241
  358MOL0     C48206   2.057   8.187   5.302 -1.2525 -0.0692  0.3069
  358MOL0     C48207   1.907   8.199   5.265 -0.9733  0.3588  1.6202
  358MOL0     C48208   1.886   8.168   5.109  0.1206  0.0918 -0.7454
  358MOL0     C48209   1.733   8.190   5.090 -0.1091 -0.1598 -0.6141
  358MOL0     C48210   1.685   8.131   4.961  1.2184  0.6319  0.3979
  358MOL0     C48211   1.550   8.184   4.910  0.1851 -0.7865 -0.1118
  358MOL0     N48212   1.431   8.149   5.006 -0.7386 -0.2363 -0.5647
  358MOL0     C48213   1.355   8.033   5.004  0.2652 -0.4734  0.6428
  358MOL0     C48214   1.280   8.041   5.119  0.1787 -0.5605  0.8159
  358MOL0     C48215   1.172   7.940   5.172  0.1885  0.0301  0.6891
  358MOL0     C48216   1.041   8.003   5.160 -0.0567 -0.1079  0.5092
  358MOL0     C48217   0.915   7.909   5.180 -0.2731 -0.5977 -0.7892
  358MOL0     C48218   0.896   7.860   5.330 -0.6199  0.6414 -0.5428
  358MOL0     O48219   0.790   7.766   5.336 -0.1376  0.3273  0.3138
  358MOL0     C48220   0.698   7.746   5.443 -0.6821 -0.2563  0.0169
  358MOL0     C48221   0.629   7.861   5.484  0.2592 -0.5454 -0.2820
  358MOL0     C48222   0.526   7.853   5.582 -0.3986  0.8046  0.1621
  358MOL0     C48223   0.499   7.718   5.632 -1.3240  0.6723  0.2913
  358MOL0     C48224   0.381   7.707   5.715  0.6667 -0.5435 -0.2457
  358MOL0     O48225   0.317   7.822   5.759  0.0228 -1.0011  1.5082
  358MOL0     C48226   0.220   7.816   5.859 -0.5934  1.2814  0.9780
  358MOL0     C48227   0.259   7.763   5.984  0.9565  0.2052  0.2006
  358MOL0     C48228   0.157   7.742   6.081  0.6894  0.2110 -0.9671
  358MOL0     C48229   0.022   7.784   6.062 -0.6799  0.2836  0.6348
  358MOL0     O48230  -0.053   7.754   6.174 -0.4616 -0.2723 -0.3128
  358MOL0     C48231  -0.183   7.807   6.179  0.1919  0.3137 -0.6633
  358MOL0     C48232  -0.278   7.688   6.175 -0.4358  0.6955  0.0571
  358MOL0     C48233  -0.430   7.728   6.190  0.2036  0.4131 -0.1009
  358MOL0     C48234  -0.517   7.604   6.173 -0.0558 -0.1373  0.7315
  358MOL0     C48235  -0.671   7.635   6.157  0.3547  0.2193 -0.4784
  358MOL0     C48236  -0.751   7.504   6.176  0.1287 -1.0704 -0.5051
  358MOL0     C48237  -0.773   7.465   6.317 -0.2535  0.5370  0.0797
  358MOL0     C48238  -0.884   7.367   6.331 -0.4600  0.5088  0.3090
  358MOL0    Cl48239  -0.829   7.201   6.268 -0.4021  0.1213 -0.5314
  358MOL0     C48240  -0.004   7.846   5.941 -0.9805  0.0914 -0.7972
  358MOL0     C48241   0.090   7.863   5.842  0.5699  0.4664  0.2451
  358MOL0     O48242   0.343   7.592   5.744 -0.3063 -0.0406 -0.3323
  358MOL0     C48243   0.575   7.605   5.591 -1.0646  0.2973  0.6075
  358MOL0     C48244   0.678   7.619   5.498 -0.1450 -0.5280  0.2231
  358MOL0     N48245   1.305   8.156   5.187 -0.4877 -0.2165 -0.3447
  358MOL0     N48246   1.394   8.225   5.119 -0.5345  0.2304 -0.6603
  358MOL0     C48247   1.953   7.806   5.662 -0.6138  0.5944 -0.5611
  358MOL0     C48248   1.928   7.676   5.718  0.2047 -0.1817  0.6819
  358MOL0     C48249   1.952   7.304   5.982 -0.8369 -0.3324  0.1135
  358MOL0     C48250   1.927   7.215   5.874 -0.2349 -0.5153 -1.0734
  358MOL0     C48251   1.877   7.086   5.891  0.3591 -1.0145  0.4763
  358MOL0     C48252   1.845   7.048   6.027  0.3502 -0.5049 -0.3556
  358MOL0     O48253   1.790   6.923   6.048 -0.5259  0.1015 -0.2172
  358MOL0     C48254   1.870   6.823   6.110 -0.6605  0.4859 -0.6106
  358MOL0     C48255   1.783   6.694   6.117 -1.0858 -0.2786 -0.0843
  358MOL0     C48256   1.877   6.567   6.124  1.1100  0.3388  0.5419
  358MOL0     C48257   1.960   6.546   6.252 -0.3086 -1.1630 -0.0199
  358MOL0     C48258   2.090   6.624   6.246 -0.9259 -0.8974 -0.7676
  358MOL0     C48259   2.194   6.678   6.231 -0.3029 -0.1859  0.0304
  358MOL0     C48260   1.861   7.136   6.128 -0.4210  0.0698  0.0099
  358MOL0     C48261   1.919   7.258   6.111 -0.2064 -0.5016 -0.1285
  358MOL0     C48262   1.941   7.340   6.241 -0.5195 -0.2548 -0.1458
  358MOL0     H48263   2.241   7.635   5.859  1.9015  1.4772 -1.2386
  358MOL0     H48264   2.262   7.863   5.782  0.8865 -0.8999 -0.5866
  358MOL0     H48265   2.004   7.965   5.447  0.2391 -0.0825 -0.0688
  358MOL0     H48266   1.916   8.080   5.549 -0.4781 -0.3555 -2.1141
  358MOL0     H48267   2.193   8.137   5.464  0.0580  0.6710 -0.6135
  358MOL0     H48268   2.066   8.259   5.500  1.3744  0.7937 -0.5671
  358MOL0     H48269   2.095   8.105   5.241 -0.9571 -1.6106  2.4422
  358MOL0     H48270   2.120   8.272   5.275  3.7359 -2.6619  2.5711
  358MOL0     H48271   1.858   8.120   5.321 -1.1080 -1.6196 -1.0953
  358MOL0     H48272   1.874   8.297   5.300 -0.3270  1.0970  0.2399
  358MOL0     H48273   1.944   8.230   5.040 -0.6663  4.0425  1.7917
  358MOL0     H48274   1.919   8.067   5.083  2.2023  0.0163  1.7683
  358MOL0     H48275   1.677   8.150   5.175 -0.1458  1.4883  0.1822
  358MOL0     H48276   1.725   8.299   5.094 -1.3276 -0.2805  1.3695
  358MOL0     H48277   1.672   8.023   4.971 -0.0278  0.7712  0.5123
  358MOL0     H48278   1.763   8.157   4.889  1.1094  1.0557  0.4262
  358MOL0     H48279   1.568   8.292   4.899 -1.0204 -0.1310  3.0733
  358MOL0     H48280   1.525   8.153   4.808  0.2519  1.2587 -0.7949
  358MOL0     H48281   1.357   7.942   4.945 -0.1054  0.9526 -1.7218
  358MOL0     H48282   1.176   7.843   5.123  1.9706  0.4331 -0.0437
  358MOL0     H48283   1.183   7.912   5.277 -0.5422 -2.6588  0.1279
  358MOL0     H48284   1.036   8.093   5.222  1.6582 -0.6024  1.4311
  358MOL0     H48285   1.032   8.044   5.059 -2.3312  1.4724  1.2638
  358MOL0     H48286   0.926   7.821   5.116  0.8400 -2.0377  1.2619
  358MOL0     H48287   0.819   7.951   5.148 -3.1561 -2.5696  4.0855
  358MOL0     H48288   0.881   7.940   5.404  0.1831 -1.1057  1.6033
  358MOL0     H48289   0.994   7.815   5.348  1.3405  2.7673 -4.3922
  358MOL0     H48290   0.680   7.949   5.447  1.2274 -2.1386 -3.0514
  358MOL0     H48291   0.464   7.936   5.615 -2.2526 -0.3495 -0.3011
  358MOL0     H48292   0.358   7.720   5.994  0.4005 -1.4305 -0.8368
  358MOL0     H48293   0.177   7.676   6.166  1.1095  0.2767 -1.0117
  358MOL0     H48294  -0.185   7.851   6.279  0.5084  0.6006 -0.7835
  358MOL0     H48295  -0.207   7.882   6.104 -2.1485 -0.1918 -0.5076
  358MOL0     H48296  -0.275   7.647   6.074 -0.8330 -0.2068  0.4091
  358MOL0     H48297  -0.261   7.601   6.239  0.0349  1.1191  0.5289
  358MOL0     H48298  -0.454   7.780   6.283 -1.3963  2.7163 -1.6981
  358MOL0     H48299  -0.457   7.802   6.114  2.0219 -0.3701 -1.6028
  358MOL0     H48300  -0.491   7.525   6.244  5.3388 -0.5201 -1.2269
  358MOL0     H48301  -0.479   7.565   6.078  0.8879  0.0367  1.0279
  358MOL0     H48302  -0.686   7.683   6.060 -2.7826  0.3076 -0.0629
  358MOL0     H48303  -0.715   7.699   6.235 -2.0436 -3.5025  1.5067
  358MOL0     H48304  -0.848   7.526   6.131 -0.4623 -1.2575  0.6555
  358MOL0     H48305  -0.712   7.412   6.131  1.9301  0.1780 -1.6361
  358MOL0     H48306  -0.802   7.552   6.377  0.3900  1.2949 -0.6900
  358MOL0     H48307  -0.679   7.436   6.364  0.3257 -0.1583 -1.4727
  358MOL0     H48308  -0.902   7.367   6.439  2.8162  0.5661  0.9533
  358MOL0     H48309  -0.966   7.399   6.266 -0.4165 -0.0520 -0.0212
  358MOL0     H48310  -0.098   7.893   5.913  0.6571  3.2747 -1.4127
  358MOL0     H48311   0.067   7.919   5.752 -0.0959  0.8995  0.6754
  358MOL0     H48312   0.538   7.509   5.625 -2.0977  1.5834  3.3438
  358MOL0     H48313   0.719   7.531   5.449 -3.5550 -1.5455 -1.1395
  358MOL0     H48314   1.877   7.848   5.596 -0.1081 -1.3726 -2.5375
  358MOL0     H48315   1.838   7.621   5.690  0.0958  0.2798  0.1027
  358MOL0     H48316   1.959   7.246   5.775  1.8309  0.6737 -0.0979
  358MOL0     H48317   1.863   7.017   5.808  1.5158 -1.8930  0.9851
  358MOL0     H48318   1.914   6.866   6.200  0.6195  0.1817 -1.0788
  358MOL0     H48319   1.950   6.811   6.037 -0.1835  1.5617 -0.2860
  358MOL0     H48320   1.724   6.677   6.027 -2.3290 -0.7982  0.7975
  358MOL0     H48321   1.712   6.697   6.200 -0.3002  0.7029  0.5863
  358MOL0     H48322   1.943   6.574   6.037  0.4098  1.0868  0.0536
  358MOL0     H48323   1.825   6.474   6.104  3.5336 -1.0806  0.4506
  358MOL0     H48324   1.895   6.576   6.335 -1.2108  2.7433 -1.9215
  358MOL0     H48325   1.989   6.441   6.265 -0.9610 -1.7706 -2.7210
  358MOL0     H48326   2.287   6.716   6.194 -2.0569  2.8642 -1.6898
  358MOL0     H48327   1.825   7.110   6.227  1.9388  1.1430  1.2240
  358MOL0     H48328   2.048   7.346   6.258 -0.4999 -0.4618 -0.1948
  358MOL0     H48329   1.892   7.438   6.231  0.7350  0.3955 -0.0915
  358MOL0     H48330   1.897   7.288   6.326  1.1619 -0.7487  0.4425
  359MOL0     O48331   2.260   4.888  10.935 -0.7218 -0.6541 -0.3995
  359MOL0     C48332   2.277   4.825  11.034  0.3409  0.4920  0.2978
  359MOL0     O48333   2.365   4.864  11.128  0.2154 -0.2583  0.2876
  359MOL0     C48334   2.432   4.981  11.102  0.8299 -0.6419 -1.5277
  359MOL0     C48335   2.382   5.098  11.156 -0.2539  0.9005 -0.3826
  359MOL0     C48336   2.436   5.221  11.121  1.1727 -0.5489  0.4395
  359MOL0     C48337   2.524   5.231  11.014  0.9856  1.1028 -0.1184
  359MOL0     O48338   2.583   5.344  10.973 -0.6545 -0.3103  0.8696
  359MOL0     C48339   2.510   5.467  10.971  0.6991 -0.4951  0.2351
  359MOL0     C48340   2.537   5.553  10.843  0.2179  0.4610  0.3961
  359MOL0     C48341   2.659   5.632  10.868 -0.5764  0.7032 -0.4264
  359MOL0     C48342   2.683   5.715  10.745 -0.0668 -0.9137  0.1851
  359MOL0     C48343   2.799   5.820  10.763 -0.5930 -0.0145 -0.5669
  359MOL0     C48344   2.830   5.905  10.638 -0.3294  1.1801  0.0037
  359MOL0     C48345   2.946   5.990  10.668 -0.1746 -0.2047 -0.3020
  359MOL0     C48346   3.003   6.065  10.541  0.4513 -0.6795  0.1051
  359MOL0     N48347   3.089   6.175  10.574 -0.2943  0.1945  0.3179
  359MOL0     C48348   3.212   6.195  10.514  1.0250  0.0404 -0.2081
  359MOL0     C48349   3.263   6.313  10.558 -0.0356  0.4009 -0.5106
  359MOL0     C48350   3.395   6.365  10.523 -0.6511 -0.6645 -0.3673
  359MOL0     C48351   3.383   6.473  10.418 -1.3213 -0.8266 -0.4340
  359MOL0     C48352   3.516   6.501  10.348 -0.8584  0.4690 -0.0350
  359MOL0     C48353   3.605   6.599  10.427  0.2321 -0.1998  0.5778
  359MOL0     O48354   3.731   6.602  10.354  0.6636 -0.6786 -0.0658
  359MOL0     C48355   3.788   6.715  10.311  0.1583  0.5098  0.0131
  359MOL0     C48356   3.750   6.841  10.357 -0.1670  0.3662 -0.0453
  359MOL0     C48357   3.821   6.956  10.317 -0.5144 -0.0401  0.0669
  359MOL0     C48358   3.932   6.944  10.227 -0.7444  0.2174 -0.6354
  359MOL0     C48359   4.014   7.060  10.189 -0.1244 -0.2901 -0.6915
  359MOL0     O48360   4.031   7.153  10.285  0.4210 -0.4258  0.0211
  359MOL0     C48361   4.131   7.251  10.283  0.3309 -0.5209  0.1476
  359MOL0     C48362   4.256   7.230  10.220  0.3272 -0.2112 -0.7842
  359MOL0     C48363   4.348   7.340  10.214 -0.4823  0.1746 -0.3435
  359MOL0     C48364   4.322   7.468  10.281 -0.1095 -0.0859  0.6024
  359MOL0     O48365   4.399   7.584  10.269  0.9410 -0.2019 -0.3082
  359MOL0     C48366   4.528   7.555  10.208  0.1814  0.3018 -0.5089
  359MOL0     C48367   4.593   7.685  10.223 -0.0707 -1.0886  0.2415
  359MOL0     C48368   4.523   7.799  10.145 -0.2202 -0.3101  0.0562
  359MOL0     C48369   4.516   7.775   9.994 -0.1114 -0.7856 -0.1871
  359MOL0     C48370   4.460   7.902   9.929 -0.3914  0.1701 -0.2711
  359MOL0     C48371   4.490   7.900   9.784 -0.2897 -0.4817  0.5039
  359MOL0     C48372   4.463   8.029   9.711 -0.2622 -1.6271  0.6670
  359MOL0     C48373   4.310   8.061   9.687  0.4488 -0.2016 -0.2802
  359MOL0    Cl48374   4.277   8.184   9.566 -0.3232  0.4526  0.0132
  359MOL0     C48375   4.194   7.486  10.344  0.1717  0.6809 -0.0215
  359MOL0     C48376   4.106   7.376  10.339 -0.5911  0.3817 -0.8339
  359MOL0     O48377   4.064   7.060  10.082 -0.5941  0.6347 -0.3611
  359MOL0     C48378   3.961   6.823  10.177  0.0700 -0.5681  0.0615
  359MOL0     C48379   3.892   6.701  10.222 -0.7494 -1.0857  0.2190
  359MOL0     N48380   3.169   6.368  10.647  0.7191 -0.4178 -0.0402
  359MOL0     N48381   3.063   6.286  10.644  0.1706  0.1918 -0.5890
  359MOL0     C48382   2.583   5.118  10.966  0.2288 -0.0727  0.1252
  359MOL0     C48383   2.532   4.995  11.003  0.0429  0.5576 -0.8758
  359MOL0     C48384   2.183   4.715  11.051 -0.0606  0.4094  0.0831
  359MOL0     C48385   2.060   4.707  10.974 -0.3857 -0.4858 -0.0263
  359MOL0     C48386   1.983   4.591  10.976  0.7707  0.1039  0.2876
  359MOL0     C48387   2.009   4.481  11.055 -0.6755  0.3019 -0.0212
  359MOL0     O48388   1.932   4.368  11.041 -0.0353 -0.0898 -0.0028
  359MOL0     C48389   1.963   4.241  11.091 -0.0967 -0.6572 -0.3915
  359MOL0     C48390   1.893   4.200  11.222 -0.1044 -0.4592 -0.4795
  359MOL0     C48391   1.944   4.292  11.343 -0.0676  0.3199  0.7349
  359MOL0     C48392   1.863   4.274  11.471 -0.0574 -0.4198  0.9676
  359MOL0     C48393   1.880   4.401  11.549  0.2182 -0.4569  0.5208
  359MOL0     C48394   1.893   4.513  11.593  0.3429 -0.5417 -1.4669
  359MOL0     C48395   2.126   4.487  11.133  0.0906 -0.2383  0.1372
  359MOL0     C48396   2.216   4.600  11.132  0.6256 -0.4439 -0.7971
  359MOL0     C48397   2.356   4.560  11.192  0.2447  0.7180  0.1006
  359MOL0     H48398   2.302   5.102  11.229  0.4477  1.0927  0.3897
  359MOL0     H48399   2.403   5.305  11.182 -1.1573 -2.1366  1.4981
  359MOL0     H48400   2.403   5.446  10.975  0.3498  0.2918 -2.7794
  359MOL0     H48401   2.522   5.516  11.068  0.3597 -0.5124  0.2882
  359MOL0     H48402   2.451   5.613  10.812  1.0532  1.9415  0.8274
  359MOL0     H48403   2.552   5.476  10.767  2.2042  0.0589  1.1209
  359MOL0     H48404   2.744   5.572  10.902 -2.0560 -0.0762  2.1286
  359MOL0     H48405   2.635   5.693  10.955 -0.3303  0.5466 -0.2480
  359MOL0     H48406   2.688   5.659  10.652  1.0310 -0.6331  0.0528
  359MOL0     H48407   2.588   5.767  10.728  1.3846  0.7255 -4.5375
  359MOL0     H48408   2.777   5.888  10.846 -0.3888 -0.7617  0.1076
  359MOL0     H48409   2.881   5.753  10.787  0.4365  0.8567 -1.5638
  359MOL0     H48410   2.854   5.839  10.554  2.4008 -2.2031  3.1129
  359MOL0     H48411   2.746   5.973  10.622 -1.9964 -0.5577  0.9991
  359MOL0     H48412   3.027   5.927  10.707 -1.5789 -1.9356 -0.0826
  359MOL0     H48413   2.913   6.041  10.759 -3.3434 -3.9312  0.8823
  359MOL0     H48414   3.046   5.989  10.476 -1.3509 -3.2716  1.7408
  359MOL0     H48415   2.914   6.108  10.493 -1.2213 -2.3282  1.5464
  359MOL0     H48416   3.259   6.123  10.448 -0.2196 -1.1116  0.1150
  359MOL0     H48417   3.447   6.406  10.610 -0.3246 -1.4880 -0.1644
  359MOL0     H48418   3.471   6.294  10.489 -2.1617 -1.0321 -3.2886
  359MOL0     H48419   3.324   6.432  10.336  2.2721  0.5323 -4.0044
  359MOL0     H48420   3.354   6.573  10.451  2.8104  0.2991  0.3356
  359MOL0     H48421   3.495   6.560  10.258  0.6850  0.2157 -0.5903
  359MOL0     H48422   3.565   6.404  10.333 -0.0564  0.9048 -0.3063
  359MOL0     H48423   3.630   6.563  10.527  4.5566  2.6491  0.8220
  359MOL0     H48424   3.546   6.690  10.428  0.5206 -0.0041  0.0954
  359MOL0     H48425   3.667   6.859  10.424 -0.7900  3.3596 -1.4776
  359MOL0     H48426   3.798   7.057  10.348 -0.3946  0.0089 -0.0010
  359MOL0     H48427   4.277   7.131  10.180 -0.6279 -0.0893 -1.6176
  359MOL0     H48428   4.452   7.325  10.187 -0.9586  0.3499 -2.3888
  359MOL0     H48429   4.588   7.476  10.253 -0.5219 -0.9870 -1.7414
  359MOL0     H48430   4.514   7.533  10.101  2.1623 -1.7388 -0.4269
  359MOL0     H48431   4.610   7.730  10.321 -0.3252  1.7702 -0.9311
  359MOL0     H48432   4.692   7.669  10.179 -0.2924 -1.6172 -0.0734
  359MOL0     H48433   4.421   7.807  10.185 -0.5363 -1.5768 -0.4382
  359MOL0     H48434   4.579   7.893  10.149  1.1005 -1.0744  0.1503
  359MOL0     H48435   4.441   7.699   9.972  0.4275 -1.0576 -1.1356
  359MOL0     H48436   4.607   7.734   9.949  0.0679  0.9130 -1.4653
  359MOL0     H48437   4.508   7.992   9.970  1.7429 -2.0955  2.7190
  359MOL0     H48438   4.353   7.912   9.949 -0.7256 -0.1929 -1.7355
  359MOL0     H48439   4.598   7.881   9.777  0.7858  4.2300  1.1068
  359MOL0     H48440   4.430   7.822   9.736 -0.6826 -0.5897  1.1601
  359MOL0     H48441   4.509   8.029   9.612 -2.7352 -2.5081 -0.5613
  359MOL0     H48442   4.508   8.109   9.770 -2.0068  1.8327 -2.3628
  359MOL0     H48443   4.260   7.967   9.662 -0.9038 -0.6053  3.3525
  359MOL0     H48444   4.260   8.093   9.779 -0.8300 -3.0084  0.1141
  359MOL0     H48445   4.184   7.590  10.372  0.2957  1.7112 -3.4525
  359MOL0     H48446   4.007   7.385  10.382  0.1068 -1.6853  1.4236
  359MOL0     H48447   4.042   6.802  10.107  0.1421  0.3512 -0.1385
  359MOL0     H48448   3.919   6.599  10.197  3.5782  0.4739 -2.5903
  359MOL0     H48449   2.653   5.126  10.883  0.0246  1.2040  0.0430
  359MOL0     H48450   2.563   4.901  10.957  0.5144 -0.3152  1.1011
  359MOL0     H48451   2.023   4.795  10.922  0.1659  0.2000  0.7305
  359MOL0     H48452   1.887   4.575  10.929  1.9413 -0.4444 -2.0697
  359MOL0     H48453   2.071   4.234  11.107  0.4117  3.5407 -0.8044
  359MOL0     H48454   1.946   4.156  11.024 -0.3150  1.0658 -2.6387
  359MOL0     H48455   1.918   4.097  11.247  0.0630 -0.2794  0.1284
  359MOL0     H48456   1.785   4.214  11.214 -0.0880 -0.2993 -0.4429
  359MOL0     H48457   1.945   4.396  11.309 -0.4886  0.0704 -0.0668
  359MOL0     H48458   2.047   4.263  11.368  0.2906  0.0485 -0.9432
  359MOL0     H48459   1.757   4.252  11.453 -0.1105  1.0115 -0.6460
  359MOL0     H48460   1.903   4.185  11.522 -0.8918  0.1081  2.6145
  359MOL0     H48461   1.877   4.606  11.644 -0.1265 -0.7927 -1.1518
  359MOL0     H48462   2.155   4.396  11.185 -0.6320 -0.0069  0.9536
  359MOL0     H48463   2.377   4.600  11.292  1.2557 -1.7891  0.9725
  359MOL0     H48464   2.377   4.452  11.196  0.4230  0.7650  0.4520
  359MOL0     H48465   2.426   4.599  11.118 -0.5867  2.8738  0.3923
  360MOL0     O48466   0.579  10.988   2.990 -0.6082  0.7598  0.0561
  360MOL0     C48467   0.666  11.052   3.038  0.0454  0.6814 -0.4645
  360MOL0     O48468   0.666  11.102   3.169  0.2558  1.1429 -0.0335
  360MOL0     C48469   0.566  11.085   3.258  0.6042 -1.0030  0.8634
  360MOL0     C48470   0.538  11.201   3.330  0.8990 -0.7516 -0.3269
  360MOL0     C48471   0.435  11.185   3.428 -0.2685 -1.5333  0.4449
  360MOL0     C48472   0.366  11.067   3.445  0.2942  0.7145 -0.0263
  360MOL0     O48473   0.257  11.070   3.532  0.1915 -0.1793 -0.4762
  360MOL0     C48474   0.171  10.955   3.550  0.6878 -0.2927  0.2259
  360MOL0     C48475   0.224  10.861   3.643  0.6096  1.4334 -0.7923
  360MOL0     C48476   0.174  10.894   3.787 -0.1040 -0.7480 -0.4089
  360MOL0     C48477   0.029  10.844   3.818 -1.0606 -0.2217 -0.7495
  360MOL0     C48478  -0.007  10.912   3.959  0.1683  0.8253  0.0778
  360MOL0     C48479  -0.138  10.863   4.012  1.4710  0.0563 -0.6294
  360MOL0     C48480  -0.156  10.886   4.160 -0.2167  0.4609 -1.3497
  360MOL0     C48481  -0.294  10.845   4.207  0.1007  1.1094  0.3614
  360MOL0     N48482  -0.393  10.961   4.208 -0.4994  1.0131  0.3712
  360MOL0     C48483  -0.496  10.972   4.294  0.2055  0.1251  0.4315
  360MOL0     C48484  -0.582  11.057   4.238  0.5208 -0.0411 -0.2991
  360MOL0     C48485  -0.718  11.107   4.288 -0.2986 -0.2279  0.4544
  360MOL0     C48486  -0.807  11.124   4.163 -0.9624  0.0774 -0.6157
  360MOL0     C48487  -0.907  11.225   4.203  0.4105  0.9123 -0.4372
  360MOL0     C48488  -1.044  11.176   4.143 -0.0705 -0.6699 -0.0642
  360MOL0     O48489  -1.028  11.215   4.006 -0.2804 -0.3585  0.5007
  360MOL0     C48490  -1.143  11.212   3.930  0.0349 -0.0189 -0.2955
  360MOL0     C48491  -1.266  11.179   3.974  0.7120 -0.2973 -0.0461
  360MOL0     C48492  -1.371  11.168   3.885 -1.1541 -0.5785  0.3912
  360MOL0     C48493  -1.353  11.212   3.756  0.8611  0.9383  0.7493
  360MOL0     C48494  -1.459  11.192   3.656  1.4101 -1.5022 -0.3069
  360MOL0     O48495  -1.551  11.096   3.672 -0.0007  0.4748 -0.0288
  360MOL0     C48496  -1.623  11.043   3.570  0.4160  0.2295 -0.2047
  360MOL0     C48497  -1.733  10.953   3.608  1.4020 -0.9235 -0.8791
  360MOL0     C48498  -1.803  10.873   3.513  0.8448 -0.0053 -0.4088
  360MOL0     C48499  -1.772  10.881   3.384  0.9505  1.1197  1.2555
  360MOL0     O48500  -1.829  10.793   3.304 -0.3820 -0.2714  0.0684
  360MOL0     C48501  -1.837  10.844   3.164  0.7030  0.4714 -0.0132
  360MOL0     C48502  -1.935  10.746   3.097 -0.0379  0.0017  0.2032
  360MOL0     C48503  -2.081  10.753   3.155 -0.5349 -0.2979  0.6872
  360MOL0     C48504  -2.175  10.679   3.053 -0.4661 -0.7600 -0.9360
  360MOL0     C48505  -2.331  10.705   3.092  0.3269 -0.6503  0.0556
  360MOL0     C48506  -2.382  10.613   3.206  0.0244 -0.2013  0.1844
  360MOL0     C48507  -2.519  10.654   3.266  0.5875  0.4653  0.0225
  360MOL0     C48508  -2.525  10.610   3.415  0.0398  0.4252  0.0275
  360MOL0    Cl48509  -2.537  10.431   3.434  0.1547 -0.3520  0.3358
  360MOL0     C48510  -1.665  10.968   3.337 -0.5540  0.3743  0.2108
  360MOL0     C48511  -1.599  11.058   3.433 -0.0308  0.9243 -0.3735
  360MOL0     O48512  -1.468  11.280   3.567 -0.1535 -0.0181 -0.3784
  360MOL0     C48513  -1.233  11.265   3.700 -0.0378  0.5692 -0.1282
  360MOL0     C48514  -1.125  11.253   3.794 -0.3265 -0.7336 -0.2780
  360MOL0     N48515  -0.515  11.110   4.125 -0.3732 -0.8612 -0.2949
  360MOL0     N48516  -0.402  11.050   4.110  0.8188  0.6370 -0.2778
  360MOL0     C48517   0.393  10.959   3.376 -0.2234  0.1866  1.1983
  360MOL0     C48518   0.493  10.965   3.280 -0.6899  0.0237 -0.6018
  360MOL0     C48519   0.774  11.088   2.952 -0.0905  1.1884  0.3699
  360MOL0     C48520   0.891  11.144   3.017 -0.5466  1.3122 -0.1495
  360MOL0     C48521   0.994  11.192   2.940  1.3748  0.5573 -0.1870
  360MOL0     C48522   0.977  11.206   2.798 -0.2846  0.6548 -0.6047
  360MOL0     O48523   1.085  11.261   2.737  0.1435  0.2631  0.3595
  360MOL0     C48524   1.075  11.319   2.600 -0.1396  0.5246 -0.3864
  360MOL0     C48525   1.193  11.406   2.572 -0.2745  0.4191 -0.2815
  360MOL0     C48526   1.225  11.428   2.423  0.2063 -0.1193 -0.6515
  360MOL0     C48527   1.127  11.525   2.357  0.5615  0.3674  0.3736
  360MOL0     C48528   1.177  11.549   2.214 -0.1570 -0.7008 -0.3844
  360MOL0     C48529   1.189  11.583   2.103 -0.2897 -0.8473  0.0000
  360MOL0     C48530   0.872  11.137   2.738  0.0053  0.2001 -0.2328
  360MOL0     C48531   0.767  11.078   2.809 -0.0398 -0.5329 -0.2922
  360MOL0     C48532   0.645  11.041   2.737  0.3155  0.0562 -0.1762
  360MOL0     H48533   0.573  11.300   3.303 -1.0118  0.4445  1.3057
  360MOL0     H48534   0.400  11.265   3.493  1.6720  0.8193 -1.2293
  360MOL0     H48535   0.071  10.991   3.578  1.1646  2.8169 -1.4911
  360MOL0     H48536   0.136  10.913   3.455 -0.5558 -2.8174  1.7221
  360MOL0     H48537   0.333  10.859   3.641  0.6830 -2.1943 -0.2279
  360MOL0     H48538   0.186  10.758   3.632 -1.1983  1.6454  2.2909
  360MOL0     H48539   0.178  11.001   3.808  2.1008 -1.2262  2.2369
  360MOL0     H48540   0.243  10.847   3.858  0.3716 -1.3764 -1.2568
  360MOL0     H48541  -0.051  10.867   3.748 -2.0504 -1.1208  0.0558
  360MOL0     H48542   0.029  10.735   3.822  0.5989 -0.2178  1.2601
  360MOL0     H48543   0.079  10.893   4.024 -2.1542 -0.2926  2.9984
  360MOL0     H48544  -0.012  11.021   3.963  1.0933  0.8531  1.0881
  360MOL0     H48545  -0.217  10.925   3.969 -1.6849 -2.4858  1.0708
  360MOL0     H48546  -0.155  10.760   3.979 -0.8395  0.5048 -1.0294
  360MOL0     H48547  -0.124  10.990   4.172 -0.9261  0.6252 -0.8595
  360MOL0     H48548  -0.082  10.825   4.213  1.1849 -0.0643 -3.7596
  360MOL0     H48549  -0.333  10.768   4.139  1.0614 -0.5038  1.5463
  360MOL0     H48550  -0.289  10.798   4.306  1.5078 -1.3563 -0.7894
  360MOL0     H48551  -0.507  10.920   4.389 -0.5015  0.7437  0.6921
  360MOL0     H48552  -0.767  11.043   4.362 -0.7085 -0.3313  0.0959
  360MOL0     H48553  -0.694  11.204   4.334 -0.0204 -0.5906  1.0777
  360MOL0     H48554  -0.752  11.153   4.073  0.7968 -1.1769  0.0113
  360MOL0     H48555  -0.857  11.029   4.144  0.6677 -0.4443 -2.6574
  360MOL0     H48556  -0.876  11.319   4.157  3.3896  0.3043  0.0609
  360MOL0     H48557  -0.911  11.232   4.312  1.9023 -0.5861 -0.2344
  360MOL0     H48558  -1.117  11.248   4.181 -0.5977 -0.0098 -2.2057
  360MOL0     H48559  -1.079  11.073   4.157 -2.0100 -0.2689 -1.6295
  360MOL0     H48560  -1.279  11.160   4.080  1.0361  2.7445  0.6276
  360MOL0     H48561  -1.467  11.131   3.921 -1.2486 -0.5064  0.2172
  360MOL0     H48562  -1.758  10.936   3.713 -0.6544  0.3160 -1.1047
  360MOL0     H48563  -1.888  10.817   3.548  0.6277  1.6287  1.9156
  360MOL0     H48564  -1.867  10.948   3.151 -1.0035  0.1063  0.6663
  360MOL0     H48565  -1.742  10.832   3.110  0.7150 -1.8553  0.3851
  360MOL0     H48566  -1.939  10.754   2.988 -0.3072  0.7595  0.2643
  360MOL0     H48567  -1.898  10.647   3.125 -1.0982  0.1293  2.2539
  360MOL0     H48568  -2.090  10.707   3.254 -2.7623 -1.2587  0.0951
  360MOL0     H48569  -2.108  10.859   3.161 -1.4128 -0.5871  2.5290
  360MOL0     H48570  -2.158  10.571   3.047 -2.3206 -1.0435 -1.8910
  360MOL0     H48571  -2.155  10.729   2.958  1.8052  1.1882  0.4800
  360MOL0     H48572  -2.405  10.710   3.011 -2.4725  1.1706  2.5292
  360MOL0     H48573  -2.336  10.810   3.122 -0.7394 -1.3302  2.5221
  360MOL0     H48574  -2.399  10.511   3.169 -0.1553 -0.8488  1.9603
  360MOL0     H48575  -2.302  10.606   3.280  0.3536  3.4501  0.3420
  360MOL0     H48576  -2.612  10.626   3.216  0.5584  1.3538 -0.4540
  360MOL0     H48577  -2.522  10.763   3.276  0.4723  0.3041  2.0003
  360MOL0     H48578  -2.435  10.647   3.465  0.2194 -0.1728  0.1438
  360MOL0     H48579  -2.611  10.661   3.461 -0.6069 -1.1664  0.6371
  360MOL0     H48580  -1.635  10.988   3.234  3.7595 -0.4342  1.1092
  360MOL0     H48581  -1.520  11.128   3.406  1.2963 -0.0869  0.7849
  360MOL0     H48582  -1.233  11.313   3.602 -1.9162 -0.8739 -0.9053
  360MOL0     H48583  -1.024  11.282   3.767 -1.0494  2.2630 -0.1102
  360MOL0     H48584   0.347  10.864   3.401 -2.2120  0.3967 -1.2041
  360MOL0     H48585   0.515  10.891   3.204 -0.2772 -0.4324 -0.0411
  360MOL0     H48586   0.907  11.143   3.124  0.5942  1.6458 -0.2994
  360MOL0     H48587   1.090  11.220   2.983  2.2404  0.1496 -1.7755
  360MOL0     H48588   0.981  11.366   2.570 -0.3483 -0.6309 -1.6574
  360MOL0     H48589   1.089  11.237   2.528 -2.0915 -0.2620  0.0420
  360MOL0     H48590   1.284  11.351   2.600  0.5557  0.7861 -2.0700
  360MOL0     H48591   1.185  11.499   2.628  0.8346  0.4252 -0.1066
  360MOL0     H48592   1.231  11.330   2.376  0.4396  0.8049 -2.6438
  360MOL0     H48593   1.327  11.465   2.407 -0.1566  0.2736 -2.2131
  360MOL0     H48594   1.028  11.480   2.354  0.3808  0.8091 -1.1506
  360MOL0     H48595   1.122  11.609   2.426 -2.5985 -1.5829  2.8302
  360MOL0     H48596   1.208  11.628   2.008 -0.2005  1.6438  1.1353
  360MOL0     H48597   0.867  11.120   2.631 -3.0739 -1.5210  0.0521
  360MOL0     H48598   0.558  11.091   2.779 -0.7188 -1.5321 -0.3655
  360MOL0     H48599   0.647  11.062   2.629 -2.0894 -0.2975 -0.3347
  360MOL0     H48600   0.634  10.933   2.742  0.0614 -0.0464 -2.0366
  361MOL0     O48601   4.345   2.079   4.533  0.7491 -0.0162  0.2190
  361MOL0     C48602   4.363   1.960   4.528 -0.6005  0.5545  0.6675
  361MOL0     O48603   4.481   1.893   4.568  0.2024  0.4045 -0.2646
  361MOL0     C48604   4.591   1.968   4.595 -0.3784 -0.0200  0.3016
  361MOL0     C48605   4.594   2.065   4.691  0.5518  0.3547 -0.5653
  361MOL0     C48606   4.704   2.154   4.700  0.3734  0.3303  0.6902
  361MOL0     C48607   4.817   2.129   4.619 -0.1066 -0.8013  0.4686
  361MOL0     O48608   4.913   2.221   4.644  0.0948  0.4657  0.2149
  361MOL0     C48609   5.024   2.220   4.553  0.4001 -1.0592 -0.7275
  361MOL0     C48610   5.085   2.362   4.559  0.1683 -0.8178 -0.9311
  361MOL0     C48611   5.160   2.373   4.703  0.7489  0.0237  0.7859
  361MOL0     C48612   5.249   2.497   4.701  0.0846 -0.6092  0.0048
  361MOL0     C48613   5.284   2.542   4.848 -0.8751  0.9127  0.4098
  361MOL0     C48614   5.377   2.665   4.850 -0.0030 -0.6076  0.6133
  361MOL0     C48615   5.504   2.643   4.932  0.1958 -0.3471 -0.1210
  361MOL0     C48616   5.605   2.757   4.907 -0.9902  0.8672 -0.0817
  361MOL0     N48617   5.739   2.703   4.942 -0.1847 -0.0387 -0.0876
  361MOL0     C48618   5.801   2.707   5.065  0.4348 -0.0374 -0.3577
  361MOL0     C48619   5.917   2.644   5.042  0.1358 -0.3213  0.3833
  361MOL0     C48620   6.032   2.631   5.135 -0.0962  0.3982  0.6955
  361MOL0     C48621   6.011   2.575   5.277  0.3614  0.3306 -0.5463
  361MOL0     C48622   6.014   2.425   5.279  0.2237  0.5233  0.4929
  361MOL0     C48623   5.911   2.350   5.194 -0.6581 -0.5877 -0.5506
  361MOL0     O48624   5.849   2.226   5.257 -0.1097  0.2775  0.1741
  361MOL0     C48625   5.727   2.197   5.204 -1.0672  0.6283 -0.9895
  361MOL0     C48626   5.701   2.213   5.067  0.5627 -1.0638 -0.0024
  361MOL0     C48627   5.577   2.164   5.017  0.0987  0.7425  0.6374
  361MOL0     C48628   5.478   2.122   5.107  0.3062  0.2488 -0.4048
  361MOL0     C48629   5.349   2.076   5.064  1.2859 -0.2829  0.8348
  361MOL0     O48630   5.237   2.100   5.143  0.2131  0.7376 -0.4231
  361MOL0     C48631   5.130   2.028   5.107  0.8002 -0.2577  0.7461
  361MOL0     C48632   5.035   2.075   5.006 -0.3517  0.9149 -0.3153
  361MOL0     C48633   4.908   2.009   4.988 -0.5756 -0.7573  0.6088
  361MOL0     C48634   4.877   1.912   5.081 -0.1320  0.2840  0.8754
  361MOL0     O48635   4.759   1.837   5.075 -0.9394 -0.4520 -0.5687
  361MOL0     C48636   4.657   1.844   4.979  0.4156 -0.0785  1.0502
  361MOL0     C48637   4.562   1.734   5.009  0.4500  0.2512 -0.0770
  361MOL0     C48638   4.439   1.750   4.903  0.1087  0.0519 -0.7636
  361MOL0     C48639   4.348   1.625   4.897 -0.2621  0.6234  0.5366
  361MOL0     C48640   4.421   1.518   4.818  0.3782 -1.1342  0.4233
  361MOL0     C48641   4.322   1.411   4.772 -0.3410  0.3616  0.5491
  361MOL0     C48642   4.401   1.325   4.682  0.7921  0.2382  0.0588
  361MOL0     C48643   4.330   1.190   4.669 -0.7872 -0.2120 -0.4266
  361MOL0    Cl48644   4.219   1.182   4.522  0.2461  0.1579 -0.1424
  361MOL0     C48645   4.973   1.856   5.175  0.9253 -0.0498 -0.0251
  361MOL0     C48646   5.094   1.920   5.190  0.4032 -0.2630  0.0394
  361MOL0     O48647   5.355   2.009   4.957  0.5732 -0.0861 -0.5856
  361MOL0     C48648   5.499   2.131   5.243  0.0939  0.8567 -0.2225
  361MOL0     C48649   5.622   2.167   5.293 -1.2789 -0.5226 -0.3589
  361MOL0     N48650   5.926   2.602   4.913  0.0014  0.6348  0.2073
  361MOL0     N48651   5.809   2.623   4.859  0.5179  0.3208  0.4187
  361MOL0     C48652   4.826   2.012   4.551 -0.6410 -0.0695  0.2520
  361MOL0     C48653   4.708   1.938   4.532  1.0204  0.4516  0.5137
  361MOL0     C48654   4.243   1.882   4.481 -0.7581 -0.0851 -0.9637
  361MOL0     C48655   4.207   1.770   4.558 -0.6794 -0.2164  0.3028
  361MOL0     C48656   4.110   1.678   4.524  1.1032  0.8871 -0.5439
  361MOL0     C48657   4.034   1.702   4.412 -0.0159  0.4253  0.6792
  361MOL0     O48658   3.941   1.602   4.379 -1.1896 -0.3292 -0.3081
  361MOL0     C48659   3.819   1.636   4.318  0.9084 -0.1636 -0.8795
  361MOL0     C48660   3.721   1.521   4.348 -0.2653 -0.2901 -0.7087
  361MOL0     C48661   3.681   1.507   4.497 -0.7611 -0.2713  0.6743
  361MOL0     C48662   3.629   1.635   4.560  0.1475 -0.1604 -0.0247
  361MOL0     C48663   3.526   1.701   4.486 -0.5752  0.4138 -0.6632
  361MOL0     C48664   3.441   1.759   4.430 -0.1597 -0.5178  0.1644
  361MOL0     C48665   4.055   1.816   4.334  0.9435 -0.0833  0.3750
  361MOL0     C48666   4.168   1.902   4.364  0.5318 -0.6556  0.6453
  361MOL0     C48667   4.212   2.005   4.262 -0.1094  0.8720 -0.3434
  361MOL0     H48668   4.510   2.081   4.757 -2.2084  1.1789 -3.9573
  361MOL0     H48669   4.726   2.228   4.776  2.4574  1.1066 -0.5759
  361MOL0     H48670   5.102   2.145   4.564  0.8681 -0.8564 -2.3135
  361MOL0     H48671   4.984   2.216   4.451 -1.9824  1.8206 -0.0408
  361MOL0     H48672   5.010   2.441   4.548  0.9403 -0.1467 -1.5778
  361MOL0     H48673   5.166   2.376   4.486  1.6328 -1.3159  0.5350
  361MOL0     H48674   5.216   2.279   4.712 -0.8155 -0.9647  0.6133
  361MOL0     H48675   5.076   2.369   4.774 -2.1682 -0.0177 -2.4221
  361MOL0     H48676   5.336   2.478   4.638 -1.2240  0.3319 -2.1845
  361MOL0     H48677   5.197   2.584   4.659 -0.1724 -2.0907 -3.0156
  361MOL0     H48678   5.192   2.573   4.899 -1.8763 -1.3092  0.0678
  361MOL0     H48679   5.341   2.456   4.885  0.7439  0.5513 -2.6349
  361MOL0     H48680   5.411   2.694   4.751  1.7048  2.2023  1.8921
  361MOL0     H48681   5.319   2.749   4.890 -1.1722 -2.1383  2.2844
  361MOL0     H48682   5.547   2.546   4.904  1.1732 -0.4714  1.7139
  361MOL0     H48683   5.473   2.635   5.037 -1.0901 -0.9270 -0.5186
  361MOL0     H48684   5.605   2.795   4.804  2.1888 -1.3972 -1.0677
  361MOL0     H48685   5.604   2.842   4.975  2.4835  0.4055  0.7064
  361MOL0     H48686   5.762   2.751   5.156  3.2183 -1.6512  1.8054
  361MOL0     H48687   6.111   2.566   5.096 -0.9756 -1.3281  1.6582
  361MOL0     H48688   6.073   2.733   5.139 -0.8855  0.6871  2.2300
  361MOL0     H48689   6.085   2.602   5.353 -0.8398 -0.2200  0.8745
  361MOL0     H48690   5.914   2.606   5.315  0.4194  0.8857 -0.8409
  361MOL0     H48691   6.008   2.397   5.384  2.7043 -0.3910  0.4481
  361MOL0     H48692   6.114   2.398   5.244  0.3791 -0.7536  1.8229
  361MOL0     H48693   5.948   2.329   5.093  0.0298  0.6420 -0.5742
  361MOL0     H48694   5.827   2.420   5.183 -0.2426  0.1659  0.8671
  361MOL0     H48695   5.763   2.275   5.003 -0.5895 -0.8880 -0.9758
  361MOL0     H48696   5.573   2.170   4.908  4.7019  4.2387  0.3181
  361MOL0     H48697   5.063   2.157   4.940  1.9169  0.0053 -0.5714
  361MOL0     H48698   4.835   2.044   4.916  1.3681  2.8866  0.2055
  361MOL0     H48699   4.608   1.939   5.000  3.0085  1.3977  0.7272
  361MOL0     H48700   4.697   1.838   4.877  1.9481  0.4343  1.5960
  361MOL0     H48701   4.615   1.640   4.995  2.3914  0.7853  2.7938
  361MOL0     H48702   4.522   1.734   5.110  0.4382  3.6442  0.0378
  361MOL0     H48703   4.370   1.830   4.931 -0.1856 -0.2819 -0.5239
  361MOL0     H48704   4.494   1.771   4.811 -1.5607 -1.9902 -2.3277
  361MOL0     H48705   4.254   1.650   4.847  0.3293  0.5900 -0.6270
  361MOL0     H48706   4.332   1.589   4.999 -0.8643 -0.3384  0.1225
  361MOL0     H48707   4.500   1.470   4.876  2.5767 -0.5243 -1.8768
  361MOL0     H48708   4.465   1.566   4.730  1.9191 -1.4051  1.0220
  361MOL0     H48709   4.279   1.356   4.857 -1.1519  0.6397  0.3240
  361MOL0     H48710   4.236   1.457   4.722 -1.0400  0.5098  1.8146
  361MOL0     H48711   4.496   1.316   4.735  1.4741  4.0499 -0.2104
  361MOL0     H48712   4.422   1.382   4.591  2.5976  2.9594  2.0014
  361MOL0     H48713   4.409   1.116   4.652  0.5497  0.8290  1.0935
  361MOL0     H48714   4.266   1.174   4.756 -0.7830  1.2084 -0.1398
  361MOL0     H48715   4.941   1.775   5.240 -1.7485 -1.6309 -3.0068
  361MOL0     H48716   5.155   1.870   5.265 -0.5051 -1.0392  0.2763
  361MOL0     H48717   5.415   2.109   5.309  1.0314  1.8343  1.3813
  361MOL0     H48718   5.644   2.171   5.399 -3.2694  0.9797  0.0671
  361MOL0     H48719   4.913   1.978   4.495 -0.5780  0.4796  0.0145
  361MOL0     H48720   4.695   1.853   4.466 -2.5563  0.7504  0.6663
  361MOL0     H48721   4.264   1.756   4.649  0.1603 -0.8858 -0.3050
  361MOL0     H48722   4.100   1.582   4.574  1.3586  0.3604 -1.4724
  361MOL0     H48723   3.822   1.653   4.210 -1.3443  1.4954 -0.7529
  361MOL0     H48724   3.781   1.725   4.370  0.2699 -1.3617  0.8115
  361MOL0     H48725   3.768   1.430   4.308  0.1937  1.3516 -4.3166
  361MOL0     H48726   3.632   1.525   4.286 -1.4663 -1.1227  0.8728
  361MOL0     H48727   3.774   1.476   4.543  1.3872  1.6094 -2.0648
  361MOL0     H48728   3.616   1.420   4.512  1.7167 -1.8877  2.8416
  361MOL0     H48729   3.593   1.615   4.661 -1.1394 -2.6090 -0.8972
  361MOL0     H48730   3.710   1.709   4.565  0.7871 -0.7685 -1.0551
  361MOL0     H48731   3.368   1.792   4.359  0.0189 -2.2231 -0.8702
  361MOL0     H48732   3.982   1.834   4.255  0.0367  0.5830  1.3362
  361MOL0     H48733   4.200   1.966   4.161  1.0775  0.0064 -0.1672
  361MOL0     H48734   4.148   2.094   4.271  1.3663  1.8166  1.6872
  361MOL0     H48735   4.315   2.025   4.291 -0.9016  0.4119  3.2964
  362MOL0     O48736   2.591   0.880  10.382  0.1323  0.6646  0.6209
  362MOL0     C48737   2.587   0.908  10.263 -0.5282  0.0737  0.1651
  362MOL0     O48738   2.562   1.026  10.212 -0.9735 -0.7397 -0.1698
  362MOL0     C48739   2.502   1.123  10.291 -0.7092 -0.1460  0.3700
  362MOL0     C48740   2.362   1.133  10.306  0.5565  0.6103 -0.4107
  362MOL0     C48741   2.306   1.242  10.377  0.2919 -0.5361  0.8360
  362MOL0     C48742   2.388   1.340  10.426  0.6180  0.1433  0.4540
  362MOL0     O48743   2.337   1.443  10.498  0.1756  0.7849 -0.4327
  362MOL0     C48744   2.411   1.508  10.599 -0.5229 -0.1975  0.0938
  362MOL0     C48745   2.318   1.556  10.703  1.1138 -1.0580 -0.3863
  362MOL0     C48746   2.199   1.469  10.741  0.9349  0.3280 -0.2811
  362MOL0     C48747   2.071   1.498  10.657  0.3585 -0.4901 -0.1911
  362MOL0     C48748   1.932   1.451  10.702 -0.1692 -0.1103  0.6490
  362MOL0     C48749   1.913   1.305  10.685 -0.3808  0.0325 -0.6218
  362MOL0     C48750   1.906   1.255  10.540 -0.0107 -0.2744  0.3268
  362MOL0     C48751   1.816   1.130  10.541  0.1955 -0.2225 -0.7985
  362MOL0     N48752   1.798   1.071  10.412  0.1800 -0.0104 -0.2133
  362MOL0     C48753   1.870   0.976  10.363 -0.5373 -0.4260  0.2128
  362MOL0     C48754   1.847   0.985  10.231  0.0885 -0.3467 -0.2990
  362MOL0     C48755   1.922   0.894  10.147 -0.2694 -0.2241  0.0749
  362MOL0     C48756   1.847   0.760  10.136 -0.1983  0.1071 -0.8475
  362MOL0     C48757   1.937   0.669  10.052  0.8585 -0.2965 -0.7027
  362MOL0     C48758   1.882   0.538  10.045  0.5520  0.0262  0.2038
  362MOL0     O48759   1.755   0.532   9.979  0.1378 -0.1600  0.5860
  362MOL0     C48760   1.677   0.429  10.001  0.8099 -0.5850 -0.8567
  362MOL0     C48761   1.721   0.305  10.063 -0.8166  0.1297 -0.4072
  362MOL0     C48762   1.636   0.195  10.066 -0.3849 -0.2468  0.5000
  362MOL0     C48763   1.501   0.189  10.015 -0.1246 -0.9398  0.0827
  362MOL0     C48764   1.424   0.062  10.003  0.3196  1.0359  0.1531
  362MOL0     O48765   1.486  -0.061   9.997 -0.3884 -0.2940 -1.0634
  362MOL0     C48766   1.415  -0.176   9.980 -0.0590 -0.4580  0.4192
  362MOL0     C48767   1.466  -0.287   9.911 -0.0800  0.3444  0.3722
  362MOL0     C48768   1.413  -0.419   9.914 -0.7703  0.4508 -1.0446
  362MOL0     C48769   1.304  -0.438  10.013 -0.5620  0.2442  0.1666
  362MOL0     O48770   1.242  -0.559  10.052 -0.8866 -0.2821 -0.4543
  362MOL0     C48771   1.307  -0.674   9.988 -0.2370  0.7008 -0.5808
  362MOL0     C48772   1.245  -0.793  10.062 -0.5283 -0.9335  0.2329
  362MOL0     C48773   1.080  -0.787  10.082 -0.6542  0.7585  0.0882
  362MOL0     C48774   1.034  -0.918  10.150  0.8531 -0.2038 -0.4346
  362MOL0     C48775   0.883  -0.916  10.176  0.0511 -0.0628  0.4177
  362MOL0     C48776   0.842  -0.817  10.280  0.5825 -0.6845 -0.5957
  362MOL0     C48777   0.690  -0.815  10.303  0.4709 -1.2153  0.2922
  362MOL0     C48778   0.620  -0.721  10.190  0.2566  0.5226  0.7189
  362MOL0    Cl48779   0.442  -0.695  10.246 -0.0066  0.2812  0.0320
  362MOL0     C48780   1.251  -0.330  10.078  0.5941  0.3608 -0.2316
  362MOL0     C48781   1.305  -0.203  10.063 -1.0103  0.6437  0.0058
  362MOL0     O48782   1.302   0.080   9.987 -0.1846  0.3431 -0.1886
  362MOL0     C48783   1.452   0.309   9.959  0.4777 -0.9162  0.1134
  362MOL0     C48784   1.536   0.426   9.951  0.2935  0.2098  0.1372
  362MOL0     N48785   1.756   1.084  10.211  1.1459 -0.5159  0.0091
  362MOL0     N48786   1.725   1.135  10.320 -0.0892 -0.2105  0.5275
  362MOL0     C48787   2.524   1.328  10.412 -0.8418  0.8524 -0.5123
  362MOL0     C48788   2.584   1.223  10.347  0.3489  0.6298 -0.3608
  362MOL0     C48789   2.624   0.801  10.172  0.7157 -0.3763  0.3556
  362MOL0     C48790   2.735   0.724  10.193 -0.0985 -1.0072  0.0087
  362MOL0     C48791   2.767   0.618  10.108 -0.6043  0.9084 -0.0754
  362MOL0     C48792   2.683   0.581  10.007 -0.3093  0.4898  0.0605
  362MOL0     O48793   2.706   0.474   9.923 -0.2328  0.6020  0.9316
  362MOL0     C48794   2.826   0.396   9.939 -0.3776  0.5081  0.1851
  362MOL0     C48795   2.957   0.457   9.881  0.2188  0.8878 -0.7164
  362MOL0     C48796   2.940   0.498   9.742 -0.7390  1.4018  0.7532
  362MOL0     C48797   3.065   0.575   9.699 -0.2633  0.2212 -0.2115
  362MOL0     C48798   3.190   0.498   9.696 -0.4964  0.2694 -0.4859
  362MOL0     C48799   3.279   0.409   9.698 -0.1703 -1.3263  0.3313
  362MOL0     C48800   2.570   0.668   9.976 -0.2457 -1.1182 -0.3435
  362MOL0     C48801   2.539   0.779  10.059  0.1553 -0.6445 -0.3852
  362MOL0     C48802   2.418   0.858  10.018 -1.3744  0.2488  0.7795
  362MOL0     H48803   2.303   1.048  10.272  0.2838  0.0240  1.4094
  362MOL0     H48804   2.201   1.258  10.399  0.2852 -2.0242  2.0489
  362MOL0     H48805   2.476   1.432  10.644  2.0553  0.4158 -2.3190
  362MOL0     H48806   2.470   1.587  10.552 -2.2467  1.4203  0.5728
  362MOL0     H48807   2.272   1.649  10.669  1.8971 -0.6943 -0.4718
  362MOL0     H48808   2.384   1.577  10.787  0.8894  0.6603 -0.5968
  362MOL0     H48809   2.164   1.473  10.844 -0.7860 -2.7387 -0.6334
  362MOL0     H48810   2.235   1.365  10.739 -0.0487 -0.0169 -1.6600
  362MOL0     H48811   2.049   1.605  10.669 -0.3775 -0.8211  1.7964
  362MOL0     H48812   2.087   1.467  10.554 -0.0223  3.2374 -1.5510
  362MOL0     H48813   1.912   1.469  10.808 -0.4149  2.7972  0.1851
  362MOL0     H48814   1.861   1.509  10.643 -2.2423  1.2952  4.1991
  362MOL0     H48815   1.983   1.249  10.749 -1.0995 -2.2824 -1.7401
  362MOL0     H48816   1.817   1.276  10.728 -1.1394  2.8621 -0.2440
  362MOL0     H48817   2.001   1.224  10.495  0.2446  1.3544 -0.3233
  362MOL0     H48818   1.875   1.335  10.473 -2.5166 -0.8127  0.7381
  362MOL0     H48819   1.851   1.056  10.613 -2.4093  0.9651  1.9042
  362MOL0     H48820   1.717   1.150  10.583  0.6176 -1.9112  1.1959
  362MOL0     H48821   1.945   0.918  10.415  1.6356  1.7921 -0.2229
  362MOL0     H48822   1.930   0.942  10.049 -0.9336 -1.4975 -0.6218
  362MOL0     H48823   2.024   0.883  10.185 -0.5074 -0.5746  0.6214
  362MOL0     H48824   1.830   0.712  10.233 -6.1099  2.1831 -0.4769
  362MOL0     H48825   1.749   0.775  10.090 -1.3753 -2.7385  0.4992
  362MOL0     H48826   2.034   0.660  10.102  1.7229  0.4532 -2.1997
  362MOL0     H48827   1.952   0.708   9.951  0.0365  0.7558 -0.4401
  362MOL0     H48828   1.871   0.495  10.145 -1.7585 -0.8779 -0.3761
  362MOL0     H48829   1.958   0.487   9.985  0.6632  1.6250 -1.0647
  362MOL0     H48830   1.824   0.307  10.096 -0.9183  0.0017 -0.0841
  362MOL0     H48831   1.677   0.101  10.103 -1.6249 -1.1616 -0.3737
  362MOL0     H48832   1.560  -0.257   9.866 -0.9835  2.8300  0.0302
  362MOL0     H48833   1.460  -0.500   9.858 -0.7534  1.1072 -2.0034
  362MOL0     H48834   1.289  -0.681   9.880  1.8468  1.2311 -1.0126
  362MOL0     H48835   1.414  -0.681  10.009 -0.6620  3.8317  4.1884
  362MOL0     H48836   1.269  -0.885  10.007 -0.8620 -2.2113  2.1126
  362MOL0     H48837   1.297  -0.801  10.157  1.1858  1.2686 -0.4346
  362MOL0     H48838   1.066  -0.696  10.142  0.0131 -0.0010  1.4466
  362MOL0     H48839   1.035  -0.787   9.982  5.2147  0.2287 -3.0330
  362MOL0     H48840   1.089  -0.934  10.243 -2.3065 -1.3316  1.4019
  362MOL0     H48841   1.061  -1.002  10.084 -2.2540 -2.3378  0.7145
  362MOL0     H48842   0.859  -1.016  10.213  0.2752  0.1871  1.2831
  362MOL0     H48843   0.825  -0.901  10.085  2.5888  3.0462 -0.8668
  362MOL0     H48844   0.874  -0.843  10.381 -1.9473  1.3584  0.8637
  362MOL0     H48845   0.873  -0.716  10.250 -1.5719 -0.4663 -2.3816
  362MOL0     H48846   0.675  -0.768  10.400  3.2678  1.0630 -0.2411
  362MOL0     H48847   0.643  -0.913  10.291  1.7628 -1.6176 -2.0649
  362MOL0     H48848   0.664  -0.622  10.179  1.1273 -0.1443 -3.1145
  362MOL0     H48849   0.624  -0.761  10.088 -1.5207 -1.4733  1.3661
  362MOL0     H48850   1.177  -0.362  10.152 -1.3180 -0.1297 -2.2556
  362MOL0     H48851   1.270  -0.121  10.126 -2.0283 -0.3327  0.7487
  362MOL0     H48852   1.356   0.314   9.907  1.3666 -0.4822 -1.5571
  362MOL0     H48853   1.496   0.521   9.916 -1.3363 -0.1069  1.0553
  362MOL0     H48854   2.599   1.399  10.443  0.9194 -1.0272 -0.2712
  362MOL0     H48855   2.691   1.229  10.331  1.8720  0.5570  6.6307
  362MOL0     H48856   2.802   0.732  10.278  1.7054  0.9888 -1.4875
  362MOL0     H48857   2.857   0.560  10.127 -1.6289  0.0002  2.4375
  362MOL0     H48858   2.819   0.301   9.884  3.3531  0.3683 -0.3310
  362MOL0     H48859   2.831   0.352  10.039 -4.7376 -0.2904  0.2280
  362MOL0     H48860   3.037   0.383   9.896 -0.3588  0.6235  1.3805
  362MOL0     H48861   2.986   0.545   9.939 -3.4165  1.9001 -0.1965
  362MOL0     H48862   2.852   0.563   9.745  0.0537  2.4701  2.2229
  362MOL0     H48863   2.927   0.411   9.676 -1.9042  0.8758  1.6377
  362MOL0     H48864   3.042   0.628   9.606 -0.0072  3.5046  1.4446
  362MOL0     H48865   3.075   0.654   9.774 -3.5615  1.0657 -0.5002
  362MOL0     H48866   3.351   0.331   9.684 -1.2452 -2.5515  1.3442
  362MOL0     H48867   2.504   0.639   9.895 -3.9125  1.9074  1.2784
  362MOL0     H48868   2.326   0.818  10.063 -0.4804 -2.8525  0.1034
  362MOL0     H48869   2.421   0.965  10.038  2.5332  0.0307  2.0666
  362MOL0     H48870   2.397   0.847   9.911 -2.7163 -0.1202  1.0540
  363MOL0     O48871  10.933  10.601   4.507 -0.4489 -0.7755 -0.8508
  363MOL0     C48872  10.882  10.536   4.588  0.0855  0.0786  0.0681
  363MOL0     O48873  10.772  10.575   4.658 -0.0060  0.5497  0.3909
  363MOL0     C48874  10.690  10.674   4.610  0.0057 -0.3334  0.7558
  363MOL0     C48875  10.630  10.757   4.703 -0.2049  0.3674 -0.7428
  363MOL0     C48876  10.536  10.854   4.669 -0.9544  0.7527  0.0587
  363MOL0     C48877  10.508  10.875   4.531  0.7050  0.6784 -0.7739
  363MOL0     O48878  10.431  10.972   4.480  0.3467  0.0139  0.0479
  363MOL0     C48879  10.354  11.054   4.564 -0.5038 -0.3397 -0.0151
  363MOL0     C48880  10.218  10.990   4.578  0.1744 -0.1996 -0.4015
  363MOL0     C48881  10.120  11.079   4.661  0.9821  0.2396  0.2993
  363MOL0     C48882  10.027  10.996   4.754 -0.2183  0.1478  0.7767
  363MOL0     C48883   9.920  11.085   4.824 -0.6512  0.1200 -0.6829
  363MOL0     C48884   9.869  11.024   4.950 -0.3389 -0.6235 -0.4114
  363MOL0     C48885   9.976  11.008   5.058  0.2892 -0.6028 -0.0610
  363MOL0     C48886   9.939  10.907   5.170  0.7088 -0.2303  0.2725
  363MOL0     N48887   9.795  10.927   5.209  0.1904  0.1959  0.3714
  363MOL0     C48888   9.695  10.839   5.194  0.1910  0.8910  0.1012
  363MOL0     C48889   9.588  10.905   5.251 -1.2563  0.6360  0.3704
  363MOL0     C48890   9.447  10.860   5.262  0.2935  0.2209 -0.0439
  363MOL0     C48891   9.430  10.741   5.354 -0.7790 -1.0371  0.0974
  363MOL0     C48892   9.275  10.734   5.386 -0.8703 -0.6312 -0.5372
  363MOL0     C48893   9.244  10.635   5.493  0.0067  0.6103 -0.3974
  363MOL0     O48894   9.265  10.500   5.446 -0.1554  0.2123 -0.1158
  363MOL0     C48895   9.156  10.431   5.394  0.3274 -0.4644  0.5534
  363MOL0     C48896   9.183  10.302   5.345 -0.6147 -0.1176 -0.2479
  363MOL0     C48897   9.097  10.209   5.299 -0.6035 -0.1325 -0.6755
  363MOL0     C48898   8.962  10.249   5.277  0.3486  0.2329  0.0871
  363MOL0     C48899   8.871  10.148   5.223 -0.6765 -0.1768 -0.1956
  363MOL0     O48900   8.933  10.034   5.190  0.1063  0.1265 -0.1463
  363MOL0     C48901   8.847   9.926   5.175  0.2006  0.1530  0.1023
  363MOL0     C48902   8.820   9.894   5.039 -0.4334 -0.1178 -0.1719
  363MOL0     C48903   8.731   9.789   5.016  0.4720  0.2973 -0.2901
  363MOL0     C48904   8.666   9.724   5.129  0.0756 -0.5036 -0.9957
  363MOL0     O48905   8.560   9.647   5.097 -0.3355  0.5490 -0.0962
  363MOL0     C48906   8.559   9.518   5.169  0.1645 -0.1654  0.6458
  363MOL0     C48907   8.438   9.426   5.131  0.4105 -0.2298 -0.0941
  363MOL0     C48908   8.311   9.471   5.193  0.0575  0.8558  0.1440
  363MOL0     C48909   8.221   9.348   5.197  0.6687  0.0111  0.6201
  363MOL0     C48910   8.070   9.382   5.219  0.5358  0.7784 -0.4053
  363MOL0     C48911   8.026   9.428   5.358  1.4568 -0.5615  0.3322
  363MOL0     C48912   7.879   9.455   5.346  0.6588 -1.2521  0.2430
  363MOL0     C48913   7.818   9.487   5.477  0.1317  0.8101 -0.6009
  363MOL0    Cl48914   7.660   9.562   5.474  0.4832  0.1967  0.3678
  363MOL0     C48915   8.705   9.750   5.259  0.4790 -0.0699  0.1790
  363MOL0     C48916   8.796   9.849   5.277  0.5290 -0.1237  0.5280
  363MOL0     O48917   8.746  10.160   5.238  0.2795  0.1144 -0.0273
  363MOL0     C48918   8.928  10.383   5.316  0.4900  1.3648 -0.4795
  363MOL0     C48919   9.025  10.471   5.381 -0.1877 -0.6384  0.5569
  363MOL0     N48920   9.630  11.020   5.313 -0.0890 -0.3186 -0.6028
  363MOL0     N48921   9.752  11.041   5.276  0.2169  0.4487  0.4144
  363MOL0     C48922  10.565  10.786   4.437  0.4833 -1.6014 -0.5555
  363MOL0     C48923  10.661  10.700   4.479 -0.2231  1.3857 -0.4514
  363MOL0     C48924  10.942  10.409   4.617 -0.9588 -0.7696  0.3403
  363MOL0     C48925  10.860  10.306   4.678 -1.3485 -0.3901 -0.2119
  363MOL0     C48926  10.914  10.183   4.707 -0.6348  0.2305 -0.6375
  363MOL0     C48927  11.049  10.159   4.689  0.0366 -0.2313  0.1104
  363MOL0     O48928  11.084  10.037   4.733  0.5234  0.3589 -0.5512
  363MOL0     C48929  11.199   9.973   4.662  0.4253  0.0589 -0.4415
  363MOL0     C48930  11.142   9.938   4.523 -0.8372  0.1877  0.1637
  363MOL0     C48931  11.259   9.901   4.416  0.5910  0.3550 -0.3425
  363MOL0     C48932  11.317  10.021   4.337  0.6079 -0.0489 -0.1875
  363MOL0     C48933  11.422  10.099   4.405 -0.2122  0.9398 -1.2652
  363MOL0     C48934  11.510  10.163   4.469  0.0979  0.1884 -0.1320
  363MOL0     C48935  11.134  10.252   4.624 -0.7268  0.7284 -0.1689
  363MOL0     C48936  11.086  10.381   4.590  0.7287 -0.0378 -0.6283
  363MOL0     C48937  11.185  10.477   4.528  0.1550 -0.1806 -0.4851
  363MOL0     H48938  10.652  10.745   4.809 -1.3575 -0.4400 -0.5683
  363MOL0     H48939  10.488  10.916   4.744  0.7442  0.0551  1.8083
  363MOL0     H48940  10.394  11.071   4.665  0.6383  1.0580 -0.6744
  363MOL0     H48941  10.353  11.151   4.513 -0.9012  1.1119  2.5709
  363MOL0     H48942  10.218  10.888   4.617 -0.7297 -2.3430 -5.2711
  363MOL0     H48943  10.170  10.988   4.480  1.4520  3.9761 -1.3092
  363MOL0     H48944  10.057  11.136   4.592  1.0563 -1.5018 -1.3149
  363MOL0     H48945  10.180  11.141   4.727 -0.5994  3.4481 -1.0659
  363MOL0     H48946   9.960  10.922   4.709 -0.7599  0.0054  1.8012
  363MOL0     H48947  10.095  10.944   4.822  0.7151 -0.6058 -0.6587
  363MOL0     H48948   9.967  11.179   4.856 -0.8414  0.8417 -2.4297
  363MOL0     H48949   9.831  11.103   4.763 -0.9121 -1.9790 -0.9891
  363MOL0     H48950   9.785  11.082   4.990 -1.6126 -2.0088 -0.9646
  363MOL0     H48951   9.824  10.927   4.925  2.4586 -2.1776  0.1100
  363MOL0     H48952   9.982  11.109   5.097  2.6137 -1.3490  1.7276
  363MOL0     H48953  10.079  10.993   5.024  0.3594 -4.3703  1.3063
  363MOL0     H48954   9.944  10.805   5.132 -0.5667  0.3663 -1.6629
  363MOL0     H48955  10.000  10.931   5.258  1.4610 -0.3224 -0.2156
  363MOL0     H48956   9.675  10.746   5.142  1.0410 -0.2315  1.6954
  363MOL0     H48957   9.397  10.940   5.317 -1.0940 -1.5853  1.3902
  363MOL0     H48958   9.398  10.846   5.165 -2.8413  1.8303  1.1694
  363MOL0     H48959   9.475  10.654   5.306  1.2391 -0.1005  0.1984
  363MOL0     H48960   9.480  10.758   5.450 -0.2304  0.6821 -0.4579
  363MOL0     H48961   9.208  10.703   5.306 -1.2709 -0.7814 -0.1510
  363MOL0     H48962   9.243  10.834   5.418 -1.7823 -1.3993  1.0878
  363MOL0     H48963   9.140  10.648   5.526  0.4641 -3.9299  4.0124
  363MOL0     H48964   9.276  10.652   5.596 -1.8485 -2.1145  0.7512
  363MOL0     H48965   9.290  10.284   5.352 -0.7757 -0.6502  1.4388
  363MOL0     H48966   9.129  10.106   5.282  3.6341  0.1950  3.2950
  363MOL0     H48967   8.870   9.953   4.964  2.5860 -1.0902  0.9047
  363MOL0     H48968   8.681   9.773   4.921 -0.9628  3.9066 -0.3000
  363MOL0     H48969   8.651   9.462   5.148 -0.0662 -1.1643  2.1603
  363MOL0     H48970   8.546   9.528   5.277 -6.1571  0.4612  0.2272
  363MOL0     H48971   8.417   9.441   5.024  1.2371  0.7699 -0.1305
  363MOL0     H48972   8.468   9.322   5.145 -0.6130 -0.7993 -1.8033
  363MOL0     H48973   8.326   9.521   5.289  0.9873  1.1022 -0.1128
  363MOL0     H48974   8.268   9.542   5.122 -3.5478 -2.0443 -0.8837
  363MOL0     H48975   8.248   9.281   5.279  2.5760  2.2147  1.8979
  363MOL0     H48976   8.216   9.305   5.096 -2.6563 -0.8327  1.0453
  363MOL0     H48977   8.024   9.286   5.195  1.0351  0.1365  1.0975
  363MOL0     H48978   8.038   9.449   5.139 -1.3601 -0.0725 -0.4132
  363MOL0     H48979   8.044   9.351   5.434  2.1379 -1.7806 -1.0216
  363MOL0     H48980   8.068   9.524   5.387 -0.5010  0.7265 -0.9155
  363MOL0     H48981   7.827   9.369   5.304 -2.0830 -0.9776  2.8060
  363MOL0     H48982   7.876   9.534   5.271  1.3894 -1.1414  0.3200
  363MOL0     H48983   7.804   9.397   5.537  0.4324 -1.0682 -3.2025
  363MOL0     H48984   7.880   9.561   5.528 -2.1220  1.9747  0.6154
  363MOL0     H48985   8.645   9.691   5.327 -3.1145  0.7887 -1.9153
  363MOL0     H48986   8.805   9.883   5.380  0.5854  0.0266  0.4728
  363MOL0     H48987   8.830  10.430   5.306 -0.1609  0.7845  2.2096
  363MOL0     H48988   8.999  10.575   5.394 -0.8956 -0.9165  1.5243
  363MOL0     H48989  10.539  10.800   4.332  1.0501 -1.6371 -0.7025
  363MOL0     H48990  10.708  10.640   4.402 -1.3667  1.8353 -1.5237
  363MOL0     H48991  10.756  10.322   4.705 -0.9439 -0.5713  1.6378
  363MOL0     H48992  10.851  10.104   4.747  2.0847 -1.8906 -0.2328
  363MOL0     H48993  11.226   9.878   4.709 -0.1049  0.8218  1.4857
  363MOL0     H48994  11.278  10.048   4.656 -0.5057  1.0218 -1.1159
  363MOL0     H48995  11.075  10.018   4.491 -0.1915  1.7599  2.4807
  363MOL0     H48996  11.081   9.847   4.530  1.6630 -1.5917  0.0851
  363MOL0     H48997  11.224   9.835   4.336 -1.8779  2.9642 -1.6160
  363MOL0     H48998  11.337   9.847   4.471  0.3811 -0.4752 -0.8392
  363MOL0     H48999  11.360   9.976   4.247 -0.9341 -0.9196 -0.5187
  363MOL0     H49000  11.247  10.101   4.314  2.8780  2.5124  1.1008
  363MOL0     H49001  11.595  10.211   4.513  0.1315 -1.3091  1.5491
  363MOL0     H49002  11.234  10.225   4.591 -0.1557  0.7447  1.4605
  363MOL0     H49003  11.178  10.493   4.420  2.3545 -2.0903 -0.9964
  363MOL0     H49004  11.174  10.572   4.580  1.6628  0.2751 -0.9308
  363MOL0     H49005  11.287  10.437   4.532  1.2237  2.4459  0.8362
  364MOL0     O49006   0.264   3.962   1.717 -0.1503 -0.4100 -0.0637
  364MOL0     C49007   0.227   4.039   1.808  0.7578  0.3217  0.1904
  364MOL0     O49008   0.204   3.997   1.940 -0.0160  0.2330 -0.2572
  364MOL0     C49009   0.189   3.875   1.990  0.2698  0.1389 -0.3596
  364MOL0     C49010   0.117   3.773   1.933  0.5457  0.6063 -0.6532
  364MOL0     C49011   0.107   3.658   1.997 -0.8723  0.1437  0.0457
  364MOL0     C49012   0.176   3.620   2.114  1.3633  0.0329 -0.9751
  364MOL0     O49013   0.143   3.493   2.167  0.1494  0.0286 -0.2107
  364MOL0     C49014   0.196   3.451   2.290  0.8399  0.4402  0.3615
  364MOL0     C49015   0.329   3.377   2.271 -0.8262  0.6424 -0.0594
  364MOL0     C49016   0.333   3.260   2.171 -0.4210  0.6889  0.2281
  364MOL0     C49017   0.245   3.142   2.207  0.7266  0.1201 -0.0596
  364MOL0     C49018   0.174   3.074   2.079 -0.6282  0.2676 -1.0599
  364MOL0     C49019   0.287   3.024   1.982 -0.2682 -0.8279 -0.0093
  364MOL0     C49020   0.247   2.970   1.846  0.0446  0.4696  0.3331
  364MOL0     C49021   0.187   2.830   1.873 -0.8402 -1.1570 -0.1358
  364MOL0     N49022   0.127   2.782   1.751  0.2937  0.2710 -0.5176
  364MOL0     C49023   0.011   2.829   1.695 -1.3330  0.1976  0.1867
  364MOL0     C49024   0.015   2.790   1.564 -0.5376 -0.9971  0.6589
  364MOL0     C49025  -0.084   2.808   1.451 -0.2287 -0.4573 -0.0267
  364MOL0     C49026  -0.223   2.759   1.494 -0.1655  0.6012 -0.2105
  364MOL0     C49027  -0.313   2.780   1.374  0.2281 -0.1982  0.1166
  364MOL0     C49028  -0.451   2.713   1.388  0.8087 -0.1341  0.4771
  364MOL0     O49029  -0.537   2.772   1.293  0.2592 -0.7715 -0.4581
  364MOL0     C49030  -0.521   2.742   1.156 -0.1696  0.0177 -0.7687
  364MOL0     C49031  -0.436   2.645   1.115 -0.9363  0.4386 -0.4494
  364MOL0     C49032  -0.424   2.606   0.982  0.0126 -1.0005 -0.4011
  364MOL0     C49033  -0.520   2.654   0.889  0.9213  0.4284  0.9563
  364MOL0     C49034  -0.518   2.601   0.752  0.1935 -0.3629  0.2713
  364MOL0     O49035  -0.638   2.621   0.675 -0.6328  0.0303  0.3931
  364MOL0     C49036  -0.669   2.536   0.566  0.5608 -0.5354  0.0287
  364MOL0     C49037  -0.583   2.466   0.481 -0.3079 -0.1717  0.1472
  364MOL0     C49038  -0.632   2.392   0.373 -0.2182 -0.1704  0.2736
  364MOL0     C49039  -0.769   2.380   0.345  0.7340 -0.9012  0.5955
  364MOL0     O49040  -0.820   2.300   0.250 -0.0431  0.5908 -0.0561
  364MOL0     C49041  -0.762   2.322   0.119  0.5568 -0.0591  0.4262
  364MOL0     C49042  -0.736   2.190   0.057 -0.1895  0.7324  1.4207
  364MOL0     C49043  -0.612   2.112   0.107  0.7105 -0.7211 -0.1088
  364MOL0     C49044  -0.580   2.007   0.003  0.4921 -0.6514 -0.4574
  364MOL0     C49045  -0.461   1.925   0.047 -0.5359  0.1940 -0.3557
  364MOL0     C49046  -0.425   1.843  -0.072 -0.8078 -0.3478 -0.9578
  364MOL0     C49047  -0.317   1.732  -0.060 -0.1200  0.4658  0.1270
  364MOL0     C49048  -0.183   1.777  -0.025 -1.2440 -0.2974 -0.2846
  364MOL0    Cl49049  -0.150   1.914  -0.114 -0.0603  0.4463  0.0139
  364MOL0     C49050  -0.857   2.441   0.436  0.6148  0.3653 -0.1391
  364MOL0     C49051  -0.810   2.520   0.541  1.1757  0.4833  0.0552
  364MOL0     O49052  -0.420   2.543   0.717 -0.5104 -0.2746  0.0452
  364MOL0     C49053  -0.604   2.755   0.929 -0.3052  0.0388 -0.6650
  364MOL0     C49054  -0.609   2.808   1.062 -1.0545 -0.1939  0.1340
  364MOL0     N49055   0.134   2.727   1.545  0.0903  0.3289 -1.0112
  364MOL0     N49056   0.200   2.725   1.657  0.4776  0.0511  0.1711
  364MOL0     C49057   0.256   3.719   2.169  0.2989  0.8051  1.0427
  364MOL0     C49058   0.256   3.848   2.112  0.4439 -0.1349 -0.3022
  364MOL0     C49059   0.219   4.178   1.784 -0.3517 -0.5147 -0.3554
  364MOL0     C49060   0.278   4.229   1.667 -0.2124  0.7390  0.0606
  364MOL0     C49061   0.288   4.363   1.645  0.5657 -0.3134 -0.4124
  364MOL0     C49062   0.247   4.454   1.741 -1.2764  0.2486  1.4303
  364MOL0     O49063   0.273   4.582   1.703 -0.2535  0.2835  0.0003
  364MOL0     C49064   0.248   4.683   1.806 -0.6424 -0.7640 -0.1747
  364MOL0     C49065   0.356   4.791   1.815 -0.0744 -0.2034  1.3343
  364MOL0     C49066   0.341   4.887   1.698 -0.1837  0.1172 -0.2248
  364MOL0     C49067   0.426   5.009   1.713 -0.3133 -0.0151 -0.3801
  364MOL0     C49068   0.364   5.099   1.817  1.0273 -0.2060 -0.0935
  364MOL0     C49069   0.322   5.179   1.901  1.1939  0.8713  0.2328
  364MOL0     C49070   0.170   4.408   1.839 -0.4545 -1.0569 -0.2565
  364MOL0     C49071   0.153   4.271   1.866 -0.8969 -0.3082 -0.5476
  364MOL0     C49072   0.050   4.235   1.971 -0.6313 -0.2339 -0.8896
  364MOL0     H49073   0.052   3.804   1.852 -0.3829  0.2896 -0.0463
  364MOL0     H49074   0.051   3.575   1.956 -1.2786  0.0546  0.7663
  364MOL0     H49075   0.194   3.537   2.358 -2.1622  0.3168  0.5841
  364MOL0     H49076   0.126   3.382   2.339 -2.8332  2.5894 -1.4437
  364MOL0     H49077   0.361   3.344   2.370 -1.0730 -0.1645 -0.2448
  364MOL0     H49078   0.400   3.453   2.237 -0.9479  0.7398 -0.1010
  364MOL0     H49079   0.434   3.218   2.167  0.1078  1.7647  1.7006
  364MOL0     H49080   0.317   3.305   2.072  2.9590  0.7531 -0.3995
  364MOL0     H49081   0.300   3.068   2.266 -0.4804  1.7536  3.3982
  364MOL0     H49082   0.168   3.170   2.279 -0.2113 -3.3356  0.4467
  364MOL0     H49083   0.121   2.988   2.121 -1.9984  0.1535 -2.8822
  364MOL0     H49084   0.093   3.141   2.048 -1.3544  0.2762  0.7217
  364MOL0     H49085   0.343   3.116   1.964 -4.0720  2.0964  1.6218
  364MOL0     H49086   0.352   2.949   2.028  1.3132 -0.6845 -1.9087
  364MOL0     H49087   0.333   2.952   1.782  0.9978 -1.4831  2.0478
  364MOL0     H49088   0.177   3.041   1.801  0.7084  0.1035 -1.3130
  364MOL0     H49089   0.271   2.765   1.898 -1.4294 -1.7411  0.3275
  364MOL0     H49090   0.116   2.826   1.956  1.6576  0.7841  2.2934
  364MOL0     H49091  -0.064   2.885   1.749 -1.3612  1.9655 -1.5630
  364MOL0     H49092  -0.089   2.915   1.429 -0.7354  1.0602  5.8279
  364MOL0     H49093  -0.050   2.742   1.370 -1.1342 -1.4033  0.3449
  364MOL0     H49094  -0.223   2.652   1.513 -1.6483  0.9750  2.3053
  364MOL0     H49095  -0.252   2.803   1.590 -0.8321 -2.4507  1.0986
  364MOL0     H49096  -0.263   2.749   1.282  0.0762 -1.4856  0.4431
  364MOL0     H49097  -0.326   2.888   1.363 -0.3193  0.2083  3.6009
  364MOL0     H49098  -0.485   2.728   1.491 -1.0144 -4.2170  0.6663
  364MOL0     H49099  -0.459   2.604   1.383 -1.3341 -0.3899  4.6498
  364MOL0     H49100  -0.370   2.586   1.179 -2.8748 -0.8596  0.4284
  364MOL0     H49101  -0.353   2.528   0.956 -1.8317 -2.6371 -0.7436
  364MOL0     H49102  -0.479   2.466   0.513 -0.2967  1.2965  0.1523
  364MOL0     H49103  -0.566   2.343   0.302  0.0700  1.0822 -0.3464
  364MOL0     H49104  -0.838   2.375   0.061 -1.0358 -0.8472  1.6945
  364MOL0     H49105  -0.663   2.367   0.114 -0.1140  1.5798  1.0775
  364MOL0     H49106  -0.823   2.125   0.070  1.7719 -2.8623 -1.2487
  364MOL0     H49107  -0.729   2.201  -0.052 -3.1516 -1.1601  0.9165
  364MOL0     H49108  -0.535   2.190   0.107  0.4593 -0.4733 -0.0933
  364MOL0     H49109  -0.629   2.067   0.206  0.7794  0.6945  0.5699
  364MOL0     H49110  -0.560   2.063  -0.089 -0.3371 -2.2521 -1.6734
  364MOL0     H49111  -0.660   1.936  -0.021  0.3790 -0.8059  0.3541
  364MOL0     H49112  -0.473   1.862   0.136  0.0597  2.8967  1.7600
  364MOL0     H49113  -0.376   1.988   0.074  0.9043 -1.9534  0.3857
  364MOL0     H49114  -0.508   1.775  -0.095 -1.4988  0.9667 -2.4892
  364MOL0     H49115  -0.406   1.911  -0.155 -4.0437  0.2099 -1.3654
  364MOL0     H49116  -0.311   1.682  -0.157 -1.6351 -1.1016  0.7833
  364MOL0     H49117  -0.349   1.658   0.014  1.9770  0.6172  1.2575
  364MOL0     H49118  -0.187   1.790   0.084  0.7647 -0.8156 -0.1030
  364MOL0     H49119  -0.096   1.713  -0.041 -0.1088  1.4069 -1.2619
  364MOL0     H49120  -0.964   2.438   0.419  0.8470 -0.7958 -1.5651
  364MOL0     H49121  -0.880   2.577   0.601 -0.6049  0.3980 -1.8282
  364MOL0     H49122  -0.676   2.796   0.858 -3.7200 -2.2242  1.2175
  364MOL0     H49123  -0.669   2.889   1.101  2.3036  2.9083 -0.6001
  364MOL0     H49124   0.321   3.694   2.252 -0.9341  0.6068  1.9867
  364MOL0     H49125   0.310   3.933   2.150 -3.2865  3.6319 -2.5271
  364MOL0     H49126   0.326   4.162   1.596 -0.6202 -0.4496  0.8761
  364MOL0     H49127   0.338   4.398   1.555  0.1387  0.9945 -0.1697
  364MOL0     H49128   0.240   4.634   1.903 -0.9372 -0.9290 -0.2796
  364MOL0     H49129   0.150   4.723   1.780 -0.0392 -0.6085 -2.4141
  364MOL0     H49130   0.456   4.748   1.811  0.4594  1.0894 -0.5252
  364MOL0     H49131   0.354   4.844   1.911 -1.5933 -0.8736  1.6967
  364MOL0     H49132   0.235   4.915   1.706 -0.3124  0.8016 -3.2428
  364MOL0     H49133   0.363   4.828   1.609  3.3824 -1.4797  1.5056
  364MOL0     H49134   0.530   4.991   1.743 -0.3846  2.4641  1.6894
  364MOL0     H49135   0.428   5.050   1.612 -0.0604 -1.3524 -0.9346
  364MOL0     H49136   0.280   5.236   1.983  1.4231 -0.1318  1.0656
  364MOL0     H49137   0.104   4.477   1.891  0.9671  0.4434 -0.3688
  364MOL0     H49138  -0.024   4.316   1.976 -0.1903  0.0921  1.0153
  364MOL0     H49139  -0.013   4.155   1.930  2.5898 -2.7780 -1.2894
  364MOL0     H49140   0.101   4.221   2.067  0.3499  4.4996 -0.4415
  365MOL0     O49141   2.471   1.437   4.802  0.4503  0.1924 -0.3781
  365MOL0     C49142   2.394   1.481   4.888 -0.5431  0.1374 -0.5274
  365MOL0     O49143   2.266   1.442   4.904  0.5645 -0.0846 -0.0668
  365MOL0     C49144   2.194   1.400   4.793 -0.4068  0.3033  0.2995
  365MOL0     C49145   2.126   1.490   4.715  0.2051 -0.6230  0.9085
  365MOL0     C49146   2.080   1.436   4.586 -0.5163 -0.7479 -0.4252
  365MOL0     C49147   2.102   1.310   4.537  0.5131 -0.3326  0.4328
  365MOL0     O49148   2.036   1.270   4.422  0.1488 -0.3845 -0.4861
  365MOL0     C49149   2.080   1.151   4.360  0.3333  0.4664 -1.4412
  365MOL0     C49150   1.970   1.041   4.385 -0.3290 -0.9256  0.2003
  365MOL0     C49151   1.975   0.915   4.302 -0.8119  0.6154  0.4244
  365MOL0     C49152   2.105   0.834   4.321  0.1693  0.8159  0.1919
  365MOL0     C49153   2.110   0.700   4.233 -0.2159  0.1647 -0.1950
  365MOL0     C49154   2.257   0.642   4.226  0.2219 -0.6323 -0.0053
  365MOL0     C49155   2.274   0.504   4.156  1.0255 -0.5890  0.4843
  365MOL0     C49156   2.179   0.395   4.200 -0.2724  0.4996 -0.4122
  365MOL0     N49157   2.207   0.265   4.131 -0.9148  0.2258  0.0523
  365MOL0     C49158   2.315   0.181   4.163 -0.0461 -0.3815 -0.0169
  365MOL0     C49159   2.290   0.068   4.095 -0.8881 -0.4750 -1.0338
  365MOL0     C49160   2.363  -0.057   4.086 -0.3849 -0.3040  1.1674
  365MOL0     C49161   2.508  -0.050   4.019  0.6035 -0.3819 -0.6237
  365MOL0     C49162   2.519   0.006   3.879  0.0811  0.0973 -0.5220
  365MOL0     C49163   2.512   0.161   3.877  0.2232  0.9197  0.2730
  365MOL0     O49164   2.609   0.223   3.962  0.0599 -0.1965 -0.2191
  365MOL0     C49165   2.622   0.357   3.983 -0.7624 -0.0760  0.9632
  365MOL0     C49166   2.530   0.436   3.917  0.2588 -0.0347  0.7549
  365MOL0     C49167   2.540   0.568   3.934 -0.0078  0.5748  1.0962
  365MOL0     C49168   2.630   0.627   4.018 -0.7731 -0.5183  1.0195
  365MOL0     C49169   2.637   0.776   4.025 -0.7395  0.0168 -0.3682
  365MOL0     O49170   2.529   0.845   3.968  0.3166 -0.1173 -0.1179
  365MOL0     C49171   2.513   0.972   4.015 -0.4378 -0.7239 -0.4607
  365MOL0     C49172   2.620   1.069   4.006 -0.1130 -0.1321 -0.0542
  365MOL0     C49173   2.610   1.201   4.066  0.0388 -1.0397  0.2885
  365MOL0     C49174   2.492   1.236   4.138 -0.0686 -0.7780  0.5269
  365MOL0     O49175   2.494   1.356   4.211  0.5893  0.2050 -0.2600
  365MOL0     C49176   2.413   1.343   4.329  0.5567  0.1532 -0.3714
  365MOL0     C49177   2.437   1.452   4.430 -0.3006  0.3247 -0.3240
  365MOL0     C49178   2.429   1.597   4.372 -0.5277  0.0903 -0.3377
  365MOL0     C49179   2.295   1.635   4.294 -0.9210  0.5194 -1.2129
  365MOL0     C49180   2.276   1.789   4.284 -0.1762 -0.2343 -0.2929
  365MOL0     C49181   2.150   1.834   4.210 -0.1507  0.3573 -1.8174
  365MOL0     C49182   2.112   1.983   4.226  0.7106 -0.1162  0.1289
  365MOL0     C49183   1.993   2.014   4.130 -0.1590 -0.0089  1.7845
  365MOL0    Cl49184   1.852   1.939   4.180 -0.7156 -0.1607 -0.3512
  365MOL0     C49185   2.388   1.141   4.143  0.2232  0.3221 -0.4849
  365MOL0     C49186   2.403   1.010   4.080  0.9205  0.5799 -0.7388
  365MOL0     O49187   2.726   0.830   4.095 -0.2462  0.7771 -0.5831
  365MOL0     C49188   2.731   0.549   4.088 -0.3484 -0.9035 -0.0416
  365MOL0     C49189   2.724   0.417   4.066  0.2011 -0.2185  0.5271
  365MOL0     N49190   2.181   0.086   4.013  0.4354 -0.0966 -0.0135
  365MOL0     N49191   2.127   0.194   4.043 -0.2708 -0.3101 -0.4409
  365MOL0     C49192   2.150   1.217   4.635  0.3056 -0.3926  0.3183
  365MOL0     C49193   2.205   1.263   4.753  0.1312  0.6122 -0.3724
  365MOL0     C49194   2.442   1.550   5.004  0.2028  0.0298 -1.0472
  365MOL0     C49195   2.355   1.605   5.106  0.6547  0.3631 -0.1778
  365MOL0     C49196   2.399   1.688   5.208 -1.0761 -0.7557  0.0771
  365MOL0     C49197   2.540   1.713   5.218 -0.1539 -0.1887 -0.3159
  365MOL0     O49198   2.567   1.810   5.315  0.3775  0.4202  0.0230
  365MOL0     C49199   2.699   1.805   5.373  0.3339  0.8876  0.4863
  365MOL0     C49200   2.729   1.898   5.487 -0.2030 -1.1886  0.2502
  365MOL0     C49201   2.711   2.049   5.441 -0.3966  0.4193 -0.5032
  365MOL0     C49202   2.807   2.139   5.515  0.3291 -0.7028 -0.2756
  365MOL0     C49203   2.950   2.129   5.473  0.0933  0.0343 -0.1611
  365MOL0     C49204   3.060   2.121   5.435 -0.7132  0.7572  0.0678
  365MOL0     C49205   2.636   1.654   5.139  0.4920 -0.2775  0.2991
  365MOL0     C49206   2.581   1.586   5.024  0.7153  0.0922  0.2552
  365MOL0     C49207   2.695   1.547   4.929 -0.2263  0.0970 -0.4947
  365MOL0     H49208   2.121   1.594   4.746  3.3337  0.1590 -0.7631
  365MOL0     H49209   2.031   1.500   4.513  0.9703  0.8725 -0.0643
  365MOL0     H49210   2.079   1.173   4.253 -1.6146  1.2391 -1.3089
  365MOL0     H49211   2.174   1.112   4.398 -0.2452  0.8301  0.5099
  365MOL0     H49212   1.876   1.093   4.365 -0.6334 -1.1276  1.0706
  365MOL0     H49213   1.969   1.015   4.491 -0.2032 -0.1438  0.3936
  365MOL0     H49214   1.968   0.946   4.197 -0.5519 -0.2033  0.1568
  365MOL0     H49215   1.891   0.852   4.334 -1.4078  1.6027  0.8316
  365MOL0     H49216   2.185   0.906   4.302  1.5083 -0.3275  1.3070
  365MOL0     H49217   2.113   0.812   4.428  0.2407 -1.5264 -0.2492
  365MOL0     H49218   2.047   0.617   4.266 -0.5310 -0.0838 -1.3723
  365MOL0     H49219   2.067   0.727   4.136  0.6487  2.0449 -0.1179
  365MOL0     H49220   2.324   0.711   4.173 -1.1794  0.9254  0.1806
  365MOL0     H49221   2.297   0.638   4.328  0.4312 -3.9163 -0.1113
  365MOL0     H49222   2.378   0.473   4.164  1.6545  0.9513 -1.0385
  365MOL0     H49223   2.263   0.522   4.049  0.5604 -0.5838  0.5284
  365MOL0     H49224   2.191   0.377   4.307 -0.9337  0.2152 -0.3787
  365MOL0     H49225   2.076   0.432   4.187 -0.0639  0.7614 -1.4588
  365MOL0     H49226   2.406   0.211   4.215  0.7405 -2.4200 -0.1162
  365MOL0     H49227   2.367  -0.095   4.189  0.2697 -1.5630  0.7000
  365MOL0     H49228   2.296  -0.130   4.040 -0.9301  0.9608 -0.1290
  365MOL0     H49229   2.569   0.018   4.078  0.5259 -0.6503 -0.2358
  365MOL0     H49230   2.549  -0.152   4.015  0.5573 -0.3946 -0.7916
  365MOL0     H49231   2.445  -0.041   3.813  0.0471 -2.5412  1.2330
  365MOL0     H49232   2.613  -0.033   3.839  0.1211 -1.2156  0.7697
  365MOL0     H49233   2.408   0.186   3.901 -1.3299 -2.6238 -1.9865
  365MOL0     H49234   2.535   0.187   3.773 -1.6593 -0.4423 -0.5448
  365MOL0     H49235   2.472   0.404   3.830  1.2535  0.3550 -0.0677
  365MOL0     H49236   2.482   0.635   3.871  0.6049 -2.0076 -2.6015
  365MOL0     H49237   2.714   1.041   3.959 -1.7465 -4.2911 -1.3534
  365MOL0     H49238   2.697   1.265   4.059 -1.5262  1.0019 -2.2980
  365MOL0     H49239   2.305   1.344   4.307  0.7602 -1.8442 -1.7172
  365MOL0     H49240   2.427   1.253   4.390  1.2003 -0.3024 -1.1647
  365MOL0     H49241   2.375   1.441   4.520  0.0168 -2.2445 -0.3638
  365MOL0     H49242   2.539   1.432   4.464  0.0972  1.3512 -0.8615
  365MOL0     H49243   2.435   1.654   4.464 -2.7233 -3.2164  2.1064
  365MOL0     H49244   2.513   1.607   4.302 -1.0151 -2.6226 -1.4907
  365MOL0     H49245   2.213   1.582   4.344  1.0910 -2.5232 -0.8418
  365MOL0     H49246   2.283   1.597   4.192  0.8467  1.7795 -1.9493
  365MOL0     H49247   2.362   1.843   4.244 -1.8140  1.2834 -1.9526
  365MOL0     H49248   2.268   1.821   4.389  0.4578 -1.8475  0.2776
  365MOL0     H49249   2.154   1.803   4.106 -0.3544  3.0371 -2.6986
  365MOL0     H49250   2.071   1.772   4.254  1.7808 -3.0107 -2.6964
  365MOL0     H49251   2.197   2.046   4.198 -1.4267  2.9382  0.1180
  365MOL0     H49252   2.070   1.993   4.326 -1.8112 -0.7845 -0.7682
  365MOL0     H49253   1.973   2.120   4.113  4.0607  0.8051  0.7828
  365MOL0     H49254   2.011   1.964   4.034  2.8361  0.8014  1.8354
  365MOL0     H49255   2.294   1.168   4.189  1.3583 -0.0422  2.2588
  365MOL0     H49256   2.314   0.947   4.087 -0.7213  2.8599  0.1880
  365MOL0     H49257   2.800   0.594   4.159 -0.4463 -0.4501 -0.2273
  365MOL0     H49258   2.785   0.342   4.115  0.2824 -1.5747 -1.5455
  365MOL0     H49259   2.143   1.112   4.609  0.4125 -0.8499  1.9945
  365MOL0     H49260   2.259   1.189   4.811  0.7665 -0.2276 -1.9842
  365MOL0     H49261   2.251   1.575   5.117  0.5347  1.1898  1.0993
  365MOL0     H49262   2.332   1.725   5.284 -3.8139  0.3837 -2.6708
  365MOL0     H49263   2.766   1.844   5.296  2.3016 -0.8775  1.2209
  365MOL0     H49264   2.727   1.703   5.399  1.2299  1.2922  1.1642
  365MOL0     H49265   2.829   1.870   5.520 -0.4800  0.1269  2.3858
  365MOL0     H49266   2.671   1.876   5.577 -2.5991  0.3121 -0.8207
  365MOL0     H49267   2.607   2.073   5.462 -0.3773  2.0922 -2.1327
  365MOL0     H49268   2.738   2.064   5.336 -1.2697  0.4930 -0.7235
  365MOL0     H49269   2.775   2.241   5.493  0.5921 -0.9848 -2.0733
  365MOL0     H49270   2.793   2.134   5.624  2.4687  1.2660  0.1590
  365MOL0     H49271   3.164   2.104   5.413 -0.6848  1.2447 -0.1902
  365MOL0     H49272   2.741   1.677   5.153  0.1021  1.8095  0.0348
  365MOL0     H49273   2.707   1.439   4.918  2.6992  0.2877 -0.1704
  365MOL0     H49274   2.671   1.586   4.830  3.5820  3.8317 -0.2668
  365MOL0     H49275   2.793   1.590   4.955 -1.0114  0.6672  1.7378
  366MOL0     O49276   2.843  10.159   8.114 -1.1644  0.7095 -0.9322
  366MOL0     C49277   2.804  10.259   8.051  0.2004 -0.0587 -2.0317
  366MOL0     O49278   2.792  10.279   7.922 -0.5699  0.3683  0.4897
  366MOL0     C49279   2.822  10.172   7.838 -0.1070  0.3142  0.0507
  366MOL0     C49280   2.948  10.150   7.790 -0.5048 -0.8579 -0.1757
  366MOL0     C49281   2.965  10.048   7.698 -0.0693 -0.8457  0.1891
  366MOL0     C49282   2.853   9.966   7.659 -0.1778 -0.7223 -0.6563
  366MOL0     O49283   2.863   9.866   7.572  0.0590  0.5496  0.5427
  366MOL0     C49284   2.995   9.825   7.532 -0.6019  0.2734  0.7442
  366MOL0     C49285   2.997   9.679   7.502  0.4718 -1.2465  0.1184
  366MOL0     C49286   3.108   9.642   7.406 -0.9304  0.4380  0.1807
  366MOL0     C49287   3.128   9.495   7.381 -0.3731 -0.3857  1.3327
  366MOL0     C49288   3.227   9.479   7.276  0.3124  0.1102  0.3461
  366MOL0     C49289   3.285   9.332   7.273 -0.3942  0.5599 -0.2164
  366MOL0     C49290   3.413   9.299   7.178  0.6938  0.1544 -0.7222
  366MOL0     C49291   3.393   9.338   7.025  0.3627 -1.0333 -0.2378
  366MOL0     N49292   3.404   9.486   7.005  0.0965 -0.2477 -0.5100
  366MOL0     C49293   3.504   9.570   7.032 -0.5507  0.5204 -0.7763
  366MOL0     C49294   3.485   9.700   6.996 -1.3328 -0.6355 -0.5531
  366MOL0     C49295   3.585   9.822   6.997 -0.4011  0.5928  0.5027
  366MOL0     C49296   3.545   9.911   6.885 -0.2791  0.0625  0.1076
  366MOL0     C49297   3.426  10.008   6.928  0.5926  0.1824 -0.2365
  366MOL0     C49298   3.354  10.073   6.807 -0.5944 -0.7817 -0.0717
  366MOL0     O49299   3.455  10.169   6.750 -0.6169  0.6531 -0.3839
  366MOL0     C49300   3.393  10.242   6.650 -0.3453  0.5793  0.4951
  366MOL0     C49301   3.381  10.203   6.512  0.0438  0.9449  0.4252
  366MOL0     C49302   3.319  10.284   6.410  1.1844 -0.5988  0.4264
  366MOL0     C49303   3.289  10.419   6.447  0.4623  0.6142 -0.0523
  366MOL0     C49304   3.236  10.513   6.346 -0.4557  0.1744  0.0981
  366MOL0     O49305   3.192  10.626   6.386  0.1371 -0.3792 -0.1845
  366MOL0     C49306   3.128  10.729   6.322 -0.6506  0.1975  0.1122
  366MOL0     C49307   3.090  10.836   6.403 -0.1999  0.0305  0.0277
  366MOL0     C49308   3.031  10.947   6.354 -0.2144 -0.9332 -0.4556
  366MOL0     C49309   3.014  10.961   6.219 -0.0773 -0.0228  0.0679
  366MOL0     O49310   2.977  11.080   6.148 -0.5371  0.7327 -0.8772
  366MOL0     C49311   2.847  11.133   6.189  0.4969  0.6875  0.6865
  366MOL0     C49312   2.734  11.047   6.133  1.2623  0.4026  0.1780
  366MOL0     C49313   2.730  11.044   5.981 -0.6743 -0.5558  0.1959
  366MOL0     C49314   2.623  10.949   5.922  0.0718 -1.0604  0.3395
  366MOL0     C49315   2.622  10.959   5.766 -1.3990 -0.5720 -0.2273
  366MOL0     C49316   2.739  10.900   5.691  0.2582 -0.3076 -0.3100
  366MOL0     C49317   2.762  10.977   5.560  0.1313 -0.1754 -0.2667
  366MOL0     C49318   2.881  10.917   5.478  0.6265 -0.2223  0.1370
  366MOL0    Cl49319   3.023  10.906   5.579 -0.2572  0.5470 -0.3479
  366MOL0     C49320   3.041  10.852   6.131  0.2521 -0.2091 -0.6105
  366MOL0     C49321   3.089  10.727   6.185 -0.0570  0.0672 -0.4669
  366MOL0     O49322   3.232  10.474   6.228 -0.1687 -0.0549  0.2818
  366MOL0     C49323   3.290  10.451   6.585  0.5043  0.4825 -0.1295
  366MOL0     C49324   3.345  10.368   6.680  0.3086  0.1457 -0.7399
  366MOL0     N49325   3.355   9.694   6.961  0.9087 -0.7435  0.4296
  366MOL0     N49326   3.305   9.576   6.964  0.6615  0.1849 -0.8440
  366MOL0     C49327   2.721  10.001   7.704  0.4489  0.5032 -0.1568
  366MOL0     C49328   2.705  10.103   7.796 -0.6549 -0.0446  0.9753
  366MOL0     C49329   2.791  10.372   8.138 -0.4429  0.4511  0.2305
  366MOL0     C49330   2.733  10.489   8.079  0.5363  0.7250 -0.0340
  366MOL0     C49331   2.704  10.604   8.154  0.2400 -0.8710 -0.3459
  366MOL0     C49332   2.737  10.614   8.285  0.2074 -0.7950 -0.3492
  366MOL0     O49333   2.720  10.726   8.362 -0.0638 -0.8501  0.3868
  366MOL0     C49334   2.618  10.816   8.312 -0.5348 -0.2939 -0.4448
  366MOL0     C49335   2.600  10.940   8.415 -0.2497  0.1300 -0.1012
  366MOL0     C49336   2.713  11.047   8.400 -0.7532  0.1651 -0.1260
  366MOL0     C49337   2.726  11.129   8.531 -0.5864  0.7295 -0.0312
  366MOL0     C49338   2.846  11.209   8.550 -0.9586  0.4262 -0.4750
  366MOL0     C49339   2.961  11.259   8.566  0.1090 -0.6007 -0.2238
  366MOL0     C49340   2.799  10.505   8.343  0.2974 -0.0555 -0.0358
  366MOL0     C49341   2.829  10.386   8.277 -0.5744  0.5054 -0.0301
  366MOL0     C49342   2.883  10.280   8.377  0.2287  0.2558  0.5092
  366MOL0     H49343   3.031  10.213   7.820 -0.3885 -0.7085 -0.8137
  366MOL0     H49344   3.060  10.030   7.650 -1.1790 -2.5261 -1.5590
  366MOL0     H49345   3.026   9.879   7.442 -0.9163 -2.0704 -0.8636
  366MOL0     H49346   3.066   9.837   7.614 -2.3251  1.1898  2.1662
  366MOL0     H49347   2.914   9.647   7.439  0.8290  0.2238 -1.1700
  366MOL0     H49348   2.997   9.625   7.597 -0.3348 -1.8428 -0.2081
  366MOL0     H49349   3.205   9.688   7.429  0.2181 -2.5464  1.8360
  366MOL0     H49350   3.080   9.691   7.312  0.8075  0.5702 -0.3117
  366MOL0     H49351   3.174   9.440   7.464  0.0863  0.8755  1.9440
  366MOL0     H49352   3.033   9.445   7.360 -0.1041 -0.2922 -0.1648
  366MOL0     H49353   3.189   9.487   7.174  2.2350 -0.7880 -0.5034
  366MOL0     H49354   3.297   9.563   7.283  1.9583 -1.3189  2.4098
  366MOL0     H49355   3.314   9.299   7.373  0.0206  1.1266 -0.1460
  366MOL0     H49356   3.196   9.274   7.246 -0.4708  1.1658 -1.3441
  366MOL0     H49357   3.437   9.193   7.188 -1.4977 -0.4810 -1.4918
  366MOL0     H49358   3.506   9.341   7.217  1.7276 -0.8103 -2.0917
  366MOL0     H49359   3.467   9.305   6.952 -2.1510 -2.4560 -2.3316
  366MOL0     H49360   3.296   9.303   6.987  0.3343 -0.5004 -0.6819
  366MOL0     H49361   3.601   9.549   7.076  0.0409  2.4976 -1.0673
  366MOL0     H49362   3.597   9.878   7.090 -1.3823  1.6645  0.0204
  366MOL0     H49363   3.687   9.793   6.971  0.8152  4.3199  0.3924
  366MOL0     H49364   3.635   9.968   6.863 -0.4868  0.4933  0.3650
  366MOL0     H49365   3.519   9.844   6.802 -0.5448 -1.3977  1.3267
  366MOL0     H49366   3.463  10.086   6.994 -3.2845  2.4786 -0.4196
  366MOL0     H49367   3.348   9.958   6.987  0.0908  1.1287 -0.0830
  366MOL0     H49368   3.270  10.130   6.849  0.7976 -0.1302  1.9323
  366MOL0     H49369   3.327  10.008   6.723 -1.4333  2.1140 -2.2242
  366MOL0     H49370   3.408  10.101   6.487 -2.1301  1.6349 -7.0939
  366MOL0     H49371   3.310  10.256   6.305  1.2031 -0.9925  0.5302
  366MOL0     H49372   3.112  10.833   6.509 -3.1538 -0.9252  0.6824
  366MOL0     H49373   3.000  11.023   6.426 -1.1055 -2.1670  0.5109
  366MOL0     H49374   2.829  11.134   6.297 -3.2455  2.2876  0.2139
  366MOL0     H49375   2.840  11.240   6.165  1.4717  0.4249 -0.8835
  366MOL0     H49376   2.741  10.945   6.171 -1.3067 -1.2921 -3.3751
  366MOL0     H49377   2.639  11.093   6.158 -0.1428 -0.1836 -3.4930
  366MOL0     H49378   2.702  11.147   5.955  0.4831 -0.3194 -0.1414
  366MOL0     H49379   2.832  11.031   5.944 -0.4154 -0.5170  0.8939
  366MOL0     H49380   2.526  10.985   5.957  0.8974  0.7390  0.8541
  366MOL0     H49381   2.638  10.844   5.952  0.8991 -0.6116  1.5755
  366MOL0     H49382   2.624  11.067   5.748  0.0839 -0.1829  1.8117
  366MOL0     H49383   2.533  10.903   5.738 -2.0771  0.1991  0.3429
  366MOL0     H49384   2.834  10.918   5.743  1.7802  1.5637 -3.4156
  366MOL0     H49385   2.730  10.792   5.677  3.2587 -0.7290  0.2415
  366MOL0     H49386   2.772  11.082   5.589  0.9768 -0.3415  0.0910
  366MOL0     H49387   2.673  10.983   5.497  1.7222 -0.0623 -2.5920
  366MOL0     H49388   2.857  10.810   5.472  1.1452 -0.3788  0.7351
  366MOL0     H49389   2.890  10.968   5.382 -2.2607  1.6595  0.7391
  366MOL0     H49390   3.027  10.880   6.027  1.2118  4.4471  0.2937
  366MOL0     H49391   3.123  10.653   6.113  1.4138 -1.3822  1.5845
  366MOL0     H49392   3.266  10.551   6.620 -0.9221  0.6075 -1.3421
  366MOL0     H49393   3.361  10.409   6.779  1.4641 -1.7205 -0.0900
  366MOL0     H49394   2.634   9.949   7.665 -0.4826  0.6443  1.6308
  366MOL0     H49395   2.605  10.131   7.829 -0.7971  0.3391  0.2458
  366MOL0     H49396   2.721  10.488   7.971  1.0459 -3.4004 -0.2482
  366MOL0     H49397   2.664  10.690   8.102  1.1726 -0.4177 -0.3364
  366MOL0     H49398   2.526  10.763   8.284  0.5877 -1.3657 -2.2857
  366MOL0     H49399   2.651  10.853   8.215  0.8647  0.1212  0.1612
  366MOL0     H49400   2.588  10.906   8.518  0.1648 -1.9224 -0.6791
  366MOL0     H49401   2.513  10.993   8.376  0.4125  0.5173 -1.1170
  366MOL0     H49402   2.690  11.113   8.316 -3.7358 -0.1069  0.3821
  366MOL0     H49403   2.809  10.995   8.386 -0.4408  1.2905 -2.8648
  366MOL0     H49404   2.636  11.188   8.550 -2.5397 -1.9938 -0.2499
  366MOL0     H49405   2.726  11.060   8.616 -0.3262  0.7525 -0.0094
  366MOL0     H49406   3.064  11.281   8.583  0.0248 -1.7929  2.1603
  366MOL0     H49407   2.816  10.523   8.449 -0.6030 -0.4374  0.1849
  366MOL0     H49408   2.933  10.339   8.454  2.7861  1.3524 -1.8410
  366MOL0     H49409   2.797  10.224   8.415 -0.4882  0.4487 -0.7699
  366MOL0     H49410   2.962  10.212   8.344  3.2235  1.8741  3.7072
  367MOL0     O49411   4.903   3.495   1.835 -0.4141 -0.4097 -0.4306
  367MOL0     C49412   4.882   3.596   1.764 -0.0011 -0.3796 -0.5217
  367MOL0     O49413   4.791   3.696   1.797 -0.2513  0.0893  0.0663
  367MOL0     C49414   4.715   3.686   1.911 -1.2532  0.2525 -0.8283
  367MOL0     C49415   4.752   3.761   2.024 -0.2081  0.0286 -0.5801
  367MOL0     C49416   4.658   3.760   2.134 -0.2352  0.0200  0.3163
  367MOL0     C49417   4.531   3.702   2.118  0.0531 -0.6035  0.3586
  367MOL0     O49418   4.431   3.724   2.204 -0.1717 -0.1247  0.2972
  367MOL0     C49419   4.312   3.797   2.159 -0.3647  0.8272 -0.9351
  367MOL0     C49420   4.284   3.907   2.258 -0.2696 -1.0021 -0.6057
  367MOL0     C49421   4.132   3.939   2.253 -0.1169 -0.1758 -0.1089
  367MOL0     C49422   4.110   4.048   2.350 -0.3223 -0.0794  0.2012
  367MOL0     C49423   3.958   4.071   2.378 -0.4794 -0.4354  0.2803
  367MOL0     C49424   3.923   4.209   2.436  0.7198  0.5324  0.5503
  367MOL0     C49425   3.778   4.234   2.462  0.4302 -0.2550 -0.8514
  367MOL0     C49426   3.731   4.139   2.580 -0.3336  1.1496 -0.1933
  367MOL0     N49427   3.581   4.162   2.582  0.0821  0.0119  0.7189
  367MOL0     C49428   3.492   4.073   2.535 -0.4223  0.5760 -0.4161
  367MOL0     C49429   3.372   4.100   2.606  0.1971  0.3199 -0.2335
  367MOL0     C49430   3.246   4.019   2.592 -0.2524  0.9168  0.6146
  367MOL0     C49431   3.190   4.009   2.451 -0.7734 -0.7894  0.8640
  367MOL0     C49432   3.138   4.151   2.419 -0.1831 -0.1354 -0.8024
  367MOL0     C49433   3.110   4.146   2.275 -0.9094 -0.4069  0.5508
  367MOL0     O49434   3.222   4.086   2.193 -0.0287  0.6747 -0.5663
  367MOL0     C49435   3.224   4.098   2.056 -0.2479 -0.3015 -0.6188
  367MOL0     C49436   3.319   4.018   1.999  0.5495 -0.2236  0.7771
  367MOL0     C49437   3.333   4.017   1.863  0.4173 -1.0876 -0.0723
  367MOL0     C49438   3.253   4.100   1.787  0.6589  0.0774 -0.0172
  367MOL0     C49439   3.254   4.102   1.637  0.3508 -0.4129 -0.6286
  367MOL0     O49440   3.334   4.012   1.572 -0.3942 -0.1460 -0.3233
  367MOL0     C49441   3.351   4.009   1.440 -0.3856 -0.0951  0.2839
  367MOL0     C49442   3.455   3.921   1.412  0.8127 -0.3136  0.5593
  367MOL0     C49443   3.483   3.886   1.280  0.4041  0.1442 -0.2254
  367MOL0     C49444   3.397   3.927   1.174 -0.4306 -0.2246  0.4091
  367MOL0     O49445   3.427   3.881   1.051 -0.6938  0.0219 -0.4878
  367MOL0     C49446   3.323   3.886   0.951 -0.1149 -0.6451 -0.1690
  367MOL0     C49447   3.347   3.798   0.828 -0.1353 -0.5810  0.8637
  367MOL0     C49448   3.483   3.839   0.768 -0.6615  0.4698  1.0138
  367MOL0     C49449   3.499   3.989   0.721 -0.0082  0.3243 -0.0925
  367MOL0     C49450   3.439   4.007   0.581  0.4979  0.1134  0.3651
  367MOL0     C49451   3.411   4.159   0.553 -0.1955  0.1072  1.0016
  367MOL0     C49452   3.376   4.178   0.405  0.2638  0.4842 -0.7993
  367MOL0     C49453   3.358   4.325   0.365 -0.7772  0.2452 -0.3324
  367MOL0    Cl49454   3.317   4.336   0.197 -0.3908 -0.3863  0.4528
  367MOL0     C49455   3.291   4.012   1.200  0.3928  0.4097  0.2352
  367MOL0     C49456   3.274   4.062   1.336 -0.5085 -0.2016  0.5510
  367MOL0     O49457   3.182   4.191   1.585  0.1035  0.0485 -0.2169
  367MOL0     C49458   3.161   4.186   1.852 -0.5623  0.0132 -0.6309
  367MOL0     C49459   3.150   4.185   1.986  0.2603  0.1956 -0.7349
  367MOL0     N49460   3.405   4.200   2.696 -0.3925 -0.0505 -0.6036
  367MOL0     N49461   3.530   4.235   2.686  0.1496  0.1734 -0.3664
  367MOL0     C49462   4.510   3.632   2.003  0.3625 -1.0926 -1.3390
  367MOL0     C49463   4.604   3.613   1.905  0.1688  0.4151  0.4953
  367MOL0     C49464   4.959   3.616   1.645  0.3544 -0.2273 -1.0954
  367MOL0     C49465   5.011   3.740   1.631 -0.7079 -1.2244 -0.2526
  367MOL0     C49466   5.088   3.785   1.517 -0.8379 -0.3035 -0.2545
  367MOL0     C49467   5.118   3.687   1.410 -0.6845 -0.1135  0.1801
  367MOL0     O49468   5.185   3.701   1.286 -0.3065  0.5846  0.6433
  367MOL0     C49469   5.220   3.826   1.237  1.1089 -1.1266 -1.3025
  367MOL0     C49470   5.373   3.839   1.256 -0.2593  0.0053 -0.8157
  367MOL0     C49471   5.450   3.955   1.187 -0.1290  0.6616  0.3371
  367MOL0     C49472   5.359   4.064   1.129  0.4164  0.0857  0.4023
  367MOL0     C49473   5.309   4.011   0.997  0.0953 -0.3282 -0.5115
  367MOL0     C49474   5.264   3.955   0.909  0.5291  0.2157  0.4836
  367MOL0     C49475   5.076   3.559   1.433  0.3479  0.0049  0.8037
  367MOL0     C49476   4.992   3.525   1.541  0.1166  1.0034 -0.2893
  367MOL0     C49477   4.964   3.377   1.563 -0.6681  0.5947  0.3996
  367MOL0     H49478   4.843   3.819   2.030  1.0879 -1.6252 -2.7907
  367MOL0     H49479   4.663   3.817   2.226  1.2987  0.5666 -0.0829
  367MOL0     H49480   4.319   3.835   2.056 -1.1228  0.4628 -1.1311
  367MOL0     H49481   4.232   3.723   2.160  1.6831 -1.5494 -2.1497
  367MOL0     H49482   4.352   3.992   2.243 -0.4550 -0.7459 -0.0023
  367MOL0     H49483   4.323   3.865   2.351  2.3461 -1.0962 -1.6712
  367MOL0     H49484   4.087   3.847   2.292 -3.7385  1.3786 -0.2734
  367MOL0     H49485   4.087   3.953   2.155 -1.3499 -0.9335  0.3247
  367MOL0     H49486   4.160   4.020   2.443 -0.7123 -1.7344 -0.0375
  367MOL0     H49487   4.158   4.138   2.313 -1.4523 -0.1099 -1.4856
  367MOL0     H49488   3.923   4.066   2.274  3.6800  1.6805 -1.4360
  367MOL0     H49489   3.918   3.995   2.447 -1.8580  0.5495  0.6160
  367MOL0     H49490   3.989   4.213   2.523  3.2139 -1.8497 -1.0794
  367MOL0     H49491   3.949   4.281   2.358 -2.3497  2.5031  1.1862
  367MOL0     H49492   3.716   4.219   2.374 -1.9839  2.2518  0.2373
  367MOL0     H49493   3.764   4.339   2.491  1.0908 -0.0227 -1.3550
  367MOL0     H49494   3.746   4.033   2.561 -1.6797  1.0739 -0.9635
  367MOL0     H49495   3.779   4.162   2.676  0.9038 -2.0327  0.0577
  367MOL0     H49496   3.511   3.998   2.459  0.5383  1.4526 -1.0651
  367MOL0     H49497   3.269   3.917   2.623  0.4418  0.1113 -2.2478
  367MOL0     H49498   3.170   4.052   2.664  0.5997 -1.4443  2.7536
  367MOL0     H49499   3.280   3.981   2.394 -1.9561  0.0276 -1.5083
  367MOL0     H49500   3.119   3.929   2.430  1.3034 -2.4136 -0.3990
  367MOL0     H49501   3.222   4.217   2.444  1.7427 -1.9347 -2.1480
  367MOL0     H49502   3.048   4.171   2.478 -2.0728 -0.6325 -3.3447
  367MOL0     H49503   3.089   4.247   2.237 -1.9867 -1.5868 -2.2199
  367MOL0     H49504   3.013   4.098   2.262  0.6404 -3.4964 -0.6168
  367MOL0     H49505   3.379   3.950   2.058  1.3013 -1.1390 -0.9593
  367MOL0     H49506   3.401   3.942   1.825 -0.1466 -2.3786  1.3517
  367MOL0     H49507   3.512   3.872   1.490  3.2917 -0.6731 -1.3664
  367MOL0     H49508   3.565   3.826   1.243  1.4864  2.2065 -1.3837
  367MOL0     H49509   3.239   3.828   0.992 -2.5940  0.6198 -3.0286
  367MOL0     H49510   3.304   3.985   0.909  1.5330 -1.1159 -2.2129
  367MOL0     H49511   3.355   3.692   0.855 -0.8746 -0.7803  0.3120
  367MOL0     H49512   3.261   3.803   0.760  0.0243  0.2566  0.7142
  367MOL0     H49513   3.566   3.836   0.839  0.0083  0.6367  0.2447
  367MOL0     H49514   3.521   3.775   0.688  2.4918 -0.9229  3.4140
  367MOL0     H49515   3.603   4.025   0.726 -0.6222  2.0428  1.7271
  367MOL0     H49516   3.458   4.050   0.802  1.1857 -3.4090  3.7314
  367MOL0     H49517   3.348   3.948   0.569  1.0548 -0.9288  1.0189
  367MOL0     H49518   3.511   3.962   0.512  1.3032  2.2676 -0.2788
  367MOL0     H49519   3.334   4.193   0.623 -0.9798  2.0009 -0.6839
  367MOL0     H49520   3.501   4.218   0.577  1.7085 -0.6309 -3.3372
  367MOL0     H49521   3.289   4.119   0.375  0.5730 -0.7400  0.6354
  367MOL0     H49522   3.455   4.131   0.345 -0.4262 -0.8443 -0.6906
  367MOL0     H49523   3.277   4.376   0.418 -1.0429 -1.6517  1.1969
  367MOL0     H49524   3.455   4.373   0.380  0.1036 -0.7431 -2.4149
  367MOL0     H49525   3.218   4.064   1.138 -0.9566  0.9254  2.1567
  367MOL0     H49526   3.187   4.125   1.352  2.1653  3.5624  1.5955
  367MOL0     H49527   3.107   4.267   1.803  0.8142  0.6800 -1.1256
  367MOL0     H49528   3.087   4.258   2.035 -1.3618 -0.5900 -1.5708
  367MOL0     H49529   4.405   3.605   2.001 -1.5347  3.8638  3.7297
  367MOL0     H49530   4.579   3.557   1.816  1.0544 -0.9726  1.0801
  367MOL0     H49531   4.987   3.819   1.702 -0.5744 -1.3632 -0.0535
  367MOL0     H49532   5.119   3.889   1.519 -1.5019 -0.0955  1.0303
  367MOL0     H49533   5.173   3.914   1.281  0.6480 -0.7809 -2.4469
  367MOL0     H49534   5.193   3.828   1.131 -1.5897 -0.1317 -0.6641
  367MOL0     H49535   5.423   3.744   1.232 -0.5383 -0.2754 -0.3005
  367MOL0     H49536   5.377   3.853   1.365  1.5882 -1.4089 -0.6423
  367MOL0     H49537   5.503   3.913   1.101 -0.6378 -1.8816  1.1940
  367MOL0     H49538   5.522   3.997   1.259 -0.0939  0.7749  0.2370
  367MOL0     H49539   5.274   4.099   1.189  0.7971  0.4277  0.7450
  367MOL0     H49540   5.404   4.162   1.113 -0.1780  0.4100  0.6610
  367MOL0     H49541   5.231   3.888   0.832 -0.8711 -0.2369  1.4523
  367MOL0     H49542   5.090   3.481   1.358  4.9527  2.1588 -0.9602
  367MOL0     H49543   4.864   3.345   1.596 -0.0022 -1.1008  0.9112
  367MOL0     H49544   4.985   3.318   1.473 -1.7241 -2.1377  1.8111
  367MOL0     H49545   5.046   3.350   1.629 -0.7535 -1.9697 -0.4189
  368MOL0     O49546   6.274   7.718   4.012  0.7911 -0.0390  0.1789
  368MOL0     C49547   6.217   7.621   3.968 -0.4002 -0.9620 -0.4950
  368MOL0     O49548   6.080   7.600   3.969 -0.7255 -0.5370 -0.2178
  368MOL0     C49549   6.011   7.707   4.018  0.1237  1.3706  0.6921
  368MOL0     C49550   5.962   7.814   3.936 -0.3447 -0.1684  0.1534
  368MOL0     C49551   5.882   7.915   3.978  0.0272 -0.2735 -0.4537
  368MOL0     C49552   5.831   7.906   4.110  0.3268  0.3017  0.4044
  368MOL0     O49553   5.739   8.004   4.140 -0.3729 -0.0290  0.3003
  368MOL0     C49554   5.663   7.991   4.263  0.1187 -0.7063 -0.0329
  368MOL0     C49555   5.582   8.124   4.293 -0.2384 -0.2626  0.1653
  368MOL0     C49556   5.669   8.241   4.329 -0.3475 -0.2868  0.2404
  368MOL0     C49557   5.589   8.368   4.370  0.5140 -1.0223 -0.1674
  368MOL0     C49558   5.672   8.496   4.382  0.1687  1.0389  0.0719
  368MOL0     C49559   5.587   8.617   4.405  0.0994  0.5026 -0.0364
  368MOL0     C49560   5.659   8.755   4.391 -0.2856  0.6024  0.2496
  368MOL0     C49561   5.567   8.877   4.415  0.8261 -0.1895 -0.5938
  368MOL0     N49562   5.545   8.880   4.563  0.3973  0.2866  0.9578
  368MOL0     C49563   5.650   8.898   4.655 -0.9501  0.0240  0.6377
  368MOL0     C49564   5.584   8.906   4.773  0.0625 -0.2568 -0.3125
  368MOL0     C49565   5.648   8.920   4.909 -0.5187  0.5479 -0.3432
  368MOL0     C49566   5.701   9.065   4.953  0.3266  0.5869 -0.2107
  368MOL0     C49567   5.585   9.164   4.949 -0.3273 -0.3987  0.3915
  368MOL0     C49568   5.647   9.308   4.950 -0.3823  0.9663 -0.7009
  368MOL0     O49569   5.550   9.398   5.009  0.6589  0.2563 -0.2304
  368MOL0     C49570   5.598   9.513   5.074  0.6294  0.0528 -0.2913
  368MOL0     C49571   5.508   9.607   5.133 -0.4854  0.0435  0.1264
  368MOL0     C49572   5.563   9.722   5.195  0.3150  0.1257 -0.6762
  368MOL0     C49573   5.695   9.756   5.186 -0.4465 -0.4575 -0.5589
  368MOL0     C49574   5.734   9.872   5.271  0.1804  0.5313  0.5138
  368MOL0     O49575   5.639   9.933   5.349 -0.2634  0.0078 -0.5454
  368MOL0     C49576   5.661  10.052   5.415 -0.7077  0.3908  0.1632
  368MOL0     C49577   5.553  10.141   5.422 -0.7708  0.0663 -0.0280
  368MOL0     C49578   5.565  10.268   5.476  0.0356 -0.3009 -0.0156
  368MOL0     C49579   5.670  10.303   5.560 -0.5511  0.2192  0.3078
  368MOL0     O49580   5.654  10.418   5.629 -0.3758 -0.0119  0.4653
  368MOL0     C49581   5.739  10.430   5.747  0.6447 -1.1711  1.2979
  368MOL0     C49582   5.691  10.551   5.838  0.3220 -0.7912  0.3496
  368MOL0     C49583   5.542  10.523   5.875 -1.0831 -0.8655 -0.4640
  368MOL0     C49584   5.491  10.625   5.978 -0.0007 -0.4672  1.3275
  368MOL0     C49585   5.334  10.613   5.989  0.3561 -0.1825  0.6233
  368MOL0     C49586   5.280  10.684   6.111  0.3120  0.8424 -0.6218
  368MOL0     C49587   5.312  10.834   6.114  0.8226 -0.5791 -0.3561
  368MOL0     C49588   5.220  10.929   6.186  0.8802  0.2244  0.3725
  368MOL0    Cl49589   5.075  10.944   6.086 -0.1226  0.6378 -0.2931
  368MOL0     C49590   5.782  10.217   5.547 -0.7625 -0.1950  0.6254
  368MOL0     C49591   5.778  10.098   5.472  0.5461  1.4180  0.2810
  368MOL0     O49592   5.850   9.908   5.257 -0.3083 -0.5758 -1.4153
  368MOL0     C49593   5.783   9.665   5.116  0.4610  0.2074  0.8579
  368MOL0     C49594   5.739   9.548   5.062  0.5415 -0.5837  0.0339
  368MOL0     N49595   5.451   8.888   4.750  0.7000 -0.8930 -0.5656
  368MOL0     N49596   5.420   8.889   4.620 -0.0157 -0.1694  0.1105
  368MOL0     C49597   5.871   7.801   4.190 -0.1005 -0.5976  0.0511
  368MOL0     C49598   5.964   7.709   4.148 -0.0181  0.7150 -0.6333
  368MOL0     C49599   6.298   7.519   3.893 -0.1058  0.5732  0.7731
  368MOL0     C49600   6.231   7.394   3.873 -0.5607 -0.3306 -1.2659
  368MOL0     C49601   6.294   7.285   3.810 -0.2433  0.3910  0.2613
  368MOL0     C49602   6.430   7.295   3.772  0.6873 -0.0247  0.0636
  368MOL0     O49603   6.492   7.183   3.725  0.3696  0.3273  0.0942
  368MOL0     C49604   6.451   7.139   3.601  0.4286 -0.5977 -0.0029
  368MOL0     C49605   6.550   7.023   3.561  1.5645  0.4770 -0.1703
  368MOL0     C49606   6.495   6.957   3.433 -0.6602 -0.6255  0.0346
  368MOL0     C49607   6.593   6.955   3.321 -0.1553  0.8489 -0.1736
  368MOL0     C49608   6.540   6.863   3.216 -0.0243 -0.7599 -0.9862
  368MOL0     C49609   6.483   6.792   3.135 -0.3991  0.8354  0.2262
  368MOL0     C49610   6.500   7.416   3.791  0.3074  0.6950  0.7799
  368MOL0     C49611   6.434   7.526   3.850 -0.6166  0.6080 -0.2165
  368MOL0     C49612   6.522   7.642   3.850 -0.6563 -1.5172  0.3676
  368MOL0     H49613   5.986   7.819   3.830  1.2076 -0.7790  0.4449
  368MOL0     H49614   5.830   7.978   3.907 -2.3834  0.0750  1.4950
  368MOL0     H49615   5.589   7.911   4.254  0.6928 -1.3373  0.8397
  368MOL0     H49616   5.725   7.963   4.349 -0.7191  0.3405  0.9520
  368MOL0     H49617   5.503   8.127   4.369 -2.5262  4.6956 -1.9260
  368MOL0     H49618   5.521   8.157   4.208 -0.9305  2.5905  1.6423
  368MOL0     H49619   5.737   8.256   4.245  2.8140 -4.2785  1.7695
  368MOL0     H49620   5.738   8.219   4.412  0.8792  2.8670  0.1870
  368MOL0     H49621   5.513   8.387   4.293 -0.7033 -1.4538  0.8963
  368MOL0     H49622   5.551   8.344   4.469  4.8826 -0.5590  1.8487
  368MOL0     H49623   5.738   8.478   4.467 -1.7833 -4.9309  0.8533
  368MOL0     H49624   5.726   8.511   4.288  4.3783 -5.3511  0.8222
  368MOL0     H49625   5.489   8.614   4.355 -0.5336  0.4495  1.1650
  368MOL0     H49626   5.551   8.612   4.508 -1.9317  0.4766 -0.6975
  368MOL0     H49627   5.700   8.751   4.290  2.6776 -1.7442  1.3986
  368MOL0     H49628   5.750   8.756   4.452  2.6483  2.1391 -3.7244
  368MOL0     H49629   5.620   8.969   4.388  2.2438 -1.0952 -0.9701
  368MOL0     H49630   5.476   8.880   4.355  0.5077  5.6716 -0.4440
  368MOL0     H49631   5.758   8.911   4.656 -0.7513 -1.4620  1.6543
  368MOL0     H49632   5.581   8.882   4.987  1.0705 -2.1170 -0.1452
  368MOL0     H49633   5.727   8.844   4.916  0.8359  1.8100 -1.2253
  368MOL0     H49634   5.732   9.053   5.057  0.7109 -0.1864 -0.4104
  368MOL0     H49635   5.782   9.088   4.883  2.4294  0.8060  2.1424
  368MOL0     H49636   5.515   9.166   5.033  0.5660  1.5382  1.1452
  368MOL0     H49637   5.529   9.158   4.855 -1.0343  4.1982  0.3005
  368MOL0     H49638   5.672   9.354   4.854 -0.7703 -2.5217 -2.6656
  368MOL0     H49639   5.738   9.295   5.009  0.2712 -0.2978 -1.9220
  368MOL0     H49640   5.403   9.595   5.159 -1.0776  1.5616 -1.3832
  368MOL0     H49641   5.489   9.788   5.239  1.6275  0.1254  1.7533
  368MOL0     H49642   5.465  10.106   5.368 -0.2422  2.2985 -2.5795
  368MOL0     H49643   5.489  10.346   5.478 -0.7046 -0.9008 -2.3208
  368MOL0     H49644   5.740  10.331   5.794  2.8381 -1.6322  0.3836
  368MOL0     H49645   5.841  10.449   5.714 -0.2482 -0.0809 -1.0410
  368MOL0     H49646   5.748  10.556   5.932  0.2358 -0.4253  0.3838
  368MOL0     H49647   5.707  10.647   5.787  0.9557  0.1578  2.2160
  368MOL0     H49648   5.471  10.512   5.792 -0.4978  0.0117 -1.0941
  368MOL0     H49649   5.545  10.431   5.936  3.4777  0.9235  2.5439
  368MOL0     H49650   5.513  10.719   5.927 -1.2408 -1.4314 -1.1716
  368MOL0     H49651   5.545  10.611   6.072  0.1740  1.3697  1.5489
  368MOL0     H49652   5.317  10.506   6.006 -0.0669 -0.3116 -0.5091
  368MOL0     H49653   5.292  10.649   5.894  3.8881  1.2533 -0.5725
  368MOL0     H49654   5.172  10.672   6.107  0.2667  1.5604 -2.2548
  368MOL0     H49655   5.322  10.639   6.201 -1.3988  1.6974  0.6656
  368MOL0     H49656   5.310  10.866   6.009  1.6921  3.2532  0.6391
  368MOL0     H49657   5.414  10.860   6.145  0.9069 -0.5238 -0.6695
  368MOL0     H49658   5.198  10.874   6.278  2.0396 -1.7703 -0.4980
  368MOL0     H49659   5.263  11.022   6.222  2.4930 -0.9531  1.6232
  368MOL0     H49660   5.877  10.224   5.599 -1.3790 -2.7655  2.2994
  368MOL0     H49661   5.867  10.036   5.462 -0.0062  0.6720 -0.0763
  368MOL0     H49662   5.888   9.692   5.110  0.5174 -0.1244  0.2781
  368MOL0     H49663   5.820   9.488   5.023  0.9706  1.4240 -2.4979
  368MOL0     H49664   5.833   7.793   4.291 -3.2183  0.5808 -0.9222
  368MOL0     H49665   6.013   7.643   4.219 -3.0540 -0.7083  0.2578
  368MOL0     H49666   6.128   7.372   3.903  0.4609 -2.2679  1.2493
  368MOL0     H49667   6.241   7.191   3.821  0.0929  0.3284  1.4242
  368MOL0     H49668   6.470   7.218   3.528  1.8050 -1.8044 -1.0198
  368MOL0     H49669   6.348   7.103   3.604  0.6190 -1.4291 -2.0045
  368MOL0     H49670   6.574   6.953   3.641  3.5108  2.0453  0.6867
  368MOL0     H49671   6.646   7.068   3.533  0.7605  1.9460 -0.6499
  368MOL0     H49672   6.428   7.034   3.396  0.8254 -0.6816 -3.1240
  368MOL0     H49673   6.439   6.864   3.450 -1.0682 -0.3751  0.0632
  368MOL0     H49674   6.604   7.059   3.286  1.5370  0.7889  0.0838
  368MOL0     H49675   6.688   6.912   3.353 -1.8424 -1.7446  1.6965
  368MOL0     H49676   6.418   6.733   3.073  1.6403 -1.6613  0.3248
  368MOL0     H49677   6.604   7.413   3.761  0.0864 -0.4971  0.0632
  368MOL0     H49678   6.606   7.643   3.780  1.7473  0.6727  3.0231
  368MOL0     H49679   6.461   7.730   3.828 -3.3681 -3.3236  0.2160
  368MOL0     H49680   6.562   7.660   3.950 -1.6206 -0.6824  0.6178
  369MOL0     O49681   1.602   2.527   0.744 -0.4530  0.1408 -0.0876
  369MOL0     C49682   1.526   2.518   0.839  0.2061  0.0136  0.3816
  369MOL0     O49683   1.414   2.598   0.854 -0.2286 -0.4153  0.1379
  369MOL0     C49684   1.357   2.678   0.754 -0.3693 -0.5342 -0.3367
  369MOL0     C49685   1.234   2.736   0.788  0.4366 -0.9315  0.3455
  369MOL0     C49686   1.159   2.822   0.693 -0.0715  0.5576 -0.7612
  369MOL0     C49687   1.203   2.847   0.563 -0.3481  0.6243 -0.6926
  369MOL0     O49688   1.128   2.909   0.478  0.7314  0.2394  0.5007
  369MOL0     C49689   1.182   2.954   0.355  0.0819  0.2500  0.1950
  369MOL0     C49690   1.083   3.024   0.263 -0.6879  0.2519 -0.2683
  369MOL0     C49691   1.158   3.085   0.141  0.3478 -0.4244 -0.0710
  369MOL0     C49692   1.057   3.128   0.029  0.7858 -0.5689  0.3549
  369MOL0     C49693   1.129   3.219  -0.071  0.0737  0.4568  0.4055
  369MOL0     C49694   1.030   3.283  -0.180 -0.2940 -0.2202 -0.3229
  369MOL0     C49695   1.083   3.404  -0.252 -0.6623 -0.0002  0.4974
  369MOL0     C49696   0.966   3.500  -0.288  0.0583  0.7834  0.0703
  369MOL0     N49697   1.012   3.629  -0.315  0.4883  0.4188 -0.4272
  369MOL0     C49698   0.932   3.742  -0.310 -0.3605  0.4103 -0.7389
  369MOL0     C49699   1.009   3.841  -0.368  0.1636 -0.9937  0.3230
  369MOL0     C49700   0.981   3.987  -0.409 -0.3761  0.3790  0.4853
  369MOL0     C49701   1.069   4.024  -0.535  0.1347  0.4360 -0.1492
  369MOL0     C49702   1.034   3.935  -0.658 -0.9396  0.2906 -0.2612
  369MOL0     C49703   1.051   4.019  -0.790  0.6403  0.4396 -0.4431
  369MOL0     O49704   1.184   4.063  -0.819 -0.2123  0.6106 -0.0054
  369MOL0     C49705   1.200   4.147  -0.922 -0.0537  0.1388  0.0586
  369MOL0     C49706   1.109   4.231  -0.985  0.2501 -0.6761 -0.4768
  369MOL0     C49707   1.142   4.339  -1.070  0.0672  0.6577  0.0200
  369MOL0     C49708   1.273   4.361  -1.105 -0.0205  0.1631 -1.1270
  369MOL0     C49709   1.312   4.478  -1.188 -0.1251  0.0729 -0.4699
  369MOL0     O49710   1.204   4.556  -1.222 -0.2669  0.3419 -0.0185
  369MOL0     C49711   1.229   4.667  -1.307  0.2897  0.2849 -0.3555
  369MOL0     C49712   1.193   4.793  -1.263 -0.6990  0.0108  0.5962
  369MOL0     C49713   1.191   4.899  -1.357  0.9011 -0.4791  0.4198
  369MOL0     C49714   1.245   4.884  -1.488  0.9067  0.5753 -0.2968
  369MOL0     O49715   1.227   4.981  -1.583 -0.4074 -0.8710 -0.0232
  369MOL0     C49716   1.345   5.050  -1.614  0.2337  0.0572  0.1753
  369MOL0     C49717   1.298   5.121  -1.750  0.4196  0.7079 -1.1016
  369MOL0     C49718   1.412   5.177  -1.834  0.2727  0.0643  0.3343
  369MOL0     C49719   1.352   5.226  -1.965 -0.2179 -0.4286 -0.1828
  369MOL0     C49720   1.439   5.314  -2.062 -0.1128 -0.4084  0.5620
  369MOL0     C49721   1.567   5.239  -2.105  0.0056  0.3551 -0.5115
  369MOL0     C49722   1.629   5.315  -2.212  0.5352  0.5290  0.7068
  369MOL0     C49723   1.775   5.285  -2.232 -0.2723 -0.4343  0.0553
  369MOL0    Cl49724   1.886   5.323  -2.085 -0.1486  0.3465 -0.0298
  369MOL0     C49725   1.300   4.758  -1.520 -0.4415 -0.4710 -0.2870
  369MOL0     C49726   1.290   4.658  -1.425  0.5184  0.7873 -0.0366
  369MOL0     O49727   1.430   4.487  -1.231 -0.3579 -0.1253 -0.3896
  369MOL0     C49728   1.370   4.275  -1.045  0.2432 -0.0870 -0.4573
  369MOL0     C49729   1.336   4.171  -0.956  0.2505 -0.9844 -0.7513
  369MOL0     N49730   1.136   3.787  -0.386 -0.9662 -0.1070 -0.0214
  369MOL0     N49731   1.141   3.663  -0.349  0.4439  0.0172 -0.0125
  369MOL0     C49732   1.337   2.791   0.542 -0.0358  0.3778  1.2456
  369MOL0     C49733   1.409   2.711   0.626  0.3808 -0.2265 -0.0341
  369MOL0     C49734   1.551   2.428   0.946 -0.9211  0.0411 -0.6693
  369MOL0     C49735   1.472   2.442   1.063 -0.4798 -0.2861 -0.8967
  369MOL0     C49736   1.494   2.359   1.179 -0.6672  0.6887 -0.4053
  369MOL0     C49737   1.603   2.272   1.181 -0.4805 -0.4862 -0.4451
  369MOL0     O49738   1.616   2.213   1.298  0.3644 -0.2769  0.2173
  369MOL0     C49739   1.704   2.108   1.330 -0.2656 -0.2273 -0.3748
  369MOL0     C49740   1.621   1.983   1.317  0.2158  0.8821 -0.4870
  369MOL0     C49741   1.707   1.849   1.334  0.2272 -0.2701 -0.4239
  369MOL0     C49742   1.631   1.724   1.347  0.0171  0.3949 -0.0194
  369MOL0     C49743   1.716   1.612   1.397 -0.0916  0.7602  0.3262
  369MOL0     C49744   1.795   1.531   1.435  0.0444  0.2289  1.2934
  369MOL0     C49745   1.689   2.263   1.069  0.7088  0.2915  0.2474
  369MOL0     C49746   1.666   2.342   0.949  0.3111  0.4854  0.3521
  369MOL0     C49747   1.769   2.315   0.838  0.9873  0.6091  1.2176
  369MOL0     H49748   1.192   2.731   0.888  1.4658 -2.5434  0.7282
  369MOL0     H49749   1.054   2.843   0.711  0.0853 -0.5754  1.9044
  369MOL0     H49750   1.262   3.026   0.375  1.8432 -1.3946 -0.6329
  369MOL0     H49751   1.225   2.866   0.307 -1.8967 -0.5794 -0.1167
  369MOL0     H49752   1.038   3.110   0.313 -0.7758  0.6993 -1.1013
  369MOL0     H49753   1.008   2.958   0.219  1.9339 -3.2741  0.1032
  369MOL0     H49754   1.214   3.005   0.092 -0.9816 -0.1841 -2.1155
  369MOL0     H49755   1.217   3.171   0.173 -0.6029  0.1627  0.1765
  369MOL0     H49756   1.027   3.044  -0.034 -3.1360  1.8725 -1.4098
  369MOL0     H49757   0.971   3.174   0.079  0.4436 -2.5360  1.6960
  369MOL0     H49758   1.166   3.306  -0.016  1.2660 -2.1360  4.0633
  369MOL0     H49759   1.210   3.171  -0.127 -0.8207 -1.4180  0.6539
  369MOL0     H49760   0.995   3.204  -0.246  2.2824 -1.6790 -0.0822
  369MOL0     H49761   0.938   3.313  -0.129  0.4897  0.4492  0.7610
  369MOL0     H49762   1.162   3.379  -0.324 -0.6564 -2.9493  1.3727
  369MOL0     H49763   1.133   3.458  -0.171 -1.9852 -0.4022  1.6220
  369MOL0     H49764   0.920   3.460  -0.379  1.0757  4.5211 -2.3338
  369MOL0     H49765   0.903   3.499  -0.198  2.1611 -0.2534  1.6214
  369MOL0     H49766   0.827   3.747  -0.281  0.1090  0.3114  1.0651
  369MOL0     H49767   0.876   3.999  -0.435 -1.3190 -2.4091  2.4988
  369MOL0     H49768   1.006   4.054  -0.327 -0.1230 -0.6006  1.2298
  369MOL0     H49769   1.044   4.125  -0.567 -1.3042  0.0655 -0.2285
  369MOL0     H49770   1.174   4.018  -0.502 -0.0847 -0.7528  0.3931
  369MOL0     H49771   0.929   3.906  -0.650 -1.7502  3.1554  0.7846
  369MOL0     H49772   1.100   3.849  -0.666 -0.1704  0.7463  0.8974
  369MOL0     H49773   0.989   4.109  -0.784  1.4577  1.0061 -0.3125
  369MOL0     H49774   1.007   3.965  -0.874 -2.0413  2.1654 -0.2656
  369MOL0     H49775   1.004   4.213  -0.961 -0.3963  2.3991 -0.6738
  369MOL0     H49776   1.060   4.389  -1.121 -0.7619 -0.1086  0.5601
  369MOL0     H49777   1.146   4.814  -1.167  0.4370 -0.9462  1.3829
  369MOL0     H49778   1.139   4.990  -1.326 -2.3453 -2.4985  1.3515
  369MOL0     H49779   1.363   5.124  -1.535  3.3874  1.2565 -1.4685
  369MOL0     H49780   1.434   4.991  -1.639  0.2822  0.8371 -1.6640
  369MOL0     H49781   1.249   5.038  -1.802  0.2508 -0.1394  0.3775
  369MOL0     H49782   1.223   5.196  -1.721 -0.1038  0.2042 -1.1208
  369MOL0     H49783   1.466   5.262  -1.794  0.8743 -0.5693  0.8792
  369MOL0     H49784   1.481   5.093  -1.849  0.5308 -0.1206  2.3985
  369MOL0     H49785   1.258   5.279  -1.943  0.6720  0.4134  1.9456
  369MOL0     H49786   1.324   5.142  -2.029  0.0768 -1.4001  0.9293
  369MOL0     H49787   1.469   5.398  -1.998  1.9182 -2.3659  2.3587
  369MOL0     H49788   1.371   5.351  -2.139 -2.4074  2.2843  3.5962
  369MOL0     H49789   1.636   5.223  -2.021  0.2465 -0.2714 -0.8188
  369MOL0     H49790   1.543   5.139  -2.141  0.0894  0.2452 -0.2684
  369MOL0     H49791   1.602   5.421  -2.207  3.7693  1.4463  0.8020
  369MOL0     H49792   1.574   5.283  -2.302  0.9783  2.5830 -0.3630
  369MOL0     H49793   1.789   5.179  -2.257  3.1503 -0.4470  1.5379
  369MOL0     H49794   1.817   5.335  -2.319  0.9917 -1.5607 -0.0113
  369MOL0     H49795   1.341   4.755  -1.621  2.1536  1.7883  0.5738
  369MOL0     H49796   1.317   4.557  -1.456 -2.2271  0.2708 -1.0352
  369MOL0     H49797   1.474   4.286  -1.074 -0.8230  2.8040 -3.8969
  369MOL0     H49798   1.421   4.124  -0.907 -1.4076 -0.5533  2.8438
  369MOL0     H49799   1.394   2.821   0.455 -0.1253  3.2746  2.0893
  369MOL0     H49800   1.506   2.675   0.592  1.4401  1.0989  1.4159
  369MOL0     H49801   1.390   2.513   1.069 -0.3611 -0.2316  2.7134
  369MOL0     H49802   1.422   2.363   1.261 -1.6079 -1.5815 -1.0424
  369MOL0     H49803   1.734   2.109   1.436 -2.9178  2.7998  0.5228
  369MOL0     H49804   1.797   2.102   1.273 -0.4380 -0.9722 -0.5825
  369MOL0     H49805   1.577   1.973   1.217 -1.0505 -2.1221  0.2724
  369MOL0     H49806   1.535   1.974   1.384  2.7996 -2.7258  2.7796
  369MOL0     H49807   1.764   1.858   1.427 -2.7156  1.5878  1.3648
  369MOL0     H49808   1.781   1.840   1.254  0.5845 -0.9057 -0.0287
  369MOL0     H49809   1.549   1.741   1.417 -1.5458 -0.6466 -1.5396
  369MOL0     H49810   1.582   1.701   1.252  3.8211  2.1640 -2.6604
  369MOL0     H49811   1.865   1.453   1.455 -1.4185 -2.2322 -2.2686
  369MOL0     H49812   1.764   2.184   1.073  2.0881  1.5209 -0.1944
  369MOL0     H49813   1.831   2.227   0.857 -2.3545 -1.9204  1.3894
  369MOL0     H49814   1.714   2.289   0.746  1.1651 -2.3103  1.8273
  369MOL0     H49815   1.831   2.401   0.815 -0.2516  1.0903 -0.5949
  370MOL0     O49816   6.635   0.536   4.650 -0.3598 -0.4545  0.1000
  370MOL0     C49817   6.545   0.612   4.690  0.1542 -1.1365 -0.1461
  370MOL0     O49818   6.532   0.751   4.657  0.0353 -0.0071  0.2739
  370MOL0     C49819   6.631   0.820   4.586 -0.1540  0.1539  0.4152
  370MOL0     C49820   6.761   0.776   4.596  0.3995 -0.6140 -0.1085
  370MOL0     C49821   6.861   0.843   4.525  0.2424  0.1512  0.1298
  370MOL0     C49822   6.832   0.945   4.442  0.1797 -0.3862 -0.4236
  370MOL0     O49823   6.915   1.033   4.382 -0.2531  0.2657 -0.5782
  370MOL0     C49824   7.057   0.998   4.389  0.0780 -0.1186  0.4482
  370MOL0     C49825   7.135   1.114   4.326  0.5410  0.5088 -0.1320
  370MOL0     C49826   7.277   1.088   4.287 -0.1490 -1.0096 -0.2907
  370MOL0     C49827   7.343   1.219   4.252  0.2417 -0.1034  0.1468
  370MOL0     C49828   7.484   1.192   4.209 -1.0193 -0.4807  0.7467
  370MOL0     C49829   7.571   1.168   4.335 -0.5482  0.2236 -0.8337
  370MOL0     C49830   7.594   1.295   4.421 -0.1654 -0.0593 -0.2355
  370MOL0     C49831   7.700   1.265   4.527 -0.1037 -0.7035  0.3446
  370MOL0     N49832   7.627   1.211   4.642  0.5074 -0.7624  0.5597
  370MOL0     C49833   7.492   1.230   4.670  0.0672 -0.4668  0.9521
  370MOL0     C49834   7.456   1.129   4.754 -0.3927 -0.5182  0.9238
  370MOL0     C49835   7.321   1.109   4.807 -0.6107 -0.0381 -0.4620
  370MOL0     C49836   7.284   0.973   4.765  0.5338  0.4394  0.5024
  370MOL0     C49837   7.139   0.948   4.813 -0.8236  0.5624 -0.5703
  370MOL0     C49838   7.123   0.918   4.961  1.2066 -0.2702  0.9662
  370MOL0     O49839   7.130   1.037   5.041  0.0385 -0.2171 -0.2501
  370MOL0     C49840   7.085   1.014   5.168 -0.3329 -0.6784  0.3688
  370MOL0     C49841   6.952   0.991   5.190  0.8778  0.0661  0.6552
  370MOL0     C49842   6.902   0.968   5.324  0.8915 -0.5798 -0.3671
  370MOL0     C49843   7.000   0.978   5.428  0.7239  0.8351 -0.4045
  370MOL0     C49844   6.950   0.959   5.565 -1.0214  0.3518 -0.8515
  370MOL0     O49845   6.819   0.997   5.592  0.0808 -0.2356 -0.6162
  370MOL0     C49846   6.763   0.975   5.718 -0.1233  0.0075 -0.7814
  370MOL0     C49847   6.650   1.046   5.748 -0.2012  0.4498 -0.0384
  370MOL0     C49848   6.593   1.041   5.872 -0.3336  0.8893 -0.4937
  370MOL0     C49849   6.624   0.938   5.967  0.5732  0.0680 -0.0666
  370MOL0     O49850   6.545   0.943   6.081 -1.1573  0.6430 -0.1440
  370MOL0     C49851   6.573   0.855   6.190  0.5581  0.2870  0.3015
  370MOL0     C49852   6.487   0.881   6.304 -0.3145 -0.2160 -0.1074
  370MOL0     C49853   6.490   0.781   6.413 -0.4277  0.8431  0.5581
  370MOL0     C49854   6.613   0.777   6.502 -0.6180  0.5205 -0.4258
  370MOL0     C49855   6.576   0.715   6.642  0.2634 -0.5259  0.2970
  370MOL0     C49856   6.559   0.563   6.646 -0.2851 -0.1730 -0.0601
  370MOL0     C49857   6.675   0.475   6.606  0.7922  0.4553  0.2912
  370MOL0     C49858   6.634   0.325   6.641  0.3519 -0.4358  0.3517
  370MOL0    Cl49859   6.639   0.303   6.817 -0.8636  0.0550 -0.3208
  370MOL0     C49860   6.726   0.849   5.942  0.0737  0.8255  0.0358
  370MOL0     C49861   6.797   0.868   5.815 -0.3417  0.0339  0.4109
  370MOL0     O49862   7.033   0.908   5.649  0.4772 -0.4659 -0.1207
  370MOL0     C49863   7.129   0.999   5.396  0.5604  0.5007 -0.3855
  370MOL0     C49864   7.182   1.017   5.270 -0.6029  0.2144 -0.0404
  370MOL0     N49865   7.564   1.048   4.770 -0.2627  0.2387 -0.3306
  370MOL0     N49866   7.657   1.089   4.688  0.4102  0.1272  0.0333
  370MOL0     C49867   6.694   0.985   4.430  0.2799  0.7716  0.8484
  370MOL0     C49868   6.592   0.925   4.506  0.9110  0.0931 -0.3024
  370MOL0     C49869   6.450   0.558   4.789 -0.1038 -0.1149  0.0823
  370MOL0     C49870   6.391   0.433   4.766 -0.0847 -0.8870  0.3492
  370MOL0     C49871   6.284   0.389   4.843 -0.0936 -0.3153 -1.2374
  370MOL0     C49872   6.233   0.460   4.953  0.1713  0.5607 -0.6067
  370MOL0     O49873   6.146   0.405   5.040  0.2367 -0.3159  0.2076
  370MOL0     C49874   6.014   0.361   4.991 -0.0502 -0.3102  0.1358
  370MOL0     C49875   5.924   0.288   5.097  0.1461  0.2826 -0.2685
  370MOL0     C49876   5.804   0.211   5.033  0.4866  0.0005  0.0895
  370MOL0     C49877   5.762   0.078   5.114 -0.3094  0.3286  0.7683
  370MOL0     C49878   5.689   0.114   5.243 -0.9034 -0.2272 -0.0326
  370MOL0     C49879   5.644   0.132   5.357  0.6549 -0.6125  0.0872
  370MOL0     C49880   6.294   0.578   4.982  0.5492  0.4496 -0.3615
  370MOL0     C49881   6.394   0.628   4.899  0.8002  0.1528  0.2606
  370MOL0     C49882   6.454   0.743   4.960  0.5807 -1.0690  0.2720
  370MOL0     H49883   6.787   0.691   4.659  2.0002  0.8466  1.3067
  370MOL0     H49884   6.964   0.809   4.520  0.2697  0.2256  0.1962
  370MOL0     H49885   7.097   0.981   4.490  3.2753  0.1216 -0.6671
  370MOL0     H49886   7.076   0.910   4.326  1.5862  0.4516  0.0615
  370MOL0     H49887   7.137   1.184   4.410  0.2254 -0.0534  0.3571
  370MOL0     H49888   7.076   1.153   4.243  0.5517  4.3786  1.4686
  370MOL0     H49889   7.270   1.024   4.200 -2.5574 -0.6340 -0.4398
  370MOL0     H49890   7.327   1.042   4.373 -0.3547  0.1781  0.4934
  370MOL0     H49891   7.294   1.259   4.163  1.9954 -2.1131 -1.8583
  370MOL0     H49892   7.340   1.295   4.331  2.0227  1.0169 -0.8150
  370MOL0     H49893   7.500   1.111   4.137  1.1058 -1.2064  1.9418
  370MOL0     H49894   7.531   1.282   4.169  1.2556  0.2431  4.5637
  370MOL0     H49895   7.529   1.086   4.393  1.1838 -0.1294 -0.0189
  370MOL0     H49896   7.671   1.137   4.302 -0.4762  2.1895 -2.7309
  370MOL0     H49897   7.506   1.347   4.461  0.4011 -0.1508  1.1620
  370MOL0     H49898   7.632   1.367   4.348 -3.1310 -0.4294 -2.3497
  370MOL0     H49899   7.769   1.190   4.488 -0.4252 -1.7870  1.8182
  370MOL0     H49900   7.747   1.359   4.557 -4.8051  1.9579  0.3017
  370MOL0     H49901   7.426   1.313   4.652  2.3429  1.7379  2.1653
  370MOL0     H49902   7.344   1.117   4.913  0.8597  3.0864 -0.9095
  370MOL0     H49903   7.245   1.182   4.779 -3.4244 -2.7539 -0.4590
  370MOL0     H49904   7.294   0.973   4.656 -0.6875  1.5795  0.3642
  370MOL0     H49905   7.358   0.901   4.803  0.3998 -0.5749 -1.0774
  370MOL0     H49906   7.119   0.854   4.761 -1.8562  1.5187 -1.9645
  370MOL0     H49907   7.067   1.014   4.764  2.5959  3.2943 -2.3596
  370MOL0     H49908   7.186   0.839   5.003 -0.2769 -1.5124  0.9481
  370MOL0     H49909   7.021   0.880   4.972  1.4834 -0.8672  1.5663
  370MOL0     H49910   6.888   0.976   5.104  1.0096  0.6080  0.4553
  370MOL0     H49911   6.798   0.945   5.343  0.1916  2.0832 -0.5984
  370MOL0     H49912   6.610   1.121   5.680  3.1175  0.4543 -2.1639
  370MOL0     H49913   6.525   1.114   5.914 -1.9301 -1.2187  0.7826
  370MOL0     H49914   6.549   0.755   6.154 -0.5489  0.3784  0.7539
  370MOL0     H49915   6.674   0.856   6.231  1.0132 -1.3701 -0.6728
  370MOL0     H49916   6.519   0.980   6.337  0.1629 -0.2021 -0.5892
  370MOL0     H49917   6.386   0.904   6.270 -1.2555 -0.7303  2.1743
  370MOL0     H49918   6.404   0.790   6.480 -1.7499  0.1897 -0.9726
  370MOL0     H49919   6.475   0.682   6.370 -0.3874  2.9025 -4.9347
  370MOL0     H49920   6.650   0.880   6.506 -1.2909  0.8666 -2.1273
  370MOL0     H49921   6.679   0.711   6.445 -2.5367 -1.1445 -0.8343
  370MOL0     H49922   6.487   0.761   6.686 -0.8183  0.3103 -2.5812
  370MOL0     H49923   6.666   0.731   6.704  0.7042 -3.3790  0.5331
  370MOL0     H49924   6.540   0.540   6.752 -0.6355  2.0382  0.4093
  370MOL0     H49925   6.469   0.531   6.593  0.3529 -0.9614 -0.6807
  370MOL0     H49926   6.765   0.501   6.662  0.1161  0.1483  1.5567
  370MOL0     H49927   6.695   0.470   6.499  1.7026 -2.1556  0.5001
  370MOL0     H49928   6.532   0.318   6.603  0.2607  0.5343  0.4016
  370MOL0     H49929   6.701   0.258   6.586  0.1292 -0.3548 -0.0183
  370MOL0     H49930   6.755   0.762   6.001 -1.6412  1.3764  1.7686
  370MOL0     H49931   6.869   0.794   5.782  0.5185  0.1723  1.8768
  370MOL0     H49932   7.201   1.010   5.476 -2.8463  1.8286  2.7950
  370MOL0     H49933   7.289   1.023   5.252 -0.6614 -1.3171 -1.1307
  370MOL0     H49934   6.668   1.073   4.372  0.5981  1.0478  1.1268
  370MOL0     H49935   6.489   0.958   4.507  0.8626 -0.0560  0.9990
  370MOL0     H49936   6.411   0.379   4.674  2.1695 -0.2905  0.4340
  370MOL0     H49937   6.234   0.296   4.819  0.7205 -0.9528 -0.5293
  370MOL0     H49938   6.033   0.296   4.904 -2.0893  2.0921 -2.2713
  370MOL0     H49939   5.956   0.446   4.954 -1.5573 -1.0265  0.7737
  370MOL0     H49940   5.891   0.351   5.179 -4.2870  0.5161 -1.9413
  370MOL0     H49941   5.993   0.213   5.139  0.4652  0.3749 -0.6207
  370MOL0     H49942   5.848   0.177   4.939 -2.0204 -0.6619 -0.9055
  370MOL0     H49943   5.711   0.267   5.026  0.9016  0.4969 -1.9667
  370MOL0     H49944   5.698   0.027   5.042  0.2174  0.7211  0.0060
  370MOL0     H49945   5.843   0.007   5.133 -1.2340 -1.0677 -0.3403
  370MOL0     H49946   5.627   0.140   5.463  1.0664  0.9137  0.0622
  370MOL0     H49947   6.251   0.609   5.077 -0.5018  0.3604 -0.7955
  370MOL0     H49948   6.556   0.722   4.993  0.4507  2.0118  3.1273
  370MOL0     H49949   6.460   0.824   4.886  0.6576 -0.4712  0.9218
  370MOL0     H49950   6.388   0.780   5.039 -2.8207 -0.5871 -2.5535
  371MOL0     O49951   4.510   2.557   6.373  0.3271 -0.7868 -0.6169
  371MOL0     C49952   4.630   2.550   6.328  0.2874  0.2844 -0.1397
  371MOL0     O49953   4.732   2.617   6.368  0.7343 -0.6217 -0.2378
  371MOL0     C49954   4.724   2.706   6.471  0.9732  0.1440 -0.9543
  371MOL0     C49955   4.664   2.829   6.440 -0.1470 -0.6030 -0.0420
  371MOL0     C49956   4.655   2.927   6.541  0.3605  0.4765 -0.8728
  371MOL0     C49957   4.699   2.898   6.666  0.9522 -1.7487  0.0127
  371MOL0     O49958   4.673   2.983   6.763  0.6164 -0.3233  0.7631
  371MOL0     C49959   4.778   3.025   6.849  0.1865 -0.7870  0.1321
  371MOL0     C49960   4.882   3.113   6.779  1.0587 -0.5179  0.4340
  371MOL0     C49961   4.820   3.246   6.742 -0.7160  0.7131 -0.4973
  371MOL0     C49962   4.934   3.336   6.695 -0.0505  0.7834 -0.3359
  371MOL0     C49963   4.879   3.475   6.670  0.0911  0.6744 -0.4501
  371MOL0     C49964   4.988   3.563   6.601 -0.0485  0.5826  0.3933
  371MOL0     C49965   5.099   3.592   6.703  0.3358  0.1459  0.3523
  371MOL0     C49966   5.179   3.707   6.623 -0.1282  0.4374  0.0476
  371MOL0     N49967   5.278   3.752   6.722 -0.3221  1.9348 -0.9502
  371MOL0     C49968   5.414   3.709   6.715  1.1288 -0.6985 -0.4076
  371MOL0     C49969   5.470   3.792   6.811  0.2547 -0.3855  0.5494
  371MOL0     C49970   5.612   3.795   6.857 -0.6506  0.1318 -0.0078
  371MOL0     C49971   5.654   3.948   6.895 -0.5190 -0.0925 -0.2804
  371MOL0     C49972   5.774   3.946   6.989 -0.3272  0.5491 -0.2349
  371MOL0     C49973   5.818   4.088   7.019  0.1147 -0.1094 -0.0687
  371MOL0     O49974   5.890   4.092   7.146 -0.2172  0.0813 -0.3548
  371MOL0     C49975   5.962   4.203   7.182  0.7129  0.5688 -0.3016
  371MOL0     C49976   5.973   4.318   7.103  1.2530 -0.1735  0.0598
  371MOL0     C49977   6.059   4.420   7.140  1.0692  0.0799 -0.4215
  371MOL0     C49978   6.127   4.418   7.263  0.5533  0.0915 -0.3267
  371MOL0     C49979   6.210   4.531   7.311 -0.6416 -0.0234  0.3633
  371MOL0     O49980   6.223   4.637   7.234 -0.2378 -0.3134 -0.1357
  371MOL0     C49981   6.329   4.715   7.249 -0.3032 -0.4108  0.6561
  371MOL0     C49982   6.314   4.849   7.261 -0.0881 -0.1476  0.5320
  371MOL0     C49983   6.423   4.936   7.282  0.0711  0.0583  1.0108
  371MOL0     C49984   6.557   4.884   7.264 -0.1666 -0.7466 -1.3533
  371MOL0     O49985   6.659   4.974   7.272  0.6349  0.2410 -0.4951
  371MOL0     C49986   6.760   4.950   7.165  0.1595  0.3766 -0.2931
  371MOL0     C49987   6.860   5.064   7.148 -0.5399  0.1093  0.1570
  371MOL0     C49988   6.919   5.122   7.273  0.8944  0.0859 -0.2397
  371MOL0     C49989   6.829   5.237   7.324 -0.4978 -0.0397 -0.6703
  371MOL0     C49990   6.904   5.320   7.435 -0.2981  0.1003 -0.3334
  371MOL0     C49991   6.962   5.250   7.555  0.2699  0.4996 -0.2707
  371MOL0     C49992   6.986   5.343   7.671 -0.8596  0.5514 -0.2923
  371MOL0     C49993   7.077   5.466   7.639  0.3104  0.9115 -1.0558
  371MOL0    Cl49994   7.210   5.428   7.525 -0.0765 -0.3344  0.2832
  371MOL0     C49995   6.572   4.749   7.227 -0.2939 -0.8910  0.3750
  371MOL0     C49996   6.454   4.674   7.211  0.1105 -0.5725 -0.4431
  371MOL0     O49997   6.284   4.500   7.406 -0.1630 -0.4033  0.7691
  371MOL0     C49998   6.104   4.304   7.343 -0.1362  0.5267 -0.9280
  371MOL0     C49999   6.019   4.202   7.301  0.9424  0.7558  0.0185
  371MOL0     N50000   5.364   3.854   6.872 -0.2738 -0.5840 -0.5168
  371MOL0     N50001   5.249   3.833   6.825 -0.2873 -0.2830 -0.3052
  371MOL0     C50002   4.758   2.780   6.694  0.5052  0.5303 -0.5541
  371MOL0     C50003   4.786   2.680   6.594 -0.7698 -0.7058 -0.5529
  371MOL0     C50004   4.644   2.468   6.204  0.3126  0.3627 -0.5112
  371MOL0     C50005   4.673   2.328   6.229  1.2900 -0.6529  0.0716
  371MOL0     C50006   4.654   2.243   6.121  0.8766  1.0854  0.0506
  371MOL0     C50007   4.635   2.293   5.989 -0.8159 -0.5236 -0.5571
  371MOL0     O50008   4.615   2.215   5.884  0.2411  0.1275 -0.6683
  371MOL0     C50009   4.733   2.143   5.840  1.1574 -0.4746 -0.6734
  371MOL0     C50010   4.690   2.079   5.707 -0.3290  0.1281  1.1700
  371MOL0     C50011   4.811   2.019   5.624 -0.1607  0.6375  0.0197
  371MOL0     C50012   4.788   2.011   5.475  0.1487  0.6370  0.6022
  371MOL0     C50013   4.716   1.889   5.430 -1.1240  0.0598 -0.9618
  371MOL0     C50014   4.647   1.798   5.394 -1.0596  0.4284  0.3475
  371MOL0     C50015   4.631   2.428   5.963  0.5444 -0.6562  0.4370
  371MOL0     C50016   4.620   2.520   6.073 -0.4579  1.2092  0.0528
  371MOL0     C50017   4.576   2.658   6.034 -0.4365 -0.3099  0.4273
  371MOL0     H50018   4.613   2.859   6.349 -2.2976 -1.5447  0.7791
  371MOL0     H50019   4.619   3.028   6.527  1.0816  0.6410 -1.6427
  371MOL0     H50020   4.733   3.083   6.929  1.3532 -0.9472  0.9207
  371MOL0     H50021   4.834   2.942   6.894  0.4004  1.4196  4.4134
  371MOL0     H50022   4.916   3.064   6.687  0.6044 -0.2149  0.0993
  371MOL0     H50023   4.966   3.132   6.847  1.0854  4.6557 -0.6594
  371MOL0     H50024   4.777   3.296   6.830  1.0214  1.7864 -0.1996
  371MOL0     H50025   4.739   3.236   6.669 -0.0897  0.0469 -1.1146
  371MOL0     H50026   5.020   3.340   6.761  2.2154 -0.8347 -2.9667
  371MOL0     H50027   4.974   3.289   6.605 -0.6022 -1.0231  0.3278
  371MOL0     H50028   4.789   3.474   6.609 -0.5067  2.0409  0.3665
  371MOL0     H50029   4.855   3.520   6.766  2.4138  0.9628  0.0668
  371MOL0     H50030   5.017   3.519   6.505 -2.0634 -0.8185  0.3712
  371MOL0     H50031   4.932   3.655   6.582 -1.2702  0.5434  3.2810
  371MOL0     H50032   5.163   3.506   6.725  4.0458  2.0826 -1.9332
  371MOL0     H50033   5.047   3.623   6.794  3.2513  0.5059  2.0254
  371MOL0     H50034   5.225   3.659   6.536 -2.4188 -3.3040  0.6537
  371MOL0     H50035   5.106   3.777   6.583 -1.9160 -2.1097 -1.4491
  371MOL0     H50036   5.462   3.655   6.633 -2.3627 -1.4129 -2.1377
  371MOL0     H50037   5.616   3.720   6.936  2.2428 -1.0877 -1.1750
  371MOL0     H50038   5.675   3.753   6.778 -3.4087 -0.6412 -1.9894
  371MOL0     H50039   5.687   3.999   6.804  1.3438  0.0303  0.4218
  371MOL0     H50040   5.566   3.986   6.947  0.4836  0.9354  0.7219
  371MOL0     H50041   5.859   3.900   6.940 -2.0822  0.1739 -3.1314
  371MOL0     H50042   5.750   3.901   7.086  1.8308  2.2959  1.2132
  371MOL0     H50043   5.737   4.162   7.023  0.3846  0.2509 -1.0706
  371MOL0     H50044   5.889   4.119   6.942  1.6480 -0.7424  1.0371
  371MOL0     H50045   5.913   4.330   7.013  1.7658  0.0531 -0.2598
  371MOL0     H50046   6.067   4.500   7.068 -1.5480 -1.7459 -2.9401
  371MOL0     H50047   6.209   4.877   7.272 -0.4074  1.3114 -4.2289
  371MOL0     H50048   6.405   5.040   7.307 -2.1935 -0.4292  1.6461
  371MOL0     H50049   6.820   4.864   7.195 -0.1262  1.0086  2.3644
  371MOL0     H50050   6.703   4.930   7.073  1.0143 -1.5111 -0.4500
  371MOL0     H50051   6.936   5.032   7.076  0.7177  1.7050  0.7219
  371MOL0     H50052   6.809   5.152   7.107 -0.7292  1.0895  2.3306
  371MOL0     H50053   6.924   5.038   7.343  1.5587 -0.4078 -0.8699
  371MOL0     H50054   7.017   5.165   7.255  1.6085 -1.0292  0.8472
  371MOL0     H50055   6.739   5.193   7.367  0.9257  0.1123  2.8121
  371MOL0     H50056   6.806   5.305   7.241  1.6721  1.0309 -0.4902
  371MOL0     H50057   6.833   5.392   7.478 -0.7463  0.3377 -1.4291
  371MOL0     H50058   6.979   5.383   7.388 -0.1670 -0.5544 -1.0204
  371MOL0     H50059   6.883   5.180   7.585 -0.7304  1.0479 -1.5371
  371MOL0     H50060   7.046   5.192   7.515 -0.0861  1.1986 -2.1452
  371MOL0     H50061   7.039   5.279   7.742  0.2061  1.0442 -0.6316
  371MOL0     H50062   6.896   5.377   7.723 -1.8010 -1.3937 -0.5378
  371MOL0     H50063   7.009   5.535   7.588  1.2314  1.8073 -1.0971
  371MOL0     H50064   7.117   5.512   7.730 -3.4234  1.2248  0.6226
  371MOL0     H50065   6.665   4.697   7.209 -1.0551 -1.2930 -2.9907
  371MOL0     H50066   6.477   4.577   7.168 -1.1722 -1.2702  0.3835
  371MOL0     H50067   6.151   4.290   7.439 -0.7336  1.0694 -0.5495
  371MOL0     H50068   6.000   4.118   7.368  0.9893  0.4516 -0.3420
  371MOL0     H50069   4.803   2.761   6.791  1.6275 -1.0129 -1.3211
  371MOL0     H50070   4.848   2.595   6.622  2.7883  1.7838 -0.1973
  371MOL0     H50071   4.688   2.291   6.330 -1.5992 -1.1833  0.4044
  371MOL0     H50072   4.654   2.136   6.136 -0.6824  1.3684  2.7169
  371MOL0     H50073   4.775   2.076   5.916 -0.4932 -0.6910  0.0811
  371MOL0     H50074   4.814   2.213   5.821  1.8446 -1.2320 -0.6039
  371MOL0     H50075   4.641   2.158   5.650 -1.7235  1.4163  3.9803
  371MOL0     H50076   4.619   1.997   5.724  1.9960 -1.9434  1.5487
  371MOL0     H50077   4.831   1.917   5.658  0.7172  0.3508 -1.2616
  371MOL0     H50078   4.908   2.064   5.649 -1.4965  2.5243  2.2414
  371MOL0     H50079   4.720   2.094   5.455  1.5393  1.5658 -0.5640
  371MOL0     H50080   4.875   2.032   5.411  1.0992 -0.0225  1.6523
  371MOL0     H50081   4.617   1.710   5.341  1.5672  1.0981 -2.5975
  371MOL0     H50082   4.598   2.461   5.865  0.7571  2.2548  1.2482
  371MOL0     H50083   4.605   2.688   5.933  0.8659 -1.4335  0.4364
  371MOL0     H50084   4.468   2.661   6.018 -0.2645  1.5117 -0.6293
  371MOL0     H50085   4.608   2.735   6.105 -3.4802  1.2196  0.3135
  372MOL0     O50086   6.009   1.878   8.524 -1.1144 -0.1027  0.5666
  372MOL0     C50087   5.894   1.919   8.526  0.5387 -0.2974  0.8126
  372MOL0     O50088   5.840   2.037   8.588  0.7721  0.1182  0.6074
  372MOL0     C50089   5.904   2.130   8.663  0.0877  0.2355 -0.9360
  372MOL0     C50090   5.850   2.256   8.672  0.7099  0.4764 -1.1546
  372MOL0     C50091   5.918   2.367   8.721  1.5313  0.2782 -0.0110
  372MOL0     C50092   6.049   2.346   8.766 -0.5059 -0.2619  0.0274
  372MOL0     O50093   6.117   2.465   8.806 -0.7361 -0.3298 -0.3709
  372MOL0     C50094   6.260   2.463   8.830  0.3762 -0.7516 -0.1917
  372MOL0     C50095   6.318   2.601   8.826  1.1114  0.9560  0.1304
  372MOL0     C50096   6.323   2.668   8.688 -0.5279  0.1980  0.1453
  372MOL0     C50097   6.185   2.690   8.637  0.1338 -0.2600  0.1415
  372MOL0     C50098   6.178   2.798   8.535 -0.3941  0.2374  0.3656
  372MOL0     C50099   6.030   2.818   8.482 -0.8224  0.9559  0.3008
  372MOL0     C50100   5.951   2.697   8.442 -0.3841  0.1387  0.1034
  372MOL0     C50101   5.832   2.735   8.357 -0.4593  0.3772  0.6896
  372MOL0     N50102   5.759   2.613   8.322  0.1946  0.3095  1.0168
  372MOL0     C50103   5.699   2.532   8.412  0.5165 -0.0476  0.5069
  372MOL0     C50104   5.652   2.420   8.346 -0.1007  0.6673  0.4574
  372MOL0     C50105   5.556   2.304   8.372  0.2057 -0.0219  0.8011
  372MOL0     C50106   5.412   2.348   8.371  0.4518  0.8671  0.7974
  372MOL0     C50107   5.304   2.240   8.398  0.0344 -0.5204 -0.5341
  372MOL0     C50108   5.300   2.128   8.292  0.0117 -0.1197 -0.8663
  372MOL0     O50109   5.270   2.176   8.158 -0.3808  0.4160 -0.3378
  372MOL0     C50110   5.265   2.078   8.067 -1.3011  0.0014 -0.0815
  372MOL0     C50111   5.158   2.033   7.991  0.1574  0.5097 -0.2263
  372MOL0     C50112   5.177   1.931   7.901  0.1524  0.1151 -0.2457
  372MOL0     C50113   5.297   1.863   7.880  0.4947  0.0917  0.2286
  372MOL0     C50114   5.301   1.752   7.779  0.1636 -0.1307  0.2161
  372MOL0     O50115   5.182   1.716   7.730 -0.0354 -0.6608  0.3826
  372MOL0     C50116   5.188   1.622   7.638  0.7339 -0.0422 -0.5715
  372MOL0     C50117   5.171   1.490   7.674 -0.5750  0.2925  0.2957
  372MOL0     C50118   5.129   1.397   7.578 -0.3299  0.2849  0.2590
  372MOL0     C50119   5.103   1.443   7.451 -0.5597 -0.1861  1.0533
  372MOL0     O50120   5.055   1.362   7.353  0.2164  0.3373  0.5950
  372MOL0     C50121   4.941   1.283   7.388 -0.9998 -0.3482  0.2821
  372MOL0     C50122   4.902   1.196   7.268 -0.4153 -0.7128 -0.5289
  372MOL0     C50123   5.014   1.095   7.231  1.1683 -0.5646  0.0995
  372MOL0     C50124   4.995   0.968   7.315 -0.2546  0.4583  0.8685
  372MOL0     C50125   5.091   0.850   7.274 -0.0471 -0.4480 -0.2829
  372MOL0     C50126   5.050   0.709   7.313 -0.1279  0.9015  0.3531
  372MOL0     C50127   5.152   0.612   7.255  0.2148 -0.4766 -1.0143
  372MOL0     C50128   5.293   0.630   7.301 -0.3657  1.0176 -0.1144
  372MOL0    Cl50129   5.409   0.523   7.215  0.0970  0.6231  0.1052
  372MOL0     C50130   5.130   1.573   7.410 -1.0020 -0.2959  0.4140
  372MOL0     C50131   5.169   1.669   7.508  0.9504  0.0616  0.2984
  372MOL0     O50132   5.414   1.702   7.760  0.2851  0.7177  0.6971
  372MOL0     C50133   5.414   1.911   7.934  0.7262  0.5435  0.0141
  372MOL0     C50134   5.394   2.018   8.033 -0.2838 -0.2677 -0.0575
  372MOL0     N50135   5.704   2.434   8.209 -0.6827  0.7799  0.0105
  372MOL0     N50136   5.759   2.552   8.202  0.1737 -0.2394  0.9970
  372MOL0     C50137   6.110   2.222   8.765 -0.6672  0.0256  0.3928
  372MOL0     C50138   6.038   2.120   8.713 -0.1835 -0.2426 -0.5345
  372MOL0     C50139   5.799   1.847   8.441  0.4198  0.4103  0.4671
  372MOL0     C50140   5.759   1.710   8.476  0.1629  0.1718 -0.1103
  372MOL0     C50141   5.664   1.636   8.412  0.7150  0.4467  0.0916
  372MOL0     C50142   5.595   1.690   8.310 -0.4740 -0.4318 -0.0105
  372MOL0     O50143   5.504   1.599   8.261 -0.3721  0.9631  0.5554
  372MOL0     C50144   5.458   1.620   8.128  0.4709  0.1676  0.2093
  372MOL0     C50145   5.533   1.517   8.030  0.9562 -0.4031 -0.1007
  372MOL0     C50146   5.447   1.387   8.025 -0.5276  0.6159 -0.4260
  372MOL0     C50147   5.516   1.267   7.963  0.1767  0.1994  0.0212
  372MOL0     C50148   5.515   1.277   7.815 -0.1690  0.1670 -0.1957
  372MOL0     C50149   5.517   1.276   7.698  0.2387 -0.4900  0.4735
  372MOL0     C50150   5.631   1.819   8.260  0.0376 -0.6861 -0.6103
  372MOL0     C50151   5.729   1.899   8.326 -0.4074  0.6431  0.2551
  372MOL0     C50152   5.775   2.029   8.274 -0.0015 -0.4393  0.1597
  372MOL0     H50153   5.748   2.251   8.635  0.6165 -2.7664 -0.6836
  372MOL0     H50154   5.869   2.463   8.716  1.3025  0.0949 -1.5175
  372MOL0     H50155   6.281   2.422   8.929  0.6078 -0.9605 -0.3256
  372MOL0     H50156   6.325   2.407   8.761  0.8195 -0.2519 -0.1859
  372MOL0     H50157   6.426   2.599   8.846  0.9189  0.6059  1.2286
  372MOL0     H50158   6.268   2.660   8.903  0.1540  3.3966 -2.2220
  372MOL0     H50159   6.367   2.606   8.609  0.1924  0.9613 -0.0675
  372MOL0     H50160   6.380   2.761   8.692  1.7043 -1.0393 -0.7349
  372MOL0     H50161   6.158   2.595   8.589 -1.7848 -0.2898  1.1767
  372MOL0     H50162   6.116   2.710   8.719  0.1248  2.0586 -0.3705
  372MOL0     H50163   6.205   2.895   8.579 -0.7637 -0.6064  2.5627
  372MOL0     H50164   6.249   2.762   8.460 -1.2422 -2.1079  0.6043
  372MOL0     H50165   5.988   2.874   8.566  0.4445 -1.1825  2.4864
  372MOL0     H50166   6.052   2.881   8.395  1.4898 -0.1240  0.0411
  372MOL0     H50167   5.935   2.645   8.537  0.8396 -0.6836 -0.1286
  372MOL0     H50168   6.017   2.635   8.381 -0.8406  0.5629 -0.8397
  372MOL0     H50169   5.774   2.809   8.414 -0.1517  2.1504 -1.1966
  372MOL0     H50170   5.871   2.785   8.268 -1.4389 -0.6479 -0.3567
  372MOL0     H50171   5.671   2.558   8.513  0.1840  0.4005  0.3055
  372MOL0     H50172   5.578   2.232   8.293 -1.5642 -0.5076  0.6992
  372MOL0     H50173   5.578   2.254   8.467 -2.4096 -0.7873  1.0829
  372MOL0     H50174   5.394   2.421   8.450 -1.3259  0.5675  0.7143
  372MOL0     H50175   5.383   2.405   8.282 -1.2795 -0.4250  0.4860
  372MOL0     H50176   5.210   2.296   8.389 -1.9849 -2.9080  3.0890
  372MOL0     H50177   5.315   2.197   8.498  0.5956 -0.9884 -0.7944
  372MOL0     H50178   5.229   2.048   8.316  0.5773  0.0990  1.7709
  372MOL0     H50179   5.399   2.082   8.288 -0.2595 -0.7328 -0.5307
  372MOL0     H50180   5.059   2.077   7.986 -0.6646 -1.2314  0.0091
  372MOL0     H50181   5.088   1.888   7.855  0.9679 -2.0219  0.0412
  372MOL0     H50182   5.196   1.455   7.774  1.3966  3.8206  1.2257
  372MOL0     H50183   5.123   1.291   7.603  0.1595  0.1771 -0.0647
  372MOL0     H50184   4.948   1.212   7.471  0.6103 -2.1269 -1.2638
  372MOL0     H50185   4.870   1.361   7.414  1.8737  2.0545  1.4775
  372MOL0     H50186   4.807   1.147   7.294  1.0756 -1.8260  3.7582
  372MOL0     H50187   4.873   1.257   7.182 -0.5995  0.8166  0.5830
  372MOL0     H50188   5.010   1.085   7.123  2.5272  1.3618 -0.1713
  372MOL0     H50189   5.109   1.145   7.252  1.3334 -0.7722 -0.1483
  372MOL0     H50190   4.894   0.926   7.313 -0.9979  2.1542  0.4896
  372MOL0     H50191   5.026   0.993   7.417 -2.0872  0.2262  1.5242
  372MOL0     H50192   5.189   0.866   7.320  0.0589 -1.3518 -0.1740
  372MOL0     H50193   5.100   0.843   7.165 -2.0575 -1.6159 -0.4338
  372MOL0     H50194   5.054   0.691   7.421  1.4111 -3.8124 -0.2817
  372MOL0     H50195   4.951   0.688   7.271  1.1890 -0.8787 -2.0494
  372MOL0     H50196   5.157   0.635   7.148 -1.3855  0.4915 -0.9231
  372MOL0     H50197   5.121   0.510   7.276  2.5422 -1.2095 -0.9251
  372MOL0     H50198   5.331   0.732   7.298  0.1200  1.0331  2.8469
  372MOL0     H50199   5.303   0.600   7.406  1.7429 -1.3796 -0.8934
  372MOL0     H50200   5.102   1.595   7.308 -0.2655 -1.7872 -0.1225
  372MOL0     H50201   5.166   1.770   7.470 -1.3055 -0.5654 -1.3529
  372MOL0     H50202   5.512   1.879   7.899 -0.0313 -2.2501  0.1357
  372MOL0     H50203   5.478   2.057   8.088 -1.0994  3.5831 -1.2443
  372MOL0     H50204   6.204   2.208   8.817 -0.6307 -3.1962 -0.3509
  372MOL0     H50205   6.091   2.026   8.715 -0.8618 -0.6428 -0.7973
  372MOL0     H50206   5.805   1.669   8.565  0.9447  0.6364 -0.2900
  372MOL0     H50207   5.649   1.530   8.433  2.0259 -0.2005 -1.9550
  372MOL0     H50208   5.463   1.723   8.091  0.0392 -0.2011 -0.9196
  372MOL0     H50209   5.351   1.599   8.135  0.1412  2.0686  2.3394
  372MOL0     H50210   5.632   1.501   8.075 -0.3066 -1.3459  2.5750
  372MOL0     H50211   5.541   1.562   7.931 -2.4906  1.3629  0.2558
  372MOL0     H50212   5.344   1.405   7.991 -0.7332  0.5321  0.1427
  372MOL0     H50213   5.446   1.365   8.132  2.2779 -1.1355 -0.6722
  372MOL0     H50214   5.617   1.249   8.002  0.5056 -1.1180 -1.3450
  372MOL0     H50215   5.468   1.173   7.993  2.9020 -2.0688 -2.2040
  372MOL0     H50216   5.533   1.282   7.592  2.2567  1.8798  0.8231
  372MOL0     H50217   5.587   1.852   8.167 -2.0736 -0.6436  0.3581
  372MOL0     H50218   5.881   2.028   8.250 -0.3502 -1.1480 -1.4827
  372MOL0     H50219   5.712   2.054   8.188 -1.4351  0.0941  1.3086
  372MOL0     H50220   5.746   2.101   8.351 -4.8806 -2.0355  0.1490
  373MOL0     O50221   4.993   8.116  10.277  0.1711  0.3721  0.6250
  373MOL0     C50222   4.870   8.123  10.286 -0.0350  0.7396 -0.7846
  373MOL0     O50223   4.770   8.069  10.202  0.0336 -0.0768 -0.4292
  373MOL0     C50224   4.817   8.037  10.071  0.3131  0.1646 -1.0525
  373MOL0     C50225   4.861   7.914  10.039 -0.3411 -0.0527 -0.4538
  373MOL0     C50226   4.882   7.873   9.902  0.1111  0.1330  0.0805
  373MOL0     C50227   4.877   7.967   9.806 -0.3981 -0.2556 -0.1127
  373MOL0     O50228   4.901   7.952   9.674 -0.0012 -0.1114 -0.2423
  373MOL0     C50229   5.044   7.924   9.653 -0.5094 -0.7264  0.2709
  373MOL0     C50230   5.122   8.048   9.605 -0.2315 -0.1866 -0.7247
  373MOL0     C50231   5.050   8.111   9.480 -0.0717  0.3841 -0.3844
  373MOL0     C50232   5.138   8.222   9.421 -0.3775 -0.0247  0.9845
  373MOL0     C50233   5.078   8.303   9.302  0.1608 -0.5809 -0.4156
  373MOL0     C50234   4.922   8.323   9.324 -0.3428 -0.0483 -0.6605
  373MOL0     C50235   4.844   8.384   9.208  0.3737 -0.4717 -0.3156
  373MOL0     C50236   4.800   8.290   9.095 -0.4073 -1.0317  0.2203
  373MOL0     N50237   4.694   8.345   8.997 -0.9335  0.3012 -0.0683
  373MOL0     C50238   4.706   8.462   8.923  0.4173  0.3648  1.1345
  373MOL0     C50239   4.626   8.453   8.813  0.6980 -0.7202 -0.1348
  373MOL0     C50240   4.607   8.552   8.697 -0.0136  0.2404 -0.0042
  373MOL0     C50241   4.503   8.654   8.730  0.3496 -0.3695 -0.3178
  373MOL0     C50242   4.540   8.749   8.839  1.0267  0.5602  0.5567
  373MOL0     C50243   4.421   8.854   8.877 -0.5979  0.0639 -0.4593
  373MOL0     O50244   4.433   8.966   8.796 -1.0267 -0.0570  0.2959
  373MOL0     C50245   4.376   8.955   8.668 -0.6662  0.7068 -0.7674
  373MOL0     C50246   4.447   9.020   8.562  0.3948 -0.2575 -0.0137
  373MOL0     C50247   4.405   9.026   8.431 -0.2165 -1.1941 -0.3817
  373MOL0     C50248   4.283   8.970   8.395 -0.7661 -0.0704  0.3587
  373MOL0     C50249   4.242   8.968   8.249  0.2172  0.1906 -0.2295
  373MOL0     O50250   4.337   9.028   8.165  0.0149  0.9639 -0.3529
  373MOL0     C50251   4.296   9.028   8.039 -0.1809 -0.2776 -0.6234
  373MOL0     C50252   4.301   8.923   7.955 -0.1652  0.2297 -0.0773
  373MOL0     C50253   4.258   8.926   7.822 -0.6007 -0.5452  0.5689
  373MOL0     C50254   4.214   9.044   7.755  0.9813 -0.6624  0.1398
  373MOL0     O50255   4.160   9.059   7.616 -0.8160  0.5033 -0.3606
  373MOL0     C50256   4.183   8.953   7.521 -0.2501 -0.0850  1.0688
  373MOL0     C50257   4.309   8.972   7.431  0.8856 -1.3177 -0.6473
  373MOL0     C50258   4.318   9.115   7.351  0.1068 -0.0215  0.0007
  373MOL0     C50259   4.462   9.153   7.311 -0.5818 -0.2092 -0.2189
  373MOL0     C50260   4.468   9.292   7.244  0.5195  0.7791  0.3094
  373MOL0     C50261   4.602   9.318   7.188  0.5839 -0.6481  1.0327
  373MOL0     C50262   4.619   9.458   7.133 -0.2888  0.5589 -0.0372
  373MOL0     C50263   4.760   9.484   7.085  0.2032 -0.2285 -0.0810
  373MOL0    Cl50264   4.802   9.401   6.927 -0.2372 -0.0781  0.1336
  373MOL0     C50265   4.216   9.161   7.848 -0.5965  0.4305  0.3932
  373MOL0     C50266   4.247   9.149   7.987 -0.7463 -0.0740  0.6406
  373MOL0     O50267   4.141   8.908   8.217  0.1176 -0.4769  0.3081
  373MOL0     C50268   4.206   8.909   8.494  0.0854  0.1851  0.0963
  373MOL0     C50269   4.249   8.900   8.627  0.5417 -0.2389 -1.0687
  373MOL0     N50270   4.543   8.339   8.836 -0.1228  0.1611  0.1424
  373MOL0     N50271   4.592   8.268   8.941 -0.3775 -0.6269  0.6750
  373MOL0     C50272   4.847   8.099   9.842  0.1560  0.6501 -0.0107
  373MOL0     C50273   4.814   8.131   9.975  0.4350 -0.3642 -0.5105
  373MOL0     C50274   4.815   8.179  10.413  0.2313 -0.0422  0.5046
  373MOL0     C50275   4.684   8.135  10.451 -0.8773 -0.5337  0.6703
  373MOL0     C50276   4.616   8.164  10.570 -0.5104 -0.4506 -0.0949
  373MOL0     C50277   4.675   8.247  10.665 -0.4933  0.5888 -0.5462
  373MOL0     O50278   4.612   8.298  10.777 -0.3516 -0.4714  0.2645
  373MOL0     C50279   4.472   8.322  10.762 -0.2961  0.5607 -0.4079
  373MOL0     C50280   4.454   8.438  10.645  0.0266  0.0685 -0.4523
  373MOL0     C50281   4.339   8.536  10.680 -0.0277 -0.1373  0.3793
  373MOL0     C50282   4.293   8.615  10.559  0.2507 -0.9322 -0.3423
  373MOL0     C50283   4.199   8.542  10.474 -0.2164 -0.6095  0.0330
  373MOL0     C50284   4.132   8.472  10.401 -0.7681 -0.1086  0.1688
  373MOL0     C50285   4.810   8.278  10.635 -0.2130 -0.4016  0.5803
  373MOL0     C50286   4.884   8.248  10.515  0.2793  0.9147 -0.0269
  373MOL0     C50287   5.028   8.292  10.496 -0.3188  0.2391 -0.4045
  373MOL0     H50288   4.870   7.834  10.112 -0.9820 -0.9464 -1.3406
  373MOL0     H50289   4.901   7.770   9.876  1.2223 -0.3092  2.3114
  373MOL0     H50290   5.095   7.881   9.740 -1.4553  0.7890  1.6296
  373MOL0     H50291   5.069   7.851   9.575  3.1728 -1.1605  1.6882
  373MOL0     H50292   5.227   8.024   9.586  0.3451  1.2885  0.4165
  373MOL0     H50293   5.113   8.125   9.682 -3.1277  0.2458 -1.3530
  373MOL0     H50294   4.956   8.154   9.515 -1.7566  0.8109 -4.7434
  373MOL0     H50295   5.029   8.038   9.401  1.1922  1.5374 -1.8408
  373MOL0     H50296   5.151   8.295   9.502  1.6377  0.5798  0.1970
  373MOL0     H50297   5.236   8.176   9.403 -0.2990 -1.5131  4.4650
  373MOL0     H50298   5.132   8.396   9.283  3.0663 -2.0490  0.1448
  373MOL0     H50299   5.101   8.251   9.208 -1.4544  1.7549 -2.2236
  373MOL0     H50300   4.867   8.232   9.348 -2.4213  1.7352  1.8616
  373MOL0     H50301   4.916   8.400   9.402  0.0799 -0.3612 -0.3089
  373MOL0     H50302   4.898   8.474   9.175  0.5380  0.2888  1.8178
  373MOL0     H50303   4.746   8.413   9.248 -1.2028 -3.8163 -1.4515
  373MOL0     H50304   4.886   8.240   9.049  0.2063 -0.9928  1.2982
  373MOL0     H50305   4.751   8.206   9.146 -2.6045 -0.3445 -0.6359
  373MOL0     H50306   4.755   8.557   8.942 -1.0165  1.5907 -0.9196
  373MOL0     H50307   4.705   8.599   8.694 -0.7117  1.6885 -1.1688
  373MOL0     H50308   4.596   8.500   8.601 -4.6682 -0.3875  0.6293
  373MOL0     H50309   4.480   8.710   8.639  2.5944  2.0708  0.5184
  373MOL0     H50310   4.405   8.609   8.751 -1.5833  2.2335 -2.9595
  373MOL0     H50311   4.625   8.800   8.793  0.0789  0.5056 -1.3577
  373MOL0     H50312   4.555   8.689   8.929 -2.2729 -4.4494 -1.7884
  373MOL0     H50313   4.439   8.885   8.980  0.8512 -0.7745 -0.4325
  373MOL0     H50314   4.324   8.810   8.852 -1.5128  3.2796 -3.3373
  373MOL0     H50315   4.543   9.059   8.593  1.3831 -1.0608 -1.9010
  373MOL0     H50316   4.467   9.089   8.367  0.2782 -2.2125 -0.9190
  373MOL0     H50317   4.338   8.828   7.990  1.9977  1.2070  0.4347
  373MOL0     H50318   4.260   8.830   7.771  2.0378 -1.4467  2.1970
  373MOL0     H50319   4.198   8.853   7.562  3.9817 -2.0317 -4.1935
  373MOL0     H50320   4.092   8.945   7.461 -1.7177 -1.8437  3.3466
  373MOL0     H50321   4.394   8.960   7.500  4.6681  0.1287 -4.6156
  373MOL0     H50322   4.319   8.895   7.354 -3.4044 -1.4213 -1.3290
  373MOL0     H50323   4.250   9.106   7.267 -0.8949 -2.7787  1.0028
  373MOL0     H50324   4.270   9.189   7.416 -2.2415 -0.6044 -0.9699
  373MOL0     H50325   4.487   9.089   7.226 -1.7518  0.2166 -0.9068
  373MOL0     H50326   4.522   9.135   7.400 -2.0394 -2.1813  0.4367
  373MOL0     H50327   4.439   9.367   7.319 -1.0653  0.6095 -0.0932
  373MOL0     H50328   4.399   9.302   7.159  0.1883 -0.5856  0.3972
  373MOL0     H50329   4.680   9.313   7.264  1.3385  2.5854  0.6432
  373MOL0     H50330   4.634   9.255   7.104 -1.3008  2.1496 -2.0612
  373MOL0     H50331   4.586   9.517   7.219 -1.0102 -2.2306  1.7600
  373MOL0     H50332   4.551   9.467   7.047 -0.4563 -0.8856 -0.0838
  373MOL0     H50333   4.766   9.590   7.059 -0.0974 -0.1508  0.1762
  373MOL0     H50334   4.840   9.467   7.157 -2.1596  0.2441  2.8336
  373MOL0     H50335   4.217   9.260   7.804  1.8528 -0.2987 -1.4388
  373MOL0     H50336   4.251   9.238   8.049 -1.8465  1.6503 -1.5844
  373MOL0     H50337   4.108   8.862   8.480  0.9673 -2.3918  1.7575
  373MOL0     H50338   4.184   8.849   8.697  1.1538  1.2075  0.6110
  373MOL0     H50339   4.820   8.174   9.769 -3.0092 -0.2778  0.0219
  373MOL0     H50340   4.778   8.229  10.006 -0.5510 -1.1473  0.9671
  373MOL0     H50341   4.620   8.081  10.383 -2.6926  1.4003  0.7234
  373MOL0     H50342   4.526   8.108  10.593 -1.2662  1.1867  1.1196
  373MOL0     H50343   4.429   8.363  10.854 -3.4730  0.3400 -1.6744
  373MOL0     H50344   4.417   8.229  10.745 -0.1733  0.5281 -0.6291
  373MOL0     H50345   4.425   8.392  10.550  0.3015  2.2532 -1.6657
  373MOL0     H50346   4.546   8.497  10.636 -1.3207  2.2801 -0.3611
  373MOL0     H50347   4.384   8.598  10.759  2.3457 -2.2777  0.8388
  373MOL0     H50348   4.256   8.472  10.711  2.3474 -3.3029  0.7393
  373MOL0     H50349   4.242   8.695  10.613  0.4861 -1.1456  0.2004
  373MOL0     H50350   4.384   8.657  10.515 -1.0062  2.9335  0.3575
  373MOL0     H50351   4.086   8.422  10.318  2.8680 -0.5502 -1.8155
  373MOL0     H50352   4.862   8.332  10.713  0.5031 -1.5452  0.9206
  373MOL0     H50353   5.092   8.209  10.530 -0.6804  1.0657  2.5882
  373MOL0     H50354   5.056   8.307  10.391  2.4758  5.6617  0.7596
  373MOL0     H50355   5.054   8.386  10.544 -0.9667  0.3973 -0.3651
  374MOL0     O50356   9.181   5.131   2.199 -0.1509  0.1013 -0.1299
  374MOL0     C50357   9.212   5.223   2.118 -0.1585 -0.7268 -0.5782
  374MOL0     O50358   9.331   5.233   2.046  0.6613  0.6565  0.4507
  374MOL0     C50359   9.417   5.124   2.023  0.3655  0.4522  0.5674
  374MOL0     C50360   9.372   4.990   2.015 -0.3523 -0.2145 -0.2012
  374MOL0     C50361   9.458   4.885   2.016  0.7173  0.2078  0.9671
  374MOL0     C50362   9.598   4.902   2.003  0.4900  0.2776 -0.2199
  374MOL0     O50363   9.691   4.801   1.971  0.7588 -0.0016 -0.0644
  374MOL0     C50364   9.678   4.749   1.831  0.2242 -0.6227  0.1529
  374MOL0     C50365   9.780   4.627   1.818  0.3418 -0.2993 -0.8292
  374MOL0     C50366   9.808   4.552   1.948  0.2289  0.0960  0.0364
  374MOL0     C50367   9.870   4.412   1.904  0.3418  0.4995 -0.0767
  374MOL0     C50368   9.924   4.328   2.022  0.4363 -0.1989  0.6996
  374MOL0     C50369  10.047   4.385   2.099 -0.1234 -0.4580  0.0925
  374MOL0     C50370  10.069   4.299   2.220 -0.6054 -0.0339 -0.3456
  374MOL0     C50371  10.159   4.365   2.325  0.1086 -0.5822  0.0547
  374MOL0     N50372  10.206   4.260   2.418 -0.6044  0.1585  0.0726
  374MOL0     C50373  10.300   4.278   2.522  0.6256  0.4648  0.1283
  374MOL0     C50374  10.270   4.171   2.614 -0.0659  0.1187  0.0212
  374MOL0     C50375  10.346   4.145   2.741 -0.1463 -0.2349  0.1571
  374MOL0     C50376  10.486   4.075   2.738  0.2405  0.4735 -0.2996
  374MOL0     C50377  10.528   4.051   2.887 -0.2973  0.1711 -0.3976
  374MOL0     C50378  10.675   4.080   2.907  0.0909 -0.2401 -0.1845
  374MOL0     O50379  10.758   3.994   2.828 -0.0364  0.2922 -0.4699
  374MOL0     C50380  10.889   3.966   2.864  0.0790 -0.8356  0.4557
  374MOL0     C50381  10.955   4.007   2.980  0.1961  0.1928  0.5135
  374MOL0     C50382  11.095   3.976   2.998 -0.2117  0.5579 -0.1799
  374MOL0     C50383  11.165   3.907   2.893 -0.6937  0.2172 -1.1192
  374MOL0     C50384  11.310   3.873   2.920  0.4617  0.1395  0.4905
  374MOL0     O50385  11.356   3.876   3.052  0.9194  0.0111 -0.1957
  374MOL0     C50386  11.488   3.847   3.077  0.1355 -0.5307  0.4792
  374MOL0     C50387  11.578   3.953   3.098 -0.5468 -0.6373  0.0554
  374MOL0     C50388  11.715   3.936   3.108 -0.5776  0.5538  0.3677
  374MOL0     C50389  11.765   3.808   3.095  0.6254 -0.8329  0.7975
  374MOL0     O50390  11.903   3.803   3.094 -0.4492  1.1567  0.9976
  374MOL0     C50391  11.964   3.678   3.050 -0.6908 -0.7869 -0.6734
  374MOL0     C50392  12.118   3.695   3.077  0.4219 -0.1089  0.4406
  374MOL0     C50393  12.191   3.803   2.997  0.2886 -0.3186 -0.1741
  374MOL0     C50394  12.216   3.762   2.855 -0.4679 -0.2385 -0.4741
  374MOL0     C50395  12.271   3.882   2.783  0.4653  0.0413  0.1958
  374MOL0     C50396  12.421   3.922   2.824 -0.3928 -0.5398  0.7792
  374MOL0     C50397  12.474   4.065   2.777 -0.2491 -0.1543 -0.1505
  374MOL0     C50398  12.421   4.171   2.883  0.6887  0.3633  0.2194
  374MOL0    Cl50399  12.556   4.280   2.908 -0.3251 -0.1259  0.2606
  374MOL0     C50400  11.676   3.698   3.075 -0.5761  0.3016  1.2827
  374MOL0     C50401  11.537   3.720   3.061  0.2629  0.6068 -0.2507
  374MOL0     O50402  11.375   3.851   2.818  0.4637 -0.6337 -0.4621
  374MOL0     C50403  11.099   3.875   2.781 -1.0877 -0.2007  0.3541
  374MOL0     C50404  10.968   3.898   2.765  0.8950  0.0882  0.1930
  374MOL0     N50405  10.168   4.091   2.563  0.6530  0.3281 -0.3722
  374MOL0     N50406  10.123   4.150   2.454 -0.3541 -0.1415  1.2218
  374MOL0     C50407   9.648   5.033   2.015 -0.2171  0.1647 -0.2084
  374MOL0     C50408   9.553   5.139   2.030 -0.3657  0.9096 -0.0112
  374MOL0     C50409   9.099   5.312   2.072  0.3871 -0.4355 -0.4458
  374MOL0     C50410   9.129   5.408   1.971 -0.5062  1.1658  0.7387
  374MOL0     C50411   9.035   5.503   1.934  0.4326  0.4246  0.5809
  374MOL0     C50412   8.910   5.509   1.997 -0.1551 -0.4374 -0.0909
  374MOL0     O50413   8.827   5.612   1.972  0.5823  0.1576  0.8732
  374MOL0     C50414   8.699   5.631   2.042  0.0107 -0.0058  0.4996
  374MOL0     C50415   8.650   5.780   2.026 -0.5077 -0.1654 -0.4311
  374MOL0     C50416   8.679   5.854   1.899 -0.7636  0.2297 -0.2775
  374MOL0     C50417   8.613   5.985   1.893 -0.4828 -0.5847 -0.9398
  374MOL0     C50418   8.679   6.070   1.993  0.1001 -0.0092  0.2751
  374MOL0     C50419   8.733   6.134   2.072  0.6245 -0.1425 -0.9667
  374MOL0     C50420   8.876   5.408   2.089 -0.5645 -0.2523 -1.0125
  374MOL0     C50421   8.970   5.309   2.128  0.6454  0.2473  0.2252
  374MOL0     C50422   8.909   5.204   2.225  1.0012  0.0858  0.7056
  374MOL0     H50423   9.267   4.963   2.023 -0.2542 -1.5778 -2.3836
  374MOL0     H50424   9.417   4.785   2.011 -2.5651  1.4492  0.9149
  374MOL0     H50425   9.574   4.728   1.807  0.2671 -1.9122  0.9330
  374MOL0     H50426   9.703   4.830   1.763  0.6222 -1.8059 -1.1657
  374MOL0     H50427   9.877   4.658   1.777  0.3353  1.8486  0.6197
  374MOL0     H50428   9.724   4.559   1.754 -2.4484 -0.9527  2.0444
  374MOL0     H50429   9.719   4.543   2.011  0.0907 -0.2879 -0.2095
  374MOL0     H50430   9.882   4.604   2.010  1.8857 -0.4149 -1.4227
  374MOL0     H50431   9.788   4.358   1.856 -0.4950  1.7810 -0.1369
  374MOL0     H50432   9.954   4.416   1.834  0.4412  0.2290  0.0252
  374MOL0     H50433   9.847   4.340   2.099  0.2058  1.2854  0.2589
  374MOL0     H50434   9.943   4.224   1.991  3.8096  0.9321 -1.5385
  374MOL0     H50435  10.131   4.385   2.030  1.4870 -1.8729  1.9164
  374MOL0     H50436  10.037   4.489   2.129 -0.5145 -0.0671 -1.3242
  374MOL0     H50437  10.113   4.206   2.181 -2.7035 -1.5042  0.6115
  374MOL0     H50438   9.973   4.278   2.268 -1.1907  2.3649 -0.3449
  374MOL0     H50439  10.240   4.419   2.275 -1.7656  2.4435  0.0376
  374MOL0     H50440  10.099   4.441   2.374  2.5671  1.6899 -0.2499
  374MOL0     H50441  10.366   4.363   2.531  0.7326  0.6339 -1.9551
  374MOL0     H50442  10.346   4.238   2.799  2.9805 -0.2975  0.4046
  374MOL0     H50443  10.278   4.094   2.810  0.2966 -0.1950  0.6346
  374MOL0     H50444  10.460   3.979   2.691 -1.5864  1.1578 -0.7970
  374MOL0     H50445  10.565   4.126   2.683 -0.5930 -0.6695 -2.7180
  374MOL0     H50446  10.503   3.948   2.915  0.8523  0.6041  2.5914
  374MOL0     H50447  10.481   4.122   2.956  0.0665 -0.3395  0.3947
  374MOL0     H50448  10.696   4.073   3.014  2.6250  2.6463 -0.3569
  374MOL0     H50449  10.695   4.181   2.871 -1.8453  0.7682  1.3532
  374MOL0     H50450  10.911   4.070   3.056 -1.7465 -0.4502 -0.0185
  374MOL0     H50451  11.143   4.020   3.085  0.4389 -0.5671  0.0557
  374MOL0     H50452  11.548   4.058   3.097 -0.3242 -0.4197  3.4297
  374MOL0     H50453  11.776   4.025   3.123 -0.3404  0.4789 -0.1417
  374MOL0     H50454  11.930   3.591   3.108  1.3793 -1.9042 -1.0281
  374MOL0     H50455  11.942   3.656   2.946 -3.1858  0.2685 -0.4289
  374MOL0     H50456  12.140   3.723   3.181 -1.8945  1.7716  0.5190
  374MOL0     H50457  12.167   3.598   3.064 -1.8447 -2.0003  4.3058
  374MOL0     H50458  12.129   3.893   2.995  2.5170  1.6276 -6.1627
  374MOL0     H50459  12.281   3.840   3.047 -2.0147  2.1551  2.5111
  374MOL0     H50460  12.118   3.725   2.823 -1.0188  0.5962  0.2261
  374MOL0     H50461  12.283   3.675   2.854 -2.3501 -1.7854  0.7627
  374MOL0     H50462  12.206   3.970   2.791  1.0495  0.5804 -0.7520
  374MOL0     H50463  12.267   3.865   2.675 -2.6816  0.9825  0.0657
  374MOL0     H50464  12.434   3.912   2.932  2.9622  2.1004  0.7630
  374MOL0     H50465  12.487   3.847   2.779  0.8216  0.6509  0.5410
  374MOL0     H50466  12.420   4.083   2.683 -2.1858  0.7063  1.0568
  374MOL0     H50467  12.583   4.072   2.773 -0.1908 -1.1646 -3.4424
  374MOL0     H50468  12.336   4.230   2.846 -0.8168 -0.0816  2.7603
  374MOL0     H50469  12.411   4.123   2.981  0.2231  2.1126  1.0722
  374MOL0     H50470  11.713   3.596   3.080  0.7732  0.6955 -0.0115
  374MOL0     H50471  11.472   3.639   3.029 -1.5350  0.7387  2.6633
  374MOL0     H50472  11.141   3.803   2.711  1.0258 -0.1685  1.5017
  374MOL0     H50473  10.921   3.868   2.672  2.1343  2.0354 -1.1261
  374MOL0     H50474   9.753   5.055   2.030 -0.3152  1.2979 -1.0628
  374MOL0     H50475   9.602   5.236   2.037  2.1725 -0.3592  1.3871
  374MOL0     H50476   9.226   5.400   1.924 -0.0474  2.6679  1.3709
  374MOL0     H50477   9.045   5.584   1.862  2.3650 -0.5276 -0.2796
  374MOL0     H50478   8.720   5.610   2.147 -1.5634 -2.6913  0.3511
  374MOL0     H50479   8.632   5.562   1.990  0.6736  0.8869 -1.6649
  374MOL0     H50480   8.662   5.834   2.119 -1.5120  0.4437 -0.6438
  374MOL0     H50481   8.541   5.778   2.022 -0.5373  0.0310  0.2937
  374MOL0     H50482   8.642   5.793   1.817  1.2246 -0.8881 -0.4014
  374MOL0     H50483   8.786   5.860   1.879 -0.8260 -2.3801 -1.8934
  374MOL0     H50484   8.632   6.027   1.794  1.8845 -0.5408 -0.5280
  374MOL0     H50485   8.505   5.984   1.911 -0.1746 -0.5048  1.1308
  374MOL0     H50486   8.771   6.199   2.149 -0.5832 -1.6404  0.9868
  374MOL0     H50487   8.778   5.411   2.136 -1.3761  2.2427 -2.6335
  374MOL0     H50488   8.948   5.226   2.325 -0.3207  0.3929  1.1595
  374MOL0     H50489   8.801   5.211   2.218  1.1324  1.1198 -0.8225
  374MOL0     H50490   8.944   5.103   2.200  1.3542 -0.1560  2.0858
  375MOL0     O50491   8.249   8.605   7.632 -0.0693 -0.6103 -0.6019
  375MOL0     C50492   8.261   8.576   7.516  0.0027  0.0119  0.2579
  375MOL0     O50493   8.262   8.662   7.413  1.4453  0.0127  0.3766
  375MOL0     C50494   8.233   8.794   7.456 -0.2026 -0.4597 -0.1799
  375MOL0     C50495   8.103   8.828   7.503 -1.5184  1.1763  0.0074
  375MOL0     C50496   8.085   8.951   7.556 -0.0289 -0.0491 -0.7772
  375MOL0     C50497   8.195   9.035   7.578  0.0544  0.2672  0.2134
  375MOL0     O50498   8.176   9.142   7.651 -0.7343  0.2749  0.5075
  375MOL0     C50499   8.186   9.272   7.584 -0.0307  0.5715  0.8192
  375MOL0     C50500   8.198   9.370   7.696 -0.4904  0.3252 -0.2250
  375MOL0     C50501   8.341   9.438   7.709  1.6209 -0.2577  0.3967
  375MOL0     C50502   8.457   9.338   7.715  0.0944  0.4752 -0.0514
  375MOL0     C50503   8.572   9.375   7.812 -0.0013  0.2287 -0.6132
  375MOL0     C50504   8.637   9.509   7.776 -0.0026 -0.0367  0.6351
  375MOL0     C50505   8.768   9.509   7.852 -0.4341 -0.2841  0.0593
  375MOL0     C50506   8.848   9.637   7.840  0.0989  0.1623  0.5226
  375MOL0     N50507   8.783   9.756   7.899 -0.1256  0.0426 -0.1992
  375MOL0     C50508   8.808   9.797   8.032  0.4474  1.1199  0.3495
  375MOL0     C50509   8.731   9.901   8.047  0.0965 -0.6844 -0.3960
  375MOL0     C50510   8.742  10.007   8.159 -0.5711 -0.0683 -0.1904
  375MOL0     C50511   8.606  10.039   8.216 -0.5428  0.2251  0.4281
  375MOL0     C50512   8.547   9.907   8.268  0.5687 -0.4202 -0.2134
  375MOL0     C50513   8.413   9.938   8.337 -0.6068  0.3444  0.2101
  375MOL0     O50514   8.426   9.976   8.468 -0.2011  0.2149 -0.6899
  375MOL0     C50515   8.311  10.010   8.540  0.7976  0.6756  0.5742
  375MOL0     C50516   8.322  10.100   8.647  0.3969  0.8650 -0.2992
  375MOL0     C50517   8.212  10.133   8.731  0.1878 -0.4010  0.1982
  375MOL0     C50518   8.080  10.078   8.707  0.3211  0.2453  0.1839
  375MOL0     C50519   7.967  10.106   8.795 -0.0678 -0.0296 -0.5413
  375MOL0     O50520   7.994  10.164   8.918  0.3262  0.0035 -0.1672
  375MOL0     C50521   7.914  10.139   9.029 -0.1315  0.4858  0.1977
  375MOL0     C50522   7.974  10.095   9.148  0.1662 -0.4420 -0.2238
  375MOL0     C50523   7.897  10.055   9.256  0.3666 -0.6380  0.0912
  375MOL0     C50524   7.753  10.066   9.255 -0.2108 -0.0711 -0.0254
  375MOL0     O50525   7.668  10.028   9.357 -0.2065  0.6479  0.2679
  375MOL0     C50526   7.678   9.896   9.420 -0.9082 -0.0367  0.3202
  375MOL0     C50527   7.613   9.770   9.350  0.5603 -0.4662 -0.8324
  375MOL0     C50528   7.514   9.801   9.238  0.3930 -0.0056  0.0270
  375MOL0     C50529   7.458   9.670   9.184 -0.9253  0.3631 -0.0284
  375MOL0     C50530   7.514   9.631   9.047 -0.2473  1.0902  0.0628
  375MOL0     C50531   7.457   9.491   9.021  0.4981  0.8395  0.8945
  375MOL0     C50532   7.526   9.420   8.894  0.5786 -0.4515  0.6011
  375MOL0     C50533   7.424   9.370   8.794  0.3309  0.2149 -0.2746
  375MOL0    Cl50534   7.327   9.508   8.720 -0.3745  0.4134  0.4629
  375MOL0     C50535   7.697  10.130   9.143 -1.0533  0.4655  0.5945
  375MOL0     C50536   7.779  10.162   9.031  0.3679  0.3778  0.5236
  375MOL0     O50537   7.854  10.062   8.759 -0.7020  0.2106 -0.3800
  375MOL0     C50538   8.067   9.993   8.596 -0.1384 -1.0084  0.3855
  375MOL0     C50539   8.180   9.963   8.510  0.0507  0.1676 -0.0072
  375MOL0     N50540   8.657   9.923   7.936 -0.2546 -0.0944  0.1559
  375MOL0     N50541   8.684   9.833   7.848 -0.9538  0.1908 -0.4202
  375MOL0     C50542   8.325   8.999   7.537  0.0620  0.3916 -0.0491
  375MOL0     C50543   8.341   8.884   7.464 -0.4780 -0.5744  0.4287
  375MOL0     C50544   8.285   8.429   7.483  0.6119 -0.2743 -0.1013
  375MOL0     C50545   8.277   8.336   7.589  0.3664  0.0136 -0.1194
  375MOL0     C50546   8.303   8.201   7.569  0.9980 -0.3274 -0.6920
  375MOL0     C50547   8.332   8.166   7.442 -0.5885  0.4140  1.6253
  375MOL0     O50548   8.348   8.035   7.417 -0.0914 -0.4672 -0.3227
  375MOL0     C50549   8.226   7.965   7.435  0.1656  0.1804 -1.1364
  375MOL0     C50550   8.230   7.880   7.571 -0.2122 -0.6545  0.1977
  375MOL0     C50551   8.127   7.767   7.559  0.5516 -0.1172 -0.5143
  375MOL0     C50552   8.152   7.655   7.660 -0.1925 -0.7896 -0.2663
  375MOL0     C50553   8.092   7.527   7.620 -0.5639  0.2225 -0.3063
  375MOL0     C50554   8.040   7.441   7.554  0.1707  0.2370  0.4464
  375MOL0     C50555   8.342   8.244   7.328  0.8712  0.7221  0.0687
  375MOL0     C50556   8.323   8.381   7.351 -0.8265  0.1126 -0.8255
  375MOL0     C50557   8.334   8.465   7.221 -0.8670 -0.1924 -1.2021
  375MOL0     H50558   8.014   8.766   7.499  1.2401 -3.4852  2.4263
  375MOL0     H50559   7.991   8.980   7.604  0.8529 -0.7087  1.4880
  375MOL0     H50560   8.263   9.287   7.507 -0.8311 -2.6186 -0.7844
  375MOL0     H50561   8.085   9.280   7.544 -1.3255  2.6003  4.0678
  375MOL0     H50562   8.144   9.341   7.786  0.0130  3.3980  1.1938
  375MOL0     H50563   8.135   9.454   7.666 -3.2128 -1.3353  0.5558
  375MOL0     H50564   8.323   9.495   7.801 -0.9109 -1.0003  0.4386
  375MOL0     H50565   8.353   9.506   7.625 -0.6041  2.2399  1.9147
  375MOL0     H50566   8.427   9.235   7.738  0.8320  0.8202  2.8339
  375MOL0     H50567   8.500   9.318   7.616  0.1160 -0.6319  0.1647
  375MOL0     H50568   8.532   9.374   7.913  1.2518 -1.9963 -0.0826
  375MOL0     H50569   8.637   9.287   7.810  0.8840  0.8672 -1.5831
  375MOL0     H50570   8.652   9.511   7.668 -0.9850  0.6217  0.5017
  375MOL0     H50571   8.570   9.588   7.811  0.5589  1.4477 -1.4591
  375MOL0     H50572   8.826   9.422   7.820  2.9953  0.6373  3.0290
  375MOL0     H50573   8.762   9.491   7.960  3.6222  1.6878  0.8323
  375MOL0     H50574   8.945   9.617   7.887  1.3277 -2.2984 -2.7234
  375MOL0     H50575   8.864   9.673   7.738 -1.9299 -0.1255  0.0695
  375MOL0     H50576   8.881   9.761   8.103  0.9718 -0.9781 -1.1569
  375MOL0     H50577   8.803   9.975   8.243 -1.7091 -0.8958  0.3516
  375MOL0     H50578   8.800  10.091   8.122  3.3982 -0.5837  4.0176
  375MOL0     H50579   8.618  10.112   8.296  1.7098 -2.5870  2.9095
  375MOL0     H50580   8.543  10.088   8.141 -0.6356  0.3514  0.5908
  375MOL0     H50581   8.620   9.872   8.342  3.8500 -0.4116 -3.1754
  375MOL0     H50582   8.528   9.830   8.192 -1.6547  0.3618 -0.5432
  375MOL0     H50583   8.354   9.846   8.330 -0.0103  0.0347 -1.0135
  375MOL0     H50584   8.357  10.014   8.282  1.4930  3.5047  2.0874
  375MOL0     H50585   8.415  10.153   8.664  0.7298  0.6755 -1.4398
  375MOL0     H50586   8.215  10.197   8.819 -2.8409 -0.6913  0.6418
  375MOL0     H50587   8.080  10.077   9.156  0.0068 -0.5882  2.5763
  375MOL0     H50588   7.949  10.017   9.342  1.8707 -1.6387 -1.2042
  375MOL0     H50589   7.782   9.873   9.441 -0.7679  0.5356  0.2723
  375MOL0     H50590   7.629   9.916   9.516 -0.4970  3.2061 -0.0170
  375MOL0     H50591   7.699   9.727   9.300  1.2953  0.6112 -0.5282
  375MOL0     H50592   7.573   9.702   9.426 -0.0948  2.3229  1.5101
  375MOL0     H50593   7.444   9.876   9.275  1.5641  1.1606 -0.0576
  375MOL0     H50594   7.571   9.857   9.163  1.4679  2.7129  2.6746
  375MOL0     H50595   7.349   9.677   9.178 -1.0953 -2.0812 -1.0923
  375MOL0     H50596   7.479   9.589   9.255 -0.4862 -1.2904 -1.9647
  375MOL0     H50597   7.623   9.626   9.061 -0.4003  2.0946  1.8854
  375MOL0     H50598   7.478   9.690   8.962 -0.8871  0.3839 -0.1719
  375MOL0     H50599   7.478   9.434   9.111 -0.1553  1.7959  1.6772
  375MOL0     H50600   7.351   9.486   8.993  0.5911 -2.0642  0.7935
  375MOL0     H50601   7.565   9.318   8.909 -0.4155 -0.8925  0.2388
  375MOL0     H50602   7.604   9.472   8.838 -1.2656 -0.7658 -2.4717
  375MOL0     H50603   7.461   9.312   8.709  0.1959  2.2595 -1.7835
  375MOL0     H50604   7.356   9.303   8.848  0.4176  0.1688 -0.2226
  375MOL0     H50605   7.589  10.145   9.151 -1.2881 -1.3195  1.1515
  375MOL0     H50606   7.733  10.205   8.942 -0.5632 -1.4830  0.0554
  375MOL0     H50607   7.968   9.953   8.578 -0.1668 -0.3983 -0.9505
  375MOL0     H50608   8.165   9.894   8.427 -0.8066 -0.5003  0.6824
  375MOL0     H50609   8.411   9.062   7.557  0.6280 -0.0257 -1.1022
  375MOL0     H50610   8.435   8.851   7.421 -1.0300 -0.1491 -1.1841
  375MOL0     H50611   8.254   8.371   7.689  0.3806 -0.2091 -0.0391
  375MOL0     H50612   8.301   8.134   7.655 -0.0146  1.3819  0.6704
  375MOL0     H50613   8.222   7.901   7.346  0.4805  0.5654 -1.4288
  375MOL0     H50614   8.136   8.026   7.439 -0.6428 -0.9539  3.2505
  375MOL0     H50615   8.221   7.939   7.663 -1.4676  1.9837 -1.5080
  375MOL0     H50616   8.329   7.835   7.566  0.4906  0.7702  0.8345
  375MOL0     H50617   8.114   7.741   7.454 -0.8594  1.6422 -0.8360
  375MOL0     H50618   8.030   7.815   7.573  2.1616  2.7377  2.0904
  375MOL0     H50619   8.261   7.658   7.673 -0.0772 -0.3622 -1.2187
  375MOL0     H50620   8.112   7.684   7.757 -0.5905  0.0127 -0.6605
  375MOL0     H50621   7.991   7.362   7.501  1.0232  2.0065 -3.3786
  375MOL0     H50622   8.352   8.203   7.228 -0.7166 -1.5661  0.7504
  375MOL0     H50623   8.363   8.401   7.137 -1.1523 -1.6656 -0.2255
  375MOL0     H50624   8.234   8.503   7.195 -1.7545  0.7024  2.8139
  375MOL0     H50625   8.406   8.546   7.236  0.7577 -1.9511  1.1614
  376MOL0     O50626   5.119   9.716   0.012  0.4069 -0.3480 -0.0988
  376MOL0     C50627   5.148   9.613  -0.044  0.0267  0.0401  0.8637
  376MOL0     O50628   5.196   9.609  -0.178  0.4592  0.4172  0.3660
  376MOL0     C50629   5.219   9.723  -0.252 -0.3603  0.6075  0.6113
  376MOL0     C50630   5.337   9.726  -0.320  0.2233 -0.1879  0.0752
  376MOL0     C50631   5.364   9.832  -0.405 -0.4246  0.2706 -0.6676
  376MOL0     C50632   5.276   9.928  -0.419 -0.6509 -0.2761 -0.2665
  376MOL0     O50633   5.300  10.037  -0.501 -0.4244 -0.5965  0.0090
  376MOL0     C50634   5.382  10.022  -0.624 -1.1721  0.1615  0.3639
  376MOL0     C50635   5.387  10.155  -0.695  0.0382 -0.7056  0.3708
  376MOL0     C50636   5.253  10.217  -0.724 -0.1873 -0.3909 -0.0117
  376MOL0     C50637   5.156  10.145  -0.825 -0.3607  0.5102 -0.2267
  376MOL0     C50638   5.235  10.080  -0.944 -0.2178  0.0734 -0.5533
  376MOL0     C50639   5.141  10.009  -1.044 -0.5023 -0.1689 -0.9689
  376MOL0     C50640   5.228   9.969  -1.171 -0.1516  0.6212 -0.2130
  376MOL0     C50641   5.160   9.918  -1.285  0.5876 -0.2497 -1.0882
  376MOL0     N50642   5.253   9.864  -1.383 -0.7443  0.2780 -0.2759
  376MOL0     C50643   5.363   9.941  -1.431  1.0940  0.7421 -0.1444
  376MOL0     C50644   5.449   9.852  -1.486 -0.4275 -0.5164  0.8036
  376MOL0     C50645   5.581   9.898  -1.546 -0.9256 -0.5172 -0.2147
  376MOL0     C50646   5.570   9.983  -1.665 -0.1814 -0.1415  0.5081
  376MOL0     C50647   5.540   9.906  -1.796 -0.3922  0.2175 -0.3757
  376MOL0     C50648   5.416   9.815  -1.802 -0.3186  0.2970 -0.0882
  376MOL0     O50649   5.353   9.819  -1.932  0.3337 -0.0287 -0.3492
  376MOL0     C50650   5.256   9.720  -1.955 -0.3009  0.6911  0.2181
  376MOL0     C50651   5.283   9.624  -2.055 -0.3490 -0.2647 -0.4367
  376MOL0     C50652   5.191   9.525  -2.086  0.0284  0.2620 -0.9390
  376MOL0     C50653   5.067   9.508  -2.015  0.0077 -0.5068 -0.0288
  376MOL0     C50654   4.974   9.400  -2.055  0.4785 -0.1749 -0.2321
  376MOL0     O50655   4.874   9.379  -1.963 -1.0180 -0.4896  0.3885
  376MOL0     C50656   4.776   9.295  -1.997 -0.1527 -0.7299  0.9328
  376MOL0     C50657   4.668   9.322  -2.082 -0.4975 -0.0829  0.1733
  376MOL0     C50658   4.558   9.237  -2.103  0.4366  0.6756 -0.7498
  376MOL0     C50659   4.570   9.105  -2.044 -0.2923  0.1757  1.1474
  376MOL0     O50660   4.463   9.022  -2.057 -0.8773 -0.1413  0.0733
  376MOL0     C50661   4.475   8.882  -2.039 -0.1817  0.3491 -0.0270
  376MOL0     C50662   4.534   8.812  -2.162  0.7192 -0.5144 -0.1274
  376MOL0     C50663   4.512   8.657  -2.149 -0.7799  0.0757 -0.6617
  376MOL0     C50664   4.398   8.615  -2.235  0.3198  0.0795 -0.0640
  376MOL0     C50665   4.359   8.466  -2.242 -0.9025  0.5022 -0.4616
  376MOL0     C50666   4.214   8.434  -2.273  0.3146  0.2760 -0.1766
  376MOL0     C50667   4.164   8.512  -2.397  0.1560  0.7672 -0.3580
  376MOL0     C50668   4.219   8.503  -2.530  0.6501 -0.0169  0.5402
  376MOL0    Cl50669   4.096   8.530  -2.662 -0.0318 -0.3923  0.5112
  376MOL0     C50670   4.673   9.083  -1.951 -0.5370 -0.8366  1.3171
  376MOL0     C50671   4.772   9.174  -1.933 -0.4038 -0.1091  0.7687
  376MOL0     O50672   4.996   9.338  -2.161  0.2419 -0.0733  0.2824
  376MOL0     C50673   5.041   9.608  -1.912 -0.1828  0.2432 -0.6168
  376MOL0     C50674   5.134   9.712  -1.880 -1.1702 -0.3909  0.8081
  376MOL0     N50675   5.388   9.729  -1.481  0.0826  0.3655  0.3832
  376MOL0     N50676   5.271   9.737  -1.424 -0.0210  0.3413 -0.7379
  376MOL0     C50677   5.157   9.933  -0.348  0.5817  0.2948 -1.1336
  376MOL0     C50678   5.129   9.825  -0.258 -0.7198 -0.0213 -0.2793
  376MOL0     C50679   5.153   9.489   0.043 -0.9513  0.2909  0.7046
  376MOL0     C50680   5.119   9.370  -0.022  0.5192 -0.6686 -0.4056
  376MOL0     C50681   5.126   9.250   0.051 -0.0620  0.0702  0.2922
  376MOL0     C50682   5.144   9.242   0.187 -0.4475 -0.8211 -0.9230
  376MOL0     O50683   5.168   9.118   0.243  0.6159 -0.6947  0.5006
  376MOL0     C50684   5.102   9.088   0.366  0.3160 -0.3520  1.0119
  376MOL0     C50685   5.199   9.008   0.449  0.5422  0.0331 -0.4679
  376MOL0     C50686   5.315   9.106   0.498 -0.6961 -0.0826 -0.6843
  376MOL0     C50687   5.442   9.049   0.552  0.1255  0.4284  0.9145
  376MOL0     C50688   5.544   9.158   0.540 -0.5623  0.7475  0.1146
  376MOL0     C50689   5.636   9.244   0.539  0.5963 -0.4685 -0.2063
  376MOL0     C50690   5.179   9.360   0.251 -0.5721  0.3642  0.3455
  376MOL0     C50691   5.195   9.481   0.176 -0.1600 -0.2479 -0.4984
  376MOL0     C50692   5.262   9.582   0.262 -0.2907 -0.3701 -0.3237
  376MOL0     H50693   5.393   9.641  -0.283 -1.4181 -0.9655  0.8948
  376MOL0     H50694   5.459   9.845  -0.456 -0.6414  1.6466 -0.7581
  376MOL0     H50695   5.485   9.997  -0.596 -0.1443  1.6461 -1.8055
  376MOL0     H50696   5.360   9.938  -0.691  2.2471  0.7954 -1.8320
  376MOL0     H50697   5.443  10.139  -0.787 -0.0713 -1.1352  0.3776
  376MOL0     H50698   5.430  10.224  -0.622 -3.6757  0.8003  1.3734
  376MOL0     H50699   5.273  10.313  -0.772 -1.0559 -0.9104 -1.5018
  376MOL0     H50700   5.203  10.240  -0.630 -0.2322  0.9900 -0.3593
  376MOL0     H50701   5.114  10.068  -0.761 -0.5023  2.1019  1.6923
  376MOL0     H50702   5.083  10.214  -0.869 -1.8547 -2.5845 -3.0355
  376MOL0     H50703   5.281  10.163  -1.000 -1.3035  1.0188 -0.0808
  376MOL0     H50704   5.308  10.005  -0.912 -0.0195 -1.4790 -4.1025
  376MOL0     H50705   5.099   9.916  -1.006  1.6712 -1.8900 -2.5350
  376MOL0     H50706   5.061  10.080  -1.066 -1.4471 -1.3116 -1.2708
  376MOL0     H50707   5.300   9.892  -1.140 -0.4587 -1.2983 -3.7613
  376MOL0     H50708   5.284  10.057  -1.203  1.7604 -0.0098  1.1806
  376MOL0     H50709   5.084   9.852  -1.241  1.6715 -0.7010  0.1903
  376MOL0     H50710   5.104  10.003  -1.324  0.1414  0.7295  1.4670
  376MOL0     H50711   5.379  10.048  -1.418 -1.0620  1.3737 -2.1083
  376MOL0     H50712   5.631   9.961  -1.472  0.6533 -2.8462  0.8340
  376MOL0     H50713   5.660   9.825  -1.565 -0.7109  0.2778 -2.6463
  376MOL0     H50714   5.499  10.066  -1.660  2.0552  2.2138 -2.6334
  376MOL0     H50715   5.667  10.029  -1.691 -0.7251  0.0995 -1.2336
  376MOL0     H50716   5.626   9.847  -1.831 -0.7813  0.7361 -2.3315
  376MOL0     H50717   5.513   9.983  -1.869 -0.9663 -0.1803 -0.5900
  376MOL0     H50718   5.346   9.871  -1.739  1.2384  1.7210  0.4335
  376MOL0     H50719   5.432   9.710  -1.777 -1.1652 -0.8780 -3.8462
  376MOL0     H50720   5.379   9.627  -2.106  0.3725  1.0322  0.9305
  376MOL0     H50721   5.210   9.465  -2.174 -0.4705  1.2317 -1.7235
  376MOL0     H50722   4.670   9.412  -2.142 -0.5422  0.4047  0.8865
  376MOL0     H50723   4.475   9.259  -2.168  0.4141 -1.7508 -1.6394
  376MOL0     H50724   4.533   8.861  -1.949  1.8419  0.7958 -1.1567
  376MOL0     H50725   4.373   8.856  -2.012 -0.1373 -0.5878 -0.7212
  376MOL0     H50726   4.479   8.863  -2.242  0.2327 -1.4272 -0.3918
  376MOL0     H50727   4.641   8.830  -2.160  0.6513 -0.1284  1.3075
  376MOL0     H50728   4.598   8.600  -2.186  0.1692  0.5081  0.8112
  376MOL0     H50729   4.492   8.632  -2.045  1.6429 -2.5474 -0.6883
  376MOL0     H50730   4.409   8.659  -2.334 -0.8819 -0.0514 -0.2756
  376MOL0     H50731   4.312   8.675  -2.204  0.1571 -0.7296  1.1132
  376MOL0     H50732   4.381   8.428  -2.142 -0.1447  2.6733  0.2652
  376MOL0     H50733   4.413   8.414  -2.322 -2.7800 -2.1623 -0.1140
  376MOL0     H50734   4.190   8.328  -2.288  1.3013 -0.4107  2.4514
  376MOL0     H50735   4.143   8.466  -2.196  0.7316  0.7181  0.0276
  376MOL0     H50736   4.152   8.618  -2.370 -2.4120  0.5161 -0.2901
  376MOL0     H50737   4.058   8.490  -2.414 -0.0425  3.0711 -2.7836
  376MOL0     H50738   4.304   8.570  -2.544  1.6099 -0.9091  1.8777
  376MOL0     H50739   4.266   8.404  -2.534 -1.6627 -1.1853  0.7925
  376MOL0     H50740   4.682   8.993  -1.891  0.0983 -1.0400  0.9344
  376MOL0     H50741   4.839   9.160  -1.848 -2.3297 -0.6156  2.2767
  376MOL0     H50742   4.961   9.590  -1.841  2.3423 -0.8752  2.1222
  376MOL0     H50743   5.127   9.778  -1.794  2.0967  0.7189  0.3693
  376MOL0     H50744   5.083  10.011  -0.359  0.5583  0.4118 -0.2419
  376MOL0     H50745   5.034   9.809  -0.208  0.1904 -2.9608  0.6958
  376MOL0     H50746   5.095   9.357  -0.127 -1.0798 -1.0834 -0.0156
  376MOL0     H50747   5.098   9.155   0.007  5.0477 -1.6782  0.2341
  376MOL0     H50748   5.007   9.042   0.338 -2.2428  3.2929  2.8295
  376MOL0     H50749   5.081   9.180   0.422 -2.5230 -0.0217 -0.4121
  376MOL0     H50750   5.224   8.915   0.396 -2.3557 -0.3791 -1.2380
  376MOL0     H50751   5.150   8.969   0.538 -0.2774  2.1829  0.0753
  376MOL0     H50752   5.280   9.183   0.568  0.7770  2.2701 -2.3694
  376MOL0     H50753   5.336   9.179   0.420  0.6034 -0.6749 -0.9149
  376MOL0     H50754   5.433   9.007   0.652  2.8536 -2.8446 -0.0589
  376MOL0     H50755   5.475   8.966   0.490 -1.8040  0.8600 -0.8295
  376MOL0     H50756   5.704   9.327   0.551  1.6034 -1.2619 -0.2759
  376MOL0     H50757   5.211   9.344   0.353 -2.5787 -1.6588  0.7379
  376MOL0     H50758   5.319   9.659   0.210 -1.8021  2.2662  1.6422
  376MOL0     H50759   5.193   9.650   0.313  1.9608  0.7251  1.4078
  376MOL0     H50760   5.330   9.528   0.328 -1.4401 -2.8028 -0.9732
  377MOL0     O50761   4.077   2.001  10.047  0.7120  0.8561  0.3983
  377MOL0     C50762   3.962   1.998  10.100 -0.0275  0.8257  1.0147
  377MOL0     O50763   3.859   2.087  10.092  0.1005  0.7917 -1.1570
  377MOL0     C50764   3.893   2.210  10.039  0.1469  0.3365  0.0108
  377MOL0     C50765   3.945   2.228   9.906 -0.6127  0.2183  0.5443
  377MOL0     C50766   3.974   2.354   9.854 -0.7380  0.9342 -0.3908
  377MOL0     C50767   3.978   2.467   9.945 -0.1121 -0.9824 -0.1322
  377MOL0     O50768   4.027   2.595   9.911 -0.9215 -0.4369 -0.0772
  377MOL0     C50769   4.163   2.598   9.866  0.6405 -0.0721  0.2020
  377MOL0     C50770   4.194   2.738   9.827 -0.1568 -0.5313  0.3727
  377MOL0     C50771   4.199   2.834   9.950 -0.1624  0.0906  0.3228
  377MOL0     C50772   4.188   2.989   9.922  0.6242  0.5917  0.3382
  377MOL0     C50773   4.311   3.024   9.830 -0.1879  0.0622  0.0190
  377MOL0     C50774   4.349   3.173   9.828  0.3308 -0.7970 -0.3902
  377MOL0     C50775   4.353   3.247   9.962 -0.4857 -0.5252  0.2425
  377MOL0     C50776   4.434   3.375   9.938 -0.1834 -0.4873  0.4974
  377MOL0     N50777   4.368   3.475   9.856  0.1691  0.1073 -0.6285
  377MOL0     C50778   4.365   3.489   9.723 -0.5959  0.8336  0.3455
  377MOL0     C50779   4.316   3.604   9.697  0.5733 -1.1302  0.6160
  377MOL0     C50780   4.293   3.684   9.569  0.2214  0.0870  0.1975
  377MOL0     C50781   4.386   3.654   9.458 -0.2010 -0.4091  0.0395
  377MOL0     C50782   4.318   3.580   9.343 -0.2335 -0.5023 -0.0657
  377MOL0     C50783   4.249   3.441   9.359 -0.0948 -0.4229 -0.8508
  377MOL0     O50784   4.344   3.341   9.398  0.1243  0.0397 -0.2106
  377MOL0     C50785   4.292   3.212   9.408 -0.4080 -0.6370  0.4593
  377MOL0     C50786   4.385   3.114   9.438  0.0648  0.8749 -0.6206
  377MOL0     C50787   4.347   2.982   9.439 -0.1709 -0.4187  0.4186
  377MOL0     C50788   4.219   2.941   9.426 -0.0523 -0.0742 -0.0094
  377MOL0     C50789   4.173   2.799   9.446  0.6305 -0.7145  0.5925
  377MOL0     O50790   4.275   2.717   9.459  0.7544  0.8425  0.8161
  377MOL0     C50791   4.265   2.577   9.483 -0.3229 -0.2461 -0.0833
  377MOL0     C50792   4.150   2.495   9.458 -0.1346  0.2905 -0.3112
  377MOL0     C50793   4.142   2.357   9.502  0.0204  0.1669  0.0679
  377MOL0     C50794   4.260   2.296   9.565 -0.1973 -0.6211 -0.5245
  377MOL0     O50795   4.269   2.169   9.609 -1.2376  0.3697 -0.4010
  377MOL0     C50796   4.258   2.072   9.505 -0.8246  0.0807 -0.1557
  377MOL0     C50797   4.250   1.936   9.575 -0.2556 -0.2922  0.2944
  377MOL0     C50798   4.203   1.825   9.490 -0.4732  0.1587 -0.1985
  377MOL0     C50799   4.054   1.814   9.461 -0.0493  0.3592 -0.7623
  377MOL0     C50800   4.024   1.702   9.362 -0.2670 -0.3041  0.4302
  377MOL0     C50801   3.883   1.645   9.388  0.5309 -0.1424 -0.6503
  377MOL0     C50802   3.765   1.734   9.330  0.4487 -0.0186 -0.0016
  377MOL0     C50803   3.629   1.657   9.341  0.6554  0.3075  0.4856
  377MOL0    Cl50804   3.472   1.741   9.310 -0.5043  0.0163  0.0896
  377MOL0     C50805   4.368   2.375   9.585 -0.3517 -0.5244  0.7690
  377MOL0     C50806   4.380   2.506   9.526 -0.4620  0.6603  0.2169
  377MOL0     O50807   4.057   2.781   9.486  0.1195  0.0520  0.1494
  377MOL0     C50808   4.119   3.041   9.397 -0.4013 -0.2133  0.4982
  377MOL0     C50809   4.158   3.175   9.383  0.7629 -0.9239 -0.0337
  377MOL0     N50810   4.258   3.656   9.809  0.6738 -0.5641  0.5484
  377MOL0     N50811   4.307   3.586   9.906  0.2808  0.0686 -0.7005
  377MOL0     C50812   3.919   2.453  10.068  0.3340  0.3087 -0.1830
  377MOL0     C50813   3.871   2.328  10.114  0.0182 -0.3761  0.2259
  377MOL0     C50814   3.928   1.902  10.196  0.2307 -0.5425 -0.0838
  377MOL0     C50815   3.933   1.949  10.321 -0.1783 -0.7314  0.1904
  377MOL0     C50816   3.895   1.864  10.423 -0.8673  0.6920 -0.7450
  377MOL0     C50817   3.870   1.729  10.399  0.7597 -0.0756  0.2351
  377MOL0     O50818   3.837   1.637  10.502 -0.4315  0.1512  0.1896
  377MOL0     C50819   3.746   1.684  10.598 -0.3351 -0.3618 -0.3670
  377MOL0     C50820   3.660   1.566  10.656 -0.1184  0.2369  0.5148
  377MOL0     C50821   3.567   1.500  10.549 -0.2586  0.4429 -0.5437
  377MOL0     C50822   3.500   1.386  10.607  0.2958  0.4791 -0.4495
  377MOL0     C50823   3.374   1.361  10.541 -0.1297 -0.1941 -0.2026
  377MOL0     C50824   3.272   1.344  10.491  0.0734  0.2406 -0.1160
  377MOL0     C50825   3.866   1.684  10.266 -0.3244 -0.6191  0.1710
  377MOL0     C50826   3.898   1.768  10.163  0.0501  0.5290  0.4332
  377MOL0     C50827   3.894   1.723  10.017 -0.5929  0.2234 -0.2922
  377MOL0     H50828   3.976   2.136   9.858 -2.7260  0.9988 -2.5878
  377MOL0     H50829   4.023   2.350   9.757  0.9547 -0.3551  0.4631
  377MOL0     H50830   4.238   2.564   9.938  1.0158  3.0742  1.4268
  377MOL0     H50831   4.161   2.533   9.778 -3.0794 -0.6676  0.5378
  377MOL0     H50832   4.122   2.769   9.751  1.0986 -0.5013 -0.8524
  377MOL0     H50833   4.286   2.741   9.767 -1.6870 -0.4825 -2.1248
  377MOL0     H50834   4.289   2.807  10.005  1.0975  0.4637 -1.4846
  377MOL0     H50835   4.117   2.809  10.018  0.5853  1.8638  1.9890
  377MOL0     H50836   4.096   3.030   9.878 -0.1718  1.9783  3.0440
  377MOL0     H50837   4.176   3.045  10.015  0.1462  0.1273  0.5627
  377MOL0     H50838   4.403   2.979   9.870  1.4380  1.3056 -2.1201
  377MOL0     H50839   4.293   2.988   9.729  2.2236  0.2445 -0.5463
  377MOL0     H50840   4.444   3.179   9.774  1.3970 -1.1524  1.3773
  377MOL0     H50841   4.267   3.219   9.772  0.1501 -1.2083 -0.4690
  377MOL0     H50842   4.410   3.188  10.033  0.9377  0.6215  0.0900
  377MOL0     H50843   4.256   3.278  10.001 -0.0150  1.4135 -0.0316
  377MOL0     H50844   4.465   3.419  10.033 -1.4236 -0.4633  0.9079
  377MOL0     H50845   4.528   3.352   9.887 -1.1514  0.3705 -1.8480
  377MOL0     H50846   4.412   3.423   9.652  0.2966  0.1073  1.5686
  377MOL0     H50847   4.193   3.679   9.523  1.3528  0.0687 -2.4592
  377MOL0     H50848   4.308   3.788   9.599 -1.7159  0.8242 -1.1636
  377MOL0     H50849   4.417   3.753   9.422 -2.6326  0.7862  1.0780
  377MOL0     H50850   4.476   3.600   9.490 -1.1173 -2.3070 -0.4108
  377MOL0     H50851   4.382   3.569   9.255 -0.9640 -2.0205 -0.4451
  377MOL0     H50852   4.242   3.650   9.309  0.4038 -1.1698 -3.2095
  377MOL0     H50853   4.191   3.421   9.268  0.5475 -0.1278 -1.3266
  377MOL0     H50854   4.185   3.459   9.447 -0.8978  3.1430 -1.9972
  377MOL0     H50855   4.487   3.147   9.453 -0.2462  1.0017  1.6075
  377MOL0     H50856   4.430   2.915   9.457  2.1156  2.4889  1.5378
  377MOL0     H50857   4.054   2.533   9.425 -2.9389 -2.0240  4.0760
  377MOL0     H50858   4.050   2.300   9.496 -2.3619  3.4895  1.3767
  377MOL0     H50859   4.168   2.092   9.446  0.4280 -1.0494 -2.5971
  377MOL0     H50860   4.348   2.084   9.445  0.6024  1.5871  2.1366
  377MOL0     H50861   4.350   1.912   9.614 -0.6374 -3.8726 -0.5594
  377MOL0     H50862   4.178   1.951   9.655  0.1454 -2.8819  1.2366
  377MOL0     H50863   4.254   1.814   9.394 -3.2220  1.9420 -2.0224
  377MOL0     H50864   4.217   1.730   9.541  0.5486  1.0803  1.3246
  377MOL0     H50865   4.011   1.913   9.441 -0.2864  1.3108  3.4768
  377MOL0     H50866   4.010   1.783   9.556 -1.9227  0.8381 -1.4376
  377MOL0     H50867   4.098   1.621   9.366 -1.5911 -1.5847  0.1413
  377MOL0     H50868   4.027   1.737   9.258 -0.5557 -2.1644 -0.2533
  377MOL0     H50869   3.863   1.542   9.357 -4.0830 -1.1939  4.2781
  377MOL0     H50870   3.879   1.650   9.497  0.1619  2.7045 -0.7285
  377MOL0     H50871   3.794   1.742   9.224  2.1705  0.8616  0.5007
  377MOL0     H50872   3.751   1.832   9.377 -0.3127  0.2044 -0.6512
  377MOL0     H50873   3.649   1.569   9.279  0.3915 -0.4596  1.4690
  377MOL0     H50874   3.613   1.613   9.439  0.2339 -2.6343 -0.7910
  377MOL0     H50875   4.451   2.326   9.633 -0.4291  0.9847  2.5305
  377MOL0     H50876   4.470   2.564   9.543 -0.5356  0.8898 -0.1753
  377MOL0     H50877   4.021   3.001   9.374  0.9815 -3.3100 -0.6160
  377MOL0     H50878   4.084   3.245   9.343  1.3745  0.2732  0.8898
  377MOL0     H50879   3.893   2.537  10.131  1.2347  1.1266 -0.8633
  377MOL0     H50880   3.817   2.317  10.208  0.5681  2.5297  0.9677
  377MOL0     H50881   3.964   2.050  10.347  0.4909 -0.5709 -1.1689
  377MOL0     H50882   3.893   1.915  10.519  2.5571 -1.7238  0.8026
  377MOL0     H50883   3.681   1.768  10.574 -1.8804 -1.0094  1.3921
  377MOL0     H50884   3.811   1.720  10.678 -3.0902  1.8291  1.0504
  377MOL0     H50885   3.611   1.597  10.749 -5.0568  1.0851 -2.0305
  377MOL0     H50886   3.726   1.484  10.685 -3.6467 -3.4735 -0.9605
  377MOL0     H50887   3.628   1.480  10.460  0.3890  2.1584 -0.5336
  377MOL0     H50888   3.498   1.580  10.519 -0.7494  0.2438  0.0224
  377MOL0     H50889   3.568   1.301  10.604  2.4076  2.1063 -2.0050
  377MOL0     H50890   3.477   1.406  10.712 -3.0250  0.4425 -1.0489
  377MOL0     H50891   3.184   1.333  10.430  1.4217 -2.4968 -1.7512
  377MOL0     H50892   3.842   1.580  10.251  1.0228 -1.0096  0.6019
  377MOL0     H50893   3.888   1.806   9.946  0.7529 -0.3691 -1.1564
  377MOL0     H50894   3.994   1.680  10.011  0.9291  3.5536 -0.9927
  377MOL0     H50895   3.821   1.644   9.999  1.6344 -1.9286 -0.4017
  378MOL0     O50896  10.509   4.515   6.835  0.6450  0.0973  0.7620
  378MOL0     C50897  10.577   4.454   6.747 -0.4120 -0.4840 -0.2123
  378MOL0     O50898  10.548   4.443   6.611 -0.1221  0.2576  0.5756
  378MOL0     C50899  10.446   4.512   6.549 -0.3064  0.0591  1.2279
  378MOL0     C50900  10.312   4.534   6.596 -0.1540 -0.1775 -0.2577
  378MOL0     C50901  10.215   4.597   6.512  0.5585 -0.2861 -0.7899
  378MOL0     C50902  10.235   4.628   6.380 -0.7056  0.0089 -0.1174
  378MOL0     O50903  10.142   4.681   6.290 -0.1938 -0.0359 -0.6473
  378MOL0     C50904  10.105   4.577   6.191 -0.2263 -0.1396  0.6063
  378MOL0     C50905   9.967   4.606   6.128  0.4719 -0.6835  0.2353
  378MOL0     C50906   9.945   4.500   6.015  0.5687 -0.9270  0.7688
  378MOL0     C50907   9.810   4.520   5.946  0.6896 -0.1809 -0.5630
  378MOL0     C50908   9.760   4.406   5.859 -1.1132  0.1472  0.1201
  378MOL0     C50909   9.631   4.427   5.779 -0.3258 -0.6745  0.3339
  378MOL0     C50910   9.512   4.437   5.873  0.6354  0.1215  0.3636
  378MOL0     C50911   9.377   4.415   5.793  0.3265  0.8173 -0.7263
  378MOL0     N50912   9.253   4.401   5.878  0.2327 -0.1551 -0.0426
  378MOL0     C50913   9.159   4.300   5.878 -0.2494 -0.4454 -0.7916
  378MOL0     C50914   9.066   4.337   5.968  0.2920  0.9537  0.7253
  378MOL0     C50915   8.943   4.262   6.010  0.1770 -0.3836 -0.3159
  378MOL0     C50916   8.928   4.121   5.958  0.6001 -0.4039 -0.0117
  378MOL0     C50917   8.805   4.051   6.005 -0.3792  0.9128  0.1111
  378MOL0     C50918   8.807   4.014   6.156  0.2737 -0.4836  0.3035
  378MOL0     O50919   8.676   4.029   6.218 -0.0960 -0.4348  0.1291
  378MOL0     C50920   8.658   4.004   6.350 -0.3089 -1.2986  0.1213
  378MOL0     C50921   8.554   4.065   6.418 -0.3607  0.1250  0.0882
  378MOL0     C50922   8.536   4.051   6.551  0.4046  0.0417  0.4723
  378MOL0     C50923   8.617   3.972   6.630 -0.3585 -0.9459 -0.5964
  378MOL0     C50924   8.595   3.952   6.778 -0.6436  0.3813  1.3373
  378MOL0     O50925   8.479   4.010   6.817  0.4458 -0.1710 -0.7215
  378MOL0     C50926   8.460   4.024   6.949 -0.0507  0.1523 -1.2756
  378MOL0     C50927   8.426   4.146   6.999  0.0283  0.3721  0.2931
  378MOL0     C50928   8.391   4.163   7.138 -1.2278  0.2344 -0.4805
  378MOL0     C50929   8.388   4.054   7.230 -0.2359 -0.7203 -0.2333
  378MOL0     O50930   8.324   4.082   7.342 -0.4104 -0.1923  0.1270
  378MOL0     C50931   8.331   3.990   7.450  0.1225 -0.0217  0.1473
  378MOL0     C50932   8.469   3.976   7.503 -0.7502  0.4856  0.3718
  378MOL0     C50933   8.472   3.874   7.610 -0.2335  0.2652 -0.0474
  378MOL0     C50934   8.470   3.730   7.541  0.1507  0.0827  0.4354
  378MOL0     C50935   8.447   3.608   7.631 -0.5349 -0.1129 -0.1200
  378MOL0     C50936   8.310   3.608   7.704 -0.2037 -0.4338 -0.2501
  378MOL0     C50937   8.306   3.484   7.794 -0.8277  0.4342 -0.0198
  378MOL0     C50938   8.172   3.459   7.852 -0.3024  0.9255  0.0438
  378MOL0    Cl50939   8.124   3.599   7.973 -0.1600 -0.3294  0.1219
  378MOL0     C50940   8.434   3.926   7.180 -0.0079 -0.7230  1.1109
  378MOL0     C50941   8.459   3.913   7.040 -0.1464 -1.1558 -0.3572
  378MOL0     O50942   8.676   3.890   6.853  0.7942  0.3826 -0.6844
  378MOL0     C50943   8.724   3.921   6.564 -0.1951  0.4288  0.2743
  378MOL0     C50944   8.751   3.930   6.424  1.4623 -0.3034  0.0079
  378MOL0     N50945   9.096   4.469   6.015 -0.4229 -0.7107 -0.4170
  378MOL0     N50946   9.209   4.505   5.957 -0.0750  0.8151 -0.2077
  378MOL0     C50947  10.362   4.588   6.327  0.4399 -0.2883  0.1935
  378MOL0     C50948  10.464   4.541   6.414  0.6230 -0.0030  0.6341
  378MOL0     C50949  10.710   4.398   6.782  0.6726 -1.0672  0.0724
  378MOL0     C50950  10.817   4.394   6.682 -0.5430  0.5799  0.4088
  378MOL0     C50951  10.944   4.330   6.702 -0.0444  0.1757  0.1172
  378MOL0     C50952  10.961   4.280   6.827  0.1972 -0.2899 -0.3076
  378MOL0     O50953  11.080   4.229   6.877  0.1202 -0.4011  0.1650
  378MOL0     C50954  11.191   4.182   6.800 -0.5865  0.2195 -0.7886
  378MOL0     C50955  11.157   4.034   6.742  0.0434 -0.8485  0.7811
  378MOL0     C50956  11.086   3.932   6.832  0.8029  0.1225 -0.0603
  378MOL0     C50957  11.082   3.792   6.766  0.1682  0.1531  0.4096
  378MOL0     C50958  11.207   3.717   6.785  0.5799  0.1548 -0.5576
  378MOL0     C50959  11.310   3.662   6.797 -0.6369  0.8339 -0.4602
  378MOL0     C50960  10.854   4.268   6.924 -1.1627 -0.6207  0.3288
  378MOL0     C50961  10.730   4.325   6.906 -0.9468  0.2790  0.7007
  378MOL0     C50962  10.626   4.326   7.017 -0.6776 -1.0735  0.6886
  378MOL0     H50963  10.292   4.498   6.697  3.4082  0.6736  0.8933
  378MOL0     H50964  10.114   4.605   6.549  0.2027  0.2323 -1.8361
  378MOL0     H50965  10.183   4.588   6.114 -1.9163 -0.2664 -1.2096
  378MOL0     H50966  10.115   4.477   6.234 -0.4778 -0.0360  0.9050
  378MOL0     H50967   9.967   4.706   6.084  3.3337 -0.5411  0.3790
  378MOL0     H50968   9.894   4.595   6.209  0.5355 -4.0031 -0.0024
  378MOL0     H50969   9.951   4.399   6.057  1.4095 -0.9417  0.6262
  378MOL0     H50970  10.036   4.516   5.956  0.1018  4.1053  1.0224
  378MOL0     H50971   9.727   4.545   6.013  0.1521 -2.1983 -0.4273
  378MOL0     H50972   9.825   4.613   5.889  2.0402 -0.6321 -0.9769
  378MOL0     H50973   9.845   4.385   5.794  3.4083  0.2529  5.3096
  378MOL0     H50974   9.739   4.322   5.925  0.1002 -2.8449 -2.9986
  378MOL0     H50975   9.640   4.513   5.712  3.0703 -0.2413  1.1871
  378MOL0     H50976   9.617   4.343   5.710  1.4122 -0.2423 -0.6008
  378MOL0     H50977   9.502   4.536   5.918 -3.1317 -0.1424  0.3836
  378MOL0     H50978   9.524   4.361   5.951  0.5092 -2.9530 -2.3662
  378MOL0     H50979   9.363   4.501   5.727  1.3375  1.7045  0.1757
  378MOL0     H50980   9.383   4.331   5.723 -4.0597  1.7791 -2.6076
  378MOL0     H50981   9.163   4.208   5.820 -0.5949  0.0552 -1.6182
  378MOL0     H50982   8.933   4.263   6.119 -1.3206 -0.5139 -0.4291
  378MOL0     H50983   8.856   4.325   5.989  0.0167 -0.4137  0.2506
  378MOL0     H50984   8.920   4.135   5.850  2.3789  0.1450 -0.0927
  378MOL0     H50985   9.022   4.067   5.974  1.9469  0.8194 -2.9716
  378MOL0     H50986   8.807   3.953   5.955  0.5093 -1.1324  3.7825
  378MOL0     H50987   8.716   4.112   5.984 -0.6867 -0.0759 -1.7600
  378MOL0     H50988   8.877   4.085   6.202 -0.5329  2.6408 -2.8605
  378MOL0     H50989   8.840   3.913   6.182 -2.4660 -1.7686 -0.7526
  378MOL0     H50990   8.487   4.119   6.353 -1.5255 -1.2727  0.0776
  378MOL0     H50991   8.464   4.115   6.601  3.3788  1.8116  2.8487
  378MOL0     H50992   8.423   4.222   6.921  0.7324 -0.3445 -0.4486
  378MOL0     H50993   8.368   4.257   7.187  0.8234  0.7586 -0.4452
  378MOL0     H50994   8.265   4.027   7.529 -1.1796  2.6053 -1.9887
  378MOL0     H50995   8.283   3.896   7.423 -1.7092  1.8432 -3.8261
  378MOL0     H50996   8.537   3.949   7.422 -1.4694 -0.6972  0.1289
  378MOL0     H50997   8.506   4.071   7.543 -1.6649 -0.1314  2.8106
  378MOL0     H50998   8.562   3.888   7.671  1.7181  0.6638 -2.8368
  378MOL0     H50999   8.378   3.892   7.663 -0.0534  2.8910 -0.5171
  378MOL0     H51000   8.566   3.717   7.490 -0.2542 -0.0354 -0.2982
  378MOL0     H51001   8.393   3.720   7.465 -0.3843  0.8945  0.8517
  378MOL0     H51002   8.528   3.604   7.704 -0.0466  0.2143 -0.6275
  378MOL0     H51003   8.454   3.517   7.570 -2.6769  0.9750 -2.1680
  378MOL0     H51004   8.296   3.700   7.762  2.2969 -0.4043  0.4009
  378MOL0     H51005   8.229   3.585   7.634 -0.2352 -3.5067  0.6513
  378MOL0     H51006   8.384   3.498   7.869 -1.5441  4.8503  0.1774
  378MOL0     H51007   8.336   3.392   7.744  1.3577  1.3360 -0.4914
  378MOL0     H51008   8.095   3.445   7.776  1.0121  3.4829 -1.9276
  378MOL0     H51009   8.180   3.363   7.904  0.0638 -0.9581 -3.1701
  378MOL0     H51010   8.439   3.842   7.249  0.3410 -0.8324  0.9522
  378MOL0     H51011   8.483   3.814   7.002  2.9868 -0.0625 -1.5757
  378MOL0     H51012   8.798   3.866   6.622  0.3041  3.0370  2.3160
  378MOL0     H51013   8.826   3.864   6.383 -0.2744 -2.4159  0.0948
  378MOL0     H51014  10.382   4.592   6.220 -3.8431 -2.0625 -0.9085
  378MOL0     H51015  10.562   4.533   6.368  0.0325  3.1622 -1.4626
  378MOL0     H51016  10.795   4.441   6.587  0.7269  1.2197  0.4076
  378MOL0     H51017  11.011   4.322   6.617 -0.0181 -0.5091  0.1950
  378MOL0     H51018  11.265   4.171   6.880  0.6507  2.7384 -1.4845
  378MOL0     H51019  11.242   4.242   6.725  1.4461 -1.1328 -0.5739
  378MOL0     H51020  11.254   4.005   6.702 -0.1063  0.4840 -0.6387
  378MOL0     H51021  11.100   4.052   6.651  1.2285 -1.7359 -0.1760
  378MOL0     H51022  10.982   3.964   6.843 -0.2776 -3.3342  1.3774
  378MOL0     H51023  11.144   3.919   6.924  1.4083 -2.6137 -0.7411
  378MOL0     H51024  10.993   3.740   6.802 -0.8210  0.9811 -0.7483
  378MOL0     H51025  11.064   3.800   6.658 -0.3246  1.1045  0.5498
  378MOL0     H51026  11.403   3.611   6.806 -2.2253 -2.1953  0.1399
  378MOL0     H51027  10.873   4.233   7.024 -0.0172  1.9608  1.1088
  378MOL0     H51028  10.536   4.281   6.974  1.0612 -4.3379  0.1110
  378MOL0     H51029  10.651   4.262   7.101 -1.8563  1.0165  2.7466
  378MOL0     H51030  10.619   4.430   7.051 -1.5811 -0.1088 -2.1023
  379MOL0     O51031  10.430   7.965   6.791  0.1979 -0.5632  0.2471
  379MOL0     C51032  10.352   7.866   6.794  0.4707  0.7972 -0.3016
  379MOL0     O51033  10.292   7.814   6.907  0.0839  0.5885 -0.2463
  379MOL0     C51034  10.248   7.889   7.012 -0.0246  0.0547  0.1403
  379MOL0     C51035  10.179   8.014   6.991 -0.1823  0.0186 -0.3525
  379MOL0     C51036  10.143   8.088   7.099 -0.2508  0.5064 -0.5432
  379MOL0     C51037  10.167   8.051   7.228  0.3603 -0.3377  0.7884
  379MOL0     O51038  10.132   8.129   7.337  0.2276  0.0094 -0.9362
  379MOL0     C51039  10.000   8.107   7.389 -0.3474 -0.0365 -0.8442
  379MOL0     C51040   9.972   8.206   7.507  0.1679 -0.4400 -0.1440
  379MOL0     C51041  10.074   8.203   7.615  0.4090  0.1958 -0.0438
  379MOL0     C51042  10.062   8.085   7.705  0.3630  0.1220 -0.5224
  379MOL0     C51043  10.174   8.080   7.804 -0.0827  0.2471 -0.0491
  379MOL0     C51044  10.151   7.969   7.902  0.6135 -0.3659 -1.1055
  379MOL0     C51045  10.252   7.978   8.020  0.0616 -0.5598  0.2661
  379MOL0     C51046  10.390   7.915   7.998  0.1905 -0.0405 -0.0568
  379MOL0     N51047  10.466   7.916   8.125  0.1077 -0.5577 -0.0808
  379MOL0     C51048  10.556   7.822   8.162 -0.5142 -0.9874  0.4119
  379MOL0     C51049  10.642   7.869   8.260  0.7090 -0.7698  0.5717
  379MOL0     C51050  10.747   7.791   8.324  0.0534  0.5234  0.2214
  379MOL0     C51051  10.693   7.667   8.400 -0.1472 -0.0441 -0.6922
  379MOL0     C51052  10.603   7.703   8.522 -0.5554 -0.2068 -0.7719
  379MOL0     C51053  10.694   7.758   8.639  0.4785 -0.1607 -0.4698
  379MOL0     O51054  10.603   7.755   8.758 -0.1246  0.6577  0.1736
  379MOL0     C51055  10.628   7.845   8.859  0.7499 -0.4571 -0.1986
  379MOL0     C51056  10.751   7.881   8.902 -0.2141 -0.3523 -0.2848
  379MOL0     C51057  10.758   7.969   9.010  0.3951  0.2385  0.3069
  379MOL0     C51058  10.646   8.017   9.078  0.1607  0.4037  0.2535
  379MOL0     C51059  10.666   8.115   9.192  0.1588  0.1300 -0.1524
  379MOL0     O51060  10.790   8.117   9.256  0.0197 -0.4309  0.4526
  379MOL0     C51061  10.827   8.236   9.312 -0.1001 -0.0008 -0.2281
  379MOL0     C51062  10.958   8.272   9.298  0.6209 -0.0637  0.0445
  379MOL0     C51063  11.013   8.388   9.362  0.0058  0.6734  0.5074
  379MOL0     C51064  10.934   8.458   9.443 -1.5506 -0.2799 -0.2612
  379MOL0     O51065  10.999   8.555   9.522  0.6808 -0.7366 -0.9621
  379MOL0     C51066  10.994   8.524   9.664  0.3226  0.3871  0.6238
  379MOL0     C51067  11.108   8.422   9.706  0.4584  0.1148 -0.8071
  379MOL0     C51068  11.246   8.479   9.661  0.2287  0.6432 -0.8354
  379MOL0     C51069  11.355   8.375   9.666 -0.5014 -0.2121  0.0236
  379MOL0     C51070  11.495   8.423   9.626 -0.2134  0.7611  0.7477
  379MOL0     C51071  11.592   8.314   9.571 -1.2234 -0.3086 -0.4932
  379MOL0     C51072  11.717   8.373   9.511 -0.1011  0.4888 -0.5180
  379MOL0     C51073  11.828   8.264   9.500  0.5613 -0.6825 -0.0134
  379MOL0    Cl51074  11.776   8.146   9.385  0.4947 -0.1930  0.2496
  379MOL0     C51075  10.802   8.430   9.455  0.4616  1.0229  0.0304
  379MOL0     C51076  10.752   8.315   9.391  0.1102 -1.2000  0.2546
  379MOL0     O51077  10.567   8.189   9.224 -0.4267  0.8109  0.6798
  379MOL0     C51078  10.522   7.979   9.040  0.5821 -0.9025  0.5176
  379MOL0     C51079  10.515   7.888   8.924  0.0800 -0.5278  0.2816
  379MOL0     N51080  10.597   8.002   8.282 -0.2258  0.7772  0.1099
  379MOL0     N51081  10.502   8.024   8.198 -0.2983 -0.1086  0.8525
  379MOL0     C51082  10.220   7.918   7.250 -0.7091 -0.4518  0.4505
  379MOL0     C51083  10.264   7.835   7.141 -0.3169  0.0790  0.4951
  379MOL0     C51084  10.319   7.797   6.668  0.0029  0.5688 -0.0288
  379MOL0     C51085  10.372   7.663   6.653 -0.1548  0.0980 -0.4505
  379MOL0     C51086  10.366   7.596   6.532  0.0030  0.4853  0.4801
  379MOL0     C51087  10.302   7.647   6.418 -0.1746  0.5822 -0.9147
  379MOL0     O51088  10.305   7.579   6.299  0.6781  0.6621  0.1477
  379MOL0     C51089  10.238   7.635   6.184 -0.4024  0.0150  0.2834
  379MOL0     C51090  10.334   7.669   6.072  0.5333 -0.0962  0.6900
  379MOL0     C51091  10.436   7.767   6.132 -0.6676 -0.5982 -0.1903
  379MOL0     C51092  10.532   7.848   6.028  0.2795  0.0797 -0.9625
  379MOL0     C51093  10.459   7.879   5.906 -0.0107 -0.3177 -0.3858
  379MOL0     C51094  10.414   7.919   5.801  0.1432  0.7434  0.1035
  379MOL0     C51095  10.254   7.775   6.437  0.2492 -0.2195  0.7647
  379MOL0     C51096  10.255   7.849   6.559 -0.3670 -0.9170  0.5116
  379MOL0     C51097  10.180   7.978   6.551  0.0223 -0.7765 -0.5647
  379MOL0     H51098  10.165   8.043   6.887  2.0162 -1.1765 -1.0482
  379MOL0     H51099  10.096   8.185   7.092 -1.0313  0.0154 -2.6650
  379MOL0     H51100   9.919   8.128   7.318 -0.9341 -0.6067 -0.3635
  379MOL0     H51101   9.986   8.005   7.425 -0.0896 -0.1349 -1.0222
  379MOL0     H51102   9.869   8.193   7.543 -0.3795 -0.2126 -1.5518
  379MOL0     H51103   9.985   8.308   7.471  3.6002 -0.9238 -0.5687
  379MOL0     H51104  10.075   8.298   7.669  3.6158  0.4224 -0.2916
  379MOL0     H51105  10.179   8.207   7.585  0.5030  0.4102  0.3022
  379MOL0     H51106   9.975   8.096   7.770  0.2022 -0.4551 -0.6366
  379MOL0     H51107  10.052   7.990   7.651 -1.5483 -0.3042  0.5035
  379MOL0     H51108  10.267   8.065   7.749 -0.2020  0.4610 -0.3104
  379MOL0     H51109  10.176   8.180   7.848  2.5470  0.8995 -1.4471
  379MOL0     H51110  10.051   7.957   7.944 -0.6823 -1.3629 -4.1240
  379MOL0     H51111  10.170   7.877   7.844  1.8470 -1.7392  1.3161
  379MOL0     H51112  10.208   7.928   8.106  1.1929 -0.3009  1.0173
  379MOL0     H51113  10.262   8.083   8.051 -0.7522 -0.8832  1.7063
  379MOL0     H51114  10.374   7.810   7.975 -0.4507 -0.4328  1.9569
  379MOL0     H51115  10.449   7.955   7.915  0.2734 -0.3802 -0.1637
  379MOL0     H51116  10.557   7.719   8.126  0.7766 -0.9225  0.2124
  379MOL0     H51117  10.811   7.766   8.239  0.5513  3.8328 -0.4984
  379MOL0     H51118  10.800   7.855   8.395 -0.4710 -1.1917  2.2844
  379MOL0     H51119  10.634   7.602   8.335 -1.0321  0.1968 -0.1403
  379MOL0     H51120  10.782   7.615   8.436 -0.6309  0.1467  0.8295
  379MOL0     H51121  10.555   7.609   8.550  1.1941 -0.0794  3.3825
  379MOL0     H51122  10.523   7.773   8.500 -0.7446  0.5973  2.0561
  379MOL0     H51123  10.721   7.862   8.620 -2.6745  0.2661 -3.6412
  379MOL0     H51124  10.772   7.685   8.662  1.8934  1.6109  0.6550
  379MOL0     H51125  10.845   7.839   8.869 -0.6654 -0.0784 -1.9858
  379MOL0     H51126  10.858   8.006   9.030  1.7486 -3.9196  2.3246
  379MOL0     H51127  11.021   8.208   9.237 -0.6385  2.1581 -3.9781
  379MOL0     H51128  11.119   8.407   9.353  0.7384 -1.0390  3.9092
  379MOL0     H51129  10.994   8.620   9.717 -0.8313 -0.5799  2.4959
  379MOL0     H51130  10.895   8.487   9.692 -0.6139  1.1061 -1.5174
  379MOL0     H51131  11.094   8.408   9.813 -0.6933  0.4090 -0.9082
  379MOL0     H51132  11.097   8.322   9.664  0.6618 -0.5106  0.5820
  379MOL0     H51133  11.227   8.511   9.558 -0.3242  1.4002 -0.5140
  379MOL0     H51134  11.270   8.561   9.729  2.0801 -0.2332 -0.3722
  379MOL0     H51135  11.322   8.306   9.587  0.0933  3.7712 -4.1372
  379MOL0     H51136  11.356   8.334   9.767  3.4593  0.9668  0.6423
  379MOL0     H51137  11.526   8.477   9.716 -1.9303  3.9389 -0.4273
  379MOL0     H51138  11.482   8.490   9.540 -1.7127  0.5440  0.7935
  379MOL0     H51139  11.620   8.252   9.657 -0.5678  1.4174  0.5856
  379MOL0     H51140  11.543   8.258   9.491 -0.0304  0.3889 -1.7592
  379MOL0     H51141  11.759   8.451   9.574  2.0283 -1.4090  0.5343
  379MOL0     H51142  11.702   8.410   9.409  0.8598 -1.2594 -1.3517
  379MOL0     H51143  11.929   8.299   9.478  0.0700  0.4913 -0.4780
  379MOL0     H51144  11.832   8.226   9.603 -1.3083 -0.2471  0.2629
  379MOL0     H51145  10.744   8.493   9.521  0.4307  1.8310 -0.7554
  379MOL0     H51146  10.649   8.291   9.414  0.6044  0.1933  4.7067
  379MOL0     H51147  10.430   8.027   9.074  0.6664 -0.2801 -0.1019
  379MOL0     H51148  10.418   7.856   8.887  0.7434 -6.4060  2.7045
  379MOL0     H51149  10.234   7.879   7.350  3.0475 -0.7807 -0.0574
  379MOL0     H51150  10.322   7.744   7.156  1.4263  1.5923  4.1369
  379MOL0     H51151  10.419   7.616   6.739 -0.6004  2.6676  1.3183
  379MOL0     H51152  10.428   7.508   6.518 -0.1280  0.4863 -0.1639
  379MOL0     H51153  10.170   7.718   6.203  0.1589  0.3795  0.7387
  379MOL0     H51154  10.174   7.550   6.159  0.7001 -1.7565  3.0086
  379MOL0     H51155  10.279   7.712   5.988 -0.8751 -1.0491  1.0927
  379MOL0     H51156  10.382   7.575   6.044  2.4475  0.6450  1.3031
  379MOL0     H51157  10.499   7.710   6.202 -0.2228 -2.2701 -1.8653
  379MOL0     H51158  10.385   7.837   6.199 -0.7829 -1.1082  0.2617
  379MOL0     H51159  10.575   7.945   6.057 -0.2482 -0.3289  1.4467
  379MOL0     H51160  10.613   7.781   5.997  0.3924 -0.8443  1.1418
  379MOL0     H51161  10.371   7.973   5.719 -1.0010  0.1298  0.2821
  379MOL0     H51162  10.203   7.832   6.359 -2.2368 -0.2336  2.2542
  379MOL0     H51163  10.245   8.043   6.609  0.7619 -1.9999  0.0307
  379MOL0     H51164  10.167   8.022   6.452  1.2528  1.6706  0.2928
  379MOL0     H51165  10.083   7.963   6.598 -1.4839 -0.7469 -3.4388
  380MOL0     O51166   9.855   1.029   6.489 -0.1188 -0.0657  0.5428
  380MOL0     C51167   9.739   1.071   6.466 -0.1787 -0.5548 -0.7342
  380MOL0     O51168   9.714   1.208   6.428  0.5101 -0.5526 -0.0991
  380MOL0     C51169   9.799   1.308   6.397 -0.4915 -0.6860  0.3037
  380MOL0     C51170   9.727   1.419   6.361 -0.3119  0.2689  0.2044
  380MOL0     C51171   9.803   1.532   6.328 -0.3491 -1.1145 -0.4551
  380MOL0     C51172   9.940   1.543   6.328 -0.3746  0.1852 -0.2670
  380MOL0     O51173  10.022   1.640   6.285  0.1037  0.2449 -0.1594
  380MOL0     C51174   9.969   1.772   6.261  0.0183  0.0236 -0.5086
  380MOL0     C51175  10.096   1.860   6.243 -0.0898  0.2078 -0.9767
  380MOL0     C51176  10.075   1.995   6.158  0.4931  0.6582 -0.6237
  380MOL0     C51177  10.202   2.055   6.105 -0.3122  0.2208  0.6970
  380MOL0     C51178  10.276   2.134   6.211  0.5797  0.8766  0.1838
  380MOL0     C51179  10.408   2.069   6.263 -0.3904 -0.2457  0.4974
  380MOL0     C51180  10.477   2.138   6.380 -0.4236 -0.7693  0.4547
  380MOL0     C51181  10.599   2.043   6.412 -0.3883 -0.2427 -0.5662
  380MOL0     N51182  10.552   1.941   6.505 -0.5736 -0.4382 -0.6452
  380MOL0     C51183  10.498   1.823   6.480  1.1920  0.0952 -0.0892
  380MOL0     C51184  10.491   1.758   6.603  0.5548 -0.8061  0.4168
  380MOL0     C51185  10.436   1.617   6.633 -0.0411 -0.5260  0.0818
  380MOL0     C51186  10.306   1.618   6.723  0.0412  0.1724 -0.7263
  380MOL0     C51187  10.174   1.623   6.646  0.7914  0.4544  0.5523
  380MOL0     C51188  10.083   1.524   6.720 -0.1275  0.5624 -0.3075
  380MOL0     O51189  10.132   1.389   6.684  0.1235  0.5256  0.0574
  380MOL0     C51190  10.090   1.274   6.736  0.1121  0.3607 -0.2403
  380MOL0     C51191   9.978   1.282   6.828 -1.0430 -0.0425 -0.0797
  380MOL0     C51192   9.940   1.163   6.893  0.6579 -0.0325 -0.0683
  380MOL0     C51193  10.008   1.043   6.870  0.1081 -0.2900  0.0925
  380MOL0     C51194   9.955   0.921   6.930 -0.6140  0.7616  0.0617
  380MOL0     O51195  10.008   0.809   6.881  0.4423 -0.4124  0.2226
  380MOL0     C51196   9.958   0.685   6.922  0.3144 -0.7843  0.6821
  380MOL0     C51197   9.839   0.659   6.985  0.1566 -0.9385 -0.5342
  380MOL0     C51198   9.808   0.524   7.015 -0.1665 -0.0544 -0.2785
  380MOL0     C51199   9.894   0.416   6.985  0.8997  0.2874  0.4511
  380MOL0     O51200   9.844   0.299   7.028  0.1201 -0.0184  0.3462
  380MOL0     C51201   9.873   0.188   6.950 -0.2197  1.2534 -0.2526
  380MOL0     C51202   9.750   0.085   6.978 -0.2488 -0.4194  0.0516
  380MOL0     C51203   9.734   0.072   7.125 -0.4238 -0.0084 -0.5969
  380MOL0     C51204   9.639  -0.044   7.150  0.7610 -0.6653 -0.2728
  380MOL0     C51205   9.621  -0.068   7.301  0.1376  0.1023  0.2638
  380MOL0     C51206   9.497  -0.157   7.317 -0.2310  0.1789 -0.4009
  380MOL0     C51207   9.483  -0.195   7.463 -0.9291  0.5966 -0.1218
  380MOL0     C51208   9.361  -0.282   7.471  0.2183 -0.7863  0.1305
  380MOL0    Cl51209   9.296  -0.269   7.637  0.3040  0.6621  0.0390
  380MOL0     C51210  10.014   0.440   6.921 -0.6818 -0.6618  0.1617
  380MOL0     C51211  10.052   0.576   6.886  0.0150 -0.0768  0.3661
  380MOL0     O51212   9.881   0.932   7.026 -0.2793 -0.0696 -0.2833
  380MOL0     C51213  10.102   1.038   6.762  0.1136  0.1476 -1.0250
  380MOL0     C51214  10.155   1.154   6.707 -0.3826 -0.0521 -0.8731
  380MOL0     N51215  10.540   1.854   6.699 -0.2437  0.1533  0.0122
  380MOL0     N51216  10.577   1.960   6.639  0.5815  0.4777  0.7348
  380MOL0     C51217  10.007   1.423   6.363  0.0998 -0.2414  0.1708
  380MOL0     C51218   9.936   1.307   6.391 -0.4756 -0.3822 -0.0778
  380MOL0     C51219   9.619   0.980   6.496  0.0967 -0.5926  0.3566
  380MOL0     C51220   9.488   1.022   6.453 -0.2823  0.8495  0.9340
  380MOL0     C51221   9.375   0.949   6.470 -0.0803 -0.2178 -0.8549
  380MOL0     C51222   9.384   0.828   6.540  0.0068 -0.6428 -0.2194
  380MOL0     O51223   9.269   0.756   6.552  0.4033 -0.4460 -0.1131
  380MOL0     C51224   9.274   0.623   6.619 -0.3099  0.7264  0.5707
  380MOL0     C51225   9.124   0.574   6.637  0.0218  0.6105 -0.1070
  380MOL0     C51226   9.072   0.640   6.767  0.2011  0.2229 -0.3821
  380MOL0     C51227   8.940   0.582   6.804 -0.5142 -0.8480 -0.0772
  380MOL0     C51228   8.896   0.631   6.936 -0.2592  0.6640 -0.2040
  380MOL0     C51229   8.851   0.673   7.041 -0.3074  0.2273 -0.3163
  380MOL0     C51230   9.510   0.784   6.572 -0.3423 -0.1986  0.1713
  380MOL0     C51231   9.628   0.857   6.561 -0.1548  1.1311  0.1865
  380MOL0     C51232   9.761   0.794   6.615  0.4292 -0.2418 -0.8256
  380MOL0     H51233   9.623   1.449   6.361  0.3143  2.7453  1.3429
  380MOL0     H51234   9.744   1.620   6.305 -1.7933 -1.8489  0.2900
  380MOL0     H51235   9.906   1.779   6.172  2.5839 -2.5877 -2.7482
  380MOL0     H51236   9.926   1.824   6.347 -0.9289  1.0061 -1.5389
  380MOL0     H51237  10.176   1.802   6.197  0.2360  0.0522 -0.2382
  380MOL0     H51238  10.130   1.885   6.344  1.1920  0.1736 -1.3814
  380MOL0     H51239  10.016   2.068   6.215 -0.2215  0.1360 -0.6846
  380MOL0     H51240  10.017   1.958   6.073  0.7839  1.0337 -0.9917
  380MOL0     H51241  10.269   1.978   6.065  2.5813  1.6862  2.3167
  380MOL0     H51242  10.177   2.126   6.026  1.2601  1.2173  1.0374
  380MOL0     H51243  10.304   2.229   6.163  3.2705 -1.2261 -2.8588
  380MOL0     H51244  10.213   2.147   6.299 -2.6552 -2.6462 -1.3344
  380MOL0     H51245  10.397   1.961   6.271 -2.6831 -0.3468 -2.1545
  380MOL0     H51246  10.485   2.082   6.187  0.2091 -2.3042  0.6871
  380MOL0     H51247  10.410   2.162   6.463  0.8251 -0.7789  1.4912
  380MOL0     H51248  10.521   2.228   6.335  0.8284 -1.5942 -0.0203
  380MOL0     H51249  10.632   1.988   6.323  0.8813  0.2964 -0.4490
  380MOL0     H51250  10.690   2.084   6.457 -0.1916 -1.3279  0.0513
  380MOL0     H51251  10.479   1.764   6.391 -4.2637 -0.7462  1.2532
  380MOL0     H51252  10.412   1.559   6.544  0.9627 -2.0163  0.7323
  380MOL0     H51253  10.522   1.569   6.681  1.2442  0.2653 -1.3284
  380MOL0     H51254  10.322   1.526   6.781 -0.7952  1.8227  2.3089
  380MOL0     H51255  10.310   1.700   6.796  1.2369  0.0841 -0.6618
  380MOL0     H51256  10.175   1.578   6.546  0.4590  1.8276 -0.1015
  380MOL0     H51257  10.139   1.726   6.632 -2.3809 -0.4078  1.5289
  380MOL0     H51258   9.980   1.531   6.682  0.4189  1.1378 -1.7383
  380MOL0     H51259  10.088   1.544   6.828  1.3708 -2.8262  0.3880
  380MOL0     H51260   9.928   1.375   6.852 -0.1431 -0.0225  1.9355
  380MOL0     H51261   9.856   1.182   6.959  1.1090 -0.3891  0.6167
  380MOL0     H51262   9.771   0.738   7.012  2.9128  1.0517  1.1236
  380MOL0     H51263   9.725   0.490   7.077 -0.4588 -2.5879 -1.9066
  380MOL0     H51264   9.874   0.224   6.847  0.9503 -0.5038 -0.8939
  380MOL0     H51265   9.973   0.152   6.974 -0.8405  0.0206  0.6090
  380MOL0     H51266   9.662   0.139   6.941 -0.3784  0.1140  1.1048
  380MOL0     H51267   9.759  -0.013   6.931 -1.7457 -0.3630 -0.4042
  380MOL0     H51268   9.833   0.053   7.166 -0.9467 -1.4334  0.0774
  380MOL0     H51269   9.684   0.162   7.161 -1.0697  0.0439 -1.5788
  380MOL0     H51270   9.679  -0.134   7.103 -0.5735 -1.5481  0.2073
  380MOL0     H51271   9.536  -0.024   7.116 -0.0087  1.1213  2.6850
  380MOL0     H51272   9.607   0.030   7.348  2.5658  3.4375 -5.0482
  380MOL0     H51273   9.704  -0.118   7.351 -0.1296 -0.4032  0.2108
  380MOL0     H51274   9.405  -0.100   7.302 -1.8367 -1.6465  1.9990
  380MOL0     H51275   9.494  -0.235   7.240  0.3033  0.3270 -0.5828
  380MOL0     H51276   9.470  -0.103   7.522  0.6103  0.5865  0.2524
  380MOL0     H51277   9.571  -0.244   7.504  0.4653  5.0892  3.0912
  380MOL0     H51278   9.298  -0.247   7.388  2.3380 -2.5147 -2.3698
  380MOL0     H51279   9.402  -0.376   7.434  3.6871  1.1908 -1.5718
  380MOL0     H51280  10.084   0.357   6.911 -0.8884 -0.4991 -5.6802
  380MOL0     H51281  10.144   0.608   6.837  1.5399 -2.3870  1.5631
  380MOL0     H51282  10.146   0.943   6.734 -2.3379 -1.6408  0.7087
  380MOL0     H51283  10.237   1.165   6.636 -0.3864  1.8368 -0.6366
  380MOL0     H51284  10.115   1.421   6.353  0.0944 -0.4180  0.1576
  380MOL0     H51285   9.990   1.219   6.425 -2.5910 -2.7262 -2.3616
  380MOL0     H51286   9.488   1.119   6.404 -0.0938  0.6142  0.4545
  380MOL0     H51287   9.273   0.977   6.447  0.0330  0.2581 -0.7868
  380MOL0     H51288   9.317   0.629   6.719 -3.1342 -0.0233  1.9362
  380MOL0     H51289   9.339   0.561   6.556  0.2399  1.4740  0.3862
  380MOL0     H51290   9.131   0.466   6.650 -0.4324  0.8090  2.3938
  380MOL0     H51291   9.068   0.607   6.549  1.3862  2.6891 -0.2716
  380MOL0     H51292   9.039   0.744   6.758 -4.0399 -0.6834  1.8834
  380MOL0     H51293   9.148   0.635   6.846  0.6799 -0.3498 -0.8705
  380MOL0     H51294   8.863   0.606   6.731  0.4270  3.0056 -0.0143
  380MOL0     H51295   8.947   0.473   6.804 -0.9231 -1.0279  3.7933
  380MOL0     H51296   8.809   0.723   7.126  0.3883  0.6362 -0.2105
  380MOL0     H51297   9.529   0.680   6.597 -0.6293  0.4262  3.4229
  380MOL0     H51298   9.746   0.707   6.680  0.6125  0.2200 -0.1529
  380MOL0     H51299   9.834   0.778   6.535 -0.9448 -0.1338 -2.1304
  380MOL0     H51300   9.800   0.879   6.673 -0.8248  0.1971 -0.6091
  381MOL0     O51301   0.614   0.200   2.051 -0.0668 -0.2567 -0.0247
  381MOL0     C51302   0.652   0.084   2.085  1.1962 -0.3179  0.0943
  381MOL0     O51303   0.707  -0.012   2.011  1.0135 -0.8154  0.2035
  381MOL0     C51304   0.666  -0.017   1.872  0.1069 -0.5965  0.0800
  381MOL0     C51305   0.758  -0.050   1.767  0.2443  0.3819 -0.1488
  381MOL0     C51306   0.729  -0.047   1.629  0.4150 -0.0390 -0.0207
  381MOL0     C51307   0.603  -0.024   1.588 -0.7182 -0.8037  1.3043
  381MOL0     O51308   0.557  -0.048   1.461  0.2257 -0.3272  0.6975
  381MOL0     C51309   0.605  -0.173   1.399  0.2893 -0.6944 -0.5198
  381MOL0     C51310   0.550  -0.292   1.482  1.2755  0.0395  0.3056
  381MOL0     C51311   0.601  -0.413   1.417 -0.2021 -0.8682  0.9319
  381MOL0     C51312   0.564  -0.531   1.500  0.0422  0.1646 -0.3354
  381MOL0     C51313   0.639  -0.657   1.465 -0.7957 -0.0794 -0.4680
  381MOL0     C51314   0.566  -0.725   1.342 -0.3257  0.1682 -0.4894
  381MOL0     C51315   0.624  -0.875   1.317 -0.4863  0.1315 -0.7579
  381MOL0     C51316   0.551  -0.954   1.214 -0.0306 -0.0107  0.5409
  381MOL0     N51317   0.614  -1.084   1.208 -0.9877 -1.0401 -0.1133
  381MOL0     C51318   0.585  -1.193   1.285 -0.7686  0.1954 -0.5181
  381MOL0     C51319   0.662  -1.302   1.238 -0.3773 -0.2125  0.2793
  381MOL0     C51320   0.657  -1.440   1.275  0.0194  0.2316 -0.6981
  381MOL0     C51321   0.695  -1.465   1.424 -0.9712 -0.4732  0.1600
  381MOL0     C51322   0.754  -1.610   1.436 -1.8477  0.9376 -0.7048
  381MOL0     C51323   0.709  -1.672   1.569  0.3146 -1.2482  0.4978
  381MOL0     O51324   0.771  -1.588   1.667  1.1350  0.3489  0.0965
  381MOL0     C51325   0.727  -1.588   1.797  0.0706  0.8091 -0.2692
  381MOL0     C51326   0.790  -1.504   1.885  0.0959  0.7419  0.4004
  381MOL0     C51327   0.765  -1.506   2.019  0.3779  0.5095  0.7637
  381MOL0     C51328   0.647  -1.580   2.065  0.2117 -0.1526 -0.7850
  381MOL0     C51329   0.590  -1.545   2.192  0.4416  0.4311 -1.1750
  381MOL0     O51330   0.592  -1.413   2.213  0.6651 -0.4550 -0.3606
  381MOL0     C51331   0.553  -1.355   2.331 -0.6773 -0.4091 -0.9417
  381MOL0     C51332   0.441  -1.394   2.404 -0.6811 -0.2143 -0.6456
  381MOL0     C51333   0.414  -1.323   2.523  0.5886 -0.7528  0.4911
  381MOL0     C51334   0.490  -1.220   2.570 -0.4911  1.2550 -0.6352
  381MOL0     O51335   0.456  -1.172   2.700  0.2535 -0.7167  0.8162
  381MOL0     C51336   0.547  -1.080   2.758  0.4516 -0.0655 -0.0685
  381MOL0     C51337   0.499  -1.035   2.899 -0.5969  0.0167  0.3506
  381MOL0     C51338   0.360  -0.984   2.903  0.1720 -0.1674 -0.1180
  381MOL0     C51339   0.357  -0.851   2.828 -0.1256  0.4243  0.6159
  381MOL0     C51340   0.221  -0.776   2.820  0.3224 -0.1239 -0.2140
  381MOL0     C51341   0.146  -0.754   2.951 -1.4096 -0.8472  0.0926
  381MOL0     C51342   0.222  -0.664   3.060 -0.0955 -0.6962 -0.4626
  381MOL0     C51343   0.141  -0.632   3.183 -0.6438 -0.7117 -0.5581
  381MOL0    Cl51344   0.118  -0.788   3.276 -0.5136 -0.1947  0.1906
  381MOL0     C51345   0.607  -1.186   2.500  0.5349 -0.5565 -0.2029
  381MOL0     C51346   0.636  -1.252   2.381 -0.5068  0.7380 -0.4622
  381MOL0     O51347   0.570  -1.637   2.277  0.7989 -0.3655  0.2895
  381MOL0     C51348   0.590  -1.667   1.975  0.1160 -0.2265  0.9961
  381MOL0     C51349   0.626  -1.675   1.845 -0.3015  0.0310  0.2465
  381MOL0     N51350   0.721  -1.244   1.128 -0.0108  0.9459  0.5142
  381MOL0     N51351   0.686  -1.126   1.100  0.3108  0.1197 -0.0344
  381MOL0     C51352   0.514   0.027   1.686  0.2581 -0.1073 -0.0825
  381MOL0     C51353   0.543   0.038   1.825  0.0325  0.4111 -0.0153
  381MOL0     C51354   0.648   0.048   2.232 -0.5694  0.1276 -0.2610
  381MOL0     C51355   0.701  -0.074   2.265 -0.6933 -0.2182 -0.3842
  381MOL0     C51356   0.713  -0.106   2.393  0.5475  0.1957 -0.1620
  381MOL0     C51357   0.662  -0.038   2.493  0.5358  0.6434 -0.2927
  381MOL0     O51358   0.653  -0.099   2.614  0.4667 -0.0093 -0.1214
  381MOL0     C51359   0.684  -0.024   2.737  0.4084  0.1656 -0.2846
  381MOL0     C51360   0.613  -0.078   2.862  0.9930 -0.1352 -0.1439
  381MOL0     C51361   0.459  -0.090   2.839 -0.1686 -0.0914  0.1178
  381MOL0     C51362   0.380  -0.161   2.956 -0.7093 -0.6802 -0.3257
  381MOL0     C51363   0.378  -0.064   3.060 -0.2207 -0.3074  0.6103
  381MOL0     C51364   0.366   0.021   3.147 -0.5550 -0.4913 -0.0296
  381MOL0     C51365   0.603   0.088   2.467  0.4677 -0.3482 -0.5207
  381MOL0     C51366   0.599   0.128   2.340  0.3958 -0.7385 -0.1410
  381MOL0     C51367   0.536   0.261   2.320 -0.4631  0.5206 -0.4568
  381MOL0     H51368   0.860  -0.075   1.796  0.4450 -1.8644 -2.4587
  381MOL0     H51369   0.815  -0.063   1.565 -0.2740 -0.7902 -0.7836
  381MOL0     H51370   0.579  -0.171   1.293  0.6037  1.8376 -0.6186
  381MOL0     H51371   0.714  -0.182   1.406  0.1298 -1.7901  1.1390
  381MOL0     H51372   0.441  -0.305   1.473  1.1600  0.5219  0.9619
  381MOL0     H51373   0.588  -0.284   1.584  1.2136 -1.5820  0.4839
  381MOL0     H51374   0.710  -0.409   1.408 -0.4031  0.9800 -2.5413
  381MOL0     H51375   0.556  -0.435   1.320 -0.6365 -2.1637  1.4040
  381MOL0     H51376   0.586  -0.499   1.603 -0.0227 -1.3351  0.1652
  381MOL0     H51377   0.455  -0.536   1.506 -0.0907  2.7038  0.9216
  381MOL0     H51378   0.735  -0.631   1.420 -2.2694  2.4210 -2.4237
  381MOL0     H51379   0.641  -0.731   1.546  2.0904  0.0313 -0.3341
  381MOL0     H51380   0.459  -0.721   1.368  0.1428  2.5790  1.4157
  381MOL0     H51381   0.584  -0.667   1.251 -0.7694  0.7775 -0.1935
  381MOL0     H51382   0.623  -0.928   1.413 -0.4546 -0.0068 -0.8338
  381MOL0     H51383   0.729  -0.851   1.298 -0.3855  2.1291  1.7767
  381MOL0     H51384   0.445  -0.965   1.236 -0.7492  1.1856 -1.9099
  381MOL0     H51385   0.557  -0.907   1.115 -3.4561  0.7850  0.5898
  381MOL0     H51386   0.509  -1.193   1.363 -0.5321 -2.2612 -0.2139
  381MOL0     H51387   0.559  -1.485   1.259  0.6211 -0.8723 -1.3876
  381MOL0     H51388   0.727  -1.489   1.206 -0.5407  1.0723 -1.8893
  381MOL0     H51389   0.773  -1.395   1.455 -0.0047 -1.6189  0.3830
  381MOL0     H51390   0.606  -1.466   1.488 -0.6242 -2.6002  0.6876
  381MOL0     H51391   0.864  -1.610   1.427 -1.7688  1.2490  0.1587
  381MOL0     H51392   0.728  -1.673   1.351  2.2363  1.7405 -2.8609
  381MOL0     H51393   0.739  -1.777   1.571 -1.5134 -1.8242 -0.3998
  381MOL0     H51394   0.600  -1.672   1.573  0.3563 -1.8667  2.2449
  381MOL0     H51395   0.879  -1.457   1.844  1.7868 -2.0977  0.5796
  381MOL0     H51396   0.820  -1.437   2.082  3.1511  0.2168 -1.1347
  381MOL0     H51397   0.388  -1.481   2.367  2.7967 -2.7662 -0.1744
  381MOL0     H51398   0.320  -1.349   2.571  0.6051  2.0727  2.2837
  381MOL0     H51399   0.639  -1.134   2.779  0.2008 -0.1018  1.0458
  381MOL0     H51400   0.569  -0.990   2.700  3.1223 -0.7350 -0.2064
  381MOL0     H51401   0.506  -1.128   2.957 -1.6694 -1.2185 -1.3876
  381MOL0     H51402   0.574  -0.967   2.940  0.0717 -0.0032 -0.8151
  381MOL0     H51403   0.286  -1.052   2.859 -0.5539  0.8036 -0.4458
  381MOL0     H51404   0.341  -0.963   3.008  1.4546 -3.5377  0.8888
  381MOL0     H51405   0.371  -0.862   2.720  0.7655 -0.1400  0.7787
  381MOL0     H51406   0.432  -0.781   2.865  1.0848 -1.0354  1.0435
  381MOL0     H51407   0.153  -0.844   2.767 -2.1963  1.7832  0.3651
  381MOL0     H51408   0.239  -0.691   2.753  2.2493 -1.4750 -1.5210
  381MOL0     H51409   0.049  -0.711   2.926 -2.0237 -2.8200 -1.1688
  381MOL0     H51410   0.130  -0.852   2.995  0.2342  0.2371  3.4430
  381MOL0     H51411   0.241  -0.564   3.020 -0.8123 -0.1259  0.5906
  381MOL0     H51412   0.319  -0.713   3.077  1.0059  1.7483  0.8079
  381MOL0     H51413   0.193  -0.554   3.240 -2.0395 -0.6518  0.7084
  381MOL0     H51414   0.047  -0.596   3.140  1.0878  1.5892 -2.6696
  381MOL0     H51415   0.684  -1.120   2.538  0.2925 -3.2055  6.1055
  381MOL0     H51416   0.722  -1.237   2.317 -1.0008 -1.0552 -1.6457
  381MOL0     H51417   0.509  -1.730   2.010 -0.3482 -0.7185 -0.8338
  381MOL0     H51418   0.569  -1.758   1.805  2.0798 -1.1769 -0.8054
  381MOL0     H51419   0.417   0.053   1.643  1.8175  1.1866 -3.0592
  381MOL0     H51420   0.470   0.075   1.897  0.1535 -1.4227  1.1190
  381MOL0     H51421   0.744  -0.144   2.193 -0.2852 -1.3938  0.9643
  381MOL0     H51422   0.749  -0.207   2.406 -2.3767 -0.9593 -0.5306
  381MOL0     H51423   0.646   0.078   2.728 -3.8672 -1.1658  0.4721
  381MOL0     H51424   0.792  -0.033   2.754  0.5588 -1.2284 -1.7528
  381MOL0     H51425   0.620  -0.007   2.945  2.9483 -0.9819  0.4803
  381MOL0     H51426   0.650  -0.178   2.891  1.1058 -0.3759 -1.0979
  381MOL0     H51427   0.439  -0.145   2.747  0.3474 -1.0572  0.5721
  381MOL0     H51428   0.423   0.012   2.821 -0.7589 -0.0279  1.5233
  381MOL0     H51429   0.278  -0.194   2.933 -1.8218  0.1585  2.7828
  381MOL0     H51430   0.439  -0.244   2.995  3.5427  2.8061  1.5620
  381MOL0     H51431   0.350   0.098   3.220 -2.2793  0.1368 -1.0307
  381MOL0     H51432   0.561   0.147   2.547 -2.8327  0.1903 -2.4461
  381MOL0     H51433   0.549   0.323   2.409  0.8502 -0.4079  0.0310
  381MOL0     H51434   0.593   0.307   2.239  2.0883 -3.1648 -1.0168
  381MOL0     H51435   0.430   0.249   2.297 -0.9056 -3.1182  2.4170
  382MOL0     O51436   2.245   2.926  10.857 -0.0263  0.0973 -0.1957
  382MOL0     C51437   2.165   2.944  10.768  0.0790  0.2388  0.1747
  382MOL0     O51438   2.069   2.856  10.725 -0.3672 -1.0143  0.6760
  382MOL0     C51439   2.085   2.720  10.752  0.1603 -0.1210 -0.0292
  382MOL0     C51440   2.147   2.629  10.668 -0.5798 -0.1014 -0.0818
  382MOL0     C51441   2.178   2.499  10.712  0.5699  0.1850 -0.0084
  382MOL0     C51442   2.113   2.457  10.828  0.7399 -0.3645 -0.1424
  382MOL0     O51443   2.136   2.328  10.858  0.1683  0.5764  0.3523
  382MOL0     C51444   2.082   2.260  10.972 -0.0869  0.4846  0.0626
  382MOL0     C51445   2.065   2.105  10.939  0.2577 -0.5660  0.4274
  382MOL0     C51446   1.986   2.035  11.051 -0.0839  0.0786 -0.2288
  382MOL0     C51447   1.957   1.893  11.016  0.0167 -1.0229  0.1545
  382MOL0     C51448   1.912   1.813  11.137 -0.2065 -0.2056  0.8333
  382MOL0     C51449   1.874   1.667  11.103  0.7886  0.3674 -0.5832
  382MOL0     C51450   1.905   1.574  11.222 -0.9051  0.6023 -0.3756
  382MOL0     C51451   1.831   1.599  11.353  0.1117  0.0557 -0.1490
  382MOL0     N51452   1.881   1.498  11.454 -0.3103 -0.2654  0.6265
  382MOL0     C51453   1.985   1.509  11.540 -0.2064  0.4824 -0.4813
  382MOL0     C51454   1.982   1.386  11.613 -0.7442 -0.0920  0.0448
  382MOL0     C51455   2.061   1.347  11.745 -0.3161 -0.5144  0.4150
  382MOL0     C51456   1.979   1.364  11.863 -0.4743 -0.0882 -0.2791
  382MOL0     C51457   2.073   1.381  11.987 -0.9989  0.3835 -0.3120
  382MOL0     C51458   2.176   1.266  12.017 -0.3585 -0.0722 -0.1305
  382MOL0     O51459   2.189   1.228  12.158 -0.1716  0.3331  0.6799
  382MOL0     C51460   2.103   1.129  12.204 -1.3355  0.5100 -0.4759
  382MOL0     C51461   2.154   1.051  12.307 -0.2514 -0.2223 -0.0760
  382MOL0     C51462   2.090   0.945  12.359 -0.4479  0.0970  0.8574
  382MOL0     C51463   1.973   0.901  12.308 -0.0613  0.0038 -0.0012
  382MOL0     C51464   1.893   0.788  12.358  0.2859 -0.0962  0.6416
  382MOL0     O51465   1.970   0.709  12.444 -0.3598  0.0591  1.0012
  382MOL0     C51466   1.917   0.584  12.476 -0.7496 -0.9387 -0.2420
  382MOL0     C51467   1.895   0.564  12.609 -0.4046  0.1981 -1.1347
  382MOL0     C51468   1.849   0.441  12.647  0.1988  0.2266 -0.5321
  382MOL0     C51469   1.819   0.334  12.555 -0.5694  0.4590  0.2818
  382MOL0     O51470   1.767   0.228  12.617 -0.2966  0.6059  0.0289
  382MOL0     C51471   1.738   0.111  12.535 -0.3966 -0.5155  0.2365
  382MOL0     C51472   1.674  -0.002  12.609 -0.3551 -0.2259  0.5578
  382MOL0     C51473   1.751  -0.084  12.715 -0.5304 -0.7806  0.9309
  382MOL0     C51474   1.670  -0.113  12.838  0.8213 -0.1476 -1.1388
  382MOL0     C51475   1.653  -0.006  12.934  0.3996 -1.3853 -0.6004
  382MOL0     C51476   1.562  -0.075  13.041 -0.2705  0.3488  0.2981
  382MOL0     C51477   1.522   0.027  13.149  0.5241  0.1831  0.1959
  382MOL0     C51478   1.431  -0.029  13.261 -0.9335  0.4639 -0.3779
  382MOL0    Cl51479   1.261  -0.020  13.206  0.2524  0.2590  0.1156
  382MOL0     C51480   1.848   0.353  12.419  0.2249  0.0511 -0.9655
  382MOL0     C51481   1.900   0.480  12.381 -0.7165 -0.6687 -0.0153
  382MOL0     O51482   1.783   0.767  12.310 -0.3965 -0.3251  0.0842
  382MOL0     C51483   1.918   0.980  12.205  0.6477 -1.3770 -0.5252
  382MOL0     C51484   1.981   1.089  12.150  0.2478 -0.2926  0.4243
  382MOL0     N51485   1.894   1.307  11.554  0.3250 -0.3054  0.3700
  382MOL0     N51486   1.831   1.363  11.461  0.5005 -0.1879  0.6185
  382MOL0     C51487   2.047   2.551  10.916  0.0094  0.1217  1.5981
  382MOL0     C51488   2.027   2.679  10.868  0.2744  0.7081 -0.0962
  382MOL0     C51489   2.181   3.063  10.680  0.0369  0.3094  0.7082
  382MOL0     C51490   2.175   3.060  10.542  0.3541  0.7510 -0.5035
  382MOL0     C51491   2.191   3.174  10.468  0.1019  0.2581  0.0991
  382MOL0     C51492   2.196   3.298  10.527  0.6901 -0.6780  0.4579
  382MOL0     O51493   2.227   3.415  10.464  0.4730 -0.2958  0.1188
  382MOL0     C51494   2.197   3.432  10.323 -0.2932  0.2922 -0.5196
  382MOL0     C51495   2.323   3.426  10.236 -1.0119 -0.0284 -0.0241
  382MOL0     C51496   2.411   3.306  10.250 -0.2507 -0.8679 -0.1865
  382MOL0     C51497   2.534   3.300  10.159 -0.2640  0.4550  0.2904
  382MOL0     C51498   2.588   3.166  10.196 -0.4354 -0.3953 -0.3241
  382MOL0     C51499   2.654   3.066  10.220 -0.5239  0.5673  0.1623
  382MOL0     C51500   2.202   3.309  10.663 -0.4045  0.6290 -0.3149
  382MOL0     C51501   2.196   3.190  10.745  0.0769 -0.4267 -0.4123
  382MOL0     C51502   2.178   3.210  10.894 -0.3635  0.5035  0.8865
  382MOL0     H51503   2.176   2.664  10.569  1.5220 -0.9703  0.1879
  382MOL0     H51504   2.229   2.432  10.644  3.5139  0.9331  1.2986
  382MOL0     H51505   2.154   2.254  11.054  0.0078 -0.1717 -0.0607
  382MOL0     H51506   1.982   2.287  11.005 -0.7175 -0.0621 -1.3158
  382MOL0     H51507   2.165   2.060  10.936 -0.8183 -3.0732 -0.6320
  382MOL0     H51508   2.018   2.088  10.842 -3.3987  0.7583  1.7838
  382MOL0     H51509   1.891   2.087  11.065 -0.1715 -0.4608  1.2821
  382MOL0     H51510   2.039   2.038  11.147  2.8397 -2.1294 -1.6070
  382MOL0     H51511   1.882   1.883  10.936 -1.2859 -0.2649  1.2322
  382MOL0     H51512   2.053   1.848  10.991  0.6589 -1.1493  2.6712
  382MOL0     H51513   1.981   1.828  11.220 -0.5315  0.5515  0.9831
  382MOL0     H51514   1.810   1.844  11.164 -0.1210  0.1579  0.7474
  382MOL0     H51515   1.768   1.654  11.081  0.1087  0.7828  2.0862
  382MOL0     H51516   1.938   1.629  11.023 -0.2007  0.8725 -1.6368
  382MOL0     H51517   2.011   1.596  11.239 -1.2262  4.1460 -1.9951
  382MOL0     H51518   1.906   1.470  11.189 -0.5791  0.0307  1.3438
  382MOL0     H51519   1.845   1.697  11.399 -3.5310  2.0684 -2.8662
  382MOL0     H51520   1.725   1.576  11.343  0.9208 -3.5865 -2.4951
  382MOL0     H51521   2.049   1.595  11.554 -0.2992  0.2300  1.8599
  382MOL0     H51522   2.087   1.241  11.738  2.9608  0.1152  1.0958
  382MOL0     H51523   2.157   1.400  11.754 -0.1499 -0.9147  1.0823
  382MOL0     H51524   1.913   1.451  11.860  0.6588  0.9727  2.4740
  382MOL0     H51525   1.923   1.270  11.870  1.4510 -1.3280 -0.6746
  382MOL0     H51526   2.007   1.364  12.073 -0.2843 -2.8174 -0.2785
  382MOL0     H51527   2.112   1.482  11.973 -0.3485  0.4080  1.4916
  382MOL0     H51528   2.278   1.293  11.990 -0.4535  1.7398  1.1377
  382MOL0     H51529   2.162   1.179  11.952 -1.3811  0.1408 -0.2210
  382MOL0     H51530   2.252   1.072  12.349 -0.5412  2.6681 -0.6434
  382MOL0     H51531   2.138   0.893  12.441  1.1438  0.8130  0.4218
  382MOL0     H51532   1.907   0.647  12.678 -1.3694 -0.2603 -0.3919
  382MOL0     H51533   1.853   0.433  12.755  0.9016 -1.0737 -0.6423
  382MOL0     H51534   1.664   0.154  12.467  2.0014  0.4198 -1.9531
  382MOL0     H51535   1.817   0.082  12.465 -1.5046  0.3310 -1.4223
  382MOL0     H51536   1.583   0.039  12.655  1.2103  0.7694  2.9159
  382MOL0     H51537   1.657  -0.074  12.529  3.8656 -0.4959 -0.3145
  382MOL0     H51538   1.775  -0.185  12.680  0.6986 -0.4747  0.8640
  382MOL0     H51539   1.845  -0.033  12.739 -0.6972 -0.2720  0.5390
  382MOL0     H51540   1.713  -0.194  12.897 -0.0144  0.1231 -0.1224
  382MOL0     H51541   1.573  -0.145  12.799  1.0586  0.1006 -1.9528
  382MOL0     H51542   1.613   0.089  12.898 -2.4351 -1.6538  1.5188
  382MOL0     H51543   1.749   0.028  12.974 -0.5095 -0.2234  0.6523
  382MOL0     H51544   1.469  -0.107  12.993  1.2109 -0.2027 -2.3870
  382MOL0     H51545   1.613  -0.161  13.086  0.3581 -0.0674 -1.1406
  382MOL0     H51546   1.478   0.111  13.095 -0.2191 -0.2743  0.0736
  382MOL0     H51547   1.608   0.077  13.195 -0.3863  2.2000 -0.1832
  382MOL0     H51548   1.456  -0.130  13.295 -0.9839  0.6330  0.1787
  382MOL0     H51549   1.439   0.033  13.351  2.0360  2.1190 -1.6352
  382MOL0     H51550   1.816   0.271  12.355  1.3147 -1.7145  0.6521
  382MOL0     H51551   1.915   0.505  12.277  2.4820  0.0067  0.4934
  382MOL0     H51552   1.824   0.952  12.161  1.4207  1.2459 -4.3179
  382MOL0     H51553   1.930   1.139  12.068 -2.5077 -2.3464  0.7595
  382MOL0     H51554   2.019   2.517  11.015  1.8169 -0.2502  2.0145
  382MOL0     H51555   1.964   2.748  10.924  1.2639  0.4708  1.3673
  382MOL0     H51556   2.162   2.967  10.488 -1.7390 -0.9286  2.5866
  382MOL0     H51557   2.197   3.171  10.359 -0.2011  1.4862  0.0418
  382MOL0     H51558   2.153   3.530  10.303  0.2839  1.2961  2.5343
  382MOL0     H51559   2.128   3.354  10.291 -1.8127  1.1205  0.6583
  382MOL0     H51560   2.394   3.505  10.263  2.4337 -2.7777 -0.3203
  382MOL0     H51561   2.292   3.427  10.131  1.5980 -0.1891 -0.8793
  382MOL0     H51562   2.349   3.218  10.232 -0.2887 -0.7569 -0.6002
  382MOL0     H51563   2.452   3.309  10.352  2.2071 -5.7752 -0.7495
  382MOL0     H51564   2.498   3.290  10.056  3.8539  2.5495 -1.5853
  382MOL0     H51565   2.591   3.393  10.168 -1.7626  1.5185 -0.6512
  382MOL0     H51566   2.715   2.987  10.257 -0.9606  0.5375  0.8421
  382MOL0     H51567   2.197   3.410  10.701 -1.2184  0.5692 -0.2398
  382MOL0     H51568   2.111   3.297  10.897 -0.2934  0.6102 -0.3389
  382MOL0     H51569   2.144   3.124  10.952  0.6902  0.3463  1.3007
  382MOL0     H51570   2.279   3.240  10.926 -0.2793  0.7827  0.3756
  383MOL0     O51571   5.859   8.343   1.915  0.8010  0.1827  0.3173
  383MOL0     C51572   5.748   8.291   1.905  0.2832 -0.1947  0.6386
  383MOL0     O51573   5.649   8.330   1.815 -0.2627 -0.3534 -0.2425
  383MOL0     C51574   5.669   8.446   1.743  0.7398 -0.1159 -0.4506
  383MOL0     C51575   5.574   8.549   1.764  0.2517 -0.7218  0.6651
  383MOL0     C51576   5.582   8.667   1.681  0.0334  0.4588  0.2568
  383MOL0     C51577   5.693   8.684   1.595  0.6045 -0.4829 -0.2857
  383MOL0     O51578   5.702   8.789   1.509  0.2519  0.5037  0.3414
  383MOL0     C51579   5.645   8.912   1.540  0.4044  0.5677  0.0571
  383MOL0     C51580   5.709   9.029   1.465  0.0074  0.2199 -1.0742
  383MOL0     C51581   5.655   9.033   1.317  0.1856 -0.1640  0.4343
  383MOL0     C51582   5.650   9.176   1.265 -0.3190 -0.6462 -0.2161
  383MOL0     C51583   5.582   9.187   1.129 -0.8876  0.0502  0.4841
  383MOL0     C51584   5.577   9.324   1.066  0.4484  0.3070 -0.3357
  383MOL0     C51585   5.493   9.333   0.936 -0.7915 -0.2732 -0.1202
  383MOL0     C51586   5.484   9.475   0.871 -0.3814  0.4527 -0.5847
  383MOL0     N51587   5.389   9.493   0.759  0.2770  0.1568 -0.3707
  383MOL0     C51588   5.271   9.564   0.780 -0.1430 -0.6921 -0.5745
  383MOL0     C51589   5.199   9.545   0.675  0.3470 -0.2176 -0.1200
  383MOL0     C51590   5.060   9.592   0.650 -0.3048 -0.5970 -0.6863
  383MOL0     C51591   4.959   9.475   0.644 -0.3423 -0.3371  0.2383
  383MOL0     C51592   4.821   9.488   0.718  0.1220 -1.0094  0.0650
  383MOL0     C51593   4.751   9.612   0.671 -0.7181 -0.0456 -0.1344
  383MOL0     O51594   4.621   9.606   0.734 -0.4119 -0.2039  0.5389
  383MOL0     C51595   4.513   9.666   0.675  0.5481  0.3743  0.2629
  383MOL0     C51596   4.384   9.617   0.707 -0.8724  0.5689 -0.6576
  383MOL0     C51597   4.263   9.659   0.653  0.5889 -0.8964  1.2187
  383MOL0     C51598   4.262   9.762   0.552  0.6045  0.6345  0.3432
  383MOL0     C51599   4.138   9.809   0.500  0.3082 -0.9382  0.6652
  383MOL0     O51600   4.021   9.785   0.568  0.5494 -1.2737  0.3704
  383MOL0     C51601   3.894   9.831   0.519 -0.1085 -0.0361  0.2010
  383MOL0     C51602   3.795   9.823   0.621 -0.1026  0.2587  0.0816
  383MOL0     C51603   3.660   9.860   0.591 -0.3918  0.0556 -0.1732
  383MOL0     C51604   3.624   9.907   0.464 -0.2580 -0.1674  1.0386
  383MOL0     O51605   3.494   9.945   0.441 -0.4999  0.5563  0.4310
  383MOL0     C51606   3.446  10.001   0.321 -0.7319 -1.1966  0.3608
  383MOL0     C51607   3.414   9.895   0.219 -0.7384  0.8268 -0.5108
  383MOL0     C51608   3.393   9.958   0.076  0.0659  0.8202 -0.8631
  383MOL0     C51609   3.290   9.876  -0.003 -0.5176  0.0318  0.1806
  383MOL0     C51610   3.144   9.920   0.047 -0.0445  0.6590 -0.3953
  383MOL0     C51611   3.030   9.877  -0.048 -0.4026 -0.6362 -0.5692
  383MOL0     C51612   2.895   9.933  -0.003  0.8217  0.4013  0.1761
  383MOL0     C51613   2.782   9.864  -0.075  0.2417  0.0642  0.5857
  383MOL0    Cl51614   2.637   9.873   0.035  0.2126 -0.0955  0.2241
  383MOL0     C51615   3.724   9.907   0.368  1.1225 -0.0056 -1.4165
  383MOL0     C51616   3.859   9.877   0.394  0.2292  0.6566 -0.0970
  383MOL0     O51617   4.146   9.876   0.399  0.1386 -0.4002 -0.2942
  383MOL0     C51618   4.389   9.815   0.519 -0.9468 -0.2645  0.0068
  383MOL0     C51619   4.511   9.767   0.577  1.3548 -0.3682 -0.4611
  383MOL0     N51620   5.290   9.486   0.580  0.1944 -0.0179 -0.3168
  383MOL0     N51621   5.403   9.452   0.635  0.7699  0.1146  0.1646
  383MOL0     C51622   5.797   8.585   1.594 -0.3618  0.2319 -0.2632
  383MOL0     C51623   5.785   8.471   1.671  0.2275  0.4630  0.4171
  383MOL0     C51624   5.707   8.186   2.007 -0.0529  0.0281 -0.0290
  383MOL0     C51625   5.576   8.177   2.057  0.1157 -0.1517  0.2008
  383MOL0     C51626   5.551   8.086   2.158 -0.5083  0.1801  0.0442
  383MOL0     C51627   5.654   8.004   2.214 -0.3980  0.0823 -0.0052
  383MOL0     O51628   5.632   7.905   2.311  0.5920  0.2996  0.8125
  383MOL0     C51629   5.499   7.895   2.370 -0.2868  0.6553  0.2502
  383MOL0     C51630   5.461   8.005   2.460 -0.2590 -0.8982 -0.4167
  383MOL0     C51631   5.497   7.979   2.603  0.2677 -0.7048 -0.3107
  383MOL0     C51632   5.509   8.104   2.689 -0.4753  0.1615 -0.6124
  383MOL0     C51633   5.374   8.166   2.711 -0.3940  0.0590 -0.0952
  383MOL0     C51634   5.266   8.223   2.713  0.8510  0.0287  0.1402
  383MOL0     C51635   5.787   8.003   2.159  0.7952  0.1968  0.2919
  383MOL0     C51636   5.805   8.089   2.048 -0.7132  0.6380 -0.1317
  383MOL0     C51637   5.948   8.079   1.980 -0.1677 -0.0612  0.3917
  383MOL0     H51638   5.493   8.539   1.836  1.8921 -3.5679  2.3167
  383MOL0     H51639   5.508   8.747   1.685  0.9632  1.3971 -0.6606
  383MOL0     H51640   5.537   8.911   1.524  0.7554  1.5364 -2.9474
  383MOL0     H51641   5.670   8.931   1.645 -1.0312  1.3576  0.2872
  383MOL0     H51642   5.816   9.010   1.470 -0.2847 -1.5321 -0.8560
  383MOL0     H51643   5.673   9.118   1.518 -1.4100  0.2918 -2.0781
  383MOL0     H51644   5.559   8.982   1.321  0.9338 -1.5712  2.8139
  383MOL0     H51645   5.726   8.977   1.255  1.9687  0.7452  1.5424
  383MOL0     H51646   5.607   9.250   1.333 -1.5898 -0.1835 -1.4773
  383MOL0     H51647   5.751   9.217   1.263 -1.1231  1.4741 -2.2890
  383MOL0     H51648   5.620   9.112   1.059 -2.6489 -0.4870  0.0422
  383MOL0     H51649   5.477   9.159   1.142  0.0811 -3.7923  1.1894
  383MOL0     H51650   5.522   9.389   1.136 -0.8259  1.3450 -2.2143
  383MOL0     H51651   5.678   9.362   1.053  0.5611 -0.1648 -0.8627
  383MOL0     H51652   5.394   9.294   0.961 -0.4816 -0.2934  1.1438
  383MOL0     H51653   5.530   9.260   0.863  0.9061  1.3422 -0.9617
  383MOL0     H51654   5.460   9.549   0.948 -1.0943 -0.6363  0.2812
  383MOL0     H51655   5.585   9.507   0.842  0.5256 -0.7804  0.9978
  383MOL0     H51656   5.249   9.613   0.874  1.3610  2.3468 -1.6635
  383MOL0     H51657   5.037   9.666   0.727  0.7039  0.2692 -1.1837
  383MOL0     H51658   5.058   9.644   0.554 -0.3421 -0.2697 -0.5070
  383MOL0     H51659   4.959   9.434   0.543  1.5400  3.4293 -1.4982
  383MOL0     H51660   5.010   9.395   0.700 -0.0729 -2.1408 -2.3890
  383MOL0     H51661   4.838   9.491   0.826  0.1253 -0.8995  0.0622
  383MOL0     H51662   4.757   9.401   0.703 -1.5030 -0.2969  2.3955
  383MOL0     H51663   4.761   9.633   0.564 -2.5406 -1.0110 -0.5365
  383MOL0     H51664   4.803   9.687   0.731 -0.3566 -2.2368  2.5138
  383MOL0     H51665   4.387   9.538   0.781  0.5540 -0.3870 -1.6853
  383MOL0     H51666   4.167   9.619   0.684 -1.0021  1.1444 -0.8019
  383MOL0     H51667   3.820   9.788   0.721  2.5104  1.8554  0.0673
  383MOL0     H51668   3.582   9.869   0.666 -0.4712 -0.9976 -0.1084
  383MOL0     H51669   3.361  10.067   0.340  0.2024  0.5038 -1.1229
  383MOL0     H51670   3.521  10.074   0.288 -1.1432  0.0974  2.1091
  383MOL0     H51671   3.501   9.829   0.214  0.8602  2.7688  0.3731
  383MOL0     H51672   3.328   9.839   0.255  0.8756 -0.5861  1.3755
  383MOL0     H51673   3.366  10.063   0.093 -0.6588  0.8189 -1.9027
  383MOL0     H51674   3.489   9.950   0.024 -0.2261 -1.5354 -1.1494
  383MOL0     H51675   3.299   9.767   0.007 -1.2875 -0.1418 -0.8217
  383MOL0     H51676   3.305   9.893  -0.110 -1.1523  0.8376  0.2019
  383MOL0     H51677   3.130  10.029   0.055  0.5238  0.5873  2.5145
  383MOL0     H51678   3.120   9.878   0.145 -2.8493 -3.1381 -2.4371
  383MOL0     H51679   3.049   9.907  -0.152 -1.3587 -0.9713 -0.8459
  383MOL0     H51680   3.029   9.767  -0.048  1.0591 -0.7844  2.8598
  383MOL0     H51681   2.897  10.042  -0.014  0.9320  0.4798  0.9545
  383MOL0     H51682   2.887   9.920   0.105 -1.9802  2.6014  0.3438
  383MOL0     H51683   2.770   9.908  -0.174  3.8936 -0.8054 -0.4133
  383MOL0     H51684   2.807   9.758  -0.086 -2.6956 -0.9425  2.4884
  383MOL0     H51685   3.713   9.935   0.264 -1.5235  4.0733 -0.2533
  383MOL0     H51686   3.939   9.876   0.321  1.4541  2.8217  1.1531
  383MOL0     H51687   4.396   9.892   0.443  0.3172  0.4162  0.7901
  383MOL0     H51688   4.601   9.821   0.547 -0.2506  2.5451 -0.4177
  383MOL0     H51689   5.886   8.606   1.536 -2.9486  1.1974 -4.2854
  383MOL0     H51690   5.870   8.404   1.664 -0.0498  0.2665 -1.7551
  383MOL0     H51691   5.494   8.228   2.009  0.4378  0.1520 -0.0372
  383MOL0     H51692   5.451   8.083   2.199 -2.1364 -0.4853 -3.5189
  383MOL0     H51693   5.520   7.810   2.436 -1.6362  0.0194 -0.1113
  383MOL0     H51694   5.421   7.874   2.297 -1.0005  1.8768  0.6355
  383MOL0     H51695   5.356   8.021   2.434  0.0137  0.1340 -0.9477
  383MOL0     H51696   5.514   8.097   2.432  2.6983 -2.0384  1.0206
  383MOL0     H51697   5.599   7.941   2.612  0.7631  0.5634 -0.4675
  383MOL0     H51698   5.428   7.908   2.651 -0.2553  0.3463  0.5563
  383MOL0     H51699   5.550   8.080   2.788  2.5096  0.8422 -1.5866
  383MOL0     H51700   5.568   8.184   2.644  0.1304 -0.2648 -0.5964
  383MOL0     H51701   5.176   8.281   2.702 -0.2065 -1.1965  1.9219
  383MOL0     H51702   5.867   7.931   2.177  0.1971 -0.8102 -0.8663
  383MOL0     H51703   6.028   8.132   2.033  1.0264  1.1362 -2.4211
  383MOL0     H51704   5.976   7.973   1.981  1.8919  0.4189 -0.1391
  383MOL0     H51705   5.945   8.106   1.875 -1.6272  0.7010  0.6113
  384MOL0     O51706   8.355   5.362   5.291 -0.5398 -0.8819  0.4296
  384MOL0     C51707   8.248   5.303   5.269 -0.5666 -0.4842 -0.1417
  384MOL0     O51708   8.150   5.277   5.363 -0.4690 -0.1019 -0.6460
  384MOL0     C51709   8.166   5.326   5.485  0.2092  0.5346 -0.7163
  384MOL0     C51710   8.100   5.445   5.517  0.0388  0.0285  1.0628
  384MOL0     C51711   8.107   5.504   5.646  0.2778  0.3497 -0.5940
  384MOL0     C51712   8.190   5.437   5.743  0.1097 -0.1766 -0.6138
  384MOL0     O51713   8.194   5.489   5.867  0.6042 -0.4199 -0.4673
  384MOL0     C51714   8.085   5.450   5.958 -0.1197  0.2683 -0.0741
  384MOL0     C51715   8.079   5.528   6.084  0.3311 -0.0393 -1.1074
  384MOL0     C51716   7.994   5.659   6.055  0.1220 -0.3065  0.1511
  384MOL0     C51717   8.029   5.764   6.170  1.1743  0.3658 -0.3154
  384MOL0     C51718   7.906   5.856   6.204 -0.4314 -0.2760 -0.0541
  384MOL0     C51719   7.787   5.778   6.254  0.0652 -0.2527  0.2414
  384MOL0     C51720   7.683   5.882   6.308  0.1821  0.0206  0.2725
  384MOL0     C51721   7.547   5.823   6.364 -0.4829  0.3497 -0.9071
  384MOL0     N51722   7.478   5.733   6.259 -0.3082  0.1664  0.1455
  384MOL0     C51723   7.476   5.753   6.118 -0.7832  0.4462 -0.9718
  384MOL0     C51724   7.398   5.652   6.071  0.1472 -0.2750  0.7338
  384MOL0     C51725   7.374   5.608   5.932 -0.0381 -0.0059 -0.3436
  384MOL0     C51726   7.394   5.457   5.901  0.2570 -0.4053  0.2550
  384MOL0     C51727   7.492   5.379   5.989  0.6978 -0.4622  0.7051
  384MOL0     C51728   7.624   5.448   5.997  0.0039  0.0935 -0.3019
  384MOL0     O51729   7.732   5.349   6.023  1.1365 -0.0705 -0.4708
  384MOL0     C51730   7.793   5.281   5.916 -0.0828 -1.4250 -0.6943
  384MOL0     C51731   7.797   5.330   5.783  0.2932 -0.5732 -0.2921
  384MOL0     C51732   7.852   5.251   5.693 -0.3617 -0.8026 -0.1363
  384MOL0     C51733   7.925   5.133   5.731  1.0753 -0.5801  0.3826
  384MOL0     C51734   7.982   5.035   5.632 -0.6112 -0.0680  0.1545
  384MOL0     O51735   8.083   4.956   5.673 -0.2358  0.4450 -0.3164
  384MOL0     C51736   8.106   4.840   5.605 -0.1762  0.4198  0.3083
  384MOL0     C51737   8.240   4.808   5.592 -0.6811  0.0338  0.8658
  384MOL0     C51738   8.275   4.700   5.518  0.2739 -0.4544 -0.0251
  384MOL0     C51739   8.179   4.605   5.477 -0.3447  0.5319 -0.4195
  384MOL0     O51740   8.231   4.500   5.411  0.6444 -0.8277 -0.0251
  384MOL0     C51741   8.218   4.367   5.471 -0.8620  0.4333  0.1479
  384MOL0     C51742   8.305   4.278   5.380  0.0245 -0.4789  0.3248
  384MOL0     C51743   8.450   4.279   5.389 -0.8908  0.5846  0.0217
  384MOL0     C51744   8.514   4.204   5.268  0.2685  0.3866 -0.5920
  384MOL0     C51745   8.529   4.292   5.144  0.2599  0.3654  0.0527
  384MOL0     C51746   8.607   4.212   5.045  0.4430 -0.0880  0.3661
  384MOL0     C51747   8.635   4.299   4.925  0.8285  0.2320 -0.0094
  384MOL0     C51748   8.736   4.239   4.829  0.0694  0.1401  0.3680
  384MOL0    Cl51749   8.720   4.325   4.672 -0.3967  0.5903  0.0345
  384MOL0     C51750   8.043   4.617   5.508 -1.2848 -0.7164  0.7421
  384MOL0     C51751   8.005   4.749   5.555 -0.2548 -0.3285 -0.1176
  384MOL0     O51752   7.939   5.045   5.511 -0.0396  0.4921 -0.1109
  384MOL0     C51753   7.930   5.095   5.864  0.4825 -0.2230 -0.8315
  384MOL0     C51754   7.857   5.169   5.959 -0.6271 -1.7729  0.1241
  384MOL0     N51755   7.352   5.580   6.182 -0.6753  0.5157  0.7048
  384MOL0     N51756   7.397   5.633   6.293 -0.3057  0.1496  0.0777
  384MOL0     C51757   8.255   5.319   5.719 -0.4089  0.4312 -0.6170
  384MOL0     C51758   8.242   5.266   5.587  0.3094 -0.8845  0.1519
  384MOL0     C51759   8.222   5.241   5.137  0.8814 -1.1431 -0.3684
  384MOL0     C51760   8.136   5.123   5.139 -0.6666 -0.6480  0.5000
  384MOL0     C51761   8.109   5.048   5.025 -0.7166 -0.5210  0.7222
  384MOL0     C51762   8.168   5.079   4.898 -0.9099  0.3711  0.0505
  384MOL0     O51763   8.148   5.011   4.779 -0.6098 -0.2604 -0.0204
  384MOL0     C51764   8.067   4.893   4.775  0.3956  0.3530  0.3439
  384MOL0     C51765   8.162   4.769   4.785  0.8844 -0.4286  0.2048
  384MOL0     C51766   8.300   4.781   4.708  0.5239 -0.3278 -0.1543
  384MOL0     C51767   8.375   4.641   4.717  0.0454 -0.2885  0.1958
  384MOL0     C51768   8.414   4.639   4.858 -0.5426  0.1529 -0.3789
  384MOL0     C51769   8.435   4.641   4.978  0.0125  0.6552 -0.3293
  384MOL0     C51770   8.252   5.194   4.903 -0.0408 -0.3092  0.0752
  384MOL0     C51771   8.280   5.278   5.011  0.4196  0.4879 -0.6185
  384MOL0     C51772   8.381   5.394   4.973 -0.0677  0.5604  0.0198
  384MOL0     H51773   8.041   5.508   5.451 -1.3972 -2.5788 -0.3290
  384MOL0     H51774   8.062   5.597   5.679  0.7521  0.9399 -1.5939
  384MOL0     H51775   7.988   5.465   5.910 -0.0619 -0.2156 -0.3488
  384MOL0     H51776   8.113   5.349   5.990  1.0690  1.3333  2.5397
  384MOL0     H51777   8.180   5.549   6.119  0.4301  0.6973 -1.8160
  384MOL0     H51778   8.038   5.473   6.169  1.2475  1.6654  0.4984
  384MOL0     H51779   7.889   5.628   6.048  0.0875 -0.2950  0.5998
  384MOL0     H51780   8.032   5.703   5.962  0.2532 -1.3382 -0.2958
  384MOL0     H51781   8.055   5.713   6.263 -0.2448  1.4678  0.7313
  384MOL0     H51782   8.113   5.827   6.141  0.5318  0.9163 -1.0283
  384MOL0     H51783   7.939   5.926   6.282  0.1738  1.7895 -2.0410
  384MOL0     H51784   7.878   5.916   6.118 -1.6900 -1.0201 -0.1828
  384MOL0     H51785   7.744   5.726   6.168 -1.1467 -0.1427  0.7633
  384MOL0     H51786   7.811   5.703   6.330 -0.7134 -0.9875 -0.2104
  384MOL0     H51787   7.652   5.952   6.230 -1.1782  0.6812  1.3620
  384MOL0     H51788   7.722   5.942   6.391 -1.1416 -0.0007  0.9325
  384MOL0     H51789   7.572   5.754   6.444 -1.3512 -1.8336 -2.4209
  384MOL0     H51790   7.482   5.906   6.393 -0.3692  0.1248 -0.0063
  384MOL0     H51791   7.537   5.826   6.066 -0.0216  0.8313  0.4162
  384MOL0     H51792   7.274   5.646   5.908 -0.0076 -0.1677 -0.7281
  384MOL0     H51793   7.432   5.678   5.871  2.9687 -0.9899  1.1522
  384MOL0     H51794   7.300   5.404   5.887  0.8137 -0.9760 -1.6533
  384MOL0     H51795   7.443   5.445   5.803  0.0974 -0.7073  0.2129
  384MOL0     H51796   7.501   5.273   5.965 -0.5309 -1.9894  5.7225
  384MOL0     H51797   7.444   5.370   6.087 -0.1829 -2.2492  0.1522
  384MOL0     H51798   7.607   5.512   6.083 -2.8003 -0.4262 -0.3706
  384MOL0     H51799   7.652   5.509   5.910  0.9537 -0.7196 -0.5857
  384MOL0     H51800   7.747   5.418   5.745 -1.0513 -0.6571  1.1768
  384MOL0     H51801   7.842   5.274   5.587 -1.0509  0.6499  0.2217
  384MOL0     H51802   8.302   4.893   5.619  0.6745 -0.2893 -0.9616
  384MOL0     H51803   8.378   4.687   5.488 -0.4111 -1.5353 -2.1291
  384MOL0     H51804   8.272   4.360   5.565  0.0364  2.2252 -0.2007
  384MOL0     H51805   8.116   4.329   5.475 -0.3566 -0.9276  0.5357
  384MOL0     H51806   8.276   4.175   5.400 -2.1583 -0.0268 -0.3094
  384MOL0     H51807   8.275   4.301   5.278 -2.3695 -2.3404  0.5386
  384MOL0     H51808   8.494   4.379   5.390  0.1336  0.2303  3.4717
  384MOL0     H51809   8.478   4.245   5.489  3.5836  1.6530 -0.6643
  384MOL0     H51810   8.456   4.113   5.250  0.8099 -0.2011  0.5241
  384MOL0     H51811   8.611   4.173   5.307 -0.9460 -0.3176  2.0483
  384MOL0     H51812   8.599   4.373   5.170  1.6015 -1.0306  0.9979
  384MOL0     H51813   8.437   4.339   5.108  1.0403  1.2074 -0.9153
  384MOL0     H51814   8.710   4.190   5.076  0.8020 -2.0940 -1.8997
  384MOL0     H51815   8.553   4.120   5.021  0.8841 -0.1077 -0.6029
  384MOL0     H51816   8.672   4.399   4.951 -0.1140  1.3150 -2.4749
  384MOL0     H51817   8.548   4.334   4.870  0.3730  0.2409  0.7058
  384MOL0     H51818   8.841   4.240   4.862  0.7352 -0.2056 -1.6437
  384MOL0     H51819   8.706   4.135   4.821 -0.6576  0.1434  2.4083
  384MOL0     H51820   7.975   4.536   5.485 -1.0104 -0.3967 -1.4323
  384MOL0     H51821   7.907   4.790   5.577  0.4546 -0.2293  3.5492
  384MOL0     H51822   7.985   5.012   5.907  0.3732 -0.1932 -0.6350
  384MOL0     H51823   7.866   5.156   6.066 -0.8320 -1.0108  0.2371
  384MOL0     H51824   8.316   5.256   5.784 -0.0789  1.9255  0.5769
  384MOL0     H51825   8.297   5.173   5.571 -0.5030 -1.2774 -0.4633
  384MOL0     H51826   8.101   5.098   5.238 -1.1945  0.7203  0.6834
  384MOL0     H51827   8.046   4.962   5.041  0.1767 -2.4650 -4.4830
  384MOL0     H51828   8.034   4.888   4.671  1.5211  0.3425 -0.0279
  384MOL0     H51829   7.987   4.890   4.849 -2.2152  0.1452 -2.2969
  384MOL0     H51830   8.109   4.688   4.733  3.6260 -1.1132 -1.7852
  384MOL0     H51831   8.171   4.737   4.889 -0.8564 -1.2647  0.1379
  384MOL0     H51832   8.351   4.865   4.755 -1.1092  1.3829 -1.3083
  384MOL0     H51833   8.293   4.800   4.601  0.8937 -0.5219 -0.2126
  384MOL0     H51834   8.309   4.557   4.693  1.8614 -1.7235 -0.0673
  384MOL0     H51835   8.460   4.639   4.647 -0.9374 -2.0276 -1.0382
  384MOL0     H51836   8.453   4.646   5.083 -3.5806 -0.8980  0.4882
  384MOL0     H51837   8.305   5.230   4.815  2.3626 -0.3407  1.4242
  384MOL0     H51838   8.478   5.343   4.966  0.1080  1.0322 -1.1820
  384MOL0     H51839   8.342   5.452   4.889  1.3975  1.8460  0.1835
  384MOL0     H51840   8.386   5.467   5.054  4.0226 -2.1909  2.6561
  385MOL0     O51841   2.477   6.256   7.908 -0.4116  0.5539 -0.2063
  385MOL0     C51842   2.595   6.283   7.905  0.8140 -1.0273  0.5971
  385MOL0     O51843   2.642   6.406   7.885  0.2347  0.2136 -0.0810
  385MOL0     C51844   2.539   6.497   7.888 -0.7044 -0.3973 -0.2125
  385MOL0     C51845   2.501   6.565   8.009  0.3000  1.1901 -0.3138
  385MOL0     C51846   2.430   6.680   7.999  0.3472 -0.6355 -0.1106
  385MOL0     C51847   2.386   6.726   7.874  0.5594 -0.6111 -0.3645
  385MOL0     O51848   2.310   6.843   7.867 -1.0544 -0.5565 -0.2060
  385MOL0     C51849   2.263   6.911   7.982  0.5317 -0.6177  0.6276
  385MOL0     C51850   2.212   7.045   7.919 -0.4241 -0.1620 -1.1605
  385MOL0     C51851   2.326   7.115   7.842 -0.3065  0.0721 -0.9243
  385MOL0     C51852   2.300   7.258   7.808 -0.8530  0.2460  0.5319
  385MOL0     C51853   2.179   7.313   7.729  0.3507 -0.5071 -0.3600
  385MOL0     C51854   2.183   7.256   7.585 -0.4339  0.3729  0.3322
  385MOL0     C51855   2.056   7.282   7.504  0.2745  0.6007  0.5859
  385MOL0     C51856   2.036   7.418   7.461  1.0157  0.4379 -0.0717
  385MOL0     N51857   1.935   7.416   7.352 -0.0022  0.9790  0.0985
  385MOL0     C51858   1.949   7.460   7.224 -0.0763 -0.5821  0.5638
  385MOL0     C51859   1.833   7.433   7.160  1.1259  0.0076  0.3930
  385MOL0     C51860   1.792   7.454   7.020  0.5038  0.7699 -0.0413
  385MOL0     C51861   1.777   7.598   6.981 -1.4535 -0.2979  1.0965
  385MOL0     C51862   1.672   7.676   7.051 -0.8020  0.0613 -0.0831
  385MOL0     C51863   1.693   7.830   7.054  0.5771  1.1868  0.0049
  385MOL0     O51864   1.674   7.873   7.186 -0.6290 -0.5577  0.0192
  385MOL0     C51865   1.777   7.869   7.270  0.9311  0.4376  0.1080
  385MOL0     C51866   1.898   7.941   7.251 -0.4177  0.9823  0.5840
  385MOL0     C51867   2.011   7.919   7.333 -1.1043 -0.7620 -0.6234
  385MOL0     C51868   1.998   7.840   7.447  0.6002  1.3871 -0.7788
  385MOL0     C51869   2.112   7.809   7.528 -0.5446  0.1492 -1.2614
  385MOL0     O51870   2.225   7.893   7.518 -0.0358  0.9796 -0.4165
  385MOL0     C51871   2.340   7.838   7.564  0.4138 -0.2493  0.2134
  385MOL0     C51872   2.393   7.735   7.495 -0.2200 -0.1757  0.3739
  385MOL0     C51873   2.514   7.671   7.536 -0.5816  0.3106 -0.2164
  385MOL0     C51874   2.580   7.711   7.656  0.7606  0.9936 -0.1132
  385MOL0     O51875   2.686   7.633   7.706  0.0177  0.3421  0.2667
  385MOL0     C51876   2.710   7.614   7.849 -0.1359 -0.4895 -0.8828
  385MOL0     C51877   2.589   7.528   7.910  0.9952  0.1750 -0.5176
  385MOL0     C51878   2.580   7.540   8.065  0.3927  0.6257  0.7333
  385MOL0     C51879   2.669   7.424   8.107  0.1695 -0.1897  0.6790
  385MOL0     C51880   2.700   7.437   8.252  1.0158  0.0691 -0.3206
  385MOL0     C51881   2.755   7.319   8.330  0.4016 -0.0850  0.1283
  385MOL0     C51882   2.781   7.375   8.470 -0.2967 -0.0126 -0.2402
  385MOL0     C51883   2.886   7.313   8.560  0.5323  0.8591 -0.3357
  385MOL0    Cl51884   2.801   7.177   8.637  0.2568 -0.0923  0.0063
  385MOL0     C51885   2.528   7.821   7.721 -0.3820  0.2434 -0.4096
  385MOL0     C51886   2.412   7.889   7.667 -0.3086  0.8692  0.2274
  385MOL0     O51887   2.109   7.696   7.582  0.4069  0.2121 -0.2780
  385MOL0     C51888   1.870   7.783   7.478 -0.3149  0.5177 -0.2895
  385MOL0     C51889   1.764   7.789   7.393 -0.9706  0.1420  0.6173
  385MOL0     N51890   1.747   7.352   7.243 -0.7929  0.2598  0.0036
  385MOL0     N51891   1.810   7.352   7.358 -0.1649 -0.3310  0.0407
  385MOL0     C51892   2.413   6.657   7.754  0.5394 -0.4067  0.8495
  385MOL0     C51893   2.495   6.550   7.766 -0.7147  0.2887  0.0375
  385MOL0     C51894   2.691   6.167   7.918  0.7772 -0.9167 -0.1046
  385MOL0     C51895   2.656   6.044   7.864 -0.3746 -0.5128  0.2947
  385MOL0     C51896   2.741   5.938   7.863  0.4061  0.2560  0.0215
  385MOL0     C51897   2.871   5.947   7.923  0.1163 -0.4041  0.0130
  385MOL0     O51898   2.936   5.824   7.915 -0.8236  0.5959  0.0236
  385MOL0     C51899   3.059   5.808   7.998 -0.9236  0.0005  0.0901
  385MOL0     C51900   3.137   5.698   7.926 -0.0002 -0.0041  2.1976
  385MOL0     C51901   3.090   5.555   7.970  1.1808  0.2858 -0.7082
  385MOL0     C51902   3.182   5.452   7.901  0.5007 -0.2080 -0.6557
  385MOL0     C51903   3.316   5.449   7.964  0.9318  0.0526 -0.1024
  385MOL0     C51904   3.425   5.432   8.021 -0.2743 -0.3623  0.2271
  385MOL0     C51905   2.913   6.070   7.967  1.2097 -0.2498  0.2929
  385MOL0     C51906   2.823   6.187   7.968  0.7340  0.3039 -0.3455
  385MOL0     C51907   2.878   6.323   8.026 -0.0127 -0.2838  0.5343
  385MOL0     H51908   2.539   6.521   8.101  1.0515 -0.9162 -1.5530
  385MOL0     H51909   2.405   6.730   8.092 -3.8368 -2.6002  0.0517
  385MOL0     H51910   2.195   6.842   8.032  1.8107 -4.1545 -2.0338
  385MOL0     H51911   2.338   6.945   8.054  1.7527  1.1681 -1.3389
  385MOL0     H51912   2.175   7.101   8.005  3.3064 -2.8319  2.5483
  385MOL0     H51913   2.134   7.021   7.845  0.1226 -1.0977 -1.4501
  385MOL0     H51914   2.341   7.069   7.743 -0.1918  2.7661 -2.2357
  385MOL0     H51915   2.419   7.096   7.896  0.8475  0.8221 -2.5667
  385MOL0     H51916   2.314   7.317   7.900 -0.2864 -0.0118  0.6180
  385MOL0     H51917   2.388   7.290   7.752  0.7316 -3.8029  0.3765
  385MOL0     H51918   2.081   7.291   7.771 -0.0504  2.3971  0.4673
  385MOL0     H51919   2.187   7.422   7.728 -1.1723 -0.3802 -1.2284
  385MOL0     H51920   2.268   7.275   7.518 -1.3535 -3.6457 -2.3268
  385MOL0     H51921   2.192   7.148   7.601  1.2780  0.7928  2.7367
  385MOL0     H51922   1.970   7.255   7.565 -1.0066  3.2298  0.0991
  385MOL0     H51923   2.052   7.217   7.416  0.3858  0.8577  0.3903
  385MOL0     H51924   2.003   7.480   7.546 -0.0566  0.0447 -0.1854
  385MOL0     H51925   2.130   7.455   7.419  2.8717 -2.0712  1.6354
  385MOL0     H51926   2.036   7.516   7.193  0.4187 -2.4799 -1.8856
  385MOL0     H51927   1.864   7.406   6.954  2.4193  0.0292  2.4350
  385MOL0     H51928   1.693   7.408   7.011  0.1520  0.9427  2.2641
  385MOL0     H51929   1.879   7.635   6.993 -0.7712 -1.4586 -0.7514
  385MOL0     H51930   1.758   7.598   6.873  0.5161 -3.5426  0.6313
  385MOL0     H51931   1.666   7.636   7.153  0.4819 -0.0420 -0.0327
  385MOL0     H51932   1.579   7.645   7.003 -1.0711  1.1543 -0.2907
  385MOL0     H51933   1.607   7.871   7.000  0.1908  2.1458  1.2750
  385MOL0     H51934   1.775   7.884   7.005  1.9223 -0.6756  0.0959
  385MOL0     H51935   1.911   8.012   7.170 -1.3364  1.0869  0.5129
  385MOL0     H51936   2.109   7.963   7.316  0.0801 -3.2738 -0.6951
  385MOL0     H51937   2.340   7.699   7.407 -2.7234  4.7324 -0.4681
  385MOL0     H51938   2.553   7.587   7.479 -2.7839 -1.4011  0.6679
  385MOL0     H51939   2.807   7.567   7.871 -0.5544 -0.9828 -0.0302
  385MOL0     H51940   2.718   7.716   7.888 -1.7352  0.2382 -2.3660
  385MOL0     H51941   2.489   7.544   7.870 -0.0040 -1.4749  1.1220
  385MOL0     H51942   2.599   7.422   7.885 -0.5837 -0.4711  1.3106
  385MOL0     H51943   2.618   7.639   8.094  2.0089 -0.7251  3.7841
  385MOL0     H51944   2.474   7.528   8.088  0.1336 -0.9754 -1.0320
  385MOL0     H51945   2.765   7.424   8.055  0.1308 -2.2135  0.5289
  385MOL0     H51946   2.615   7.331   8.086 -0.1162  0.6462 -2.9351
  385MOL0     H51947   2.599   7.454   8.290  0.5488 -2.3774 -0.3083
  385MOL0     H51948   2.766   7.524   8.265  0.8987  0.1919 -0.5393
  385MOL0     H51949   2.685   7.235   8.336 -1.9889  1.8283  0.6290
  385MOL0     H51950   2.852   7.285   8.294  0.7584  1.7853 -0.7692
  385MOL0     H51951   2.687   7.376   8.526 -0.7899  1.9361 -1.0140
  385MOL0     H51952   2.825   7.475   8.458  1.9327 -0.7541  1.0826
  385MOL0     H51953   2.970   7.278   8.499 -0.3409 -0.0872 -1.0246
  385MOL0     H51954   2.934   7.380   8.632  1.4701 -0.7044  0.5624
  385MOL0     H51955   2.565   7.854   7.817 -1.5643 -1.3259  0.6088
  385MOL0     H51956   2.370   7.970   7.726  1.1494  1.9483 -0.1708
  385MOL0     H51957   1.850   7.717   7.561  0.9137  0.6814  0.1452
  385MOL0     H51958   1.684   7.726   7.429  0.0081 -0.7572  1.2563
  385MOL0     H51959   2.376   6.692   7.658 -1.2287 -1.8788  0.9220
  385MOL0     H51960   2.539   6.511   7.675  0.8802  0.6258  0.6294
  385MOL0     H51961   2.558   6.033   7.820  0.5242 -1.4509 -1.6390
  385MOL0     H51962   2.711   5.844   7.818  1.1360  0.5827 -1.1862
  385MOL0     H51963   3.034   5.784   8.102 -1.3555  1.6440  0.4026
  385MOL0     H51964   3.128   5.893   8.003  1.3293 -1.7292 -0.3824
  385MOL0     H51965   3.242   5.717   7.950  0.5006 -1.6734  1.5042
  385MOL0     H51966   3.121   5.707   7.818  1.3294 -0.2685  1.9574
  385MOL0     H51967   2.983   5.541   7.959  1.2192 -0.7148  0.0041
  385MOL0     H51968   3.105   5.554   8.079 -1.7448  1.8834 -0.2005
  385MOL0     H51969   3.138   5.354   7.924  1.9337 -0.1002  3.2335
  385MOL0     H51970   3.183   5.482   7.796 -0.7016  1.1790 -0.3076
  385MOL0     H51971   3.508   5.386   8.070  1.4002 -1.6754 -3.4982
  385MOL0     H51972   3.014   6.075   8.007  1.5531 -1.5884 -0.3238
  385MOL0     H51973   2.983   6.306   8.053 -0.1259 -2.0372  0.0393
  385MOL0     H51974   2.876   6.389   7.939  4.1648 -0.8140 -0.2042
  385MOL0     H51975   2.836   6.373   8.113  4.4614 -0.2317  2.9433
  386MOL0     O51976  11.181   8.033   8.806  0.4479 -0.1251 -0.1674
  386MOL0     C51977  11.225   8.090   8.908  0.3133 -0.2063 -0.0951
  386MOL0     O51978  11.270   8.226   8.914  0.4898 -0.5207 -0.2197
  386MOL0     C51979  11.276   8.306   8.802 -0.0443  0.1611 -0.3783
  386MOL0     C51980  11.392   8.316   8.721  0.1523 -0.2248  0.6668
  386MOL0     C51981  11.394   8.400   8.613  0.2778 -0.5717  0.2654
  386MOL0     C51982  11.290   8.483   8.582  0.3722  0.6636  0.8184
  386MOL0     O51983  11.312   8.552   8.458 -0.2775 -0.0720  0.4695
  386MOL0     C51984  11.198   8.602   8.392  0.6686 -0.3642  0.8948
  386MOL0     C51985  11.255   8.695   8.279  0.4364  0.1788  0.8706
  386MOL0     C51986  11.298   8.605   8.151  0.3183  0.3805 -0.5037
  386MOL0     C51987  11.229   8.660   8.026 -0.9211  0.1210  0.2819
  386MOL0     C51988  11.206   8.545   7.932  0.3789 -0.0744 -0.1894
  386MOL0     C51989  11.183   8.598   7.792  0.3613 -0.2606  0.7326
  386MOL0     C51990  11.125   8.485   7.699  0.0799 -0.4325 -0.5322
  386MOL0     C51991  11.120   8.547   7.554 -0.2956  0.0625 -0.4944
  386MOL0     N51992  11.108   8.447   7.450  0.3199 -0.3870 -0.3022
  386MOL0     C51993  10.994   8.375   7.441 -0.4882 -0.0041 -0.1307
  386MOL0     C51994  11.018   8.268   7.367 -0.4572  0.5292  1.0812
  386MOL0     C51995  10.906   8.189   7.306  0.1557 -0.2680  0.0162
  386MOL0     C51996  10.816   8.276   7.219 -1.0870 -0.5432  0.4339
  386MOL0     C51997  10.693   8.218   7.158 -0.0805 -0.1257  0.5319
  386MOL0     C51998  10.711   8.087   7.071  0.1380  0.0012 -0.0747
  386MOL0     O51999  10.747   7.973   7.149 -0.0543  0.4851 -0.4709
  386MOL0     C52000  10.754   7.850   7.090  0.9402 -0.1579  0.5564
  386MOL0     C52001  10.866   7.774   7.084  0.4197 -0.4947  0.8982
  386MOL0     C52002  10.863   7.655   7.013 -0.2617 -0.1381  0.1597
  386MOL0     C52003  10.741   7.603   6.956 -0.6988  0.6927  0.2975
  386MOL0     C52004  10.746   7.476   6.890 -0.6981 -0.2862 -0.5857
  386MOL0     O52005  10.868   7.410   6.877  0.4851  1.4004  0.7179
  386MOL0     C52006  10.882   7.303   6.787  0.4475  0.3713  0.0917
  386MOL0     C52007  10.939   7.175   6.830  0.3376 -0.6966 -0.3238
  386MOL0     C52008  10.962   7.069   6.740  0.2412  0.1739 -0.1700
  386MOL0     C52009  10.918   7.081   6.608 -0.4018  0.0606 -0.0443
  386MOL0     O52010  10.937   6.976   6.522  0.8056  0.4033 -0.1510
  386MOL0     C52011  10.933   6.976   6.383 -0.3544 -0.1846  0.6192
  386MOL0     C52012  11.063   7.009   6.305  0.4012 -0.1406  0.1415
  386MOL0     C52013  11.105   7.154   6.295 -0.0836 -0.0559 -0.4117
  386MOL0     C52014  11.213   7.166   6.189  0.3268  0.7342 -0.3190
  386MOL0     C52015  11.218   7.322   6.158 -0.3587 -0.6855  0.3078
  386MOL0     C52016  11.337   7.357   6.063  0.4163 -0.8340  0.7576
  386MOL0     C52017  11.491   7.338   6.095  0.3755  0.3377  0.0228
  386MOL0     C52018  11.566   7.296   5.963  0.2184 -0.3450  0.0325
  386MOL0    Cl52019  11.481   7.140   5.902 -0.0516  0.9224 -0.1352
  386MOL0     C52020  10.862   7.202   6.570  0.6475 -0.5208  0.9307
  386MOL0     C52021  10.856   7.316   6.652 -0.3888 -0.4696  0.5760
  386MOL0     O52022  10.641   7.438   6.840  0.0196 -0.6669  0.4337
  386MOL0     C52023  10.627   7.674   6.978  0.0397 -0.7284  1.3686
  386MOL0     C52024  10.638   7.801   7.031  0.4367  0.5276 -0.5208
  386MOL0     N52025  11.157   8.269   7.346 -0.1034 -0.3737  0.3518
  386MOL0     N52026  11.209   8.373   7.398 -0.3002  0.2029 -0.4460
  386MOL0     C52027  11.180   8.481   8.658 -0.2203  0.0222  0.7210
  386MOL0     C52028  11.167   8.398   8.768 -0.1467  0.5252 -0.5902
  386MOL0     C52029  11.233   8.000   9.032  0.0845 -0.7346 -0.1086
  386MOL0     C52030  11.174   7.863   9.031  0.6960  0.3293  0.9032
  386MOL0     C52031  11.185   7.765   9.132 -0.4795  0.0821  0.9065
  386MOL0     C52032  11.267   7.804   9.243  0.5239  0.2361 -0.3324
  386MOL0     O52033  11.306   7.721   9.341 -0.0394  0.2876 -0.2479
  386MOL0     C52034  11.208   7.629   9.398  0.1231  0.4943 -0.4506
  386MOL0     C52035  11.262   7.536   9.511 -0.0860  0.4249 -0.7692
  386MOL0     C52036  11.268   7.616   9.641 -0.7930  0.3090  0.6761
  386MOL0     C52037  11.312   7.521   9.752 -0.5758 -0.3756  0.4248
  386MOL0     C52038  11.225   7.419   9.804  0.1223 -0.6754 -0.6648
  386MOL0     C52039  11.146   7.340   9.845  0.6937 -0.9599 -0.3206
  386MOL0     C52040  11.324   7.933   9.239 -0.5189 -1.0382 -1.1460
  386MOL0     C52041  11.307   8.032   9.148 -0.7536  1.1074  0.0989
  386MOL0     C52042  11.361   8.174   9.170  0.4191 -0.4075  0.4144
  386MOL0     H52043  11.477   8.250   8.729  1.1837  1.0496  0.6396
  386MOL0     H52044  11.473   8.387   8.539 -0.0018  1.3231 -0.4355
  386MOL0     H52045  11.118   8.534   8.362 -2.0557  1.8915  2.5509
  386MOL0     H52046  11.149   8.670   8.462 -0.5505 -1.3086  0.9811
  386MOL0     H52047  11.345   8.743   8.317  0.8284 -0.2887  0.5550
  386MOL0     H52048  11.187   8.773   8.246 -1.4477 -1.4086  0.7891
  386MOL0     H52049  11.263   8.503   8.169  1.0682 -0.1165 -1.8039
  386MOL0     H52050  11.407   8.608   8.152  0.3062  1.0101 -0.5011
  386MOL0     H52051  11.126   8.692   8.040 -1.7252 -2.3304  0.4816
  386MOL0     H52052  11.298   8.733   7.983 -0.6029  1.3617  2.7322
  386MOL0     H52053  11.290   8.475   7.932  0.3396 -0.1740 -2.0083
  386MOL0     H52054  11.127   8.479   7.969  3.0847 -4.4834 -1.3721
  386MOL0     H52055  11.116   8.685   7.794 -1.1982 -1.4511  2.2504
  386MOL0     H52056  11.280   8.639   7.762  0.5949 -2.7641 -2.4018
  386MOL0     H52057  11.024   8.464   7.735  0.6000  0.2962  1.4754
  386MOL0     H52058  11.181   8.392   7.712  1.3721  0.1659 -1.5340
  386MOL0     H52059  11.031   8.610   7.554 -0.5384 -0.1495  2.6728
  386MOL0     H52060  11.207   8.612   7.540 -1.9534  2.2855 -1.0458
  386MOL0     H52061  10.892   8.396   7.473  0.0883  1.9264  0.5583
  386MOL0     H52062  10.956   8.113   7.246 -1.2146 -2.2382  1.2343
  386MOL0     H52063  10.856   8.141   7.392  1.8648 -1.4449  0.4064
  386MOL0     H52064  10.793   8.375   7.260  2.2246  1.3172 -1.7566
  386MOL0     H52065  10.868   8.311   7.130 -0.7126 -0.7875  0.5581
  386MOL0     H52066  10.644   8.301   7.107 -1.4745  2.6377  5.6205
  386MOL0     H52067  10.625   8.202   7.243 -0.5979  5.3301  1.5081
  386MOL0     H52068  10.784   8.102   6.990 -2.6216  0.5522 -2.6136
  386MOL0     H52069  10.621   8.076   7.010  1.0877  0.7028 -1.6914
  386MOL0     H52070  10.961   7.815   7.118  0.6441 -2.0139  2.2280
  386MOL0     H52071  10.954   7.596   7.006 -0.7218 -1.1310  1.9215
  386MOL0     H52072  10.971   7.153   6.931  2.1872 -1.3071 -1.0076
  386MOL0     H52073  11.015   6.978   6.765  0.6880  0.0337 -1.5627
  386MOL0     H52074  10.906   6.878   6.343  1.2010 -0.2047 -0.4766
  386MOL0     H52075  10.843   7.031   6.353  0.8809  0.1690 -2.7811
  386MOL0     H52076  11.135   6.943   6.355 -1.5488 -2.3335  0.2617
  386MOL0     H52077  11.045   6.980   6.202  0.5182  1.3080 -0.3094
  386MOL0     H52078  11.019   7.211   6.259  0.6676  0.3013 -1.7327
  386MOL0     H52079  11.127   7.182   6.398 -2.8968 -1.9445  0.8120
  386MOL0     H52080  11.200   7.113   6.093  1.9658 -2.1512  0.9154
  386MOL0     H52081  11.311   7.131   6.221 -1.3640 -3.4647  0.9379
  386MOL0     H52082  11.243   7.379   6.248  1.4878 -1.9424  0.6644
  386MOL0     H52083  11.125   7.353   6.109  1.1215  1.1684 -1.5166
  386MOL0     H52084  11.329   7.307   5.966 -0.6696  0.6147  0.0596
  386MOL0     H52085  11.320   7.465   6.060 -0.9941 -1.0056  1.6652
  386MOL0     H52086  11.517   7.281   6.185  2.2725  0.7875 -0.1820
  386MOL0     H52087  11.518   7.441   6.119 -1.0492  0.5375  0.8823
  386MOL0     H52088  11.557   7.377   5.890  1.0673 -1.8443 -1.8228
  386MOL0     H52089  11.673   7.280   5.978 -0.4041 -2.0571  3.5165
  386MOL0     H52090  10.835   7.215   6.466  0.3534 -2.5829  0.7144
  386MOL0     H52091  10.824   7.405   6.599 -0.4364 -1.0358 -0.3583
  386MOL0     H52092  10.536   7.629   6.940  1.7559 -2.7642 -0.6041
  386MOL0     H52093  10.554   7.870   7.025  1.1497  1.4288 -0.2516
  386MOL0     H52094  11.092   8.535   8.625  1.9416  2.2436 -1.9595
  386MOL0     H52095  11.076   8.412   8.826  0.4215 -0.3541  0.5514
  386MOL0     H52096  11.109   7.843   8.946  1.1370 -0.1031  0.6611
  386MOL0     H52097  11.135   7.669   9.129 -0.4168 -0.2547  5.0738
  386MOL0     H52098  11.171   7.561   9.321 -2.0205 -0.1512  1.0534
  386MOL0     H52099  11.121   7.684   9.437  1.0474  1.4607  0.3121
  386MOL0     H52100  11.361   7.496   9.486  0.7269  2.1176 -0.3661
  386MOL0     H52101  11.190   7.455   9.529  1.1317 -0.2370  1.5937
  386MOL0     H52102  11.175   7.670   9.661  0.2567  1.7531  1.8978
  386MOL0     H52103  11.351   7.687   9.636 -1.5630  1.3930  2.2711
  386MOL0     H52104  11.393   7.463   9.708 -1.0828  1.0757 -2.7004
  386MOL0     H52105  11.345   7.577   9.841 -0.0682  0.4166 -0.2425
  386MOL0     H52106  11.063   7.277   9.873 -0.9612  0.1720 -2.4000
  386MOL0     H52107  11.388   7.952   9.325 -2.6160  3.0150 -0.2319
  386MOL0     H52108  11.288   8.252   9.151  3.0673  1.9575 -0.7735
  386MOL0     H52109  11.394   8.185   9.273 -2.3928 -1.6898  1.5461
  386MOL0     H52110  11.445   8.193   9.102 -0.7490  0.1334 -0.9317
  387MOL0     O52111   8.513   3.489   2.617  0.4091 -0.1356  0.3947
  387MOL0     C52112   8.566   3.596   2.619 -0.3548 -0.4029 -0.0439
  387MOL0     O52113   8.622   3.651   2.510  0.4433 -0.7061  0.7773
  387MOL0     C52114   8.585   3.619   2.381  0.5295  0.2220 -0.7321
  387MOL0     C52115   8.625   3.502   2.329 -0.2449 -0.3691  1.1347
  387MOL0     C52116   8.575   3.465   2.204 -0.0140  0.4068  0.0990
  387MOL0     C52117   8.493   3.547   2.132 -0.4119 -0.4268 -0.2341
  387MOL0     O52118   8.422   3.518   2.022 -0.7073  0.4939  0.1638
  387MOL0     C52119   8.491   3.438   1.924 -0.5567  0.6430 -0.6442
  387MOL0     C52120   8.402   3.394   1.809 -0.3510 -0.0417 -0.2040
  387MOL0     C52121   8.373   3.512   1.712  0.5447  0.4973  1.0111
  387MOL0     C52122   8.324   3.461   1.578  0.5545 -1.0661  0.5331
  387MOL0     C52123   8.282   3.582   1.508 -0.6039 -0.9133 -0.8418
  387MOL0     C52124   8.286   3.579   1.356 -1.1119  0.5955 -0.4993
  387MOL0     C52125   8.225   3.458   1.282  0.2679  0.5482 -0.8507
  387MOL0     C52126   8.084   3.421   1.308  0.2376 -0.2011 -0.4958
  387MOL0     N52127   7.993   3.537   1.300  0.6503  0.7644  0.2939
  387MOL0     C52128   7.918   3.586   1.409  0.0836 -0.1434  1.1537
  387MOL0     C52129   7.857   3.696   1.355  0.9497 -0.4452 -0.6319
  387MOL0     C52130   7.796   3.801   1.442  0.7229  0.3369  0.3871
  387MOL0     C52131   7.903   3.857   1.537 -0.8629  0.5144  0.3774
  387MOL0     C52132   7.900   3.783   1.680 -0.2115  1.0158  0.2302
  387MOL0     C52133   8.031   3.765   1.754  0.1242  0.1542  0.3825
  387MOL0     O52134   8.132   3.858   1.698 -0.1328 -0.5869 -0.3952
  387MOL0     C52135   8.237   3.894   1.776 -0.0757  0.1330  0.0492
  387MOL0     C52136   8.356   3.898   1.715 -0.2050 -0.5663 -0.9262
  387MOL0     C52137   8.472   3.930   1.783 -0.5848  0.4326  0.2771
  387MOL0     C52138   8.470   3.970   1.914 -0.5455 -0.2088 -0.4777
  387MOL0     C52139   8.590   4.017   1.983  0.3357  0.3916 -0.7059
  387MOL0     O52140   8.586   4.047   2.119 -0.1722 -0.5227 -0.1678
  387MOL0     C52141   8.693   4.098   2.186  0.3885 -0.1028  0.6027
  387MOL0     C52142   8.789   4.187   2.136 -0.3116  0.1205 -0.4611
  387MOL0     C52143   8.881   4.253   2.229  1.6340 -0.0146  0.4181
  387MOL0     C52144   8.884   4.203   2.365 -0.4971 -0.2418  0.4694
  387MOL0     O52145   8.968   4.246   2.463 -0.0791  0.1896  0.1698
  387MOL0     C52146   9.034   4.371   2.430 -0.9948 -0.2265 -1.0538
  387MOL0     C52147   9.135   4.407   2.548 -0.4003 -0.1480 -0.4854
  387MOL0     C52148   9.220   4.534   2.521  0.0151  0.0366 -0.3381
  387MOL0     C52149   9.327   4.568   2.619 -1.2655 -0.4924  0.3750
  387MOL0     C52150   9.272   4.620   2.754 -0.4274  0.5068  0.7322
  387MOL0     C52151   9.379   4.709   2.820 -0.0831  0.0133 -0.2043
  387MOL0     C52152   9.512   4.628   2.859 -0.0332  0.2462 -0.4343
  387MOL0     C52153   9.596   4.704   2.977 -0.4092  0.8783 -0.3785
  387MOL0    Cl52154   9.614   4.885   2.939 -0.3656  0.6531 -0.4470
  387MOL0     C52155   8.791   4.114   2.416  0.4394 -0.0679  0.1202
  387MOL0     C52156   8.690   4.065   2.324  0.0127 -0.1451 -0.2789
  387MOL0     O52157   8.691   4.032   1.908 -0.2104  0.4479  0.4416
  387MOL0     C52158   8.346   3.965   1.976 -0.7557  0.3933  0.7455
  387MOL0     C52159   8.228   3.921   1.913 -0.0816  0.1231 -0.2467
  387MOL0     N52160   7.884   3.703   1.214 -0.0981  0.8038 -0.1955
  387MOL0     N52161   7.973   3.612   1.181 -0.7629 -0.2720  0.1529
  387MOL0     C52162   8.446   3.664   2.188 -1.3664  0.7251  0.0729
  387MOL0     C52163   8.484   3.695   2.320  0.4563  0.6555  0.3686
  387MOL0     C52164   8.571   3.672   2.747 -0.1004 -0.4749  0.1644
  387MOL0     C52165   8.555   3.591   2.863  0.5877  0.0229  0.1733
  387MOL0     C52166   8.546   3.647   2.988  0.0278 -0.9031 -0.2130
  387MOL0     C52167   8.569   3.783   3.012 -0.0615 -0.2282  0.3891
  387MOL0     O52168   8.585   3.827   3.139 -0.0448  0.0358 -0.3478
  387MOL0     C52169   8.707   3.770   3.203 -0.4715 -0.5671 -0.8206
  387MOL0     C52170   8.762   3.856   3.310  0.4476  1.1895 -0.5771
  387MOL0     C52171   8.820   3.999   3.277  0.6042  0.8420  0.0402
  387MOL0     C52172   8.962   3.987   3.215  0.3814  0.7289  0.1720
  387MOL0     C52173   9.055   4.099   3.233  0.4568 -0.3071  0.8804
  387MOL0     C52174   9.142   4.187   3.232 -0.2898 -0.5057  0.0331
  387MOL0     C52175   8.581   3.866   2.902 -0.0407  0.3433 -0.3993
  387MOL0     C52176   8.572   3.815   2.767 -0.7098  0.3700 -0.5189
  387MOL0     C52177   8.582   3.915   2.653  0.4235  0.4428  1.3400
  387MOL0     H52178   8.700   3.438   2.375 -1.3058 -2.0142  0.6737
  387MOL0     H52179   8.601   3.369   2.160 -2.1869 -0.9122  1.5138
  387MOL0     H52180   8.578   3.500   1.900 -0.0475 -0.8534 -3.0429
  387MOL0     H52181   8.521   3.343   1.970 -2.3556  0.3892  0.1172
  387MOL0     H52182   8.302   3.376   1.849 -1.3434  2.5904 -1.2871
  387MOL0     H52183   8.438   3.303   1.761 -0.2834 -0.3687  0.4590
  387MOL0     H52184   8.458   3.578   1.691  1.2476 -1.1247 -1.8920
  387MOL0     H52185   8.298   3.570   1.767  1.4672  0.1102  2.7463
  387MOL0     H52186   8.401   3.410   1.520  0.9446  0.8716 -0.7501
  387MOL0     H52187   8.241   3.392   1.593 -1.1559  0.8600  0.4122
  387MOL0     H52188   8.182   3.591   1.552  0.3615  2.8715  1.0102
  387MOL0     H52189   8.345   3.670   1.522 -3.0772  0.7364  0.7188
  387MOL0     H52190   8.244   3.671   1.313 -2.0630  0.5890  0.3709
  387MOL0     H52191   8.393   3.575   1.333 -1.1296 -3.3750 -0.5895
  387MOL0     H52192   8.282   3.370   1.315 -0.9074 -1.0852 -2.9321
  387MOL0     H52193   8.247   3.472   1.176  3.6216 -0.3164 -0.3979
  387MOL0     H52194   8.034   3.349   1.243 -3.3196  0.7559  0.9396
  387MOL0     H52195   8.077   3.389   1.412 -2.3540  0.5811 -0.3363
  387MOL0     H52196   7.921   3.546   1.510 -1.7605 -2.4899  0.3792
  387MOL0     H52197   7.760   3.882   1.379  0.5249  0.0423  0.1214
  387MOL0     H52198   7.713   3.770   1.506  1.3262 -3.6987 -0.5091
  387MOL0     H52199   7.999   3.834   1.489 -0.1899  1.3653  1.2648
  387MOL0     H52200   7.894   3.965   1.555 -0.9079  0.4259  0.8832
  387MOL0     H52201   7.853   3.685   1.667  0.9778  0.2856  1.1494
  387MOL0     H52202   7.833   3.846   1.738 -2.2294 -0.6703 -0.1550
  387MOL0     H52203   8.070   3.666   1.727  2.1444  1.0363 -0.1668
  387MOL0     H52204   8.022   3.763   1.863  0.5001  2.6755  0.5134
  387MOL0     H52205   8.352   3.871   1.610 -3.4743 -1.8759 -0.5867
  387MOL0     H52206   8.558   3.930   1.716 -1.5511  0.4167 -1.0025
  387MOL0     H52207   8.784   4.220   2.032  0.2659  0.6905 -0.3115
  387MOL0     H52208   8.944   4.329   2.185 -1.1599  2.3159  0.1813
  387MOL0     H52209   9.104   4.357   2.347  0.0981  2.6934 -0.7424
  387MOL0     H52210   8.975   4.458   2.400 -0.0835  1.2088  1.1085
  387MOL0     H52211   9.089   4.422   2.646  2.1164 -1.7646  1.0879
  387MOL0     H52212   9.195   4.319   2.574  0.0051  1.3454  5.0665
  387MOL0     H52213   9.273   4.516   2.427  3.5590 -0.1698  1.5586
  387MOL0     H52214   9.151   4.618   2.505 -3.1243 -2.6021 -1.9377
  387MOL0     H52215   9.392   4.643   2.573 -1.0274 -0.6100  0.5187
  387MOL0     H52216   9.387   4.483   2.654 -1.4748 -0.7189  0.1938
  387MOL0     H52217   9.237   4.536   2.815 -2.7057 -0.0293 -1.2012
  387MOL0     H52218   9.186   4.683   2.732 -0.5184  1.0241  2.3857
  387MOL0     H52219   9.410   4.789   2.750  1.8921 -2.5136 -2.4642
  387MOL0     H52220   9.328   4.744   2.910 -4.4180 -3.3911 -1.0343
  387MOL0     H52221   9.569   4.618   2.766  0.2974  2.5760 -0.5529
  387MOL0     H52222   9.481   4.531   2.899  0.8227  0.9671  2.2067
  387MOL0     H52223   9.544   4.678   3.069  2.0362 -0.8554  0.5975
  387MOL0     H52224   9.692   4.652   2.977 -1.2130 -0.6536 -0.5832
  387MOL0     H52225   8.792   4.076   2.518 -0.0312  0.3663  0.2884
  387MOL0     H52226   8.619   3.992   2.360 -0.2079  0.7563  1.1752
  387MOL0     H52227   8.349   3.985   2.082  3.9461  0.1486  0.8810
  387MOL0     H52228   8.142   3.936   1.977 -0.0266 -2.0937  0.4309
  387MOL0     H52229   8.387   3.743   2.142  1.0448  2.9409  0.5822
  387MOL0     H52230   8.439   3.774   2.379 -1.7013 -1.9758  2.4744
  387MOL0     H52231   8.544   3.484   2.849 -1.0652 -0.1653  2.4134
  387MOL0     H52232   8.561   3.587   3.077  4.0119 -1.3344 -0.9889
  387MOL0     H52233   8.792   3.758   3.134 -0.1053  0.1427 -0.5049
  387MOL0     H52234   8.692   3.666   3.231 -0.8942 -0.0909  0.8060
  387MOL0     H52235   8.832   3.798   3.371 -0.8512 -1.6066 -1.6097
  387MOL0     H52236   8.673   3.864   3.373 -0.7704  1.8196 -2.3069
  387MOL0     H52237   8.832   4.054   3.371 -0.7579  1.2127  0.0206
  387MOL0     H52238   8.742   4.055   3.224 -1.2781 -0.8355  0.8969
  387MOL0     H52239   9.013   3.907   3.270 -0.9081  0.8069  1.5292
  387MOL0     H52240   8.945   3.952   3.113 -1.5388 -3.8260  1.8011
  387MOL0     H52241   9.207   4.272   3.226  2.2630 -2.4650 -2.3221
  387MOL0     H52242   8.596   3.967   2.938  0.6249 -0.3920  1.5327
  387MOL0     H52243   8.502   3.888   2.583  2.7885 -0.4933 -1.2010
  387MOL0     H52244   8.566   4.015   2.692 -2.3627  1.9229 -2.8761
  387MOL0     H52245   8.675   3.914   2.595 -0.0267  1.4834  0.5649
  388MOL0     O52246   1.581   8.105   0.252 -0.1101  0.0214 -0.7701
  388MOL0     C52247   1.475   8.050   0.294 -0.2543 -0.2892  0.3761
  388MOL0     O52248   1.438   8.043   0.422 -0.3152  0.2010 -0.2431
  388MOL0     C52249   1.533   8.095   0.511  0.3556  0.4100 -1.0216
  388MOL0     C52250   1.669   8.048   0.511  0.3824  0.3478 -0.8785
  388MOL0     C52251   1.763   8.102   0.605  1.0841 -0.1663 -0.1023
  388MOL0     C52252   1.714   8.209   0.683 -0.3261 -0.4160 -0.2060
  388MOL0     O52253   1.798   8.282   0.761  0.4741 -0.1830 -0.3816
  388MOL0     C52254   1.941   8.242   0.773 -0.0129  0.5488  0.1058
  388MOL0     C52255   2.017   8.339   0.848 -0.0348  0.0245 -0.9568
  388MOL0     C52256   2.136   8.289   0.920 -0.4067  1.0728 -0.6484
  388MOL0     C52257   2.213   8.413   0.976  0.4049 -0.4332 -0.0901
  388MOL0     C52258   2.334   8.381   1.064 -0.0139 -0.1272  0.2935
  388MOL0     C52259   2.279   8.343   1.200 -0.9134 -0.9789 -0.0771
  388MOL0     C52260   2.391   8.342   1.308 -0.0214  0.1458  1.6128
  388MOL0     C52261   2.364   8.441   1.411  0.0319  0.5050  0.4642
  388MOL0     N52262   2.479   8.441   1.500  0.6310  0.3133  0.8671
  388MOL0     C52263   2.521   8.332   1.567 -0.2782  0.3903  0.5669
  388MOL0     C52264   2.641   8.367   1.622 -0.7129 -0.4852 -0.6644
  388MOL0     C52265   2.743   8.291   1.704  0.6942  0.0450  0.2861
  388MOL0     C52266   2.763   8.151   1.643  0.0304 -0.3253 -0.3269
  388MOL0     C52267   2.861   8.161   1.525 -0.6821  0.2250  0.0685
  388MOL0     C52268   2.926   8.032   1.494 -0.2657  0.2703 -0.8129
  388MOL0     O52269   2.833   7.937   1.463  1.0731 -0.3330 -0.6318
  388MOL0     C52270   2.903   7.839   1.401  0.3615  0.6101 -0.7574
  388MOL0     C52271   2.870   7.807   1.276  0.3993  0.1032 -0.0444
  388MOL0     C52272   2.930   7.689   1.209  0.4342  0.5807  0.2283
  388MOL0     C52273   3.034   7.618   1.273 -0.4352  0.2492  0.0999
  388MOL0     C52274   3.091   7.500   1.210 -1.3205 -1.0343  0.4018
  388MOL0     O52275   3.007   7.445   1.121 -0.5680  1.7099 -0.0846
  388MOL0     C52276   3.024   7.316   1.072  0.0505  0.2122 -0.3713
  388MOL0     C52277   3.036   7.206   1.156 -0.8305  0.7951  0.4276
  388MOL0     C52278   3.047   7.078   1.098 -0.5604  1.4118 -0.1632
  388MOL0     C52279   3.043   7.055   0.963  0.4108  0.8610  0.2622
  388MOL0     O52280   3.040   6.933   0.906  0.1998  0.1008  0.1877
  388MOL0     C52281   3.166   6.904   0.852  0.9370 -0.4993 -0.7159
  388MOL0     C52282   3.147   6.775   0.774  0.0464  0.1510 -0.7120
  388MOL0     C52283   3.108   6.661   0.870 -0.3036 -0.3464  0.1916
  388MOL0     C52284   3.080   6.531   0.793  0.6746  0.6817  0.3040
  388MOL0     C52285   2.992   6.428   0.869 -0.9804  0.3352  0.2588
  388MOL0     C52286   3.002   6.288   0.808  0.2651 -0.9868  0.3730
  388MOL0     C52287   2.893   6.261   0.697 -1.0067 -0.1895 -0.1339
  388MOL0     C52288   2.850   6.111   0.721 -0.1381 -0.4143  0.2328
  388MOL0    Cl52289   2.987   6.008   0.665 -0.5533  0.0924  0.4736
  388MOL0     C52290   3.034   7.164   0.875 -0.1564  0.7239 -0.0354
  388MOL0     C52291   3.018   7.293   0.934 -0.2500 -1.3170  0.9960
  388MOL0     O52292   3.182   7.446   1.272 -0.0261 -0.5950  0.7049
  388MOL0     C52293   3.071   7.660   1.406  0.4495 -0.6528  0.4220
  388MOL0     C52294   3.000   7.762   1.469  0.2885  0.2982 -0.0932
  388MOL0     N52295   2.667   8.491   1.571  0.5737 -0.4524  0.5693
  388MOL0     N52296   2.568   8.535   1.493  0.0341  0.7740 -0.7741
  388MOL0     C52297   1.579   8.232   0.703 -0.2459 -0.6139  0.2246
  388MOL0     C52298   1.490   8.178   0.611 -0.6611  0.4499 -0.7073
  388MOL0     C52299   1.403   7.969   0.207 -0.9991  0.4942 -0.0393
  388MOL0     C52300   1.482   7.906   0.105  1.0605 -0.7507 -0.5038
  388MOL0     C52301   1.420   7.820   0.017 -0.0597  1.4423 -0.2962
  388MOL0     C52302   1.281   7.810   0.018  0.0880  0.7434 -0.3223
  388MOL0     O52303   1.235   7.754  -0.096 -0.1943 -0.4562  0.7373
  388MOL0     C52304   1.120   7.675  -0.081  0.1226 -0.0855  0.0669
  388MOL0     C52305   1.056   7.683  -0.210  0.1694 -0.2349  0.4903
  388MOL0     C52306   1.120   7.637  -0.344  0.4210 -0.6052  0.3038
  388MOL0     C52307   1.036   7.668  -0.473 -0.4512 -1.0006  0.5506
  388MOL0     C52308   0.909   7.613  -0.459  0.5009  0.5605  0.3556
  388MOL0     C52309   0.794   7.567  -0.454 -0.6404 -0.6761 -0.6077
  388MOL0     C52310   1.203   7.886   0.103  0.2016  0.3473  0.5528
  388MOL0     C52311   1.265   7.960   0.205  0.2029  0.0477  0.4321
  388MOL0     C52312   1.169   8.047   0.293 -0.3436  0.3364 -0.2229
  388MOL0     H52313   1.703   7.965   0.449 -2.6154 -1.7220  0.0291
  388MOL0     H52314   1.862   8.059   0.607  1.0076 -0.5333 -1.9405
  388MOL0     H52315   1.951   8.142   0.814  0.0369 -0.1659 -1.5687
  388MOL0     H52316   1.983   8.241   0.672  1.4157  3.3469  0.5850
  388MOL0     H52317   1.958   8.396   0.920  0.3452 -1.9205  1.0130
  388MOL0     H52318   2.059   8.406   0.772 -2.9341  3.0962 -0.0492
  388MOL0     H52319   2.191   8.222   0.853 -2.8090 -0.3656 -1.2833
  388MOL0     H52320   2.097   8.234   1.006 -0.0685  1.5826 -0.1573
  388MOL0     H52321   2.244   8.471   0.888 -1.2304  1.0770  0.2580
  388MOL0     H52322   2.141   8.478   1.027 -0.7383 -1.5696 -0.1869
  388MOL0     H52323   2.390   8.295   1.024  1.3879  0.8265  0.1133
  388MOL0     H52324   2.411   8.458   1.074  1.6620 -1.3224 -2.2447
  388MOL0     H52325   2.195   8.404   1.233 -1.3003  0.5855 -3.4819
  388MOL0     H52326   2.245   8.239   1.200  2.0010 -2.2146  4.2153
  388MOL0     H52327   2.486   8.364   1.259 -1.8202  0.3961 -2.1443
  388MOL0     H52328   2.405   8.246   1.360 -1.0489 -0.5543  0.6549
  388MOL0     H52329   2.353   8.544   1.375  0.8936  0.5479  0.2898
  388MOL0     H52330   2.278   8.415   1.472  0.6626 -2.3067  0.2974
  388MOL0     H52331   2.460   8.245   1.584  0.6860 -0.6716 -1.1478
  388MOL0     H52332   2.837   8.344   1.722  0.6951  0.0501  0.2679
  388MOL0     H52333   2.698   8.263   1.800 -1.3232  0.0812 -0.5872
  388MOL0     H52334   2.816   8.088   1.714  2.0989  1.0493 -0.5599
  388MOL0     H52335   2.663   8.116   1.615 -0.6495  2.5478 -1.9061
  388MOL0     H52336   2.935   8.241   1.537 -1.4752  1.4104 -2.1597
  388MOL0     H52337   2.808   8.194   1.435  2.5424  2.8782 -1.0840
  388MOL0     H52338   2.995   8.005   1.575  1.2762 -0.9909 -2.4770
  388MOL0     H52339   2.989   8.057   1.409 -0.3156  2.4612 -0.2680
  388MOL0     H52340   2.791   7.862   1.225  0.7639  0.6684 -0.0007
  388MOL0     H52341   2.893   7.654   1.114  0.6452 -0.9128  0.6674
  388MOL0     H52342   3.035   7.196   1.264 -3.7925 -1.1233  0.3301
  388MOL0     H52343   3.050   6.989   1.160 -1.6542  2.2936  1.2461
  388MOL0     H52344   3.202   6.980   0.782  0.8471  0.7262  0.5506
  388MOL0     H52345   3.243   6.896   0.929 -0.6782 -2.6005  0.7915
  388MOL0     H52346   3.072   6.801   0.698  1.2763 -0.1474 -2.0765
  388MOL0     H52347   3.235   6.748   0.715  2.3108  2.0669  1.5809
  388MOL0     H52348   3.182   6.633   0.946 -0.4366 -1.9949 -0.2405
  388MOL0     H52349   3.017   6.682   0.927  0.3260 -3.3356  2.5736
  388MOL0     H52350   3.178   6.489   0.768 -0.4615 -1.7317 -0.3598
  388MOL0     H52351   3.022   6.555   0.704 -0.9853 -0.2981  1.0572
  388MOL0     H52352   2.891   6.467   0.880 -0.9597  0.2108  0.9542
  388MOL0     H52353   3.021   6.418   0.974 -2.0170  1.5647  0.6853
  388MOL0     H52354   3.099   6.262   0.764 -1.0080  0.2982 -3.6146
  388MOL0     H52355   2.988   6.226   0.897 -2.8069 -1.4297 -0.3111
  388MOL0     H52356   2.932   6.282   0.596 -0.1967  0.2913  0.2682
  388MOL0     H52357   2.814   6.335   0.714  1.3293  1.8256  3.1506
  388MOL0     H52358   2.831   6.096   0.828 -0.9669 -2.5772 -0.1730
  388MOL0     H52359   2.767   6.086   0.654  0.3872  1.1078 -1.0674
  388MOL0     H52360   3.055   7.145   0.770  5.8158 -0.3883  0.9949
  388MOL0     H52361   3.033   7.375   0.864  1.0577 -3.3075 -1.2128
  388MOL0     H52362   3.148   7.611   1.465  3.2775  2.2137 -0.5848
  388MOL0     H52363   3.022   7.774   1.575 -0.6243 -2.2935  0.4377
  388MOL0     H52364   1.535   8.308   0.767  2.2958  0.3907  0.8837
  388MOL0     H52365   1.384   8.202   0.610 -0.8168 -0.2295 -1.1627
  388MOL0     H52366   1.591   7.913   0.112  1.0513 -1.9286  1.6051
  388MOL0     H52367   1.468   7.773  -0.068 -2.3476 -2.1646  0.2010
  388MOL0     H52368   1.053   7.711  -0.002 -0.0821  0.2744 -0.2711
  388MOL0     H52369   1.147   7.571  -0.060  0.6802 -0.0986 -0.6922
  388MOL0     H52370   1.023   7.783  -0.239  2.9278  0.6551  0.0781
  388MOL0     H52371   0.964   7.625  -0.198 -1.7665  2.0081 -2.2415
  388MOL0     H52372   1.135   7.529  -0.335  3.3360 -0.4545 -1.3258
  388MOL0     H52373   1.219   7.677  -0.370 -0.0446 -1.4025 -3.2397
  388MOL0     H52374   1.021   7.775  -0.485  1.5333 -0.5712  1.4146
  388MOL0     H52375   1.081   7.631  -0.566  0.3429  1.2180  0.0037
  388MOL0     H52376   0.694   7.529  -0.456 -1.3658  1.2092 -2.3572
  388MOL0     H52377   1.094   7.879   0.101  0.0806  2.0482 -0.3355
  388MOL0     H52378   1.142   7.996   0.387  0.6790  1.2995  0.6233
  388MOL0     H52379   1.219   8.141   0.319 -0.9024  0.4523  0.4815
  388MOL0     H52380   1.091   8.086   0.228  0.6810  0.4302 -1.4446
  389MOL0     O52381   8.657   0.881   7.276 -0.7344 -0.1921 -0.3152
  389MOL0     C52382   8.589   0.984   7.276 -0.3851 -0.1254 -0.1056
  389MOL0     O52383   8.532   1.041   7.167  0.1118  0.0444 -0.4612
  389MOL0     C52384   8.613   1.027   7.057  1.7154 -0.3762 -0.5443
  389MOL0     C52385   8.582   0.944   6.944  0.4070  0.4348 -0.4249
  389MOL0     C52386   8.673   0.938   6.844 -0.3902  0.2508 -0.3539
  389MOL0     C52387   8.799   1.000   6.844  0.0988  0.0490  0.2796
  389MOL0     O52388   8.882   0.974   6.740 -0.2732  0.0529  0.1256
  389MOL0     C52389   9.006   1.043   6.723 -0.8622  1.3511 -0.1704
  389MOL0     C52390   8.994   1.187   6.656 -0.0071  0.5472 -0.4069
  389MOL0     C52391   9.098   1.280   6.714  0.4727  0.0079 -0.7616
  389MOL0     C52392   9.134   1.391   6.622  0.2283 -0.5573 -0.4142
  389MOL0     C52393   9.262   1.463   6.679  0.3755 -0.2883  0.0150
  389MOL0     C52394   9.300   1.599   6.620  0.3607 -0.2287 -0.8346
  389MOL0     C52395   9.346   1.561   6.478  0.4989 -0.6778  0.1798
  389MOL0     C52396   9.308   1.659   6.369 -0.1507  0.5807  0.4836
  389MOL0     N52397   9.416   1.756   6.354 -0.4868  0.9714  0.5183
  389MOL0     C52398   9.428   1.866   6.430 -0.4785 -0.1672 -0.5680
  389MOL0     C52399   9.543   1.928   6.392 -0.5480 -0.4738  0.7868
  389MOL0     C52400   9.595   2.071   6.414  0.6414 -0.4832 -0.4042
  389MOL0     C52401   9.673   2.137   6.299  0.2660 -0.6467 -0.5595
  389MOL0     C52402   9.589   2.204   6.195 -0.3613 -0.7661  0.0966
  389MOL0     C52403   9.662   2.222   6.062  0.3265 -0.1214  0.2811
  389MOL0     O52404   9.756   2.328   6.088 -0.8169 -0.1164  0.6673
  389MOL0     C52405   9.866   2.324   6.005  0.6006  0.3896 -0.1664
  389MOL0     C52406   9.983   2.367   6.059 -0.5121  0.5964  0.3502
  389MOL0     C52407  10.094   2.382   5.983 -0.4732  0.1235  0.5248
  389MOL0     C52408  10.092   2.356   5.842  0.3754 -0.6612 -0.0899
  389MOL0     C52409  10.223   2.374   5.766 -0.2412  0.5866 -0.3165
  389MOL0     O52410  10.328   2.422   5.832  0.6460  0.4210  0.2311
  389MOL0     C52411  10.446   2.450   5.767  0.2459  0.1506  0.4102
  389MOL0     C52412  10.518   2.356   5.685  0.2707 -0.5969 -0.3618
  389MOL0     C52413  10.640   2.384   5.631  0.0224  0.0202  0.8055
  389MOL0     C52414  10.703   2.504   5.660  0.0698  0.1564  0.2696
  389MOL0     O52415  10.832   2.504   5.607  0.6189  0.1048  0.1262
  389MOL0     C52416  10.934   2.572   5.668  0.8536 -0.2260 -0.2062
  389MOL0     C52417  11.044   2.470   5.705  0.1340 -0.5377 -0.2834
  389MOL0     C52418  10.999   2.354   5.795  0.9996 -0.5811  0.1187
  389MOL0     C52419  11.119   2.259   5.818  1.1159  0.1424 -0.3409
  389MOL0     C52420  11.157   2.267   5.965 -0.1949  0.8807 -0.6092
  389MOL0     C52421  11.047   2.203   6.044 -0.0307  0.2014  0.0278
  389MOL0     C52422  11.089   2.181   6.192  0.5657 -0.0797  0.4857
  389MOL0     C52423  10.981   2.136   6.284 -0.5166 -0.3369 -1.3489
  389MOL0    Cl52424  10.868   2.267   6.321  0.3022 -0.1181  0.2688
  389MOL0     C52425  10.638   2.604   5.730  0.9092 -0.1623  0.4861
  389MOL0     C52426  10.511   2.573   5.783  0.8211 -0.2053  0.0729
  389MOL0     O52427  10.224   2.334   5.649  0.1952 -0.4227  0.4039
  389MOL0     C52428   9.971   2.315   5.782 -0.2504 -0.0209 -0.5337
  389MOL0     C52429   9.860   2.300   5.866 -0.1517 -0.9666 -0.2554
  389MOL0     N52430   9.599   1.854   6.289  0.1368 -0.8305 -0.2829
  389MOL0     N52431   9.520   1.754   6.263  0.5469 -0.7850 -0.3843
  389MOL0     C52432   8.829   1.090   6.945 -0.2639 -0.3389 -0.3347
  389MOL0     C52433   8.735   1.105   7.057 -0.3711 -0.0111 -0.2029
  389MOL0     C52434   8.548   1.042   7.407 -0.3115  0.1051  0.2834
  389MOL0     C52435   8.649   1.088   7.495  0.3644  0.7992  0.0880
  389MOL0     C52436   8.623   1.134   7.619  0.3843  0.2680  0.6171
  389MOL0     C52437   8.490   1.143   7.663  0.3128 -0.1806 -0.2179
  389MOL0     O52438   8.464   1.193   7.788 -0.1697  0.6496  0.6409
  389MOL0     C52439   8.330   1.182   7.847 -0.3035  0.1666  0.5368
  389MOL0     C52440   8.344   1.231   7.986 -0.0632  0.8912  0.0951
  389MOL0     C52441   8.219   1.178   8.067 -0.5251  0.0918 -0.4298
  389MOL0     C52442   8.220   1.256   8.204 -0.6146 -0.4647  0.4544
  389MOL0     C52443   8.320   1.203   8.301 -0.2851  0.4087  0.2564
  389MOL0     C52444   8.395   1.149   8.382 -0.5198 -0.1225  0.4388
  389MOL0     C52445   8.392   1.096   7.585  0.1174 -0.0600  0.6176
  389MOL0     C52446   8.421   1.050   7.454 -0.0573  0.3002 -0.5701
  389MOL0     C52447   8.307   1.000   7.372  0.2526  0.3368 -0.5542
  389MOL0     H52448   8.477   0.916   6.937  0.3051  1.2218 -2.8589
  389MOL0     H52449   8.646   0.876   6.759  2.2482 -1.3604 -0.1363
  389MOL0     H52450   9.060   1.050   6.818  1.3030  2.6662 -1.4070
  389MOL0     H52451   9.072   0.985   6.658 -1.4491  0.6126 -0.1124
  389MOL0     H52452   8.890   1.220   6.668 -0.4897 -0.7892 -0.7212
  389MOL0     H52453   9.009   1.176   6.548 -0.3680  0.7933 -0.4828
  389MOL0     H52454   9.189   1.226   6.742  1.6180  2.3760  0.3474
  389MOL0     H52455   9.059   1.331   6.802  0.5189  1.6942 -1.6744
  389MOL0     H52456   9.167   1.345   6.529  3.5189  2.2516 -0.8233
  389MOL0     H52457   9.050   1.459   6.602  2.2267  2.3350  0.3374
  389MOL0     H52458   9.237   1.474   6.785 -1.2590 -5.0956  0.3718
  389MOL0     H52459   9.348   1.397   6.673 -1.5129 -2.8568 -0.6368
  389MOL0     H52460   9.213   1.665   6.624 -0.0435 -0.7739 -0.4715
  389MOL0     H52461   9.375   1.647   6.684 -1.3203  2.0729 -0.4977
  389MOL0     H52462   9.299   1.472   6.437  0.1591  1.2485 -4.1342
  389MOL0     H52463   9.455   1.558   6.466  0.3077 -3.2083 -1.7483
  389MOL0     H52464   9.291   1.609   6.274 -0.0336  1.5832 -0.0821
  389MOL0     H52465   9.221   1.720   6.393 -0.1795 -0.1631  2.5539
  389MOL0     H52466   9.349   1.902   6.495 -0.9087 -2.6782  0.4407
  389MOL0     H52467   9.515   2.130   6.460  0.4688  0.0087 -1.3116
  389MOL0     H52468   9.673   2.066   6.491  1.0948  0.0999 -0.8162
  389MOL0     H52469   9.735   2.216   6.344 -1.3418 -0.0652  0.7250
  389MOL0     H52470   9.744   2.068   6.253 -0.4430 -1.7535 -0.0464
  389MOL0     H52471   9.559   2.306   6.223  3.7657  1.2454 -1.8204
  389MOL0     H52472   9.494   2.151   6.187  0.3518 -2.0225 -0.4679
  389MOL0     H52473   9.590   2.258   5.988  0.9635  1.0015  0.1750
  389MOL0     H52474   9.710   2.131   6.025  0.6413 -0.6273  1.8877
  389MOL0     H52475   9.996   2.396   6.163 -1.1901 -0.2192  0.6760
  389MOL0     H52476  10.191   2.392   6.032 -0.4606  2.0423  0.1949
  389MOL0     H52477  10.464   2.262   5.676 -0.9205  0.2366 -3.3370
  389MOL0     H52478  10.678   2.310   5.561 -1.4242 -0.7504  0.8141
  389MOL0     H52479  10.978   2.643   5.597  1.6766  0.7914  1.2717
  389MOL0     H52480  10.909   2.628   5.758  3.1533  1.3119 -0.4333
  389MOL0     H52481  11.079   2.426   5.611 -1.9482 -4.0095  0.3722
  389MOL0     H52482  11.124   2.522   5.758  0.3081 -1.5875  0.5247
  389MOL0     H52483  10.953   2.389   5.887  0.0361 -0.5011 -0.3834
  389MOL0     H52484  10.915   2.304   5.746  0.3532  0.0536  0.5565
  389MOL0     H52485  11.203   2.286   5.754  2.2097 -0.4206  0.8011
  389MOL0     H52486  11.082   2.157   5.806  0.5539  0.1843  0.9047
  389MOL0     H52487  11.180   2.365   6.007 -1.3574  0.3403  1.4505
  389MOL0     H52488  11.246   2.205   5.978  0.4315  1.6379 -1.1585
  389MOL0     H52489  10.961   2.270   6.049  2.3648  3.6169 -0.7836
  389MOL0     H52490  11.014   2.111   5.993 -0.8392  0.0516  0.8006
  389MOL0     H52491  11.128   2.270   6.243 -0.6738 -0.4093  2.0739
  389MOL0     H52492  11.165   2.103   6.201 -2.3632 -2.9073  2.8106
  389MOL0     H52493  10.935   2.047   6.239 -1.5758 -0.8382  0.6261
  389MOL0     H52494  11.027   2.102   6.377 -3.5818 -1.3013 -0.0634
  389MOL0     H52495  10.678   2.701   5.760 -1.1803  0.4125  1.6068
  389MOL0     H52496  10.450   2.650   5.830 -0.6753  0.2561 -2.4573
  389MOL0     H52497   9.992   2.272   5.684  0.2495 -2.4350  0.5491
  389MOL0     H52498   9.771   2.263   5.816 -0.5750  0.3415 -0.5194
  389MOL0     H52499   8.928   1.135   6.954  0.0557 -1.4097  4.4618
  389MOL0     H52500   8.753   1.169   7.142 -2.6670 -0.5471  0.7686
  389MOL0     H52501   8.754   1.090   7.468  0.7037 -1.3334  0.9953
  389MOL0     H52502   8.702   1.180   7.677  0.5791 -0.7464  1.1912
  389MOL0     H52503   8.294   1.079   7.833  1.2474 -0.4471  0.8778
  389MOL0     H52504   8.268   1.255   7.795 -2.4528 -1.3206  0.8752
  389MOL0     H52505   8.335   1.340   7.984  0.1156  0.9039 -0.0292
  389MOL0     H52506   8.441   1.208   8.032 -1.3212  0.5350  2.7834
  389MOL0     H52507   8.237   1.072   8.085  2.4753  0.4081 -0.9960
  389MOL0     H52508   8.124   1.191   8.014 -2.0272 -3.2124  1.1480
  389MOL0     H52509   8.233   1.364   8.191 -1.4602 -0.4275 -0.1489
  389MOL0     H52510   8.117   1.256   8.242 -0.5916  0.0657  0.5255
  389MOL0     H52511   8.448   1.095   8.457 -2.6481 -1.4543  1.0574
  389MOL0     H52512   8.292   1.111   7.623 -0.0653  1.5283 -0.3727
  389MOL0     H52513   8.241   1.084   7.348 -0.0414  0.1905 -0.2594
  389MOL0     H52514   8.339   0.939   7.288  0.0634 -0.2117 -0.2301
  389MOL0     H52515   8.258   0.922   7.431  0.3796  0.4507 -0.2917
  390MOL0     O52516   7.546   9.676   5.109 -0.8378 -0.6634 -0.2655
  390MOL0     C52517   7.617   9.602   5.036  0.2724 -0.0803 -0.6300
  390MOL0     O52518   7.580   9.474   5.009  0.4963  0.4272  0.6432
  390MOL0     C52519   7.467   9.424   5.067  0.1205  0.4177  0.4113
  390MOL0     C52520   7.471   9.300   5.125  0.0041  0.4153  0.3954
  390MOL0     C52521   7.351   9.239   5.166  0.4922  0.3618  0.3714
  390MOL0     C52522   7.227   9.309   5.160 -0.8424 -0.0429 -1.1165
  390MOL0     O52523   7.108   9.282   5.223 -0.3149 -0.2021 -0.2878
  390MOL0     C52524   7.092   9.153   5.286  0.9087  0.1094  0.7455
  390MOL0     C52525   6.957   9.158   5.352  0.2114  0.0629  0.6670
  390MOL0     C52526   6.943   9.035   5.445 -0.0061  0.2555  0.0438
  390MOL0     C52527   6.834   9.059   5.547 -0.1690  0.2786  0.5218
  390MOL0     C52528   6.837   8.953   5.652  0.9328  0.2464 -0.5845
  390MOL0     C52529   6.739   8.989   5.765  0.5019  0.0798 -1.6014
  390MOL0     C52530   6.596   9.023   5.730 -1.3569  0.5386 -0.3854
  390MOL0     C52531   6.488   9.005   5.840  0.2282 -0.2080  0.0767
  390MOL0     N52532   6.518   9.067   5.963  1.1266  0.3595  0.5045
  390MOL0     C52533   6.491   9.198   5.999  0.0102 -0.4955  0.2832
  390MOL0     C52534   6.543   9.214   6.128  0.2457  0.0142  0.1776
  390MOL0     C52535   6.558   9.330   6.216  0.6170 -0.1545  0.3500
  390MOL0     C52536   6.511   9.297   6.364  0.3461  0.3461  0.5760
  390MOL0     C52537   6.521   9.424   6.452  0.3685  0.6015 -0.3143
  390MOL0     C52538   6.634   9.516   6.434  0.4465  0.0539  0.2964
  390MOL0     O52539   6.634   9.605   6.552  0.4281  0.1169  0.5487
  390MOL0     C52540   6.733   9.702   6.557  0.2517 -0.3312  0.4021
  390MOL0     C52541   6.712   9.807   6.640  0.0685  0.5488  0.5406
  390MOL0     C52542   6.802   9.909   6.667 -0.4582  0.4078  1.4620
  390MOL0     C52543   6.933   9.900   6.611  0.4808  0.1785  0.4266
  390MOL0     C52544   7.046   9.991   6.637 -0.4536 -0.5121 -1.2944
  390MOL0     O52545   7.012  10.099   6.715 -0.6006  0.2492 -0.3464
  390MOL0     C52546   7.108  10.190   6.769 -0.5817  0.6848 -0.5636
  390MOL0     C52547   7.195  10.262   6.690  0.6209 -0.3507 -0.7119
  390MOL0     C52548   7.285  10.353   6.734  0.2914  0.6631 -0.8793
  390MOL0     C52549   7.295  10.379   6.877 -0.8402 -0.4735 -0.2979
  390MOL0     O52550   7.397  10.467   6.908  0.8732  0.3841 -0.0755
  390MOL0     C52551   7.433  10.473   7.055 -0.4993  0.6702 -0.1398
  390MOL0     C52552   7.573  10.548   7.066  0.5282 -0.0873  0.4989
  390MOL0     C52553   7.680  10.502   6.964 -0.1691  0.1802 -0.1445
  390MOL0     C52554   7.812  10.573   6.999 -0.2947 -0.3622 -0.2434
  390MOL0     C52555   7.923  10.513   6.914  1.0415 -0.0561  0.3825
  390MOL0     C52556   8.059  10.572   6.947 -0.5797  0.7803  0.1645
  390MOL0     C52557   8.174  10.508   6.867 -0.1815  0.1230 -0.0557
  390MOL0     C52558   8.294  10.510   6.954  0.9704  0.0514 -0.3377
  390MOL0    Cl52559   8.443  10.499   6.849  0.4337 -0.1490  0.1196
  390MOL0     C52560   7.207  10.311   6.968  0.3573  0.7170  0.4024
  390MOL0     C52561   7.115  10.218   6.916  0.5485  0.2472  0.9776
  390MOL0     O52562   7.156   9.985   6.584  0.4226  0.1844 -0.4669
  390MOL0     C52563   6.965   9.786   6.535 -0.5213 -0.2411  0.1293
  390MOL0     C52564   6.868   9.692   6.506 -0.1314 -0.7243  0.4977
  390MOL0     N52565   6.595   9.087   6.165 -0.5470  0.7410 -0.0603
  390MOL0     N52566   6.577   9.005   6.065 -0.4624 -0.7261 -0.4116
  390MOL0     C52567   7.231   9.433   5.097 -0.1338  0.6727  1.2158
  390MOL0     C52568   7.347   9.485   5.044 -1.0535  0.2053 -0.8159
  390MOL0     C52569   7.743   9.657   4.981  0.3569  0.1771  0.1673
  390MOL0     C52570   7.798   9.601   4.863  0.4034  0.7344  0.4114
  390MOL0     C52571   7.918   9.655   4.819 -0.4698  0.2244 -0.0630
  390MOL0     C52572   7.992   9.749   4.884 -0.2120 -0.4208 -0.8953
  390MOL0     O52573   8.106   9.825   4.854 -0.4115  0.4847 -0.3735
  390MOL0     C52574   8.219   9.755   4.907  1.1377  0.1552 -0.1045
  390MOL0     C52575   8.342   9.850   4.903  0.6596 -0.0762 -0.7046
  390MOL0     C52576   8.344   9.951   5.025 -0.2574  0.0159  0.4896
  390MOL0     C52577   8.468  10.037   5.040 -0.2776 -1.2693  0.1311
  390MOL0     C52578   8.464  10.130   4.919 -0.0055  0.2820 -1.1838
  390MOL0     C52579   8.471  10.214   4.830 -0.0300 -0.5514  0.2786
  390MOL0     C52580   7.945   9.802   5.007  0.4696 -0.1494  0.8363
  390MOL0     C52581   7.824   9.761   5.053  0.6554  0.1743  0.5470
  390MOL0     C52582   7.788   9.830   5.183  0.1705 -0.5800 -0.0696
  390MOL0     H52583   7.563   9.242   5.123 -0.2997 -0.1692  2.0548
  390MOL0     H52584   7.355   9.145   5.221 -0.2255 -0.7722 -1.4611
  390MOL0     H52585   7.094   9.085   5.200  1.3494  0.9762  0.0505
  390MOL0     H52586   7.165   9.123   5.361  0.8580  1.1322  1.2227
  390MOL0     H52587   6.881   9.152   5.273 -0.4468 -1.4532  1.3856
  390MOL0     H52588   6.958   9.248   5.414  0.5441  0.7899 -0.3625
  390MOL0     H52589   7.035   9.015   5.500  0.2377  0.3516 -0.3273
  390MOL0     H52590   6.914   8.948   5.385 -1.2115  1.0849 -0.6041
  390MOL0     H52591   6.847   9.150   5.606  1.8038 -0.6329  1.6409
  390MOL0     H52592   6.742   9.058   5.489  1.2274 -0.0881 -1.7819
  390MOL0     H52593   6.816   8.856   5.605  0.4381  0.6372 -1.1851
  390MOL0     H52594   6.941   8.938   5.680  1.5105 -0.2233 -2.8048
  390MOL0     H52595   6.741   8.906   5.837  0.1738  0.5035 -1.0917
  390MOL0     H52596   6.785   9.076   5.813  0.1112 -0.7194  0.3444
  390MOL0     H52597   6.567   8.959   5.647 -1.8175  0.1173  0.0904
  390MOL0     H52598   6.588   9.125   5.690 -5.6222  0.6771  0.3288
  390MOL0     H52599   6.387   9.039   5.816 -0.1082  1.1615  3.0432
  390MOL0     H52600   6.491   8.896   5.855  1.5226 -0.0923  0.7814
  390MOL0     H52601   6.450   9.278   5.939  0.3362  0.1917  0.9517
  390MOL0     H52602   6.663   9.363   6.213  0.5677 -0.0303 -0.1474
  390MOL0     H52603   6.503   9.412   6.171  0.2597  1.4929  3.5155
  390MOL0     H52604   6.409   9.259   6.364  0.3153  0.4256  0.1999
  390MOL0     H52605   6.576   9.221   6.408 -1.5506 -1.0895  0.9912
  390MOL0     H52606   6.525   9.383   6.554  1.4440  0.4615 -0.4016
  390MOL0     H52607   6.433   9.488   6.437  0.5221  0.7247 -0.6780
  390MOL0     H52608   6.620   9.568   6.339  0.0456 -1.4472 -0.4909
  390MOL0     H52609   6.730   9.465   6.420  0.3550  0.1594 -0.7916
  390MOL0     H52610   6.617   9.815   6.692 -0.2214 -3.5966  0.9748
  390MOL0     H52611   6.775   9.996   6.725  0.2612  2.3305 -0.9085
  390MOL0     H52612   7.194  10.240   6.584  0.9416 -0.0500 -0.7790
  390MOL0     H52613   7.352  10.413   6.673  2.7463  2.1864  2.9325
  390MOL0     H52614   7.363  10.533   7.112 -1.1999 -1.3061  1.1774
  390MOL0     H52615   7.437  10.371   7.094  2.0147  0.8566  0.2990
  390MOL0     H52616   7.559  10.655   7.054 -2.4462 -0.4467 -0.0029
  390MOL0     H52617   7.627  10.534   7.160  1.8355  0.7859 -0.0875
  390MOL0     H52618   7.697  10.394   6.970 -1.2137 -0.0713 -1.2919
  390MOL0     H52619   7.665  10.529   6.859 -0.1088 -0.1943 -0.2533
  390MOL0     H52620   7.827  10.554   7.106 -1.2893  0.8766  0.1484
  390MOL0     H52621   7.808  10.681   6.984  0.9421 -0.4673 -1.4954
  390MOL0     H52622   7.903  10.528   6.807  0.9684 -0.2763  0.3650
  390MOL0     H52623   7.910  10.409   6.945 -1.1952  0.1823  0.3845
  390MOL0     H52624   8.063  10.680   6.936  1.8764  0.6929 -0.3585
  390MOL0     H52625   8.083  10.551   7.052 -0.2332  2.9122  0.5593
  390MOL0     H52626   8.180  10.555   6.768 -3.1094  0.1521 -0.3336
  390MOL0     H52627   8.148  10.403   6.848 -0.2278 -0.0690  1.0136
  390MOL0     H52628   8.292  10.595   7.023 -0.1619 -1.8753  2.1658
  390MOL0     H52629   8.296  10.423   7.020 -2.4185  2.0258  2.7352
  390MOL0     H52630   7.211  10.319   7.076 -1.6399 -0.6601  0.6314
  390MOL0     H52631   7.052  10.161   6.984  0.1238  0.5094  0.8032
  390MOL0     H52632   7.065   9.783   6.494  0.6686  1.3132  2.6967
  390MOL0     H52633   6.901   9.605   6.449  1.1109 -1.3250  2.0541
  390MOL0     H52634   7.141   9.493   5.086  0.3942  1.2868  0.0514
  390MOL0     H52635   7.335   9.586   5.007 -1.6631 -0.7409 -3.3952
  390MOL0     H52636   7.745   9.533   4.797  3.1901 -1.2040 -0.0001
  390MOL0     H52637   7.958   9.618   4.724 -1.7105  0.7230 -0.8034
  390MOL0     H52638   8.251   9.675   4.839  1.7354 -0.3668  0.7625
  390MOL0     H52639   8.194   9.712   5.004 -1.4655  0.1551 -0.7121
  390MOL0     H52640   8.344   9.911   4.812  2.8145 -1.0998 -1.4058
  390MOL0     H52641   8.431   9.786   4.902  1.6097  1.2116 -0.8981
  390MOL0     H52642   8.336   9.883   5.110  0.6164 -4.0910 -2.4263
  390MOL0     H52643   8.253  10.010   5.038 -3.0187 -4.1545  2.4190
  390MOL0     H52644   8.467  10.097   5.132 -2.4704 -1.0679  0.0296
  390MOL0     H52645   8.566   9.990   5.034  0.6261  0.6594 -1.5328
  390MOL0     H52646   8.477  10.294   4.759 -0.0731 -1.1847 -0.4436
  390MOL0     H52647   8.000   9.891   5.036  2.0289  0.1471 -2.5231
  390MOL0     H52648   7.741   9.924   5.154 -2.1059 -0.4976  3.2759
  390MOL0     H52649   7.711   9.782   5.245 -0.4215  1.1525  0.6011
  390MOL0     H52650   7.880   9.847   5.241  0.1605 -1.7265  0.3196
  391MOL0     O52651   5.567  10.241   7.814 -0.1033  0.3078  0.5785
  391MOL0     C52652   5.639  10.149   7.837 -0.1608  0.3661  0.3062
  391MOL0     O52653   5.772  10.151   7.820 -0.0258 -0.0577  0.0290
  391MOL0     C52654   5.820  10.285   7.812  0.1799 -0.1096 -0.3928
  391MOL0     C52655   5.851  10.366   7.924  0.2184  0.0621  0.0180
  391MOL0     C52656   5.898  10.498   7.909  0.7513  0.4184  0.9244
  391MOL0     C52657   5.929  10.555   7.784  0.0831  0.0831 -0.6725
  391MOL0     O52658   5.980  10.686   7.780 -0.2446  0.0508 -0.6346
  391MOL0     C52659   6.006  10.728   7.649 -0.5542 -0.4916 -0.3223
  391MOL0     C52660   6.039  10.875   7.659 -0.2637  0.2207  0.3674
  391MOL0     C52661   6.076  10.925   7.519 -0.3206  0.6330  0.3653
  391MOL0     C52662   6.147  11.057   7.539 -0.7814  0.0844  0.6184
  391MOL0     C52663   6.189  11.119   7.405 -1.0213 -0.2855 -0.2429
  391MOL0     C52664   6.278  11.029   7.313 -0.4231 -0.7728 -0.5543
  391MOL0     C52665   6.399  10.963   7.384 -0.5534 -0.2118  1.0718
  391MOL0     C52666   6.453  10.844   7.308 -0.4411 -0.5995 -0.2038
  391MOL0     N52667   6.364  10.724   7.326 -0.3653 -0.9632 -1.2259
  391MOL0     C52668   6.257  10.704   7.246 -0.3424  0.1183 -0.2516
  391MOL0     C52669   6.176  10.616   7.319 -0.4183  0.2327 -0.1274
  391MOL0     C52670   6.049  10.538   7.271 -0.1170 -0.3348 -0.6269
  391MOL0     C52671   6.070  10.390   7.236 -0.2931 -0.0926  0.7117
  391MOL0     C52672   6.126  10.300   7.347 -0.5252 -1.1731 -0.3194
  391MOL0     C52673   6.146  10.151   7.318  0.4688 -0.1756 -0.2090
  391MOL0     O52674   6.181  10.126   7.182 -0.0652  0.4767 -0.0806
  391MOL0     C52675   6.191   9.995   7.145  0.3793 -0.1477 -0.0155
  391MOL0     C52676   6.179   9.885   7.236  0.2017 -0.4125  0.8277
  391MOL0     C52677   6.188   9.748   7.188 -0.8171 -0.0293 -1.3075
  391MOL0     C52678   6.205   9.731   7.047 -0.4001 -0.4457  0.1982
  391MOL0     C52679   6.210   9.599   6.995  1.0085  0.2629 -0.3984
  391MOL0     O52680   6.189   9.489   7.080 -0.2064  0.0170  0.0042
  391MOL0     C52681   6.221   9.365   7.040 -0.3178  0.2606  0.4670
  391MOL0     C52682   6.287   9.288   7.136  0.1388  0.4271  0.0414
  391MOL0     C52683   6.323   9.158   7.097 -0.7224  0.6718  0.4413
  391MOL0     C52684   6.283   9.111   6.971  0.8550  0.4683  0.4330
  391MOL0     O52685   6.333   8.988   6.933 -0.3498  0.0288 -0.6031
  391MOL0     C52686   6.241   8.882   6.919 -0.6229  0.6169  0.0357
  391MOL0     C52687   6.305   8.744   6.891 -0.2326 -1.0401  0.0730
  391MOL0     C52688   6.398   8.705   7.013  0.1340  0.1205  0.6370
  391MOL0     C52689   6.393   8.559   7.053  0.8291  0.2250  1.0692
  391MOL0     C52690   6.259   8.532   7.136 -0.2280 -0.1173  0.9244
  391MOL0     C52691   6.249   8.380   7.169  0.6346  0.3820 -0.6515
  391MOL0     C52692   6.335   8.311   7.284 -0.3739  0.8168  0.6132
  391MOL0     C52693   6.329   8.367   7.419 -0.0999  0.4466 -0.0989
  391MOL0    Cl52694   6.159   8.399   7.463 -0.1302  0.1007 -0.1523
  391MOL0     C52695   6.206   9.182   6.881 -0.1736 -0.2960  0.1399
  391MOL0     C52696   6.163   9.309   6.920  0.1970  0.4379  1.3033
  391MOL0     O52697   6.249   9.591   6.875 -0.2360 -0.3263  0.2139
  391MOL0     C52698   6.220   9.841   6.962 -0.2936 -0.3478  0.3113
  391MOL0     C52699   6.215   9.972   7.012 -0.1579  0.5402  1.1610
  391MOL0     N52700   6.250  10.582   7.429  1.0816 -0.1525 -0.1996
  391MOL0     N52701   6.355  10.653   7.442  0.4563  0.8601  0.3324
  391MOL0     C52702   5.909  10.468   7.670  1.0362  0.1628  1.0994
  391MOL0     C52703   5.855  10.337   7.691 -0.9590 -0.7417 -0.8282
  391MOL0     C52704   5.580  10.019   7.874  0.0003  0.2499  0.5653
  391MOL0     C52705   5.452   9.993   7.828  0.2306 -0.1307 -0.2035
  391MOL0     C52706   5.389   9.878   7.867 -0.0562 -0.2851  0.7783
  391MOL0     C52707   5.454   9.776   7.932 -0.7532 -0.8766 -0.4041
  391MOL0     O52708   5.391   9.657   7.929 -0.0134  0.1959 -0.5069
  391MOL0     C52709   5.388   9.601   8.060 -0.9540 -0.6009  0.9157
  391MOL0     C52710   5.333   9.456   8.054 -0.3326 -0.1112 -0.5603
  391MOL0     C52711   5.193   9.453   8.001  1.2447 -0.3127 -0.0012
  391MOL0     C52712   5.096   9.542   8.076  0.5470 -0.2746 -0.7923
  391MOL0     C52713   4.961   9.527   8.036  0.1390  0.2526 -0.0813
  391MOL0     C52714   4.839   9.521   8.034 -0.5243  0.1680  0.5848
  391MOL0     C52715   5.586   9.799   7.973 -0.4257  0.3836  0.2465
  391MOL0     C52716   5.650   9.914   7.941  0.3903  0.3438  0.2497
  391MOL0     C52717   5.787   9.932   8.019 -0.6390 -0.3029  1.1483
  391MOL0     H52718   5.825  10.320   8.019  3.0167 -1.2437  0.2346
  391MOL0     H52719   5.904  10.556   8.001  0.4638  1.5557  0.2446
  391MOL0     H52720   6.089  10.665   7.615 -1.3833 -0.9247 -1.6014
  391MOL0     H52721   5.923  10.711   7.580  1.7395  0.0559 -3.4976
  391MOL0     H52722   6.120  10.883   7.732 -1.3200 -1.6165  1.8316
  391MOL0     H52723   5.956  10.924   7.710 -0.8444 -1.1540  0.7819
  391MOL0     H52724   5.987  10.933   7.456 -1.5154  0.9689  2.0203
  391MOL0     H52725   6.141  10.850   7.474 -0.3524  1.5567 -1.2737
  391MOL0     H52726   6.069  11.124   7.576 -0.2597  1.3344 -0.4620
  391MOL0     H52727   6.219  11.043   7.621 -0.3007 -1.2838 -0.0173
  391MOL0     H52728   6.103  11.154   7.347  0.0215  0.0729 -1.6424
  391MOL0     H52729   6.249  11.204   7.437  3.3963 -2.7020 -1.3033
  391MOL0     H52730   6.218  10.957   7.257  0.5078  0.8025 -3.8511
  391MOL0     H52731   6.307  11.085   7.224  1.6426  0.4391  0.7955
  391MOL0     H52732   6.369  10.921   7.480 -1.8662 -1.8268  0.0046
  391MOL0     H52733   6.475  11.041   7.400  0.3612 -1.3683  2.7734
  391MOL0     H52734   6.466  10.873   7.203  1.5261 -3.6617 -0.9331
  391MOL0     H52735   6.549  10.822   7.354 -0.9655 -1.6564  0.4439
  391MOL0     H52736   6.242  10.740   7.145  0.7688  0.3238 -0.3585
  391MOL0     H52737   5.970  10.559   7.343 -1.2637  3.4992 -2.7653
  391MOL0     H52738   6.010  10.587   7.181 -1.9520 -1.0247 -0.2505
  391MOL0     H52739   5.980  10.343   7.197  1.1585  0.0413 -3.2080
  391MOL0     H52740   6.145  10.392   7.156 -0.0786 -0.5145  0.8996
  391MOL0     H52741   6.056  10.325   7.427 -1.3004  1.1779 -1.6248
  391MOL0     H52742   6.225  10.332   7.380 -1.1362  1.0906 -0.4650
  391MOL0     H52743   6.047  10.107   7.330  0.3543 -0.2267 -1.2332
  391MOL0     H52744   6.214  10.102   7.388 -1.3537 -2.1088  0.3238
  391MOL0     H52745   6.142   9.904   7.337 -2.3872  1.1881 -0.3099
  391MOL0     H52746   6.163   9.668   7.257 -0.8403  0.2959 -0.9334
  391MOL0     H52747   6.307   9.330   7.234 -1.0524  2.1292 -0.3992
  391MOL0     H52748   6.371   9.094   7.171 -0.4260 -0.8607 -1.0120
  391MOL0     H52749   6.195   8.860   7.016  0.6724  0.9679  0.7519
  391MOL0     H52750   6.162   8.902   6.846 -0.3968  2.5664  0.2734
  391MOL0     H52751   6.231   8.664   6.882 -2.4853  1.0718 -1.5611
  391MOL0     H52752   6.359   8.746   6.796 -0.7227 -3.8391 -0.3559
  391MOL0     H52753   6.499   8.731   6.979 -0.1715 -0.9037 -1.1900
  391MOL0     H52754   6.374   8.766   7.101 -2.3194 -2.0260  1.5629
  391MOL0     H52755   6.479   8.516   7.105  0.2557 -0.4992  1.4551
  391MOL0     H52756   6.380   8.502   6.960  3.4024 -2.3164  2.1203
  391MOL0     H52757   6.173   8.563   7.076 -0.1006  0.5398  1.0766
  391MOL0     H52758   6.258   8.593   7.227 -1.3749  0.4383  0.5590
  391MOL0     H52759   6.144   8.357   7.188  0.0679  0.3163 -3.5259
  391MOL0     H52760   6.278   8.338   7.072 -0.2280  2.4777 -1.8811
  391MOL0     H52761   6.443   8.315   7.266  0.1005  1.9418  3.3101
  391MOL0     H52762   6.311   8.204   7.280  0.5046  0.6139  0.5294
  391MOL0     H52763   6.366   8.290   7.487 -0.6042 -0.0568 -0.3787
  391MOL0     H52764   6.394   8.454   7.428  0.0581  0.7334 -2.9943
  391MOL0     H52765   6.169   9.157   6.782  2.5697 -1.6013 -0.6413
  391MOL0     H52766   6.099   9.364   6.852 -0.5994 -1.0435  0.8139
  391MOL0     H52767   6.222   9.836   6.854 -0.3268  2.9392  0.0726
  391MOL0     H52768   6.226  10.048   6.935 -1.7505 -1.5169 -1.2615
  391MOL0     H52769   5.941  10.498   7.571 -2.3341 -1.6120 -0.7219
  391MOL0     H52770   5.834  10.281   7.600  3.0747  0.9411 -3.1051
  391MOL0     H52771   5.401  10.060   7.760  1.5635  2.1746  0.9674
  391MOL0     H52772   5.291   9.869   7.822  0.1942  0.3179  0.1044
  391MOL0     H52773   5.351   9.667   8.138  1.4817 -2.7404  4.1484
  391MOL0     H52774   5.493   9.584   8.084  0.5706  2.9106 -2.1943
  391MOL0     H52775   5.341   9.417   8.156 -0.1330  0.3094 -0.4121
  391MOL0     H52776   5.414   9.408   7.998  2.0233 -0.1563  2.5503
  391MOL0     H52777   5.156   9.350   8.002 -0.7281  0.3475 -0.3761
  391MOL0     H52778   5.198   9.490   7.898 -1.3422  0.8786  0.2160
  391MOL0     H52779   5.112   9.515   8.181 -3.3857 -1.0742 -0.2217
  391MOL0     H52780   5.126   9.645   8.053  2.6482 -0.7879 -0.4823
  391MOL0     H52781   4.732   9.520   8.047 -0.6024 -0.2905  0.0071
  391MOL0     H52782   5.637   9.726   8.035 -2.2880  0.7591  2.3325
  391MOL0     H52783   5.868   9.966   7.955 -1.3619  1.1815  0.9825
  391MOL0     H52784   5.768  10.019   8.082  0.9825  2.7759 -2.2702
  391MOL0     H52785   5.820   9.843   8.073  0.2682 -0.5121  0.2849
  392MOL0     O52786   0.852   0.960   8.425  0.1341  1.2135  0.4714
  392MOL0     C52787   0.811   0.941   8.538  0.1877 -0.2110 -0.0845
  392MOL0     O52788   0.848   0.847   8.626 -0.8802  0.1791  0.1522
  392MOL0     C52789   0.961   0.776   8.615 -0.3849 -0.1253 -0.4281
  392MOL0     C52790   1.069   0.795   8.528  0.5784 -0.5276  0.6660
  392MOL0     C52791   1.166   0.695   8.520 -0.0842  0.1353 -0.6924
  392MOL0     C52792   1.162   0.583   8.601 -0.2944  0.7220 -0.3665
  392MOL0     O52793   1.265   0.488   8.616  0.2481 -0.3327  0.0434
  392MOL0     C52794   1.385   0.517   8.537  0.1955 -0.1404 -0.9793
  392MOL0     C52795   1.494   0.425   8.590  0.9197 -0.6878  0.0105
  392MOL0     C52796   1.604   0.411   8.484 -0.1960  0.0406 -0.2565
  392MOL0     C52797   1.694   0.287   8.495 -0.5897  0.1589 -0.3230
  392MOL0     C52798   1.807   0.293   8.388  0.6471  0.7071 -0.2397
  392MOL0     C52799   1.879   0.161   8.399 -0.3668 -0.5690 -0.1350
  392MOL0     C52800   1.806   0.043   8.345  0.3213  0.1916 -0.4370
  392MOL0     C52801   1.765   0.053   8.200 -0.0594  0.0584  0.2149
  392MOL0     N52802   1.868   0.011   8.110 -0.3097  0.0100 -0.1874
  392MOL0     C52803   1.910  -0.118   8.106  0.7827 -0.8622  0.3699
  392MOL0     C52804   1.937  -0.147   7.983 -0.2243 -0.1712  0.6118
  392MOL0     C52805   1.973  -0.282   7.936  0.4943  0.8106  0.0503
  392MOL0     C52806   1.926  -0.298   7.793 -1.0272  0.0243 -1.0725
  392MOL0     C52807   1.964  -0.434   7.723  0.1555  0.2169 -0.1255
  392MOL0     C52808   1.949  -0.565   7.795 -0.7642 -0.2953 -0.4093
  392MOL0     O52809   2.056  -0.576   7.890 -0.3994 -0.6989  0.1737
  392MOL0     C52810   2.057  -0.700   7.950 -0.1711 -0.0621 -0.1092
  392MOL0     C52811   2.179  -0.746   7.977 -0.6860 -0.2093 -0.0192
  392MOL0     C52812   2.205  -0.862   8.042  0.0199  0.4003  0.6987
  392MOL0     C52813   2.089  -0.934   8.091 -0.4708  1.0499  0.3955
  392MOL0     C52814   2.115  -1.065   8.162  0.0503 -0.1565  0.6622
  392MOL0     O52815   2.237  -1.107   8.153  0.2063  0.2501  0.4152
  392MOL0     C52816   2.300  -1.218   8.211 -0.3931  0.1331  0.0678
  392MOL0     C52817   2.427  -1.262   8.180 -0.0306  0.1898  0.0036
  392MOL0     C52818   2.503  -1.358   8.246  0.4574 -0.1867  0.4814
  392MOL0     C52819   2.441  -1.426   8.359 -0.5447  0.7224 -0.2070
  392MOL0     O52820   2.508  -1.525   8.431 -0.5603  0.1119  0.1407
  392MOL0     C52821   2.648  -1.559   8.390  0.3514  0.4969 -0.5604
  392MOL0     C52822   2.697  -1.690   8.459  0.5859  0.2619  0.0001
  392MOL0     C52823   2.850  -1.696   8.480 -0.0720 -0.0966  0.4569
  392MOL0     C52824   2.915  -1.835   8.509  0.2260  0.7371 -0.1431
  392MOL0     C52825   3.049  -1.814   8.580 -0.0685 -0.4234 -0.2348
  392MOL0     C52826   3.132  -1.946   8.582  0.2096  0.3410  0.5844
  392MOL0     C52827   3.265  -1.929   8.662  0.2531 -0.2171 -0.2253
  392MOL0     C52828   3.338  -2.056   8.692 -0.1737 -0.5799 -0.4088
  392MOL0    Cl52829   3.257  -2.174   8.803 -0.3944  0.1649 -0.1831
  392MOL0     C52830   2.312  -1.384   8.396  0.5114  0.3223  0.1605
  392MOL0     C52831   2.240  -1.292   8.319  1.2543 -0.2674  0.3036
  392MOL0     O52832   2.022  -1.121   8.220 -0.6648  0.7540  0.0168
  392MOL0     C52833   1.961  -0.876   8.067 -0.1216  0.0950  0.1278
  392MOL0     C52834   1.948  -0.765   7.992  0.6860 -0.6410  0.8653
  392MOL0     N52835   1.899  -0.035   7.908  0.1263  0.3278 -0.6087
  392MOL0     N52836   1.871   0.063   7.982  0.3113  0.5654 -0.2757
  392MOL0     C52837   1.060   0.571   8.692 -0.1813  0.9239  0.1065
  392MOL0     C52838   0.959   0.671   8.707  0.0050 -0.0358 -0.6325
  392MOL0     C52839   0.712   1.031   8.576  0.0744 -0.2114  1.3152
  392MOL0     C52840   0.617   0.969   8.664 -0.0653 -0.3588  0.3066
  392MOL0     C52841   0.504   1.040   8.693 -0.0473  0.6601 -0.3690
  392MOL0     C52842   0.484   1.170   8.650  0.3450  0.6669 -1.2836
  392MOL0     O52843   0.372   1.236   8.689 -0.6470  0.3115  0.1843
  392MOL0     C52844   0.300   1.215   8.821  0.4855 -0.0868  0.4049
  392MOL0     C52845   0.396   1.206   8.933 -0.5022 -0.8235 -0.2552
  392MOL0     C52846   0.330   1.166   9.068 -1.5196  0.2032  0.0855
  392MOL0     C52847   0.427   1.159   9.188  0.0594  0.0246 -0.4675
  392MOL0     C52848   0.368   1.121   9.318  0.0830 -0.2971  0.3356
  392MOL0     C52849   0.347   1.086   9.430  0.2041  0.8335 -0.0885
  392MOL0     C52850   0.572   1.233   8.560  0.2423  0.3459 -0.3125
  392MOL0     C52851   0.686   1.161   8.520 -0.0748  0.3620  0.0434
  392MOL0     C52852   0.781   1.228   8.422  0.8169 -0.1122 -0.4942
  392MOL0     H52853   1.059   0.874   8.454  0.5494  0.3492  1.5742
  392MOL0     H52854   1.243   0.710   8.445  0.8641 -0.4505  0.1404
  392MOL0     H52855   1.364   0.490   8.433  1.0763 -2.5703 -0.5880
  392MOL0     H52856   1.411   0.623   8.541  1.1637 -0.4083  1.2641
  392MOL0     H52857   1.450   0.331   8.625 -0.7127  0.1412  0.2581
  392MOL0     H52858   1.533   0.473   8.680 -0.2170 -1.9224  1.2139
  392MOL0     H52859   1.678   0.490   8.498  2.0141 -2.2400  2.2409
  392MOL0     H52860   1.565   0.416   8.382 -1.3796 -1.4976  0.0801
  392MOL0     H52861   1.733   0.284   8.597  2.0827  0.2626 -1.2627
  392MOL0     H52862   1.638   0.195   8.477 -3.9942  1.2738  3.2322
  392MOL0     H52863   1.779   0.319   8.285  0.8245 -0.5041 -0.6119
  392MOL0     H52864   1.874   0.373   8.419 -0.8905  1.0603  2.4283
  392MOL0     H52865   1.975   0.177   8.348 -0.3141 -4.6751 -1.6687
  392MOL0     H52866   1.897   0.138   8.504 -0.2520 -1.6939 -0.3873
  392MOL0     H52867   1.720   0.024   8.410  0.1281  0.2292 -0.6833
  392MOL0     H52868   1.854  -0.054   8.360 -2.0386 -0.8121  1.3563
  392MOL0     H52869   1.672  -0.001   8.178 -0.9299  2.2296 -1.9888
  392MOL0     H52870   1.748   0.157   8.170  1.4415  0.9178  2.1805
  392MOL0     H52871   1.916  -0.191   8.187 -2.4213  0.1374  1.6957
  392MOL0     H52872   2.081  -0.302   7.946  0.5113  0.0953 -1.3363
  392MOL0     H52873   1.916  -0.349   8.000 -1.9613  1.5460 -1.2443
  392MOL0     H52874   1.817  -0.289   7.794 -1.2766 -1.3564  2.5153
  392MOL0     H52875   1.976  -0.214   7.745 -0.5877  3.1807  4.1032
  392MOL0     H52876   2.067  -0.408   7.697  0.4466  3.5771  3.4798
  392MOL0     H52877   1.905  -0.436   7.630 -0.1020  2.7225 -0.0995
  392MOL0     H52878   1.952  -0.653   7.731 -1.3622 -0.9821  0.4839
  392MOL0     H52879   1.855  -0.573   7.849  0.8010 -1.0541  2.4301
  392MOL0     H52880   2.265  -0.694   7.936  0.2447  0.6243  2.7856
  392MOL0     H52881   2.304  -0.908   8.039  1.1363  2.6760 -2.4994
  392MOL0     H52882   2.478  -1.193   8.113 -1.5923  0.8099 -0.5958
  392MOL0     H52883   2.608  -1.368   8.220  0.4875  1.7839 -0.3242
  392MOL0     H52884   2.658  -1.567   8.281 -3.9893  2.6634 -1.3532
  392MOL0     H52885   2.717  -1.483   8.429 -0.0795 -0.2563  1.8314
  392MOL0     H52886   2.654  -1.695   8.559 -0.0669  1.3154 -0.2182
  392MOL0     H52887   2.659  -1.776   8.402  1.2230 -0.4162  0.5759
  392MOL0     H52888   2.895  -1.663   8.386 -0.0901 -1.9718 -0.2677
  392MOL0     H52889   2.858  -1.620   8.558  1.0928  0.4418 -0.1565
  392MOL0     H52890   2.922  -1.891   8.415 -0.3562 -0.0374  0.2571
  392MOL0     H52891   2.859  -1.897   8.581  1.0609  0.6292  0.4293
  392MOL0     H52892   3.031  -1.777   8.681 -1.4740  0.7070 -0.8660
  392MOL0     H52893   3.114  -1.732   8.549  1.0165 -0.7447  1.0510
  392MOL0     H52894   3.061  -2.017   8.627  0.6036 -1.8077 -1.9183
  392MOL0     H52895   3.147  -1.986   8.482 -2.3091  1.8640 -0.4990
  392MOL0     H52896   3.252  -1.873   8.755 -2.4072  0.9153 -1.1946
  392MOL0     H52897   3.329  -1.872   8.594  1.0484 -0.7688  0.0387
  392MOL0     H52898   3.369  -2.104   8.598  0.6360 -3.2766  1.1276
  392MOL0     H52899   3.437  -2.028   8.728 -0.7951 -1.2541  2.0017
  392MOL0     H52900   2.251  -1.422   8.478  0.6129  0.6344  0.3808
  392MOL0     H52901   2.143  -1.263   8.359  0.8115 -1.7312  0.3333
  392MOL0     H52902   1.868  -0.924   8.096  0.1997 -0.9226 -0.4679
  392MOL0     H52903   1.845  -0.732   7.979  0.7751  0.5853  2.8078
  392MOL0     H52904   1.050   0.475   8.742  1.1690 -0.5041 -2.1413
  392MOL0     H52905   0.873   0.662   8.774  1.4050 -2.3026  0.9952
  392MOL0     H52906   0.609   0.868   8.703 -0.9661  0.1529  1.5309
  392MOL0     H52907   0.419   0.994   8.742  0.9788  0.5687  1.4353
  392MOL0     H52908   0.241   1.123   8.817  1.0638 -0.4278 -1.6285
  392MOL0     H52909   0.238   1.303   8.837  2.1329  0.6198  3.7308
  392MOL0     H52910   0.439   1.307   8.933  2.2919 -1.9214 -0.4458
  392MOL0     H52911   0.485   1.146   8.912 -0.4704 -0.2217 -2.0206
  392MOL0     H52912   0.293   1.064   9.055  2.7253 -1.4506 -0.7284
  392MOL0     H52913   0.244   1.230   9.091 -0.7994  0.9315  0.8336
  392MOL0     H52914   0.508   1.089   9.164 -0.0137  0.1114 -0.9737
  392MOL0     H52915   0.475   1.257   9.191 -0.0129  0.0830 -1.0744
  392MOL0     H52916   0.334   1.034   9.523  0.9914 -1.8514 -1.3991
  392MOL0     H52917   0.567   1.341   8.546 -0.3133  0.6447  1.9636
  392MOL0     H52918   0.758   1.335   8.414  2.3956  0.5111  2.1962
  392MOL0     H52919   0.885   1.219   8.455  1.1515  2.6738 -0.5691
  392MOL0     H52920   0.767   1.186   8.322  0.8960  0.4293 -0.7373
  393MOL0     O52921   9.523   1.053   7.890 -0.1555 -0.9496 -0.0919
  393MOL0     C52922   9.541   0.950   7.953  0.1050  0.1390  0.0743
  393MOL0     O52923   9.649   0.880   7.943 -0.2596  0.3498 -0.6036
  393MOL0     C52924   9.752   0.924   7.861  0.2456  0.2506 -0.3814
  393MOL0     C52925   9.852   1.012   7.904  0.3296 -0.0204  1.5945
  393MOL0     C52926   9.957   1.036   7.823 -0.5921  0.1782  0.5088
  393MOL0     C52927   9.958   0.988   7.692 -0.6173 -0.8207  0.5387
  393MOL0     O52928  10.061   1.051   7.619 -0.3250  0.1116 -0.0255
  393MOL0     C52929  10.053   1.030   7.479  0.0125 -0.4166 -0.0487
  393MOL0     C52930  10.160   1.099   7.401  0.4423 -0.5369  0.5639
  393MOL0     C52931  10.301   1.043   7.415  0.7663 -0.2804  0.3484
  393MOL0     C52932  10.403   1.107   7.330  0.0438  0.6773 -0.0981
  393MOL0     C52933  10.548   1.055   7.345  0.0293 -0.4302 -0.4689
  393MOL0     C52934  10.649   1.142   7.274  0.0326 -0.4685 -0.5412
  393MOL0     C52935  10.786   1.071   7.293  0.2863  1.0087  0.0369
  393MOL0     C52936  10.885   1.115   7.175  0.3987  0.6899 -0.2967
  393MOL0     N52937  11.016   1.046   7.184 -0.3155  0.4324 -0.2747
  393MOL0     C52938  11.031   0.917   7.153  0.3974  0.4278  0.2938
  393MOL0     C52939  11.165   0.906   7.141  0.1429  0.7839  0.0401
  393MOL0     C52940  11.247   0.795   7.088 -0.1135 -0.0705  0.2341
  393MOL0     C52941  11.312   0.820   6.949  0.6630  0.5325  0.3813
  393MOL0     C52942  11.455   0.871   6.940  1.0700 -0.0591 -0.3129
  393MOL0     C52943  11.556   0.764   6.984  0.2118  0.3783 -0.0446
  393MOL0     O52944  11.571   0.653   6.891  0.7458  0.0458 -0.0440
  393MOL0     C52945  11.627   0.666   6.768 -0.0159  0.1806  0.7109
  393MOL0     C52946  11.675   0.788   6.712 -0.2495  0.1072  0.0802
  393MOL0     C52947  11.697   0.804   6.579  0.2481 -0.2443  0.5594
  393MOL0     C52948  11.677   0.706   6.482 -0.0938 -0.9685 -0.0348
  393MOL0     C52949  11.692   0.722   6.337  0.0548  0.2951  0.0416
  393MOL0     O52950  11.670   0.612   6.260 -0.6059 -0.2492 -0.6572
  393MOL0     C52951  11.680   0.618   6.122 -0.3385  0.0930 -0.5540
  393MOL0     C52952  11.585   0.533   6.061  0.5262 -0.6871  0.6563
  393MOL0     C52953  11.579   0.520   5.924  0.4877 -0.1609 -0.1024
  393MOL0     C52954  11.671   0.592   5.845  0.2818  0.7522  0.1405
  393MOL0     O52955  11.645   0.572   5.707  0.1191 -0.0952  0.0879
  393MOL0     C52956  11.736   0.617   5.613 -0.3876  0.6480 -0.4612
  393MOL0     C52957  11.690   0.594   5.467  0.3912 -0.3341 -0.3057
  393MOL0     C52958  11.621   0.714   5.410  0.1982  0.0938 -0.0740
  393MOL0     C52959  11.472   0.711   5.441 -0.4144 -0.5375 -0.3707
  393MOL0     C52960  11.393   0.823   5.368  0.2813  0.9282 -0.6397
  393MOL0     C52961  11.381   0.803   5.213 -0.1827  0.1845 -0.4511
  393MOL0     C52962  11.280   0.910   5.169  0.6994  0.0495  0.1615
  393MOL0     C52963  11.352   1.043   5.129 -0.0518 -0.1788  0.3557
  393MOL0    Cl52964  11.474   1.010   5.005  0.1814 -0.1304 -0.1255
  393MOL0     C52965  11.778   0.673   5.900  0.4828 -0.6852  0.2134
  393MOL0     C52966  11.783   0.681   6.042  0.6075  0.7084 -0.1291
  393MOL0     O52967  11.731   0.826   6.302 -0.2741  0.3141 -0.6337
  393MOL0     C52968  11.643   0.583   6.538 -0.1297 -0.2510 -0.2913
  393MOL0     C52969  11.609   0.566   6.671 -0.8943  0.2386 -0.7642
  393MOL0     N52970  11.232   1.027   7.168  0.8819 -1.2050  0.1942
  393MOL0     N52971  11.134   1.110   7.194 -0.5922  0.4386  0.2401
  393MOL0     C52972   9.866   0.893   7.646 -0.4659  0.4064  0.2355
  393MOL0     C52973   9.767   0.850   7.734 -0.1285  0.2087 -0.4280
  393MOL0     C52974   9.430   0.903   8.049 -0.0205  0.1203 -0.3001
  393MOL0     C52975   9.427   0.760   8.089 -0.2879 -0.8191 -0.1208
  393MOL0     C52976   9.325   0.712   8.175 -0.2470 -0.9545 -0.6286
  393MOL0     C52977   9.229   0.799   8.223  0.1269 -0.7176  0.0636
  393MOL0     O52978   9.130   0.747   8.304  0.2011 -0.0437 -0.5709
  393MOL0     C52979   9.023   0.691   8.226  0.6041 -0.1712 -0.6924
  393MOL0     C52980   8.903   0.667   8.311  0.2124 -0.2095 -0.8042
  393MOL0     C52981   8.906   0.547   8.398  1.0307 -0.3747  0.0817
  393MOL0     C52982   8.764   0.509   8.456  0.2192 -0.5050  1.0270
  393MOL0     C52983   8.700   0.621   8.535  0.2945  0.9532  0.2848
  393MOL0     C52984   8.673   0.714   8.611  0.0030 -0.5845  0.0823
  393MOL0     C52985   9.241   0.936   8.199  0.3558  0.8326 -0.1379
  393MOL0     C52986   9.331   0.983   8.106 -0.0552 -0.5434 -0.8483
  393MOL0     C52987   9.342   1.131   8.118  0.4076 -0.6102 -0.0165
  393MOL0     H52988   9.845   1.043   8.008 -2.8544 -1.7551  2.0221
  393MOL0     H52989  10.041   1.101   7.847  0.4164  0.2377 -2.6917
  393MOL0     H52990  10.061   0.922   7.473 -4.5862 -1.0409  1.3022
  393MOL0     H52991   9.961   1.072   7.438  1.3270  1.5031 -1.2413
  393MOL0     H52992  10.147   1.207   7.411 -1.4168 -0.7628  1.0137
  393MOL0     H52993  10.133   1.080   7.297 -0.7657  2.5534  0.2159
  393MOL0     H52994  10.298   0.939   7.382 -0.2612  0.1881 -1.1184
  393MOL0     H52995  10.325   1.038   7.522 -0.0229 -1.9928  0.4794
  393MOL0     H52996  10.377   1.115   7.224  2.4331  1.1101 -0.7191
  393MOL0     H52997  10.407   1.211   7.363 -1.2589  0.2103  1.7335
  393MOL0     H52998  10.590   1.051   7.446 -0.0331  0.4300 -0.4075
  393MOL0     H52999  10.554   0.955   7.302  0.5098 -1.7829  2.4548
  393MOL0     H53000  10.617   1.161   7.171 -1.9562 -4.1481 -0.7737
  393MOL0     H53001  10.658   1.242   7.318 -1.9261 -0.4883  0.0316
  393MOL0     H53002  10.785   0.962   7.304 -0.0268  1.2486  3.5243
  393MOL0     H53003  10.823   1.110   7.388 -0.6294  1.6582  0.1374
  393MOL0     H53004  10.849   1.086   7.076  2.7307 -3.1580 -0.2377
  393MOL0     H53005  10.886   1.224   7.180 -1.5945  0.7440 -0.2943
  393MOL0     H53006  10.960   0.843   7.118  2.1688 -0.6142 -1.2481
  393MOL0     H53007  11.325   0.764   7.158  1.1539 -1.8721 -1.8540
  393MOL0     H53008  11.177   0.715   7.062  0.3062 -0.7903  1.2424
  393MOL0     H53009  11.302   0.734   6.883 -0.0173 -0.3750  1.6280
  393MOL0     H53010  11.245   0.891   6.897  0.3021 -0.6018 -0.7584
  393MOL0     H53011  11.471   0.951   7.013 -0.0222  0.7841 -0.9730
  393MOL0     H53012  11.481   0.918   6.845 -0.8881 -1.7266 -1.7511
  393MOL0     H53013  11.515   0.737   7.082  1.6164 -2.0364 -0.0389
  393MOL0     H53014  11.655   0.809   6.994  0.1420  0.5083  0.0699
  393MOL0     H53015  11.677   0.886   6.759  2.0834  0.4503 -0.6405
  393MOL0     H53016  11.730   0.902   6.547  1.5788 -0.1710  2.0225
  393MOL0     H53017  11.510   0.486   6.124  0.3329  0.2600  1.1496
  393MOL0     H53018  11.506   0.459   5.873  1.2859  0.2504 -1.8006
  393MOL0     H53019  11.745   0.726   5.624 -2.0333  0.9373 -1.6768
  393MOL0     H53020  11.834   0.572   5.631  0.4304  1.4011 -2.6802
  393MOL0     H53021  11.778   0.575   5.405  1.5972  1.1764  0.8729
  393MOL0     H53022  11.630   0.502   5.464 -1.9667  1.1228 -3.3089
  393MOL0     H53023  11.665   0.809   5.442 -0.3011  0.7691 -1.3121
  393MOL0     H53024  11.624   0.710   5.301 -4.1412  3.6563 -0.6229
  393MOL0     H53025  11.455   0.723   5.549 -0.2595  1.4311 -0.5273
  393MOL0     H53026  11.431   0.612   5.424 -0.1129 -0.5806 -0.8508
  393MOL0     H53027  11.434   0.923   5.378 -1.0063  1.3846  0.3901
  393MOL0     H53028  11.295   0.829   5.416  1.9064  0.7022  3.0517
  393MOL0     H53029  11.483   0.793   5.178  1.7469 -1.2409  4.6453
  393MOL0     H53030  11.331   0.707   5.195  0.0275  0.1751 -0.9902
  393MOL0     H53031  11.205   0.943   5.242  0.1103  3.8751 -1.9000
  393MOL0     H53032  11.212   0.871   5.093 -0.8836  0.8235  1.1170
  393MOL0     H53033  11.282   1.121   5.096  2.8220  2.5341  0.1380
  393MOL0     H53034  11.385   1.087   5.224 -0.9755 -1.6122  1.3799
  393MOL0     H53035  11.864   0.710   5.847  0.6242 -3.1699 -1.4414
  393MOL0     H53036  11.846   0.744   6.104  0.0419  0.1534  1.0474
  393MOL0     H53037  11.621   0.505   6.466  1.0632 -0.4254 -0.4907
  393MOL0     H53038  11.574   0.468   6.700  3.5445 -0.7452  2.3594
  393MOL0     H53039   9.858   0.871   7.540 -0.6205  2.6160 -0.2763
  393MOL0     H53040   9.707   0.767   7.698 -0.8911  1.3516 -1.9429
  393MOL0     H53041   9.521   0.714   8.060  1.0837 -0.4201  3.2081
  393MOL0     H53042   9.321   0.610   8.211  0.8433 -1.7098 -2.5090
  393MOL0     H53043   9.041   0.594   8.179  2.5687 -0.7578  1.0893
  393MOL0     H53044   8.993   0.770   8.157 -1.5254 -0.0661  0.2699
  393MOL0     H53045   8.814   0.664   8.246 -0.9287  1.1543  0.6119
  393MOL0     H53046   8.885   0.762   8.363  0.4176  0.4339 -1.8597
  393MOL0     H53047   8.978   0.567   8.479  2.2709 -0.8125 -0.8761
  393MOL0     H53048   8.945   0.456   8.351  2.9313 -0.4038  1.5498
  393MOL0     H53049   8.686   0.500   8.380 -0.5554  0.3198  1.6925
  393MOL0     H53050   8.768   0.412   8.507  0.4421 -0.8176  0.4212
  393MOL0     H53051   8.654   0.795   8.679 -2.3955 -0.3315 -0.7764
  393MOL0     H53052   9.177   1.000   8.259 -1.3127 -0.3946 -0.5412
  393MOL0     H53053   9.394   1.181   8.036 -4.0121 -0.0107 -2.8433
  393MOL0     H53054   9.238   1.165   8.112  1.0613  1.9622  1.6830
  393MOL0     H53055   9.393   1.161   8.209 -0.9571  1.0835  0.2478
  394MOL0     O53056   9.737   4.761   5.596 -0.6228  0.1921 -0.3488
  394MOL0     C53057   9.665   4.855   5.561 -0.3607 -0.6371 -0.2126
  394MOL0     O53058   9.574   4.907   5.643  0.6328 -0.0167 -0.4432
  394MOL0     C53059   9.565   4.863   5.775  1.0723  0.7993 -0.4075
  394MOL0     C53060   9.443   4.831   5.823  0.6885  0.2232 -0.1283
  394MOL0     C53061   9.416   4.801   5.952 -0.4772 -0.1191  0.5122
  394MOL0     C53062   9.519   4.802   6.037  0.2524  0.6525 -0.7757
  394MOL0     O53063   9.506   4.771   6.170 -0.3789  0.1719  0.1433
  394MOL0     C53064   9.422   4.672   6.215 -0.2379 -0.4051 -0.2821
  394MOL0     C53065   9.466   4.639   6.358  0.2004 -1.0119 -0.5187
  394MOL0     C53066   9.618   4.614   6.340 -0.3399  0.4914  0.0062
  394MOL0     C53067   9.674   4.592   6.484  0.0789 -0.3277  0.5633
  394MOL0     C53068   9.814   4.528   6.488  0.4874 -1.1966 -0.0122
  394MOL0     C53069   9.876   4.488   6.627  0.1664 -0.2529 -0.0737
  394MOL0     C53070   9.870   4.602   6.730  0.1470 -0.7198  0.0244
  394MOL0     C53071   9.944   4.565   6.867 -0.7763 -0.7478 -0.2984
  394MOL0     N53072   9.854   4.513   6.962  0.3463  0.7699  0.4970
  394MOL0     C53073   9.805   4.584   7.070  0.7036  0.8267 -0.8571
  394MOL0     C53074   9.721   4.497   7.129  0.5444 -0.2814 -0.5436
  394MOL0     C53075   9.635   4.530   7.251  0.0394 -0.6169  0.3832
  394MOL0     C53076   9.691   4.506   7.395 -0.0986 -0.5214 -0.7902
  394MOL0     C53077   9.713   4.357   7.420 -0.5305 -1.1863  0.0307
  394MOL0     C53078   9.787   4.322   7.549 -0.2496  0.6039  0.2279
  394MOL0     O53079   9.924   4.375   7.541  0.4803 -0.0358 -0.0887
  394MOL0     C53080  10.019   4.310   7.465  0.2348  0.7901 -0.1608
  394MOL0     C53081  10.145   4.359   7.487 -0.0690  0.1959 -0.4647
  394MOL0     C53082  10.255   4.318   7.414 -0.6296  0.1819  0.0661
  394MOL0     C53083  10.248   4.190   7.351 -0.7330  0.4923 -0.6943
  394MOL0     C53084  10.363   4.133   7.279  0.2641  0.1021  1.0683
  394MOL0     O53085  10.337   4.045   7.171  0.2957 -0.5114 -0.2205
  394MOL0     C53086  10.438   3.958   7.143  0.8795  0.0202  0.4145
  394MOL0     C53087  10.467   3.845   7.226 -0.7745  0.8808  0.1538
  394MOL0     C53088  10.570   3.759   7.198 -0.4972  0.9740 -0.0435
  394MOL0     C53089  10.636   3.780   7.074 -0.1568  0.2091  0.7123
  394MOL0     O53090  10.728   3.692   7.037  0.9263  0.7538  0.3140
  394MOL0     C53091  10.674   3.591   6.954 -0.3220 -0.3430 -0.2412
  394MOL0     C53092  10.790   3.507   6.903  0.1767 -0.1130 -0.2263
  394MOL0     C53093  10.867   3.456   7.026 -0.1139  0.1800 -0.3025
  394MOL0     C53094  10.944   3.331   6.987  0.7796 -0.6800  0.2913
  394MOL0     C53095  11.000   3.240   7.109 -0.4848  0.6866  0.6756
  394MOL0     C53096  11.083   3.328   7.205  0.5159 -0.3586 -0.0645
  394MOL0     C53097  11.104   3.262   7.343 -0.3435  0.9102  0.2704
  394MOL0     C53098  11.171   3.357   7.443  0.4928  0.4143 -0.4448
  394MOL0    Cl53099  11.089   3.496   7.513  0.1692 -0.3463  0.3465
  394MOL0     C53100  10.615   3.893   6.983 -0.4240 -1.6400 -0.5629
  394MOL0     C53101  10.512   3.979   7.021 -0.5352  0.1298  0.6348
  394MOL0     O53102  10.474   4.155   7.332 -0.3875 -0.0973  0.7099
  394MOL0     C53103  10.118   4.126   7.344 -0.1162  0.2426  0.0392
  394MOL0     C53104  10.005   4.190   7.397 -0.2107  0.4429  0.8338
  394MOL0     N53105   9.704   4.380   7.065  0.2173 -0.2595  0.2103
  394MOL0     N53106   9.785   4.390   6.961 -0.4842 -0.2235  0.0979
  394MOL0     C53107   9.652   4.823   5.995 -0.3789  0.8306  1.3456
  394MOL0     C53108   9.675   4.854   5.863 -0.7741  0.3741  0.7193
  394MOL0     C53109   9.679   4.904   5.428 -0.4476 -0.0491  1.1043
  394MOL0     C53110   9.785   4.857   5.349  0.0491  0.2871  0.8856
  394MOL0     C53111   9.806   4.891   5.215 -0.4907  0.5668  0.1788
  394MOL0     C53112   9.716   4.977   5.150  0.0605  0.2044 -0.2377
  394MOL0     O53113   9.713   4.988   5.016  0.6515 -0.0580  0.0241
  394MOL0     C53114   9.761   4.879   4.935  0.2293  0.3191 -0.3020
  394MOL0     C53115   9.684   4.866   4.803  0.3406  0.8082 -1.1124
  394MOL0     C53116   9.775   4.805   4.694 -0.3096  0.5096 -0.6093
  394MOL0     C53117   9.694   4.781   4.569  0.6463  0.0646 -0.6897
  394MOL0     C53118   9.763   4.683   4.478  0.0650 -1.1970  0.5124
  394MOL0     C53119   9.819   4.609   4.402  0.6347  0.3594 -0.3132
  394MOL0     C53120   9.623   5.039   5.229  0.3323 -0.0145 -0.4213
  394MOL0     C53121   9.600   5.012   5.364 -0.1774  0.3400  0.3783
  394MOL0     C53122   9.482   5.089   5.429  0.1867  0.9766 -0.5090
  394MOL0     H53123   9.359   4.829   5.753  1.3573  3.2163 -1.1813
  394MOL0     H53124   9.320   4.777   5.997 -0.3106 -3.3251 -0.5600
  394MOL0     H53125   9.321   4.712   6.222  0.0187 -0.0896  2.7303
  394MOL0     H53126   9.438   4.581   6.156  3.6956  0.0861 -0.2724
  394MOL0     H53127   9.407   4.561   6.406 -1.3846 -0.2054 -1.0651
  394MOL0     H53128   9.444   4.731   6.414 -5.0776  0.4704 -4.2401
  394MOL0     H53129   9.676   4.698   6.302  1.6891  0.2372  2.3294
  394MOL0     H53130   9.623   4.522   6.280 -2.5674  0.0165  0.4489
  394MOL0     H53131   9.671   4.690   6.534  0.3863  2.1716 -3.7786
  394MOL0     H53132   9.599   4.526   6.529 -0.4208 -1.4700 -1.8368
  394MOL0     H53133   9.811   4.447   6.415  2.1272 -2.7441  1.5365
  394MOL0     H53134   9.882   4.605   6.449 -0.6639 -0.4966 -0.6947
  394MOL0     H53135   9.815   4.408   6.669 -0.6796  0.6862  0.5212
  394MOL0     H53136   9.976   4.443   6.621 -1.4193 -4.3787  0.9831
  394MOL0     H53137   9.766   4.608   6.764  0.8017 -0.9257  2.1892
  394MOL0     H53138   9.903   4.698   6.688 -0.1635 -0.2172  0.9070
  394MOL0     H53139  10.022   4.491   6.848 -0.3367  0.1215 -2.0799
  394MOL0     H53140   9.993   4.657   6.901  0.8824 -2.0713  1.1333
  394MOL0     H53141   9.825   4.679   7.118 -0.8591  1.3848 -1.2238
  394MOL0     H53142   9.607   4.635   7.237  4.6376  0.9160  0.8272
  394MOL0     H53143   9.549   4.466   7.230  0.8410 -0.9796 -2.2352
  394MOL0     H53144   9.792   4.546   7.407  0.3985 -1.9560  0.0025
  394MOL0     H53145   9.620   4.552   7.464 -0.9316 -1.2221 -1.1567
  394MOL0     H53146   9.769   4.318   7.335 -2.3222 -0.0029 -1.7671
  394MOL0     H53147   9.612   4.317   7.418 -1.7697  1.7090 -0.6593
  394MOL0     H53148   9.782   4.214   7.561 -0.9911 -0.1564 -4.7131
  394MOL0     H53149   9.730   4.362   7.633  0.2461  0.8452  0.4572
  394MOL0     H53150  10.163   4.459   7.526 -1.6706  1.3519 -2.5115
  394MOL0     H53151  10.348   4.370   7.431  0.5149 -1.9413  0.6359
  394MOL0     H53152  10.432   3.839   7.328  1.9279 -1.6241  1.0761
  394MOL0     H53153  10.612   3.675   7.252  2.8908  0.8750 -2.5130
  394MOL0     H53154  10.596   3.530   7.002  1.2173 -2.8545 -0.7770
  394MOL0     H53155  10.627   3.642   6.869 -0.7639  3.3856  2.0244
  394MOL0     H53156  10.744   3.428   6.843 -0.0635  0.8175 -1.3121
  394MOL0     H53157  10.857   3.562   6.836  0.9967 -0.6629  0.1369
  394MOL0     H53158  10.937   3.537   7.052  0.8872 -1.3618  2.1713
  394MOL0     H53159  10.794   3.435   7.104 -0.3864  0.8678 -0.3670
  394MOL0     H53160  11.024   3.360   6.919  1.2605  0.3178  1.2504
  394MOL0     H53161  10.874   3.260   6.941  1.5915  0.1063 -2.3444
  394MOL0     H53162  11.061   3.156   7.077  1.3997  2.2252  0.0764
  394MOL0     H53163  10.922   3.186   7.165 -1.6044 -1.2704 -2.5034
  394MOL0     H53164  11.179   3.344   7.154  0.3194 -0.7147 -0.5576
  394MOL0     H53165  11.035   3.424   7.226 -0.2312 -0.2640 -1.9390
  394MOL0     H53166  11.161   3.168   7.342  0.5072  1.3108 -3.5341
  394MOL0     H53167  11.000   3.250   7.375 -0.9796 -1.7172 -2.2961
  394MOL0     H53168  11.207   3.287   7.519  0.2792  0.3647 -0.3874
  394MOL0     H53169  11.265   3.393   7.402  1.8621 -1.2200  1.1029
  394MOL0     H53170  10.679   3.903   6.896 -1.3575  0.5185 -1.0661
  394MOL0     H53171  10.472   4.060   6.961  2.1161  1.3281  0.3567
  394MOL0     H53172  10.115   4.028   7.299  0.5477 -0.2839  1.1062
  394MOL0     H53173   9.909   4.138   7.403 -0.6725  1.4333  3.4730
  394MOL0     H53174   9.731   4.817   6.070 -1.0427 -1.3562  1.9485
  394MOL0     H53175   9.772   4.881   5.822 -0.8175 -1.7155 -0.9297
  394MOL0     H53176   9.853   4.790   5.400 -0.0732 -2.7497 -2.5629
  394MOL0     H53177   9.894   4.845   5.171 -2.1203  0.1661 -3.0098
  394MOL0     H53178   9.750   4.785   4.989  0.5462  1.6957  2.3364
  394MOL0     H53179   9.865   4.891   4.904  0.5580 -0.5043  0.4678
  394MOL0     H53180   9.655   4.967   4.772  0.1085  0.6934 -1.2692
  394MOL0     H53181   9.596   4.803   4.817  1.0806 -1.2057 -4.3325
  394MOL0     H53182   9.804   4.707   4.733  1.2135  2.3121  3.2152
  394MOL0     H53183   9.862   4.864   4.667  1.1617 -1.9274 -1.4982
  394MOL0     H53184   9.606   4.724   4.599 -0.2811  0.9035 -1.7118
  394MOL0     H53185   9.662   4.878   4.529  1.3290  2.0009  3.0104
  394MOL0     H53186   9.878   4.536   4.350  2.3792  3.0208 -2.3361
  394MOL0     H53187   9.543   5.101   5.189  0.6900 -1.0647 -2.9474
  394MOL0     H53188   9.545   5.133   5.508  1.7395 -0.3607 -0.9458
  394MOL0     H53189   9.434   5.168   5.371 -2.0181  0.8617  1.0363
  394MOL0     H53190   9.403   5.022   5.465  0.2972  0.3569 -1.3884
  395MOL0     O53191   4.487   8.045  11.458  0.2818 -0.3323  0.3136
  395MOL0     C53192   4.584   8.004  11.396 -0.2653  0.4755 -0.4025
  395MOL0     O53193   4.605   8.031  11.268  0.2699 -1.3092  0.3348
  395MOL0     C53194   4.511   8.126  11.211  0.2986 -0.2324 -1.1366
  395MOL0     C53195   4.392   8.076  11.174 -0.8819 -0.5359 -0.2383
  395MOL0     C53196   4.296   8.154  11.116  0.4323 -0.2378 -0.1377
  395MOL0     C53197   4.307   8.293  11.110 -0.7548  0.1217  0.6033
  395MOL0     O53198   4.200   8.362  11.075  0.4193  0.8118  0.6078
  395MOL0     C53199   4.142   8.472  11.159  0.4157  0.9426  0.1982
  395MOL0     C53200   4.136   8.606  11.096 -0.5643 -0.2445  0.4366
  395MOL0     C53201   4.069   8.602  10.957  0.4469  0.0737 -1.1884
  395MOL0     C53202   4.038   8.732  10.893 -0.1545 -0.2064 -0.2491
  395MOL0     C53203   3.936   8.701  10.774 -0.5974 -0.0366  0.0269
  395MOL0     C53204   3.919   8.830  10.690  0.0476 -0.1277  0.3092
  395MOL0     C53205   3.818   8.792  10.581 -0.6283  0.1823 -0.0722
  395MOL0     C53206   3.887   8.727  10.453  0.4935  0.5619  0.1367
  395MOL0     N53207   3.795   8.733  10.337 -0.4638  0.3601  0.6462
  395MOL0     C53208   3.682   8.813  10.320 -1.1622  0.8627  0.3193
  395MOL0     C53209   3.649   8.793  10.189 -0.5419 -0.3506  0.0627
  395MOL0     C53210   3.533   8.869  10.116  0.6318 -0.5645 -0.6496
  395MOL0     C53211   3.578   8.962  10.007  0.0554  0.3088 -0.5000
  395MOL0     C53212   3.654   9.078  10.078  0.0498  0.1490 -0.2392
  395MOL0     C53213   3.812   9.055  10.057  0.6011  0.3373 -0.0798
  395MOL0     O53214   3.890   9.172  10.084 -0.3797 -0.6339 -0.0382
  395MOL0     C53215   3.924   9.205  10.218 -0.1321 -0.0977  0.6193
  395MOL0     C53216   4.015   9.313  10.231 -0.5226 -0.6390  0.5708
  395MOL0     C53217   4.066   9.343  10.363 -0.0418 -0.3012 -0.1619
  395MOL0     C53218   4.023   9.278  10.476 -0.6916  0.5345  0.4812
  395MOL0     C53219   4.088   9.301  10.611  1.1106 -0.1926  0.4366
  395MOL0     O53220   4.158   9.412  10.637 -0.0237 -0.1733  0.0310
  395MOL0     C53221   4.240   9.428  10.741  0.2902  0.3447 -0.0624
  395MOL0     C53222   4.362   9.376  10.735 -0.2266  0.6112  0.2244
  395MOL0     C53223   4.457   9.386  10.831  0.3348 -0.1862 -0.3703
  395MOL0     C53224   4.413   9.445  10.951  0.8888 -0.3285 -1.0216
  395MOL0     O53225   4.490   9.469  11.061  0.0595 -0.3665  0.5287
  395MOL0     C53226   4.560   9.359  11.124  0.2925  0.5894 -0.9621
  395MOL0     C53227   4.467   9.282  11.214 -1.3667  0.4632 -0.3745
  395MOL0     C53228   4.344   9.216  11.139 -0.2023 -0.3294  0.3562
  395MOL0     C53229   4.279   9.128  11.239 -0.7076  0.4896  0.6956
  395MOL0     C53230   4.129   9.150  11.213 -0.4104  0.0718 -0.9404
  395MOL0     C53231   4.043   9.057  11.297 -0.3924 -0.0880  0.2555
  395MOL0     C53232   4.060   8.905  11.277  0.0085 -0.6870  0.5779
  395MOL0     C53233   4.033   8.816  11.409  0.2246 -0.1439 -0.0601
  395MOL0    Cl53234   4.148   8.856  11.523  0.0557 -0.6104 -0.2905
  395MOL0     C53235   4.286   9.511  10.961 -0.0170  0.3987 -0.3054
  395MOL0     C53236   4.203   9.510  10.849  0.7166  0.3252 -0.7280
  395MOL0     O53237   4.047   9.230  10.703  0.5499 -0.0452 -0.5215
  395MOL0     C53238   3.928   9.173  10.457  0.2730  0.4022 -0.3804
  395MOL0     C53239   3.872   9.144  10.329 -0.4016 -0.2382  0.1594
  395MOL0     N53240   3.733   8.702  10.127  1.1799  0.5536  0.2048
  395MOL0     N53241   3.827   8.672  10.216 -0.4055 -0.1892  0.7614
  395MOL0     C53242   4.420   8.341  11.167 -0.5848  0.5712 -0.7822
  395MOL0     C53243   4.521   8.261  11.226  0.1571 -0.0271 -0.1293
  395MOL0     C53244   4.690   7.925  11.468  1.0957 -0.0435  0.5980
  395MOL0     C53245   4.820   7.942  11.424 -0.5922 -0.0731 -0.1866
  395MOL0     C53246   4.916   7.877  11.497 -0.0066  0.1360 -0.1145
  395MOL0     C53247   4.886   7.803  11.618  0.3545  0.0523 -0.9415
  395MOL0     O53248   4.976   7.747  11.706  0.2587  0.3419  0.3592
  395MOL0     C53249   5.115   7.753  11.666 -0.1981 -0.8238  0.0756
  395MOL0     C53250   5.217   7.727  11.769 -0.4989  0.0638  0.1565
  395MOL0     C53251   5.205   7.576  11.832 -0.3268 -1.1870 -0.4438
  395MOL0     C53252   5.237   7.578  11.979 -1.0546 -0.1006  0.0038
  395MOL0     C53253   5.190   7.455  12.042  0.0645  0.0492  0.7986
  395MOL0     C53254   5.149   7.358  12.091  0.8022  0.1270  0.0602
  395MOL0     C53255   4.755   7.774  11.646  0.0361  0.3244 -1.0299
  395MOL0     C53256   4.655   7.838  11.577  0.1749  0.4410 -0.2740
  395MOL0     C53257   4.517   7.801  11.621 -0.4234 -0.8282 -0.7375
  395MOL0     H53258   4.376   7.968  11.171 -1.3848 -0.5100  0.9249
  395MOL0     H53259   4.211   8.098  11.077 -0.4910  0.5254  0.7237
  395MOL0     H53260   4.040   8.441  11.185  1.0415  0.8926  2.8819
  395MOL0     H53261   4.194   8.498  11.252  0.6890  2.0258 -0.2406
  395MOL0     H53262   4.238   8.644  11.091  0.1737 -2.2664 -2.9864
  395MOL0     H53263   4.082   8.680  11.157 -0.7753 -0.3328  0.3594
  395MOL0     H53264   3.979   8.539  10.954  1.5760 -1.5458 -3.0972
  395MOL0     H53265   4.143   8.559  10.889  0.2300 -2.8807  0.3135
  395MOL0     H53266   3.986   8.796  10.965  2.2523  2.2556 -0.5712
  395MOL0     H53267   4.127   8.785  10.859 -0.2938  0.5956  0.6123
  395MOL0     H53268   3.984   8.630  10.706 -0.7301  1.3747 -1.6004
  395MOL0     H53269   3.839   8.662  10.807  0.1139 -2.5852 -0.6718
  395MOL0     H53270   3.876   8.910  10.751  0.2974  0.5344 -0.3696
  395MOL0     H53271   4.015   8.868  10.655 -1.2513  0.6308 -2.7852
  395MOL0     H53272   3.767   8.885  10.555 -0.6725 -0.3177 -1.9523
  395MOL0     H53273   3.751   8.713  10.617 -0.6488  0.0611 -0.3703
  395MOL0     H53274   3.982   8.774  10.426  0.8262  0.1130  0.5281
  395MOL0     H53275   3.901   8.621  10.475 -1.8062  0.3213  0.7756
  395MOL0     H53276   3.628   8.877  10.389 -2.2301 -0.4621  0.7631
  395MOL0     H53277   3.473   8.786  10.078 -1.8360 -0.0291  1.7573
  395MOL0     H53278   3.468   8.922  10.186  0.8720 -2.0205  0.7605
  395MOL0     H53279   3.644   8.908   9.938  2.9518 -0.5237  2.6875
  395MOL0     H53280   3.487   8.989   9.952 -0.2853 -0.7579 -0.4883
  395MOL0     H53281   3.628   9.077  10.184 -0.8940 -1.8150 -0.4471
  395MOL0     H53282   3.623   9.175  10.036  0.5943  0.6831  0.5757
  395MOL0     H53283   3.841   9.014   9.960  2.2917 -0.1014  0.5682
  395MOL0     H53284   3.841   8.975  10.126 -0.2736  1.0858  1.2133
  395MOL0     H53285   4.065   9.356  10.145 -1.3560  2.9094  1.6893
  395MOL0     H53286   4.145   9.417  10.367  1.1786 -1.3308 -2.6599
  395MOL0     H53287   4.394   9.321  10.647  0.8271  0.9143  0.3979
  395MOL0     H53288   4.556   9.341  10.824  0.2476 -0.2469 -1.3551
  395MOL0     H53289   4.608   9.300  11.044 -1.4804 -0.0564 -1.5955
  395MOL0     H53290   4.639   9.395  11.191 -1.0743  0.3705  0.8319
  395MOL0     H53291   4.527   9.197  11.247 -2.1823 -2.1550 -4.7748
  395MOL0     H53292   4.452   9.337  11.308  0.5863 -0.2508  0.4057
  395MOL0     H53293   4.280   9.301  11.115  1.0285  0.4937 -0.1600
  395MOL0     H53294   4.366   9.162  11.047  0.0839 -1.1175  0.8716
  395MOL0     H53295   4.306   9.157  11.341  0.8039 -0.3979  0.5689
  395MOL0     H53296   4.314   9.026  11.225 -1.6844  0.3734 -1.1979
  395MOL0     H53297   4.104   9.136  11.107 -1.5873 -2.0792 -0.4429
  395MOL0     H53298   4.122   9.254  11.246 -0.0437 -0.2752  0.2514
  395MOL0     H53299   4.056   9.086  11.402 -2.9289  1.2875  0.2677
  395MOL0     H53300   3.936   9.070  11.279 -0.5500  1.2256  1.8642
  395MOL0     H53301   4.159   8.879  11.239  0.5511  2.9484 -0.9435
  395MOL0     H53302   3.984   8.878  11.203  2.3974 -1.8730 -1.5738
  395MOL0     H53303   3.939   8.848  11.454  1.0112  2.1755  0.0797
  395MOL0     H53304   4.034   8.711  11.378 -4.9149 -0.8762  1.3606
  395MOL0     H53305   4.258   9.581  11.038 -1.4949  2.2351 -2.3761
  395MOL0     H53306   4.108   9.562  10.861  0.4145 -0.6922  2.0102
  395MOL0     H53307   3.883   9.135  10.549 -0.0538  2.0531  0.1766
  395MOL0     H53308   3.801   9.063  10.310  0.0785 -0.3360 -1.3156
  395MOL0     H53309   4.417   8.449  11.181 -0.9258  0.2526  2.5816
  395MOL0     H53310   4.611   8.304  11.270  0.3990 -0.8509  0.1984
  395MOL0     H53311   4.853   8.001  11.339  0.2753  0.7956  0.7217
  395MOL0     H53312   5.021   7.899  11.479  1.1526 -1.4091  3.6482
  395MOL0     H53313   5.145   7.848  11.620 -0.6992 -0.0805  1.2468
  395MOL0     H53314   5.122   7.676  11.588  3.0914  0.4946 -1.1101
  395MOL0     H53315   5.200   7.806  11.842 -0.0678  1.3583 -1.1012
  395MOL0     H53316   5.317   7.736  11.724 -0.4009  1.1173  0.5704
  395MOL0     H53317   5.263   7.502  11.776  0.6789 -1.2236  0.5906
  395MOL0     H53318   5.104   7.537  11.821 -0.3289 -0.5375 -3.3466
  395MOL0     H53319   5.343   7.592  11.999 -2.1668  2.6317  6.0761
  395MOL0     H53320   5.197   7.668  12.028  1.3194  0.8956  0.2237
  395MOL0     H53321   5.125   7.275  12.153  1.1120 -0.2792 -0.3602
  395MOL0     H53322   4.731   7.712  11.732  2.0637 -1.5346 -1.7292
  395MOL0     H53323   4.454   7.791  11.533 -1.9150  1.5420 -0.0150
  395MOL0     H53324   4.508   7.702  11.668 -1.9536 -1.0827 -1.5006
  395MOL0     H53325   4.478   7.875  11.691 -0.7874 -3.0017  1.5007
  396MOL0     O53326   4.950   3.825   9.143  0.2661 -0.1866  0.7886
  396MOL0     C53327   4.863   3.838   9.055 -1.3759  0.1182 -0.4690
  396MOL0     O53328   4.872   3.921   8.951  0.5625  1.1162 -0.9757
  396MOL0     C53329   4.901   4.052   8.962 -0.5219  0.7419  1.0190
  396MOL0     C53330   4.804   4.150   8.932 -0.0022  0.1197  0.2767
  396MOL0     C53331   4.837   4.284   8.948  0.1339 -0.3549 -1.5753
  396MOL0     C53332   4.966   4.315   9.008  1.0355  0.6130 -0.0541
  396MOL0     O53333   4.989   4.452   9.006  0.9007 -0.3183  0.1998
  396MOL0     C53334   5.119   4.502   9.004 -0.6367  0.4162 -0.7513
  396MOL0     C53335   5.168   4.528   8.863  0.0733  0.5643 -0.5908
  396MOL0     C53336   5.127   4.667   8.823 -0.4746 -0.9096 -0.0126
  396MOL0     C53337   5.187   4.709   8.697  0.1837 -0.0866  0.4552
  396MOL0     C53338   5.153   4.628   8.580  1.4647  0.7252 -0.0363
  396MOL0     C53339   5.099   4.706   8.460  0.5296 -0.3101  0.3194
  396MOL0     C53340   4.943   4.705   8.442 -0.1044  0.1190 -0.6617
  396MOL0     C53341   4.895   4.761   8.308 -0.5135 -0.0950  1.3478
  396MOL0     N53342   4.745   4.751   8.302 -0.2562  0.5535  0.4149
  396MOL0     C53343   4.672   4.631   8.262 -0.4370 -0.1975 -0.7152
  396MOL0     C53344   4.544   4.663   8.267  0.7345 -0.0537 -0.1898
  396MOL0     C53345   4.424   4.569   8.241  0.7382 -0.1409 -0.6433
  396MOL0     C53346   4.369   4.570   8.103 -0.1750 -0.8421  1.3935
  396MOL0     C53347   4.374   4.708   8.032  0.5028  0.1297  0.0421
  396MOL0     C53348   4.313   4.689   7.895 -0.4310  0.0789  0.3918
  396MOL0     O53349   4.272   4.824   7.850  0.2289 -0.0320 -0.2892
  396MOL0     C53350   4.327   4.863   7.728  0.0862  0.9680  0.6833
  396MOL0     C53351   4.458   4.847   7.692  0.8475 -0.6079 -0.0514
  396MOL0     C53352   4.506   4.871   7.562 -0.2728  0.0271 -0.2856
  396MOL0     C53353   4.416   4.917   7.467  0.2090 -0.0426 -0.4580
  396MOL0     C53354   4.471   4.960   7.331  0.9970  0.0865 -0.8421
  396MOL0     O53355   4.600   4.975   7.317 -0.4954  1.0370 -0.3899
  396MOL0     C53356   4.656   5.031   7.206  0.3628  0.5246  1.2058
  396MOL0     C53357   4.616   5.158   7.153 -0.1789 -0.1446 -0.5640
  396MOL0     C53358   4.686   5.208   7.041 -0.8207 -0.0379  0.4834
  396MOL0     C53359   4.793   5.140   6.982  0.0209  0.3621  0.5323
  396MOL0     O53360   4.865   5.203   6.877  0.0001 -0.2585 -0.3063
  396MOL0     C53361   5.004   5.234   6.903 -0.4778  0.1517 -0.3405
  396MOL0     C53362   5.103   5.222   6.779  0.4757 -0.2813 -0.4325
  396MOL0     C53363   5.054   5.318   6.672 -0.2790  0.3001  0.9106
  396MOL0     C53364   5.047   5.465   6.725  1.1012 -0.7210  0.1255
  396MOL0     C53365   5.011   5.564   6.607 -0.0489  0.1862  0.2851
  396MOL0     C53366   4.971   5.711   6.636  0.2062 -0.4082 -0.3427
  396MOL0     C53367   5.096   5.799   6.664 -0.6604  0.5714  0.4238
  396MOL0     C53368   5.051   5.945   6.675  0.9413  0.7869 -0.9786
  396MOL0    Cl53369   5.185   6.052   6.694  0.2274  0.4464  0.3838
  396MOL0     C53370   4.811   5.011   7.022  0.6084  0.1210 -0.0066
  396MOL0     C53371   4.743   4.954   7.129  0.8334 -0.0517  0.0641
  396MOL0     O53372   4.385   4.985   7.248 -0.1170 -0.1983  0.6920
  396MOL0     C53373   4.282   4.938   7.499  0.4688  0.5370 -0.6331
  396MOL0     C53374   4.235   4.898   7.625  0.2521 -0.4898 -0.1689
  396MOL0     N53375   4.533   4.793   8.325 -0.5968 -0.1912 -0.4179
  396MOL0     N53376   4.653   4.841   8.342  0.2373 -0.4767 -0.6501
  396MOL0     C53377   5.059   4.214   9.038  0.8570 -0.1209  0.9625
  396MOL0     C53378   5.026   4.086   9.013  0.0430 -0.2536 -0.4356
  396MOL0     C53379   4.766   3.721   9.026 -0.2444 -0.3780  0.5731
  396MOL0     C53380   4.720   3.709   8.890  0.9044  0.4681  0.6078
  396MOL0     C53381   4.624   3.617   8.865 -0.1178  0.1451 -0.0257
  396MOL0     C53382   4.571   3.531   8.963 -0.2416 -0.1230  0.2406
  396MOL0     O53383   4.500   3.427   8.925  0.1993 -1.0338 -0.0377
  396MOL0     C53384   4.401   3.442   8.820  0.1393 -0.3331 -0.7557
  396MOL0     C53385   4.274   3.373   8.866  0.0817 -0.2701 -0.5893
  396MOL0     C53386   4.191   3.466   8.959 -0.8467  0.8312  0.5087
  396MOL0     C53387   4.045   3.438   8.979 -0.3062  0.4305 -0.3498
  396MOL0     C53388   4.017   3.314   9.065  0.3811 -1.7479  1.3115
  396MOL0     C53389   3.965   3.211   9.097 -0.5105  1.3028 -0.0277
  396MOL0     C53390   4.625   3.530   9.087  0.2495 -0.6765 -0.8462
  396MOL0     C53391   4.721   3.627   9.123 -0.8145  0.1030  0.0385
  396MOL0     C53392   4.764   3.639   9.270  0.0172 -0.0856 -0.0204
  396MOL0     H53393   4.705   4.123   8.896  0.2880  0.9386 -1.2006
  396MOL0     H53394   4.768   4.358   8.909  0.5728  1.0896  0.2674
  396MOL0     H53395   5.116   4.595   9.062 -2.7200  0.2300 -0.4691
  396MOL0     H53396   5.182   4.436   9.065 -2.7608  2.0022  3.6024
  396MOL0     H53397   5.134   4.446   8.799  1.8369 -1.4851  0.9876
  396MOL0     H53398   5.277   4.520   8.861  0.1790  0.0691  2.8238
  396MOL0     H53399   5.151   4.735   8.906  0.5404 -1.4927  0.1817
  396MOL0     H53400   5.019   4.650   8.816 -1.0429  0.2709  3.5034
  396MOL0     H53401   5.147   4.808   8.671 -2.5701 -1.3430 -0.5093
  396MOL0     H53402   5.290   4.713   8.732  0.0266 -3.2178  1.5562
  396MOL0     H53403   5.246   4.586   8.539  3.7009  2.4569  2.8488
  396MOL0     H53404   5.079   4.550   8.598  0.0899  2.2848  1.3700
  396MOL0     H53405   5.129   4.810   8.451  2.4029 -0.7916  0.6610
  396MOL0     H53406   5.135   4.653   8.372  0.1505  0.6854 -0.4591
  396MOL0     H53407   4.903   4.756   8.530  1.1939 -1.4545  0.9260
  396MOL0     H53408   4.911   4.603   8.467  3.6762 -0.7482  1.5057
  396MOL0     H53409   4.924   4.865   8.292  1.2807 -0.3624  2.5246
  396MOL0     H53410   4.938   4.712   8.220  0.0592 -2.8208  3.0290
  396MOL0     H53411   4.725   4.557   8.203  1.5800  1.8637 -1.6267
  396MOL0     H53412   4.453   4.465   8.259  0.3505 -0.1936 -0.3210
  396MOL0     H53413   4.348   4.589   8.316  1.2020  3.5896 -0.9946
  396MOL0     H53414   4.401   4.487   8.040 -1.7409  2.8637 -5.1502
  396MOL0     H53415   4.263   4.576   8.130  0.1172  2.9756  2.1910
  396MOL0     H53416   4.474   4.749   8.019  0.6583 -0.8234 -2.2246
  396MOL0     H53417   4.308   4.770   8.093  0.6781  0.8354 -0.4711
  396MOL0     H53418   4.224   4.626   7.892 -2.2485  2.4427  0.9634
  396MOL0     H53419   4.386   4.636   7.834  0.9780 -2.2215  3.7654
  396MOL0     H53420   4.537   4.816   7.760  1.1638 -0.8119 -0.5051
  396MOL0     H53421   4.607   4.836   7.541 -1.1643 -1.6623 -2.0745
  396MOL0     H53422   4.546   5.225   7.201  0.7864  0.4650  0.0365
  396MOL0     H53423   4.654   5.307   7.010 -1.7933 -0.2895  0.6688
  396MOL0     H53424   5.001   5.334   6.948 -2.3838  0.3504 -0.8222
  396MOL0     H53425   5.037   5.170   6.985 -2.1045 -0.3098 -0.0150
  396MOL0     H53426   5.208   5.246   6.801  0.1221  2.1503 -1.0961
  396MOL0     H53427   5.102   5.121   6.738  0.4086  0.0317 -1.2131
  396MOL0     H53428   5.135   5.322   6.598  1.4213 -0.9055  2.6022
  396MOL0     H53429   4.963   5.282   6.624  0.4497 -1.1992  0.5605
  396MOL0     H53430   5.141   5.487   6.774  1.3171 -0.1529 -0.5283
  396MOL0     H53431   4.971   5.483   6.802  0.3957 -2.2655 -0.1642
  396MOL0     H53432   4.921   5.517   6.567  0.5862  0.7471 -1.8981
  396MOL0     H53433   5.086   5.566   6.529  0.5034  0.7626  0.8227
  396MOL0     H53434   4.931   5.751   6.542  0.3008  1.2787  0.2958
  396MOL0     H53435   4.894   5.710   6.714  0.4682 -0.6705 -0.0846
  396MOL0     H53436   5.175   5.794   6.589 -1.7923  1.8182 -0.9172
  396MOL0     H53437   5.134   5.772   6.763  3.2183  4.7216  0.3799
  396MOL0     H53438   4.998   5.982   6.587 -1.1967  1.1641  0.3824
  396MOL0     H53439   4.987   5.943   6.764  1.1503 -1.4474 -0.8060
  396MOL0     H53440   4.871   4.946   6.959  0.1761 -2.5183  2.1526
  396MOL0     H53441   4.743   4.846   7.139  0.3935 -0.2757 -1.9130
  396MOL0     H53442   4.208   4.976   7.431 -1.1329  0.0996  0.8010
  396MOL0     H53443   4.131   4.894   7.653 -0.2177 -0.3844 -1.8191
  396MOL0     H53444   5.155   4.227   9.086  1.5086 -3.4000  0.7290
  396MOL0     H53445   5.095   4.016   9.057 -1.5264 -1.0306  0.8869
  396MOL0     H53446   4.745   3.779   8.811 -1.1371  1.1798  0.5138
  396MOL0     H53447   4.587   3.622   8.763 -1.4044 -1.7087  0.2912
  396MOL0     H53448   4.438   3.398   8.727  0.5061 -1.7287  0.0303
  396MOL0     H53449   4.378   3.549   8.807 -2.0885 -0.0186  3.8650
  396MOL0     H53450   4.292   3.278   8.916 -1.7096  0.4017  1.4776
  396MOL0     H53451   4.211   3.355   8.779  0.3555  0.4506 -0.9505
  396MOL0     H53452   4.208   3.565   8.918  1.9760 -0.2825 -1.3339
  396MOL0     H53453   4.235   3.477   9.059  0.0449 -1.9478  0.5181
  396MOL0     H53454   3.995   3.524   9.022  0.9815  0.2649  1.6095
  396MOL0     H53455   4.007   3.421   8.878  1.2322 -2.4939 -0.5464
  396MOL0     H53456   3.906   3.125   9.118 -2.3320  1.9016 -2.2654
  396MOL0     H53457   4.576   3.476   9.168 -1.1597  0.2285 -1.0459
  396MOL0     H53458   4.686   3.615   9.343 -1.4031 -0.5775 -1.6174
  396MOL0     H53459   4.850   3.574   9.285  0.3223  0.6746  1.7487
  396MOL0     H53460   4.789   3.740   9.304 -0.8693 -0.7668  2.9252
  397MOL0     O53461   7.281   0.039   4.143 -0.2635  0.1327  1.0651
  397MOL0     C53462   7.369  -0.011   4.220 -1.0522  0.1379  1.3286
  397MOL0     O53463   7.378  -0.138   4.258  0.1577 -0.0225 -0.1344
  397MOL0     C53464   7.332  -0.232   4.169  0.3067 -0.0233 -0.3408
  397MOL0     C53465   7.221  -0.315   4.209 -0.3162  0.9121  0.3963
  397MOL0     C53466   7.168  -0.406   4.115 -0.1783 -0.1906 -0.1400
  397MOL0     C53467   7.241  -0.430   3.995 -0.1612 -0.6745  0.3826
  397MOL0     O53468   7.212  -0.533   3.906  0.4155  0.0547 -0.1208
  397MOL0     C53469   7.135  -0.490   3.794  0.1830 -0.1119  0.7310
  397MOL0     C53470   7.047  -0.610   3.742  0.4973 -0.0937 -0.1263
  397MOL0     C53471   6.956  -0.675   3.848 -0.1112 -0.2692 -0.1787
  397MOL0     C53472   6.888  -0.799   3.773  0.2130 -0.4591 -0.6855
  397MOL0     C53473   6.810  -0.890   3.870  1.1481 -0.6349  0.9246
  397MOL0     C53474   6.702  -0.977   3.794 -0.7681 -0.7318  0.2597
  397MOL0     C53475   6.752  -1.067   3.680  0.7449  1.1529  0.5413
  397MOL0     C53476   6.638  -1.153   3.621 -1.2355 -0.9871 -0.0792
  397MOL0     N53477   6.702  -1.269   3.552 -0.1608  1.1779 -0.0735
  397MOL0     C53478   6.733  -1.398   3.604 -0.2395 -0.0717 -0.5955
  397MOL0     C53479   6.786  -1.468   3.502 -1.1950  0.4134 -0.3331
  397MOL0     C53480   6.811  -1.613   3.481 -0.2862 -0.5626 -0.2846
  397MOL0     C53481   6.952  -1.663   3.522  0.2940  0.6423  0.2199
  397MOL0     C53482   7.041  -1.660   3.406 -0.5370 -0.0795  0.2565
  397MOL0     C53483   7.162  -1.747   3.426  0.2894 -0.8522  0.3477
  397MOL0     O53484   7.239  -1.751   3.300  0.5080 -0.7629  0.5828
  397MOL0     C53485   7.326  -1.858   3.287  0.9761  0.1097  1.0103
  397MOL0     C53486   7.371  -1.876   3.159 -0.7109 -0.6258 -0.1405
  397MOL0     C53487   7.452  -1.984   3.132 -0.0766  0.9582  0.0743
  397MOL0     C53488   7.510  -2.070   3.235 -0.6887  0.5774  0.0679
  397MOL0     C53489   7.597  -2.191   3.197  0.8265  0.2780  0.2172
  397MOL0     O53490   7.622  -2.194   3.059 -0.6491 -0.9861  0.3326
  397MOL0     C53491   7.703  -2.288   3.003 -1.0576 -1.2861  0.5646
  397MOL0     C53492   7.695  -2.419   3.020 -0.4327  0.2435  0.3243
  397MOL0     C53493   7.774  -2.513   2.953  0.1779 -0.5107 -0.1411
  397MOL0     C53494   7.860  -2.455   2.843 -0.8002  0.2776  0.0810
  397MOL0     O53495   7.957  -2.519   2.766 -0.3493  0.1732  0.0485
  397MOL0     C53496   8.005  -2.643   2.824  0.7555 -0.7283  0.1097
  397MOL0     C53497   8.129  -2.685   2.738  0.3453  0.5043  0.9832
  397MOL0     C53498   8.234  -2.574   2.736 -0.0053  0.3114 -0.0544
  397MOL0     C53499   8.366  -2.622   2.671 -0.0410  0.9451  0.8891
  397MOL0     C53500   8.462  -2.505   2.668  0.1920  0.3234  0.0102
  397MOL0     C53501   8.422  -2.404   2.569  0.2474 -0.4702 -0.7620
  397MOL0     C53502   8.375  -2.448   2.429 -0.2364  0.2798 -0.3348
  397MOL0     C53503   8.310  -2.332   2.360  0.1172 -0.0655 -0.0946
  397MOL0    Cl53504   8.229  -2.372   2.204  0.0228  0.0804 -0.5859
  397MOL0     C53505   7.869  -2.319   2.825  0.3919 -0.3100  0.2025
  397MOL0     C53506   7.791  -2.236   2.906 -0.2102  0.2079  0.1983
  397MOL0     O53507   7.625  -2.280   3.275 -0.8680 -0.6838  0.1541
  397MOL0     C53508   7.466  -2.040   3.367  0.0866  0.4456 -0.1160
  397MOL0     C53509   7.381  -1.936   3.386  0.0804  0.4802  0.2813
  397MOL0     N53510   6.789  -1.382   3.394  0.8155  0.6091  0.2825
  397MOL0     N53511   6.748  -1.266   3.422  0.4814  0.2475  0.3701
  397MOL0     C53512   7.354  -0.336   3.962 -0.2373  0.2621  0.5303
  397MOL0     C53513   7.396  -0.241   4.048  0.0678  0.2232 -0.1677
  397MOL0     C53514   7.462   0.081   4.298 -0.6883 -0.2627 -0.1127
  397MOL0     C53515   7.542   0.026   4.407  0.4057  0.3879  0.1723
  397MOL0     C53516   7.620   0.103   4.485 -1.1094 -0.0377 -0.2957
  397MOL0     C53517   7.631   0.241   4.467 -0.4479 -0.5079  0.3245
  397MOL0     O53518   7.701   0.328   4.540 -0.7259 -0.4551  0.1502
  397MOL0     C53519   7.804   0.284   4.636  1.0103  0.3836 -0.5856
  397MOL0     C53520   7.885   0.401   4.685 -0.7168  0.2265  0.2738
  397MOL0     C53521   7.822   0.465   4.809  0.4669  0.0930  0.8111
  397MOL0     C53522   7.924   0.537   4.888  0.7815 -0.8738  0.0777
  397MOL0     C53523   8.020   0.459   4.970 -0.5560  0.5956  0.1778
  397MOL0     C53524   8.096   0.390   5.039  1.2081  1.0365  0.6229
  397MOL0     C53525   7.550   0.303   4.371 -0.4868 -0.0126  0.1927
  397MOL0     C53526   7.466   0.228   4.282 -0.4593  0.3587  0.8771
  397MOL0     C53527   7.389   0.312   4.180 -0.0251  0.9921 -1.4698
  397MOL0     H53528   7.171  -0.308   4.305 -1.0803  1.5369 -0.0313
  397MOL0     H53529   7.091  -0.478   4.140 -3.0161  2.4151 -0.7440
  397MOL0     H53530   7.065  -0.409   3.817 -0.2016 -1.0391  3.0313
  397MOL0     H53531   7.189  -0.458   3.704 -0.9293  0.4591  0.2436
  397MOL0     H53532   7.113  -0.692   3.713 -0.8425 -1.3865  0.3600
  397MOL0     H53533   6.976  -0.586   3.663 -1.7738 -0.7969  1.6005
  397MOL0     H53534   6.879  -0.602   3.875  0.2392 -0.2019  0.6822
  397MOL0     H53535   7.015  -0.709   3.934 -3.1961 -2.0442  1.4027
  397MOL0     H53536   6.815  -0.767   3.698 -0.0552 -0.9382 -0.6355
  397MOL0     H53537   6.956  -0.874   3.732  1.6465 -0.2615  1.1789
  397MOL0     H53538   6.872  -0.962   3.923  1.6045 -0.9836 -0.0558
  397MOL0     H53539   6.764  -0.828   3.948 -0.5385  0.1451 -0.6007
  397MOL0     H53540   6.639  -1.043   3.855 -0.8081 -0.2074  0.7960
  397MOL0     H53541   6.631  -0.905   3.752 -0.3424  0.1535  1.0261
  397MOL0     H53542   6.823  -1.140   3.719 -1.7198 -0.0079  3.2685
  397MOL0     H53543   6.804  -1.008   3.604 -0.0182 -0.3213 -1.2089
  397MOL0     H53544   6.582  -1.207   3.697  4.1034 -3.3817  2.7405
  397MOL0     H53545   6.582  -1.087   3.555 -1.0492 -0.1582  0.5850
  397MOL0     H53546   6.701  -1.430   3.702 -0.6118  2.8104  0.3272
  397MOL0     H53547   6.735  -1.669   3.537 -1.0698 -0.4623 -1.2177
  397MOL0     H53548   6.802  -1.635   3.375  1.7626  0.5008 -0.7242
  397MOL0     H53549   6.978  -1.611   3.615 -0.1115 -0.3142  0.8875
  397MOL0     H53550   6.951  -1.768   3.555 -1.6519  0.0051 -1.6403
  397MOL0     H53551   7.066  -1.558   3.374 -2.1749  0.0992 -0.5254
  397MOL0     H53552   6.990  -1.699   3.318 -1.0052  0.5073  0.2599
  397MOL0     H53553   7.135  -1.849   3.452  0.2253 -1.3795 -1.6798
  397MOL0     H53554   7.225  -1.705   3.506  0.3333 -0.7463  0.2585
  397MOL0     H53555   7.331  -1.807   3.085  0.2100 -0.6958 -0.7247
  397MOL0     H53556   7.458  -1.999   3.024 -0.1946  1.1861  0.0354
  397MOL0     H53557   7.624  -2.460   3.092 -0.7839 -0.5861 -0.4773
  397MOL0     H53558   7.774  -2.621   2.968  0.8240 -0.3877  0.8093
  397MOL0     H53559   8.045  -2.632   2.925  1.8954 -3.8855  0.1242
  397MOL0     H53560   7.941  -2.732   2.819  0.3471 -0.4184 -0.3703
  397MOL0     H53561   8.164  -2.773   2.793 -1.4482 -0.8643  0.0532
  397MOL0     H53562   8.110  -2.718   2.635  0.4063  0.9200  0.8350
  397MOL0     H53563   8.192  -2.483   2.692  1.5841  2.0774  1.8765
  397MOL0     H53564   8.251  -2.558   2.842  2.3793 -3.0739  0.2294
  397MOL0     H53565   8.358  -2.666   2.571 -0.0184  1.7459  0.5246
  397MOL0     H53566   8.401  -2.710   2.726 -2.7846 -2.1164 -1.7952
  397MOL0     H53567   8.562  -2.545   2.651 -0.1445 -1.3212  1.5307
  397MOL0     H53568   8.461  -2.471   2.772 -1.0072  0.6374 -0.0828
  397MOL0     H53569   8.336  -2.357   2.618 -0.5447 -4.4318  2.2491
  397MOL0     H53570   8.507  -2.336   2.567 -1.4265  1.7241 -2.2821
  397MOL0     H53571   8.292  -2.517   2.440 -0.5555  0.5120 -1.1931
  397MOL0     H53572   8.449  -2.505   2.372  0.2073 -3.4332  3.4111
  397MOL0     H53573   8.237  -2.295   2.432  1.2106 -0.9468  1.5347
  397MOL0     H53574   8.385  -2.253   2.345  0.2674 -0.5288 -2.0756
  397MOL0     H53575   7.943  -2.285   2.753 -1.0681  1.7768 -0.4082
  397MOL0     H53576   7.781  -2.130   2.883  0.2243  0.4136  0.9169
  397MOL0     H53577   7.485  -2.089   3.462 -2.0528  3.8645  2.2502
  397MOL0     H53578   7.358  -1.909   3.489  0.0845 -0.1498  0.4471
  397MOL0     H53579   7.405  -0.331   3.866  1.0600 -1.3490  1.0918
  397MOL0     H53580   7.487  -0.190   4.017  0.8916 -1.9017 -1.5203
  397MOL0     H53581   7.531  -0.079   4.431 -0.6206 -0.2500 -2.6995
  397MOL0     H53582   7.681   0.046   4.555  1.1558  0.9664 -1.3431
  397MOL0     H53583   7.865   0.210   4.584 -1.8574 -0.9666 -2.3029
  397MOL0     H53584   7.761   0.234   4.723  1.5970  1.5009  0.3692
  397MOL0     H53585   7.876   0.473   4.604 -0.6639 -0.8373 -0.6966
  397MOL0     H53586   7.990   0.373   4.694 -0.5708  0.2960 -1.0479
  397MOL0     H53587   7.781   0.394   4.881 -0.6243  0.5620  0.6681
  397MOL0     H53588   7.745   0.536   4.778  1.2990  0.4936 -0.4639
  397MOL0     H53589   7.978   0.610   4.827 -0.3437 -0.4837 -0.4840
  397MOL0     H53590   7.857   0.587   4.958 -2.1870  0.0959 -3.1818
  397MOL0     H53591   8.157   0.338   5.110 -1.0348  0.1233  2.0037
  397MOL0     H53592   7.572   0.409   4.376 -1.6274  0.1818  2.2999
  397MOL0     H53593   7.280   0.307   4.195  0.0262 -0.0766 -1.3390
  397MOL0     H53594   7.410   0.419   4.171 -0.8029  1.3985  0.9537
  397MOL0     H53595   7.396   0.261   4.083  1.7259 -2.3507  0.2271
  398MOL0     O53596   1.621   9.994   7.183 -0.6038  0.4612  0.0871
  398MOL0     C53597   1.710  10.063   7.227 -0.1262  0.0461  0.4499
  398MOL0     O53598   1.717  10.120   7.347 -0.3594 -0.6884 -0.0481
  398MOL0     C53599   1.604  10.127   7.420 -0.1265 -0.5226 -0.9591
  398MOL0     C53600   1.589  10.054   7.549  0.8320 -0.7746  1.2372
  398MOL0     C53601   1.469  10.076   7.618  0.0625  0.8028 -0.7053
  398MOL0     C53602   1.375  10.173   7.583 -0.4883  0.5552  0.3299
  398MOL0     O53603   1.254  10.189   7.650  0.1757  0.6807 -0.1281
  398MOL0     C53604   1.140  10.113   7.593  0.4308 -0.1037 -0.2045
  398MOL0     C53605   1.160   9.960   7.608  0.3640  0.1362  0.6709
  398MOL0     C53606   1.026   9.892   7.609  0.3792  0.3408  0.3423
  398MOL0     C53607   0.937   9.912   7.481  0.8347  0.4862 -0.6340
  398MOL0     C53608   0.791   9.887   7.504 -0.1488 -0.5011 -0.2822
  398MOL0     C53609   0.719   9.960   7.611 -0.0454  0.3043 -0.4427
  398MOL0     C53610   0.731  10.117   7.599 -0.2289 -0.6105 -0.3788
  398MOL0     C53611   0.702  10.181   7.742  0.5667  0.4490 -0.2252
  398MOL0     N53612   0.564  10.162   7.785 -0.6930 -0.3912  1.1814
  398MOL0     C53613   0.474  10.261   7.793  0.0879  0.5663  0.6822
  398MOL0     C53614   0.365  10.215   7.872 -1.1355 -1.3634 -0.2118
  398MOL0     C53615   0.238  10.286   7.912 -0.7664 -0.7444  0.0155
  398MOL0     C53616   0.115  10.267   7.830 -0.6740  0.1150  1.9832
  398MOL0     C53617   0.022  10.160   7.885 -0.0971 -0.6062 -0.2751
  398MOL0     C53618  -0.062  10.107   7.769  0.5890 -0.2795 -0.3909
  398MOL0     O53619  -0.043   9.966   7.743  0.4590 -0.4726  0.4076
  398MOL0     C53620   0.054   9.933   7.646  1.5380 -0.9345  0.3964
  398MOL0     C53621   0.185   9.980   7.654 -0.5280 -0.0256 -0.1054
  398MOL0     C53622   0.268   9.945   7.547 -0.9997  0.4735 -1.0381
  398MOL0     C53623   0.219   9.880   7.432 -0.2365  0.9746  0.0517
  398MOL0     C53624   0.301   9.859   7.319  0.6511 -0.5436  1.1483
  398MOL0     O53625   0.432   9.836   7.338  0.0741  0.3854 -0.9165
  398MOL0     C53626   0.512   9.839   7.229  1.1450  0.0533 -0.3631
  398MOL0     C53627   0.556   9.730   7.155 -0.6621  0.2812 -0.1121
  398MOL0     C53628   0.648   9.744   7.051 -0.3801 -0.6795 -0.0267
  398MOL0     C53629   0.707   9.865   7.016 -0.3500  0.4165 -0.1224
  398MOL0     O53630   0.796   9.869   6.908 -0.9435 -0.8560  0.2915
  398MOL0     C53631   0.863   9.741   6.867 -0.1815  0.1738  0.2997
  398MOL0     C53632   0.962   9.778   6.748 -0.0607 -0.3241 -0.5824
  398MOL0     C53633   1.005   9.658   6.664 -0.0283  0.0809 -0.2551
  398MOL0     C53634   1.100   9.575   6.739 -0.1690 -0.6876  0.5215
  398MOL0     C53635   1.161   9.473   6.648  0.1734  0.4593  0.1726
  398MOL0     C53636   1.224   9.351   6.723 -0.3075 -0.5320  0.7026
  398MOL0     C53637   1.361   9.378   6.762 -1.7459  0.1405 -0.7888
  398MOL0     C53638   1.437   9.252   6.821  0.3734 -0.2990 -0.3024
  398MOL0    Cl53639   1.595   9.287   6.904  0.2720  0.4197 -0.2148
  398MOL0     C53640   0.667   9.973   7.098  0.0775 -0.2578  0.1520
  398MOL0     C53641   0.573   9.959   7.195 -1.0868 -1.0953 -0.5323
  398MOL0     O53642   0.243   9.868   7.209 -0.5864 -0.1163 -0.3296
  398MOL0     C53643   0.087   9.830   7.429  0.2872  0.3873  0.3078
  398MOL0     C53644   0.001   9.850   7.544  0.1052  0.2210 -0.2784
  398MOL0     N53645   0.414  10.101   7.929 -0.3222  0.1775 -0.2688
  398MOL0     N53646   0.520  10.058   7.875 -0.5658 -0.2474  0.0734
  398MOL0     C53647   1.401  10.252   7.474 -0.0743  0.6143  0.5934
  398MOL0     C53648   1.512  10.228   7.386  0.7859 -0.5610 -0.4731
  398MOL0     C53649   1.819  10.093   7.135  0.0731  0.8754  0.2317
  398MOL0     C53650   1.785  10.106   6.994  0.1998  1.1789 -0.2115
  398MOL0     C53651   1.889  10.129   6.904 -0.2180  0.4822 -0.0976
  398MOL0     C53652   2.018  10.152   6.940  0.4588 -0.3928  0.1866
  398MOL0     O53653   2.097  10.192   6.837 -0.5638 -0.4248 -0.3895
  398MOL0     C53654   2.233  10.222   6.855  0.5913  0.1497  0.2713
  398MOL0     C53655   2.302  10.297   6.740  0.5025 -0.5326  0.1175
  398MOL0     C53656   2.244  10.272   6.598  0.3727 -1.0023  0.4853
  398MOL0     C53657   2.315  10.342   6.481  0.3930  0.1005 -0.1377
  398MOL0     C53658   2.282  10.486   6.482  0.3399 -0.6265  0.0678
  398MOL0     C53659   2.232  10.598   6.487 -1.0487  0.1768 -0.3467
  398MOL0     C53660   2.045  10.146   7.070 -0.0057  0.2974  0.1402
  398MOL0     C53661   1.956  10.114   7.166 -0.5444 -0.0277  0.8406
  398MOL0     C53662   2.011  10.117   7.306  0.0064 -0.1419  0.1688
  398MOL0     H53663   1.674   9.991   7.573  0.7179  0.0580  4.1469
  398MOL0     H53664   1.456  10.011   7.703 -2.1938  2.0545 -0.0135
  398MOL0     H53665   1.046  10.141   7.642  0.0366 -1.2224 -0.2928
  398MOL0     H53666   1.129  10.145   7.489  0.2441  1.6171  0.3128
  398MOL0     H53667   1.218   9.945   7.700  4.1323  0.9216 -1.3899
  398MOL0     H53668   1.229   9.910   7.540 -2.4026 -4.2483  0.7333
  398MOL0     H53669   0.980   9.947   7.691  3.7320 -0.2754  2.8728
  398MOL0     H53670   1.035   9.787   7.640  1.2093  0.3518  0.1742
  398MOL0     H53671   0.949  10.006   7.425  4.6291  0.4421 -0.1742
  398MOL0     H53672   0.965   9.836   7.408  1.8467  2.7004 -2.7058
  398MOL0     H53673   0.748   9.912   7.407  0.4642 -0.6982 -0.6040
  398MOL0     H53674   0.769   9.781   7.520  0.9026 -1.0104 -1.9776
  398MOL0     H53675   0.616   9.936   7.582  0.4200 -1.5349 -0.6873
  398MOL0     H53676   0.747   9.935   7.714 -2.1424  0.9845  0.3548
  398MOL0     H53677   0.666  10.159   7.522 -0.4860  0.8791  0.6254
  398MOL0     H53678   0.829  10.134   7.552  0.1706 -1.2734  0.1815
  398MOL0     H53679   0.775  10.149   7.817  3.5066 -0.3274 -3.2211
  398MOL0     H53680   0.723  10.288   7.735  2.6596 -0.0116 -2.0884
  398MOL0     H53681   0.474  10.347   7.727  2.6866  1.6967  1.9736
  398MOL0     H53682   0.215  10.249   8.013  1.5224 -0.4733  0.6936
  398MOL0     H53683   0.268  10.391   7.914 -1.6235 -0.4782 -0.5592
  398MOL0     H53684   0.060  10.362   7.822  0.7832  0.9746  1.8649
  398MOL0     H53685   0.141  10.245   7.727 -2.4492 -0.1146  1.5575
  398MOL0     H53686  -0.027  10.196   7.976  0.1745 -2.4807  0.6480
  398MOL0     H53687   0.086  10.077   7.916 -2.1760 -2.9436 -1.9120
  398MOL0     H53688  -0.046  10.169   7.680  0.3035  0.4962  0.0877
  398MOL0     H53689  -0.169  10.122   7.786  1.0642  2.1245  0.9939
  398MOL0     H53690   0.218  10.026   7.747 -1.7783  3.1510 -1.1159
  398MOL0     H53691   0.372   9.973   7.562  0.2404 -2.6072 -2.7525
  398MOL0     H53692   0.509   9.639   7.190  0.2641 -0.7300 -1.4136
  398MOL0     H53693   0.660   9.651   6.995 -0.4429 -0.7159  0.0206
  398MOL0     H53694   0.909   9.691   6.954  0.0992 -1.0685 -0.5301
  398MOL0     H53695   0.787   9.673   6.828 -0.1408 -1.6299  3.0090
  398MOL0     H53696   0.905   9.838   6.676 -2.7863 -2.3133 -0.2761
  398MOL0     H53697   1.046   9.836   6.788 -1.3473  1.8439 -0.8472
  398MOL0     H53698   0.914   9.608   6.628  1.6096 -1.8652 -1.9527
  398MOL0     H53699   1.053   9.687   6.570 -0.5703  0.7007 -0.3551
  398MOL0     H53700   1.048   9.519   6.818 -1.3952 -1.9904 -1.1217
  398MOL0     H53701   1.181   9.631   6.786 -1.2439  1.5901 -0.1938
  398MOL0     H53702   1.226   9.515   6.571  2.7134 -3.2094  0.0254
  398MOL0     H53703   1.079   9.428   6.592 -0.4146  1.2131  0.4246
  398MOL0     H53704   1.173   9.323   6.816 -0.0976 -0.8488  0.7229
  398MOL0     H53705   1.220   9.262   6.660  1.2062 -1.5731  1.9923
  398MOL0     H53706   1.372   9.458   6.835 -0.4635 -0.8640  0.1935
  398MOL0     H53707   1.422   9.399   6.673 -2.5957  0.6900 -1.2448
  398MOL0     H53708   1.366   9.192   6.879 -0.4114 -0.5915 -1.5307
  398MOL0     H53709   1.466   9.197   6.732 -0.1967 -2.4933  0.8077
  398MOL0     H53710   0.708  10.073   7.089 -0.2050  0.3692  4.0514
  398MOL0     H53711   0.539  10.046   7.251  1.6376 -0.9838  1.1467
  398MOL0     H53712   0.035   9.774   7.351  0.2514  1.0498 -0.1605
  398MOL0     H53713  -0.094   9.807   7.572  0.7860 -0.2493  1.4680
  398MOL0     H53714   1.325  10.325   7.446  1.5248  2.1866  0.1857
  398MOL0     H53715   1.532  10.289   7.299  0.6122 -1.9317 -1.5089
  398MOL0     H53716   1.681  10.099   6.964 -0.4155  1.1745  1.8154
  398MOL0     H53717   1.874  10.138   6.797 -0.1269  0.6646 -0.0959
  398MOL0     H53718   2.284  10.128   6.876 -0.5049 -0.0862  2.0271
  398MOL0     H53719   2.245  10.282   6.946 -0.1677  4.4236 -2.1701
  398MOL0     H53720   2.404  10.259   6.731  1.1804  1.6665 -3.3295
  398MOL0     H53721   2.301  10.404   6.765 -2.8212 -0.6519  0.9403
  398MOL0     H53722   2.142  10.310   6.590  0.9517  0.1831 -2.3774
  398MOL0     H53723   2.247  10.163   6.604 -1.2878 -1.0814  0.3227
  398MOL0     H53724   2.423  10.326   6.488  0.4895  1.1364  0.8414
  398MOL0     H53725   2.288  10.309   6.380  0.1207  1.5934 -0.5774
  398MOL0     H53726   2.182  10.693   6.491 -0.3987  0.6058 -1.7591
  398MOL0     H53727   2.150  10.148   7.098  0.3251 -1.2003 -0.8694
  398MOL0     H53728   1.966  10.039   7.369  2.2848  0.7663  3.1366
  398MOL0     H53729   2.120  10.110   7.314  0.1403  1.0743 -0.4927
  398MOL0     H53730   1.973  10.215   7.334  0.7674 -0.1406  1.2423
  399MOL0     O53731   5.974   1.176   2.755 -0.2203 -0.5309  0.3978
  399MOL0     C53732   6.059   1.112   2.821  0.7171 -0.0714 -0.2971
  399MOL0     O53733   6.031   1.046   2.936 -0.5165  0.2848  0.0454
  399MOL0     C53734   5.904   1.016   2.976 -1.2474 -0.4810  0.4217
  399MOL0     C53735   5.805   1.119   2.984 -0.5507 -0.4540 -0.3284
  399MOL0     C53736   5.679   1.091   3.037  0.3269 -0.4563 -0.4273
  399MOL0     C53737   5.639   0.962   3.055  0.3435  0.5683 -0.3267
  399MOL0     O53738   5.513   0.936   3.105 -0.2383 -0.0103 -0.1589
  399MOL0     C53739   5.442   0.841   3.028 -0.4458 -0.0939  0.5594
  399MOL0     C53740   5.309   0.906   2.995 -0.7349 -0.0020  0.6072
  399MOL0     C53741   5.223   0.906   3.125 -0.6238 -0.6717  0.8801
  399MOL0     C53742   5.084   0.970   3.100  0.2054  0.1848 -0.4740
  399MOL0     C53743   5.093   1.115   3.062 -0.5048  0.4768  0.0832
  399MOL0     C53744   4.962   1.187   3.047  0.8372 -0.0073 -0.5999
  399MOL0     C53745   4.886   1.172   2.920  0.5678  1.1192  0.4462
  399MOL0     C53746   4.953   1.248   2.807 -0.5470  0.3762 -0.3687
  399MOL0     N53747   4.868   1.259   2.687  0.1218 -0.0249  1.0117
  399MOL0     C53748   4.882   1.194   2.570 -0.4487 -0.4861 -0.1364
  399MOL0     C53749   4.796   1.256   2.485 -0.4698 -0.2093  0.0585
  399MOL0     C53750   4.774   1.213   2.337 -0.3322  0.5701 -0.0458
  399MOL0     C53751   4.909   1.183   2.274 -0.4987 -0.4583  0.4044
  399MOL0     C53752   4.894   1.146   2.123  0.6404  1.1973 -0.4322
  399MOL0     C53753   5.031   1.161   2.064 -0.3768  0.1699  0.0185
  399MOL0     O53754   5.023   1.156   1.925  0.1594 -0.1793 -0.3299
  399MOL0     C53755   5.135   1.191   1.847 -0.2617  0.6121 -0.5982
  399MOL0     C53756   5.266   1.190   1.909 -0.0201 -0.3261 -0.1351
  399MOL0     C53757   5.378   1.200   1.823 -1.3720  0.1864 -0.3820
  399MOL0     C53758   5.367   1.219   1.683  0.5973  0.5437 -0.0046
  399MOL0     C53759   5.485   1.236   1.600 -0.6107 -0.0651  0.1691
  399MOL0     O53760   5.463   1.239   1.464  0.3631  0.6736 -0.3676
  399MOL0     C53761   5.562   1.261   1.364 -0.0899 -0.2183  0.1798
  399MOL0     C53762   5.681   1.195   1.348 -0.4185  0.1660 -0.0450
  399MOL0     C53763   5.770   1.212   1.240 -0.8904  0.5943  0.4066
  399MOL0     C53764   5.735   1.295   1.133 -0.7305  0.1606  0.3718
  399MOL0     O53765   5.812   1.332   1.023 -0.2388 -0.2297 -0.7401
  399MOL0     C53766   5.942   1.264   0.999  0.3118  0.7329 -0.1291
  399MOL0     C53767   6.017   1.331   0.882 -0.4213 -0.1730  0.0837
  399MOL0     C53768   5.940   1.338   0.747 -0.8283 -0.4747 -0.3813
  399MOL0     C53769   5.992   1.441   0.651  0.1939  0.1421 -0.5652
  399MOL0     C53770   5.947   1.586   0.681 -0.3953 -0.4401 -0.1941
  399MOL0     C53771   6.015   1.700   0.592  0.1882  0.1386 -0.2025
  399MOL0     C53772   5.960   1.830   0.638 -0.5938 -0.3720 -0.6852
  399MOL0     C53773   6.004   1.936   0.536  0.3358  0.1283 -0.1010
  399MOL0    Cl53774   5.914   1.934   0.372  0.5144 -0.3548  0.0604
  399MOL0     C53775   5.613   1.357   1.141  1.4575  0.1402 -0.2087
  399MOL0     C53776   5.528   1.340   1.254  0.2300 -0.0283 -0.0101
  399MOL0     O53777   5.598   1.231   1.655  0.4498  0.2249  0.4941
  399MOL0     C53778   5.231   1.220   1.626 -0.1469  1.0808  0.7760
  399MOL0     C53779   5.127   1.195   1.715  0.4429 -0.7897  0.1785
  399MOL0     N53780   4.732   1.353   2.556  0.5074  1.1590  1.6133
  399MOL0     N53781   4.773   1.357   2.672 -0.2311  0.1821 -0.2975
  399MOL0     C53782   5.737   0.852   3.045  0.7006 -0.5267  0.1048
  399MOL0     C53783   5.872   0.885   3.015 -0.1680 -0.3204  0.3986
  399MOL0     C53784   6.199   1.096   2.771 -0.1946  0.0851  0.4381
  399MOL0     C53785   6.292   1.037   2.862 -0.2337 -0.6082 -0.4845
  399MOL0     C53786   6.422   1.019   2.833 -0.5716 -0.7703  0.4714
  399MOL0     C53787   6.468   1.058   2.706  0.2566 -0.3015  0.1457
  399MOL0     O53788   6.599   1.051   2.653 -0.3684 -0.3616 -0.6624
  399MOL0     C53789   6.698   1.052   2.758  1.3608 -0.0043 -0.3875
  399MOL0     C53790   6.829   1.086   2.683  1.0884 -0.1405 -0.9043
  399MOL0     C53791   6.859   1.013   2.554 -0.1204 -0.1082  0.5312
  399MOL0     C53792   7.001   1.032   2.493  0.0306  0.8110  0.4346
  399MOL0     C53793   7.039   1.171   2.487 -0.0167  0.2629  0.0095
  399MOL0     C53794   7.074   1.290   2.499 -0.6406  1.5354  0.4158
  399MOL0     C53795   6.381   1.106   2.607 -0.9626 -0.3390 -0.2024
  399MOL0     C53796   6.245   1.127   2.641 -0.4432 -0.6921 -0.5837
  399MOL0     C53797   6.160   1.172   2.530 -0.8023  0.1243 -0.0146
  399MOL0     H53798   5.833   1.222   2.964 -0.8359 -0.2583  0.2887
  399MOL0     H53799   5.598   1.161   3.054 -0.5348 -1.9351  2.0379
  399MOL0     H53800   5.500   0.819   2.938  4.1930 -0.6502  3.4057
  399MOL0     H53801   5.427   0.742   3.072  2.3669 -1.4243 -1.1678
  399MOL0     H53802   5.257   0.854   2.914 -1.4383 -0.3751  1.2847
  399MOL0     H53803   5.341   1.007   2.965  6.2284 -2.2096 -1.1858
  399MOL0     H53804   5.284   0.963   3.196 -0.7469  1.2350 -0.4909
  399MOL0     H53805   5.219   0.803   3.162 -2.1510 -1.3592 -1.0305
  399MOL0     H53806   5.033   0.916   3.020 -1.0183  1.2880 -0.4759
  399MOL0     H53807   5.031   0.963   3.196  1.3609 -1.9077  0.0850
  399MOL0     H53808   5.162   1.160   3.134  1.1268 -1.4475 -0.1769
  399MOL0     H53809   5.142   1.125   2.964  0.0664 -1.9683  0.0581
  399MOL0     H53810   4.885   1.172   3.122 -0.7261 -0.4209 -2.2216
  399MOL0     H53811   4.980   1.293   3.065 -6.0081  1.6007 -0.4357
  399MOL0     H53812   4.786   1.217   2.924 -0.7534 -0.7639 -4.2184
  399MOL0     H53813   4.871   1.066   2.896 -0.3965  0.8774  1.9853
  399MOL0     H53814   4.959   1.351   2.842 -5.7016 -0.1208  3.1797
  399MOL0     H53815   5.046   1.200   2.778  0.6577 -0.0019  3.5439
  399MOL0     H53816   4.950   1.114   2.543 -2.3582 -2.4559  0.5912
  399MOL0     H53817   4.732   1.113   2.325  0.8322  0.0688 -0.0254
  399MOL0     H53818   4.715   1.287   2.281  2.2919  2.6310 -0.2721
  399MOL0     H53819   4.965   1.277   2.283  2.5782 -2.2115  0.8157
  399MOL0     H53820   4.958   1.098   2.322 -0.2111  0.5250  1.9353
  399MOL0     H53821   4.815   1.205   2.075 -2.7502 -1.0499  1.9413
  399MOL0     H53822   4.860   1.043   2.109  2.0747  0.7072 -0.4466
  399MOL0     H53823   5.088   1.077   2.106 -1.0481 -0.5545 -0.4924
  399MOL0     H53824   5.088   1.251   2.091  1.7558 -0.1532 -2.9626
  399MOL0     H53825   5.287   1.173   2.014  0.0899  1.3253  0.1432
  399MOL0     H53826   5.475   1.188   1.871 -0.5646 -1.1355 -2.2008
  399MOL0     H53827   5.706   1.125   1.427 -2.3513  0.2364  0.6594
  399MOL0     H53828   5.870   1.174   1.250  0.0511  3.2245  2.1929
  399MOL0     H53829   6.014   1.270   1.081  0.0467  1.0730  0.0827
  399MOL0     H53830   5.922   1.159   0.974  0.5276  0.5029  0.6231
  399MOL0     H53831   6.041   1.434   0.912 -0.4581 -0.0397 -0.3331
  399MOL0     H53832   6.112   1.282   0.860 -1.3386 -0.8092 -3.0846
  399MOL0     H53833   5.962   1.238   0.709  4.6106 -0.9115  2.8812
  399MOL0     H53834   5.832   1.353   0.755 -1.0981 -1.2413 -2.1622
  399MOL0     H53835   5.955   1.405   0.555  3.1383 -0.0593 -1.7332
  399MOL0     H53836   6.101   1.440   0.653  0.1864 -0.8593  0.1568
  399MOL0     H53837   5.957   1.605   0.788 -1.5395 -1.2730  0.0809
  399MOL0     H53838   5.838   1.587   0.670 -0.9286 -0.7852  3.6693
  399MOL0     H53839   6.124   1.698   0.600  0.1983  1.6344  0.4401
  399MOL0     H53840   5.995   1.688   0.485 -0.1382 -0.4275 -0.0795
  399MOL0     H53841   5.999   1.864   0.734 -1.7280  2.5336 -1.1354
  399MOL0     H53842   5.851   1.824   0.642 -0.5731 -1.4116 -1.3078
  399MOL0     H53843   5.977   2.027   0.590 -1.4800  2.5206 -4.5378
  399MOL0     H53844   6.111   1.941   0.514 -0.0824  2.3949 -2.0243
  399MOL0     H53845   5.574   1.415   1.058 -0.8477 -0.8182  0.1405
  399MOL0     H53846   5.428   1.382   1.253  0.1741 -0.0273  1.7739
  399MOL0     H53847   5.215   1.215   1.518 -1.5040 -2.0597  1.0022
  399MOL0     H53848   5.023   1.196   1.683  0.5969  3.1752 -0.6332
  399MOL0     H53849   5.703   0.750   3.062  0.4510 -0.3792  0.5137
  399MOL0     H53850   5.956   0.816   3.026  0.1679 -0.1200 -0.8052
  399MOL0     H53851   6.277   1.002   2.963  5.3443 -1.1864  0.4794
  399MOL0     H53852   6.495   0.964   2.891  1.4901  0.6973 -0.6053
  399MOL0     H53853   6.716   0.949   2.789 -1.7539 -0.9459 -1.3777
  399MOL0     H53854   6.681   1.115   2.846  0.2888  0.8585 -1.1864
  399MOL0     H53855   6.913   1.077   2.752  0.4800 -2.0655 -0.3385
  399MOL0     H53856   6.805   1.184   2.641  2.0137 -0.2586 -1.7566
  399MOL0     H53857   6.777   1.043   2.488 -0.0893 -0.7465  0.2004
  399MOL0     H53858   6.855   0.905   2.565 -2.6139 -0.1158  0.1518
  399MOL0     H53859   7.079   0.976   2.545 -0.6292 -0.6172 -0.0494
  399MOL0     H53860   6.988   0.995   2.390  1.1897  0.1840  0.5015
  399MOL0     H53861   7.102   1.393   2.512 -2.5788  2.3439 -1.2561
  399MOL0     H53862   6.433   1.119   2.513  1.6157 -2.3935  0.8006
  399MOL0     H53863   6.204   1.131   2.438 -1.3814 -0.0732 -0.2115
  399MOL0     H53864   6.059   1.130   2.538 -0.4869 -0.4522  1.1245
  399MOL0     H53865   6.146   1.281   2.525 -0.5138  0.1213 -2.8502
  400MOL0     O53866   6.383   7.782   0.370 -0.2215  0.4511  0.0349
  400MOL0     C53867   6.372   7.750   0.490 -0.4804 -0.8559  0.1352
  400MOL0     O53868   6.352   7.623   0.531  0.6985 -0.1129 -0.4896
  400MOL0     C53869   6.407   7.527   0.447  0.2564 -0.5948  0.1618
  400MOL0     C53870   6.347   7.480   0.329  0.4112 -0.2103 -0.5781
  400MOL0     C53871   6.414   7.382   0.253  0.8527 -0.6950 -0.1319
  400MOL0     C53872   6.535   7.328   0.291 -0.4152 -0.0745  1.1266
  400MOL0     O53873   6.581   7.232   0.204 -0.4643 -0.0868  0.0263
  400MOL0     C53874   6.711   7.178   0.226 -0.7920  0.3608 -0.2932
  400MOL0     C53875   6.802   7.277   0.139 -0.3870  1.0696 -0.3501
  400MOL0     C53876   6.953   7.256   0.169 -0.3465  1.4580  0.1087
  400MOL0     C53877   7.042   7.375   0.108  1.0772  0.6462 -0.1063
  400MOL0     C53878   7.189   7.338   0.115 -0.9423  0.2248 -0.4634
  400MOL0     C53879   7.232   7.317   0.266  0.3352 -0.0478 -0.0031
  400MOL0     C53880   7.379   7.322   0.279  0.5380  0.2943  0.6930
  400MOL0     C53881   7.417   7.282   0.422  0.6407 -0.4830 -0.6060
  400MOL0     N53882   7.545   7.206   0.433 -0.0763  0.1180 -0.5251
  400MOL0     C53883   7.659   7.249   0.503 -0.3700 -0.7772  0.8734
  400MOL0     C53884   7.741   7.142   0.500 -0.1722 -0.4660  0.5588
  400MOL0     C53885   7.880   7.128   0.546  0.2098 -1.7645 -0.3388
  400MOL0     C53886   7.885   7.200   0.683 -0.3275  0.7223  0.9704
  400MOL0     C53887   8.030   7.246   0.714 -0.1534  0.8297  0.2346
  400MOL0     C53888   8.102   7.131   0.779 -0.0397  0.1098  0.1203
  400MOL0     O53889   8.043   7.066   0.897 -0.0345 -0.4759 -0.5160
  400MOL0     C53890   8.120   7.019   0.999 -0.1518 -0.4685 -0.2956
  400MOL0     C53891   8.081   6.908   1.063  0.7195  0.5942  0.2239
  400MOL0     C53892   8.145   6.857   1.171  0.0210  0.3001 -0.2978
  400MOL0     C53893   8.273   6.902   1.213 -0.5425  0.7266 -1.0197
  400MOL0     C53894   8.338   6.831   1.325  0.1977  0.6162 -0.2176
  400MOL0     O53895   8.289   6.708   1.372 -0.4979  0.9466  0.2186
  400MOL0     C53896   8.358   6.646   1.476  0.4955 -0.6574 -0.0358
  400MOL0     C53897   8.401   6.724   1.588 -0.2629 -0.2391 -0.3384
  400MOL0     C53898   8.470   6.653   1.688  0.0057 -0.2254  0.1834
  400MOL0     C53899   8.497   6.518   1.679 -0.1396  0.6089 -0.3691
  400MOL0     O53900   8.559   6.456   1.777 -0.3598  0.0249 -0.9735
  400MOL0     C53901   8.681   6.384   1.733 -0.1589  0.1484 -0.9154
  400MOL0     C53902   8.774   6.411   1.854 -0.1168  0.2329 -0.2700
  400MOL0     C53903   8.870   6.536   1.843 -0.3559 -0.9616  0.4685
  400MOL0     C53904   8.962   6.563   1.964  0.2427  0.4155  0.5235
  400MOL0     C53905   9.052   6.687   1.952 -0.8887 -0.2053 -0.1280
  400MOL0     C53906   9.192   6.650   1.876  0.5224  0.3741 -0.9970
  400MOL0     C53907   9.283   6.777   1.881 -0.8865  0.2459  0.6717
  400MOL0     C53908   9.377   6.775   1.994  1.3232  0.5194  0.4256
  400MOL0    Cl53909   9.504   6.644   1.987 -0.0646 -0.4545 -0.1737
  400MOL0     C53910   8.452   6.437   1.571 -0.5268 -0.6030  0.3733
  400MOL0     C53911   8.382   6.510   1.463 -0.2759  0.3043 -0.1231
  400MOL0     O53912   8.443   6.888   1.373  0.1088  0.4055  0.7023
  400MOL0     C53913   8.318   7.017   1.145 -0.2460 -0.4045 -0.4874
  400MOL0     C53914   8.246   7.073   1.034 -0.6534  0.2281  0.2712
  400MOL0     N53915   7.668   7.033   0.444 -0.1601 -0.3547 -0.1668
  400MOL0     N53916   7.555   7.075   0.401  0.3793  0.0151 -0.0108
  400MOL0     C53917   6.600   7.376   0.412 -0.2331 -0.2652 -0.7721
  400MOL0     C53918   6.530   7.475   0.495  0.5508  0.5238 -0.1922
  400MOL0     C53919   6.353   7.855   0.606  0.8817  0.3238  0.6459
  400MOL0     C53920   6.279   7.809   0.719 -0.7439 -0.4768  0.1842
  400MOL0     C53921   6.268   7.888   0.833  0.1608  0.0030 -0.0443
  400MOL0     C53922   6.317   8.021   0.826  0.0540  0.8147  0.3950
  400MOL0     O53923   6.307   8.113   0.927  0.1490  0.0015 -0.8112
  400MOL0     C53924   6.189   8.110   1.018 -0.4059  1.2467  0.9465
  400MOL0     C53925   6.137   8.255   1.035 -0.2133 -0.7395  0.3205
  400MOL0     C53926   6.082   8.326   0.905 -0.5219 -0.0983  0.6330
  400MOL0     C53927   6.065   8.484   0.940 -0.1998 -0.6751  0.9861
  400MOL0     C53928   5.960   8.495   1.033 -0.6003 -0.1595 -0.2974
  400MOL0     C53929   5.867   8.527   1.103  0.0653 -0.2869 -0.0667
  400MOL0     C53930   6.379   8.069   0.711  0.2948 -0.5571  0.4074
  400MOL0     C53931   6.396   7.987   0.599 -0.5782 -0.3938  0.2784
  400MOL0     C53932   6.474   8.049   0.478 -0.7166 -0.5871  0.3714
  400MOL0     H53933   6.244   7.507   0.306 -0.0157 -0.9170  0.4241
  400MOL0     H53934   6.368   7.353   0.159 -2.6778 -1.5841  1.6820
  400MOL0     H53935   6.744   7.162   0.329  1.9341  1.8424 -0.8314
  400MOL0     H53936   6.712   7.079   0.179 -2.6146  0.7088 -1.1671
  400MOL0     H53937   6.768   7.381   0.147 -0.3700  1.0069  0.7566
  400MOL0     H53938   6.781   7.250   0.036  2.1137  3.8465 -1.7280
  400MOL0     H53939   6.982   7.159   0.127 -2.2094  1.7166 -1.9713
  400MOL0     H53940   6.968   7.255   0.278  1.2255 -2.1714  0.0044
  400MOL0     H53941   7.021   7.388   0.002  3.0633 -1.5759 -0.8527
  400MOL0     H53942   7.036   7.468   0.166 -0.2958  1.7791 -1.9787
  400MOL0     H53943   7.198   7.249   0.051 -2.6627  0.7385 -1.4768
  400MOL0     H53944   7.258   7.407   0.066 -1.6956  1.4484  0.1740
  400MOL0     H53945   7.202   7.396   0.335  1.1238  0.9859 -0.8189
  400MOL0     H53946   7.187   7.221   0.294 -5.7325  1.7468 -1.8967
  400MOL0     H53947   7.417   7.420   0.252 -2.2160  0.8359 -1.7861
  400MOL0     H53948   7.409   7.245   0.207  0.7233  3.5799 -3.0736
  400MOL0     H53949   7.431   7.363   0.494  3.0117 -3.0231  2.0308
  400MOL0     H53950   7.337   7.220   0.463  0.3941  0.4018  0.2737
  400MOL0     H53951   7.681   7.348   0.541 -1.8012 -0.5538  1.1856
  400MOL0     H53952   7.911   7.024   0.537  2.3646 -1.1583 -0.6250
  400MOL0     H53953   7.943   7.190   0.481 -0.8860  1.3839  1.3656
  400MOL0     H53954   7.821   7.288   0.691 -4.7862 -2.3522  3.3076
  400MOL0     H53955   7.853   7.128   0.758 -1.6731 -0.3927 -0.6165
  400MOL0     H53956   8.031   7.327   0.788  2.8698  2.0465 -0.9809
  400MOL0     H53957   8.084   7.290   0.630  0.3318  1.0677  0.6595
  400MOL0     H53958   8.200   7.173   0.805  0.2046  0.7502 -1.6852
  400MOL0     H53959   8.119   7.057   0.700 -2.5354  0.6030 -0.9825
  400MOL0     H53960   7.983   6.869   1.040 -0.8599  3.4351  1.6044
  400MOL0     H53961   8.099   6.768   1.214 -2.1165  0.8505 -1.3010
  400MOL0     H53962   8.372   6.827   1.606 -2.9334 -1.1827  1.2023
  400MOL0     H53963   8.505   6.700   1.779 -0.3742 -1.9154  1.2515
  400MOL0     H53964   8.664   6.276   1.719  1.0926  0.1133 -2.3641
  400MOL0     H53965   8.727   6.419   1.641 -3.2123  0.2594 -2.5106
  400MOL0     H53966   8.723   6.416   1.951  0.8460 -3.2391  0.5505
  400MOL0     H53967   8.834   6.320   1.864  0.6536  0.7199 -0.3724
  400MOL0     H53968   8.931   6.534   1.752 -0.8574 -0.1845  0.1029
  400MOL0     H53969   8.819   6.631   1.825 -1.1053 -1.7244 -1.7802
  400MOL0     H53970   9.015   6.468   1.979  0.4470 -1.2744 -6.8401
  400MOL0     H53971   8.893   6.577   2.047  0.3545  2.2517  0.3540
  400MOL0     H53972   9.076   6.723   2.052  2.8164  0.2135 -1.0236
  400MOL0     H53973   8.989   6.762   1.905 -2.6530 -0.6349  1.4416
  400MOL0     H53974   9.242   6.569   1.930  2.1921  2.7914  1.3700
  400MOL0     H53975   9.180   6.612   1.774  2.6704  1.4729 -1.7151
  400MOL0     H53976   9.228   6.869   1.900  0.7602  1.3864  0.1891
  400MOL0     H53977   9.350   6.787   1.795 -1.3451 -0.2022  0.2534
  400MOL0     H53978   9.427   6.872   2.012  3.6234 -0.7784  1.5403
  400MOL0     H53979   9.311   6.760   2.079  0.9234 -0.6384 -0.0766
  400MOL0     H53980   8.476   6.335   1.544 -2.8420 -0.8188 -1.0651
  400MOL0     H53981   8.357   6.447   1.378 -4.2623 -0.0562  1.1304
  400MOL0     H53982   8.413   7.064   1.168 -0.1730 -0.3197 -0.9509
  400MOL0     H53983   8.283   7.162   0.984 -2.8661 -0.5860 -3.1750
  400MOL0     H53984   6.687   7.326   0.453  0.4626  1.5128  0.0136
  400MOL0     H53985   6.566   7.525   0.585 -0.4162  0.5237  0.2084
  400MOL0     H53986   6.237   7.711   0.738 -1.4051  0.0355  1.4893
  400MOL0     H53987   6.222   7.851   0.924 -0.6705  3.0024  0.8727
  400MOL0     H53988   6.212   8.047   1.104 -4.0621 -1.5390  0.1707
  400MOL0     H53989   6.113   8.053   0.963  2.6553 -2.4044  0.1499
  400MOL0     H53990   6.222   8.307   1.080  0.3406  0.5473 -2.0413
  400MOL0     H53991   6.060   8.259   1.113  0.2769  0.2591  0.7613
  400MOL0     H53992   5.988   8.278   0.880 -0.4529  0.2781 -0.3867
  400MOL0     H53993   6.143   8.309   0.816 -2.1303 -0.3653 -0.4359
  400MOL0     H53994   6.154   8.527   0.988  0.2788 -1.0174  0.4192
  400MOL0     H53995   6.045   8.540   0.849  0.5640 -1.7023  0.1559
  400MOL0     H53996   5.784   8.559   1.164  0.2803 -2.0255  1.1847
  400MOL0     H53997   6.422   8.168   0.716 -1.2425  0.1681 -0.0389
  400MOL0     H53998   6.495   8.155   0.498 -0.4530 -0.4651 -0.5133
  400MOL0     H53999   6.570   8.001   0.461 -1.3480 -0.9931 -2.7023
  400MOL0     H54000   6.414   8.051   0.386  2.3268 -1.6572 -1.7806
  401MOL0     O54001   9.952  10.834   0.403  0.3774  0.6828  0.2674
  401MOL0     C54002  10.042  10.751   0.431  0.8617  0.1147 -0.6704
  401MOL0     O54003  10.146  10.716   0.349  0.1680 -0.2276 -0.4137
  401MOL0     C54004  10.167  10.797   0.238  0.0060  0.1273 -0.5665
  401MOL0     C54005  10.176  10.745   0.113  0.1994 -0.2776 -0.0358
  401MOL0     C54006  10.188  10.821   0.003 -0.9367 -1.0322  0.2561
  401MOL0     C54007  10.203  10.959   0.005  0.0887 -0.1539  0.1914
  401MOL0     O54008  10.234  11.016  -0.116  0.4257  0.0462 -0.5101
  401MOL0     C54009  10.273  11.152  -0.102  0.1903 -0.3569  0.1142
  401MOL0     C54010  10.313  11.211  -0.242 -0.0595  0.4162 -0.1715
  401MOL0     C54011  10.413  11.325  -0.209  0.6371  0.2048 -0.7682
  401MOL0     C54012  10.484  11.346  -0.339  0.8897  0.4785  0.2985
  401MOL0     C54013  10.566  11.473  -0.324 -0.5424 -0.7001 -0.0729
  401MOL0     C54014  10.698  11.428  -0.260  0.1497 -0.1931 -0.7031
  401MOL0     C54015  10.769  11.558  -0.215  0.4677  0.2174  1.7701
  401MOL0     C54016  10.890  11.521  -0.135  0.1620  0.6457  0.6569
  401MOL0     N54017  10.975  11.641  -0.106 -0.0887 -0.3538  0.6142
  401MOL0     C54018  10.947  11.708   0.006  0.3440 -0.7505 -0.3989
  401MOL0     C54019  11.024  11.820  -0.008  0.2999 -0.0139 -0.4216
  401MOL0     C54020  11.034  11.949   0.086 -0.0332 -0.5314  0.0656
  401MOL0     C54021  11.164  12.036   0.062  0.5796 -0.4041 -0.4416
  401MOL0     C54022  11.149  12.173   0.120 -0.9412  0.0134  0.6113
  401MOL0     C54023  11.249  12.266   0.057 -1.1879 -0.3902  0.1480
  401MOL0     O54024  11.220  12.387   0.121 -0.0424  0.3349 -0.0116
  401MOL0     C54025  11.270  12.497   0.062  0.6610 -0.0009  0.3806
  401MOL0     C54026  11.399  12.506   0.010  0.4696 -0.2401  1.4804
  401MOL0     C54027  11.439  12.617  -0.058 -0.4869  0.2142 -0.2335
  401MOL0     C54028  11.354  12.725  -0.077 -0.1889 -0.1168 -0.3192
  401MOL0     C54029  11.406  12.833  -0.162  1.1103 -0.9250  0.1272
  401MOL0     O54030  11.319  12.898  -0.242  0.7140 -0.3527  0.9884
  401MOL0     C54031  11.341  12.992  -0.348  0.2232 -0.4382 -1.0340
  401MOL0     C54032  11.454  13.072  -0.366  0.1732  0.0088 -0.6490
  401MOL0     C54033  11.464  13.179  -0.463  0.7542 -0.5348 -0.3433
  401MOL0     C54034  11.362  13.199  -0.553 -0.5338 -0.1013  0.7617
  401MOL0     O54035  11.367  13.283  -0.659  0.3624  0.6558 -0.1866
  401MOL0     C54036  11.380  13.424  -0.628  0.0263  0.3304 -0.5233
  401MOL0     C54037  11.487  13.472  -0.725  0.5058  0.2406  1.3683
  401MOL0     C54038  11.435  13.449  -0.870 -0.1859  0.1942  0.5326
  401MOL0     C54039  11.299  13.509  -0.906 -0.1018 -0.2215  0.6000
  401MOL0     C54040  11.294  13.509  -1.057 -0.2796 -0.5627  0.5523
  401MOL0     C54041  11.193  13.608  -1.116 -0.0320  0.3714 -0.0057
  401MOL0     C54042  11.237  13.647  -1.258  0.4186 -0.3967  0.1555
  401MOL0     C54043  11.146  13.754  -1.317 -0.4223 -0.1088  0.2050
  401MOL0    Cl54044  11.227  13.796  -1.470 -0.2557 -0.3985 -0.2801
  401MOL0     C54045  11.255  13.113  -0.543 -0.2258 -1.0237 -0.4597
  401MOL0     C54046  11.239  13.010  -0.447  0.2107 -0.2232 -0.1791
  401MOL0     O54047  11.527  12.850  -0.158  0.0202 -0.3041 -0.2802
  401MOL0     C54048  11.228  12.720  -0.019 -0.1972  0.1184 -0.6592
  401MOL0     C54049  11.189  12.612   0.057 -0.4509 -0.1867  0.0755
  401MOL0     N54050  11.093  11.810  -0.128 -0.1200 -0.1488  0.3757
  401MOL0     N54051  11.068  11.696  -0.186  0.2845 -0.3902 -0.5047
  401MOL0     C54052  10.197  11.014   0.136  0.2205 -0.2481  0.4107
  401MOL0     C54053  10.195  10.929   0.254 -0.4138 -0.7730 -0.2998
  401MOL0     C54054  10.042  10.673   0.558  0.5568 -0.0395 -0.3450
  401MOL0     C54055  10.143  10.584   0.597 -0.7792  0.1756  1.1890
  401MOL0     C54056  10.136  10.503   0.705 -0.1472 -0.7295  0.4322
  401MOL0     C54057  10.027  10.503   0.782  0.5649  0.0942 -0.8194
  401MOL0     O54058  10.032  10.459   0.906  0.4431  1.0152  0.5354
  401MOL0     C54059  10.053  10.552   1.012  0.6372 -0.2150  0.3577
  401MOL0     C54060  10.181  10.514   1.082  0.7137  0.8259  0.1225
  401MOL0     C54061  10.212  10.565   1.218  0.2638 -0.6882 -0.0764
  401MOL0     C54062  10.363  10.551   1.259  0.4716  0.5394  0.6575
  401MOL0     C54063  10.444  10.636   1.175 -1.1199  0.5866  0.9933
  401MOL0     C54064  10.503  10.692   1.088 -0.1033  0.7662  0.9693
  401MOL0     C54065   9.923  10.586   0.758  0.4306  0.0923 -0.3134
  401MOL0     C54066   9.932  10.679   0.652  0.7482  0.5250  0.0752
  401MOL0     C54067   9.806  10.760   0.624  0.2765  0.7227  0.0878
  401MOL0     H54068  10.145  10.644   0.088 -1.2332  0.3252 -0.8566
  401MOL0     H54069  10.187  10.762  -0.088 -0.8674 -2.2045  0.9965
  401MOL0     H54070  10.198  11.225  -0.071  1.3035  0.6239  0.5964
  401MOL0     H54071  10.359  11.162  -0.035  1.2780 -2.1222 -0.9512
  401MOL0     H54072  10.231  11.258  -0.297 -0.2077 -1.9693 -2.1656
  401MOL0     H54073  10.356  11.131  -0.303  0.9449 -0.2568  1.3520
  401MOL0     H54074  10.474  11.297  -0.123 -1.9263  2.7129  2.0941
  401MOL0     H54075  10.364  11.418  -0.178 -2.6236 -1.2326 -1.1193
  401MOL0     H54076  10.540  11.259  -0.375  0.0461 -0.6789  1.6566
  401MOL0     H54077  10.410  11.366  -0.416  1.1441  0.2853  0.0000
  401MOL0     H54078  10.592  11.520  -0.420  0.0830 -0.3580  0.2615
  401MOL0     H54079  10.517  11.545  -0.258 -0.1671  1.1540 -1.6816
  401MOL0     H54080  10.683  11.377  -0.165  1.4613  0.9708  0.1624
  401MOL0     H54081  10.759  11.379  -0.337  0.3976 -0.4476 -0.3478
  401MOL0     H54082  10.707  11.629  -0.160  1.9889  2.3199  0.9118
  401MOL0     H54083  10.808  11.618  -0.298 -1.4747  1.6617  1.8323
  401MOL0     H54084  10.850  11.481  -0.042 -2.6927 -1.0593 -1.1463
  401MOL0     H54085  10.944  11.444  -0.191  0.6484  0.0654  1.8892
  401MOL0     H54086  10.880  11.677   0.085  1.3290 -1.3528  0.2215
  401MOL0     H54087  10.953  12.019   0.063 -0.0386  0.1671  2.0323
  401MOL0     H54088  11.011  11.918   0.188 -2.9076  0.6822 -0.1083
  401MOL0     H54089  11.248  11.976   0.099 -1.4709 -2.7578  0.6775
  401MOL0     H54090  11.178  12.060  -0.044 -1.4248  0.5619 -0.5245
  401MOL0     H54091  11.143  12.163   0.229  1.0036 -7.3183  0.5695
  401MOL0     H54092  11.052  12.214   0.089 -0.8564 -1.6766 -2.2659
  401MOL0     H54093  11.226  12.266  -0.050 -2.5650  0.1729  0.4186
  401MOL0     H54094  11.354  12.238   0.066 -1.4495 -1.2576  0.5914
  401MOL0     H54095  11.477  12.431   0.015  2.2888  1.5222  0.7055
  401MOL0     H54096  11.542  12.626  -0.091 -0.7120  2.6545 -0.4436
  401MOL0     H54097  11.541  13.046  -0.307 -0.9124 -3.2297 -0.2257
  401MOL0     H54098  11.550  13.244  -0.476 -0.3957  0.9753 -0.7366
  401MOL0     H54099  11.287  13.472  -0.661 -0.7437 -0.7115  0.0771
  401MOL0     H54100  11.397  13.436  -0.520  0.1172  0.4637 -0.5518
  401MOL0     H54101  11.492  13.579  -0.703  0.5863  1.0206 -1.9434
  401MOL0     H54102  11.580  13.418  -0.705  1.8561  2.7300  2.2563
  401MOL0     H54103  11.516  13.508  -0.913 -0.0276  0.9858  1.8620
  401MOL0     H54104  11.434  13.345  -0.902 -0.1822  0.4628 -0.3705
  401MOL0     H54105  11.280  13.603  -0.854 -1.3144 -1.0249  1.6615
  401MOL0     H54106  11.218  13.441  -0.879 -0.8513  0.1926 -0.5157
  401MOL0     H54107  11.280  13.410  -1.103 -1.5379 -0.1952  0.0874
  401MOL0     H54108  11.395  13.526  -1.094 -0.0019 -1.3416  0.9479
  401MOL0     H54109  11.094  13.566  -1.135 -1.0793  2.7545 -0.1847
  401MOL0     H54110  11.181  13.697  -1.055  0.0092  1.1130 -1.0557
  401MOL0     H54111  11.233  13.556  -1.318 -3.4739  0.1494 -0.6792
  401MOL0     H54112  11.341  13.676  -1.247 -0.0175  1.5736 -0.5161
  401MOL0     H54113  11.056  13.700  -1.345  0.5565 -1.2092 -0.8996
  401MOL0     H54114  11.137  13.838  -1.247  2.5918  0.9264 -0.5053
  401MOL0     H54115  11.179  13.133  -0.617 -0.7983  0.4733  0.4789
  401MOL0     H54116  11.143  12.961  -0.446  0.2096 -0.2204  0.5520
  401MOL0     H54117  11.159  12.801  -0.041 -0.7674 -0.9591 -3.2335
  401MOL0     H54118  11.087  12.621   0.095 -0.9992 -0.7567 -1.1918
  401MOL0     H54119  10.212  11.121   0.147  1.8438 -0.5072  0.9498
  401MOL0     H54120  10.208  10.967   0.355  0.1938 -0.1354 -0.6046
  401MOL0     H54121  10.242  10.568   0.554 -0.9213 -2.3926  1.6848
  401MOL0     H54122  10.221  10.440   0.731  0.4257 -1.5605 -3.0232
  401MOL0     H54123   9.969  10.542   1.082 -0.9410  0.3504 -1.3596
  401MOL0     H54124  10.070  10.649   0.964  0.1972 -1.0457 -1.5892
  401MOL0     H54125  10.261  10.545   1.013 -0.8055  5.1509  0.0463
  401MOL0     H54126  10.186  10.404   1.082 -3.5435  0.4669  0.4242
  401MOL0     H54127  10.149  10.516   1.293  0.7736  0.2529  1.0057
  401MOL0     H54128  10.178  10.669   1.221 -0.2738 -0.8688  0.1920
  401MOL0     H54129  10.375  10.593   1.359 -1.5793  3.4638 -0.1682
  401MOL0     H54130  10.387  10.444   1.254  1.3586  0.7787 -1.0460
  401MOL0     H54131  10.555  10.748   1.012 -1.7699  0.6346 -0.3297
  401MOL0     H54132   9.837  10.590   0.825  0.0808 -2.5912 -0.5013
  401MOL0     H54133   9.765  10.749   0.523  0.4606 -1.9526  0.2484
  401MOL0     H54134   9.726  10.731   0.692  0.6731  0.1699  0.3227
  401MOL0     H54135   9.836  10.864   0.644  1.3910  0.7389 -1.4288
  402MOL0     O54136   2.109   9.918  10.212 -0.6096  0.7282 -0.2472
  402MOL0     C54137   2.163   9.840  10.289 -0.6247 -0.2983 -1.0880
  402MOL0     O54138   2.137   9.710  10.322 -0.6280  0.1393  0.8164
  402MOL0     C54139   2.016   9.653  10.288  0.4629 -0.6099 -0.7072
  402MOL0     C54140   1.889   9.709  10.318  0.9753 -0.8252  0.4721
  402MOL0     C54141   1.768   9.635  10.301 -0.5304  0.7526 -0.5615
  402MOL0     C54142   1.778   9.494  10.262 -0.6956  0.4224  0.4277
  402MOL0     O54143   1.660   9.428  10.257 -0.0045 -0.2271 -0.0313
  402MOL0     C54144   1.595   9.444  10.135  0.9417 -0.2336 -0.6201
  402MOL0     C54145   1.470   9.356  10.121  0.2431  0.5917  1.6538
  402MOL0     C54146   1.349   9.418  10.177  0.9562 -0.6743  0.3082
  402MOL0     C54147   1.228   9.330  10.202 -0.2842  0.0293  0.9310
  402MOL0     C54148   1.110   9.419  10.245 -0.4221  0.5303  0.1418
  402MOL0     C54149   0.994   9.337  10.289 -0.6854  0.0448  1.1394
  402MOL0     C54150   0.904   9.434  10.371  0.2620  0.0202  0.4547
  402MOL0     C54151   0.803   9.360  10.445  1.0004  0.0060 -0.1966
  402MOL0     N54152   0.708   9.464  10.499  0.3930  0.5036 -0.2474
  402MOL0     C54153   0.734   9.528  10.618 -0.7951  0.4176 -0.4151
  402MOL0     C54154   0.614   9.583  10.637 -0.0450  0.2644 -0.4364
  402MOL0     C54155   0.593   9.694  10.744  0.1200  0.4525 -0.0230
  402MOL0     C54156   0.547   9.629  10.883  0.2248 -0.5978  1.0359
  402MOL0     C54157   0.659   9.592  10.979  0.7294  0.0862  0.6875
  402MOL0     C54158   0.615   9.502  11.092  0.8018  0.5165  1.3283
  402MOL0     O54159   0.677   9.546  11.210 -0.0076  0.0170  0.5240
  402MOL0     C54160   0.656   9.468  11.329 -0.6150 -0.1807 -0.2701
  402MOL0     C54161   0.595   9.343  11.334 -0.0982 -0.0444 -0.0239
  402MOL0     C54162   0.595   9.268  11.453 -0.7589 -0.0321 -0.0729
  402MOL0     C54163   0.646   9.322  11.579  0.3677 -0.2250 -0.8166
  402MOL0     C54164   0.614   9.250  11.706  0.6809  0.1692  0.5029
  402MOL0     O54165   0.531   9.143  11.696 -0.4722  1.0347 -0.0745
  402MOL0     C54166   0.458   9.124  11.811 -0.6547  0.8153  1.1530
  402MOL0     C54167   0.519   9.080  11.933  0.1593  1.2849 -0.7916
  402MOL0     C54168   0.444   9.075  12.054  0.0359  0.0243  0.0187
  402MOL0     C54169   0.306   9.112  12.057 -0.7568  0.8621  0.5724
  402MOL0     O54170   0.230   9.106  12.177 -0.3032  0.0610 -0.5271
  402MOL0     C54171   0.190   8.977  12.206 -0.0162  0.1989  0.1370
  402MOL0     C54172   0.261   8.920  12.327  0.0035  0.0282 -0.2020
  402MOL0     C54173   0.215   8.785  12.377  0.8040  0.3179 -0.4587
  402MOL0     C54174   0.336   8.710  12.436 -0.0677 -0.0686  0.7856
  402MOL0     C54175   0.372   8.751  12.573 -0.1300 -0.5690 -0.2783
  402MOL0     C54176   0.501   8.675  12.613  0.4313  0.7098 -0.8197
  402MOL0     C54177   0.557   8.719  12.749 -0.7689  0.0779 -0.3928
  402MOL0     C54178   0.704   8.694  12.752 -0.1707 -0.1032  0.2381
  402MOL0    Cl54179   0.747   8.661  12.922  0.2395 -0.1739 -0.2851
  402MOL0     C54180   0.250   9.130  11.925  0.4987  1.2153 -0.3361
  402MOL0     C54181   0.322   9.133  11.807  0.4540 -0.1805  0.0293
  402MOL0     O54182   0.658   9.293  11.808  0.7900 -0.2135  0.5634
  402MOL0     C54183   0.696   9.455  11.577  0.2444 -0.2704  0.1936
  402MOL0     C54184   0.713   9.528  11.450  0.6879  0.1368  0.9110
  402MOL0     N54185   0.506   9.549  10.553  0.3557  1.1608 -0.0922
  402MOL0     N54186   0.574   9.480  10.466 -0.2291 -0.2397  0.4337
  402MOL0     C54187   1.897   9.441  10.223 -0.7096 -0.2305 -0.4199
  402MOL0     C54188   2.017   9.518  10.250 -0.5690 -0.0105 -0.4371
  402MOL0     C54189   2.298   9.867  10.351  0.2872 -0.0732 -0.6647
  402MOL0     C54190   2.323   9.858  10.489  0.2544  0.7864 -0.3465
  402MOL0     C54191   2.446   9.893  10.549  0.2822 -0.1555  0.5879
  402MOL0     C54192   2.557   9.931  10.477  0.3148 -0.3106  0.5886
  402MOL0     O54193   2.677   9.986  10.530 -0.2862 -0.3601 -0.0056
  402MOL0     C54194   2.662  10.061  10.649 -0.3056 -0.4069  0.1929
  402MOL0     C54195   2.801  10.129  10.679  0.8679 -0.1814  0.1888
  402MOL0     C54196   2.909  10.016  10.704 -0.5078 -0.4479 -0.6226
  402MOL0     C54197   3.045  10.086  10.757  0.7375 -0.7427 -0.1264
  402MOL0     C54198   3.095  10.183  10.669  0.1991  0.3969 -0.2131
  402MOL0     C54199   3.145  10.265  10.592  0.6826  0.4310  0.2781
  402MOL0     C54200   2.542   9.921  10.334  0.6232 -0.1335  0.7914
  402MOL0     C54201   2.410   9.899  10.278 -0.2985  0.1144 -0.1433
  402MOL0     C54202   2.403   9.943  10.142 -0.5792 -0.3256  0.6311
  402MOL0     H54203   1.888   9.809  10.361  0.5785 -1.7056  2.6341
  402MOL0     H54204   1.671   9.679  10.321 -0.5780  2.5470 -3.9286
  402MOL0     H54205   1.560   9.547  10.124  4.8396  1.1143 -2.4809
  402MOL0     H54206   1.660   9.419  10.050  1.7052  1.3908 -0.5422
  402MOL0     H54207   1.493   9.263  10.174  0.9460 -0.6339 -0.6877
  402MOL0     H54208   1.447   9.351  10.015 -0.9712 -0.8821  1.9443
  402MOL0     H54209   1.329   9.506  10.115  2.2590  0.3833  1.3157
  402MOL0     H54210   1.363   9.458  10.278 -0.8547 -0.6036  0.5567
  402MOL0     H54211   1.194   9.272  10.115 -2.2041  0.1961  1.5094
  402MOL0     H54212   1.270   9.259  10.274  0.6401  0.2704  0.6297
  402MOL0     H54213   1.143   9.482  10.328  0.8743  1.7810 -1.2630
  402MOL0     H54214   1.086   9.484  10.160  0.7746 -0.5208 -1.0396
  402MOL0     H54215   0.947   9.296  10.200 -0.8699  2.5111  0.0067
  402MOL0     H54216   1.024   9.257  10.358 -3.4148 -0.6954  1.5828
  402MOL0     H54217   0.852   9.513  10.315 -0.2783  0.4440  1.5361
  402MOL0     H54218   0.970   9.492  10.436  0.4823  0.0901  0.1721
  402MOL0     H54219   0.750   9.272  10.407  1.6111 -1.4016  2.0374
  402MOL0     H54220   0.859   9.329  10.533  0.2658  1.1102  0.6935
  402MOL0     H54221   0.833   9.543  10.660 -1.0745 -1.5902  1.0848
  402MOL0     H54222   0.687   9.748  10.761 -0.0442  0.1457  2.2533
  402MOL0     H54223   0.521   9.765  10.702  0.0866 -0.2506 -1.1960
  402MOL0     H54224   0.462   9.689  10.915  0.5770 -0.7344  2.2835
  402MOL0     H54225   0.497   9.536  10.853  0.9621 -1.0481  1.1872
  402MOL0     H54226   0.707   9.677  11.029  0.5083 -0.0938  1.2160
  402MOL0     H54227   0.734   9.540  10.918 -1.5896 -1.0969 -1.3456
  402MOL0     H54228   0.625   9.395  11.068 -0.1574  0.9785 -1.5790
  402MOL0     H54229   0.506   9.505  11.107 -0.3922 -0.2732 -4.6209
  402MOL0     H54230   0.558   9.295  11.244 -1.5199 -1.1227  1.0929
  402MOL0     H54231   0.550   9.169  11.453 -0.9604  0.0577 -0.2783
  402MOL0     H54232   0.626   9.063  11.940 -0.0031  0.2379 -0.7052
  402MOL0     H54233   0.489   9.035  12.144 -0.0898  1.0286  0.5498
  402MOL0     H54234   0.081   8.979  12.219 -0.0200  2.2684  0.1216
  402MOL0     H54235   0.209   8.910  12.121 -1.4409  1.0939 -0.9246
  402MOL0     H54236   0.368   8.912  12.309  0.7475  4.3082  1.0522
  402MOL0     H54237   0.251   8.987  12.414  1.7635  2.6685 -1.8798
  402MOL0     H54238   0.138   8.804  12.452  0.7121 -0.1590 -0.4310
  402MOL0     H54239   0.164   8.728  12.298  1.3978  1.8955 -2.0501
  402MOL0     H54240   0.419   8.709  12.365 -1.0844  0.9355 -0.4638
  402MOL0     H54241   0.315   8.603  12.443 -0.2808 -0.0493  0.4250
  402MOL0     H54242   0.290   8.728  12.642 -1.8310 -0.3491 -2.1481
  402MOL0     H54243   0.404   8.856  12.581 -0.9999 -0.2928 -0.3511
  402MOL0     H54244   0.478   8.568  12.623 -1.2479  1.0838 -0.4339
  402MOL0     H54245   0.576   8.695  12.536 -0.1262  1.5249 -1.1654
  402MOL0     H54246   0.504   8.653  12.818 -1.4456  0.9114 -0.0965
  402MOL0     H54247   0.529   8.821  12.777  3.6179  0.9782  1.6819
  402MOL0     H54248   0.741   8.607  12.698  3.7391  0.5638  1.4875
  402MOL0     H54249   0.756   8.775  12.701 -0.0774  0.2831  0.9334
  402MOL0     H54250   0.142   9.140  11.923 -0.0175 -2.6551  0.4340
  402MOL0     H54251   0.257   9.143  11.721 -1.3520 -0.3388  1.2975
  402MOL0     H54252   0.742   9.509  11.660  2.4461  2.7357 -2.7239
  402MOL0     H54253   0.776   9.616  11.455 -1.4998  1.7277  3.1330
  402MOL0     H54254   1.893   9.337  10.193 -1.1404 -0.9209  1.8724
  402MOL0     H54255   2.111   9.465  10.244 -0.1797  0.6456 -0.1478
  402MOL0     H54256   2.248   9.838  10.566  1.3395  0.1802  0.5810
  402MOL0     H54257   2.443   9.916  10.655 -2.6561 -0.2511  0.5873
  402MOL0     H54258   2.635   9.996  10.733  0.5223 -0.2049  0.6206
  402MOL0     H54259   2.586  10.139  10.631 -0.4876 -0.8869 -1.2686
  402MOL0     H54260   2.791  10.204  10.758  1.1263 -0.5269  0.5515
  402MOL0     H54261   2.835  10.180  10.587 -2.5002 -0.5554 -1.4050
  402MOL0     H54262   2.928   9.967  10.608 -1.7553 -2.6462  0.1614
  402MOL0     H54263   2.888   9.939  10.779 -0.9655  0.1963 -0.0760
  402MOL0     H54264   3.006  10.123  10.852 -1.6217 -0.5744 -1.0804
  402MOL0     H54265   3.126  10.020  10.791  1.1028 -0.6513 -0.7988
  402MOL0     H54266   3.199  10.328  10.524 -0.3627  0.2303 -0.7970
  402MOL0     H54267   2.630   9.959  10.282 -0.0351 -0.2620 -0.4686
  402MOL0     H54268   2.365   9.858  10.084 -1.6295 -0.6084  1.6948
  402MOL0     H54269   2.333  10.026  10.133 -0.1203  0.2829  2.3485
  402MOL0     H54270   2.503   9.970  10.106 -0.7124 -1.1163 -0.3758
  403MOL0     O54271   2.548   9.946   6.803 -0.9191  0.6839 -0.1053
  403MOL0     C54272   2.525   9.852   6.725  0.1205  0.0422 -0.2581
  403MOL0     O54273   2.462   9.738   6.757  0.7238  0.6949 -0.7679
  403MOL0     C54274   2.361   9.745   6.854 -0.1644 -0.5013 -0.2526
  403MOL0     C54275   2.365   9.662   6.969  0.2826 -0.7691 -0.9514
  403MOL0     C54276   2.262   9.662   7.057  0.2771  1.1818  0.6154
  403MOL0     C54277   2.141   9.738   7.028 -0.7949  0.7820 -0.0405
  403MOL0     O54278   2.029   9.741   7.103  0.7201 -0.1602  0.3313
  403MOL0     C54279   1.979   9.633   7.185  0.0425  0.6535 -0.8359
  403MOL0     C54280   1.936   9.504   7.111  0.1911  0.0273 -0.5962
  403MOL0     C54281   1.829   9.531   6.999 -0.4216  0.3004  0.5554
  403MOL0     C54282   1.710   9.613   7.043  0.9915 -0.5577  0.0033
  403MOL0     C54283   1.613   9.551   7.143 -0.7544 -0.1049  0.2460
  403MOL0     C54284   1.571   9.660   7.243 -0.8072 -0.9440  0.2159
  403MOL0     C54285   1.496   9.614   7.362 -0.8313  0.2575 -0.2728
  403MOL0     C54286   1.476   9.716   7.473 -0.5394  0.7695 -0.4172
  403MOL0     N54287   1.412   9.659   7.592 -0.1880 -0.0179 -0.8284
  403MOL0     C54288   1.293   9.584   7.598  0.2559 -0.4282  0.2139
  403MOL0     C54289   1.261   9.577   7.731 -1.1774 -0.9266 -0.0638
  403MOL0     C54290   1.139   9.506   7.787  0.5276 -0.7768  0.6583
  403MOL0     C54291   1.161   9.358   7.812 -0.3315  0.2256 -0.3805
  403MOL0     C54292   1.221   9.296   7.676  0.2629  0.6698 -0.5452
  403MOL0     C54293   1.233   9.139   7.691  0.0551  0.0883  0.1043
  403MOL0     O54294   1.301   9.091   7.809  0.1197 -0.1898 -0.2794
  403MOL0     C54295   1.386   8.986   7.816 -0.1940  0.5000  0.4415
  403MOL0     C54296   1.440   8.905   7.713 -0.5115 -0.2554 -0.2977
  403MOL0     C54297   1.505   8.785   7.739 -0.2962 -1.0169 -0.7307
  403MOL0     C54298   1.543   8.742   7.867 -0.5078  0.1839  0.1750
  403MOL0     C54299   1.604   8.615   7.901 -0.9353 -0.0529  0.7419
  403MOL0     O54300   1.624   8.595   8.039  0.5943  1.1248 -0.1251
  403MOL0     C54301   1.675   8.466   8.058  0.6939  0.1945 -0.5866
  403MOL0     C54302   1.802   8.456   8.115 -0.6802  0.6871  0.0265
  403MOL0     C54303   1.850   8.325   8.143 -0.1079 -0.3260  0.3781
  403MOL0     C54304   1.773   8.215   8.123 -0.2169  0.3440 -0.1112
  403MOL0     O54305   1.802   8.082   8.159  0.0356  0.1270  0.4657
  403MOL0     C54306   1.895   8.079   8.268  0.0537  1.0018 -0.8391
  403MOL0     C54307   1.860   7.946   8.333 -0.7437  1.0362  0.8071
  403MOL0     C54308   1.751   7.970   8.436 -0.0369  0.2509  0.8315
  403MOL0     C54309   1.693   7.845   8.494  0.7765  0.7237 -0.0619
  403MOL0     C54310   1.580   7.782   8.403  0.1964 -0.2277 -0.1522
  403MOL0     C54311   1.447   7.872   8.363 -0.7574 -0.2283 -0.5430
  403MOL0     C54312   1.333   7.786   8.310 -0.4460  0.2387 -0.4961
  403MOL0     C54313   1.372   7.695   8.195 -0.4857  0.3729 -0.0257
  403MOL0    Cl54314   1.243   7.591   8.127  0.8659 -0.1794 -0.0381
  403MOL0     C54315   1.660   8.220   8.042  0.9793 -1.4213  0.9325
  403MOL0     C54316   1.608   8.349   8.014 -0.3927  1.0817 -0.0376
  403MOL0     O54317   1.647   8.552   7.802  0.0285  0.4727  0.0374
  403MOL0     C54318   1.504   8.827   7.971 -0.3332 -0.4523  0.8915
  403MOL0     C54319   1.425   8.939   7.945  0.3399  1.1065 -0.7421
  403MOL0     N54320   1.350   9.657   7.793 -0.4441  0.9178  0.4494
  403MOL0     N54321   1.440   9.707   7.717  0.1524 -0.0799  0.5790
  403MOL0     C54322   2.142   9.816   6.915  0.5610 -0.1856 -0.4872
  403MOL0     C54323   2.251   9.822   6.823 -0.4877 -0.5402 -0.2338
  403MOL0     C54324   2.602   9.836   6.600  0.2536 -0.2627  0.6283
  403MOL0     C54325   2.674   9.714   6.586  0.5778 -0.0823 -0.1768
  403MOL0     C54326   2.763   9.686   6.484  0.9999  0.7637  0.7808
  403MOL0     C54327   2.772   9.784   6.387 -0.1102 -0.0790 -0.3607
  403MOL0     O54328   2.838   9.765   6.275  0.2550 -0.4922 -0.4966
  403MOL0     C54329   2.867   9.635   6.224  0.2270 -0.1879 -0.1707
  403MOL0     C54330   2.864   9.657   6.071  0.7380 -0.5588  0.4224
  403MOL0     C54331   2.884   9.541   5.973 -0.8322  0.1094  1.0041
  403MOL0     C54332   2.907   9.572   5.826  0.2304  0.3453 -0.2152
  403MOL0     C54333   2.797   9.651   5.767  0.3268  0.3895 -0.0949
  403MOL0     C54334   2.700   9.719   5.734  0.0134 -0.1460 -0.3709
  403MOL0     C54335   2.695   9.904   6.390 -1.0471 -0.1751  0.4096
  403MOL0     C54336   2.617   9.932   6.497  0.1473  0.3679  0.0899
  403MOL0     C54337   2.546  10.071   6.499  0.0890  0.6116 -0.1268
  403MOL0     H54338   2.448   9.593   6.977 -1.5452 -2.9977  0.1617
  403MOL0     H54339   2.273   9.594   7.141  1.7994 -0.9243 -1.1661
  403MOL0     H54340   2.058   9.609   7.258 -0.0184 -3.3524 -1.8216
  403MOL0     H54341   1.896   9.671   7.246  0.8050 -2.3573  2.4303
  403MOL0     H54342   1.906   9.424   7.180 -1.5688 -0.0606 -1.4119
  403MOL0     H54343   2.031   9.475   7.064  1.5587  0.8765  1.5004
  403MOL0     H54344   1.789   9.437   6.958  0.1882  1.0537 -1.8902
  403MOL0     H54345   1.877   9.591   6.922 -0.6691  0.5596  0.6021
  403MOL0     H54346   1.763   9.699   7.087  1.1740 -1.0220  0.7045
  403MOL0     H54347   1.644   9.649   6.963  0.6449  1.1536  0.9939
  403MOL0     H54348   1.522   9.515   7.095 -1.0255 -0.4404  1.0045
  403MOL0     H54349   1.665   9.470   7.196 -0.7718  0.2992  0.8831
  403MOL0     H54350   1.667   9.697   7.280 -0.9993  1.6559 -1.6540
  403MOL0     H54351   1.534   9.744   7.184  1.5294 -0.4139 -0.5979
  403MOL0     H54352   1.554   9.529   7.401 -2.9388 -0.2766  1.9245
  403MOL0     H54353   1.399   9.580   7.325 -0.4438  0.5208 -1.5552
  403MOL0     H54354   1.573   9.758   7.501  0.1514 -1.0831  0.1672
  403MOL0     H54355   1.412   9.794   7.430 -1.0035  1.8245  2.0636
  403MOL0     H54356   1.245   9.550   7.507 -0.8672 -2.7472  1.6062
  403MOL0     H54357   1.111   9.553   7.881 -1.1301  0.4788 -0.3999
  403MOL0     H54358   1.061   9.518   7.711  1.6985 -4.0185 -1.2957
  403MOL0     H54359   1.236   9.344   7.891  0.0804 -0.8037 -0.9335
  403MOL0     H54360   1.069   9.308   7.845 -0.4308  0.9511  0.4954
  403MOL0     H54361   1.315   9.334   7.635  1.3198 -2.3980 -1.2828
  403MOL0     H54362   1.144   9.314   7.600  2.1077 -1.5608 -3.1564
  403MOL0     H54363   1.275   9.108   7.595  2.9487  1.9537  0.6422
  403MOL0     H54364   1.130   9.106   7.708 -0.4570  2.2465  1.6066
  403MOL0     H54365   1.424   8.930   7.609  1.0162  2.8193  0.0820
  403MOL0     H54366   1.520   8.718   7.656  3.0826 -0.2489 -0.8850
  403MOL0     H54367   1.853   8.548   8.140  1.2573 -0.6724  1.2800
  403MOL0     H54368   1.944   8.318   8.197  0.2004 -0.1630 -0.1340
  403MOL0     H54369   2.002   8.079   8.247  0.1777 -1.7151 -0.5982
  403MOL0     H54370   1.880   8.154   8.347  1.3439 -0.4559  0.8839
  403MOL0     H54371   1.850   7.868   8.257  1.3900  1.3950  0.0986
  403MOL0     H54372   1.942   7.912   8.398 -1.3386 -1.7542  0.2469
  403MOL0     H54373   1.794   8.025   8.520  2.3293 -1.1590  0.6305
  403MOL0     H54374   1.675   8.025   8.379  0.8335 -0.0873 -0.7040
  403MOL0     H54375   1.659   7.888   8.589  0.5574 -1.2971  0.8115
  403MOL0     H54376   1.759   7.764   8.525 -2.2128 -1.0743  2.1296
  403MOL0     H54377   1.542   7.699   8.463  0.9855  0.9259  2.0684
  403MOL0     H54378   1.623   7.744   8.310 -1.1332 -3.2177  0.3417
  403MOL0     H54379   1.408   7.924   8.451  1.1351  0.3340  0.0134
  403MOL0     H54380   1.484   7.952   8.299  1.2657  0.8933  1.8910
  403MOL0     H54381   1.246   7.850   8.292 -1.9704 -0.8391  2.4242
  403MOL0     H54382   1.299   7.724   8.393 -1.9020  1.2235 -0.3149
  403MOL0     H54383   1.399   7.755   8.108  0.2408  0.1876  0.0684
  403MOL0     H54384   1.459   7.631   8.213 -1.2185 -0.0127  2.4843
  403MOL0     H54385   1.619   8.124   8.015  0.6549 -1.1925  0.6042
  403MOL0     H54386   1.516   8.366   7.959 -0.2196  0.5195 -0.5149
  403MOL0     H54387   1.521   8.809   8.077  0.0199 -1.3280  0.6886
  403MOL0     H54388   1.388   8.996   8.030 -2.5461 -2.5137  0.7366
  403MOL0     H54389   2.046   9.858   6.887 -0.3112 -0.8882  1.2702
  403MOL0     H54390   2.257   9.893   6.742  2.9021 -1.6488 -1.1210
  403MOL0     H54391   2.640   9.636   6.655 -1.7889  1.5722  0.6676
  403MOL0     H54392   2.806   9.587   6.479 -1.8028 -0.6264  1.9751
  403MOL0     H54393   2.789   9.561   6.241 -1.8806  2.0186  0.3560
  403MOL0     H54394   2.966   9.596   6.250  0.6761  1.3993  0.6044
  403MOL0     H54395   2.934   9.737   6.047  0.0899 -0.1960 -0.2656
  403MOL0     H54396   2.764   9.695   6.053  1.5413  0.8306 -1.3011
  403MOL0     H54397   2.789   9.488   5.984 -1.3256  0.3127 -1.7462
  403MOL0     H54398   2.973   9.490   6.013 -1.2993 -2.3481 -0.8509
  403MOL0     H54399   3.006   9.616   5.817  0.6003 -0.6955 -1.4886
  403MOL0     H54400   2.913   9.476   5.774 -0.4096 -0.1012  0.4983
  403MOL0     H54401   2.608   9.765   5.703  0.6092  2.1730  1.0975
  403MOL0     H54402   2.702   9.964   6.300 -1.6699  2.4913  2.0171
  403MOL0     H54403   2.610  10.143   6.551  1.3846 -1.1588  0.8617
  403MOL0     H54404   2.527  10.120   6.403  0.3166  4.8259  1.7814
  403MOL0     H54405   2.446  10.069   6.543 -0.7750  3.1324 -1.7377
  404MOL0     O54406  10.298   0.398   3.824 -0.0228  0.5451 -0.0654
  404MOL0     C54407  10.182   0.435   3.844  0.1265  0.4828 -0.7196
  404MOL0     O54408  10.147   0.552   3.907 -0.0765  0.3866 -0.0661
  404MOL0     C54409  10.244   0.618   3.966 -0.3362 -0.5554 -0.1896
  404MOL0     C54410  10.322   0.701   3.895 -0.8741  0.5556  0.5740
  404MOL0     C54411  10.427   0.763   3.964 -0.1837 -0.9593 -0.6804
  404MOL0     C54412  10.448   0.752   4.101 -0.1719 -0.7192  0.0696
  404MOL0     O54413  10.540   0.816   4.177 -0.3078 -0.8307  0.0934
  404MOL0     C54414  10.619   0.916   4.110 -0.4182  0.8282 -0.0084
  404MOL0     C54415  10.731   0.962   4.204 -0.3239 -0.5677  0.1287
  404MOL0     C54416  10.687   1.022   4.337 -1.0025 -0.2417  0.6169
  404MOL0     C54417  10.799   1.087   4.414 -0.0174 -0.5336 -1.0451
  404MOL0     C54418  10.763   1.137   4.553  0.2457 -0.0819 -0.0385
  404MOL0     C54419  10.885   1.186   4.628  0.1444  0.5985  0.0010
  404MOL0     C54420  10.868   1.158   4.779  0.3122 -0.1000  0.6773
  404MOL0     C54421  10.746   1.204   4.851 -0.1679 -0.7776 -0.1711
  404MOL0     N54422  10.743   1.354   4.852 -0.5426  0.3449  0.8281
  404MOL0     C54423  10.790   1.428   4.951  0.5812 -0.7375  0.1512
  404MOL0     C54424  10.742   1.552   4.914 -0.4532  0.2856 -0.6351
  404MOL0     C54425  10.763   1.674   4.995 -0.0773  0.0165  0.8146
  404MOL0     C54426  10.647   1.771   5.006  0.4879 -0.3282  0.1634
  404MOL0     C54427  10.676   1.863   5.132  0.1252  0.5237  0.4430
  404MOL0     C54428  10.586   1.983   5.140 -0.3602 -0.2992 -0.9031
  404MOL0     O54429  10.451   1.951   5.168 -0.5806  0.2181 -0.3940
  404MOL0     C54430  10.353   2.045   5.180 -0.7629  0.1309  0.3927
  404MOL0     C54431  10.370   2.182   5.198  0.1706  0.2391  0.6984
  404MOL0     C54432  10.268   2.268   5.230 -0.0194  0.7591 -0.1787
  404MOL0     C54433  10.136   2.215   5.250  0.0002 -0.3491 -0.8658
  404MOL0     C54434  10.016   2.291   5.294 -0.4056 -0.7449 -0.0424
  404MOL0     O54435   9.897   2.223   5.291  0.0364 -0.4610 -0.4249
  404MOL0     C54436   9.781   2.299   5.282  0.8203  1.0248 -0.4937
  404MOL0     C54437   9.741   2.365   5.397  0.0649  0.0172  0.4285
  404MOL0     C54438   9.628   2.453   5.391 -1.2611  0.0946 -0.5792
  404MOL0     C54439   9.544   2.451   5.286  0.9974  0.3029  0.4500
  404MOL0     O54440   9.416   2.509   5.273  0.1666  0.8652 -0.0669
  404MOL0     C54441   9.379   2.578   5.390  0.6226  0.2100 -0.0723
  404MOL0     C54442   9.230   2.601   5.382 -0.0852 -0.6587 -0.2192
  404MOL0     C54443   9.150   2.483   5.449  0.3035  0.3305 -0.5990
  404MOL0     C54444   8.994   2.490   5.441 -0.0976  0.9295 -0.7126
  404MOL0     C54445   8.932   2.357   5.491  0.4980 -0.1149  0.4191
  404MOL0     C54446   8.782   2.373   5.513  0.2486  0.0859  0.2406
  404MOL0     C54447   8.750   2.453   5.632  1.0685 -0.0911 -0.4103
  404MOL0     C54448   8.597   2.471   5.641  0.0160 -0.4371 -0.2048
  404MOL0    Cl54449   8.585   2.571   5.795  0.0104 -0.3407  0.2658
  404MOL0     C54450   9.579   2.370   5.174 -0.2361  0.6930  0.5593
  404MOL0     C54451   9.694   2.296   5.173 -0.9842 -0.0325  0.1604
  404MOL0     O54452  10.034   2.409   5.333  0.7857 -0.0353  0.6336
  404MOL0     C54453  10.120   2.077   5.247  0.3702 -0.0978  1.3069
  404MOL0     C54454  10.223   1.993   5.198  0.9294 -0.2193  0.0739
  404MOL0     N54455  10.676   1.542   4.791 -0.1745  0.0058  0.6762
  404MOL0     N54456  10.676   1.423   4.755  0.3691  0.4165 -0.5942
  404MOL0     C54457  10.363   0.674   4.177 -0.4062  0.0948  0.8971
  404MOL0     C54458  10.264   0.607   4.111 -0.5096  0.3202 -0.6006
  404MOL0     C54459  10.065   0.356   3.788  0.4933  0.3355 -0.1251
  404MOL0     C54460   9.942   0.350   3.851  0.8589  0.4135  0.9030
  404MOL0     C54461   9.846   0.255   3.807  0.6540  0.2811  0.2632
  404MOL0     C54462   9.876   0.173   3.696 -0.0539 -0.3256  0.3502
  404MOL0     O54463   9.788   0.070   3.661  0.0069  0.9374 -0.8175
  404MOL0     C54464   9.657   0.064   3.711 -1.0996  0.5165 -0.3133
  404MOL0     C54465   9.644  -0.025   3.832 -0.4281  0.2665 -0.3870
  404MOL0     C54466   9.710  -0.165   3.799 -0.7412 -0.4938  1.2755
  404MOL0     C54467   9.690  -0.263   3.905 -0.3228 -0.1205  0.0239
  404MOL0     C54468   9.780  -0.246   4.013 -0.5782 -0.4433  0.6508
  404MOL0     C54469   9.857  -0.216   4.104 -1.6092  0.7921  1.5304
  404MOL0     C54470   9.993   0.183   3.635  1.1323  0.1175  1.3555
  404MOL0     C54471  10.091   0.272   3.672  0.5267 -0.6422  0.5920
  404MOL0     C54472  10.205   0.292   3.574  0.5775 -0.5454 -0.6238
  404MOL0     H54473  10.309   0.714   3.788 -0.2176  0.5716  0.4928
  404MOL0     H54474  10.487   0.829   3.902 -0.0664  0.3479  0.7655
  404MOL0     H54475  10.664   0.883   4.016  2.8600 -0.3989  1.8388
  404MOL0     H54476  10.567   1.012   4.100  0.9898  1.5019 -1.2128
  404MOL0     H54477  10.799   1.034   4.157  1.6427 -1.8208  0.9440
  404MOL0     H54478  10.801   0.879   4.218  0.7632  0.3792  0.4031
  404MOL0     H54479  10.647   0.943   4.401  0.2888 -1.0239  0.4982
  404MOL0     H54480  10.607   1.095   4.321 -0.4147  1.3244  3.9776
  404MOL0     H54481  10.888   1.024   4.412 -0.9143 -2.1133  1.8872
  404MOL0     H54482  10.832   1.174   4.358 -2.5783  1.7756  0.7455
  404MOL0     H54483  10.685   1.213   4.551 -1.0756 -1.2017  2.7928
  404MOL0     H54484  10.714   1.054   4.606 -0.9308 -0.1440 -1.1546
  404MOL0     H54485  10.972   1.123   4.607 -1.4006 -3.0638  3.2228
  404MOL0     H54486  10.910   1.291   4.617 -0.2212  0.6995  0.1224
  404MOL0     H54487  10.941   1.224   4.827 -0.9675  2.7027 -0.9346
  404MOL0     H54488  10.888   1.052   4.797 -0.0839  0.2227  3.4683
  404MOL0     H54489  10.646   1.174   4.817 -0.9765  3.5764 -2.3467
  404MOL0     H54490  10.754   1.168   4.954 -0.2838  0.4810  0.2954
  404MOL0     H54491  10.836   1.406   5.047 -0.4343 -0.4594  0.7207
  404MOL0     H54492  10.787   1.636   5.095 -2.7854 -2.3104  0.6894
  404MOL0     H54493  10.852   1.722   4.952 -0.5395 -0.5236 -0.8165
  404MOL0     H54494  10.632   1.828   4.914  2.0375  1.0810  0.7305
  404MOL0     H54495  10.553   1.716   5.016  0.8080 -0.7151  1.1255
  404MOL0     H54496  10.782   1.889   5.128 -0.1077  1.4625  0.0630
  404MOL0     H54497  10.661   1.800   5.220 -1.4180  2.7167  1.8520
  404MOL0     H54498  10.593   2.041   5.048  0.6185 -0.3911 -0.8918
  404MOL0     H54499  10.620   2.051   5.219 -0.6248 -0.9224 -0.2298
  404MOL0     H54500  10.471   2.218   5.212  0.8153 -1.5623  0.9645
  404MOL0     H54501  10.285   2.372   5.253  2.4898  0.8620 -2.0165
  404MOL0     H54502   9.809   2.360   5.483  1.6439 -2.8978 -0.8395
  404MOL0     H54503   9.597   2.492   5.487 -2.2355  0.2277 -0.9343
  404MOL0     H54504   9.387   2.522   5.484  1.2256  0.9184  0.3141
  404MOL0     H54505   9.431   2.671   5.416 -0.1012  1.5027 -2.9223
  404MOL0     H54506   9.206   2.694   5.433 -2.7836 -0.2959 -1.9365
  404MOL0     H54507   9.200   2.607   5.277 -0.9779 -2.3354 -0.0947
  404MOL0     H54508   9.181   2.388   5.406 -0.2947  1.2870 -3.3537
  404MOL0     H54509   9.182   2.485   5.554 -1.8553 -0.7006  0.1406
  404MOL0     H54510   8.968   2.497   5.335 -1.4093 -2.9464 -0.8249
  404MOL0     H54511   8.968   2.572   5.507  4.5688  1.1369  1.2684
  404MOL0     H54512   8.974   2.329   5.588 -1.1453  0.3568  1.3041
  404MOL0     H54513   8.929   2.281   5.412 -2.2739  1.9503 -1.6894
  404MOL0     H54514   8.735   2.408   5.421  2.4171  1.5650 -0.3554
  404MOL0     H54515   8.741   2.274   5.537  4.2097 -1.5707  0.8964
  404MOL0     H54516   8.799   2.550   5.631  2.7177 -0.8914 -1.9814
  404MOL0     H54517   8.786   2.407   5.724  0.5095 -2.9105 -1.4907
  404MOL0     H54518   8.568   2.552   5.573  5.0370  3.6220  1.8704
  404MOL0     H54519   8.540   2.378   5.635 -1.3183  0.2581  1.2225
  404MOL0     H54520   9.517   2.375   5.085 -0.1990  3.1796  0.5859
  404MOL0     H54521   9.725   2.236   5.088 -1.5872  1.0380 -0.8490
  404MOL0     H54522  10.020   2.037   5.260  0.1296 -0.2477 -0.6464
  404MOL0     H54523  10.216   1.885   5.204  1.0609 -0.1582  2.4059
  404MOL0     H54524  10.376   0.669   4.285 -4.0864  0.4099  1.4833
  404MOL0     H54525  10.208   0.533   4.166 -2.0110  1.4766 -0.5262
  404MOL0     H54526   9.915   0.401   3.943 -1.6927 -0.5505  0.7785
  404MOL0     H54527   9.752   0.263   3.860  1.6799  0.9804  2.0558
  404MOL0     H54528   9.590   0.027   3.632 -3.4539 -1.0611  2.2205
  404MOL0     H54529   9.616   0.164   3.729 -0.9003  0.8260 -1.5116
  404MOL0     H54530   9.539  -0.037   3.858 -0.1786  2.3088  1.9897
  404MOL0     H54531   9.696   0.021   3.917 -2.9952  0.8361  0.9761
  404MOL0     H54532   9.817  -0.143   3.794 -0.8820  0.1850  1.0466
  404MOL0     H54533   9.675  -0.200   3.701 -0.5332  0.0138  1.0138
  404MOL0     H54534   9.588  -0.256   3.944 -0.3262  0.8284 -0.1280
  404MOL0     H54535   9.712  -0.367   3.877  0.0279 -0.5303  1.6999
  404MOL0     H54536   9.925  -0.191   4.183 -0.9809  0.8047  1.0010
  404MOL0     H54537   9.997   0.122   3.545  1.8739 -0.2084  1.6081
  404MOL0     H54538  10.190   0.233   3.483  2.9208 -3.6242  0.8111
  404MOL0     H54539  10.205   0.398   3.549 -0.4501 -0.7730 -1.6685
  404MOL0     H54540  10.304   0.270   3.616  1.2900 -0.5524 -2.2129
  405MOL0     O54541   8.817   9.802   2.358 -0.6876  0.5855  0.3328
  405MOL0     C54542   8.931   9.847   2.387  0.2454  0.0639  0.0715
  405MOL0     O54543   8.993   9.930   2.312 -0.0670 -0.2092 -0.1997
  405MOL0     C54544   8.974   9.945   2.182 -0.8170  0.3275  0.0311
  405MOL0     C54545   8.937   9.844   2.080  1.4188  0.1670 -1.3880
  405MOL0     C54546   8.919   9.877   1.952  1.4000  0.6796 -1.0446
  405MOL0     C54547   8.940  10.007   1.907 -0.3929  0.5990 -0.2941
  405MOL0     O54548   8.913  10.025   1.769  0.1294  0.1367  0.1336
  405MOL0     C54549   8.938  10.150   1.710 -0.5667 -0.5833 -0.4913
  405MOL0     C54550   8.907  10.134   1.563 -0.4792  0.1128  0.2128
  405MOL0     C54551   8.929  10.266   1.491 -0.1651  0.1513 -0.4429
  405MOL0     C54552   9.074  10.298   1.499  0.3511  0.4280 -0.1047
  405MOL0     C54553   9.095  10.417   1.403 -0.0129 -0.9510 -0.2241
  405MOL0     C54554   9.077  10.544   1.476  0.4513 -0.3661 -0.0198
  405MOL0     C54555   9.077  10.671   1.382  0.5463  0.5234  1.0706
  405MOL0     C54556   9.188  10.768   1.424 -0.4829 -0.4958  0.0150
  405MOL0     N54557   9.166  10.903   1.361  0.0496 -0.1234  0.7261
  405MOL0     C54558   9.215  10.957   1.250  0.1857  0.2076  0.2261
  405MOL0     C54559   9.169  11.087   1.247  0.6843  0.7606  0.2904
  405MOL0     C54560   9.220  11.190   1.148 -0.1011 -0.5749  0.6160
  405MOL0     C54561   9.275  11.328   1.210  0.1222  0.2742 -0.4916
  405MOL0     C54562   9.157  11.407   1.254  0.0835 -0.2651 -0.3913
  405MOL0     C54563   9.196  11.545   1.298 -0.7830 -0.2243  0.6920
  405MOL0     O54564   9.077  11.618   1.320 -0.0276 -0.2635 -0.4492
  405MOL0     C54565   9.078  11.717   1.421  1.3365  0.2896  1.2825
  405MOL0     C54566   9.029  11.677   1.538  0.6376  0.4207 -0.2453
  405MOL0     C54567   9.023  11.774   1.636 -0.9344  0.4483 -0.6814
  405MOL0     C54568   9.086  11.903   1.624 -0.0533 -0.9171  0.1281
  405MOL0     C54569   9.071  12.006   1.726  0.0510  0.1551  0.2381
  405MOL0     O54570   9.144  12.119   1.710 -0.5143 -0.4650 -0.8022
  405MOL0     C54571   9.140  12.223   1.805 -0.2414  0.3300 -0.3602
  405MOL0     C54572   9.264  12.279   1.830 -0.2538  0.1668  0.7523
  405MOL0     C54573   9.278  12.399   1.901  0.9151  0.5673  0.3909
  405MOL0     C54574   9.159  12.461   1.976 -1.0987  0.7251  0.2820
  405MOL0     O54575   9.182  12.583   2.039 -0.6305  0.3181  0.5904
  405MOL0     C54576   9.090  12.613   2.141  0.9175  0.7116 -0.1687
  405MOL0     C54577   9.152  12.706   2.251  0.1427  0.0255 -0.1949
  405MOL0     C54578   9.119  12.848   2.220  0.8542 -0.6619 -0.7909
  405MOL0     C54579   9.204  12.947   2.305 -0.2271  0.1339  0.1866
  405MOL0     C54580   9.167  13.097   2.326 -0.2931 -0.5386 -0.4822
  405MOL0     C54581   9.130  13.174   2.193  0.0925  0.4707  0.6037
  405MOL0     C54582   9.083  13.319   2.228 -0.3825 -0.5343 -0.3384
  405MOL0     C54583   9.030  13.395   2.103  0.6964 -0.3557  0.1413
  405MOL0    Cl54584   8.871  13.321   2.047  0.4635  0.0230  0.0277
  405MOL0     C54585   9.036  12.395   1.954 -0.0712 -0.3770 -0.2759
  405MOL0     C54586   9.028  12.286   1.865 -0.0075 -0.5851 -0.3805
  405MOL0     O54587   8.980  11.997   1.808  0.5275  0.2961 -0.5612
  405MOL0     C54588   9.150  11.939   1.503  0.6973  0.2376  0.0660
  405MOL0     C54589   9.142  11.837   1.400 -0.3033  0.1447  0.1569
  405MOL0     N54590   9.083  11.103   1.346  0.1582 -0.1598 -0.1997
  405MOL0     N54591   9.084  10.997   1.415  0.5958  0.0676  0.6515
  405MOL0     C54592   8.993  10.103   1.999  0.9715  0.2936 -0.1662
  405MOL0     C54593   8.998  10.073   2.137  0.6997 -0.6114 -0.2339
  405MOL0     C54594   8.993   9.821   2.518 -0.4234  0.2383 -0.7776
  405MOL0     C54595   9.084   9.906   2.567 -0.3623 -0.3915  0.1036
  405MOL0     C54596   9.142   9.905   2.693 -0.4215  0.5637  0.8464
  405MOL0     C54597   9.108   9.802   2.782 -0.0667  0.1111 -0.0422
  405MOL0     O54598   9.175   9.784   2.902  0.1223 -0.1586 -0.3866
  405MOL0     C54599   9.319   9.799   2.900 -1.1641 -0.5132  0.2034
  405MOL0     C54600   9.375   9.708   3.011 -0.4666  0.3649  0.3450
  405MOL0     C54601   9.396   9.792   3.145 -0.3267  0.0118 -0.4720
  405MOL0     C54602   9.468   9.698   3.244  0.5781 -0.2844  0.6469
  405MOL0     C54603   9.492   9.761   3.371  0.7234  0.0876  1.3900
  405MOL0     C54604   9.525   9.826   3.468 -0.4971 -0.2914  0.9751
  405MOL0     C54605   9.010   9.709   2.733 -0.1710 -0.3649  0.0893
  405MOL0     C54606   8.949   9.724   2.609 -0.4655  0.7385  0.0849
  405MOL0     C54607   8.849   9.613   2.573  0.3852  0.2437 -0.2681
  405MOL0     H54608   8.942   9.746   2.126  0.7185  1.3668  1.4089
  405MOL0     H54609   8.901   9.798   1.879  0.7793 -2.0389  1.7883
  405MOL0     H54610   8.874  10.218   1.767  1.2943  0.0595  0.9524
  405MOL0     H54611   9.043  10.177   1.721 -0.8014 -0.0228  0.5684
  405MOL0     H54612   8.806  10.100   1.536  0.0147 -2.2864  1.1191
  405MOL0     H54613   8.957  10.049   1.517 -1.8689 -1.0519  0.7674
  405MOL0     H54614   8.873  10.344   1.544 -1.4378 -1.8645  1.3299
  405MOL0     H54615   8.900  10.255   1.386 -1.0964 -2.4660  0.0290
  405MOL0     H54616   9.109  10.326   1.599  4.9635  2.5179 -1.9938
  405MOL0     H54617   9.139  10.211   1.481  0.5143 -0.2631  3.1539
  405MOL0     H54618   9.198  10.424   1.367  0.1471  4.1323  0.4187
  405MOL0     H54619   9.034  10.413   1.313  0.2059  0.7151 -0.4761
  405MOL0     H54620   8.984  10.556   1.533  0.3863  1.5051 -0.4584
  405MOL0     H54621   9.157  10.560   1.548 -0.4568  4.2009  0.2677
  405MOL0     H54622   8.986  10.732   1.385 -0.7968 -1.4076  1.3461
  405MOL0     H54623   9.098  10.647   1.277 -1.8139  0.3185  0.5813
  405MOL0     H54624   9.183  10.790   1.531  1.8421 -1.5735  0.4106
  405MOL0     H54625   9.288  10.732   1.397 -0.7437 -0.2996 -1.2772
  405MOL0     H54626   9.294  10.918   1.186  0.5191 -1.1529  1.4084
  405MOL0     H54627   9.301  11.148   1.089  1.6691  1.0479  1.7459
  405MOL0     H54628   9.152  11.225   1.070  1.3966 -0.1155 -0.5182
  405MOL0     H54629   9.336  11.307   1.298 -1.5123  1.2636  0.9452
  405MOL0     H54630   9.317  11.388   1.128 -2.1275  1.8014 -0.6107
  405MOL0     H54631   9.108  11.350   1.334  0.8390 -0.9964 -0.4267
  405MOL0     H54632   9.083  11.414   1.174 -1.6422 -1.5432  0.9779
  405MOL0     H54633   9.247  11.597   1.217  0.4134  1.0268  2.1844
  405MOL0     H54634   9.265  11.539   1.383  2.0653 -0.6753 -1.4914
  405MOL0     H54635   8.977  11.582   1.553  0.5412  0.1702 -1.9626
  405MOL0     H54636   8.974  11.736   1.725 -1.9727 -3.2444 -2.6378
  405MOL0     H54637   9.364  12.243   1.810  0.0897  1.0286  0.8653
  405MOL0     H54638   9.378  12.430   1.931  1.5529 -2.8523  2.3585
  405MOL0     H54639   8.999  12.648   2.092  0.6151 -1.9404 -1.6613
  405MOL0     H54640   9.060  12.519   2.189  0.6342  0.7169 -0.3355
  405MOL0     H54641   9.110  12.681   2.349 -1.7146  1.9212 -0.4402
  405MOL0     H54642   9.260  12.697   2.262  0.1628  1.2597  0.8091
  405MOL0     H54643   9.135  12.881   2.117  1.9667  0.0225 -0.4236
  405MOL0     H54644   9.015  12.867   2.244  0.9195  0.7457 -1.5181
  405MOL0     H54645   9.302  12.944   2.256  1.5973  0.4049  3.5165
  405MOL0     H54646   9.199  12.907   2.407  1.2736  3.0930  1.5362
  405MOL0     H54647   9.243  13.154   2.381 -0.4487  0.3988 -1.2075
  405MOL0     H54648   9.075  13.099   2.385 -0.6585 -0.3598 -1.0475
  405MOL0     H54649   9.213  13.168   2.122 -0.9202 -1.6407 -0.4983
  405MOL0     H54650   9.046  13.135   2.135  0.6285  0.3822 -0.1214
  405MOL0     H54651   9.177  13.367   2.258 -1.6365  0.0242  3.1536
  405MOL0     H54652   9.014  13.308   2.313 -0.1928 -1.4747 -0.2944
  405MOL0     H54653   8.991  13.492   2.135 -3.2043 -0.8396 -2.4577
  405MOL0     H54654   9.100  13.406   2.020 -2.8117  0.0882 -3.0476
  405MOL0     H54655   8.952  12.442   2.003  1.1109  0.3943  1.1045
  405MOL0     H54656   8.936  12.237   1.833  0.1046  0.1913 -1.9998
  405MOL0     H54657   9.212  12.026   1.484  1.1967 -0.7396 -3.4133
  405MOL0     H54658   9.199  11.864   1.311  0.3684  2.5462  1.2527
  405MOL0     H54659   9.020  10.205   1.973 -1.9277  0.4193 -3.2974
  405MOL0     H54660   9.028  10.151   2.206  0.5582  0.0271 -0.8840
  405MOL0     H54661   9.119   9.987   2.504 -0.3510 -2.9375 -3.4392
  405MOL0     H54662   9.220   9.977   2.716  0.6892 -0.4479  0.3753
  405MOL0     H54663   9.346   9.903   2.923 -0.2752 -1.1337  2.1565
  405MOL0     H54664   9.371   9.761   2.812  2.8402 -0.8169  2.4474
  405MOL0     H54665   9.468   9.664   2.973 -0.0837  0.7777  0.8075
  405MOL0     H54666   9.307   9.625   3.033 -1.4195  1.4417  1.5456
  405MOL0     H54667   9.304   9.832   3.190  0.5994 -0.8659  2.4363
  405MOL0     H54668   9.466   9.874   3.134 -1.2604  0.5734 -2.7842
  405MOL0     H54669   9.422   9.600   3.259  0.3411 -0.4796 -1.1531
  405MOL0     H54670   9.566   9.680   3.198 -0.4875 -2.3934 -0.9236
  405MOL0     H54671   9.548   9.888   3.552 -2.7622  1.9565  0.0369
  405MOL0     H54672   8.988   9.618   2.789 -0.0495  0.0625  0.8406
  405MOL0     H54673   8.752   9.658   2.549 -0.3119 -0.0892  1.7363
  405MOL0     H54674   8.899   9.564   2.489  0.6123  0.0772 -0.0354
  405MOL0     H54675   8.836   9.546   2.658 -0.9166  2.2630  1.2080
  406MOL0     O54676  10.497   6.994  10.290 -0.1415 -0.3332  0.9937
  406MOL0     C54677  10.614   6.977  10.326 -0.5746  0.0163  0.0507
  406MOL0     O54678  10.659   6.957  10.454  0.5075  0.5215  0.1255
  406MOL0     C54679  10.576   6.985  10.550 -0.4712  0.0700  0.1134
  406MOL0     C54680  10.642   7.016  10.665 -0.2078  0.3823 -0.2320
  406MOL0     C54681  10.573   7.055  10.776  0.4738 -0.0853  0.1346
  406MOL0     C54682  10.429   7.054  10.773  0.4826  0.1856 -0.4074
  406MOL0     O54683  10.375   7.114  10.896  0.1775 -0.8027  0.8439
  406MOL0     C54684  10.233   7.107  10.905  0.1596 -0.1358  0.2200
  406MOL0     C54685  10.180   7.162  11.032  0.4414 -0.3084  0.4134
  406MOL0     C54686  10.232   7.307  11.056 -0.4418 -0.0930 -1.3598
  406MOL0     C54687  10.156   7.395  11.168  0.0321 -0.5488  0.5227
  406MOL0     C54688  10.184   7.552  11.146  0.3065 -0.7126  0.0729
  406MOL0     C54689  10.112   7.615  11.023 -0.2051  0.2453  0.3107
  406MOL0     C54690  10.152   7.773  11.025  0.7028 -0.0736 -0.0913
  406MOL0     C54691  10.106   7.825  10.886  0.3277  0.7428 -0.3507
  406MOL0     N54692  10.184   7.771  10.773  0.4619 -0.0254  0.5653
  406MOL0     C54693  10.139   7.672  10.694  0.7384  0.7030  0.0288
  406MOL0     C54694  10.235   7.633  10.623 -0.1270 -0.5270 -0.0175
  406MOL0     C54695  10.229   7.541  10.510 -1.2044  1.3200 -0.1545
  406MOL0     C54696  10.191   7.615  10.385  0.1957  0.7920  0.1523
  406MOL0     C54697  10.185   7.510  10.274 -0.3482 -0.3833  0.4530
  406MOL0     C54698  10.151   7.560  10.130  0.7089  0.0832 -0.2202
  406MOL0     O54699  10.269   7.608  10.080 -0.7828 -0.5931 -0.8631
  406MOL0     C54700  10.300   7.613   9.946  0.0488  0.0333 -0.6529
  406MOL0     C54701  10.209   7.593   9.844  1.0315 -0.3739 -0.2653
  406MOL0     C54702  10.237   7.604   9.706 -0.5363  0.4325  0.5803
  406MOL0     C54703  10.365   7.628   9.662 -0.0336  0.4207 -0.0499
  406MOL0     C54704  10.404   7.638   9.519 -0.1816  0.0189 -0.3353
  406MOL0     O54705  10.308   7.579   9.445  0.4779 -0.0784 -0.0376
  406MOL0     C54706  10.317   7.557   9.311  0.2220  0.2912  1.0623
  406MOL0     C54707  10.253   7.440   9.262 -0.6769 -0.2722 -0.2648
  406MOL0     C54708  10.267   7.401   9.127  0.2420 -0.4485 -0.2669
  406MOL0     C54709  10.341   7.482   9.036  0.5631 -0.1675 -0.2304
  406MOL0     O54710  10.350   7.462   8.896  0.3268  0.0821 -0.7167
  406MOL0     C54711  10.292   7.346   8.843  0.2863  0.5857  0.1002
  406MOL0     C54712  10.313   7.333   8.690  0.1190 -0.3046  0.1290
  406MOL0     C54713  10.271   7.203   8.638 -0.2144  0.3267 -0.2996
  406MOL0     C54714  10.175   7.217   8.514 -0.2978  0.3396  0.2565
  406MOL0     C54715  10.157   7.085   8.446 -0.0469 -0.1219 -0.4918
  406MOL0     C54716  10.059   7.122   8.334 -0.2565 -0.1707  0.2946
  406MOL0     C54717  10.023   6.998   8.242 -0.6342  0.2130  0.2149
  406MOL0     C54718   9.941   6.908   8.339  0.5144  0.3090 -0.2310
  406MOL0    Cl54719   9.861   6.787   8.234 -0.4269 -0.0727 -0.3601
  406MOL0     C54720  10.404   7.596   9.090  0.1026  0.0547  0.4560
  406MOL0     C54721  10.387   7.633   9.218  0.1108  0.4321  0.0950
  406MOL0     O54722  10.500   7.704   9.479  0.0309 -0.4288 -0.2531
  406MOL0     C54723  10.458   7.654   9.767 -0.0883 -0.7987 -0.2152
  406MOL0     C54724  10.424   7.655   9.900 -0.1858 -0.8485 -0.0878
  406MOL0     N54725  10.352   7.693  10.664 -0.4729  0.4347  1.2100
  406MOL0     N54726  10.319   7.780  10.750  0.3265 -0.8703  0.3203
  406MOL0     C54727  10.359   7.008  10.665 -0.7932  0.7624 -0.1849
  406MOL0     C54728  10.438   6.967  10.556 -0.3029  0.0956  0.2254
  406MOL0     C54729  10.716   6.970  10.226  0.3066  0.4293  0.8264
  406MOL0     C54730  10.849   6.997  10.264  0.5819 -0.2777 -0.0390
  406MOL0     C54731  10.954   7.010  10.172  0.4307 -0.4197  0.1040
  406MOL0     C54732  10.935   6.978  10.039  0.7392 -0.5443  0.7403
  406MOL0     O54733  11.041   6.955   9.952 -0.0096 -0.6068  0.6928
  406MOL0     C54734  11.169   6.919  10.002  0.4230 -1.0588 -0.2512
  406MOL0     C54735  11.263   6.861   9.900  0.3573  0.2066 -0.5170
  406MOL0     C54736  11.305   6.952   9.786 -0.3151  0.1030  0.3907
  406MOL0     C54737  11.455   6.997   9.802  0.2236  0.7248 -0.9586
  406MOL0     C54738  11.457   7.126   9.872 -0.9913  0.4842  0.9335
  406MOL0     C54739  11.461   7.230   9.940 -0.8051 -0.5724  0.4912
  406MOL0     C54740  10.805   6.944   9.997  0.2257  0.1046  0.1082
  406MOL0     C54741  10.690   6.942  10.085  0.1306 -0.0779 -0.3330
  406MOL0     C54742  10.554   6.901  10.022 -0.4767 -0.7158 -0.3387
  406MOL0     H54743  10.750   7.024  10.668  0.1680 -2.1153 -3.0251
  406MOL0     H54744  10.625   7.097  10.861  4.1589 -2.3191 -0.7787
  406MOL0     H54745  10.200   7.174  10.825 -0.2138 -0.7082 -0.1080
  406MOL0     H54746  10.205   7.002  10.891  0.4326  0.0276 -1.8213
  406MOL0     H54747  10.196   7.096  11.118 -1.2048 -0.5149  0.5856
  406MOL0     H54748  10.071   7.167  11.033  0.3753 -0.5270 -1.6046
  406MOL0     H54749  10.242   7.356  10.959  2.0751  2.9090  0.2396
  406MOL0     H54750  10.335   7.303  11.091 -1.0072  3.5404  1.2963
  406MOL0     H54751  10.049   7.372  11.173 -1.0777  3.9703  2.0316
  406MOL0     H54752  10.190   7.369  11.268 -2.6245  0.4735  1.8054
  406MOL0     H54753  10.160   7.591  11.245  0.9615 -2.2985  0.8975
  406MOL0     H54754  10.289   7.567  11.123 -0.0136 -3.3264 -4.2605
  406MOL0     H54755  10.150   7.562  10.935  1.2688  0.5255  0.7513
  406MOL0     H54756  10.004   7.604  11.038 -0.9436  0.5784 -3.6012
  406MOL0     H54757  10.259   7.786  11.044  0.3028  3.5497  0.4290
  406MOL0     H54758  10.103   7.824  11.109  2.5512 -0.1480  1.0797
  406MOL0     H54759   9.998   7.818  10.873  0.6380 -2.3340 -1.9112
  406MOL0     H54760  10.129   7.932  10.876 -1.3176  1.0310 -1.4522
  406MOL0     H54761  10.037   7.635  10.681  0.6394  1.1251 -0.4128
  406MOL0     H54762  10.326   7.492  10.496 -1.5953  1.2820 -3.7667
  406MOL0     H54763  10.161   7.458  10.528 -0.0865  0.3454 -0.2718
  406MOL0     H54764  10.085   7.642  10.396 -0.6575 -2.0159 -0.3517
  406MOL0     H54765  10.263   7.695  10.368  1.3177 -0.4055 -0.9154
  406MOL0     H54766  10.118   7.428  10.300 -2.5491  1.7486  1.9412
  406MOL0     H54767  10.281   7.458  10.265 -1.1750 -2.0228  0.7583
  406MOL0     H54768  10.065   7.626  10.137 -0.1390 -0.9431 -0.7204
  406MOL0     H54769  10.117   7.476  10.070  2.4582  1.3558 -3.2151
  406MOL0     H54770  10.106   7.568   9.872  0.7634  1.9244  1.0306
  406MOL0     H54771  10.157   7.586   9.635 -0.9027 -0.2597  1.1496
  406MOL0     H54772  10.191   7.384   9.332 -0.5941 -1.4005 -1.0597
  406MOL0     H54773  10.216   7.305   9.130  2.7200 -1.8924 -1.3912
  406MOL0     H54774  10.344   7.260   8.886  1.1430  0.6757 -0.7465
  406MOL0     H54775  10.184   7.346   8.864  0.4030  1.7555  0.7833
  406MOL0     H54776  10.257   7.417   8.649 -1.7312 -0.2594  2.5517
  406MOL0     H54777  10.415   7.349   8.654  0.5780 -1.7452  0.7191
  406MOL0     H54778  10.360   7.146   8.609 -0.7446 -1.2127  0.9746
  406MOL0     H54779  10.214   7.151   8.716 -0.8701 -0.2206 -1.1194
  406MOL0     H54780  10.234   7.281   8.448  0.6696 -0.5468  0.2533
  406MOL0     H54781  10.076   7.261   8.528 -0.3232  2.1703 -4.1333
  406MOL0     H54782  10.112   7.008   8.510 -0.0423 -0.0755 -0.4315
  406MOL0     H54783  10.256   7.046   8.419  0.1565 -1.6910  2.0810
  406MOL0     H54784   9.964   7.163   8.370  0.4230 -0.0035  2.0202
  406MOL0     H54785  10.096   7.214   8.288  0.5870  0.4571  2.1379
  406MOL0     H54786  10.113   6.951   8.200 -1.5422  1.3157 -3.3246
  406MOL0     H54787   9.960   7.031   8.159 -2.4836  1.3823  1.9955
  406MOL0     H54788  10.004   6.867   8.418  1.4000  2.3202  0.1939
  406MOL0     H54789   9.868   6.972   8.389  1.2004  0.2525  0.8864
  406MOL0     H54790  10.456   7.666   9.025 -2.2741  1.2642 -0.2356
  406MOL0     H54791  10.431   7.728   9.247  1.0425  0.3161 -0.8607
  406MOL0     H54792  10.559   7.685   9.741 -0.6848 -1.1405 -3.4160
  406MOL0     H54793  10.505   7.667   9.971 -1.6945 -1.8223  1.8889
  406MOL0     H54794  10.252   6.991  10.666 -0.3366 -3.7760 -3.0016
  406MOL0     H54795  10.383   6.925  10.472 -1.2236 -0.6022  1.1438
  406MOL0     H54796  10.877   7.005  10.368 -0.5008 -2.9308  0.5624
  406MOL0     H54797  11.054   7.020  10.215 -0.1105  3.3105  0.8767
  406MOL0     H54798  11.168   6.853  10.089 -4.1309  1.2431  1.7739
  406MOL0     H54799  11.220   7.008  10.040 -1.6800  0.0617  0.1052
  406MOL0     H54800  11.218   6.777   9.847  0.4835  1.9254 -3.5596
  406MOL0     H54801  11.355   6.811   9.933  0.0913 -1.6115 -2.3335
  406MOL0     H54802  11.233   7.030   9.760 -0.1712  0.7022  1.6948
  406MOL0     H54803  11.313   6.892   9.696  0.5566  1.0356 -0.1741
  406MOL0     H54804  11.512   6.921   9.857 -1.9208 -0.6343 -0.4753
  406MOL0     H54805  11.504   7.002   9.705  1.9314  1.8807 -0.0918
  406MOL0     H54806  11.469   7.331   9.976  0.9743 -0.2924 -0.5823
  406MOL0     H54807  10.806   6.929   9.889 -3.7589 -0.8116  0.0262
  406MOL0     H54808  10.487   6.843  10.086 -2.6234  0.9331 -0.9813
  406MOL0     H54809  10.500   6.977   9.965  0.4398  1.0818  1.0950
  406MOL0     H54810  10.588   6.818   9.959  1.1477 -1.1945  1.0873
  407MOL0     O54811   7.917   2.970   9.864  0.8503 -0.1986 -0.1867
  407MOL0     C54812   8.044   2.986   9.872 -0.6408 -0.7384  0.1240
  407MOL0     O54813   8.110   3.101   9.914 -0.0552  0.1638  0.1247
  407MOL0     C54814   8.033   3.211   9.933  0.1252 -0.9252  0.4283
  407MOL0     C54815   8.022   3.301   9.828  0.2699  0.2602  0.7118
  407MOL0     C54816   7.935   3.407   9.842 -0.9612 -0.3582  0.0524
  407MOL0     C54817   7.859   3.439   9.953 -0.0863  0.5881 -0.5248
  407MOL0     O54818   7.765   3.534   9.943  0.8077  0.1293  0.0403
  407MOL0     C54819   7.638   3.485   9.991  0.1388 -0.2077  0.1467
  407MOL0     C54820   7.550   3.596  10.014  0.9980  0.2544  0.9526
  407MOL0     C54821   7.529   3.658   9.867 -0.5158 -0.0398 -0.9098
  407MOL0     C54822   7.411   3.758   9.862  0.8042 -0.4105  0.1168
  407MOL0     C54823   7.363   3.799   9.720 -0.7511 -0.2057  0.5991
  407MOL0     C54824   7.212   3.777   9.699  0.6734  0.4522  0.7367
  407MOL0     C54825   7.187   3.818   9.548  0.6117  0.4820 -0.1021
  407MOL0     C54826   7.044   3.791   9.511 -0.2574 -0.3389  0.3183
  407MOL0     N54827   7.004   3.651   9.531 -0.0482 -0.0788  0.1024
  407MOL0     C54828   7.043   3.549   9.445  0.2616  1.2966 -0.9841
  407MOL0     C54829   6.981   3.441   9.504 -0.5112 -0.0545  0.3916
  407MOL0     C54830   6.991   3.295   9.463 -0.0608  0.9876 -0.1349
  407MOL0     C54831   7.133   3.237   9.444 -0.4853 -0.2523  0.4231
  407MOL0     C54832   7.117   3.085   9.441  0.4746 -0.3345  0.1888
  407MOL0     C54833   7.253   3.026   9.456 -0.0609  0.3379  0.2723
  407MOL0     O54834   7.331   3.068   9.342  0.0856  0.0930  0.2922
  407MOL0     C54835   7.459   3.003   9.328  0.3978 -0.1282  0.3682
  407MOL0     C54836   7.507   2.893   9.398 -0.0821  0.2004 -0.4858
  407MOL0     C54837   7.634   2.857   9.380  0.7368  0.3482 -0.8705
  407MOL0     C54838   7.718   2.929   9.293  0.2534  1.2605  0.2322
  407MOL0     C54839   7.856   2.890   9.283  0.2103  0.6578 -0.0932
  407MOL0     O54840   7.925   2.954   9.182  0.5373  0.6470  0.8359
  407MOL0     C54841   8.053   2.906   9.174  0.1794 -0.7414 -0.0453
  407MOL0     C54842   8.090   2.773   9.158  0.0003 -0.2759  0.3615
  407MOL0     C54843   8.233   2.734   9.156 -0.1427 -0.9579 -0.0099
  407MOL0     C54844   8.335   2.827   9.171 -0.1134 -0.9964 -0.2124
  407MOL0     O54845   8.470   2.786   9.180  0.0791 -0.4127  0.1139
  407MOL0     C54846   8.517   2.686   9.077 -0.2272  0.2309 -0.4673
  407MOL0     C54847   8.648   2.623   9.134 -0.7692 -0.8658  0.3258
  407MOL0     C54848   8.696   2.519   9.037  0.4416 -0.4495  0.1153
  407MOL0     C54849   8.825   2.459   9.080  0.4850 -0.6712  0.2696
  407MOL0     C54850   8.872   2.339   9.006 -0.1251  1.0171  0.2013
  407MOL0     C54851   8.937   2.377   8.875  0.4603 -0.4763  0.3532
  407MOL0     C54852   8.963   2.257   8.787 -0.1661  0.1183  1.0291
  407MOL0     C54853   9.021   2.311   8.660 -0.2317 -0.7335 -0.1974
  407MOL0    Cl54854   9.171   2.406   8.682  0.1444  0.2883 -0.8546
  407MOL0     C54855   8.296   2.962   9.192 -0.6786 -0.8941  0.1189
  407MOL0     C54856   8.162   3.003   9.192  0.3557  0.2202 -0.4103
  407MOL0     O54857   7.899   2.811   9.376  0.2480 -0.5923  0.1842
  407MOL0     C54858   7.662   3.023   9.201  0.7305  0.1016  0.7173
  407MOL0     C54859   7.531   3.064   9.225 -0.6877  0.5008  0.1006
  407MOL0     N54860   6.892   3.488   9.600 -0.0368  0.1181 -0.5629
  407MOL0     N54861   6.912   3.614   9.624 -0.6991 -0.3156  0.7420
  407MOL0     C54862   7.887   3.358  10.066  0.0284  0.7481  0.0943
  407MOL0     C54863   7.970   3.244  10.057 -0.8314  0.3275 -0.7027
  407MOL0     C54864   8.117   2.882   9.806 -0.1228  0.0754  0.3840
  407MOL0     C54865   8.080   2.819   9.689  0.8269  0.3452  0.2179
  407MOL0     C54866   8.151   2.714   9.643 -0.9291  0.1571  0.4268
  407MOL0     C54867   8.267   2.659   9.700 -1.2897  0.7885 -0.3535
  407MOL0     O54868   8.358   2.563   9.658 -1.1991  0.7520 -0.1670
  407MOL0     C54869   8.359   2.536   9.521 -0.4969  0.6636  0.3718
  407MOL0     C54870   8.502   2.486   9.481  0.9091  0.2385  0.7385
  407MOL0     C54871   8.534   2.362   9.557 -0.8152  0.3895 -1.1373
  407MOL0     C54872   8.674   2.307   9.538  0.6111 -0.9536  0.6546
  407MOL0     C54873   8.690   2.251   9.401  0.0189  0.4031 -0.5559
  407MOL0     C54874   8.686   2.200   9.289  0.2723  0.2303  0.6212
  407MOL0     C54875   8.315   2.732   9.809  1.1502 -0.1637 -0.6581
  407MOL0     C54876   8.244   2.842   9.859 -0.4808  0.4656 -0.4072
  407MOL0     C54877   8.312   2.916   9.969 -0.1256 -0.1476 -0.6891
  407MOL0     H54878   8.078   3.295   9.735  2.3124  0.3179  1.9003
  407MOL0     H54879   7.924   3.482   9.765  0.6348  0.1506  0.2910
  407MOL0     H54880   7.605   3.420   9.909  2.0284 -1.6262  0.4414
  407MOL0     H54881   7.634   3.430  10.086 -0.3293  1.7876  1.3412
  407MOL0     H54882   7.598   3.663  10.086 -0.7765  0.0302  2.3890
  407MOL0     H54883   7.451   3.566  10.047 -2.0552  0.7525 -5.9656
  407MOL0     H54884   7.518   3.576   9.795  1.4577 -2.3270  1.2129
  407MOL0     H54885   7.620   3.709   9.835 -0.3983  0.3867  0.0679
  407MOL0     H54886   7.339   3.698   9.917 -0.0616 -0.0053 -0.5524
  407MOL0     H54887   7.410   3.848   9.924 -1.2458  0.7718 -1.5173
  407MOL0     H54888   7.393   3.903   9.701  1.7333 -1.0089 -0.3586
  407MOL0     H54889   7.421   3.747   9.643  0.2702  1.0784  0.4581
  407MOL0     H54890   7.182   3.672   9.712  0.1705  0.8267  3.0110
  407MOL0     H54891   7.167   3.834   9.781  2.3014  0.5631  1.5848
  407MOL0     H54892   7.248   3.752   9.487 -1.6561  0.1580 -2.1870
  407MOL0     H54893   7.201   3.923   9.523 -0.9187  0.7867  0.1604
  407MOL0     H54894   6.972   3.860   9.555  0.3082  1.7063 -1.7498
  407MOL0     H54895   7.019   3.819   9.408 -1.6877  0.1986  0.7811
  407MOL0     H54896   7.119   3.542   9.367  1.5350 -1.2087  0.3738
  407MOL0     H54897   6.922   3.239   9.526 -2.7813  1.3541 -2.5970
  407MOL0     H54898   6.950   3.281   9.363  0.7706  1.5448 -0.5686
  407MOL0     H54899   7.176   3.270   9.349  1.2730  1.4427  1.7104
  407MOL0     H54900   7.194   3.270   9.529 -1.6120 -0.1628  1.2246
  407MOL0     H54901   7.064   3.058   9.349  0.9022 -1.7988  0.3483
  407MOL0     H54902   7.061   3.054   9.530  2.9661 -0.6272  1.7483
  407MOL0     H54903   7.241   2.917   9.452 -0.1177  0.2228  2.2356
  407MOL0     H54904   7.293   3.053   9.554 -1.6847 -0.8440  1.3223
  407MOL0     H54905   7.445   2.827   9.458 -1.5940  0.0477 -2.1244
  407MOL0     H54906   7.667   2.769   9.435 -4.4274 -0.1627  2.0322
  407MOL0     H54907   8.014   2.697   9.141 -1.3910  0.6593  2.0618
  407MOL0     H54908   8.248   2.633   9.120  0.1462 -0.4064 -1.5436
  407MOL0     H54909   8.449   2.601   9.070 -1.2823  0.7055  2.6262
  407MOL0     H54910   8.546   2.738   8.985  0.2808  0.4476 -0.1874
  407MOL0     H54911   8.715   2.708   9.149 -0.5010 -1.5302  3.7906
  407MOL0     H54912   8.632   2.588   9.236  1.2515  1.1730  1.4263
  407MOL0     H54913   8.621   2.440   9.046 -0.8189  0.7757  0.8860
  407MOL0     H54914   8.701   2.554   8.934 -2.2352 -1.1808 -0.3455
  407MOL0     H54915   8.824   2.435   9.187  2.5117 -1.7177  0.0936
  407MOL0     H54916   8.906   2.531   9.062  0.3677 -0.8541 -1.0854
  407MOL0     H54917   8.783   2.276   8.993 -0.2360  1.1353  0.3808
  407MOL0     H54918   8.956   2.290   9.055 -0.6693 -3.8384 -2.9648
  407MOL0     H54919   8.875   2.448   8.820  3.8427  1.9490 -0.6780
  407MOL0     H54920   9.016   2.436   8.922 -2.6970  3.5923  1.1252
  407MOL0     H54921   8.866   2.214   8.761 -1.6661  2.7290  1.8922
  407MOL0     H54922   9.032   2.187   8.834 -1.3377 -2.8391 -1.3423
  407MOL0     H54923   9.052   2.230   8.594  0.1872  0.1631 -1.1345
  407MOL0     H54924   8.952   2.379   8.610  1.5628  2.3202  1.1508
  407MOL0     H54925   8.373   3.038   9.198 -2.3753  1.1902 -2.1786
  407MOL0     H54926   8.142   3.109   9.195 -0.1177  0.1088  0.4289
  407MOL0     H54927   7.726   3.079   9.135 -0.8128  1.1376  0.0426
  407MOL0     H54928   7.491   3.148   9.169  2.7247  1.7525 -0.7042
  407MOL0     H54929   7.845   3.381  10.163 -2.1754  3.3540 -1.3212
  407MOL0     H54930   7.979   3.171  10.137  0.5032 -0.1322 -1.2292
  407MOL0     H54931   7.983   2.843   9.648  2.1648  3.1530 -1.7076
  407MOL0     H54932   8.107   2.666   9.556 -2.9710  0.0583  1.4554
  407MOL0     H54933   8.321   2.619   9.460  0.2313 -1.2141 -2.8886
  407MOL0     H54934   8.280   2.463   9.500 -1.2381  1.5798 -0.1315
  407MOL0     H54935   8.565   2.573   9.503  0.4477  0.9870 -0.7464
  407MOL0     H54936   8.499   2.475   9.373 -0.8697  1.8301  0.5716
  407MOL0     H54937   8.469   2.276   9.540 -1.2728  0.3027  0.8919
  407MOL0     H54938   8.532   2.389   9.663  0.4851  0.4409 -1.1047
  407MOL0     H54939   8.748   2.388   9.538  0.4187 -0.7481 -1.0386
  407MOL0     H54940   8.704   2.238   9.618 -0.8172 -1.1054  1.0886
  407MOL0     H54941   8.676   2.162   9.190  2.2011 -0.5727  0.6949
  407MOL0     H54942   8.405   2.697   9.856  1.2990 -1.6339 -1.9514
  407MOL0     H54943   8.409   2.869   9.988  0.9156  1.3204 -2.1231
  407MOL0     H54944   8.320   3.016   9.926 -1.0761 -0.3881 -1.4534
  407MOL0     H54945   8.257   2.913  10.063  0.7682 -0.7663 -0.1716
  408MOL0     O54946   7.886   1.313  10.836 -0.0192 -0.2811  0.7203
  408MOL0     C54947   7.838   1.417  10.800  0.4121 -0.5126  0.4033
  408MOL0     O54948   7.818   1.530  10.883  0.4816  0.1081 -0.7410
  408MOL0     C54949   7.853   1.532  11.018 -0.9964  0.0042 -0.4373
  408MOL0     C54950   7.774   1.465  11.108 -0.1280  0.3440  0.3701
  408MOL0     C54951   7.795   1.482  11.250  0.2675  0.6801 -0.1914
  408MOL0     C54952   7.910   1.547  11.296  0.0427 -0.0441 -0.6525
  408MOL0     O54953   7.926   1.549  11.435  0.4499  0.1971  0.3088
  408MOL0     C54954   7.911   1.678  11.496  0.3644  0.2524  0.8410
  408MOL0     C54955   7.869   1.658  11.642 -0.5976 -0.1606 -0.1149
  408MOL0     C54956   7.721   1.617  11.649 -0.6817  0.4339 -0.9497
  408MOL0     C54957   7.601   1.717  11.635 -0.6983  0.0613 -0.7937
  408MOL0     C54958   7.471   1.686  11.690  0.9055  0.5253  0.4017
  408MOL0     C54959   7.379   1.811  11.699  0.1363 -0.5517  0.5184
  408MOL0     C54960   7.238   1.776  11.732 -0.4894 -0.6487 -0.3324
  408MOL0     C54961   7.142   1.895  11.726 -0.5472 -0.9495 -0.4016
  408MOL0     N54962   7.011   1.888  11.786  0.4861  0.7564  0.0875
  408MOL0     C54963   6.948   2.010  11.817  0.2711 -0.5522  0.4637
  408MOL0     C54964   6.813   1.986  11.808 -0.2670 -0.3877 -0.4347
  408MOL0     C54965   6.702   2.081  11.849 -0.4901 -0.0055 -0.5974
  408MOL0     C54966   6.736   2.167  11.973  0.5934 -0.3439  0.1238
  408MOL0     C54967   6.753   2.093  12.095 -0.6751 -0.0630 -0.1483
  408MOL0     C54968   6.821   2.170  12.208  0.1197  0.0788 -0.9422
  408MOL0     O54969   6.952   2.212  12.163 -1.0645  0.1376 -0.3073
  408MOL0     C54970   7.058   2.130  12.165 -0.2274 -0.6340  0.2017
  408MOL0     C54971   7.175   2.196  12.132 -0.2076 -0.3251 -0.4788
  408MOL0     C54972   7.301   2.131  12.124  0.4237 -0.8749  0.3119
  408MOL0     C54973   7.308   1.997  12.146 -0.0524 -0.0200  0.8238
  408MOL0     C54974   7.439   1.924  12.138  0.3800  0.3845 -0.3244
  408MOL0     O54975   7.443   1.810  12.206 -0.0062 -0.8040 -0.5798
  408MOL0     C54976   7.552   1.728  12.195 -0.5144  0.8145 -0.2709
  408MOL0     C54977   7.585   1.665  12.309  0.0850 -0.3880  0.1439
  408MOL0     C54978   7.697   1.573  12.312 -0.0532 -0.3882 -0.1003
  408MOL0     C54979   7.753   1.532  12.188  0.3781  0.5670 -0.2146
  408MOL0     O54980   7.865   1.454  12.189 -0.3896 -0.3395 -0.0708
  408MOL0     C54981   7.857   1.324  12.243 -0.1855 -0.3074 -0.4456
  408MOL0     C54982   7.996   1.262  12.233 -0.1659 -0.2949  1.0875
  408MOL0     C54983   7.982   1.125  12.303  0.1400 -0.3785  0.2363
  408MOL0     C54984   8.118   1.056  12.327 -0.0714  0.2268  0.0798
  408MOL0     C54985   8.100   0.987  12.470 -1.1922 -0.5355  0.8970
  408MOL0     C54986   8.215   0.911  12.536 -0.0867  0.7649  0.3105
  408MOL0     C54987   8.312   0.837  12.438 -0.2535  0.0347 -0.1496
  408MOL0     C54988   8.425   0.774  12.512 -0.2437  0.5804 -0.0921
  408MOL0    Cl54989   8.348   0.632  12.588  0.1075 -0.5377 -0.4145
  408MOL0     C54990   7.710   1.588  12.066 -0.8610  0.1299 -0.2531
  408MOL0     C54991   7.610   1.685  12.071 -1.4660  0.2849 -0.6959
  408MOL0     O54992   7.523   1.969  12.060 -0.3952  0.4692  0.5973
  408MOL0     C54993   7.188   1.931  12.172 -0.9692  0.0772 -0.3315
  408MOL0     C54994   7.068   1.996  12.184  0.7236  0.7455  0.7356
  408MOL0     N54995   6.802   1.855  11.760 -0.6191 -0.8521 -0.0240
  408MOL0     N54996   6.926   1.797  11.767  0.1767 -0.8667  0.1734
  408MOL0     C54997   7.997   1.614  11.200  0.4955 -0.0362 -0.2914
  408MOL0     C54998   7.960   1.617  11.069  0.3054  0.2145 -0.1631
  408MOL0     C54999   7.761   1.419  10.674 -0.7623  0.4840 -1.4440
  408MOL0     C55000   7.634   1.466  10.688  0.8488 -0.3763  0.3022
  408MOL0     C55001   7.546   1.453  10.573  0.0289 -0.8874  1.1333
  408MOL0     C55002   7.593   1.400  10.457  0.3157  0.3343  0.9759
  408MOL0     O55003   7.527   1.385  10.345 -0.1568  1.0848  0.1107
  408MOL0     C55004   7.384   1.422  10.335 -0.7498 -0.4901 -0.7374
  408MOL0     C55005   7.314   1.375  10.206 -0.0567  0.1591 -0.3126
  408MOL0     C55006   7.347   1.231  10.160 -0.2576 -0.3217 -0.9429
  408MOL0     C55007   7.309   1.114  10.247 -0.0639  0.4361 -0.8216
  408MOL0     C55008   7.426   1.081  10.335 -0.4307 -0.3319 -0.6697
  408MOL0     C55009   7.536   1.072  10.387 -0.1446 -0.1765  0.6515
  408MOL0     C55010   7.727   1.359  10.446  0.2766 -0.1379 -0.5254
  408MOL0     C55011   7.813   1.371  10.554 -0.3342 -0.8736  0.3693
  408MOL0     C55012   7.936   1.289  10.541  0.9219  0.2542 -0.1557
  408MOL0     H55013   7.691   1.405  11.074  1.5372 -3.2815  2.1863
  408MOL0     H55014   7.724   1.447  11.324  1.6907 -1.2777  0.3208
  408MOL0     H55015   8.009   1.727  11.488  0.6631 -0.4872 -0.1459
  408MOL0     H55016   7.834   1.737  11.445 -1.1183 -0.8033  1.7743
  408MOL0     H55017   7.894   1.753  11.690 -1.6376 -0.6392  1.4622
  408MOL0     H55018   7.934   1.583  11.686  0.4925  1.6007  1.4070
  408MOL0     H55019   7.707   1.572  11.748  2.5685 -1.1613 -1.0439
  408MOL0     H55020   7.704   1.548  11.566 -1.4640 -0.8687  0.2556
  408MOL0     H55021   7.628   1.804  11.694  0.9435 -1.6885  1.1923
  408MOL0     H55022   7.591   1.746  11.530 -0.6396 -0.5344 -0.9707
  408MOL0     H55023   7.407   1.619  11.632 -1.1649  1.7939  1.0762
  408MOL0     H55024   7.474   1.643  11.790  0.2292  0.0199  0.2150
  408MOL0     H55025   7.425   1.893  11.755 -0.3698  0.5220 -0.5832
  408MOL0     H55026   7.375   1.855  11.598  2.0393 -2.1687 -0.3439
  408MOL0     H55027   7.236   1.741  11.836  0.2604 -0.5901 -0.2919
  408MOL0     H55028   7.199   1.694  11.671  0.4222 -3.2390  2.2995
  408MOL0     H55029   7.185   1.987  11.767 -2.1692  0.7488 -2.3070
  408MOL0     H55030   7.124   1.900  11.618 -3.1267 -0.5098 -0.0064
  408MOL0     H55031   6.996   2.099  11.855 -0.9665 -0.9730  3.3691
  408MOL0     H55032   6.706   2.163  11.777 -0.4134  2.1653  1.7039
  408MOL0     H55033   6.609   2.025  11.853 -1.1347  1.0947  1.6923
  408MOL0     H55034   6.830   2.215  11.947  0.7158  0.4437  1.8415
  408MOL0     H55035   6.657   2.242  11.980 -0.1759 -1.2756  3.0758
  408MOL0     H55036   6.809   2.002  12.071 -1.8065 -0.0116 -3.4399
  408MOL0     H55037   6.652   2.065  12.128  0.5744 -2.5944  1.9446
  408MOL0     H55038   6.823   2.104  12.296 -1.6973 -2.3092 -2.5647
  408MOL0     H55039   6.774   2.263  12.243  0.3586  0.8520 -2.5915
  408MOL0     H55040   7.170   2.297  12.093  1.9488 -0.4871 -1.3076
  408MOL0     H55041   7.384   2.193  12.093 -2.3922  3.1773 -0.0021
  408MOL0     H55042   7.532   1.690  12.400  2.3874  1.9703  0.9948
  408MOL0     H55043   7.728   1.543  12.412 -1.3099 -0.9478  0.1469
  408MOL0     H55044   7.814   1.328  12.344  0.2898  1.4523 -0.2782
  408MOL0     H55045   7.792   1.261  12.182 -2.5932 -2.2669  3.6854
  408MOL0     H55046   8.041   1.270  12.134  1.0501  0.8743  1.7082
  408MOL0     H55047   8.059   1.325  12.296 -1.6471  1.8714  0.5223
  408MOL0     H55048   7.925   1.137  12.395  0.3394 -3.6122  0.8875
  408MOL0     H55049   7.927   1.051  12.244  1.2677  1.0542 -2.8367
  408MOL0     H55050   8.204   1.123  12.338  0.6898 -0.9688  1.8317
  408MOL0     H55051   8.142   0.982  12.250  0.6465  0.0145  0.5015
  408MOL0     H55052   8.016   0.917  12.476 -0.9494 -0.8454  0.7178
  408MOL0     H55053   8.073   1.070  12.536  0.1565  0.8155 -0.1903
  408MOL0     H55054   8.276   0.989  12.582  1.2301  0.7828 -1.3668
  408MOL0     H55055   8.174   0.842  12.611 -2.1907  2.3526  0.7190
  408MOL0     H55056   8.353   0.921  12.381 -0.1778  1.3755  1.7445
  408MOL0     H55057   8.259   0.772  12.369 -1.4412  0.5397  0.2567
  408MOL0     H55058   8.504   0.754  12.439  0.7493 -1.8321  1.5136
  408MOL0     H55059   8.471   0.832  12.592  2.4516 -2.9959  1.2158
  408MOL0     H55060   7.761   1.562  11.974  0.0013 -1.7782  0.7064
  408MOL0     H55061   7.568   1.726  11.980  1.9226  2.3854 -1.4862
  408MOL0     H55062   7.193   1.823  12.184 -0.7052  0.3151  2.2739
  408MOL0     H55063   6.976   1.940  12.192 -0.4589  1.7320 -3.5093
  408MOL0     H55064   8.082   1.673  11.235  0.8265 -0.1528 -0.8897
  408MOL0     H55065   8.018   1.678  11.000 -0.3295  3.5394  2.0291
  408MOL0     H55066   7.604   1.521  10.776 -2.1144 -1.8139  0.3133
  408MOL0     H55067   7.451   1.504  10.570 -0.1980 -1.3273 -0.7367
  408MOL0     H55068   7.376   1.529  10.354  1.4777 -0.5430  0.9298
  408MOL0     H55069   7.326   1.383  10.420 -2.1029 -0.4434 -1.6070
  408MOL0     H55070   7.333   1.445  10.124  1.5735  0.3683  0.2003
  408MOL0     H55071   7.207   1.389  10.225 -0.7873  2.3988 -4.7231
  408MOL0     H55072   7.449   1.223  10.122  0.5283  1.7236  0.5331
  408MOL0     H55073   7.287   1.225  10.069 -1.7271  1.7337 -0.1808
  408MOL0     H55074   7.226   1.134  10.316  0.3951  0.1349 -0.1710
  408MOL0     H55075   7.275   1.026  10.192 -0.2268 -2.5092  3.4742
  408MOL0     H55076   7.624   1.076  10.447  1.1109 -1.4473 -1.0161
  408MOL0     H55077   7.773   1.320  10.356  1.8799 -4.0258  1.7093
  408MOL0     H55078   8.016   1.356  10.573  1.1487 -0.7908  1.5851
  408MOL0     H55079   7.930   1.205  10.610  2.1155  0.7611  0.5945
  408MOL0     H55080   7.947   1.246  10.441 -0.2457 -1.4551  0.4110
  409MOL0     O55081   7.304   2.878   2.737 -0.3495  0.9199 -0.0555
  409MOL0     C55082   7.313   2.991   2.684  0.5353 -0.5755 -0.7258
  409MOL0     O55083   7.416   3.079   2.703 -0.6121  0.3906 -0.2436
  409MOL0     C55084   7.527   3.023   2.772  0.5319  1.1587 -0.8388
  409MOL0     C55085   7.632   2.954   2.698  0.5124  0.4328  0.4260
  409MOL0     C55086   7.739   2.902   2.772 -1.4723 -0.6116  0.4900
  409MOL0     C55087   7.743   2.925   2.907 -0.1494  0.1799 -0.6660
  409MOL0     O55088   7.853   2.867   2.973  0.8303  0.3307 -0.7540
  409MOL0     C55089   7.912   2.947   3.085  0.2315 -0.1698 -0.0767
  409MOL0     C55090   8.041   2.882   3.140 -0.0023  0.9511 -1.4385
  409MOL0     C55091   8.086   2.950   3.264  0.1497  0.7488  0.2180
  409MOL0     C55092   8.009   2.936   3.388 -0.5126 -0.5221 -0.2237
  409MOL0     C55093   8.025   2.794   3.447  0.0211  0.1964  0.9476
  409MOL0     C55094   8.007   2.807   3.600  0.6076  0.1643  0.3181
  409MOL0     C55095   7.899   2.891   3.662  0.7795 -0.7304  0.2502
  409MOL0     C55096   7.787   2.813   3.714  0.1236 -0.0069  0.1319
  409MOL0     N55097   7.685   2.895   3.768 -0.5345 -0.1895  0.7612
  409MOL0     C55098   7.613   3.001   3.715 -0.5770  0.3648 -0.1540
  409MOL0     C55099   7.541   3.067   3.813  0.8092  0.7153 -0.1822
  409MOL0     C55100   7.449   3.184   3.786  1.0740  0.2649  1.0050
  409MOL0     C55101   7.495   3.305   3.867  0.1844 -0.3980  0.1740
  409MOL0     C55102   7.407   3.419   3.829 -0.1276  0.0239  1.3764
  409MOL0     C55103   7.458   3.551   3.888  0.2711  0.6001  0.6745
  409MOL0     O55104   7.483   3.553   4.027 -0.1564  0.7188  0.7484
  409MOL0     C55105   7.500   3.677   4.087  0.2361  0.4469  0.3159
  409MOL0     C55106   7.504   3.803   4.031  0.7449  0.3262 -0.1050
  409MOL0     C55107   7.493   3.915   4.104  0.8466 -0.8487 -1.2862
  409MOL0     C55108   7.485   3.912   4.246 -0.8168  0.0861  0.2502
  409MOL0     C55109   7.468   4.035   4.324 -0.2595  0.7698  0.1520
  409MOL0     O55110   7.490   4.025   4.464  0.6546  0.3878  0.4890
  409MOL0     C55111   7.449   4.122   4.546  0.0274  0.3001 -0.1144
  409MOL0     C55112   7.489   4.254   4.540 -0.3221  0.3184  0.5248
  409MOL0     C55113   7.429   4.341   4.630  0.4583  0.2182 -0.1938
  409MOL0     C55114   7.357   4.300   4.743 -0.1244  0.7738  0.0966
  409MOL0     O55115   7.318   4.380   4.845 -1.1663  0.4356  0.3070
  409MOL0     C55116   7.231   4.485   4.807 -0.8949 -0.0934 -0.3418
  409MOL0     C55117   7.084   4.453   4.814 -0.2631 -0.4528 -0.1828
  409MOL0     C55118   7.043   4.391   4.955 -0.9481 -0.7868  0.0107
  409MOL0     C55119   7.065   4.505   5.070  0.5646 -0.2374 -0.4702
  409MOL0     C55120   7.000   4.452   5.197 -0.5285  0.1199 -0.0059
  409MOL0     C55121   7.012   4.547   5.316  0.3140 -0.3604 -0.2385
  409MOL0     C55122   6.940   4.491   5.435  0.7038 -0.3997 -1.0644
  409MOL0     C55123   6.924   4.605   5.535  0.8678  0.8014  0.1693
  409MOL0    Cl55124   6.791   4.712   5.490  0.0174 -0.2822  0.4910
  409MOL0     C55125   7.336   4.165   4.762 -0.6036  0.5258 -0.0002
  409MOL0     C55126   7.373   4.072   4.654 -0.0253 -0.1949  0.2679
  409MOL0     O55127   7.453   4.139   4.264  0.2128 -0.7270  0.5426
  409MOL0     C55128   7.487   3.785   4.311 -0.4054 -0.5074 -0.7745
  409MOL0     C55129   7.492   3.671   4.231 -0.2149 -0.0846 -0.1482
  409MOL0     N55130   7.556   2.975   3.922  0.1773 -0.5087 -0.0944
  409MOL0     N55131   7.627   2.869   3.889  0.3863 -0.9157  0.2991
  409MOL0     C55132   7.658   3.018   2.973  0.3539  0.1705 -0.6038
  409MOL0     C55133   7.537   3.053   2.914 -0.5138 -0.5507  0.0790
  409MOL0     C55134   7.208   3.047   2.602 -0.2492 -0.5249  0.2214
  409MOL0     C55135   7.124   3.139   2.666  0.7188 -0.7828  0.8485
  409MOL0     C55136   7.017   3.190   2.597 -0.4792 -0.0490  0.2812
  409MOL0     C55137   6.986   3.137   2.469  0.1428  1.0944 -0.8353
  409MOL0     O55138   6.877   3.181   2.396  0.1053  0.1413 -0.9792
  409MOL0     C55139   6.788   3.283   2.450 -0.4422 -0.4295  0.2144
  409MOL0     C55140   6.652   3.302   2.370 -1.0307  0.6915 -0.1678
  409MOL0     C55141   6.560   3.394   2.451  0.3732  0.2693  0.2923
  409MOL0     C55142   6.612   3.537   2.465 -0.5691  0.1485 -0.5486
  409MOL0     C55143   6.528   3.613   2.567 -0.3034 -0.7605 -0.0566
  409MOL0     C55144   6.474   3.674   2.654 -0.2154  0.4843 -0.0295
  409MOL0     C55145   7.050   3.020   2.426 -0.2709 -0.4772  0.0107
  409MOL0     C55146   7.168   2.982   2.479 -0.3694 -0.6346 -0.1068
  409MOL0     C55147   7.265   2.890   2.405  0.2188  0.0781  0.0216
  409MOL0     H55148   7.617   2.942   2.591 -0.9232 -0.0773  0.6523
  409MOL0     H55149   7.809   2.829   2.733  1.0045  2.3129 -0.9058
  409MOL0     H55150   7.950   3.040   3.042  0.1141 -0.0307  0.1212
  409MOL0     H55151   7.838   2.954   3.165 -0.3096 -0.2693 -0.5589
  409MOL0     H55152   8.134   2.878   3.081  4.6043  1.3475  4.8073
  409MOL0     H55153   8.016   2.778   3.162  0.0322  0.6067 -2.8730
  409MOL0     H55154   8.080   3.057   3.243  1.2705  2.3505  6.1275
  409MOL0     H55155   8.185   2.912   3.290  0.5854  0.1749 -2.0934
  409MOL0     H55156   8.046   3.020   3.449 -1.7345  0.7586 -1.1733
  409MOL0     H55157   7.902   2.954   3.372  0.1704  1.5206 -3.6666
  409MOL0     H55158   7.949   2.737   3.393  0.8852 -1.4086  1.3889
  409MOL0     H55159   8.126   2.759   3.425 -0.2909  0.5132 -1.3095
  409MOL0     H55160   8.010   2.703   3.634  4.3391  0.1751  0.5128
  409MOL0     H55161   8.104   2.848   3.632  1.9291  0.3560 -3.4339
  409MOL0     H55162   7.872   2.960   3.582  3.0778 -0.4823 -0.3862
  409MOL0     H55163   7.940   2.944   3.748  0.7536  0.2553 -0.3389
  409MOL0     H55164   7.744   2.751   3.635 -0.4855 -1.6074  1.6500
  409MOL0     H55165   7.827   2.752   3.795 -1.4402  1.6033  2.2304
  409MOL0     H55166   7.620   3.024   3.609  2.2090 -0.8204 -0.3010
  409MOL0     H55167   7.448   3.214   3.681  2.8491 -1.0145  0.5709
  409MOL0     H55168   7.343   3.159   3.802  0.4376  1.6485 -0.6548
  409MOL0     H55169   7.486   3.291   3.975 -1.1084 -0.4201  0.0809
  409MOL0     H55170   7.603   3.318   3.864  0.2369 -0.5081  1.2458
  409MOL0     H55171   7.302   3.411   3.858 -0.1891 -0.2565  1.0761
  409MOL0     H55172   7.424   3.420   3.721  1.9034 -0.1975  1.6391
  409MOL0     H55173   7.373   3.618   3.874 -0.0187  0.3607  1.3051
  409MOL0     H55174   7.541   3.585   3.824  0.4049  1.4369  1.2799
  409MOL0     H55175   7.492   3.794   3.923 -2.9621 -0.3885  0.2297
  409MOL0     H55176   7.493   4.006   4.044 -0.7418  0.2274  0.2517
  409MOL0     H55177   7.551   4.287   4.457  0.6017 -0.1314  1.0198
  409MOL0     H55178   7.449   4.447   4.621  1.5080 -0.1417 -2.7336
  409MOL0     H55179   7.246   4.577   4.865  0.6247 -1.3004  1.3019
  409MOL0     H55180   7.255   4.512   4.704 -2.6957  3.4139  0.0005
  409MOL0     H55181   7.033   4.547   4.795  2.3143  0.6374 -2.3749
  409MOL0     H55182   7.060   4.380   4.736  6.0238 -0.4841 -2.6897
  409MOL0     H55183   6.938   4.364   4.941 -1.2777 -0.8523  2.2860
  409MOL0     H55184   7.102   4.312   5.003  1.0360  0.9700  0.6395
  409MOL0     H55185   7.017   4.601   5.052 -0.5908 -0.3726  1.4871
  409MOL0     H55186   7.170   4.531   5.087  0.8233 -2.5336  2.2286
  409MOL0     H55187   7.058   4.367   5.233 -0.3660 -0.1935 -0.9739
  409MOL0     H55188   6.895   4.426   5.182 -0.0435 -2.6280  0.9266
  409MOL0     H55189   7.118   4.555   5.342  0.5973  1.4257 -1.7039
  409MOL0     H55190   6.987   4.648   5.281  1.6339 -0.7426 -2.4550
  409MOL0     H55191   7.005   4.420   5.487  0.4324 -1.1379 -1.7341
  409MOL0     H55192   6.841   4.451   5.414  0.2266  0.3052 -0.2406
  409MOL0     H55193   6.908   4.571   5.638  1.3818  0.8118  0.2521
  409MOL0     H55194   7.012   4.668   5.546  0.2149  1.8050 -0.1948
  409MOL0     H55195   7.294   4.133   4.857 -2.4158  1.9750 -0.2482
  409MOL0     H55196   7.352   3.966   4.647 -0.2311 -0.1404 -5.8869
  409MOL0     H55197   7.501   3.773   4.418  1.7824  0.6414 -0.8709
  409MOL0     H55198   7.489   3.576   4.284  0.7720  0.0278  0.1378
  409MOL0     H55199   7.669   3.052   3.075  1.8105  2.1635 -1.3613
  409MOL0     H55200   7.470   3.124   2.961 -0.6318  0.5742 -1.6865
  409MOL0     H55201   7.181   3.185   2.747  3.6414 -0.3002 -1.3127
  409MOL0     H55202   6.952   3.268   2.635  0.7034  0.6128  1.0207
  409MOL0     H55203   6.842   3.378   2.451 -1.1664 -0.0132  0.5758
  409MOL0     H55204   6.772   3.269   2.558  1.0110  3.9086  1.2082
  409MOL0     H55205   6.612   3.201   2.367  0.5205  0.0312  0.2716
  409MOL0     H55206   6.668   3.334   2.266 -2.1233  0.6538 -0.3513
  409MOL0     H55207   6.560   3.355   2.553 -3.0111  0.1204  0.3339
  409MOL0     H55208   6.458   3.396   2.412  1.5977  1.6901 -3.2057
  409MOL0     H55209   6.711   3.531   2.510 -2.0899 -2.8607  2.8870
  409MOL0     H55210   6.620   3.593   2.371  0.2029  0.5282 -0.2636
  409MOL0     H55211   6.445   3.740   2.733  2.1789  0.7604  0.7009
  409MOL0     H55212   7.009   2.981   2.334 -0.6295 -0.0445 -0.0199
  409MOL0     H55213   7.250   2.911   2.299 -1.1309  1.6538  0.4787
  409MOL0     H55214   7.370   2.911   2.425 -0.5256  1.7054  2.8902
  409MOL0     H55215   7.236   2.786   2.426 -0.8343  0.5385  1.0094
  410MOL0     O55216   0.063   1.528   8.113  0.3945  0.2401  0.5766
  410MOL0     C55217   0.023   1.636   8.135 -1.0137  0.2139  0.2144
  410MOL0     O55218  -0.083   1.694   8.091  0.2004 -0.5329  0.2886
  410MOL0     C55219  -0.192   1.629   8.043  1.0723  0.2650  0.5613
  410MOL0     C55220  -0.325   1.645   8.088 -0.5753  0.6634 -0.1190
  410MOL0     C55221  -0.433   1.574   8.031 -0.2429  0.8025 -0.1249
  410MOL0     C55222  -0.409   1.490   7.923  0.2994  0.3381 -0.1783
  410MOL0     O55223  -0.509   1.418   7.859 -0.0960  0.0285 -0.7055
  410MOL0     C55224  -0.642   1.402   7.922  0.1476 -0.0546  0.1967
  410MOL0     C55225  -0.741   1.355   7.808 -0.7127  0.3390  0.7815
  410MOL0     C55226  -0.885   1.333   7.871 -1.4720 -0.7898  0.2385
  410MOL0     C55227  -0.977   1.301   7.754  0.2966 -0.5572 -0.7657
  410MOL0     C55228  -1.127   1.270   7.792  0.4514  0.2067  0.3482
  410MOL0     C55229  -1.202   1.360   7.881 -0.3326  0.0798  0.1182
  410MOL0     C55230  -1.262   1.489   7.812  0.2846 -0.1039 -0.3890
  410MOL0     C55231  -1.276   1.617   7.903  1.0204 -0.6862 -0.1825
  410MOL0     N55232  -1.160   1.647   7.984  0.5029 -0.3909 -0.1244
  410MOL0     C55233  -1.051   1.720   7.932  1.2119 -0.7560  0.1282
  410MOL0     C55234  -0.963   1.727   8.035 -0.1696  0.2932 -0.0348
  410MOL0     C55235  -0.830   1.799   8.036 -0.3906 -0.0696  2.4627
  410MOL0     C55236  -0.802   1.867   8.167  0.6229  0.0138  0.3829
  410MOL0     C55237  -0.885   1.993   8.191 -0.7687  0.0556  0.0213
  410MOL0     C55238  -0.845   2.069   8.322 -0.7142 -0.7102  0.0885
  410MOL0     O55239  -0.866   1.995   8.441  0.1188 -0.0124 -0.4756
  410MOL0     C55240  -0.989   2.025   8.501 -0.1551  1.1559  0.3849
  410MOL0     C55241  -0.985   2.113   8.610  0.5075  0.6218 -0.5328
  410MOL0     C55242  -1.094   2.119   8.683 -0.1628 -0.1878  0.5343
  410MOL0     C55243  -1.217   2.038   8.659 -0.0048 -0.3055  0.1208
  410MOL0     C55244  -1.347   2.057   8.729 -0.5523  0.0568  0.2728
  410MOL0     O55245  -1.430   1.950   8.703 -0.3511  0.4551 -0.3982
  410MOL0     C55246  -1.537   1.922   8.792  0.3897 -0.1229  0.5647
  410MOL0     C55247  -1.628   2.024   8.826 -1.2126  0.7576 -0.1584
  410MOL0     C55248  -1.731   1.995   8.927 -0.9978 -0.2886  0.3175
  410MOL0     C55249  -1.758   1.854   8.956 -0.3811  1.1565 -0.2930
  410MOL0     O55250  -1.852   1.821   9.050  0.0223 -0.3079  0.2924
  410MOL0     C55251  -1.839   1.698   9.118  0.3697  0.1512 -0.2053
  410MOL0     C55252  -1.958   1.681   9.218 -0.5724  0.5174 -0.0195
  410MOL0     C55253  -2.091   1.637   9.150  0.3249 -1.1028  0.1327
  410MOL0     C55254  -2.205   1.630   9.247  0.0935 -0.3397 -0.5772
  410MOL0     C55255  -2.277   1.765   9.263 -0.4642  0.9851  0.1271
  410MOL0     C55256  -2.381   1.815   9.160  0.2581 -0.7171 -0.1780
  410MOL0     C55257  -2.452   1.943   9.185  0.0839 -0.2220  0.3106
  410MOL0     C55258  -2.363   2.069   9.218  0.7549 -0.2782 -0.4229
  410MOL0    Cl55259  -2.244   2.098   9.085  0.2763  0.0467 -0.1423
  410MOL0     C55260  -1.663   1.761   8.917 -0.7398 -0.3190  0.3274
  410MOL0     C55261  -1.552   1.792   8.838 -0.2407 -0.5352 -0.9634
  410MOL0     O55262  -1.364   2.153   8.801  0.5085 -0.1385 -0.1726
  410MOL0     C55263  -1.216   1.961   8.541  0.7232  0.3747 -0.4902
  410MOL0     C55264  -1.100   1.940   8.473 -0.4298  0.3061 -0.7799
  410MOL0     N55265  -1.018   1.646   8.131 -0.5250  0.2919  0.7135
  410MOL0     N55266  -1.142   1.597   8.103 -0.3105  0.9374  0.2924
  410MOL0     C55267  -0.282   1.498   7.859 -0.0254  0.8985  0.1908
  410MOL0     C55268  -0.177   1.553   7.928  0.9882 -0.5451 -0.4385
  410MOL0     C55269   0.130   1.729   8.182  0.3144  0.8058  0.2602
  410MOL0     C55270   0.251   1.707   8.115 -0.9250 -0.2243  0.3585
  410MOL0     C55271   0.365   1.784   8.150 -0.0788  0.5461  1.0248
  410MOL0     C55272   0.359   1.875   8.257  0.1399 -0.1904  0.5917
  410MOL0     O55273   0.463   1.948   8.308  0.0721  0.0518 -0.3072
  410MOL0     C55274   0.569   1.969   8.228 -0.5118  1.1188 -0.3918
  410MOL0     C55275   0.672   2.052   8.295 -1.0378  0.0667  0.1364
  410MOL0     C55276   0.810   2.026   8.256 -0.7139 -0.3886 -0.2280
  410MOL0     C55277   0.832   2.042   8.100 -0.3569  1.0928  0.2297
  410MOL0     C55278   0.969   2.056   8.062  0.1614  0.5081  0.0277
  410MOL0     C55279   1.086   2.056   8.029  0.7655  0.4530 -0.5764
  410MOL0     C55280   0.246   1.883   8.331 -0.5447  0.1433 -0.5362
  410MOL0     C55281   0.124   1.816   8.289 -0.1644 -0.0632  0.2258
  410MOL0     C55282  -0.010   1.849   8.347  0.0745 -0.5800 -0.2915
  410MOL0     H55283  -0.347   1.721   8.162  0.7440  0.4269  0.5393
  410MOL0     H55284  -0.534   1.586   8.068 -0.2922  1.3868 -0.4465
  410MOL0     H55285  -0.626   1.320   7.991  5.2206 -2.2715 -3.0097
  410MOL0     H55286  -0.690   1.494   7.958 -2.8783 -0.2410 -2.8322
  410MOL0     H55287  -0.695   1.270   7.757 -0.6242  1.7792 -1.6724
  410MOL0     H55288  -0.743   1.441   7.742  2.7189 -0.2178 -0.2701
  410MOL0     H55289  -0.920   1.427   7.915 -2.9242 -0.9106 -0.5715
  410MOL0     H55290  -0.886   1.245   7.935 -1.1573  0.9666  2.7845
  410MOL0     H55291  -0.976   1.385   7.685  1.4786 -1.5347 -1.9956
  410MOL0     H55292  -0.927   1.222   7.697  2.0299  0.4807 -0.7436
  410MOL0     H55293  -1.168   1.270   7.691  0.6228 -0.2758  0.2710
  410MOL0     H55294  -1.132   1.170   7.837  1.9208  0.3840  0.9681
  410MOL0     H55295  -1.286   1.303   7.922  1.4937 -1.2361  2.2550
  410MOL0     H55296  -1.133   1.377   7.964 -3.0941  1.3241  2.3313
  410MOL0     H55297  -1.361   1.455   7.779  0.1228 -1.7322  1.6259
  410MOL0     H55298  -1.196   1.518   7.730  0.7116 -2.7494 -1.0746
  410MOL0     H55299  -1.302   1.700   7.836  2.6056  0.1624  0.2200
  410MOL0     H55300  -1.367   1.607   7.962 -0.1037  0.6228 -1.6065
  410MOL0     H55301  -1.046   1.770   7.836  1.5537 -2.5297 -0.8222
  410MOL0     H55302  -0.757   1.718   8.023  1.8679  1.9017  2.1764
  410MOL0     H55303  -0.828   1.866   7.950 -1.1334 -4.9629 -1.8119
  410MOL0     H55304  -0.827   1.790   8.239  0.1728  0.7675  1.0438
  410MOL0     H55305  -0.695   1.893   8.159  0.4270  0.5771 -0.6385
  410MOL0     H55306  -0.988   1.960   8.204 -0.1591 -1.2663  1.8882
  410MOL0     H55307  -0.870   2.064   8.109  0.6711 -1.4234 -1.0429
  410MOL0     H55308  -0.917   2.152   8.318 -2.7328 -2.3652  0.3947
  410MOL0     H55309  -0.744   2.110   8.317 -1.5131  1.2461 -2.5681
  410MOL0     H55310  -0.893   2.166   8.635  0.4236  0.1704  0.7813
  410MOL0     H55311  -1.095   2.179   8.773  3.6573 -3.0195  2.7926
  410MOL0     H55312  -1.626   2.118   8.772 -1.1092  0.5143 -0.5806
  410MOL0     H55313  -1.783   2.081   8.968 -1.5845 -0.8144  0.6988
  410MOL0     H55314  -1.847   1.619   9.043 -1.4247  0.6581 -0.5846
  410MOL0     H55315  -1.743   1.689   9.171  0.1529  1.7271  0.4978
  410MOL0     H55316  -1.927   1.591   9.272 -0.3062  0.7625  0.2386
  410MOL0     H55317  -1.975   1.766   9.284 -1.2159  0.2825  0.1195
  410MOL0     H55318  -2.107   1.701   9.063 -0.0295 -4.7425 -2.7213
  410MOL0     H55319  -2.070   1.537   9.110 -1.9364 -1.2468 -0.8097
  410MOL0     H55320  -2.172   1.598   9.346 -0.4712  1.4321  0.2193
  410MOL0     H55321  -2.291   1.568   9.218 -1.9582  0.4616  3.1361
  410MOL0     H55322  -2.202   1.843   9.274  0.4767  0.0536  0.4354
  410MOL0     H55323  -2.324   1.761   9.362  2.0359 -2.6461  1.3805
  410MOL0     H55324  -2.326   1.814   9.066 -1.0474 -1.8731 -0.9648
  410MOL0     H55325  -2.451   1.732   9.148  1.7827 -1.8870 -1.3879
  410MOL0     H55326  -2.508   1.923   9.277  1.3354  0.8347  1.3490
  410MOL0     H55327  -2.523   1.964   9.105 -2.4375 -4.4103  1.1393
  410MOL0     H55328  -2.419   2.162   9.231  1.2627 -0.2333  1.8935
  410MOL0     H55329  -2.317   2.062   9.317 -0.4061 -1.8642  0.0371
  410MOL0     H55330  -1.668   1.656   8.944 -2.4529 -0.1659  0.6867
  410MOL0     H55331  -1.478   1.713   8.827  0.7323 -0.5236  3.4052
  410MOL0     H55332  -1.295   1.888   8.522 -0.1871  1.5105 -1.1904
  410MOL0     H55333  -1.106   1.862   8.398 -1.6566 -0.5975  0.2149
  410MOL0     H55334  -0.259   1.450   7.764 -3.9602 -2.9509  0.8740
  410MOL0     H55335  -0.077   1.546   7.887  2.1061  0.3088  2.0100
  410MOL0     H55336   0.252   1.638   8.032  0.1356  1.0686 -0.7530
  410MOL0     H55337   0.460   1.753   8.107 -2.1969 -2.6439 -1.8756
  410MOL0     H55338   0.552   2.009   8.127 -2.4832  0.7216 -0.2511
  410MOL0     H55339   0.619   1.871   8.224 -0.5438  1.1049 -0.4600
  410MOL0     H55340   0.679   2.032   8.403  1.8311 -0.6317 -0.0952
  410MOL0     H55341   0.658   2.159   8.279 -1.3658  0.0985  0.6207
  410MOL0     H55342   0.838   1.927   8.293 -0.7159 -0.8335 -1.3883
  410MOL0     H55343   0.882   2.101   8.291 -0.2215 -0.2714 -1.4423
  410MOL0     H55344   0.780   1.970   8.037 -0.6873  3.0618 -1.8895
  410MOL0     H55345   0.788   2.129   8.050 -3.0314 -0.2967 -0.0256
  410MOL0     H55346   1.190   2.061   8.002  1.5614  1.3352  2.2507
  410MOL0     H55347   0.235   1.940   8.423 -0.5341  0.8046 -0.9382
  410MOL0     H55348  -0.096   1.865   8.282  0.5275  0.4801 -0.6668
  410MOL0     H55349  -0.041   1.774   8.420  2.0351 -2.4478 -1.2533
  410MOL0     H55350   0.006   1.944   8.399  1.1825 -1.1119  0.3880
  411MOL0     O55351   3.058   3.552   3.724 -0.1384  0.0137  0.3309
  411MOL0     C55352   2.950   3.548   3.672  0.3087  0.1051  0.6532
  411MOL0     O55353   2.833   3.593   3.729  0.1097 -0.4400 -0.0612
  411MOL0     C55354   2.831   3.670   3.838  1.2055 -0.4675 -0.0542
  411MOL0     C55355   2.905   3.785   3.865  0.1036  0.4611 -0.3302
  411MOL0     C55356   2.888   3.853   3.987  0.4204  0.0384  0.0252
  411MOL0     C55357   2.807   3.796   4.079 -0.6973  0.3243 -0.7120
  411MOL0     O55358   2.795   3.861   4.197 -0.5962 -0.2979  0.7471
  411MOL0     C55359   2.666   3.921   4.221 -0.0334 -0.2806 -0.5758
  411MOL0     C55360   2.636   4.047   4.139  0.6703  0.1200 -0.2855
  411MOL0     C55361   2.709   4.169   4.189  0.8156 -0.5630  0.4560
  411MOL0     C55362   2.863   4.165   4.181 -1.2156  0.0198  0.0343
  411MOL0     C55363   2.933   4.297   4.214  0.1487 -0.7606 -0.1590
  411MOL0     C55364   2.997   4.290   4.349  0.0687 -1.3609  0.2279
  411MOL0     C55365   3.054   4.438   4.379 -0.3835  0.5445 -0.5805
  411MOL0     C55366   3.160   4.415   4.483 -0.6456 -0.7125 -1.3403
  411MOL0     N55367   3.216   4.532   4.550 -0.6959  0.5228 -0.0843
  411MOL0     C55368   3.344   4.547   4.596 -0.1464 -0.1868  0.4356
  411MOL0     C55369   3.348   4.654   4.681 -0.2796 -0.0130  0.0014
  411MOL0     C55370   3.478   4.700   4.749  0.3718 -0.8242 -1.1007
  411MOL0     C55371   3.476   4.630   4.889 -0.2590  0.0063  1.1952
  411MOL0     C55372   3.403   4.705   4.996 -0.1504 -0.2556 -0.0114
  411MOL0     C55373   3.418   4.633   5.123  0.2377  0.5361 -0.2666
  411MOL0     O55374   3.532   4.661   5.201  0.0415 -0.1944  0.1982
  411MOL0     C55375   3.562   4.777   5.259  0.3585 -0.0628  0.0717
  411MOL0     C55376   3.475   4.879   5.273 -0.2971 -0.5059 -0.3809
  411MOL0     C55377   3.510   4.990   5.341 -0.1868 -0.1569  0.1758
  411MOL0     C55378   3.634   5.010   5.389  0.9852 -0.3900 -0.2236
  411MOL0     C55379   3.686   5.128   5.449 -0.0769  0.1949 -0.8897
  411MOL0     O55380   3.821   5.154   5.469 -0.2485  0.8462  0.7105
  411MOL0     C55381   3.868   5.235   5.572 -0.2976  0.5253  0.0522
  411MOL0     C55382   3.798   5.275   5.687 -0.4961  0.0317  0.9004
  411MOL0     C55383   3.857   5.349   5.790  0.6727  0.9749 -0.3489
  411MOL0     C55384   3.988   5.390   5.790 -0.9714  0.0075  0.5594
  411MOL0     O55385   4.052   5.464   5.889 -0.3398 -0.1913  0.5351
  411MOL0     C55386   3.982   5.506   6.007 -0.9162  0.8655 -0.5110
  411MOL0     C55387   4.088   5.503   6.125 -0.3144 -0.5985 -0.5118
  411MOL0     C55388   4.158   5.636   6.134  0.6839 -0.0633  0.4862
  411MOL0     C55389   4.119   5.729   6.247 -0.1429  0.4716 -0.5079
  411MOL0     C55390   4.198   5.856   6.253 -0.3165 -0.2940  0.4935
  411MOL0     C55391   4.131   5.947   6.361 -0.6906 -0.2359  0.9099
  411MOL0     C55392   4.225   6.048   6.429 -0.7142  0.7743 -0.0181
  411MOL0     C55393   4.164   6.179   6.452  0.0786 -0.2490  0.3821
  411MOL0    Cl55394   4.269   6.287   6.534  0.1376 -0.0527 -0.1775
  411MOL0     C55395   4.062   5.357   5.669  0.2352 -0.1015  0.4970
  411MOL0     C55396   4.004   5.278   5.561  0.2407  0.0910 -0.5495
  411MOL0     O55397   3.598   5.211   5.478  0.0486  0.7441  0.4869
  411MOL0     C55398   3.722   4.896   5.374 -0.3199 -0.7381 -0.3425
  411MOL0     C55399   3.683   4.778   5.326  0.4211 -1.2858  0.4204
  411MOL0     N55400   3.222   4.703   4.668  1.0008 -0.0413 -0.4257
  411MOL0     N55401   3.146   4.637   4.586  0.5991 -0.5645  0.7003
  411MOL0     C55402   2.736   3.681   4.054  0.0005 -0.1351 -0.0302
  411MOL0     C55403   2.735   3.624   3.932  0.4732  0.1018 -0.6947
  411MOL0     C55404   2.928   3.469   3.545 -0.3585 -0.4925 -0.1456
  411MOL0     C55405   2.817   3.502   3.468 -0.4325  0.5618  0.8551
  411MOL0     C55406   2.798   3.443   3.342  1.1748 -0.6561 -0.2509
  411MOL0     C55407   2.889   3.346   3.297  0.2250 -0.3596  1.4844
  411MOL0     O55408   2.864   3.300   3.176  0.7024  0.4583  0.4842
  411MOL0     C55409   2.929   3.175   3.134 -0.5014  0.0451  0.0524
  411MOL0     C55410   2.928   3.179   2.978 -0.4237 -0.4868 -0.4744
  411MOL0     C55411   3.014   3.294   2.922  0.0286  0.1554  0.5603
  411MOL0     C55412   2.996   3.324   2.768 -0.1978  0.1180 -0.1284
  411MOL0     C55413   2.998   3.207   2.690  0.0377  0.2427  0.3877
  411MOL0     C55414   3.009   3.105   2.624  0.4962  0.2317 -0.1104
  411MOL0     C55415   2.997   3.311   3.375  0.2233  0.3837  0.3566
  411MOL0     C55416   3.023   3.381   3.493  1.4658  0.7025 -0.1382
  411MOL0     C55417   3.146   3.330   3.572 -0.1792 -0.4184  0.0163
  411MOL0     H55418   2.980   3.813   3.791  2.4505 -1.2932  1.2613
  411MOL0     H55419   2.939   3.944   4.017 -0.3875  0.0118  1.5444
  411MOL0     H55420   2.586   3.847   4.226 -0.0074 -0.2073  2.6722
  411MOL0     H55421   2.677   3.960   4.322 -0.3507 -2.8931  0.5421
  411MOL0     H55422   2.529   4.073   4.137  0.8231  0.7321 -1.8746
  411MOL0     H55423   2.669   4.034   4.036  2.3030  1.6179  0.0011
  411MOL0     H55424   2.685   4.194   4.293  2.3798  2.5637  0.1936
  411MOL0     H55425   2.676   4.257   4.133  2.0305 -0.5541 -0.2942
  411MOL0     H55426   2.909   4.081   4.234  0.6210 -0.5001 -2.2268
  411MOL0     H55427   2.890   4.142   4.078 -0.8759 -0.7215  0.2831
  411MOL0     H55428   3.012   4.317   4.141  0.8953  4.8608  1.6948
  411MOL0     H55429   2.857   4.376   4.204  0.5840 -0.3414 -0.2122
  411MOL0     H55430   2.924   4.268   4.427  1.7663 -1.1406  1.9429
  411MOL0     H55431   3.079   4.218   4.348 -2.7504 -4.8392 -0.1619
  411MOL0     H55432   2.975   4.504   4.416  1.2177  2.2518 -0.0528
  411MOL0     H55433   3.092   4.485   4.288  0.6110 -0.4716 -0.7129
  411MOL0     H55434   3.119   4.350   4.561  0.3805 -0.4492 -0.5550
  411MOL0     H55435   3.245   4.368   4.433 -0.0897  2.1196 -3.3015
  411MOL0     H55436   3.422   4.478   4.565 -2.6969 -4.2785  2.3555
  411MOL0     H55437   3.561   4.661   4.689  2.6946 -2.2056  2.6252
  411MOL0     H55438   3.493   4.808   4.758  3.2033 -1.2791  1.4089
  411MOL0     H55439   3.434   4.529   4.879 -0.5992  0.1136  1.5424
  411MOL0     H55440   3.580   4.611   4.916 -0.7239 -2.5744  1.4097
  411MOL0     H55441   3.299   4.734   4.976 -1.0466 -3.1540  0.0192
  411MOL0     H55442   3.472   4.787   5.017  0.5455 -0.7668 -0.2759
  411MOL0     H55443   3.403   4.526   5.108  0.1290  0.0966  2.4109
  411MOL0     H55444   3.321   4.661   5.165  0.1880  2.0152 -1.2736
  411MOL0     H55445   3.382   4.879   5.216 -1.9829  1.0313  2.1530
  411MOL0     H55446   3.436   5.069   5.343 -0.3476 -0.1841 -2.0349
  411MOL0     H55447   3.698   5.244   5.716 -1.4367  0.9794 -1.1048
  411MOL0     H55448   3.789   5.372   5.872  0.0611 -0.3286 -0.4648
  411MOL0     H55449   3.929   5.601   6.002  0.1343  1.5691  1.0065
  411MOL0     H55450   3.913   5.429   6.044  0.1006  0.4788  0.6601
  411MOL0     H55451   4.050   5.486   6.226  1.7548 -2.6131 -0.0044
  411MOL0     H55452   4.159   5.422   6.106 -1.6503 -1.3612 -2.7217
  411MOL0     H55453   4.265   5.613   6.145  0.6114 -0.7263 -0.1355
  411MOL0     H55454   4.152   5.692   6.040  2.1462 -0.4487  0.1287
  411MOL0     H55455   4.141   5.680   6.342 -0.4472  2.5806  0.7212
  411MOL0     H55456   4.010   5.741   6.245 -0.0747  1.3906  0.6135
  411MOL0     H55457   4.192   5.905   6.155  0.1351  0.8154  1.0036
  411MOL0     H55458   4.302   5.829   6.274 -1.1660 -1.8981  3.0657
  411MOL0     H55459   4.048   5.996   6.310 -1.1556 -0.3657  1.5368
  411MOL0     H55460   4.094   5.892   6.448 -0.8245  2.4728  2.6693
  411MOL0     H55461   4.319   6.054   6.372 -0.3062 -1.5080  0.3216
  411MOL0     H55462   4.245   6.005   6.528 -1.9563 -3.5373 -1.3992
  411MOL0     H55463   4.127   6.208   6.353  0.6823 -4.7208 -1.3626
  411MOL0     H55464   4.073   6.166   6.510 -0.8650  0.0065 -0.9768
  411MOL0     H55465   4.165   5.390   5.670 -0.2363  1.8877  5.0870
  411MOL0     H55466   4.079   5.258   5.485 -2.2172 -0.1617 -3.0749
  411MOL0     H55467   3.818   4.921   5.418 -1.1451  2.8994 -0.3160
  411MOL0     H55468   3.750   4.693   5.332  1.1355 -0.7053  0.8373
  411MOL0     H55469   2.681   3.649   4.142 -0.2624  1.7583  0.5315
  411MOL0     H55470   2.660   3.547   3.918  0.1212 -0.3390  2.7629
  411MOL0     H55471   2.733   3.558   3.508 -3.0454 -3.1903  1.1627
  411MOL0     H55472   2.709   3.472   3.288 -0.5712 -2.4492  1.5221
  411MOL0     H55473   2.869   3.092   3.172  0.4249  1.0892  4.4121
  411MOL0     H55474   3.037   3.167   3.149 -0.0791  2.3022 -1.3697
  411MOL0     H55475   2.826   3.188   2.941  0.4932  1.2909 -2.8133
  411MOL0     H55476   2.970   3.081   2.954  0.8848 -0.1091  0.1717
  411MOL0     H55477   3.118   3.270   2.943 -0.2509  2.5313  6.6518
  411MOL0     H55478   3.000   3.388   2.976 -1.8360 -0.4156  1.1422
  411MOL0     H55479   2.901   3.378   2.765 -1.2617 -1.5485  1.6066
  411MOL0     H55480   3.079   3.387   2.733 -0.0519  0.7289  1.2687
  411MOL0     H55481   2.999   3.024   2.555 -2.4033 -1.0693  1.6576
  411MOL0     H55482   3.059   3.225   3.352 -0.6450 -0.0221 -0.4997
  411MOL0     H55483   3.197   3.239   3.541 -0.9448 -0.7620 -0.2773
  411MOL0     H55484   3.215   3.413   3.586  0.9121 -1.4132  0.7165
  411MOL0     H55485   3.118   3.303   3.675  0.6281 -0.4457  0.2316
  412MOL0     O55486   2.282   0.897   0.545 -0.1520  0.5053 -0.0179
  412MOL0     C55487   2.272   0.781   0.588  0.2474 -1.8275  0.3671
  412MOL0     O55488   2.161   0.704   0.577 -0.3288 -0.0071  0.3758
  412MOL0     C55489   2.067   0.752   0.484 -0.3561  0.8644 -0.7931
  412MOL0     C55490   2.090   0.784   0.352 -0.8896  0.0887 -0.3221
  412MOL0     C55491   1.987   0.824   0.265 -0.3993 -0.5341  0.1726
  412MOL0     C55492   1.858   0.836   0.317  0.6877 -0.0258  0.0278
  412MOL0     O55493   1.751   0.895   0.257  0.0725 -1.6223  0.0568
  412MOL0     C55494   1.778   0.975   0.133 -0.0307  0.2886 -0.6040
  412MOL0     C55495   1.640   1.001   0.064  0.4971 -1.4709  0.0026
  412MOL0     C55496   1.647   1.097  -0.062  1.0554  0.4144  0.2735
  412MOL0     C55497   1.543   1.067  -0.166  0.6344  0.9299 -0.0297
  412MOL0     C55498   1.545   1.153  -0.291 -0.6953  0.2799  0.3480
  412MOL0     C55499   1.508   1.296  -0.279  0.4967  0.5168 -0.2057
  412MOL0     C55500   1.463   1.358  -0.418 -0.3375  0.3032  0.1459
  412MOL0     C55501   1.568   1.342  -0.519 -1.0535  0.3518  1.1415
  412MOL0     N55502   1.554   1.228  -0.612 -0.1212  0.4167 -0.1451
  412MOL0     C55503   1.440   1.203  -0.692 -0.1243 -0.2571  0.9661
  412MOL0     C55504   1.469   1.078  -0.741 -0.1895 -0.0124 -0.3355
  412MOL0     C55505   1.379   0.990  -0.833 -0.5238  0.1746 -0.1078
  412MOL0     C55506   1.482   0.944  -0.942  0.3352 -0.1587  0.6344
  412MOL0     C55507   1.411   0.885  -1.070 -0.5644  0.5807  0.4660
  412MOL0     C55508   1.492   0.853  -1.188 -0.2106  0.4993  0.1020
  412MOL0     O55509   1.565   0.730  -1.163  1.3997 -0.0501  0.1855
  412MOL0     C55510   1.499   0.608  -1.158 -0.0422  0.3483 -0.5707
  412MOL0     C55511   1.417   0.566  -1.262 -0.4754 -0.1060  1.0093
  412MOL0     C55512   1.355   0.436  -1.255  0.0591  0.7421 -0.2583
  412MOL0     C55513   1.394   0.349  -1.154  0.0359 -0.1448  0.7221
  412MOL0     C55514   1.330   0.213  -1.134  0.0521  0.4009 -0.8444
  412MOL0     O55515   1.200   0.205  -1.186  0.1827  0.1140 -0.3763
  412MOL0     C55516   1.125   0.097  -1.169 -0.1524  0.1486  0.9008
  412MOL0     C55517   1.060   0.042  -1.280 -0.1268 -0.3107 -0.2612
  412MOL0     C55518   0.977  -0.067  -1.267  0.5932  0.2037 -0.9707
  412MOL0     C55519   0.969  -0.131  -1.146 -0.5625  0.5764 -0.6909
  412MOL0     O55520   0.906  -0.258  -1.144 -0.7451 -0.1304  0.1130
  412MOL0     C55521   0.815  -0.281  -1.036 -0.7586  0.0089 -0.6516
  412MOL0     C55522   0.693  -0.370  -1.065 -0.4154  0.1498 -0.4908
  412MOL0     C55523   0.626  -0.421  -0.942 -0.5265 -0.3234  0.5605
  412MOL0     C55524   0.529  -0.313  -0.889 -0.1332  0.3325  0.0951
  412MOL0     C55525   0.476  -0.342  -0.753  0.9881  0.6040 -0.0014
  412MOL0     C55526   0.376  -0.462  -0.743 -0.2820  0.7704  0.0652
  412MOL0     C55527   0.237  -0.420  -0.808  0.9816  0.3184  0.2931
  412MOL0     C55528   0.115  -0.448  -0.715  0.5578  0.6220  0.8517
  412MOL0    Cl55529  -0.041  -0.390  -0.792  0.5452 -0.1835 -0.2326
  412MOL0     C55530   1.037  -0.073  -1.036  0.0530  1.1275 -0.2361
  412MOL0     C55531   1.104   0.043  -1.052 -0.2848  0.6307 -0.7225
  412MOL0     O55532   1.398   0.124  -1.074 -0.1391 -0.4837 -0.2737
  412MOL0     C55533   1.492   0.383  -1.058  0.1625  0.4579  0.4810
  412MOL0     C55534   1.542   0.512  -1.065 -0.4436 -0.5709 -0.0104
  412MOL0     N55535   1.597   1.042  -0.699  0.8803  0.8386  0.3041
  412MOL0     N55536   1.644   1.127  -0.622  0.3212  0.9635  0.1946
  412MOL0     C55537   1.829   0.769   0.434 -0.1327 -0.5104 -0.0924
  412MOL0     C55538   1.939   0.742   0.517 -0.7330  0.6565 -0.5270
  412MOL0     C55539   2.388   0.721   0.663 -0.3087  1.0948 -0.2594
  412MOL0     C55540   2.356   0.630   0.765 -1.1129  0.9045  0.0929
  412MOL0     C55541   2.453   0.583   0.850  0.0651  0.9657 -0.8488
  412MOL0     C55542   2.580   0.631   0.839  0.1728  0.5128  0.2274
  412MOL0     O55543   2.688   0.581   0.913  0.4922  0.0201 -0.5282
  412MOL0     C55544   2.658   0.511   1.031 -0.3696  0.0669  0.4933
  412MOL0     C55545   2.795   0.493   1.095  0.1431 -0.6091  0.6178
  412MOL0     C55546   2.868   0.376   1.035 -0.2630  1.0819  0.0813
  412MOL0     C55547   3.009   0.357   1.097 -0.2173  0.2042 -0.2946
  412MOL0     C55548   3.009   0.337   1.242  0.7626 -0.3485  0.1385
  412MOL0     C55549   3.003   0.337   1.362  0.0352  0.0462  0.5675
  412MOL0     C55550   2.620   0.712   0.729  0.1681 -1.1242 -0.2095
  412MOL0     C55551   2.524   0.751   0.635  0.1371 -0.7817 -0.4721
  412MOL0     C55552   2.567   0.825   0.516  0.1386 -0.0347  0.3320
  412MOL0     H55553   2.191   0.802   0.317 -1.3842  0.1564 -1.7800
  412MOL0     H55554   2.020   0.876   0.175  1.3934  0.2417  1.2275
  412MOL0     H55555   1.834   1.066   0.157  1.2325 -0.9238  1.2815
  412MOL0     H55556   1.840   0.914   0.065  2.9856  2.4002  0.0653
  412MOL0     H55557   1.576   1.049   0.138  0.6590  0.3067 -0.9611
  412MOL0     H55558   1.583   0.914   0.030 -0.5476 -0.5099 -0.7849
  412MOL0     H55559   1.745   1.094  -0.109  0.9913  4.0420 -0.3262
  412MOL0     H55560   1.625   1.201  -0.039  0.8496  0.2519  0.8245
  412MOL0     H55561   1.553   0.963  -0.199  0.2124  1.9104 -3.7571
  412MOL0     H55562   1.447   1.058  -0.115  0.3559 -0.0872 -0.6967
  412MOL0     H55563   1.643   1.150  -0.339 -0.9785 -1.1477 -0.1843
  412MOL0     H55564   1.478   1.094  -0.353  3.4300 -2.3213 -2.1139
  412MOL0     H55565   1.429   1.306  -0.203  0.1224  0.2553 -0.5585
  412MOL0     H55566   1.586   1.357  -0.232 -0.1127  0.1259  1.3673
  412MOL0     H55567   1.437   1.463  -0.401  2.4114  1.2217 -0.7661
  412MOL0     H55568   1.373   1.312  -0.459  0.7730 -0.6721 -1.2841
  412MOL0     H55569   1.558   1.432  -0.580  0.5322  1.6808  2.7542
  412MOL0     H55570   1.669   1.343  -0.479 -1.6459 -1.9041  2.8854
  412MOL0     H55571   1.353   1.263  -0.714  2.4323  2.8254 -1.8306
  412MOL0     H55572   1.336   0.903  -0.783 -2.3036  1.9558  1.6742
  412MOL0     H55573   1.303   1.061  -0.869  0.4890  2.2560  1.6726
  412MOL0     H55574   1.539   1.037  -0.954 -2.1193  1.4838  0.9766
  412MOL0     H55575   1.545   0.863  -0.905 -0.5699 -1.9221 -1.4738
  412MOL0     H55576   1.338   0.962  -1.096  0.1445  1.1998  0.2817
  412MOL0     H55577   1.356   0.794  -1.042  1.4844 -1.2652 -1.1626
  412MOL0     H55578   1.554   0.940  -1.214  2.4972 -1.2188  0.4666
  412MOL0     H55579   1.427   0.835  -1.274  2.9161 -0.8785 -2.1376
  412MOL0     H55580   1.392   0.631  -1.345 -4.3926 -1.5859  0.8119
  412MOL0     H55581   1.297   0.399  -1.339  1.2256 -1.3355 -0.2096
  412MOL0     H55582   1.072   0.081  -1.381  0.5256  1.6689  0.5360
  412MOL0     H55583   0.938  -0.108  -1.360 -1.3679 -1.2309  0.4189
  412MOL0     H55584   0.869  -0.320  -0.949 -0.1329  1.5158 -0.3237
  412MOL0     H55585   0.773  -0.183  -1.011  1.6682  1.3091 -1.3139
  412MOL0     H55586   0.629  -0.311  -1.131  0.8126 -0.3950 -2.2556
  412MOL0     H55587   0.728  -0.458  -1.121 -0.6626 -1.8402  2.2488
  412MOL0     H55588   0.572  -0.506  -0.985  0.7134  1.2328 -4.9037
  412MOL0     H55589   0.705  -0.436  -0.867  0.8270  1.2797 -0.4682
  412MOL0     H55590   0.447  -0.291  -0.958 -1.0701  0.8992  1.3412
  412MOL0     H55591   0.588  -0.222  -0.872  1.9909 -0.6529 -1.5486
  412MOL0     H55592   0.430  -0.251  -0.714 -2.4887  0.7075 -3.6517
  412MOL0     H55593   0.561  -0.361  -0.687  0.9302 -1.7230 -0.5063
  412MOL0     H55594   0.416  -0.547  -0.798 -2.7644  0.2681 -1.1125
  412MOL0     H55595   0.358  -0.488  -0.638  0.0595  4.5354  1.1940
  412MOL0     H55596   0.217  -0.483  -0.895  0.1919  0.2277  0.5363
  412MOL0     H55597   0.235  -0.314  -0.837 -0.6416 -0.2229 -1.9156
  412MOL0     H55598   0.102  -0.553  -0.688  3.3620 -0.4467 -1.4293
  412MOL0     H55599   0.123  -0.395  -0.620  2.1734 -0.2473  1.2296
  412MOL0     H55600   1.034  -0.118  -0.937  0.5128  3.8181  1.1304
  412MOL0     H55601   1.146   0.086  -0.962 -1.7777 -0.8288  0.7259
  412MOL0     H55602   1.534   0.318  -0.982 -0.5029 -0.1012  0.3689
  412MOL0     H55603   1.610   0.555  -0.992 -1.0701  1.3868 -0.5244
  412MOL0     H55604   1.724   0.766   0.461 -0.9509  1.0521 -2.6938
  412MOL0     H55605   1.912   0.702   0.614 -3.8307  0.0725 -1.5367
  412MOL0     H55606   2.248   0.616   0.764 -1.4577  3.2172  0.0226
  412MOL0     H55607   2.424   0.527   0.938 -1.8540 -1.3500 -2.8171
  412MOL0     H55608   2.617   0.411   1.017 -0.7054  0.2017  0.5233
  412MOL0     H55609   2.599   0.567   1.104  0.1002  0.7783  0.3389
  412MOL0     H55610   2.773   0.487   1.202  1.9077 -0.7363  1.0067
  412MOL0     H55611   2.841   0.589   1.069 -0.4747 -0.4130  0.2504
  412MOL0     H55612   2.883   0.396   0.928  2.8822 -0.3552  0.1267
  412MOL0     H55613   2.809   0.285   1.050 -0.1861  0.7851 -1.2854
  412MOL0     H55614   3.052   0.278   1.035  0.9153  0.1014  0.5783
  412MOL0     H55615   3.067   0.447   1.076 -0.6348 -0.1035 -3.0738
  412MOL0     H55616   3.009   0.330   1.468  0.7783 -3.3446  0.4028
  412MOL0     H55617   2.725   0.739   0.730 -0.2720  0.8946  2.2936
  412MOL0     H55618   2.520   0.782   0.428 -3.0624 -0.6735  2.1809
  412MOL0     H55619   2.552   0.933   0.526  0.7700  0.2934 -1.7586
  412MOL0     H55620   2.675   0.809   0.520 -0.0584 -1.4927  3.8915
  413MOL0     O55621   8.029   9.920   8.229 -0.0997  0.6804  0.4710
  413MOL0     C55622   8.063   9.925   8.111  0.0852 -0.0465  0.1938
  413MOL0     O55623   8.032   9.834   8.011 -0.0171  0.3329 -0.6547
  413MOL0     C55624   7.940   9.736   8.038  0.3482  0.8680 -0.8920
  413MOL0     C55625   7.987   9.605   8.032  0.5473  0.0732  0.2378
  413MOL0     C55626   7.896   9.505   8.042  1.4398  0.4758  0.5422
  413MOL0     C55627   7.759   9.521   8.074  0.2132 -0.1509  0.3543
  413MOL0     O55628   7.683   9.402   8.099  0.4858 -0.2447  0.0818
  413MOL0     C55629   7.544   9.415   8.127  0.9212 -0.5056 -0.0758
  413MOL0     C55630   7.501   9.274   8.172  0.0706  0.9272 -0.1213
  413MOL0     C55631   7.352   9.261   8.228 -0.8646 -0.5505  0.0603
  413MOL0     C55632   7.328   9.146   8.323  0.5106  0.8436 -0.3473
  413MOL0     C55633   7.196   9.172   8.389 -0.5729  0.7918  0.1065
  413MOL0     C55634   7.151   9.076   8.500 -0.0652  1.1494  0.8194
  413MOL0     C55635   7.268   9.028   8.591  0.0160 -0.0118  0.5699
  413MOL0     C55636   7.219   8.919   8.678 -0.0534  0.7366 -0.3368
  413MOL0     N55637   7.284   8.927   8.810  0.0009 -0.7582  0.8651
  413MOL0     C55638   7.221   8.971   8.924  0.5297  0.9866  0.3053
  413MOL0     C55639   7.317   8.962   9.024  0.6107  0.2363 -1.2172
  413MOL0     C55640   7.314   9.008   9.171  0.3365 -0.1987  0.6744
  413MOL0     C55641   7.411   9.116   9.202  0.2236  0.0146  0.5396
  413MOL0     C55642   7.440   9.141   9.358 -0.2762  0.8943 -0.0098
  413MOL0     C55643   7.538   9.258   9.371  0.4244  0.1066 -0.0753
  413MOL0     O55644   7.550   9.270   9.515 -0.3541  0.8412  1.0716
  413MOL0     C55645   7.650   9.361   9.551  0.0395 -0.9323 -0.6872
  413MOL0     C55646   7.737   9.437   9.471  0.2502  0.0622  0.6062
  413MOL0     C55647   7.833   9.518   9.519  0.3041  0.1936  0.0644
  413MOL0     C55648   7.845   9.552   9.656 -0.2421  0.4370  0.0991
  413MOL0     C55649   7.946   9.647   9.704  0.0312  1.0596 -0.1975
  413MOL0     O55650   8.010   9.716   9.605 -0.2211  0.5335  0.3200
  413MOL0     C55651   8.119   9.796   9.617 -0.0973 -0.0061  0.1498
  413MOL0     C55652   8.188   9.812   9.734 -0.2720 -0.6706 -0.1838
  413MOL0     C55653   8.285   9.910   9.752  1.2907  0.3651 -0.1110
  413MOL0     C55654   8.318   9.991   9.646 -1.1748 -1.8174  0.1957
  413MOL0     O55655   8.419  10.082   9.669  0.1605 -0.0367  0.3872
  413MOL0     C55656   8.373  10.221   9.668  0.5052  1.4761  0.4343
  413MOL0     C55657   8.481  10.293   9.741 -0.8958 -0.5989 -0.3737
  413MOL0     C55658   8.569  10.362   9.632 -0.4393  0.5422  0.2841
  413MOL0     C55659   8.647  10.471   9.697  1.1784  0.2384 -0.4066
  413MOL0     C55660   8.752  10.510   9.606 -0.4748  0.1817  0.5187
  413MOL0     C55661   8.844  10.626   9.672 -0.5907  0.2281  0.2470
  413MOL0     C55662   8.981  10.626   9.598  0.4445  0.8357  0.5275
  413MOL0     C55663   9.060  10.752   9.629 -0.5552  0.1754 -0.6095
  413MOL0    Cl55664   9.136  10.732   9.787  0.3151 -0.3193 -0.2387
  413MOL0     C55665   8.265   9.965   9.520 -0.0568  1.0889  0.1925
  413MOL0     C55666   8.154   9.877   9.505 -0.4676  0.2535  0.2126
  413MOL0     O55667   7.951   9.670   9.825 -0.0959 -0.4408 -0.1144
  413MOL0     C55668   7.757   9.487   9.746 -1.0866  0.4292 -0.1402
  413MOL0     C55669   7.665   9.392   9.683 -0.0064 -1.3175 -1.0326
  413MOL0     N55670   7.434   8.919   8.961 -0.6109  0.1692  0.0584
  413MOL0     N55671   7.414   8.900   8.839  0.5924 -0.1316 -0.5561
  413MOL0     C55672   7.712   9.651   8.080  0.2926  1.0653 -0.2705
  413MOL0     C55673   7.801   9.757   8.061  1.1710 -0.8403  0.3397
  413MOL0     C55674   8.170  10.024   8.073 -0.2195 -0.6849 -0.4870
  413MOL0     C55675   8.264   9.993   7.975 -0.4452 -0.0110 -0.1083
  413MOL0     C55676   8.366  10.083   7.929 -0.2235 -0.1207 -0.4342
  413MOL0     C55677   8.378  10.212   7.987 -0.1784  0.9392  0.0833
  413MOL0     O55678   8.489  10.303   7.972  0.3640  0.1614 -0.1122
  413MOL0     C55679   8.566  10.295   7.849  0.0329  0.6060 -0.2644
  413MOL0     C55680   8.473  10.322   7.725 -0.5082  0.5047  0.6852
  413MOL0     C55681   8.538  10.324   7.590  0.1096  0.7979 -0.2388
  413MOL0     C55682   8.440  10.340   7.477  0.2703  0.1587  0.5488
  413MOL0     C55683   8.525  10.371   7.350  0.0773  0.3123 -0.0575
  413MOL0     C55684   8.588  10.379   7.252  0.4898 -0.5062  0.3604
  413MOL0     C55685   8.283  10.241   8.082 -0.0104  0.6725  0.8840
  413MOL0     C55686   8.181  10.153   8.125  0.1943  0.0310 -0.0138
  413MOL0     C55687   8.081  10.216   8.222  0.1485  1.3592  0.1635
  413MOL0     H55688   8.093   9.588   8.014  1.0175  0.8216  2.0872
  413MOL0     H55689   7.925   9.401   8.047  0.4777  0.1782  0.1319
  413MOL0     H55690   7.519   9.492   8.201  0.4655 -1.4158  0.7261
  413MOL0     H55691   7.485   9.442   8.039  0.4395  1.8562  0.8943
  413MOL0     H55692   7.566   9.232   8.249 -1.9732 -0.4173  0.9682
  413MOL0     H55693   7.506   9.202   8.090  0.2896 -0.1113  0.7744
  413MOL0     H55694   7.291   9.255   8.138  0.3656 -0.7148 -0.7902
  413MOL0     H55695   7.325   9.354   8.280 -2.5592 -1.2653  0.5067
  413MOL0     H55696   7.334   9.057   8.260  0.2918  1.7794 -1.7479
  413MOL0     H55697   7.405   9.151   8.400 -0.6434  2.1765  0.7643
  413MOL0     H55698   7.193   9.276   8.423  2.0374  0.8248  0.4209
  413MOL0     H55699   7.118   9.182   8.314 -0.0582  1.1438 -0.3840
  413MOL0     H55700   7.068   9.122   8.554 -1.0440 -0.8860  1.1455
  413MOL0     H55701   7.100   8.987   8.462  2.3618 -0.5421  1.2671
  413MOL0     H55702   7.293   9.109   8.660  0.5132  1.5515 -1.3530
  413MOL0     H55703   7.357   8.992   8.540 -1.0679 -2.7797  0.4625
  413MOL0     H55704   7.113   8.922   8.704 -0.5599  2.8697 -2.3194
  413MOL0     H55705   7.231   8.823   8.627 -0.4210  1.6416 -2.2054
  413MOL0     H55706   7.128   9.027   8.925 -0.5718 -0.7178 -0.7438
  413MOL0     H55707   7.214   9.048   9.193 -0.2226 -0.2122 -1.5813
  413MOL0     H55708   7.329   8.927   9.242 -1.3151  1.1086  2.6212
  413MOL0     H55709   7.510   9.108   9.155 -1.4132 -1.5746 -3.0345
  413MOL0     H55710   7.365   9.197   9.145 -0.6827 -2.3846 -2.4516
  413MOL0     H55711   7.474   9.052   9.412 -0.1014  1.4421  0.7947
  413MOL0     H55712   7.349   9.161   9.416 -1.0818 -2.4493  0.0957
  413MOL0     H55713   7.492   9.344   9.323  1.1773  1.0700  0.8777
  413MOL0     H55714   7.633   9.233   9.321  0.0151 -0.4905 -0.5633
  413MOL0     H55715   7.731   9.423   9.363 -2.1249  2.3716  0.3315
  413MOL0     H55716   7.894   9.571   9.445  2.6825 -2.7787 -0.2830
  413MOL0     H55717   8.168   9.752   9.821 -0.3281  1.4579  1.3440
  413MOL0     H55718   8.327   9.919   9.851 -1.0206  0.6872  0.9179
  413MOL0     H55719   8.356  10.257   9.566 -0.9121 -0.4865 -0.0739
  413MOL0     H55720   8.275  10.227   9.716  0.3886  0.7318  0.2955
  413MOL0     H55721   8.434  10.359   9.814  1.2433 -1.9694  2.4391
  413MOL0     H55722   8.536  10.215   9.795  1.0736  1.7798  1.2579
  413MOL0     H55723   8.630  10.294   9.572 -0.4507  1.3359 -0.6784
  413MOL0     H55724   8.504  10.409   9.557 -0.9249  0.7100  0.8080
  413MOL0     H55725   8.690  10.439   9.792  1.0136 -3.6569 -1.4942
  413MOL0     H55726   8.582  10.558   9.717  0.3955 -0.5820  0.7561
  413MOL0     H55727   8.707  10.548   9.513  0.2247 -1.0469 -0.3532
  413MOL0     H55728   8.818  10.427   9.579 -0.0144  0.7407 -0.1010
  413MOL0     H55729   8.793  10.720   9.650 -0.2963 -0.0467 -1.8086
  413MOL0     H55730   8.853  10.603   9.778 -2.5028  1.4593  0.7285
  413MOL0     H55731   8.958  10.620   9.491 -0.8668  0.2556  0.8288
  413MOL0     H55732   9.031  10.535   9.633 -1.5317 -0.6438 -0.2831
  413MOL0     H55733   9.142  10.760   9.557  0.1515 -0.1442  0.1452
  413MOL0     H55734   9.001  10.844   9.624  0.6574  0.9216 -1.5792
  413MOL0     H55735   8.310  10.012   9.433  0.5494  1.0482  0.4765
  413MOL0     H55736   8.108   9.852   9.410  0.1274  0.3500 -0.1040
  413MOL0     H55737   7.758   9.512   9.852 -1.3065 -1.4057  0.3316
  413MOL0     H55738   7.594   9.346   9.750  1.1032  0.0085  1.1740
  413MOL0     H55739   7.606   9.670   8.093 -0.6976 -3.1736 -0.7541
  413MOL0     H55740   7.764   9.859   8.070  2.6078 -0.2226 -0.4203
  413MOL0     H55741   8.264   9.896   7.925 -1.0585  0.1178 -0.3542
  413MOL0     H55742   8.442  10.052   7.858 -0.8367  0.4981 -1.3853
  413MOL0     H55743   8.600  10.193   7.831 -1.5916 -0.3754  1.8335
  413MOL0     H55744   8.646  10.370   7.855 -1.2906  2.0799 -0.4445
  413MOL0     H55745   8.449  10.427   7.740  2.3855  0.7959  5.2410
  413MOL0     H55746   8.386  10.255   7.733 -0.7312  0.7872  0.6286
  413MOL0     H55747   8.583  10.226   7.575 -3.2258 -0.9688  0.4058
  413MOL0     H55748   8.617  10.400   7.586  2.2118 -1.1840  1.3875
  413MOL0     H55749   8.386  10.247   7.459 -3.5498  1.3502  4.2736
  413MOL0     H55750   8.375  10.423   7.505  2.4002  3.0993 -2.4222
  413MOL0     H55751   8.650  10.378   7.165 -0.0877 -1.2871 -0.0501
  413MOL0     H55752   8.306  10.332   8.138 -0.7431  0.9556  0.7253
  413MOL0     H55753   8.087  10.162   8.316 -2.3168  0.3891 -0.1667
  413MOL0     H55754   8.092  10.323   8.244  0.4413  1.6809 -1.3818
  413MOL0     H55755   7.983  10.184   8.187 -0.5114  0.4753  2.6236
  414MOL0     O55756   3.241   7.271  10.752 -0.1958  0.1303  0.4747
  414MOL0     C55757   3.254   7.388  10.780 -1.0958 -0.6956 -0.4360
  414MOL0     O55758   3.151   7.487  10.797 -0.6111  0.5106  0.0803
  414MOL0     C55759   3.021   7.448  10.776 -0.2911  0.2748  0.7349
  414MOL0     C55760   2.979   7.373  10.664  1.2933  0.0474 -0.0070
  414MOL0     C55761   2.843   7.339  10.655 -0.9679  0.3223 -0.8403
  414MOL0     C55762   2.750   7.376  10.752  0.6594  1.0874 -0.2550
  414MOL0     O55763   2.624   7.329  10.732  0.3392 -0.1680 -0.2310
  414MOL0     C55764   2.533   7.341  10.842 -1.1263 -0.6320 -0.4881
  414MOL0     C55765   2.395   7.283  10.794 -0.3685  0.0231 -0.3067
  414MOL0     C55766   2.387   7.129  10.805  1.1080 -0.0105 -0.5777
  414MOL0     C55767   2.279   7.065  10.730  0.7932 -0.6559 -0.5010
  414MOL0     C55768   2.277   6.921  10.742  0.4253 -0.0039  0.0803
  414MOL0     C55769   2.184   6.846  10.641  0.8232  0.2442  0.1857
  414MOL0     C55770   2.032   6.858  10.656  0.5053 -0.0852 -1.4161
  414MOL0     C55771   1.984   6.767  10.775 -0.5803 -0.0866 -0.5623
  414MOL0     N55772   2.031   6.630  10.769 -0.7086 -0.5669  0.1551
  414MOL0     C55773   2.013   6.540  10.675 -0.6103  0.2218  0.9661
  414MOL0     C55774   2.065   6.426  10.718 -0.2132  0.0290  0.8236
  414MOL0     C55775   2.067   6.295  10.644  0.6051 -0.0320 -0.0570
  414MOL0     C55776   1.991   6.293  10.513  0.2011  0.1179 -0.4800
  414MOL0     C55777   1.987   6.149  10.463  0.5851 -0.0023 -0.6440
  414MOL0     C55778   2.104   6.115  10.381 -0.1345 -0.0017  0.5018
  414MOL0     O55779   2.076   6.176  10.258  0.6420 -0.2174 -0.2612
  414MOL0     C55780   2.172   6.175  10.149  0.7311  0.1135  0.1124
  414MOL0     C55781   2.149   6.251  10.038  0.6937  0.0217  0.3441
  414MOL0     C55782   2.255   6.269   9.941  0.3398 -1.2203 -0.3560
  414MOL0     C55783   2.376   6.209   9.967  0.3400 -0.9308  0.2333
  414MOL0     C55784   2.486   6.230   9.860  0.9934  0.0800 -0.2160
  414MOL0     O55785   2.449   6.283   9.740 -0.5975 -0.7513  0.5873
  414MOL0     C55786   2.550   6.273   9.642 -0.0851 -0.5600 -0.0560
  414MOL0     C55787   2.643   6.384   9.617 -0.8293  0.2441 -0.4139
  414MOL0     C55788   2.728   6.374   9.504 -0.0116 -0.6639 -0.2724
  414MOL0     C55789   2.720   6.283   9.407  0.5094  0.3532  0.2229
  414MOL0     O55790   2.804   6.272   9.303 -0.2663 -0.3880 -0.4943
  414MOL0     C55791   2.909   6.376   9.281  1.2498  0.9710  0.5133
  414MOL0     C55792   2.864   6.514   9.226  0.9685 -0.6963 -0.1131
  414MOL0     C55793   2.979   6.563   9.137 -0.7374 -0.9581  0.7011
  414MOL0     C55794   3.102   6.604   9.230  0.4584 -0.2098 -0.0325
  414MOL0     C55795   3.231   6.597   9.153  0.4491 -0.0703  0.3349
  414MOL0     C55796   3.365   6.624   9.232  0.0374 -0.2896 -0.1947
  414MOL0     C55797   3.483   6.624   9.129 -0.8142  0.3973 -0.9874
  414MOL0     C55798   3.615   6.665   9.181 -0.3821 -0.6027 -0.2269
  414MOL0    Cl55799   3.631   6.599   9.344 -0.6029 -0.0703 -0.1187
  414MOL0     C55800   2.641   6.169   9.433  0.9351 -1.1460  0.4615
  414MOL0     C55801   2.557   6.166   9.551 -0.9262 -0.2319  0.8875
  414MOL0     O55802   2.599   6.194   9.894  0.3177 -0.3589 -0.6546
  414MOL0     C55803   2.395   6.132  10.078  0.0745  0.6466 -1.2307
  414MOL0     C55804   2.294   6.108  10.176 -0.6290 -1.2986  0.1497
  414MOL0     N55805   2.116   6.446  10.845 -0.3528 -0.2098  0.7907
  414MOL0     N55806   2.091   6.569  10.878 -0.4814 -0.7047  0.8459
  414MOL0     C55807   2.792   7.440  10.864 -0.2760 -0.1952 -0.5584
  414MOL0     C55808   2.925   7.481  10.870  1.2618  0.1254 -0.2132
  414MOL0     C55809   3.396   7.442  10.800  0.4117 -0.7626 -0.2536
  414MOL0     C55810   3.417   7.574  10.771  0.0150 -0.6638 -0.4593
  414MOL0     C55811   3.541   7.635  10.791  0.1000  0.1318 -1.0062
  414MOL0     C55812   3.654   7.566  10.843 -0.6905 -0.0088 -0.2289
  414MOL0     O55813   3.782   7.616  10.846  0.1967 -0.6458  0.0308
  414MOL0     C55814   3.849   7.591  10.718 -0.3708  0.0685 -1.4381
  414MOL0     C55815   3.986   7.654  10.709 -0.2936 -0.9458 -0.2696
  414MOL0     C55816   4.069   7.609  10.826 -0.3086 -0.5310  0.1317
  414MOL0     C55817   4.066   7.704  10.949  0.4548  0.4552  0.6229
  414MOL0     C55818   4.167   7.658  11.039  0.4369 -0.2494  0.4289
  414MOL0     C55819   4.254   7.623  11.121 -0.3011 -0.1622 -0.8617
  414MOL0     C55820   3.635   7.430  10.880 -0.2916 -1.0787  0.1563
  414MOL0     C55821   3.512   7.368  10.862  0.4333  0.6374  0.4757
  414MOL0     C55822   3.492   7.235  10.924  1.0413 -0.7074  0.6876
  414MOL0     H55823   3.053   7.345  10.589  0.0760  2.9690 -2.5274
  414MOL0     H55824   2.815   7.279  10.569  0.0463  1.5612 -2.0862
  414MOL0     H55825   2.578   7.295  10.930  0.9818  3.9540  1.1312
  414MOL0     H55826   2.526   7.446  10.872 -0.2210 -1.3080  2.3160
  414MOL0     H55827   2.373   7.325  10.696 -1.7535  1.2555  0.4948
  414MOL0     H55828   2.323   7.325  10.865  3.2336 -1.1613  4.5810
  414MOL0     H55829   2.374   7.097  10.908 -1.9064  2.3401 -0.0919
  414MOL0     H55830   2.482   7.083  10.775 -0.7671 -2.5937 -3.1948
  414MOL0     H55831   2.184   7.106  10.764  0.9926 -1.9953  1.9149
  414MOL0     H55832   2.288   7.093  10.624  0.5313 -0.8869 -0.5857
  414MOL0     H55833   2.376   6.875  10.740  0.6253  0.4200 -1.9300
  414MOL0     H55834   2.240   6.894  10.841  0.6957  1.3303  0.5635
  414MOL0     H55835   2.204   6.877  10.538  3.4473 -2.0004 -0.0938
  414MOL0     H55836   2.209   6.739  10.643 -0.8670 -0.1861 -0.1908
  414MOL0     H55837   1.969   6.824  10.574 -1.3730 -1.8934  0.6172
  414MOL0     H55838   2.016   6.965  10.673 -2.0767 -0.4004 -1.3842
  414MOL0     H55839   2.019   6.807  10.870  0.2125  0.6609 -1.1459
  414MOL0     H55840   1.875   6.778  10.778 -0.5013  0.9908  3.4524
  414MOL0     H55841   1.957   6.553  10.583 -1.3123  0.2587  1.3892
  414MOL0     H55842   2.169   6.262  10.619 -0.5193 -3.1179 -1.0949
  414MOL0     H55843   2.035   6.224  10.721  1.2908 -1.9199 -1.4165
  414MOL0     H55844   1.890   6.329  10.535 -0.3279 -1.3945 -0.3255
  414MOL0     H55845   2.027   6.364  10.437  0.4537  2.5101  1.7238
  414MOL0     H55846   1.889   6.142  10.414  0.3141  0.8738 -0.2620
  414MOL0     H55847   1.996   6.081  10.549  3.9262  3.0979  1.7778
  414MOL0     H55848   2.126   6.008  10.382  2.1323  0.4137  1.5460
  414MOL0     H55849   2.199   6.156  10.418  0.1066 -3.0222  3.7440
  414MOL0     H55850   2.052   6.297  10.018 -0.3798 -3.3229 -3.3505
  414MOL0     H55851   2.244   6.341   9.860 -1.5769 -0.6103  0.3644
  414MOL0     H55852   2.640   6.470   9.684 -2.8911  0.6724 -0.9963
  414MOL0     H55853   2.795   6.458   9.488 -0.1574 -0.8502 -2.0235
  414MOL0     H55854   2.963   6.382   9.376  1.9926  0.8707  0.1046
  414MOL0     H55855   2.983   6.327   9.217  2.4769  0.9117  1.9180
  414MOL0     H55856   2.776   6.500   9.163 -0.2518  1.1235  1.0761
  414MOL0     H55857   2.841   6.570   9.317 -2.7136 -2.3213  0.1342
  414MOL0     H55858   3.022   6.482   9.077  2.5678 -0.7591  2.5647
  414MOL0     H55859   2.946   6.644   9.071 -3.3585  0.2863  3.2785
  414MOL0     H55860   3.120   6.538   9.315 -3.0367 -0.7096  0.4738
  414MOL0     H55861   3.076   6.704   9.267 -2.6620 -0.9478  0.0821
  414MOL0     H55862   3.226   6.665   9.068 -1.0316 -2.8973 -2.0261
  414MOL0     H55863   3.234   6.499   9.104 -0.8341  1.0245 -2.0847
  414MOL0     H55864   3.357   6.713   9.295  0.6138 -0.7485  0.5468
  414MOL0     H55865   3.381   6.546   9.307 -1.1078  1.3049  1.8099
  414MOL0     H55866   3.463   6.686   9.040 -0.4109  0.9449 -0.6981
  414MOL0     H55867   3.491   6.521   9.095 -0.1412 -0.7607  2.4076
  414MOL0     H55868   3.701   6.636   9.120 -0.5679 -1.7687  0.0416
  414MOL0     H55869   3.622   6.774   9.182  0.7807 -0.6563 -0.8238
  414MOL0     H55870   2.642   6.087   9.361 -0.6073 -1.5397  0.8486
  414MOL0     H55871   2.497   6.078   9.573 -1.2992 -0.1659  0.1555
  414MOL0     H55872   2.486   6.076  10.100 -1.1522 -0.6274  0.8605
  414MOL0     H55873   2.327   6.063  10.269 -0.4935 -0.3015  0.5978
  414MOL0     H55874   2.732   7.456  10.953  3.5877 -5.0353  3.4840
  414MOL0     H55875   2.947   7.536  10.961  0.9869  0.1569 -0.1665
  414MOL0     H55876   3.337   7.634  10.728  1.9060  1.8654 -0.6730
  414MOL0     H55877   3.554   7.733  10.746 -0.3413  0.7551  0.1798
  414MOL0     H55878   3.790   7.618  10.630 -1.4090  0.3617 -0.6685
  414MOL0     H55879   3.869   7.486  10.697  1.0542  0.4367 -2.0514
  414MOL0     H55880   3.970   7.761  10.698 -3.1250 -1.5383 -4.0832
  414MOL0     H55881   4.041   7.618  10.622  1.3569  0.2285  0.2319
  414MOL0     H55882   4.172   7.598  10.792  0.4504  0.2390  2.0454
  414MOL0     H55883   4.036   7.510  10.860 -0.8821  0.7857  3.8477
  414MOL0     H55884   4.076   7.808  10.918  0.9570 -0.1823 -1.5988
  414MOL0     H55885   3.974   7.683  11.005  1.1955 -2.5646  0.9189
  414MOL0     H55886   4.314   7.586  11.202 -1.0844  0.7643  0.1778
  414MOL0     H55887   3.720   7.368  10.907 -1.7017 -4.2153 -1.9540
  414MOL0     H55888   3.399   7.233  10.981  0.5084 -1.1796 -0.1742
  414MOL0     H55889   3.477   7.160  10.846 -0.2192  0.5358 -0.3240
  414MOL0     H55890   3.580   7.195  10.975  1.5055 -2.1771 -1.1507
  415MOL0     O55891  11.396   3.101  11.442  0.3848  0.1152  0.8115
  415MOL0     C55892  11.504   3.157  11.437 -0.7060 -0.0337  0.0462
  415MOL0     O55893  11.528   3.274  11.376  0.0283  0.6305 -0.0597
  415MOL0     C55894  11.446   3.304  11.269 -0.5566  0.6824 -0.5857
  415MOL0     C55895  11.455   3.229  11.151  0.0869 -0.7985 -0.2451
  415MOL0     C55896  11.376   3.266  11.045 -0.4878 -0.5475 -0.1844
  415MOL0     C55897  11.284   3.373  11.043  0.5551 -0.4172  0.3126
  415MOL0     O55898  11.233   3.430  10.933 -1.1882 -0.0264 -0.8637
  415MOL0     C55899  11.140   3.346  10.869  0.4201  0.8281 -0.6441
  415MOL0     C55900  11.112   3.408  10.732  0.0871  0.2975  0.7606
  415MOL0     C55901  11.231   3.417  10.634  0.0346 -0.0894  0.6107
  415MOL0     C55902  11.203   3.500  10.506  0.0916 -0.0812  0.3921
  415MOL0     C55903  11.199   3.654  10.521 -0.4341  0.0534  0.4118
  415MOL0     C55904  11.327   3.725  10.479  0.3771 -0.7473  0.1400
  415MOL0     C55905  11.327   3.878  10.522  0.9054 -0.7486  0.6307
  415MOL0     C55906  11.422   3.904  10.632 -0.5184  1.0235  0.8679
  415MOL0     N55907  11.377   4.028  10.707 -0.4050 -1.1407 -0.7947
  415MOL0     C55908  11.321   4.146  10.659  0.0909  0.1382 -0.2493
  415MOL0     C55909  11.284   4.214  10.772 -1.0518  0.2976  0.5567
  415MOL0     C55910  11.198   4.327  10.776  0.2285  0.4016  0.3916
  415MOL0     C55911  11.267   4.445  10.691  0.3519 -0.3161  1.1115
  415MOL0     C55912  11.162   4.540  10.635  0.0812  0.5057  0.2595
  415MOL0     C55913  11.101   4.634  10.734  0.5871  0.4961 -0.2716
  415MOL0     O55914  10.974   4.686  10.701  1.1757  0.0425  0.0405
  415MOL0     C55915  10.966   4.819  10.722  0.6245 -0.0617  0.2132
  415MOL0     C55916  10.995   4.884  10.840 -0.2945  0.4764  0.3593
  415MOL0     C55917  11.006   5.024  10.842  0.0851 -0.2498  0.3290
  415MOL0     C55918  10.962   5.100  10.719 -0.2675  0.3252  0.5995
  415MOL0     C55919  10.956   5.250  10.707  0.0931  0.1938  0.5304
  415MOL0     O55920  11.031   5.327  10.793 -0.4553  0.3491 -0.4221
  415MOL0     C55921  11.021   5.466  10.791 -0.1316  0.2138  0.1310
  415MOL0     C55922  10.968   5.556  10.695 -0.1672 -0.1473  0.5233
  415MOL0     C55923  10.943   5.692  10.721  0.4950  0.4688  0.3089
  415MOL0     C55924  11.003   5.756  10.827 -0.3510 -0.3303  0.5641
  415MOL0     O55925  10.984   5.886  10.864 -0.0857 -0.3580  0.1121
  415MOL0     C55926  10.901   5.968  10.780 -0.0241  0.1824 -0.0883
  415MOL0     C55927  10.843   6.075  10.873 -0.0383  1.1075  0.3914
  415MOL0     C55928  10.807   6.203  10.800  0.6035  0.6155  0.5475
  415MOL0     C55929  10.786   6.315  10.891 -0.2236 -0.3005  0.0217
  415MOL0     C55930  10.719   6.432  10.815 -0.1163  0.2691 -0.1297
  415MOL0     C55931  10.629   6.518  10.908  0.4833 -0.0497 -0.2096
  415MOL0     C55932  10.580   6.652  10.848 -0.6963  0.7349 -0.0416
  415MOL0     C55933  10.463   6.647  10.741  0.2277  0.2717 -0.0730
  415MOL0    Cl55934  10.528   6.619  10.576 -0.0096  0.4557 -0.7957
  415MOL0     C55935  11.073   5.670  10.917  0.8235 -0.3123 -0.3622
  415MOL0     C55936  11.069   5.532  10.900 -1.0564  0.4780 -0.3627
  415MOL0     O55937  10.904   5.294  10.604 -0.1889  0.5700  0.0629
  415MOL0     C55938  10.930   5.023  10.609  0.3258  0.2069 -0.4954
  415MOL0     C55939  10.931   4.889  10.610 -0.4332 -0.0651 -0.0787
  415MOL0     N55940  11.326   4.150  10.881  0.0709  0.0539 -0.4817
  415MOL0     N55941  11.382   4.037  10.845  0.4857  0.4249  0.1844
  415MOL0     C55942  11.266   3.433  11.165 -0.0799  0.2652  0.0464
  415MOL0     C55943  11.354   3.408  11.269 -0.2727 -0.6305 -0.5345
  415MOL0     C55944  11.622   3.095  11.509 -0.2907  0.3193 -0.0894
  415MOL0     C55945  11.724   3.178  11.548  1.0352  0.0746  1.0341
  415MOL0     C55946  11.823   3.140  11.633 -0.9911 -0.9659 -0.4397
  415MOL0     C55947  11.848   3.010  11.665  0.3038  0.4637  0.7833
  415MOL0     O55948  11.944   2.969  11.743 -0.4108  0.1527 -0.1768
  415MOL0     C55949  12.021   3.066  11.815  0.0037 -0.7559 -0.8170
  415MOL0     C55950  12.084   2.992  11.936 -0.0384  0.0385 -0.2477
  415MOL0     C55951  12.189   2.884  11.910 -0.8363  0.0508 -0.0037
  415MOL0     C55952  12.203   2.782  12.028  0.1347  0.0899  0.3150
  415MOL0     C55953  12.080   2.698  12.040  0.1542  0.1510  0.3199
  415MOL0     C55954  11.967   2.651  12.040 -0.0860 -0.0702  0.3608
  415MOL0     C55955  11.748   2.921  11.620  0.9936 -1.0796 -0.5516
  415MOL0     C55956  11.640   2.966  11.548  0.8255  0.8961 -0.0831
  415MOL0     C55957  11.553   2.853  11.481  0.2036  0.7352 -0.3103
  415MOL0     H55958  11.512   3.137  11.136 -0.3395 -1.5117  2.0495
  415MOL0     H55959  11.380   3.227  10.944 -3.1718  1.3663 -1.1405
  415MOL0     H55960  11.158   3.240  10.852 -1.6912  0.2189  0.5423
  415MOL0     H55961  11.046   3.360  10.922  0.7781  0.5174  0.0904
  415MOL0     H55962  11.082   3.512  10.752 -0.2126  0.6543 -1.3218
  415MOL0     H55963  11.021   3.370  10.685 -1.4749 -0.1908  3.9318
  415MOL0     H55964  11.255   3.319  10.592  1.1551  0.6877 -0.6680
  415MOL0     H55965  11.320   3.450  10.688  3.0424 -2.9180 -2.1645
  415MOL0     H55966  11.280   3.466  10.436 -0.8053 -4.3276  1.2215
  415MOL0     H55967  11.109   3.456  10.472  0.5518 -2.1878  1.6770
  415MOL0     H55968  11.120   3.697  10.459 -1.3916 -2.5611 -0.3194
  415MOL0     H55969  11.170   3.683  10.622  2.1250  3.0098  0.4318
  415MOL0     H55970  11.418   3.693  10.531  1.0964  2.4771  1.1179
  415MOL0     H55971  11.350   3.707  10.373 -2.0595 -3.3864 -0.0745
  415MOL0     H55972  11.225   3.883  10.559  1.3678 -2.3589  2.2478
  415MOL0     H55973  11.346   3.953  10.444  0.9005 -0.7855  0.5929
  415MOL0     H55974  11.407   3.825  10.705 -0.9094  2.6867  2.6828
  415MOL0     H55975  11.527   3.903  10.599 -0.4193  0.5568  1.1977
  415MOL0     H55976  11.296   4.174  10.558 -1.4610  0.6530  0.2443
  415MOL0     H55977  11.094   4.311  10.749  0.3397  1.3066 -0.6329
  415MOL0     H55978  11.189   4.357  10.881 -1.9990 -1.8017  0.9204
  415MOL0     H55979  11.353   4.484  10.746  1.3503 -0.1778 -0.4593
  415MOL0     H55980  11.313   4.398  10.603  2.1186  1.4475  1.0197
  415MOL0     H55981  11.080   4.479  10.598  2.1540 -2.2776 -0.0021
  415MOL0     H55982  11.199   4.598  10.550  0.0870  1.9925  1.2407
  415MOL0     H55983  11.167   4.717  10.759 -3.3726  3.3724  1.6602
  415MOL0     H55984  11.084   4.582  10.829  2.0185 -1.9719 -1.2770
  415MOL0     H55985  11.030   4.817  10.918  3.3559  1.2667 -0.3923
  415MOL0     H55986  11.029   5.068  10.938 -1.9122 -2.5435  1.9962
  415MOL0     H55987  10.926   5.532  10.598  2.2408  0.8195 -0.8373
  415MOL0     H55988  10.904   5.746  10.635 -0.7059 -4.5908 -2.8007
  415MOL0     H55989  10.956   6.018  10.699  1.2167 -2.5460 -1.0392
  415MOL0     H55990  10.817   5.918  10.730 -2.9336  3.5426  1.0011
  415MOL0     H55991  10.752   6.038  10.921 -0.2419  1.5328  0.3426
  415MOL0     H55992  10.919   6.100  10.948  1.8797 -1.0861 -0.7296
  415MOL0     H55993  10.878   6.230  10.721 -2.4963  1.7134 -2.0869
  415MOL0     H55994  10.717   6.192  10.739  0.1223 -1.6174  1.5742
  415MOL0     H55995  10.879   6.348  10.938  0.1481 -1.1384 -0.1033
  415MOL0     H55996  10.725   6.278  10.973 -1.7050 -2.1885 -1.8166
  415MOL0     H55997  10.656   6.400  10.732 -0.1204 -0.3656  0.1130
  415MOL0     H55998  10.801   6.498  10.785 -0.1745  0.7259  0.6897
  415MOL0     H55999  10.540   6.458  10.929  0.6523  0.5732  2.6564
  415MOL0     H56000  10.671   6.548  11.004 -3.7453  3.9396  0.7884
  415MOL0     H56001  10.664   6.710  10.809 -2.4567  2.6878 -1.1677
  415MOL0     H56002  10.527   6.712  10.923 -5.7843  0.3853 -2.8740
  415MOL0     H56003  10.384   6.572  10.745  0.7335 -0.3477 -1.1913
  415MOL0     H56004  10.418   6.746  10.743  2.7276  1.5460 -1.4895
  415MOL0     H56005  11.132   5.716  10.996  3.9747 -5.2417  0.6032
  415MOL0     H56006  11.120   5.475  10.977  1.9534  2.2455 -0.8929
  415MOL0     H56007  10.895   5.073  10.519 -2.0469 -1.4914 -0.5978
  415MOL0     H56008  10.909   4.836  10.518  2.0631  0.6778 -1.1884
  415MOL0     H56009  11.199   3.519  11.171  0.7973  1.0361 -0.8818
  415MOL0     H56010  11.347   3.469  11.359  0.1961 -0.8553 -0.3407
  415MOL0     H56011  11.723   3.284  11.526  0.6272 -0.7052 -3.9093
  415MOL0     H56012  11.894   3.215  11.667 -0.6160 -1.5546  0.1079
  415MOL0     H56013  11.959   3.148  11.853  2.2774  0.8880 -0.4468
  415MOL0     H56014  12.104   3.111  11.758  3.4321 -2.8151  2.1864
  415MOL0     H56015  12.009   2.959  12.009  1.4606  1.6557  2.1489
  415MOL0     H56016  12.140   3.060  12.001 -0.4767 -0.6623  0.8941
  415MOL0     H56017  12.287   2.931  11.901 -0.6970 -0.2360 -0.0155
  415MOL0     H56018  12.166   2.830  11.818 -1.9059 -0.0134  0.2905
  415MOL0     H56019  12.295   2.726  12.007 -0.3946 -2.1177  3.1669
  415MOL0     H56020  12.217   2.837  12.122 -0.5004  0.2162  0.3404
  415MOL0     H56021  11.882   2.588  12.024  1.3947 -1.1168 -6.5653
  415MOL0     H56022  11.755   2.817  11.652 -1.0248  0.0771  4.7259
  415MOL0     H56023  11.466   2.884  11.423 -0.7380 -1.6432 -0.2848
  415MOL0     H56024  11.601   2.786  11.410 -1.9186 -0.3272 -0.8518
  415MOL0     H56025  11.525   2.791  11.568  1.6697 -4.3005 -3.0172
  416MOL0     O56026   4.040   7.030   0.760 -0.2307  0.4237 -0.0883
  416MOL0     C56027   3.990   7.136   0.735  0.7525  0.6418  0.5113
  416MOL0     O56028   3.952   7.232   0.827  0.1002 -0.5786 -0.0746
  416MOL0     C56029   3.957   7.203   0.957 -0.6259  0.0813 -0.1172
  416MOL0     C56030   4.046   7.281   1.047 -0.3253  0.0888 -0.4313
  416MOL0     C56031   4.047   7.266   1.186  0.3336  0.5038 -0.6476
  416MOL0     C56032   3.959   7.176   1.246 -0.5220 -0.5399 -0.1314
  416MOL0     O56033   3.943   7.171   1.381  0.1081  0.3096  0.6361
  416MOL0     C56034   4.018   7.254   1.473  0.4120 -0.0346 -0.3172
  416MOL0     C56035   3.983   7.200   1.609  0.0134 -0.5885 -0.8786
  416MOL0     C56036   4.098   7.195   1.720  0.0378 -0.5438 -0.1024
  416MOL0     C56037   4.156   7.334   1.732  0.0637  0.1716  0.4496
  416MOL0     C56038   4.216   7.341   1.870  0.1080 -0.6685  0.0178
  416MOL0     C56039   4.118   7.384   1.974  0.0364  0.3447  0.0953
  416MOL0     C56040   4.193   7.372   2.108  0.6443 -0.4085 -0.7540
  416MOL0     C56041   4.093   7.374   2.229  0.5574 -0.6276 -0.2828
  416MOL0     N56042   4.010   7.489   2.246  0.1266  0.0519 -0.2287
  416MOL0     C56043   4.061   7.597   2.311  0.3226 -0.0406 -0.2257
  416MOL0     C56044   3.960   7.691   2.330  0.0656 -0.3348  0.0698
  416MOL0     C56045   3.957   7.823   2.401 -0.0026  0.4543  0.1732
  416MOL0     C56046   3.823   7.901   2.383  0.7285 -0.7503  0.4624
  416MOL0     C56047   3.847   8.050   2.406  0.6292  0.0784  0.0013
  416MOL0     C56048   3.712   8.116   2.407 -0.2686 -0.1236 -0.3421
  416MOL0     O56049   3.647   8.083   2.530  0.4563  0.0491  0.5008
  416MOL0     C56050   3.509   8.101   2.531 -0.7103 -1.3194  0.1894
  416MOL0     C56051   3.432   8.159   2.431  0.0908  0.1077  0.2938
  416MOL0     C56052   3.292   8.158   2.451  0.5614  1.2141 -0.9081
  416MOL0     C56053   3.226   8.110   2.565  0.5526  0.1041  0.5199
  416MOL0     C56054   3.080   8.108   2.571 -0.0312  0.3721  0.4232
  416MOL0     O56055   3.030   8.068   2.687  0.9394 -0.4046  0.3892
  416MOL0     C56056   2.895   8.082   2.710  0.1757  0.5547 -0.8865
  416MOL0     C56057   2.848   8.212   2.728  0.0300  0.1722 -0.1973
  416MOL0     C56058   2.714   8.236   2.770  0.1072 -0.4816  0.7945
  416MOL0     C56059   2.624   8.127   2.778  0.9653 -0.3395 -0.5094
  416MOL0     O56060   2.499   8.146   2.839 -0.2315  0.3318  0.2004
  416MOL0     C56061   2.430   8.271   2.853  0.6586  0.0437  0.2727
  416MOL0     C56062   2.491   8.340   2.972 -0.2248 -1.3512 -0.5073
  416MOL0     C56063   2.473   8.262   3.102  0.2373  0.0843  0.7780
  416MOL0     C56064   2.334   8.257   3.171 -0.2231 -0.8129 -0.0498
  416MOL0     C56065   2.305   8.135   3.255  0.1716 -0.3288 -1.1582
  416MOL0     C56066   2.397   8.101   3.378  0.0085 -0.0633  0.2312
  416MOL0     C56067   2.434   8.226   3.462  0.0252  0.4120  0.7005
  416MOL0     C56068   2.516   8.203   3.580  0.2018  1.1970 -0.5703
  416MOL0    Cl56069   2.675   8.145   3.544  0.0882  0.0664  0.2077
  416MOL0     C56070   2.674   7.997   2.758 -0.3730  0.4094 -0.3098
  416MOL0     C56071   2.811   7.975   2.727 -0.0356  0.5244  0.3776
  416MOL0     O56072   3.012   8.136   2.466 -0.4041 -0.2736 -0.6402
  416MOL0     C56073   3.313   8.057   2.669 -0.3264  1.0690  0.4256
  416MOL0     C56074   3.448   8.052   2.650  0.1397  1.1441  0.5744
  416MOL0     N56075   3.839   7.631   2.270  0.4688 -0.1408  0.2303
  416MOL0     N56076   3.873   7.510   2.224 -0.2983  1.0405  0.0343
  416MOL0     C56077   3.873   7.095   1.168 -0.3111  0.4722 -0.1101
  416MOL0     C56078   3.879   7.107   1.025  0.5412 -0.0207 -0.0001
  416MOL0     C56079   3.966   7.170   0.593 -0.3526  0.7981 -0.7012
  416MOL0     C56080   4.013   7.077   0.493  0.7775 -0.1619  0.0167
  416MOL0     C56081   3.999   7.099   0.362  0.2932  0.0025  0.5135
  416MOL0     C56082   3.929   7.210   0.315  0.5281  0.7346  0.0935
  416MOL0     O56083   3.923   7.232   0.176  0.8204 -0.6566  0.2319
  416MOL0     C56084   3.788   7.255   0.135  0.8622 -0.5686 -0.6982
  416MOL0     C56085   3.780   7.284  -0.020 -0.2603  0.3328 -0.2017
  416MOL0     C56086   3.781   7.158  -0.109 -0.0451  0.4568 -0.5450
  416MOL0     C56087   3.726   7.166  -0.257  0.7087 -0.1798 -0.4362
  416MOL0     C56088   3.814   7.273  -0.312  0.0567  0.6692 -0.2381
  416MOL0     C56089   3.888   7.361  -0.359 -0.6288  0.6695  0.5871
  416MOL0     C56090   3.893   7.306   0.407  0.5415 -0.2258  0.8694
  416MOL0     C56091   3.905   7.288   0.542  0.0649  0.0345  0.2629
  416MOL0     C56092   3.848   7.403   0.625  0.7201 -0.0276  0.4081
  416MOL0     H56093   4.113   7.358   1.008  3.2135 -1.7679  1.5197
  416MOL0     H56094   4.114   7.321   1.252 -2.4757 -0.7459  3.6438
  416MOL0     H56095   4.124   7.234   1.454  0.9835  1.1171  1.4770
  416MOL0     H56096   3.996   7.360   1.461  0.7133 -0.2694 -4.3308
  416MOL0     H56097   3.947   7.097   1.599  1.0193 -1.2770  1.5797
  416MOL0     H56098   3.893   7.249   1.646 -2.7001 -2.9651 -3.7531
  416MOL0     H56099   4.180   7.130   1.689  1.5938  2.4840 -3.0678
  416MOL0     H56100   4.049   7.160   1.811 -0.5407  1.6082  0.4603
  416MOL0     H56101   4.234   7.355   1.658 -1.8678  0.4950 -1.5882
  416MOL0     H56102   4.086   7.418   1.729  1.4706  1.3539 -1.5819
  416MOL0     H56103   4.270   7.249   1.896  1.8828  0.7961  1.8329
  416MOL0     H56104   4.292   7.418   1.884  2.0519 -2.4679 -0.1927
  416MOL0     H56105   4.075   7.485   1.972 -1.7074 -0.2877  2.1636
  416MOL0     H56106   4.033   7.315   1.971 -3.5806  4.3744 -2.0557
  416MOL0     H56107   4.277   7.441   2.118  2.2313 -1.8178 -3.3466
  416MOL0     H56108   4.247   7.279   2.128 -0.9436 -0.7412  2.8888
  416MOL0     H56109   4.035   7.282   2.237 -0.1519 -0.0689  1.3313
  416MOL0     H56110   4.159   7.366   2.315  2.6138  2.1291 -1.4536
  416MOL0     H56111   4.166   7.607   2.339 -0.4015  0.1720  2.6975
  416MOL0     H56112   3.964   7.801   2.508  1.4526 -1.7999 -0.3079
  416MOL0     H56113   4.039   7.885   2.363 -1.6217  3.2631  0.9785
  416MOL0     H56114   3.778   7.895   2.284 -0.2690  0.7330  0.7929
  416MOL0     H56115   3.749   7.852   2.446  1.2038 -1.0206  0.8186
  416MOL0     H56116   3.906   8.087   2.321  0.3107 -0.1694 -0.3316
  416MOL0     H56117   3.899   8.062   2.501 -1.3726  2.5758  0.8908
  416MOL0     H56118   3.650   8.099   2.319 -1.4796  0.3698  0.3862
  416MOL0     H56119   3.721   8.225   2.410  0.6078 -0.1927 -0.4015
  416MOL0     H56120   3.471   8.198   2.338  0.7302  1.1020  0.9631
  416MOL0     H56121   3.234   8.200   2.369 -1.9062 -1.1198 -0.4952
  416MOL0     H56122   2.917   8.295   2.716  2.3187 -1.9556 -2.9503
  416MOL0     H56123   2.685   8.337   2.793  0.6003 -0.1393 -0.0301
  416MOL0     H56124   2.440   8.330   2.762  2.7024 -0.6584 -0.0244
  416MOL0     H56125   2.325   8.255   2.881  0.9097  1.7349  2.4158
  416MOL0     H56126   2.596   8.370   2.970 -0.1336 -1.0249  2.9567
  416MOL0     H56127   2.433   8.432   2.985 -0.8811 -1.8347  0.0451
  416MOL0     H56128   2.491   8.158   3.076 -2.8168 -0.2171 -0.4790
  416MOL0     H56129   2.542   8.310   3.173  1.7397  0.5856 -0.9285
  416MOL0     H56130   2.251   8.260   3.101  1.6666  3.1248 -2.4679
  416MOL0     H56131   2.321   8.350   3.227 -1.4636 -1.0963  0.1534
  416MOL0     H56132   2.299   8.046   3.192 -5.2801 -2.0496  1.1250
  416MOL0     H56133   2.206   8.140   3.303  0.9692 -2.0487  0.8015
  416MOL0     H56134   2.353   8.032   3.450 -0.4894 -0.2771 -0.2669
  416MOL0     H56135   2.494   8.066   3.340  0.1081  0.5020 -0.0560
  416MOL0     H56136   2.342   8.271   3.500 -1.3360  0.6061 -2.4793
  416MOL0     H56137   2.460   8.306   3.391 -1.1711  0.4139  0.2345
  416MOL0     H56138   2.534   8.297   3.633 -0.1851  0.3429  1.1810
  416MOL0     H56139   2.472   8.138   3.656  1.5560  3.1797  2.0859
  416MOL0     H56140   2.605   7.915   2.777  1.2972 -0.9907  0.0072
  416MOL0     H56141   2.840   7.872   2.711 -2.4069 -0.3640  1.3247
  416MOL0     H56142   3.280   8.018   2.765  4.4911  0.4820  2.0843
  416MOL0     H56143   3.518   8.014   2.723  2.9797  0.0207 -2.4369
  416MOL0     H56144   3.809   7.021   1.215 -0.2506  1.5670  1.7684
  416MOL0     H56145   3.819   7.047   0.957 -0.6515  1.3305 -0.1728
  416MOL0     H56146   4.071   6.986   0.509  0.0189 -1.0823 -2.1074
  416MOL0     H56147   4.041   7.042   0.280 -1.5936  0.1695 -0.6223
  416MOL0     H56148   3.751   7.348   0.180 -0.6784 -0.6278 -1.7864
  416MOL0     H56149   3.732   7.168   0.171  1.6275 -0.4592  0.8744
  416MOL0     H56150   3.857   7.355  -0.052 -0.8528 -0.3182 -3.4158
  416MOL0     H56151   3.688   7.340  -0.037  2.4547  6.8229  2.8569
  416MOL0     H56152   3.723   7.081  -0.058 -0.3938  1.3873  0.5148
  416MOL0     H56153   3.884   7.122  -0.117 -0.4106 -0.4300 -1.5737
  416MOL0     H56154   3.727   7.072  -0.313  1.6366 -0.4997  0.0952
  416MOL0     H56155   3.619   7.188  -0.256  0.3967 -1.6215  0.8034
  416MOL0     H56156   3.938   7.444  -0.404  0.8202  0.4460  1.7212
  416MOL0     H56157   3.852   7.401   0.376  0.7236 -0.0244  1.2506
  416MOL0     H56158   3.805   7.372   0.721  1.6758  1.5165  1.3885
  416MOL0     H56159   3.932   7.467   0.653  1.6402 -0.3683 -1.4656
  416MOL0     H56160   3.770   7.456   0.569  0.6796 -1.1655 -0.6561
  417MOL0     O56161   4.619   6.267   7.470  0.2642 -0.4822  0.2068
  417MOL0     C56162   4.584   6.215   7.367  0.5905 -0.0646  0.4703
  417MOL0     O56163   4.585   6.083   7.345 -0.4507  0.0781 -0.2032
  417MOL0     C56164   4.619   5.985   7.437 -0.3678 -0.5147  0.8036
  417MOL0     C56165   4.549   5.998   7.553 -0.1789  0.1026 -0.5800
  417MOL0     C56166   4.579   5.903   7.658  0.0333 -0.0600 -0.2479
  417MOL0     C56167   4.660   5.791   7.634  1.1735  0.4438 -0.3333
  417MOL0     O56168   4.668   5.709   7.739 -0.9209  0.4499 -0.0232
  417MOL0     C56169   4.697   5.568   7.716  0.5547 -0.5370  0.3251
  417MOL0     C56170   4.848   5.536   7.708  0.1882 -0.4603 -0.0169
  417MOL0     C56171   4.917   5.590   7.834  0.4940  0.3606 -0.4774
  417MOL0     C56172   5.067   5.569   7.831 -0.2518 -0.1350  0.2597
  417MOL0     C56173   5.150   5.606   7.955  0.3117 -0.6781 -1.7474
  417MOL0     C56174   5.280   5.527   7.983 -0.1138  0.3630  0.1146
  417MOL0     C56175   5.387   5.593   7.898  0.7676 -0.5448  0.9686
  417MOL0     C56176   5.527   5.525   7.909 -0.0119 -0.3452 -0.4760
  417MOL0     N56177   5.516   5.384   7.873 -0.3564 -0.3285 -0.2036
  417MOL0     C56178   5.566   5.332   7.757  0.3266 -0.4232  0.3333
  417MOL0     C56179   5.590   5.202   7.775  0.6165 -0.5071 -0.5075
  417MOL0     C56180   5.643   5.095   7.682  1.0932 -0.2777  0.3067
  417MOL0     C56181   5.529   5.028   7.598  0.2127  0.0421 -0.4410
  417MOL0     C56182   5.409   4.977   7.687 -0.9247  0.4267  0.2376
  417MOL0     C56183   5.309   4.896   7.617  0.1072 -0.1034 -0.3862
  417MOL0     O56184   5.215   4.838   7.713 -0.0772  0.0419 -0.1148
  417MOL0     C56185   5.105   4.772   7.664 -0.8797  0.1873  0.6650
  417MOL0     C56186   5.075   4.773   7.531  0.8480 -0.2847  0.2376
  417MOL0     C56187   4.954   4.713   7.482  1.1935  0.6947  0.3044
  417MOL0     C56188   4.861   4.649   7.564 -0.1572 -0.4726 -0.9653
  417MOL0     C56189   4.732   4.591   7.515 -0.3727 -0.7180 -0.7384
  417MOL0     O56190   4.740   4.567   7.378 -0.5127  0.9034 -0.2062
  417MOL0     C56191   4.628   4.539   7.304  0.4828  0.1877  0.4803
  417MOL0     C56192   4.494   4.512   7.346 -0.9770  0.0000  0.8377
  417MOL0     C56193   4.391   4.486   7.253  0.5070 -0.4476 -0.4328
  417MOL0     C56194   4.418   4.480   7.117 -0.0435 -0.5527 -0.3041
  417MOL0     O56195   4.312   4.435   7.042  0.3102 -0.0963 -0.3983
  417MOL0     C56196   4.305   4.471   6.901 -0.1823 -0.5877 -0.0189
  417MOL0     C56197   4.186   4.416   6.820 -0.6735  0.2137  0.6520
  417MOL0     C56198   4.062   4.408   6.907 -1.2385 -1.2744 -0.1045
  417MOL0     C56199   3.965   4.318   6.853  0.7698  0.1252  0.1102
  417MOL0     C56200   3.821   4.348   6.909  0.1460 -0.0316  0.8694
  417MOL0     C56201   3.726   4.231   6.933 -0.0797  0.1378 -0.0203
  417MOL0     C56202   3.596   4.275   7.006 -0.3416  0.0488 -0.0693
  417MOL0     C56203   3.618   4.286   7.157  0.2472 -0.2328  0.9299
  417MOL0    Cl56204   3.463   4.328   7.232  0.3395  0.2149 -0.2229
  417MOL0     C56205   4.536   4.528   7.068  0.0383 -0.1268  0.4196
  417MOL0     C56206   4.638   4.548   7.165  0.7979 -0.7414  0.0811
  417MOL0     O56207   4.630   4.576   7.589 -0.9076 -0.7798 -0.0125
  417MOL0     C56208   4.884   4.655   7.695 -0.5569 -1.1711 -0.8370
  417MOL0     C56209   5.011   4.716   7.745 -0.2804  0.6159 -0.1881
  417MOL0     N56210   5.550   5.170   7.909  0.0697  1.1793 -0.2063
  417MOL0     N56211   5.513   5.284   7.965  0.5595 -0.3300  0.4387
  417MOL0     C56212   4.723   5.774   7.509  0.1249 -0.9844 -0.6852
  417MOL0     C56213   4.706   5.877   7.416 -0.0186  0.1585  0.1927
  417MOL0     C56214   4.514   6.294   7.271  0.1240 -1.0340  0.3518
  417MOL0     C56215   4.465   6.226   7.157  0.7164  0.3330 -0.6095
  417MOL0     C56216   4.384   6.291   7.058  0.2631  0.2494 -0.0275
  417MOL0     C56217   4.328   6.414   7.088 -0.1445 -0.1946  0.5830
  417MOL0     O56218   4.237   6.484   7.008 -0.8383  0.5054  0.4252
  417MOL0     C56219   4.238   6.444   6.864  0.6606  0.4267 -0.3226
  417MOL0     C56220   4.142   6.526   6.772  1.2819 -0.2794  0.0325
  417MOL0     C56221   3.983   6.520   6.828 -0.8391  0.0832 -0.5962
  417MOL0     C56222   3.878   6.565   6.732 -0.5192 -0.4445 -1.5150
  417MOL0     C56223   3.852   6.469   6.631 -0.0972 -0.2423 -0.1396
  417MOL0     C56224   3.819   6.385   6.547 -0.7006  0.3636  0.0967
  417MOL0     C56225   4.363   6.472   7.207 -0.2063  0.4350 -0.0380
  417MOL0     C56226   4.463   6.428   7.289  0.3794 -0.1896 -0.7078
  417MOL0     C56227   4.501   6.529   7.394  0.5232 -0.9682 -0.7965
  417MOL0     H56228   4.481   6.077   7.582  0.4245  0.7898 -1.0076
  417MOL0     H56229   4.539   5.912   7.759  0.1622 -1.2635 -0.0685
  417MOL0     H56230   4.642   5.515   7.794 -1.7250 -1.0433 -1.4996
  417MOL0     H56231   4.648   5.533   7.624  2.3088  1.0008 -1.2960
  417MOL0     H56232   4.897   5.580   7.621  1.7008  0.4743  1.2519
  417MOL0     H56233   4.864   5.428   7.701  0.5029 -0.5508  1.6058
  417MOL0     H56234   4.867   5.547   7.922 -0.3681 -0.1721 -1.2060
  417MOL0     H56235   4.897   5.697   7.840 -0.1902  0.1467  1.6985
  417MOL0     H56236   5.080   5.462   7.811 -0.9158 -0.5449  1.9011
  417MOL0     H56237   5.116   5.629   7.753  0.3106 -1.3166 -0.3241
  417MOL0     H56238   5.169   5.712   7.974 -0.6282 -0.8906  0.9689
  417MOL0     H56239   5.088   5.591   8.044  2.3232  0.3287 -0.0909
  417MOL0     H56240   5.311   5.533   8.088  4.6835  0.2573 -1.0947
  417MOL0     H56241   5.258   5.425   7.951 -2.4903  1.1856 -1.1583
  417MOL0     H56242   5.398   5.701   7.909 -1.3418  0.0242 -1.5080
  417MOL0     H56243   5.351   5.591   7.795 -3.0176  1.8208  2.0408
  417MOL0     H56244   5.596   5.586   7.850  1.4935 -0.4076  1.1398
  417MOL0     H56245   5.574   5.537   8.008  2.0438  3.4429 -1.7169
  417MOL0     H56246   5.587   5.379   7.661  0.2451 -0.4567  0.2999
  417MOL0     H56247   5.719   5.137   7.615  3.1507  2.3501  3.8902
  417MOL0     H56248   5.690   5.014   7.738 -0.6634 -2.2676 -0.9841
  417MOL0     H56249   5.496   5.097   7.520 -1.4577  2.3323  2.0821
  417MOL0     H56250   5.576   4.939   7.555 -2.1989 -1.9236  0.7540
  417MOL0     H56251   5.356   5.058   7.740 -0.0920  0.0710  1.6772
  417MOL0     H56252   5.436   4.911   7.770 -1.7329  0.4989  0.5704
  417MOL0     H56253   5.343   4.816   7.551 -2.5763 -0.2565 -1.7189
  417MOL0     H56254   5.251   4.966   7.555 -1.0436 -1.8039 -1.3105
  417MOL0     H56255   5.138   4.822   7.459  1.5243 -1.2377  0.1596
  417MOL0     H56256   4.929   4.725   7.377  2.4647  0.0172 -0.1034
  417MOL0     H56257   4.476   4.529   7.452  2.3700 -0.0909  1.5438
  417MOL0     H56258   4.296   4.471   7.304  1.8840  1.2724  2.9330
  417MOL0     H56259   4.289   4.579   6.892 -1.4852 -0.7858 -0.2438
  417MOL0     H56260   4.393   4.451   6.840 -0.4174  0.6477 -0.8087
  417MOL0     H56261   4.171   4.476   6.730 -1.1801  0.9514  1.2144
  417MOL0     H56262   4.217   4.315   6.792  1.2872  1.3748 -1.6017
  417MOL0     H56263   4.089   4.374   7.008  0.5662  1.8497  0.5994
  417MOL0     H56264   4.016   4.506   6.916 -1.2918 -1.0544 -2.3925
  417MOL0     H56265   4.005   4.218   6.869  2.7478  0.9009  0.2860
  417MOL0     H56266   3.956   4.334   6.745 -1.3076 -0.8010  0.0907
  417MOL0     H56267   3.779   4.430   6.850 -1.6402 -1.7841 -0.4377
  417MOL0     H56268   3.823   4.391   7.009 -2.1425  1.6189  0.2913
  417MOL0     H56269   3.714   4.185   6.834 -1.1121  1.2079 -0.4226
  417MOL0     H56270   3.779   4.162   6.999 -3.7477  0.0009  3.1263
  417MOL0     H56271   3.516   4.201   6.996 -0.0412 -0.6351  2.1646
  417MOL0     H56272   3.551   4.368   6.970  1.6328  2.0233  2.2287
  417MOL0     H56273   3.671   4.198   7.194  1.6491  0.0194 -0.3681
  417MOL0     H56274   3.676   4.375   7.177  0.6914 -0.1553 -0.5321
  417MOL0     H56275   4.557   4.529   6.962  1.8705 -1.2000  0.7242
  417MOL0     H56276   4.737   4.580   7.136  0.8606  0.9329  1.9234
  417MOL0     H56277   4.808   4.615   7.762  1.5068 -3.4165  0.3381
  417MOL0     H56278   5.032   4.710   7.851 -0.7242 -0.6170 -0.1502
  417MOL0     H56279   4.799   5.698   7.495 -0.3474 -1.9799  1.6796
  417MOL0     H56280   4.757   5.859   7.322 -0.3488 -3.7222  0.5595
  417MOL0     H56281   4.493   6.123   7.136 -0.1220  0.2600 -1.3924
  417MOL0     H56282   4.352   6.243   6.966 -0.3183  0.5952 -0.0159
  417MOL0     H56283   4.216   6.338   6.851  0.0973  0.4373  0.4642
  417MOL0     H56284   4.337   6.460   6.821  0.3934 -0.7130 -1.3913
  417MOL0     H56285   4.157   6.486   6.672  2.3585  1.9710 -0.7415
  417MOL0     H56286   4.163   6.632   6.780  2.0280 -0.5447  3.5623
  417MOL0     H56287   3.973   6.577   6.920  1.2173  1.2586 -1.0362
  417MOL0     H56288   3.958   6.422   6.869 -2.6845  0.1993 -1.3837
  417MOL0     H56289   3.786   6.583   6.788  1.0842  2.9451  0.3337
  417MOL0     H56290   3.895   6.667   6.696  0.8012  0.4158  1.2787
  417MOL0     H56291   3.794   6.318   6.467 -0.7047  2.0806 -1.3889
  417MOL0     H56292   4.329   6.575   7.209  2.6275  1.4691 -1.1608
  417MOL0     H56293   4.489   6.493   7.497  0.6728 -1.7906 -1.0627
  417MOL0     H56294   4.606   6.541   7.368  0.2109  2.5291 -0.9576
  417MOL0     H56295   4.455   6.629   7.392  0.2378 -1.1080 -1.6346
  418MOL0     O56296   5.397   0.219   1.934 -0.0033 -0.8730 -0.5848
  418MOL0     C56297   5.464   0.318   1.904 -0.0532 -0.0608  1.2667
  418MOL0     O56298   5.411   0.441   1.855  0.0969  1.0635 -0.6350
  418MOL0     C56299   5.272   0.445   1.838  0.6774  0.8812  0.9562
  418MOL0     C56300   5.203   0.431   1.711  0.2001 -0.3900  0.3062
  418MOL0     C56301   5.065   0.419   1.719 -0.2438  0.6037 -0.0629
  418MOL0     C56302   4.989   0.421   1.834  0.3413 -0.4107 -0.1132
  418MOL0     O56303   4.851   0.404   1.804 -0.4850 -0.1034 -1.0028
  418MOL0     C56304   4.754   0.410   1.917  0.9529 -0.3010 -0.2077
  418MOL0     C56305   4.632   0.339   1.869  0.2525 -0.3349 -0.1603
  418MOL0     C56306   4.583   0.402   1.737  0.4522  0.3325  0.6296
  418MOL0     C56307   4.437   0.453   1.742 -0.0349  0.0568 -1.3392
  418MOL0     C56308   4.382   0.481   1.611 -0.1342  0.2986 -0.3101
  418MOL0     C56309   4.247   0.548   1.622  0.0387 -0.1146  0.3432
  418MOL0     C56310   4.186   0.564   1.495  1.0092  0.2074 -0.4670
  418MOL0     C56311   4.070   0.664   1.487  0.4646  1.4088 -0.1687
  418MOL0     N56312   4.113   0.805   1.490 -0.6525  0.0424 -0.7102
  418MOL0     C56313   4.152   0.874   1.373 -0.1218  1.0026 -0.2474
  418MOL0     C56314   4.187   0.999   1.414  0.1018  0.0969  0.2761
  418MOL0     C56315   4.222   1.118   1.326  0.0377  0.1611 -0.2810
  418MOL0     C56316   4.107   1.228   1.355  0.0321  0.8940 -0.3216
  418MOL0     C56317   4.140   1.360   1.280 -0.1383  0.3985 -0.7890
  418MOL0     C56318   4.029   1.457   1.275 -0.2191  0.2890 -0.6105
  418MOL0     O56319   3.915   1.403   1.203 -0.1938  0.1505 -0.5099
  418MOL0     C56320   3.842   1.494   1.134 -0.3104  0.4339 -1.0387
  418MOL0     C56321   3.770   1.596   1.187 -0.6137 -0.1841 -0.2888
  418MOL0     C56322   3.695   1.683   1.107  0.4611  0.1310 -0.1554
  418MOL0     C56323   3.695   1.670   0.965 -0.5214  0.4085 -0.2596
  418MOL0     C56324   3.606   1.747   0.871  0.1623  0.1104  0.2748
  418MOL0     O56325   3.617   1.701   0.739 -0.1665  0.5073  0.2641
  418MOL0     C56326   3.596   1.792   0.638 -0.4848 -0.6600  0.1255
  418MOL0     C56327   3.524   1.750   0.523  0.0131 -0.7639  0.7684
  418MOL0     C56328   3.495   1.834   0.417  0.1514 -0.3558  0.7574
  418MOL0     C56329   3.548   1.961   0.419  0.8441  0.0368 -0.1421
  418MOL0     O56330   3.520   2.025   0.300  1.1632  0.3208  0.5482
  418MOL0     C56331   3.496   2.163   0.315 -0.0955 -0.0695  0.1103
  418MOL0     C56332   3.427   2.230   0.192 -0.7252  0.2981 -0.3340
  418MOL0     C56333   3.534   2.241   0.088 -0.3275  1.6351 -0.0285
  418MOL0     C56334   3.496   2.356  -0.004 -0.4967 -0.8456  0.1632
  418MOL0     C56335   3.570   2.353  -0.143  0.6277 -0.0340 -0.5812
  418MOL0     C56336   3.721   2.369  -0.141  0.7402 -0.3667  1.5868
  418MOL0     C56337   3.785   2.398  -0.276  1.2638 -0.1638  0.0539
  418MOL0     C56338   3.933   2.410  -0.283  1.6992  0.5771  0.3459
  418MOL0    Cl56339   4.005   2.533  -0.172 -0.2103  0.3614 -0.1074
  418MOL0     C56340   3.620   2.004   0.532 -0.6616 -0.1034  0.0344
  418MOL0     C56341   3.645   1.924   0.647  0.1607 -0.7302 -0.3183
  418MOL0     O56342   3.543   1.844   0.905 -0.0661 -0.1569 -0.3803
  418MOL0     C56343   3.765   1.561   0.911  0.7781  0.0308  0.4763
  418MOL0     C56344   3.828   1.473   1.005 -0.5169  0.6420 -0.0323
  418MOL0     N56345   4.181   1.004   1.553  0.2747  0.4349 -0.8829
  418MOL0     N56346   4.143   0.883   1.598  0.4346  0.2514 -0.3785
  418MOL0     C56347   5.055   0.429   1.954  0.1547  0.2550 -0.9251
  418MOL0     C56348   5.194   0.442   1.954  0.5490  0.3402  0.5153
  418MOL0     C56349   5.610   0.317   1.931 -0.8219  0.8798 -0.3044
  418MOL0     C56350   5.653   0.262   2.057  0.3524 -0.2819  0.0754
  418MOL0     C56351   5.783   0.247   2.096  0.3246 -0.4753 -0.7258
  418MOL0     C56352   5.881   0.283   1.999 -1.9920  0.8977  0.0521
  418MOL0     O56353   6.019   0.248   2.012  0.4168  0.7869  0.2861
  418MOL0     C56354   6.032   0.122   1.952 -0.1290 -0.0706 -0.1381
  418MOL0     C56355   6.158   0.056   2.018  0.7272 -0.1576 -0.3272
  418MOL0     C56356   6.282   0.148   2.016 -0.4406 -0.5149  1.0491
  418MOL0     C56357   6.324   0.186   1.874  0.6369  0.5911 -0.6284
  418MOL0     C56358   6.453   0.256   1.873 -0.4423  1.0462  0.5421
  418MOL0     C56359   6.563   0.315   1.862  0.2118 -0.4470 -0.5693
  418MOL0     C56360   5.847   0.352   1.880  0.0858  0.2044  0.2743
  418MOL0     C56361   5.710   0.354   1.843  0.3102 -0.6687 -0.5300
  418MOL0     C56362   5.679   0.395   1.709 -0.1333  0.4995  1.6277
  418MOL0     H56363   5.259   0.426   1.618  0.6796  0.2668  0.5494
  418MOL0     H56364   5.021   0.411   1.620 -1.3359 -0.4692  0.4683
  418MOL0     H56365   4.793   0.373   2.012  0.5831  2.3566  1.0682
  418MOL0     H56366   4.732   0.517   1.925  1.6310 -0.0666 -1.2655
  418MOL0     H56367   4.551   0.351   1.941 -0.6414  1.1026 -1.3321
  418MOL0     H56368   4.648   0.231   1.857  1.1378 -0.4457  1.6636
  418MOL0     H56369   4.584   0.327   1.658 -3.8636 -1.5489  2.0735
  418MOL0     H56370   4.641   0.490   1.708  1.3489  0.3009  2.1664
  418MOL0     H56371   4.374   0.386   1.802 -2.1009  3.4950  0.6783
  418MOL0     H56372   4.442   0.549   1.794 -1.2519 -1.3689  1.7053
  418MOL0     H56373   4.444   0.554   1.557  1.7435 -0.5253  0.6466
  418MOL0     H56374   4.380   0.391   1.548  3.4829  1.3925 -2.2652
  418MOL0     H56375   4.177   0.493   1.686 -0.4780  0.9539  0.7241
  418MOL0     H56376   4.261   0.651   1.657  0.7857  0.8198 -2.4524
  418MOL0     H56377   4.143   0.463   1.488  3.3261 -0.8524 -0.5805
  418MOL0     H56378   4.256   0.587   1.415  1.7843  0.1126  0.1693
  418MOL0     H56379   4.018   0.638   1.394 -0.2818  0.8642  0.3873
  418MOL0     H56380   4.006   0.652   1.575  0.8203 -0.4855 -0.1326
  418MOL0     H56381   4.155   0.844   1.269  1.8823 -4.5691  1.0692
  418MOL0     H56382   4.316   1.159   1.363  1.5774 -2.1782 -1.3942
  418MOL0     H56383   4.229   1.098   1.219 -5.1339  2.1588 -1.2947
  418MOL0     H56384   4.009   1.195   1.320  0.0405 -2.8466  2.5566
  418MOL0     H56385   4.077   1.250   1.458 -1.8935 -2.0039 -0.1368
  418MOL0     H56386   4.176   1.337   1.180  1.7980 -3.8848  0.6740
  418MOL0     H56387   4.220   1.401   1.342  1.1037 -3.5439  0.4779
  418MOL0     H56388   4.063   1.546   1.221  0.5386  2.1905  2.7825
  418MOL0     H56389   4.007   1.504   1.371  0.6932  3.4477 -1.8199
  418MOL0     H56390   3.787   1.627   1.289  2.9693  0.8160 -1.0742
  418MOL0     H56391   3.637   1.761   1.154 -1.4498 -2.1624  1.5216
  418MOL0     H56392   3.475   1.653   0.515  0.0995 -0.7439 -0.0992
  418MOL0     H56393   3.432   1.809   0.332  0.3792  2.0395 -0.2160
  418MOL0     H56394   3.435   2.185   0.403 -1.9159  1.5621 -1.4742
  418MOL0     H56395   3.593   2.211   0.331 -1.1778  2.7147 -1.1017
  418MOL0     H56396   3.351   2.157   0.163  0.5720 -0.8709 -0.9205
  418MOL0     H56397   3.406   2.332   0.225  1.5552  0.8081 -0.2984
  418MOL0     H56398   3.632   2.259   0.133  0.5287 -1.0111 -0.6633
  418MOL0     H56399   3.542   2.146   0.033  3.2492  1.8391 -0.1458
  418MOL0     H56400   3.512   2.457   0.037 -5.2015 -0.3386  1.3736
  418MOL0     H56401   3.389   2.349  -0.029 -0.8044  2.5063  0.0883
  418MOL0     H56402   3.525   2.434  -0.201 -1.1126  0.4678  1.3380
  418MOL0     H56403   3.550   2.253  -0.183  2.5996 -0.1846 -1.3061
  418MOL0     H56404   3.746   2.456  -0.081  1.1876 -0.2944  1.3004
  418MOL0     H56405   3.769   2.274  -0.114 -1.1889 -2.6999 -2.2783
  418MOL0     H56406   3.758   2.498  -0.310  1.9622  0.6335  1.7394
  418MOL0     H56407   3.740   2.329  -0.348 -1.3255  0.8123  0.6010
  418MOL0     H56408   3.972   2.310  -0.259 -0.1335  0.1684  1.7549
  418MOL0     H56409   3.970   2.434  -0.383 -3.4675 -0.6663 -2.2189
  418MOL0     H56410   3.668   2.102   0.535 -0.4407 -0.1177 -2.0057
  418MOL0     H56411   3.703   1.949   0.735  1.3546 -0.2593 -1.2119
  418MOL0     H56412   3.760   1.522   0.810  4.5414 -2.0785  0.9267
  418MOL0     H56413   3.863   1.384   0.952 -0.2200  2.2683 -2.7834
  418MOL0     H56414   5.012   0.425   2.054  1.3284 -2.6704 -0.4359
  418MOL0     H56415   5.228   0.440   2.058  1.0795 -1.9888  0.3482
  418MOL0     H56416   5.574   0.223   2.121  0.0495 -0.8710 -0.6416
  418MOL0     H56417   5.825   0.218   2.192  1.0523 -0.6845 -1.0946
  418MOL0     H56418   6.059   0.131   1.846  4.9936  2.2985  1.1003
  418MOL0     H56419   5.949   0.051   1.949  1.8272 -2.5764  0.9650
  418MOL0     H56420   6.176  -0.037   1.961  2.6322 -0.2085  0.2905
  418MOL0     H56421   6.138   0.009   2.114 -1.4075 -0.6744 -0.9565
  418MOL0     H56422   6.362   0.112   2.083  0.4830  3.5647  2.4017
  418MOL0     H56423   6.262   0.245   2.062  5.5239  1.1850  0.8744
  418MOL0     H56424   6.341   0.102   1.805  0.5742 -1.0341  1.2431
  418MOL0     H56425   6.249   0.259   1.843  0.0806  0.7417  0.9926
  418MOL0     H56426   6.663   0.354   1.864 -0.7246  2.1215 -0.5281
  418MOL0     H56427   5.929   0.365   1.810  1.5116  1.7089  2.1079
  418MOL0     H56428   5.714   0.313   1.646 -0.2708  0.8781  1.0490
  418MOL0     H56429   5.570   0.402   1.698 -0.4793 -2.1015  2.7553
  418MOL0     H56430   5.730   0.489   1.684  0.0499  0.0923  0.4030
  419MOL0     O56431  10.764   2.159  10.522 -0.5111 -0.0856  0.1334
  419MOL0     C56432  10.708   2.249  10.453  1.0084 -0.4808  0.7603
  419MOL0     O56433  10.732   2.383  10.461  0.5766 -0.3660 -0.9515
  419MOL0     C56434  10.836   2.414  10.543  0.2631  0.0953 -0.6439
  419MOL0     C56435  10.805   2.463  10.670 -0.4074 -0.0142 -0.3326
  419MOL0     C56436  10.908   2.505  10.761 -0.5298  0.4089  0.3199
  419MOL0     C56437  11.046   2.492  10.721  0.0517 -0.5191 -0.8999
  419MOL0     O56438  11.138   2.531  10.819 -1.2116  0.2142 -0.1615
  419MOL0     C56439  11.204   2.408  10.865 -0.6022  0.2793  0.3428
  419MOL0     C56440  11.314   2.453  10.973 -0.4914 -0.0197 -0.0285
  419MOL0     C56441  11.391   2.342  11.035 -0.5187  1.3010  0.3754
  419MOL0     C56442  11.464   2.389  11.152 -1.0331 -0.9141 -0.1632
  419MOL0     C56443  11.501   2.272  11.247 -0.4761  0.4874  1.3077
  419MOL0     C56444  11.584   2.321  11.369  0.1062  0.5188 -0.5220
  419MOL0     C56445  11.605   2.213  11.475  0.5388 -0.2932  1.0344
  419MOL0     C56446  11.608   2.260  11.614 -0.2406 -0.3205  0.2142
  419MOL0     N56447  11.727   2.328  11.670 -0.4930 -0.2272  0.1891
  419MOL0     C56448  11.858   2.284  11.661  0.4812 -0.2219 -0.1473
  419MOL0     C56449  11.927   2.381  11.730  0.5312  0.7451  0.0803
  419MOL0     C56450  12.079   2.400  11.727 -0.3899  0.2219 -0.3477
  419MOL0     C56451  12.161   2.299  11.814 -0.3726 -0.0460 -0.7670
  419MOL0     C56452  12.116   2.308  11.961 -0.3882  0.3365  0.1935
  419MOL0     C56453  12.177   2.200  12.049  0.0902  0.7437  0.2921
  419MOL0     O56454  12.137   2.070  11.995 -0.1807 -0.2016 -0.4521
  419MOL0     C56455  12.157   1.955  12.078  0.4117 -0.4543  0.7634
  419MOL0     C56456  12.123   1.831  12.020  0.1209 -0.3080 -0.5791
  419MOL0     C56457  12.164   1.714  12.086  0.6361 -0.0006  0.6591
  419MOL0     C56458  12.240   1.704  12.200  0.0930 -0.8238 -0.6444
  419MOL0     C56459  12.289   1.577  12.268 -0.7699 -0.5805  0.2229
  419MOL0     O56460  12.379   1.594  12.364  0.1319 -0.0693 -0.3207
  419MOL0     C56461  12.410   1.485  12.431  0.1728  0.6240  0.0833
  419MOL0     C56462  12.470   1.378  12.369 -0.7082 -1.0812  0.1912
  419MOL0     C56463  12.492   1.257  12.446 -0.4140 -0.0313  0.7999
  419MOL0     C56464  12.472   1.267  12.588 -0.1613 -0.5313  0.0599
  419MOL0     O56465  12.512   1.157  12.663  0.9805 -0.5800  0.5951
  419MOL0     C56466  12.484   1.153  12.804 -0.2815  0.1496 -0.9474
  419MOL0     C56467  12.562   1.042  12.866  0.3144 -0.2698 -0.2317
  419MOL0     C56468  12.554   1.021  13.016  0.4892  0.9691 -0.4967
  419MOL0     C56469  12.412   0.985  13.058  0.5283 -0.2005  0.9892
  419MOL0     C56470  12.401   0.983  13.211 -0.4942  0.0888 -0.5711
  419MOL0     C56471  12.250   0.998  13.250 -0.5406 -0.0969  0.4347
  419MOL0     C56472  12.233   1.007  13.400 -0.9884 -0.7687 -0.0354
  419MOL0     C56473  12.250   0.883  13.484 -0.0918 -0.2921  0.8196
  419MOL0    Cl56474  12.181   0.744  13.409  0.1501  0.2192  0.1379
  419MOL0     C56475  12.422   1.383  12.646 -0.3768  0.3679 -0.5794
  419MOL0     C56476  12.400   1.494  12.569 -0.5419  0.0813 -0.2111
  419MOL0     O56477  12.233   1.474  12.235 -0.0525  0.5677  0.4005
  419MOL0     C56478  12.271   1.834  12.255 -0.6014  0.4933 -0.0304
  419MOL0     C56479  12.222   1.956  12.198 -0.5263  1.0068 -0.8554
  419MOL0     N56480  11.841   2.479  11.768  0.3484  0.1945 -0.2650
  419MOL0     N56481  11.721   2.444  11.742 -0.5575  0.2592  1.0712
  419MOL0     C56482  11.079   2.439  10.601  0.4537  1.3315 -0.0744
  419MOL0     C56483  10.972   2.402  10.516 -0.0439  0.0835  0.8297
  419MOL0     C56484  10.603   2.222  10.346 -0.0138  0.1101 -0.2195
  419MOL0     C56485  10.561   2.328  10.267 -0.4226 -0.1334 -0.6516
  419MOL0     C56486  10.485   2.300  10.152 -1.0840  0.1201  0.0838
  419MOL0     C56487  10.454   2.169  10.101  0.3297  0.1081 -0.7486
  419MOL0     O56488  10.392   2.142   9.980 -0.3515  0.3081 -0.1503
  419MOL0     C56489  10.380   2.267   9.899  0.2878  0.6744 -0.5151
  419MOL0     C56490  10.309   2.253   9.765  0.4018 -0.3957 -0.0457
  419MOL0     C56491  10.311   2.385   9.679  0.5198 -0.0702  0.5805
  419MOL0     C56492  10.235   2.377   9.545  0.9971  0.5141 -0.1404
  419MOL0     C56493  10.256   2.496   9.464 -0.9786  0.3420  0.3518
  419MOL0     C56494  10.276   2.592   9.395  0.6790 -0.4157  0.5561
  419MOL0     C56495  10.501   2.065  10.183  0.3636 -0.3113  0.2129
  419MOL0     C56496  10.561   2.093  10.310 -0.6787  0.5386 -0.6501
  419MOL0     C56497  10.596   1.970  10.389 -0.4865 -0.7081 -0.6357
  419MOL0     H56498  10.704   2.440  10.703 -0.6482  1.4671  0.0220
  419MOL0     H56499  10.900   2.523  10.867  3.5383 -0.7378  0.9805
  419MOL0     H56500  11.136   2.345  10.922 -2.2789  1.7945  0.1155
  419MOL0     H56501  11.249   2.350  10.784 -1.5575 -2.0651  1.4205
  419MOL0     H56502  11.263   2.508  11.052  2.5774  2.9269  0.1408
  419MOL0     H56503  11.386   2.521  10.928 -0.1554 -0.2267  0.1835
  419MOL0     H56504  11.450   2.288  10.961 -0.1515  2.5601 -0.2824
  419MOL0     H56505  11.319   2.269  11.073 -0.0044  2.0803  3.0459
  419MOL0     H56506  11.564   2.427  11.129 -1.4875  0.7488  0.4225
  419MOL0     H56507  11.427   2.479  11.203  1.0131  0.1371 -0.4338
  419MOL0     H56508  11.413   2.220  11.288 -0.2989  0.5935  1.8375
  419MOL0     H56509  11.552   2.205  11.178 -0.1481  4.5134 -2.8189
  419MOL0     H56510  11.675   2.364  11.326 -0.2569  1.0317 -0.7800
  419MOL0     H56511  11.530   2.405  11.414  0.2235  1.4702 -2.1113
  419MOL0     H56512  11.703   2.170  11.451  0.1565  0.0899 -1.4066
  419MOL0     H56513  11.520   2.145  11.462  0.3186  0.0689  0.5923
  419MOL0     H56514  11.526   2.330  11.635 -0.3436 -0.2438 -0.4100
  419MOL0     H56515  11.598   2.175  11.681 -1.1989 -0.7248 -0.4334
  419MOL0     H56516  11.894   2.195  11.610  0.7120 -1.0807  1.4792
  419MOL0     H56517  12.111   2.372  11.627  0.5790 -2.4594  0.6131
  419MOL0     H56518  12.096   2.503  11.757 -0.0880 -0.4400  1.9467
  419MOL0     H56519  12.152   2.196  11.780  1.1972 -0.3431 -0.3545
  419MOL0     H56520  12.267   2.328  11.808  1.3956 -4.3505  3.2204
  419MOL0     H56521  12.007   2.306  11.974 -0.5319  0.9270 -0.7986
  419MOL0     H56522  12.141   2.410  11.992 -1.3881  0.0552  2.0266
  419MOL0     H56523  12.142   2.230  12.148 -1.0490  1.1225 -0.2104
  419MOL0     H56524  12.284   2.223  12.038  0.3612 -1.1168 -1.9602
  419MOL0     H56525  12.065   1.823  11.928 -3.0926  1.2555  1.1350
  419MOL0     H56526  12.135   1.616  12.050  2.9821 -0.4465 -0.1789
  419MOL0     H56527  12.490   1.389  12.263 -1.6291  1.5277  0.2238
  419MOL0     H56528  12.520   1.161  12.403  0.5493  1.1191 -1.3089
  419MOL0     H56529  12.517   1.241  12.860 -0.4722 -0.9963  1.0182
  419MOL0     H56530  12.378   1.150  12.829  0.1557 -0.8236  0.9285
  419MOL0     H56531  12.522   0.947  12.829 -1.9573 -0.4684  2.3948
  419MOL0     H56532  12.666   1.053  12.833 -0.6640  6.3183 -2.6604
  419MOL0     H56533  12.618   0.937  13.042 -0.3776 -0.7981 -3.5885
  419MOL0     H56534  12.578   1.109  13.077 -0.0709  0.6141  0.2597
  419MOL0     H56535  12.379   0.894  13.008 -1.6653 -0.6217  2.9984
  419MOL0     H56536  12.352   1.069  13.021  1.8058  0.7989  1.1182
  419MOL0     H56537  12.465   1.058  13.259 -0.5045 -0.5550  0.4666
  419MOL0     H56538  12.437   0.886  13.247 -0.6670 -0.2079 -1.1656
  419MOL0     H56539  12.226   1.101  13.222  2.0706  0.0099 -1.9251
  419MOL0     H56540  12.180   0.932  13.198  0.0972  1.0695 -2.0716
  419MOL0     H56541  12.131   1.044  13.417 -0.0256  0.8076  3.1208
  419MOL0     H56542  12.309   1.079  13.433 -1.7804  0.1216 -0.1269
  419MOL0     H56543  12.356   0.859  13.483 -0.2020 -1.4913 -3.6822
  419MOL0     H56544  12.215   0.891  13.587  0.9886 -0.6488  1.2272
  419MOL0     H56545  12.416   1.388  12.754  1.0234  2.1883 -0.5313
  419MOL0     H56546  12.367   1.587  12.615  2.3669  1.3108 -0.3716
  419MOL0     H56547  12.331   1.837  12.346  5.1063 -1.0136 -3.2603
  419MOL0     H56548  12.247   2.038  12.264 -0.2438 -2.3416  3.6659
  419MOL0     H56549  11.181   2.456  10.568  1.2971  1.4777  2.4350
  419MOL0     H56550  10.999   2.364  10.417 -2.9843 -1.3636  0.4795
  419MOL0     H56551  10.583   2.431  10.292 -0.5066 -0.4081  0.5803
  419MOL0     H56552  10.457   2.387  10.093  1.6242 -0.8663 -2.9744
  419MOL0     H56553  10.481   2.296   9.869  0.2732  0.5091 -0.7257
  419MOL0     H56554  10.329   2.341   9.961  0.3458  0.9643 -0.8108
  419MOL0     H56555  10.202   2.230   9.778  0.4372  0.0991  1.3310
  419MOL0     H56556  10.365   2.178   9.708  2.3902  1.4817 -0.7037
  419MOL0     H56557  10.415   2.413   9.656 -0.1439  2.1884  0.0487
  419MOL0     H56558  10.262   2.470   9.727 -2.2461 -0.2349 -1.7260
  419MOL0     H56559  10.261   2.285   9.492 -3.0700 -0.4681 -0.7845
  419MOL0     H56560  10.127   2.371   9.566  0.4410  1.5970 -2.3559
  419MOL0     H56561  10.310   2.680   9.344  1.1769 -0.5834  0.5920
  419MOL0     H56562  10.497   1.961  10.153 -0.6781  0.0892 -1.0960
  419MOL0     H56563  10.705   1.958  10.399 -0.3321  1.0223 -0.0011
  419MOL0     H56564  10.554   1.972  10.490  0.1098 -1.7289 -0.3490
  419MOL0     H56565  10.572   1.875  10.340  1.7335 -0.5727 -2.1342
  420MOL0     O56566   9.938   7.117   4.882  0.0746 -0.2780 -0.1892
  420MOL0     C56567  10.013   7.065   4.967 -0.4023 -0.4370 -0.0611
  420MOL0     O56568  10.127   7.114   5.011  0.1948 -0.2446  0.2271
  420MOL0     C56569  10.177   7.236   4.983 -0.1223  0.7073  0.6455
  420MOL0     C56570  10.114   7.351   4.931 -0.1179 -0.7625 -0.0742
  420MOL0     C56571  10.180   7.472   4.915 -1.2632 -0.0414  0.6897
  420MOL0     C56572  10.321   7.485   4.929  0.4551  0.1930  0.0450
  420MOL0     O56573  10.378   7.609   4.907  0.9140  0.1221  0.0345
  420MOL0     C56574  10.501   7.613   4.831  0.8690  0.3111 -0.4985
  420MOL0     C56575  10.580   7.734   4.850 -0.1842 -0.1360 -0.4207
  420MOL0     C56576  10.696   7.760   4.757  0.0234  0.0843 -0.1810
  420MOL0     C56577  10.764   7.891   4.792 -0.7963  0.7701  0.4883
  420MOL0     C56578  10.895   7.903   4.706  0.8116 -0.2152 -0.6727
  420MOL0     C56579  10.961   8.044   4.729 -0.7099 -0.5958  0.0128
  420MOL0     C56580  11.111   8.032   4.703 -0.4030 -0.4032  0.0837
  420MOL0     C56581  11.156   8.018   4.556  0.4256  0.0976  1.0264
  420MOL0     N56582  11.290   8.068   4.525 -0.6962 -0.4695 -0.8662
  420MOL0     C56583  11.330   8.202   4.548 -0.1762 -1.3007 -0.4016
  420MOL0     C56584  11.468   8.190   4.549 -0.7313  0.2201 -0.9650
  420MOL0     C56585  11.558   8.316   4.567 -0.4523  0.4604  0.0038
  420MOL0     C56586  11.603   8.343   4.709  0.5010 -0.4332  0.5523
  420MOL0     C56587  11.716   8.445   4.740 -0.3253  0.7299  0.1241
  420MOL0     C56588  11.738   8.461   4.893  0.9582  0.6199  1.0932
  420MOL0     O56589  11.818   8.569   4.930  0.4160 -0.7200  0.1569
  420MOL0     C56590  11.749   8.683   4.973 -0.3341 -0.5469 -0.4138
  420MOL0     C56591  11.794   8.748   5.087  0.5628  1.0857  0.1229
  420MOL0     C56592  11.725   8.855   5.144 -0.2559  0.0853 -0.2093
  420MOL0     C56593  11.616   8.903   5.077  0.1294 -0.0915  0.0930
  420MOL0     C56594  11.533   9.008   5.131 -0.0388 -0.3598 -1.3002
  420MOL0     O56595  11.567   9.049   5.258 -0.0938 -0.7816  0.6456
  420MOL0     C56596  11.466   9.129   5.310  0.9683 -0.8757 -0.6160
  420MOL0     C56597  11.480   9.271   5.319 -0.3789  0.2133  0.6586
  420MOL0     C56598  11.385   9.350   5.385 -0.5755  0.4090  0.3584
  420MOL0     C56599  11.263   9.279   5.432  0.3089 -0.0844  0.7407
  420MOL0     O56600  11.159   9.363   5.484 -0.5149  1.0625  0.5895
  420MOL0     C56601  11.059   9.300   5.565  0.3662 -0.4733  0.6193
  420MOL0     C56602  10.992   9.408   5.659  0.6026  0.3492  0.0217
  420MOL0     C56603  11.072   9.438   5.782 -0.9417 -1.5069 -0.4971
  420MOL0     C56604  11.211   9.507   5.754 -1.1113  1.0085 -0.5485
  420MOL0     C56605  11.285   9.535   5.891 -0.3465  0.0197 -0.7636
  420MOL0     C56606  11.426   9.592   5.879 -0.3940  1.4238  0.1402
  420MOL0     C56607  11.406   9.743   5.863  0.4222 -0.4685 -0.1127
  420MOL0     C56608  11.529   9.814   5.821  0.6066 -0.2685 -0.0064
  420MOL0    Cl56609  11.574   9.761   5.660  0.0512  0.2946 -0.1087
  420MOL0     C56610  11.263   9.135   5.427  0.4374 -1.3712  0.0198
  420MOL0     C56611  11.367   9.068   5.380 -0.5330 -0.5452 -0.2347
  420MOL0     O56612  11.451   9.061   5.058 -0.2041  0.7251  0.1423
  420MOL0     C56613  11.570   8.834   4.966 -0.0861  0.0578  0.0533
  420MOL0     C56614  11.634   8.730   4.906 -0.6773  0.4592  0.1013
  420MOL0     N56615  11.507   8.062   4.530 -0.2866  0.4027 -0.2591
  420MOL0     N56616  11.406   7.992   4.509 -0.3919  0.0076  0.1396
  420MOL0     C56617  10.377   7.369   4.968 -0.3323 -0.0612  0.0505
  420MOL0     C56618  10.317   7.245   4.988  0.8316  0.1124 -1.4180
  420MOL0     C56619   9.989   6.931   5.036  0.7853 -0.1507  0.4573
  420MOL0     C56620  10.070   6.893   5.142  0.0071  1.1891  0.5100
  420MOL0     C56621  10.067   6.762   5.189  0.5677  0.0676  0.6210
  420MOL0     C56622   9.976   6.674   5.140 -0.0399  0.4556 -0.1816
  420MOL0     O56623   9.993   6.547   5.200  0.5619  0.2737  0.1530
  420MOL0     C56624   9.895   6.442   5.170  0.3152  0.9729  0.1669
  420MOL0     C56625   9.761   6.460   5.235  0.1697 -0.0523 -0.6974
  420MOL0     C56626   9.664   6.339   5.221  0.5978 -0.0137 -0.1005
  420MOL0     C56627   9.546   6.371   5.313  0.2289 -0.5125 -0.9726
  420MOL0     C56628   9.475   6.246   5.342  0.0351 -0.5281  0.7367
  420MOL0     C56629   9.410   6.145   5.342  0.2655  0.9195 -0.4322
  420MOL0     C56630   9.886   6.711   5.042 -0.9242 -0.0170  0.2192
  420MOL0     C56631   9.896   6.843   4.982  0.8584 -0.2950 -0.3809
  420MOL0     C56632   9.811   6.870   4.856 -0.2184  0.2944  0.0119
  420MOL0     H56633  10.007   7.338   4.919  0.0447 -3.3402  0.6987
  420MOL0     H56634  10.117   7.548   4.871 -4.3813 -1.6838  2.0558
  420MOL0     H56635  10.564   7.535   4.874  0.9720  1.1356  0.8891
  420MOL0     H56636  10.475   7.589   4.727 -1.2929 -0.0228  0.0555
  420MOL0     H56637  10.614   7.735   4.954  1.8465 -1.6911 -1.0078
  420MOL0     H56638  10.506   7.815   4.842 -2.1681 -1.6502  1.3157
  420MOL0     H56639  10.653   7.769   4.657 -1.6186 -0.9455  0.3929
  420MOL0     H56640  10.762   7.673   4.758 -1.4846 -1.1191  0.9441
  420MOL0     H56641  10.691   7.972   4.776 -0.4326  1.6305  2.8785
  420MOL0     H56642  10.801   7.878   4.894 -0.6266  1.0784  0.4684
  420MOL0     H56643  10.967   7.828   4.736  1.0278 -0.1503 -1.0204
  420MOL0     H56644  10.869   7.886   4.601  0.3738 -1.1222 -0.4283
  420MOL0     H56645  10.907   8.114   4.664  1.1350  1.6471  0.7697
  420MOL0     H56646  10.968   8.076   4.833  2.8773  1.2431 -0.6356
  420MOL0     H56647  11.155   7.950   4.759 -2.5349 -2.1576 -0.6926
  420MOL0     H56648  11.149   8.126   4.745  2.8254 -1.8536  0.6943
  420MOL0     H56649  11.132   7.917   4.520 -2.8556  1.0559  0.1255
  420MOL0     H56650  11.084   8.078   4.500 -2.1579 -3.2139  0.4767
  420MOL0     H56651  11.281   8.299   4.549  2.1810 -0.0167  1.1302
  420MOL0     H56652  11.644   8.300   4.501 -1.4243  0.1102 -1.2295
  420MOL0     H56653  11.512   8.404   4.520  3.0286  1.2882 -2.2316
  420MOL0     H56654  11.517   8.389   4.758  0.7795 -1.0156  1.6189
  420MOL0     H56655  11.623   8.249   4.761 -0.5646 -1.2510 -0.4634
  420MOL0     H56656  11.692   8.540   4.691 -0.1656  0.6734 -0.0663
  420MOL0     H56657  11.813   8.418   4.697 -0.2336 -1.3985  1.5044
  420MOL0     H56658  11.792   8.373   4.929  1.6770 -0.1454 -1.5575
  420MOL0     H56659  11.649   8.457   4.955  0.6522  1.1190  0.6966
  420MOL0     H56660  11.882   8.716   5.142 -1.2410 -0.4182  2.3246
  420MOL0     H56661  11.757   8.888   5.242  1.4622 -1.6216 -0.1223
  420MOL0     H56662  11.571   9.314   5.277 -3.8477  1.7919 -6.7900
  420MOL0     H56663  11.388   9.459   5.385  0.4651  0.3929  0.0673
  420MOL0     H56664  10.991   9.253   5.494  0.9848  0.1648 -0.4219
  420MOL0     H56665  11.093   9.214   5.623  0.6851 -1.5900 -1.1339
  420MOL0     H56666  10.965   9.500   5.606 -1.0084 -0.3155 -0.3683
  420MOL0     H56667  10.894   9.370   5.688  1.2315  0.2548  2.1773
  420MOL0     H56668  11.007   9.507   5.836  0.5611 -0.1266 -0.3811
  420MOL0     H56669  11.081   9.347   5.842 -2.1496 -0.4537  1.3445
  420MOL0     H56670  11.196   9.607   5.711 -2.2602  0.0697 -2.4570
  420MOL0     H56671  11.291   9.455   5.700 -0.3115  3.5179 -1.9350
  420MOL0     H56672  11.296   9.439   5.942  1.8442  0.5627 -0.0980
  420MOL0     H56673  11.234   9.596   5.966 -1.5159 -1.3943 -0.3739
  420MOL0     H56674  11.486   9.580   5.969 -1.4947  2.9938  1.1412
  420MOL0     H56675  11.468   9.541   5.792 -2.4313  1.9646 -1.2478
  420MOL0     H56676  11.375   9.792   5.956  0.2586 -1.3608  0.3157
  420MOL0     H56677  11.328   9.758   5.788 -1.6133 -0.8894  1.7987
  420MOL0     H56678  11.514   9.923   5.817  1.4381 -0.1797 -1.9586
  420MOL0     H56679  11.615   9.781   5.880  1.0478 -2.3922 -1.7308
  420MOL0     H56680  11.173   9.089   5.466 -1.8674  1.8495 -1.1531
  420MOL0     H56681  11.360   8.961   5.388 -1.0368 -0.8809 -3.5975
  420MOL0     H56682  11.477   8.863   4.919  0.4900 -0.5324 -1.5115
  420MOL0     H56683  11.602   8.670   4.822  4.2084 -1.9125 -0.4259
  420MOL0     H56684  10.483   7.371   4.991 -0.4678 -1.4857  0.9437
  420MOL0     H56685  10.389   7.178   5.033  0.5575 -0.1823 -1.4141
  420MOL0     H56686  10.147   6.955   5.187  2.5929 -0.3181 -1.5579
  420MOL0     H56687  10.126   6.729   5.274  0.2486 -1.7745  0.1734
  420MOL0     H56688   9.933   6.346   5.208 -0.5402  1.1525  1.5542
  420MOL0     H56689   9.885   6.421   5.064  0.4102  0.4210  0.2644
  420MOL0     H56690   9.713   6.545   5.185 -1.0276  0.7121  1.6103
  420MOL0     H56691   9.771   6.479   5.342  0.7579 -0.0833 -0.7466
  420MOL0     H56692   9.702   6.238   5.234  2.3419 -0.0539 -4.1305
  420MOL0     H56693   9.614   6.335   5.124 -1.1900 -3.9720  0.7771
  420MOL0     H56694   9.568   6.420   5.408 -2.7685  0.2647 -0.5597
  420MOL0     H56695   9.474   6.436   5.262 -0.2158  0.0832  0.3601
  420MOL0     H56696   9.360   6.050   5.343  0.1948  0.9511  1.0881
  420MOL0     H56697   9.823   6.629   5.009  1.9259 -0.7401 -4.1873
  420MOL0     H56698   9.721   6.809   4.848 -1.9052  2.6625  0.1248
  420MOL0     H56699   9.763   6.967   4.866  0.0772  0.6603 -1.7084
  420MOL0     H56700   9.869   6.882   4.764 -0.3216 -1.7015 -0.3558
  421MOL0     O56701   3.523   1.239  11.314  0.9676  0.4396 -0.2737
  421MOL0     C56702   3.634   1.203  11.297 -0.9563 -1.5761  1.2295
  421MOL0     O56703   3.696   1.107  11.371 -0.6648  0.1967  0.5145
  421MOL0     C56704   3.621   1.026  11.443  0.0604 -0.7733 -0.0383
  421MOL0     C56705   3.561   0.918  11.380 -0.3043 -0.3778 -0.6742
  421MOL0     C56706   3.484   0.821  11.445 -0.0544 -0.0180  0.3252
  421MOL0     C56707   3.491   0.814  11.583  0.3620 -0.4181 -0.5798
  421MOL0     O56708   3.428   0.719  11.667 -0.4990  0.6192  0.1844
  421MOL0     C56709   3.333   0.631  11.598  0.7233  0.2413 -0.6201
  421MOL0     C56710   3.233   0.574  11.702 -0.4904 -0.7485 -0.1298
  421MOL0     C56711   3.283   0.438  11.753 -0.3223  0.6125 -0.2973
  421MOL0     C56712   3.266   0.329  11.649  0.9035  0.8930  0.1059
  421MOL0     C56713   3.316   0.188  11.689 -0.6841 -0.3146  0.8152
  421MOL0     C56714   3.450   0.174  11.753 -1.1053  0.6224 -0.0222
  421MOL0     C56715   3.564   0.214  11.650  0.3609  0.0117 -0.7063
  421MOL0     C56716   3.711   0.159  11.688  0.6387  0.0891 -0.0431
  421MOL0     N56717   3.738   0.174  11.830 -0.2285 -0.2238 -0.8933
  421MOL0     C56718   3.733   0.072  11.921  0.0960  0.2254 -0.3710
  421MOL0     C56719   3.743   0.130  12.044 -0.3030 -0.9595  0.5487
  421MOL0     C56720   3.764   0.064  12.177  0.0630 -0.3498 -0.0419
  421MOL0     C56721   3.876  -0.042  12.192 -0.2956  0.2151  0.0133
  421MOL0     C56722   4.007   0.028  12.196  0.1870 -0.3140  1.0491
  421MOL0     C56723   4.119  -0.070  12.240 -0.3669 -0.4074  0.4544
  421MOL0     O56724   4.090  -0.102  12.376  0.6757 -0.0485  0.3598
  421MOL0     C56725   4.191  -0.152  12.456 -0.3278 -0.2853  0.2518
  421MOL0     C56726   4.300  -0.236  12.406 -0.0877 -0.3039 -0.1557
  421MOL0     C56727   4.405  -0.254  12.494 -0.3891  0.7523  0.8074
  421MOL0     C56728   4.406  -0.211  12.627 -0.5167  0.1092  0.2819
  421MOL0     C56729   4.520  -0.232  12.710  0.7228 -0.7051 -0.3059
  421MOL0     O56730   4.607  -0.334  12.679  0.2413  0.1962 -0.2813
  421MOL0     C56731   4.726  -0.348  12.746  0.1787 -0.1494  0.4525
  421MOL0     C56732   4.730  -0.339  12.886 -0.6038 -0.6924  0.5450
  421MOL0     C56733   4.856  -0.364  12.945 -0.2570  0.1603  0.3815
  421MOL0     C56734   4.961  -0.406  12.873  0.2385  0.0082  0.7374
  421MOL0     O56735   5.075  -0.443  12.947  0.4403 -0.0592  0.2610
  421MOL0     C56736   5.189  -0.378  12.890  0.0723  0.0669  0.3498
  421MOL0     C56737   5.299  -0.376  12.990 -0.0512  0.0128 -0.2780
  421MOL0     C56738   5.421  -0.304  12.934  0.1622 -0.6131 -1.1656
  421MOL0     C56739   5.512  -0.388  12.843 -0.2642 -0.6619  0.2126
  421MOL0     C56740   5.630  -0.304  12.783 -0.3362 -0.0788  1.4450
  421MOL0     C56741   5.759  -0.390  12.732  0.1258  0.7806 -0.0561
  421MOL0     C56742   5.881  -0.291  12.736  0.2765  0.7710 -0.0007
  421MOL0     C56743   5.883  -0.210  12.604  0.1773  0.0588  1.1024
  421MOL0    Cl56744   6.035  -0.119  12.606  0.3857  0.2601 -0.0320
  421MOL0     C56745   4.953  -0.423  12.733  1.0114 -0.2240 -0.7183
  421MOL0     C56746   4.839  -0.379  12.667 -0.7095  0.1399  0.1439
  421MOL0     O56747   4.529  -0.151  12.807  0.2262  0.4559  0.6673
  421MOL0     C56748   4.291  -0.148  12.674  0.6426 -0.6331  0.0272
  421MOL0     C56749   4.181  -0.122  12.587  0.7438  0.3846 -0.0137
  421MOL0     N56750   3.735   0.270  12.023 -0.1609 -0.0924 -0.1250
  421MOL0     N56751   3.730   0.298  11.897 -1.1001 -0.4159 -0.3546
  421MOL0     C56752   3.561   0.920  11.652 -0.1149 -0.7611 -0.4441
  421MOL0     C56753   3.623   1.027  11.583 -0.0730 -0.3359  0.3735
  421MOL0     C56754   3.713   1.284  11.191  1.1574 -0.3125 -0.6810
  421MOL0     C56755   3.854   1.278  11.200  0.5736 -0.5615 -0.0189
  421MOL0     C56756   3.934   1.354  11.123  0.2088  0.0870  0.8246
  421MOL0     C56757   3.883   1.449  11.032  0.0465 -0.7409  0.3923
  421MOL0     O56758   3.962   1.516  10.949 -0.2655 -0.5418  0.1015
  421MOL0     C56759   4.082   1.573  10.995  0.7706 -0.6812 -0.2568
  421MOL0     C56760   4.128   1.675  10.883  0.0073 -1.0443 -0.1664
  421MOL0     C56761   4.167   1.580  10.755  0.7409  0.6477  1.3824
  421MOL0     C56762   4.254   1.662  10.644  0.7968  1.3382  0.0594
  421MOL0     C56763   4.388   1.680  10.690  0.3128  0.5626 -0.1195
  421MOL0     C56764   4.489   1.658  10.756 -0.8413 -0.6289  0.3872
  421MOL0     C56765   3.745   1.464  11.024  0.6440  0.2895  0.3474
  421MOL0     C56766   3.656   1.382  11.097 -0.4217  0.6030 -0.9646
  421MOL0     C56767   3.512   1.408  11.083  0.9211  0.3138  0.3775
  421MOL0     H56768   3.572   0.911  11.272 -3.4355  1.2856 -1.2357
  421MOL0     H56769   3.434   0.746  11.386  0.9526  0.7558 -1.6112
  421MOL0     H56770   3.274   0.686  11.524 -0.7554 -0.4979 -0.0425
  421MOL0     H56771   3.388   0.548  11.554 -0.6948 -1.3544  0.4879
  421MOL0     H56772   3.131   0.561  11.666 -0.2806 -5.5167  0.3535
  421MOL0     H56773   3.242   0.631  11.795 -0.3473 -2.7398  1.1312
  421MOL0     H56774   3.220   0.410  11.838 -0.1522 -3.3227 -1.2771
  421MOL0     H56775   3.389   0.445  11.781  0.3755 -1.5441 -2.1034
  421MOL0     H56776   3.165   0.309  11.614  1.1449 -0.9616  0.3616
  421MOL0     H56777   3.323   0.346  11.557 -0.3702  0.1820 -0.8446
  421MOL0     H56778   3.241   0.150  11.759 -0.6574 -2.8276 -0.4017
  421MOL0     H56779   3.314   0.125  11.599 -0.8403  2.2626 -1.1010
  421MOL0     H56780   3.462   0.230  11.846  1.5205 -1.7456  1.2026
  421MOL0     H56781   3.461   0.070  11.784  1.2694  0.7237 -0.3274
  421MOL0     H56782   3.577   0.322  11.665 -3.2335  0.4020  0.4351
  421MOL0     H56783   3.529   0.196  11.548  0.1607 -3.2908 -0.1477
  421MOL0     H56784   3.723   0.053  11.664 -2.9563 -0.3274 -0.4635
  421MOL0     H56785   3.791   0.214  11.637  0.7597  1.0010  1.0804
  421MOL0     H56786   3.744  -0.035  11.905  0.6975  0.0873  0.9034
  421MOL0     H56787   3.794   0.140  12.249  4.2068  0.4670 -2.3369
  421MOL0     H56788   3.672   0.013  12.209  1.0986  0.1351  4.4304
  421MOL0     H56789   3.860  -0.082  12.293 -0.6702  0.7853  0.1881
  421MOL0     H56790   3.870  -0.123  12.120  1.3672 -0.4316  0.5549
  421MOL0     H56791   3.999   0.120  12.254 -5.0648 -0.4118  0.8707
  421MOL0     H56792   4.030   0.055  12.092 -1.4250 -0.8646  0.5219
  421MOL0     H56793   4.215  -0.019  12.223 -0.6562  0.6639  1.8069
  421MOL0     H56794   4.102  -0.156  12.175  2.8244 -1.4933  0.8412
  421MOL0     H56795   4.310  -0.281  12.308  0.7394 -0.5007  0.0073
  421MOL0     H56796   4.486  -0.321  12.469  0.4590  1.9659  0.2178
  421MOL0     H56797   4.639  -0.334  12.946  0.3847 -3.2244  2.4686
  421MOL0     H56798   4.874  -0.368  13.052 -1.4532 -4.1004  0.6065
  421MOL0     H56799   5.226  -0.442  12.809 -0.5137 -0.1610  0.2600
  421MOL0     H56800   5.173  -0.279  12.846  0.1648 -0.3017 -0.5522
  421MOL0     H56801   5.259  -0.331  13.081  0.4293  1.1350 -0.6012
  421MOL0     H56802   5.327  -0.480  13.011  2.4489  0.6301 -0.1974
  421MOL0     H56803   5.388  -0.212  12.885 -1.9506 -0.9460 -0.4971
  421MOL0     H56804   5.472  -0.284  13.028 -1.1991 -0.8017 -0.3554
  421MOL0     H56805   5.464  -0.429  12.754  0.8601 -0.4478 -0.5083
  421MOL0     H56806   5.555  -0.470  12.902  2.3947  0.8287  0.4934
  421MOL0     H56807   5.662  -0.228  12.854 -0.1821  1.0283  0.2277
  421MOL0     H56808   5.590  -0.250  12.696  1.2750 -2.3526 -0.8646
  421MOL0     H56809   5.792  -0.467  12.802 -0.5679  0.6631  0.1504
  421MOL0     H56810   5.761  -0.432  12.631  0.4388  0.6988 -0.0158
  421MOL0     H56811   5.973  -0.350  12.736  0.6114  1.1773  2.5256
  421MOL0     H56812   5.883  -0.229  12.826  2.7953 -0.6368  0.9950
  421MOL0     H56813   5.883  -0.274  12.515  1.0518  2.2521 -0.5695
  421MOL0     H56814   5.791  -0.151  12.600  1.6361  2.4995 -3.4203
  421MOL0     H56815   5.037  -0.454  12.673  0.9765 -0.4127 -0.6702
  421MOL0     H56816   4.819  -0.385  12.560  1.0503  0.6412 -0.2421
  421MOL0     H56817   4.270  -0.126  12.778 -2.0142 -1.7970 -0.1609
  421MOL0     H56818   4.093  -0.078  12.633  1.3894  1.4040  0.2685
  421MOL0     H56819   3.566   0.924  11.761 -2.3600  1.8449 -0.3364
  421MOL0     H56820   3.683   1.097  11.641  1.7460 -2.2041  0.8704
  421MOL0     H56821   3.904   1.204  11.261 -1.0011  0.1819  2.2884
  421MOL0     H56822   4.040   1.332  11.123  0.0559 -0.8856 -1.0248
  421MOL0     H56823   4.162   1.499  11.003 -0.7056 -2.6608 -2.4512
  421MOL0     H56824   4.063   1.627  11.088 -4.7199 -0.7360 -1.0192
  421MOL0     H56825   4.208   1.733  10.929 -0.9126 -2.0593  2.9433
  421MOL0     H56826   4.046   1.742  10.854  2.5357  1.5229 -1.8864
  421MOL0     H56827   4.068   1.542  10.727 -0.2962  0.7928  4.4916
  421MOL0     H56828   4.230   1.494  10.778  1.4570  0.9949  0.7342
  421MOL0     H56829   4.235   1.594  10.560 -2.6478 -2.4958  3.5096
  421MOL0     H56830   4.212   1.760  10.622  0.0341  0.4153 -3.2747
  421MOL0     H56831   4.577   1.619  10.801 -1.3453 -0.9216  1.1308
  421MOL0     H56832   3.722   1.550  10.961  2.7560  0.1431 -0.7055
  421MOL0     H56833   3.456   1.315  11.071 -0.4531  0.9374  1.5895
  421MOL0     H56834   3.470   1.452  11.174 -2.0500 -0.3427 -0.5692
  421MOL0     H56835   3.489   1.477  11.002 -1.5743  0.0578  0.7915
  422MOL0     O56836   6.086   2.608   4.351  0.2930  0.3844 -0.2204
  422MOL0     C56837   6.044   2.655   4.251 -0.4004 -1.1533  0.4882
  422MOL0     O56838   6.078   2.784   4.198  0.3412 -0.1820 -0.0628
  422MOL0     C56839   6.181   2.857   4.240 -0.2609  0.8062  0.0710
  422MOL0     C56840   6.152   2.989   4.219 -0.7925 -0.4720 -0.2431
  422MOL0     C56841   6.238   3.081   4.270  1.1061 -0.4006 -0.5041
  422MOL0     C56842   6.358   3.047   4.335 -0.4595 -0.3383 -0.1490
  422MOL0     O56843   6.449   3.137   4.388  0.0449  0.3896  0.3552
  422MOL0     C56844   6.417   3.272   4.416  0.2253  0.8984  0.3395
  422MOL0     C56845   6.462   3.368   4.299 -0.6194  0.1667 -0.5646
  422MOL0     C56846   6.442   3.519   4.325 -0.4060 -0.4662  0.2996
  422MOL0     C56847   6.312   3.539   4.391  0.0782  1.1524  0.4940
  422MOL0     C56848   6.268   3.683   4.372  0.1867 -0.1800 -0.6809
  422MOL0     C56849   6.159   3.714   4.479  0.4754 -0.6207  0.3169
  422MOL0     C56850   6.086   3.837   4.430 -0.5213  0.1837 -0.6138
  422MOL0     C56851   6.158   3.960   4.495  0.6892 -0.8859  1.0170
  422MOL0     N56852   6.134   3.986   4.644 -0.2969 -0.3950 -0.6017
  422MOL0     C56853   6.008   4.014   4.684  0.6441 -0.0761  0.0997
  422MOL0     C56854   6.006   4.008   4.823 -0.0336 -0.8252  0.7821
  422MOL0     C56855   5.885   4.023   4.911  0.8528  0.0188 -0.7543
  422MOL0     C56856   5.911   4.132   5.021 -0.4535  0.7498  0.6210
  422MOL0     C56857   5.799   4.136   5.129 -0.7102 -0.3301  1.0085
  422MOL0     C56858   5.795   4.265   5.200 -0.3945 -0.9216 -0.0692
  422MOL0     O56859   5.715   4.277   5.306  0.3445  0.0123 -0.7782
  422MOL0     C56860   5.753   4.255   5.433  0.1228  0.6018 -0.0986
  422MOL0     C56861   5.856   4.166   5.471 -0.5620 -0.2955  0.4248
  422MOL0     C56862   5.892   4.143   5.603  0.9246  0.0444  0.1424
  422MOL0     C56863   5.817   4.198   5.704  0.3357  0.6584 -0.2494
  422MOL0     C56864   5.838   4.156   5.851  0.2604  0.4602 -0.2233
  422MOL0     O56865   5.968   4.145   5.893 -0.0106  0.3588 -0.1519
  422MOL0     C56866   6.007   4.091   6.011  0.1948  0.0869  0.3758
  422MOL0     C56867   5.927   4.097   6.134 -0.4224 -0.5217 -0.3626
  422MOL0     C56868   5.975   4.029   6.245 -1.0404  0.0073  1.3234
  422MOL0     C56869   6.104   3.978   6.249 -0.9509 -0.2530 -0.2908
  422MOL0     O56870   6.152   3.950   6.373  0.2287 -0.2405  0.1024
  422MOL0     C56871   6.270   3.870   6.380 -0.1767  0.9743  0.5908
  422MOL0     C56872   6.238   3.728   6.340 -0.5029 -0.8306 -0.4395
  422MOL0     C56873   6.335   3.631   6.410  0.3133 -0.3673  0.3345
  422MOL0     C56874   6.323   3.488   6.355  0.1085 -0.4398 -0.5122
  422MOL0     C56875   6.429   3.399   6.428  0.2733 -0.3589  0.8263
  422MOL0     C56876   6.418   3.253   6.378  0.3586  0.1281 -0.6866
  422MOL0     C56877   6.483   3.169   6.486 -0.4274  0.1628  0.3079
  422MOL0     C56878   6.504   3.029   6.428 -0.1294  0.4148  0.4131
  422MOL0    Cl56879   6.553   2.923   6.569 -0.3604  0.3376  0.4920
  422MOL0     C56880   6.182   3.968   6.131  0.1288  0.5874  0.5237
  422MOL0     C56881   6.130   4.020   6.010 -0.0924  0.1512 -0.0758
  422MOL0     O56882   5.741   4.130   5.919 -0.3542 -0.7145  0.1853
  422MOL0     C56883   5.697   4.272   5.674 -0.3415 -0.3758 -0.0234
  422MOL0     C56884   5.671   4.310   5.541 -0.5479  0.8535  1.4351
  422MOL0     N56885   6.133   3.975   4.859 -0.3558  0.3013  0.1795
  422MOL0     N56886   6.213   3.970   4.756 -0.8164  0.8464 -0.3605
  422MOL0     C56887   6.383   2.914   4.365 -0.5268  0.0149  0.7527
  422MOL0     C56888   6.295   2.816   4.307  0.3453  0.0275 -0.6174
  422MOL0     C56889   5.955   2.577   4.170 -0.0635 -0.7178  0.5466
  422MOL0     C56890   5.827   2.623   4.152 -1.1140  0.4398 -0.7386
  422MOL0     C56891   5.738   2.567   4.066  0.4518  0.2427 -0.0735
  422MOL0     C56892   5.773   2.451   4.004 -0.9188  0.0845  0.0871
  422MOL0     O56893   5.688   2.389   3.925 -0.7126  0.1485  0.5158
  422MOL0     C56894   5.545   2.413   3.936  0.6221  0.7097 -0.1638
  422MOL0     C56895   5.452   2.304   3.884 -0.2021  0.8441 -0.1493
  422MOL0     C56896   5.467   2.162   3.947  0.3148 -0.3174  0.2254
  422MOL0     C56897   5.429   2.038   3.861 -0.1049 -0.8645  0.8682
  422MOL0     C56898   5.536   2.021   3.757 -0.1974  0.6386  0.6659
  422MOL0     C56899   5.614   1.988   3.673  0.5396  0.2117 -0.0220
  422MOL0     C56900   5.908   2.402   4.017 -0.0657  0.9642 -0.1237
  422MOL0     C56901   5.993   2.461   4.099 -0.1634  0.3781 -0.3363
  422MOL0     C56902   6.126   2.381   4.129  0.1198  0.2921  0.3930
  422MOL0     H56903   6.063   3.013   4.161 -0.0821  0.1244 -1.1231
  422MOL0     H56904   6.216   3.184   4.243  0.7259  0.0624  1.4195
  422MOL0     H56905   6.309   3.277   4.432 -0.1640 -1.9404 -0.8574
  422MOL0     H56906   6.475   3.296   4.506 -0.1788 -0.5685  1.0323
  422MOL0     H56907   6.421   3.339   4.202 -0.8678 -1.5422 -0.0025
  422MOL0     H56908   6.570   3.356   4.285 -0.2105  0.8097  1.6567
  422MOL0     H56909   6.457   3.573   4.232  0.7588  0.2504  0.8703
  422MOL0     H56910   6.525   3.558   4.385  1.0618 -1.6586 -0.8774
  422MOL0     H56911   6.245   3.474   4.334  4.4991 -2.3682 -1.2465
  422MOL0     H56912   6.317   3.502   4.494  1.3237  1.5361  0.5887
  422MOL0     H56913   6.347   3.758   4.382 -1.0910  0.9786  1.3617
  422MOL0     H56914   6.231   3.683   4.269 -0.3882  1.5644 -0.5162
  422MOL0     H56915   6.087   3.633   4.495  0.9831 -1.1573 -0.0936
  422MOL0     H56916   6.204   3.729   4.577  1.2734  0.5260 -0.2010
  422MOL0     H56917   5.983   3.835   4.466 -0.5597 -1.1238 -0.7714
  422MOL0     H56918   6.091   3.839   4.321 -0.8052 -2.2167 -0.7191
  422MOL0     H56919   6.267   3.947   4.493  1.1356  1.6337  3.4248
  422MOL0     H56920   6.133   4.049   4.436  1.9571 -0.9419  0.3436
  422MOL0     H56921   5.917   4.024   4.625  1.8184 -0.7366 -1.9053
  422MOL0     H56922   5.794   4.050   4.856  0.4983 -0.0234 -0.1930
  422MOL0     H56923   5.872   3.925   4.957  0.4097  0.1386 -0.6143
  422MOL0     H56924   6.010   4.124   5.066 -0.0685 -2.9220 -0.5661
  422MOL0     H56925   5.915   4.231   4.974 -0.2328  1.0390  1.2278
  422MOL0     H56926   5.822   4.060   5.205 -3.1871 -1.5656  0.6249
  422MOL0     H56927   5.703   4.111   5.083 -0.1317 -0.3729 -0.2085
  422MOL0     H56928   5.770   4.346   5.131  0.1461  0.4778  1.3207
  422MOL0     H56929   5.895   4.300   5.229 -0.1212 -2.1982  0.5837
  422MOL0     H56930   5.909   4.129   5.383 -3.2175  0.8702 -1.8121
  422MOL0     H56931   5.973   4.071   5.614  0.8896 -0.1116 -0.5517
  422MOL0     H56932   5.846   4.167   6.148  1.1768  1.4804 -0.5701
  422MOL0     H56933   5.916   4.044   6.335  0.7616  2.4634  2.1851
  422MOL0     H56934   6.357   3.914   6.329 -0.2900 -0.8666 -1.3143
  422MOL0     H56935   6.300   3.872   6.485  0.5203 -0.9883  0.4702
  422MOL0     H56936   6.138   3.696   6.373 -0.2891  0.5333  1.7431
  422MOL0     H56937   6.242   3.727   6.231 -2.4335  1.4753 -0.6173
  422MOL0     H56938   6.430   3.672   6.375 -1.2063  0.4874 -3.2225
  422MOL0     H56939   6.340   3.640   6.519  2.7659 -4.6919  0.7838
  422MOL0     H56940   6.319   3.464   6.248  3.5233  1.2182 -1.1653
  422MOL0     H56941   6.227   3.460   6.398  0.9387 -0.6866  1.2712
  422MOL0     H56942   6.413   3.408   6.536  0.1635 -1.0168  0.8666
  422MOL0     H56943   6.533   3.418   6.403  0.4081 -0.2746  1.4410
  422MOL0     H56944   6.313   3.230   6.358 -0.0473  0.5880  0.7880
  422MOL0     H56945   6.474   3.245   6.284  2.7412  0.6843  0.6039
  422MOL0     H56946   6.411   3.159   6.569  0.1716  2.6389  1.2102
  422MOL0     H56947   6.572   3.212   6.533  0.9646  0.2368 -2.2493
  422MOL0     H56948   6.414   2.985   6.385  1.0824 -0.1646 -1.6826
  422MOL0     H56949   6.586   3.018   6.356 -0.7821 -1.6265 -0.0821
  422MOL0     H56950   6.276   3.914   6.131  0.7844  1.6851  1.8206
  422MOL0     H56951   6.189   4.013   5.919  0.1507  3.7305 -0.3401
  422MOL0     H56952   5.638   4.321   5.751  2.1598 -0.8667  2.3559
  422MOL0     H56953   5.578   4.361   5.518 -1.4360 -1.7130 -1.4272
  422MOL0     H56954   6.476   2.884   4.412 -0.6582 -1.3390  0.2022
  422MOL0     H56955   6.314   2.710   4.311  0.4910 -0.0251 -2.0540
  422MOL0     H56956   5.805   2.715   4.205  0.9495  0.5681 -0.0250
  422MOL0     H56957   5.655   2.631   4.039  2.4113  3.7694  1.5117
  422MOL0     H56958   5.537   2.502   3.873  1.0726  0.9369  0.0960
  422MOL0     H56959   5.523   2.433   4.041  2.6676 -3.7201  1.3516
  422MOL0     H56960   5.475   2.290   3.778 -0.8136  3.0055 -0.6163
  422MOL0     H56961   5.352   2.348   3.874 -0.3008  0.6284 -0.1167
  422MOL0     H56962   5.406   2.165   4.038 -0.4723 -2.7740 -0.1541
  422MOL0     H56963   5.571   2.143   3.976  0.8609  4.4528  2.5210
  422MOL0     H56964   5.426   1.945   3.919  2.0284 -0.8497  1.0535
  422MOL0     H56965   5.336   2.051   3.804 -0.3661 -0.5993  1.3432
  422MOL0     H56966   5.668   1.944   3.591 -2.9601 -1.5779 -1.6265
  422MOL0     H56967   5.943   2.308   3.977  0.7937  0.8229  0.9115
  422MOL0     H56968   6.160   2.311   4.052  2.9835  0.1044  1.7151
  422MOL0     H56969   6.199   2.460   4.147 -1.6658  2.1801 -0.2375
  422MOL0     H56970   6.121   2.317   4.217 -0.5549 -1.4633 -0.8435
  423MOL0     O56971   7.359   3.263  10.768  0.8078  0.0848 -0.5646
  423MOL0     C56972   7.481   3.271  10.769  0.4531  0.3628  0.1192
  423MOL0     O56973   7.559   3.339  10.855  0.3108 -0.5997 -0.1740
  423MOL0     C56974   7.502   3.424  10.953 -0.1338  0.7381  0.0458
  423MOL0     C56975   7.376   3.406  11.012  0.4673 -0.5981 -0.7131
  423MOL0     C56976   7.334   3.489  11.118 -0.3473 -0.0269 -0.4464
  423MOL0     C56977   7.419   3.593  11.166  0.3058 -0.5940 -0.3459
  423MOL0     O56978   7.391   3.694  11.257  0.1034  0.6948 -0.0739
  423MOL0     C56979   7.265   3.688  11.333 -0.5398 -0.0036 -0.0238
  423MOL0     C56980   7.276   3.776  11.456  0.5526 -0.1225  0.0612
  423MOL0     C56981   7.142   3.780  11.536 -0.2318 -0.0988  0.4310
  423MOL0     C56982   7.097   3.642  11.594  0.5174  0.1326  0.2735
  423MOL0     C56983   6.992   3.663  11.704  0.3522 -0.1006 -0.3361
  423MOL0     C56984   6.862   3.742  11.677 -0.0117 -0.3367  0.8055
  423MOL0     C56985   6.755   3.726  11.787  1.1281 -0.3986 -0.9854
  423MOL0     C56986   6.628   3.805  11.754 -0.1985  0.0271 -0.2398
  423MOL0     N56987   6.657   3.950  11.747 -0.2158 -0.2813  0.3752
  423MOL0     C56988   6.593   4.050  11.678  0.0814  1.0176  0.0014
  423MOL0     C56989   6.646   4.172  11.716  0.5212 -0.3399  0.0866
  423MOL0     C56990   6.607   4.310  11.684 -0.0384  0.5907 -0.7436
  423MOL0     C56991   6.451   4.342  11.707 -0.4780 -1.2161 -0.5016
  423MOL0     C56992   6.397   4.306  11.848 -0.0249 -0.2427  0.1277
  423MOL0     C56993   6.252   4.356  11.888  0.3225  0.3567 -0.0219
  423MOL0     O56994   6.152   4.308  11.800 -0.0984  0.3115 -0.4882
  423MOL0     C56995   6.045   4.400  11.789 -0.2641 -0.2450 -0.2444
  423MOL0     C56996   6.055   4.512  11.716 -1.0153 -0.3103 -0.3648
  423MOL0     C56997   5.957   4.603  11.707  0.0144  0.4110 -0.1726
  423MOL0     C56998   5.840   4.588  11.776  0.1138 -0.3507  0.4371
  423MOL0     C56999   5.733   4.691  11.756 -0.7500  0.1737  0.4707
  423MOL0     O57000   5.717   4.741  11.633 -0.4645 -0.3956 -0.9312
  423MOL0     C57001   5.600   4.800  11.612  1.2755 -0.8255 -0.4297
  423MOL0     C57002   5.497   4.743  11.540  0.3822  0.1663  0.2723
  423MOL0     C57003   5.377   4.808  11.512  0.1516  0.5295  0.5484
  423MOL0     C57004   5.346   4.924  11.575 -0.3284  0.5408 -0.4289
  423MOL0     O57005   5.225   4.986  11.558 -0.6106 -1.0014  0.1990
  423MOL0     C57006   5.107   4.909  11.539  0.3577 -0.1455  0.5015
  423MOL0     C57007   4.992   5.006  11.502 -0.5506 -0.0708  0.2549
  423MOL0     C57008   4.990   5.035  11.353 -0.1520 -1.1579 -0.2948
  423MOL0     C57009   4.890   5.149  11.312  0.3553  1.4634 -0.0842
  423MOL0     C57010   4.885   5.275  11.388  0.4099  0.0706 -0.2261
  423MOL0     C57011   5.026   5.335  11.424  0.3711  0.3361 -0.0015
  423MOL0     C57012   5.017   5.452  11.524 -0.8136 -0.6849  0.6563
  423MOL0     C57013   5.158   5.482  11.567 -0.5818  0.6470  0.7124
  423MOL0    Cl57014   5.145   5.604  11.693  0.2601 -0.1537  0.1470
  423MOL0     C57015   5.445   4.988  11.654  0.2959 -0.2330 -0.3870
  423MOL0     C57016   5.568   4.930  11.670 -1.1787  0.6268 -0.5993
  423MOL0     O57017   5.658   4.718  11.855 -0.1879  0.2750 -0.3490
  423MOL0     C57018   5.836   4.478  11.861 -0.1503 -0.0236 -1.1921
  423MOL0     C57019   5.927   4.379  11.852 -0.5251 -0.2105 -0.1414
  423MOL0     N57020   6.747   4.138  11.807  0.1670  0.2605 -1.0400
  423MOL0     N57021   6.744   4.009  11.833 -0.5138 -0.4811  0.0885
  423MOL0     C57022   7.546   3.597  11.110  0.5293 -0.2276 -1.1836
  423MOL0     C57023   7.589   3.520  11.008  0.3170  0.2559  0.2912
  423MOL0     C57024   7.543   3.220  10.645  0.0843 -0.4192 -0.2120
  423MOL0     C57025   7.633   3.302  10.574 -0.1575  0.5489  0.2658
  423MOL0     C57026   7.688   3.256  10.453 -0.0940 -1.3351 -0.8181
  423MOL0     C57027   7.659   3.146  10.392 -0.3686  0.0017  0.1965
  423MOL0     O57028   7.720   3.113  10.272  0.0719  0.5247  0.5592
  423MOL0     C57029   7.704   2.984  10.216  0.4880  0.3761 -0.3092
  423MOL0     C57030   7.791   2.874  10.279  0.3617 -0.2199 -0.3374
  423MOL0     C57031   7.938   2.888  10.261  0.3837 -0.0137  0.6649
  423MOL0     C57032   8.025   2.763  10.273 -0.0930  0.5536  0.4160
  423MOL0     C57033   8.037   2.716  10.418  0.1976  0.2510  0.4361
  423MOL0     C57034   8.052   2.687  10.528  0.3313 -0.0859 -0.2550
  423MOL0     C57035   7.563   3.062  10.456  0.2017  0.3891  0.7749
  423MOL0     C57036   7.515   3.096  10.583  0.8035 -0.4206 -0.3059
  423MOL0     C57037   7.404   3.011  10.645  0.3448 -0.6422  0.4277
  423MOL0     H57038   7.316   3.320  10.985  0.1020 -0.6034  0.1097
  423MOL0     H57039   7.233   3.473  11.156  0.8621 -0.8610  2.7676
  423MOL0     H57040   7.174   3.705  11.275 -0.8255 -1.6344 -0.0968
  423MOL0     H57041   7.258   3.586  11.372  3.1636 -0.0591  0.8753
  423MOL0     H57042   7.305   3.875  11.419  3.7580 -1.1438 -0.4426
  423MOL0     H57043   7.352   3.739  11.525 -1.1000 -2.7271  0.5864
  423MOL0     H57044   7.063   3.815  11.470 -1.9455 -3.8865  0.2120
  423MOL0     H57045   7.172   3.849  11.616  2.5004  1.5819 -1.8595
  423MOL0     H57046   7.055   3.575  11.519 -0.9341  0.4684  0.7508
  423MOL0     H57047   7.186   3.587  11.626  0.4611 -0.7415 -1.0112
  423MOL0     H57048   6.965   3.563  11.737  1.5149 -0.6610 -1.0172
  423MOL0     H57049   7.035   3.712  11.792 -3.0546  2.0247  0.3343
  423MOL0     H57050   6.876   3.849  11.665 -0.3565 -0.4274 -0.5795
  423MOL0     H57051   6.818   3.690  11.590  2.2389 -3.2678  1.2481
  423MOL0     H57052   6.793   3.758  11.884 -0.6582  1.0961 -0.7383
  423MOL0     H57053   6.728   3.621  11.801  0.3448 -0.0698  0.0267
  423MOL0     H57054   6.592   3.764  11.659  1.1111  1.4765 -1.4044
  423MOL0     H57055   6.554   3.783  11.831 -1.5230 -1.5890 -1.8629
  423MOL0     H57056   6.512   4.040  11.607  1.5775  2.3857 -2.0238
  423MOL0     H57057   6.666   4.382  11.740 -1.3288  1.2199 -0.1430
  423MOL0     H57058   6.632   4.325  11.578  2.0067  1.2774 -0.2142
  423MOL0     H57059   6.445   4.449  11.684  4.5703 -0.1689  1.5894
  423MOL0     H57060   6.387   4.293  11.633 -0.6118 -0.2003 -1.0777
  423MOL0     H57061   6.461   4.342  11.929 -0.2371  0.9634 -0.2184
  423MOL0     H57062   6.407   4.198  11.847  0.1775 -0.2686  1.6293
  423MOL0     H57063   6.265   4.464  11.876 -1.9957  0.9391  1.9667
  423MOL0     H57064   6.236   4.334  11.994  0.0063  2.0172  0.3050
  423MOL0     H57065   6.148   4.526  11.661  0.1710 -3.2565  0.6920
  423MOL0     H57066   5.971   4.690  11.644 -1.7308  0.8321 -0.0342
  423MOL0     H57067   5.520   4.650  11.490 -2.1434 -0.2969 -0.1686
  423MOL0     H57068   5.306   4.761  11.444  0.7580  0.8857 -0.3495
  423MOL0     H57069   5.106   4.827  11.466  1.7447 -0.0903  0.4075
  423MOL0     H57070   5.078   4.866  11.635 -1.2587  0.3464  0.2734
  423MOL0     H57071   4.905   4.953  11.543 -1.6636  1.6105  0.1522
  423MOL0     H57072   4.988   5.095  11.566 -3.7944  0.3287 -0.3513
  423MOL0     H57073   5.092   5.070  11.332 -0.3617  0.8433  1.6329
  423MOL0     H57074   4.960   4.948  11.295 -0.9667 -0.7124 -0.5558
  423MOL0     H57075   4.794   5.098  11.308  0.8473  0.5170 -0.1496
  423MOL0     H57076   4.916   5.176  11.209 -1.1126 -1.0080 -1.2008
  423MOL0     H57077   4.828   5.257  11.480  1.2416  2.2511  0.7933
  423MOL0     H57078   4.822   5.339  11.325 -0.0744  0.5733  0.7317
  423MOL0     H57079   5.090   5.255  11.461  0.8505  1.2673  1.2579
  423MOL0     H57080   5.069   5.371  11.330  0.0424 -2.3384 -1.2689
  423MOL0     H57081   4.963   5.406  11.607 -0.8391  0.4829  1.3052
  423MOL0     H57082   4.967   5.541  11.485  0.2807 -0.5671 -0.5718
  423MOL0     H57083   5.211   5.397  11.611  1.3136  0.5814 -1.4948
  423MOL0     H57084   5.219   5.513  11.482  0.7089 -1.1800  0.9188
  423MOL0     H57085   5.420   5.075  11.714 -0.2253 -0.3346 -0.4520
  423MOL0     H57086   5.650   4.970  11.729 -1.6450 -2.7350  2.6324
  423MOL0     H57087   5.767   4.461  11.943 -1.0306 -0.4077 -1.9872
  423MOL0     H57088   5.921   4.300  11.926  1.5464  0.1882  0.5264
  423MOL0     H57089   7.616   3.650  11.174  0.4117 -2.2896  0.7937
  423MOL0     H57090   7.693   3.531  10.978  0.4661 -0.1887  0.6318
  423MOL0     H57091   7.679   3.394  10.611  0.7298 -0.7486  2.5928
  423MOL0     H57092   7.755   3.319  10.396 -2.4323  1.3644 -0.7875
  423MOL0     H57093   7.720   2.985  10.108  0.3051 -2.7687 -0.4562
  423MOL0     H57094   7.597   2.960  10.211 -0.1904  2.6271  1.4688
  423MOL0     H57095   7.764   2.777  10.237  3.1414 -1.1767 -0.1040
  423MOL0     H57096   7.764   2.859  10.384 -0.0128 -0.8752 -0.5208
  423MOL0     H57097   7.979   2.974  10.316  1.1957  2.0852 -2.8982
  423MOL0     H57098   7.951   2.939  10.165  0.2525  3.0798  2.1848
  423MOL0     H57099   7.996   2.683  10.205 -1.2323 -0.3973  1.9558
  423MOL0     H57100   8.120   2.800  10.232 -1.1382  0.6542 -2.0992
  423MOL0     H57101   8.072   2.657  10.629 -2.3997 -0.2342  0.3308
  423MOL0     H57102   7.529   2.965  10.422  1.3616 -0.5416  2.1766
  423MOL0     H57103   7.449   2.972  10.737 -1.7630  0.9013  2.2193
  423MOL0     H57104   7.305   3.056  10.661  0.8154  0.4435  0.3371
  423MOL0     H57105   7.396   2.917  10.589  2.4148 -0.2648 -0.5766
  424MOL0     O57106   5.625   1.981   2.085  0.8331 -0.2276  0.3684
  424MOL0     C57107   5.750   1.985   2.080  0.5244  0.2957 -0.2153
  424MOL0     O57108   5.828   2.054   2.176  0.0983 -0.0454 -0.1726
  424MOL0     C57109   5.755   2.132   2.263 -0.1210  0.1871 -0.3039
  424MOL0     C57110   5.777   2.112   2.398  0.4907  1.0000 -0.2427
  424MOL0     C57111   5.711   2.197   2.496 -0.6775 -0.7447  0.6155
  424MOL0     C57112   5.625   2.303   2.451 -0.2179  0.0632  0.1065
  424MOL0     O57113   5.565   2.384   2.549 -0.2648 -0.1053 -1.0011
  424MOL0     C57114   5.421   2.396   2.528 -0.6769 -0.3361  0.0935
  424MOL0     C57115   5.353   2.479   2.633 -0.8764  0.7484  0.0786
  424MOL0     C57116   5.226   2.546   2.578 -0.3619 -0.0007 -0.6042
  424MOL0     C57117   5.143   2.628   2.679 -0.5220  0.4261 -0.5654
  424MOL0     C57118   4.998   2.669   2.626  0.3322  0.4363  0.2637
  424MOL0     C57119   5.008   2.754   2.500  0.1185  0.1449  1.1380
  424MOL0     C57120   4.876   2.754   2.417 -0.3401  0.4143 -0.3163
  424MOL0     C57121   4.773   2.842   2.479 -0.0663  0.1040 -0.1557
  424MOL0     N57122   4.678   2.867   2.379  0.6918  0.7013  0.4895
  424MOL0     C57123   4.684   2.955   2.278  0.1863 -0.3785  1.0129
  424MOL0     C57124   4.564   2.967   2.227  0.9056 -0.1527 -0.4111
  424MOL0     C57125   4.538   3.074   2.120 -0.6450 -0.0560 -0.4189
  424MOL0     C57126   4.466   3.205   2.162  0.0643 -0.3467  0.4006
  424MOL0     C57127   4.431   3.217   2.308  0.1569  0.3378 -0.1258
  424MOL0     C57128   4.361   3.343   2.341  0.0468 -0.8740 -0.0109
  424MOL0     O57129   4.292   3.313   2.461 -0.0353  0.5091  0.1848
  424MOL0     C57130   4.232   3.414   2.529  0.5402  0.3472 -0.0056
  424MOL0     C57131   4.146   3.372   2.627 -0.7121  0.0615  0.1145
  424MOL0     C57132   4.073   3.460   2.704  0.5006  0.4467  0.1958
  424MOL0     C57133   4.083   3.602   2.668  0.7946  0.7924 -0.0662
  424MOL0     C57134   3.996   3.700   2.738  0.1015 -0.0649 -0.5571
  424MOL0     O57135   3.896   3.640   2.813 -0.1177  0.0311  0.2209
  424MOL0     C57136   3.810   3.721   2.881  0.4508 -0.0743  0.2971
  424MOL0     C57137   3.734   3.818   2.822  0.8724 -0.1763  1.1852
  424MOL0     C57138   3.634   3.889   2.885 -0.6409 -0.2593  0.3463
  424MOL0     C57139   3.622   3.876   3.023 -0.1002  0.0977 -0.8976
  424MOL0     O57140   3.531   3.944   3.098 -0.3203 -0.1815 -0.0761
  424MOL0     C57141   3.498   4.079   3.048 -0.3185  0.5621 -0.1142
  424MOL0     C57142   3.353   4.082   3.008  0.0705  0.5688 -0.4816
  424MOL0     C57143   3.267   4.041   3.117  0.0968 -0.0427 -0.4710
  424MOL0     C57144   3.114   4.047   3.085 -0.1845  0.0819  0.2944
  424MOL0     C57145   3.044   4.146   3.177 -0.2034  0.5015 -0.4671
  424MOL0     C57146   3.083   4.290   3.151  0.0279 -0.8781  0.2376
  424MOL0     C57147   2.991   4.390   3.226  0.5275 -0.0412  1.0617
  424MOL0     C57148   2.995   4.531   3.180  0.2183 -0.2396 -0.0611
  424MOL0    Cl57149   2.868   4.627   3.247 -0.7132 -0.4592 -0.2834
  424MOL0     C57150   3.705   3.786   3.089  0.9846 -0.9405 -0.3980
  424MOL0     C57151   3.795   3.705   3.021 -0.0933 -0.1198 -0.4537
  424MOL0     O57152   4.013   3.817   2.722  0.2818 -0.0402  0.6971
  424MOL0     C57153   4.170   3.643   2.562 -0.2752 -0.5907  0.4964
  424MOL0     C57154   4.239   3.547   2.494  0.2756  0.1481  0.2633
  424MOL0     N57155   4.472   2.884   2.293 -0.8733 -0.3277 -0.5044
  424MOL0     N57156   4.545   2.826   2.388  0.0705  0.1303 -0.3777
  424MOL0     C57157   5.605   2.320   2.315  0.1147  0.9606  0.1358
  424MOL0     C57158   5.674   2.238   2.223 -0.4333  0.7921  0.2426
  424MOL0     C57159   5.816   1.921   1.967 -0.0286  0.0498 -0.4143
  424MOL0     C57160   5.950   1.954   1.948  0.3789  0.4683 -0.4895
  424MOL0     C57161   6.043   1.885   1.869 -0.1139  0.0745  0.4812
  424MOL0     C57162   6.000   1.789   1.783 -0.7679  0.1945 -0.0432
  424MOL0     O57163   6.085   1.710   1.703 -0.3319 -0.0893 -0.1551
  424MOL0     C57164   6.157   1.603   1.768 -1.1574 -0.4174 -0.2232
  424MOL0     C57165   6.100   1.463   1.735  0.8166  0.7282 -0.4048
  424MOL0     C57166   6.111   1.424   1.595  0.0449 -0.0480 -0.8294
  424MOL0     C57167   5.994   1.331   1.551 -0.0744  0.8952 -0.0417
  424MOL0     C57168   6.050   1.268   1.429  0.3656 -0.7604  0.3218
  424MOL0     C57169   6.100   1.206   1.336  0.4673  0.4828 -0.4671
  424MOL0     C57170   5.864   1.764   1.786  0.2395 -0.4038 -0.4280
  424MOL0     C57171   5.773   1.828   1.874  0.5229  0.3348  0.3447
  424MOL0     C57172   5.626   1.797   1.851  0.3158 -0.4051 -0.4309
  424MOL0     H57173   5.818   2.016   2.425 -0.6788 -0.6500 -3.7474
  424MOL0     H57174   5.722   2.177   2.602  0.8066 -1.8645  0.2870
  424MOL0     H57175   5.400   2.444   2.431 -1.0475 -0.1007  0.2859
  424MOL0     H57176   5.370   2.300   2.522 -2.7397  0.7170 -5.6636
  424MOL0     H57177   5.418   2.561   2.666  0.4691  0.5341 -1.8544
  424MOL0     H57178   5.326   2.416   2.718  2.5728  1.5046  1.9237
  424MOL0     H57179   5.172   2.453   2.555 -2.0666  0.4581  1.2611
  424MOL0     H57180   5.247   2.608   2.490 -1.2958  1.1218 -0.0723
  424MOL0     H57181   5.131   2.578   2.776  0.6144  2.5133  0.7076
  424MOL0     H57182   5.190   2.722   2.708 -0.5559 -0.4344  2.6464
  424MOL0     H57183   4.941   2.577   2.611  0.5039  0.1862  1.0730
  424MOL0     H57184   4.960   2.732   2.707  1.8559  0.4045  1.0461
  424MOL0     H57185   5.039   2.854   2.530  0.0511  0.6501 -0.3769
  424MOL0     H57186   5.078   2.709   2.428 -1.4917 -2.0593  0.8197
  424MOL0     H57187   4.838   2.654   2.396 -0.8101  0.7746 -1.2236
  424MOL0     H57188   4.911   2.790   2.320  0.1432 -2.9788 -1.5250
  424MOL0     H57189   4.729   2.777   2.554 -2.0628  0.4921 -0.9343
  424MOL0     H57190   4.813   2.940   2.509 -1.1418  1.2712 -2.2879
  424MOL0     H57191   4.762   3.020   2.241 -2.3329  1.2870 -1.7944
  424MOL0     H57192   4.629   3.116   2.075  0.2510 -0.9887  0.4786
  424MOL0     H57193   4.488   3.027   2.036 -3.2538  2.8593 -0.6850
  424MOL0     H57194   4.525   3.290   2.125 -0.5413 -0.8176 -1.7805
  424MOL0     H57195   4.374   3.206   2.103  1.3270 -3.9547 -2.0096
  424MOL0     H57196   4.516   3.210   2.376 -0.9274  0.2190  1.2470
  424MOL0     H57197   4.368   3.133   2.340 -0.6734  1.1597  0.4599
  424MOL0     H57198   4.296   3.369   2.258  0.5118  1.0142  0.1649
  424MOL0     H57199   4.441   3.417   2.348 -1.6509  1.2106 -1.3054
  424MOL0     H57200   4.140   3.268   2.655  1.9026 -0.7146 -1.8023
  424MOL0     H57201   4.008   3.417   2.780  1.2427  1.0149  1.1684
  424MOL0     H57202   3.734   3.823   2.714  0.1386  1.5118  1.2241
  424MOL0     H57203   3.560   3.953   2.840 -0.2201 -0.2195 -0.3019
  424MOL0     H57204   3.508   4.155   3.125  0.1540  0.8496 -0.4536
  424MOL0     H57205   3.563   4.114   2.968 -2.3263  1.0621 -1.6189
  424MOL0     H57206   3.326   4.186   2.985 -4.2528 -0.0485  0.8753
  424MOL0     H57207   3.335   4.024   2.918 -0.8070 -2.4055  1.4720
  424MOL0     H57208   3.293   3.937   3.139  1.3141  0.8301  2.9489
  424MOL0     H57209   3.287   4.098   3.209 -2.7395 -2.4064  1.8101
  424MOL0     H57210   3.069   3.950   3.106  0.2961 -0.1064  0.4616
  424MOL0     H57211   3.104   4.073   2.979  0.7867  3.4033  0.8910
  424MOL0     H57212   3.070   4.110   3.276  2.2143  0.1111 -1.1621
  424MOL0     H57213   2.936   4.133   3.169 -0.0633 -0.3625 -1.2368
  424MOL0     H57214   3.186   4.306   3.185  0.2997 -1.9111 -0.0819
  424MOL0     H57215   3.087   4.306   3.043 -0.8304 -0.8751  0.2036
  424MOL0     H57216   3.028   4.403   3.328 -0.7187 -2.1804  1.8818
  424MOL0     H57217   2.884   4.366   3.229  0.1057  1.5511 -0.1767
  424MOL0     H57218   3.090   4.581   3.199  0.6967 -0.3098 -2.0986
  424MOL0     H57219   2.989   4.535   3.071  2.0566 -0.3944 -0.1913
  424MOL0     H57220   3.682   3.780   3.195  0.2379  2.1901 -0.2906
  424MOL0     H57221   3.850   3.619   3.058 -0.0476  0.0667 -0.0814
  424MOL0     H57222   4.181   3.749   2.542 -1.7328 -0.4755  0.2191
  424MOL0     H57223   4.299   3.586   2.412  2.2960  1.9313  2.4487
  424MOL0     H57224   5.538   2.398   2.280 -0.6330  0.5026  0.5024
  424MOL0     H57225   5.654   2.262   2.120 -2.2858  1.3750  0.7102
  424MOL0     H57226   5.986   2.042   2.001 -1.8857  0.2273  1.6458
  424MOL0     H57227   6.144   1.925   1.868  0.4106 -1.1929  0.5945
  424MOL0     H57228   6.169   1.622   1.874  2.4638 -3.1599  0.0383
  424MOL0     H57229   6.258   1.606   1.728 -0.4951 -0.0529  1.4171
  424MOL0     H57230   5.997   1.465   1.773  1.4881  0.5245  1.5153
  424MOL0     H57231   6.146   1.387   1.798 -3.0825  0.0512  1.9956
  424MOL0     H57232   6.205   1.371   1.576  0.5943  0.4486  0.4190
  424MOL0     H57233   6.105   1.510   1.528 -0.7515  0.3406 -0.2760
  424MOL0     H57234   5.964   1.264   1.631  1.4504  2.5449  2.0417
  424MOL0     H57235   5.907   1.392   1.525  1.1962  1.6105 -3.0752
  424MOL0     H57236   6.163   1.167   1.260  0.6760  2.4257 -1.3515
  424MOL0     H57237   5.823   1.704   1.704 -0.8672  0.7509 -0.7528
  424MOL0     H57238   5.572   1.794   1.946 -2.5553  1.5090 -1.8467
  424MOL0     H57239   5.583   1.884   1.801 -1.7086 -1.7119 -1.0795
  424MOL0     H57240   5.615   1.703   1.797 -3.2604 -0.0186 -0.6418
  425MOL0     O57241   0.318   4.723   3.319 -0.4304 -0.5344  0.2841
  425MOL0     C57242   0.275   4.832   3.275 -0.4904  0.5427  0.0681
  425MOL0     O57243   0.235   4.936   3.360 -0.3964  0.6670  0.4147
  425MOL0     C57244   0.210   4.909   3.494  0.1740  0.8859  0.6055
  425MOL0     C57245   0.080   4.919   3.541 -0.3564  0.1999  0.2193
  425MOL0     C57246   0.061   4.924   3.675 -0.3484 -0.1799 -0.6480
  425MOL0     C57247   0.165   4.893   3.770  0.9009 -0.1459 -0.1703
  425MOL0     O57248   0.128   4.889   3.901 -0.0291 -0.7354  0.6661
  425MOL0     C57249   0.206   4.820   3.993  0.2900  0.0449 -0.6862
  425MOL0     C57250   0.099   4.778   4.097 -0.1205 -0.1937 -0.1185
  425MOL0     C57251   0.157   4.679   4.196  0.6169 -0.5601  1.3006
  425MOL0     C57252   0.224   4.758   4.311 -0.3941 -0.1154  0.4573
  425MOL0     C57253   0.294   4.666   4.415  0.1220  0.1953  0.8138
  425MOL0     C57254   0.398   4.574   4.340 -0.4023 -0.0656 -0.8763
  425MOL0     C57255   0.529   4.550   4.430  0.3847 -0.8036  0.6154
  425MOL0     C57256   0.498   4.474   4.561  0.3241 -0.4217  0.3807
  425MOL0     N57257   0.620   4.461   4.644  0.3967 -0.5696  0.0958
  425MOL0     C57258   0.699   4.556   4.705 -0.3003  0.8733  0.4544
  425MOL0     C57259   0.792   4.477   4.769  0.3833  0.6693  0.0405
  425MOL0     C57260   0.926   4.509   4.845  0.4856  0.2905 -0.4005
  425MOL0     C57261   0.890   4.579   4.981 -0.1503 -0.4577 -0.5020
  425MOL0     C57262   0.825   4.480   5.076  0.5577  0.0618  0.6189
  425MOL0     C57263   0.844   4.520   5.221  1.0648 -0.6701  0.1425
  425MOL0     O57264   0.799   4.659   5.232  0.0367 -0.2303  0.3152
  425MOL0     C57265   0.825   4.725   5.348 -0.2871 -0.5821  0.9104
  425MOL0     C57266   0.857   4.661   5.470  0.0923  0.1290 -0.3744
  425MOL0     C57267   0.870   4.726   5.591  0.2790 -0.6279 -1.3762
  425MOL0     C57268   0.856   4.866   5.587  0.6600 -0.1557 -0.4046
  425MOL0     C57269   0.872   4.938   5.716 -0.6278  0.2565  0.5045
  425MOL0     O57270   0.913   4.863   5.823 -0.0456 -0.6460  0.0248
  425MOL0     C57271   0.926   4.926   5.949  0.5678 -1.4016  0.7737
  425MOL0     C57272   0.823   4.982   6.016  0.7837 -1.3506 -0.0563
  425MOL0     C57273   0.842   5.072   6.120 -0.8231  0.0022 -0.0407
  425MOL0     C57274   0.970   5.101   6.171 -0.1216  0.4577  1.1806
  425MOL0     O57275   0.997   5.194   6.268  0.1045  0.8287 -0.3066
  425MOL0     C57276   0.889   5.277   6.319  0.7722  0.0931  0.1391
  425MOL0     C57277   0.939   5.394   6.403 -0.8199  0.5213 -0.4209
  425MOL0     C57278   0.844   5.452   6.510  0.1539 -0.8124  0.8078
  425MOL0     C57279   0.920   5.527   6.615 -0.4054 -0.0611  0.5234
  425MOL0     C57280   0.828   5.601   6.706 -1.6038  0.3270  0.3631
  425MOL0     C57281   0.896   5.635   6.844  0.5911  0.2606  0.3934
  425MOL0     C57282   0.805   5.718   6.941 -0.5254  0.1781  0.4312
  425MOL0     C57283   0.862   5.711   7.084 -0.0813  0.8189  0.4726
  425MOL0    Cl57284   0.770   5.811   7.202 -0.0532 -0.1945  0.2756
  425MOL0     C57285   1.083   5.046   6.095  0.2872 -0.0533 -1.3230
  425MOL0     C57286   1.055   4.956   5.986 -0.3416 -0.3643  0.4574
  425MOL0     O57287   0.855   5.060   5.715  0.4993  0.0805  0.3591
  425MOL0     C57288   0.827   4.933   5.459  0.5273  0.4923  0.5759
  425MOL0     C57289   0.823   4.861   5.344  0.4648 -0.4503 -0.0560
  425MOL0     N57290   0.771   4.344   4.750 -0.9486  0.0224  0.1991
  425MOL0     N57291   0.674   4.331   4.664  0.1340  0.7905  0.3772
  425MOL0     C57292   0.291   4.891   3.721 -0.3461  0.1748  0.0204
  425MOL0     C57293   0.312   4.907   3.587 -1.4432 -0.7213  0.1402
  425MOL0     C57294   0.275   4.861   3.127  0.3457  0.3228 -0.6376
  425MOL0     C57295   0.205   4.978   3.085  0.0223 -0.4898 -0.4820
  425MOL0     C57296   0.222   5.033   2.965 -0.4703  0.7795 -0.3855
  425MOL0     C57297   0.290   4.955   2.872  0.6829 -0.0100  0.1177
  425MOL0     O57298   0.304   5.016   2.755 -0.1187 -0.0079  1.4171
  425MOL0     C57299   0.392   4.981   2.644 -0.2009 -1.1533  0.3706
  425MOL0     C57300   0.400   5.079   2.528 -0.2013 -0.1602  0.1778
  425MOL0     C57301   0.264   5.126   2.479 -0.1659  1.1646 -0.9164
  425MOL0     C57302   0.288   5.201   2.348  0.1200 -0.2565 -0.4812
  425MOL0     C57303   0.152   5.247   2.303 -0.3021 -0.1550 -0.4437
  425MOL0     C57304   0.035   5.264   2.279 -0.5465 -0.6452  0.5331
  425MOL0     C57305   0.346   4.837   2.901  0.1159 -0.0846 -0.8941
  425MOL0     C57306   0.344   4.789   3.035 -0.3146 -0.1937  0.0497
  425MOL0     C57307   0.438   4.678   3.068 -0.4674  0.4737 -0.3881
  425MOL0     H57308  -0.009   4.927   3.480  0.4938 -0.7266 -1.1930
  425MOL0     H57309  -0.040   4.927   3.717  0.1463  1.8233  0.5464
  425MOL0     H57310   0.256   4.732   3.950  1.5823  1.0847 -1.3924
  425MOL0     H57311   0.278   4.894   4.029 -0.0255 -0.1755  0.4257
  425MOL0     H57312   0.013   4.731   4.050  0.5441 -0.5413 -1.0277
  425MOL0     H57313   0.056   4.866   4.146 -4.5370 -3.1761  2.0536
  425MOL0     H57314   0.217   4.602   4.146 -0.1075 -0.6972  0.6317
  425MOL0     H57315   0.070   4.627   4.238  0.1031  0.8761  2.0558
  425MOL0     H57316   0.299   4.825   4.267 -0.5420  0.5099  1.1256
  425MOL0     H57317   0.142   4.805   4.366 -2.0001 -2.3712  0.1032
  425MOL0     H57318   0.342   4.735   4.486 -2.0905  1.2603  1.3679
  425MOL0     H57319   0.220   4.608   4.470  1.7179 -0.7783  2.0479
  425MOL0     H57320   0.342   4.488   4.302 -1.0383  0.3228 -0.8519
  425MOL0     H57321   0.431   4.626   4.249 -0.4341 -1.1202 -1.5049
  425MOL0     H57322   0.568   4.647   4.463  0.4193 -1.5920  3.0738
  425MOL0     H57323   0.603   4.496   4.371  1.4697  1.8916 -0.6349
  425MOL0     H57324   0.426   4.529   4.622  0.0097 -2.5054  1.9925
  425MOL0     H57325   0.456   4.378   4.529 -0.4638  0.8451 -2.7593
  425MOL0     H57326   0.680   4.662   4.713 -2.9195  0.4432  0.7139
  425MOL0     H57327   0.983   4.418   4.865 -2.1348 -1.4802 -0.5437
  425MOL0     H57328   0.995   4.574   4.789 -0.7087  0.5334 -1.6424
  425MOL0     H57329   0.988   4.605   5.023 -1.1868  1.4615  0.9009
  425MOL0     H57330   0.829   4.666   4.956 -1.6550 -1.0373  0.9937
  425MOL0     H57331   0.871   4.382   5.067 -1.6059 -1.0438  0.9000
  425MOL0     H57332   0.716   4.483   5.062  0.4341  0.8199  1.6423
  425MOL0     H57333   0.950   4.500   5.241  1.3217  1.4494  1.1560
  425MOL0     H57334   0.798   4.446   5.287 -1.1332  1.8380  1.6158
  425MOL0     H57335   0.878   4.555   5.477  2.9191  0.5635 -1.1753
  425MOL0     H57336   0.880   4.675   5.686 -0.0276  0.3783 -0.7857
  425MOL0     H57337   0.721   4.973   5.980  1.0272  0.8194 -1.5074
  425MOL0     H57338   0.751   5.124   6.151 -0.4743  2.5136 -2.7559
  425MOL0     H57339   0.822   5.309   6.239 -0.4160  0.0506  1.0802
  425MOL0     H57340   0.829   5.223   6.393  1.6165 -0.4025  0.4691
  425MOL0     H57341   1.020   5.349   6.461 -1.5757  0.3852  0.5660
  425MOL0     H57342   0.983   5.472   6.342  1.2563 -1.4001 -1.5373
  425MOL0     H57343   0.769   5.522   6.470  2.9553  1.8910 -0.0998
  425MOL0     H57344   0.799   5.372   6.568 -1.2843 -1.1344 -0.6675
  425MOL0     H57345   0.986   5.608   6.584  1.9622 -2.0822 -0.0827
  425MOL0     H57346   0.983   5.459   6.674  0.6470  1.2658  0.9630
  425MOL0     H57347   0.744   5.533   6.725 -0.1356 -1.1283  1.9634
  425MOL0     H57348   0.805   5.689   6.645  1.4722 -0.1675 -1.7728
  425MOL0     H57349   0.899   5.542   6.901 -1.3524  0.8974  1.6428
  425MOL0     H57350   0.998   5.674   6.841  1.1850 -1.1429  1.4953
  425MOL0     H57351   0.699   5.694   6.954 -0.6034  1.1245  1.8693
  425MOL0     H57352   0.809   5.820   6.902  0.8282 -0.5077 -1.3688
  425MOL0     H57353   0.865   5.607   7.116 -2.2396  0.0319 -1.6069
  425MOL0     H57354   0.959   5.761   7.096 -1.2813  3.1123  1.2304
  425MOL0     H57355   1.189   5.058   6.112  0.3156  3.4625 -3.2727
  425MOL0     H57356   1.127   4.901   5.926 -2.4215  0.4100 -3.0252
  425MOL0     H57357   0.826   5.042   5.460  0.6961  0.4996 -0.0798
  425MOL0     H57358   0.801   4.918   5.254 -0.7373  0.9976  1.0872
  425MOL0     H57359   0.380   4.874   3.781 -1.3325  0.1149  1.5324
  425MOL0     H57360   0.410   4.930   3.547 -0.5594 -2.3558  1.2377
  425MOL0     H57361   0.144   5.031   3.158 -0.9156 -1.9774 -0.1127
  425MOL0     H57362   0.172   5.128   2.948 -0.6171  0.9314  0.8521
  425MOL0     H57363   0.361   4.885   2.603 -1.1516 -0.3560 -0.8733
  425MOL0     H57364   0.491   4.980   2.690 -0.5343  1.2383  1.3423
  425MOL0     H57365   0.446   5.020   2.449  0.5536  2.8570 -1.7913
  425MOL0     H57366   0.454   5.166   2.565  2.9225 -2.3891  1.2623
  425MOL0     H57367   0.220   5.195   2.552 -1.5177 -0.1042 -0.4913
  425MOL0     H57368   0.191   5.045   2.470 -0.3857  1.3518 -0.8308
  425MOL0     H57369   0.347   5.294   2.344 -2.2280  1.2703 -2.8324
  425MOL0     H57370   0.328   5.135   2.271 -1.4240 -0.3792 -1.1978
  425MOL0     H57371  -0.071   5.280   2.269 -0.5233 -1.1428 -0.7530
  425MOL0     H57372   0.399   4.773   2.830 -0.7814 -0.3966 -1.3025
  425MOL0     H57373   0.500   4.715   3.150 -1.2471  1.7633 -0.3421
  425MOL0     H57374   0.389   4.585   3.096  1.0234  0.4490  2.4596
  425MOL0     H57375   0.501   4.641   2.986 -0.7456 -1.8662  0.3791
  426MOL0     O57376   1.782   4.594   5.592  0.3917  0.1600  0.0813
  426MOL0     C57377   1.817   4.507   5.680 -0.0137  1.1088  0.7069
  426MOL0     O57378   1.811   4.366   5.666  1.3470 -0.4181 -0.5991
  426MOL0     C57379   1.713   4.329   5.575 -0.8657 -0.2573  0.3810
  426MOL0     C57380   1.592   4.285   5.626 -0.1511  0.7281 -0.1237
  426MOL0     C57381   1.495   4.227   5.540  0.5860 -0.0896  0.6926
  426MOL0     C57382   1.524   4.206   5.401 -0.7344  0.5537 -0.3215
  426MOL0     O57383   1.427   4.152   5.320 -0.3055 -0.1984 -0.6157
  426MOL0     C57384   1.485   4.091   5.203  0.6267  0.3181  0.5117
  426MOL0     C57385   1.386   3.985   5.153  0.5622 -0.1988 -0.0259
  426MOL0     C57386   1.451   3.910   5.045 -0.8263  0.1706  0.0858
  426MOL0     C57387   1.346   3.813   4.979  0.3094  0.6621 -1.2162
  426MOL0     C57388   1.407   3.705   4.886 -0.3097 -0.9289 -0.8121
  426MOL0     C57389   1.304   3.661   4.785  0.7207  0.3511  0.1749
  426MOL0     C57390   1.354   3.546   4.698 -0.2257  0.0164 -0.1598
  426MOL0     C57391   1.246   3.473   4.622  0.1521  0.6840  0.1204
  426MOL0     N57392   1.181   3.553   4.514  0.4025  0.3856 -0.5898
  426MOL0     C57393   1.050   3.600   4.522  0.6083 -0.7887  0.8742
  426MOL0     C57394   1.041   3.683   4.416  0.1867 -0.1518  0.1076
  426MOL0     C57395   0.913   3.745   4.371 -0.6204  0.0927  0.1472
  426MOL0     C57396   0.921   3.877   4.299  0.4490 -0.1565  0.4173
  426MOL0     C57397   1.017   3.991   4.355 -1.4116  0.2189  0.6649
  426MOL0     C57398   0.987   4.037   4.494  0.1468  0.0891  0.4110
  426MOL0     O57399   1.028   3.943   4.587  0.4491 -0.6075 -0.2634
  426MOL0     C57400   1.002   3.966   4.715  0.5358  0.4043 -0.8410
  426MOL0     C57401   0.971   4.090   4.771  0.0000 -0.1449 -0.6249
  426MOL0     C57402   0.959   4.117   4.911  0.4172 -0.0595  0.6783
  426MOL0     C57403   0.972   4.010   5.000  0.3932  0.2092 -0.1143
  426MOL0     C57404   0.981   4.023   5.151 -0.5262 -0.2147 -0.0192
  426MOL0     O57405   0.976   4.149   5.191 -0.1025 -0.1015 -0.5548
  426MOL0     C57406   0.989   4.184   5.322  0.2988  0.8075  0.5246
  426MOL0     C57407   1.094   4.264   5.345 -0.0574 -0.5352  0.5629
  426MOL0     C57408   1.107   4.326   5.466  0.3704  0.4983  0.2202
  426MOL0     C57409   1.031   4.276   5.577  0.8535  0.7366 -0.2449
  426MOL0     O57410   1.038   4.307   5.713  0.2053 -0.1041  0.3570
  426MOL0     C57411   1.124   4.414   5.756  0.9613 -1.1267  0.1407
  426MOL0     C57412   1.098   4.433   5.904  0.4335 -0.1744 -0.5789
  426MOL0     C57413   1.152   4.560   5.961  0.0300 -0.6977  0.8064
  426MOL0     C57414   1.151   4.552   6.106 -0.7692  0.2789 -0.6559
  426MOL0     C57415   1.210   4.679   6.173  0.9177 -0.4689 -0.6766
  426MOL0     C57416   1.189   4.672   6.324 -0.9174 -0.7075  0.3982
  426MOL0     C57417   1.187   4.819   6.381 -0.0522  0.9266 -0.1770
  426MOL0     C57418   1.229   4.814   6.526 -0.0308 -0.9277 -0.2603
  426MOL0    Cl57419   1.085   4.837   6.626  0.4951  0.1836  0.2468
  426MOL0     C57420   0.934   4.183   5.552  0.0381  0.4128  0.9530
  426MOL0     C57421   0.905   4.138   5.427 -1.2012 -0.8745 -0.5419
  426MOL0     O57422   0.998   3.922   5.217 -0.2750 -0.0855 -1.3272
  426MOL0     C57423   0.990   3.882   4.946 -0.6146  1.2538  0.4305
  426MOL0     C57424   1.005   3.860   4.810 -0.4086  0.5959  0.0439
  426MOL0     N57425   1.156   3.671   4.345  0.6324 -0.5024  0.5074
  426MOL0     N57426   1.239   3.591   4.399  0.0944 -0.6237 -0.8148
  426MOL0     C57427   1.654   4.254   5.362  0.3500 -0.3197 -0.0002
  426MOL0     C57428   1.745   4.320   5.447  1.1921 -0.2965 -0.8761
  426MOL0     C57429   1.879   4.550   5.811 -0.7206  0.4756  0.8060
  426MOL0     C57430   1.930   4.456   5.899 -0.3421  0.1453  0.0757
  426MOL0     C57431   2.000   4.489   6.010 -0.6390 -0.5196  0.1562
  426MOL0     C57432   2.042   4.618   6.041 -0.5621  0.1286  0.1013
  426MOL0     O57433   2.133   4.640   6.135  0.0623 -0.4610  0.4064
  426MOL0     C57434   2.120   4.774   6.197 -0.5649  0.0872  0.3484
  426MOL0     C57435   2.195   4.772   6.325  0.8495 -0.2622  0.8737
  426MOL0     C57436   2.148   4.680   6.432 -0.3958  0.2321  0.8811
  426MOL0     C57437   2.145   4.525   6.411 -0.3249 -0.2216  0.3546
  426MOL0     C57438   2.282   4.473   6.403 -0.6288 -0.5462 -0.3322
  426MOL0     C57439   2.394   4.430   6.386  0.8923 -0.4560  0.6753
  426MOL0     C57440   1.991   4.719   5.963  0.3735 -0.3877 -0.4812
  426MOL0     C57441   1.915   4.687   5.845  0.3145 -0.0436  0.3561
  426MOL0     C57442   1.862   4.808   5.766 -0.3742  0.0023  0.1147
  426MOL0     H57443   1.571   4.309   5.730  0.8327 -2.7839  1.0582
  426MOL0     H57444   1.402   4.190   5.582  1.8483 -2.7558  1.4124
  426MOL0     H57445   1.518   4.157   5.122  0.2967  0.0367  0.1458
  426MOL0     H57446   1.583   4.054   5.235 -0.9268 -3.0635  1.8346
  426MOL0     H57447   1.297   4.043   5.128  1.8977  0.6451 -3.2003
  426MOL0     H57448   1.349   3.922   5.234 -1.9644  2.5784  1.1717
  426MOL0     H57449   1.532   3.848   5.083 -0.1502  0.5577 -0.6998
  426MOL0     H57450   1.486   3.984   4.972 -0.4825 -1.0965 -1.0745
  426MOL0     H57451   1.302   3.757   5.062  0.7487  1.8941 -0.1147
  426MOL0     H57452   1.260   3.871   4.943 -1.1650 -1.1534 -0.7853
  426MOL0     H57453   1.488   3.744   4.824 -1.2634 -0.7681 -2.0023
  426MOL0     H57454   1.446   3.626   4.950 -1.8297 -1.1619 -0.1192
  426MOL0     H57455   1.217   3.634   4.846  1.6049  1.2526  1.8734
  426MOL0     H57456   1.273   3.747   4.725  0.4450  0.8177  0.9719
  426MOL0     H57457   1.414   3.478   4.758 -0.7015 -0.5842 -0.3480
  426MOL0     H57458   1.430   3.585   4.630 -2.1516 -0.4622 -2.7757
  426MOL0     H57459   1.274   3.381   4.571 -0.8770  1.1772 -1.4239
  426MOL0     H57460   1.171   3.451   4.699  0.0083  1.1975  0.1347
  426MOL0     H57461   0.972   3.578   4.594 -1.2677  0.4233 -0.6852
  426MOL0     H57462   0.862   3.672   4.308 -2.4462  2.4036 -1.2393
  426MOL0     H57463   0.853   3.771   4.459 -0.0292  0.9264  0.3213
  426MOL0     H57464   0.965   3.856   4.201  1.4697  2.6566  0.1873
  426MOL0     H57465   0.817   3.899   4.275  0.6465 -2.6694 -3.9755
  426MOL0     H57466   1.003   4.076   4.287 -1.3126 -1.2852 -1.3629
  426MOL0     H57467   1.124   3.971   4.345 -1.2049  1.7448 -0.5638
  426MOL0     H57468   0.879   4.053   4.488  0.3929  1.9064  0.3591
  426MOL0     H57469   1.039   4.132   4.507  0.6953  0.1186 -1.5946
  426MOL0     H57470   0.950   4.174   4.707 -2.2521 -1.2220 -1.3979
  426MOL0     H57471   0.948   4.215   4.956  0.5071  0.6130 -0.7082
  426MOL0     H57472   1.155   4.289   5.259  0.8997 -1.7456  0.8602
  426MOL0     H57473   1.172   4.412   5.480  0.7078  0.1437  0.8594
  426MOL0     H57474   1.225   4.387   5.723  1.1252  0.1503 -0.4942
  426MOL0     H57475   1.092   4.507   5.707  0.3876 -1.2701  0.2341
  426MOL0     H57476   0.990   4.443   5.896  0.1963 -0.2913  1.7704
  426MOL0     H57477   1.118   4.343   5.963 -0.2536  1.6534  2.7160
  426MOL0     H57478   1.244   4.585   5.907  0.2324  0.0847  1.4954
  426MOL0     H57479   1.077   4.636   5.939 -0.7219 -1.0340  2.1525
  426MOL0     H57480   1.206   4.468   6.148 -1.3252  1.4971  2.8184
  426MOL0     H57481   1.050   4.537   6.145 -1.4262 -1.4033 -2.7877
  426MOL0     H57482   1.139   4.752   6.134  1.4665 -0.0349 -0.8784
  426MOL0     H57483   1.310   4.698   6.134  1.5089 -2.3682 -0.1942
  426MOL0     H57484   1.091   4.631   6.349 -0.5017 -0.0584  3.4037
  426MOL0     H57485   1.258   4.600   6.367 -2.6342 -2.8645 -0.2692
  426MOL0     H57486   1.095   4.872   6.354  1.8494  3.4329 -2.1391
  426MOL0     H57487   1.257   4.887   6.333 -1.6931  4.2733  1.8375
  426MOL0     H57488   1.283   4.723   6.556  0.8805  0.3307  2.1510
  426MOL0     H57489   1.302   4.893   6.547  1.4735 -3.1565  4.4369
  426MOL0     H57490   0.865   4.148   5.627  0.3244 -3.1000 -0.2417
  426MOL0     H57491   0.824   4.071   5.401 -1.2331 -1.1259  0.1827
  426MOL0     H57492   0.991   3.789   5.001  0.3866  1.5753  0.9780
  426MOL0     H57493   1.010   3.762   4.763 -1.5952  1.1198 -1.2247
  426MOL0     H57494   1.675   4.253   5.255  0.2770  2.1103 -0.0948
  426MOL0     H57495   1.838   4.356   5.405  1.5836 -1.2428 -0.8355
  426MOL0     H57496   1.911   4.349   5.889  1.8978 -0.3791  0.7827
  426MOL0     H57497   2.023   4.413   6.084 -1.0877 -0.1157  0.7226
  426MOL0     H57498   2.018   4.800   6.226  0.4913  2.8992  1.9034
  426MOL0     H57499   2.172   4.844   6.130 -2.9588  1.5912 -0.0509
  426MOL0     H57500   2.203   4.878   6.351 -1.0993 -0.2374  1.5690
  426MOL0     H57501   2.298   4.742   6.304  0.6706  0.1917 -0.7595
  426MOL0     H57502   2.047   4.706   6.465 -1.9758 -3.7662 -0.1751
  426MOL0     H57503   2.212   4.699   6.519  1.9836 -1.1583 -0.4368
  426MOL0     H57504   2.101   4.488   6.504 -2.4582  0.3894 -0.3323
  426MOL0     H57505   2.087   4.493   6.323 -2.1576  2.5084  0.4449
  426MOL0     H57506   2.495   4.393   6.388  1.0471 -0.7133 -3.5086
  426MOL0     H57507   2.017   4.823   5.980  2.1542 -1.3125  3.7251
  426MOL0     H57508   1.858   4.892   5.837  1.7995  0.1390  0.1479
  426MOL0     H57509   1.929   4.827   5.682  1.8909 -0.4627  1.7026
  426MOL0     H57510   1.767   4.793   5.715 -1.6090 -0.3679  2.3853
  427MOL0     O57511   5.344   5.050  10.870  0.2964  0.2745 -0.2347
  427MOL0     C57512   5.336   5.015  10.991 -0.4642 -0.3780 -0.1062
  427MOL0     O57513   5.231   5.053  11.071 -0.0211  0.1501 -0.0538
  427MOL0     C57514   5.116   5.095  11.012 -1.1779 -0.9382  0.2753
  427MOL0     C57515   5.100   5.223  10.962  0.7646 -0.9289  0.7502
  427MOL0     C57516   4.975   5.259  10.909  0.0252  0.5666  0.5582
  427MOL0     C57517   4.874   5.167  10.906 -0.4374 -0.3501  0.3554
  427MOL0     O57518   4.754   5.196  10.862 -0.3106 -0.4842 -0.0238
  427MOL0     C57519   4.664   5.246  10.969  0.4038  0.5279  0.3211
  427MOL0     C57520   4.561   5.151  11.017 -0.4436 -0.1287  0.1449
  427MOL0     C57521   4.465   5.090  10.915 -0.1412  0.9833 -0.8528
  427MOL0     C57522   4.387   5.189  10.839  0.3623 -0.9589 -0.0037
  427MOL0     C57523   4.266   5.119  10.754 -0.7986  0.6006  0.6535
  427MOL0     C57524   4.165   5.226  10.700  0.6938  0.1534 -0.0878
  427MOL0     C57525   4.227   5.332  10.625 -0.3488  0.3542 -0.5689
  427MOL0     C57526   4.150   5.385  10.512  0.2063  0.1093  0.3989
  427MOL0     N57527   4.136   5.289  10.403  0.4250 -0.0249 -0.3843
  427MOL0     C57528   4.025   5.211  10.386 -0.1671  0.6350  0.4381
  427MOL0     C57529   4.044   5.129  10.282  0.9763  0.2457 -0.4065
  427MOL0     C57530   3.955   5.015  10.235  0.0269  0.2234  0.3805
  427MOL0     C57531   3.924   4.902  10.338  1.6931  0.3292  0.0598
  427MOL0     C57532   4.046   4.846  10.415 -0.0797 -0.7492 -0.5251
  427MOL0     C57533   4.130   4.772  10.319 -0.0580  0.1874  0.2249
  427MOL0     O57534   4.225   4.681  10.392 -0.4797  0.7944  0.1236
  427MOL0     C57535   4.279   4.577  10.326 -0.6353  0.4371 -0.4728
  427MOL0     C57536   4.375   4.507  10.401  0.7790  0.2433  0.0467
  427MOL0     C57537   4.437   4.395  10.352  0.7438  0.3866 -1.2064
  427MOL0     C57538   4.408   4.342  10.222  0.4998 -0.2147  0.3172
  427MOL0     C57539   4.475   4.226  10.165 -0.3360 -0.5705 -0.6504
  427MOL0     O57540   4.561   4.160  10.249 -0.7636 -0.3502 -0.5037
  427MOL0     C57541   4.632   4.054  10.216 -0.1617  0.8657 -0.5748
  427MOL0     C57542   4.733   4.026  10.312 -0.3098  0.8793  0.1694
  427MOL0     C57543   4.828   3.927  10.280  0.0791  0.2197 -0.2231
  427MOL0     C57544   4.817   3.843  10.162  0.5760 -0.0862 -0.1851
  427MOL0     O57545   4.911   3.760  10.123 -0.4869 -0.3232 -0.0365
  427MOL0     C57546   5.052   3.792  10.152  0.6633 -0.2124 -0.2726
  427MOL0     C57547   5.139   3.727  10.049 -0.6271 -0.1708 -0.4279
  427MOL0     C57548   5.281   3.708  10.091  0.3034  0.1675 -0.3013
  427MOL0     C57549   5.381   3.665   9.983  0.1904  0.0490  0.5142
  427MOL0     C57550   5.525   3.678  10.049  0.0406  0.4272  0.1059
  427MOL0     C57551   5.627   3.641   9.933  0.3081 -0.2789 -1.0859
  427MOL0     C57552   5.761   3.632   9.990 -0.7021  0.1212 -0.6353
  427MOL0     C57553   5.814   3.766  10.026 -0.4002 -0.7993  0.3572
  427MOL0    Cl57554   5.989   3.759  10.071 -0.2305 -0.2602  0.0121
  427MOL0     C57555   4.702   3.857  10.082 -1.3341 -0.4621 -0.0931
  427MOL0     C57556   4.615   3.964  10.110 -0.5936 -0.6659  0.8879
  427MOL0     O57557   4.449   4.190  10.054  0.0810 -0.0246  0.3408
  427MOL0     C57558   4.325   4.418  10.145 -0.8969  0.0639 -0.3796
  427MOL0     C57559   4.257   4.534  10.192  0.0955  0.2754 -0.0279
  427MOL0     N57560   4.164   5.160  10.228 -0.1963 -0.0832  0.2919
  427MOL0     N57561   4.212   5.266  10.287  0.4102  0.3160 -0.9350
  427MOL0     C57562   4.888   5.043  10.945  0.2296  0.6978  0.4661
  427MOL0     C57563   5.015   5.000  10.996  0.6192 -0.4708  0.0624
  427MOL0     C57564   5.448   4.937  11.050 -0.2224  0.5627  0.0107
  427MOL0     C57565   5.528   4.859  10.965  0.3065 -0.8929 -0.2511
  427MOL0     C57566   5.650   4.811  11.002  0.3533 -0.4821 -0.3099
  427MOL0     C57567   5.687   4.825  11.140  0.0795  0.1806 -0.6962
  427MOL0     O57568   5.809   4.774  11.171  0.0736 -1.4340  0.0302
  427MOL0     C57569   5.872   4.784  11.302  0.0980 -0.3898 -0.5100
  427MOL0     C57570   6.006   4.707  11.303 -0.5518 -1.3321 -0.3243
  427MOL0     C57571   6.014   4.567  11.276 -0.4906  0.2113 -0.2100
  427MOL0     C57572   6.160   4.514  11.275  0.2300 -0.3029 -0.2049
  427MOL0     C57573   6.176   4.400  11.189 -0.0526 -0.8253 -0.0758
  427MOL0     C57574   6.189   4.324  11.096  0.1239 -0.3608  0.4847
  427MOL0     C57575   5.605   4.884  11.232  0.0121 -0.5343  0.7819
  427MOL0     C57576   5.494   4.946  11.189  0.9637  0.5783 -0.4994
  427MOL0     C57577   5.438   5.053  11.287  0.3664  0.2127  0.1037
  427MOL0     H57578   5.181   5.295  10.965 -0.4965  0.8322 -2.3892
  427MOL0     H57579   4.957   5.354  10.861  1.2649  1.8444  2.4885
  427MOL0     H57580   4.712   5.275  11.062 -2.3223  0.0095  2.0166
  427MOL0     H57581   4.614   5.333  10.924 -2.8540 -0.9800  0.7543
  427MOL0     H57582   4.502   5.214  11.085 -4.4873 -1.4402 -1.8138
  427MOL0     H57583   4.610   5.072  11.075  2.6370  2.1126  0.9061
  427MOL0     H57584   4.387   5.033  10.967 -0.0595 -1.5262 -3.1994
  427MOL0     H57585   4.526   5.032  10.845 -0.7624  1.6170 -1.9547
  427MOL0     H57586   4.351   5.271  10.901  0.5008  2.3148 -3.8062
  427MOL0     H57587   4.449   5.235  10.761 -0.5977  1.5109  0.5991
  427MOL0     H57588   4.303   5.061  10.669 -4.2696 -1.4815  0.3473
  427MOL0     H57589   4.218   5.038  10.810  0.2643  0.9659  2.1364
  427MOL0     H57590   4.100   5.164  10.637  0.5972 -2.5696  2.5052
  427MOL0     H57591   4.101   5.266  10.779  0.5830 -0.2225  0.0150
  427MOL0     H57592   4.322   5.301  10.581 -0.2165  1.7354 -1.2887
  427MOL0     H57593   4.239   5.422  10.686  3.3109  1.1138 -2.1602
  427MOL0     H57594   4.061   5.416  10.567 -0.1183  1.1436 -0.6683
  427MOL0     H57595   4.177   5.485  10.477 -3.4597  1.1766  0.2108
  427MOL0     H57596   3.947   5.198  10.461 -3.4857  1.3368 -2.6192
  427MOL0     H57597   3.859   5.056  10.204 -0.2091  0.8756  1.9006
  427MOL0     H57598   4.000   4.981  10.141  0.4384  2.9542 -0.4916
  427MOL0     H57599   3.844   4.955  10.391  1.6113  4.1367 -3.3837
  427MOL0     H57600   3.881   4.815  10.288 -0.0714  1.9201 -1.3355
  427MOL0     H57601   4.018   4.780  10.498 -0.8447  1.9540  1.5086
  427MOL0     H57602   4.102   4.931  10.455  1.5984 -1.8332 -0.4331
  427MOL0     H57603   4.174   4.850  10.256  0.8599  0.8898  1.6786
  427MOL0     H57604   4.068   4.707  10.257  0.0582 -0.0114  0.3144
  427MOL0     H57605   4.389   4.538  10.504  2.1080  0.3307 -0.1443
  427MOL0     H57606   4.502   4.338  10.418 -0.1023  0.3551 -0.3776
  427MOL0     H57607   4.735   4.085  10.403  0.7876  0.6180  0.3265
  427MOL0     H57608   4.895   3.910  10.364 -2.3062  0.9053  1.9660
  427MOL0     H57609   5.075   3.898  10.159 -0.4973  0.1531 -1.6250
  427MOL0     H57610   5.070   3.741  10.247  0.4746  0.3315  0.0578
  427MOL0     H57611   5.101   3.625  10.036 -1.8706  0.4648 -2.1563
  427MOL0     H57612   5.128   3.776   9.952 -0.7686 -0.6544 -0.6584
  427MOL0     H57613   5.306   3.809  10.124 -1.2817  0.6039 -0.3343
  427MOL0     H57614   5.293   3.650  10.183  1.0155 -0.1247 -0.5676
  427MOL0     H57615   5.374   3.737   9.901  2.0119 -2.5545 -2.1433
  427MOL0     H57616   5.347   3.570   9.942 -1.0269  0.6469  0.0995
  427MOL0     H57617   5.528   3.600  10.126  0.3671 -3.2178 -3.2606
  427MOL0     H57618   5.546   3.779  10.087  2.2371  1.0386 -2.4562
  427MOL0     H57619   5.586   3.552   9.883 -1.9235  0.4852 -0.7345
  427MOL0     H57620   5.640   3.722   9.861  0.9667 -0.1630 -0.8357
  427MOL0     H57621   5.835   3.591   9.921 -0.7152  0.9844 -1.1839
  427MOL0     H57622   5.763   3.563  10.074 -0.1392  0.0383 -0.7144
  427MOL0     H57623   5.803   3.826   9.935 -0.6863  0.8239  1.4115
  427MOL0     H57624   5.755   3.822  10.099  0.2894  1.9374 -1.0574
  427MOL0     H57625   4.711   3.795   9.993  2.0571  0.9005 -0.8546
  427MOL0     H57626   4.527   3.972  10.046  1.0823  1.8376 -1.2999
  427MOL0     H57627   4.311   4.383  10.043 -2.5546 -3.3490  0.8582
  427MOL0     H57628   4.199   4.594  10.122 -0.1087 -2.6995 -2.6186
  427MOL0     H57629   4.807   4.972  10.935  1.0348 -0.2984  0.8432
  427MOL0     H57630   5.036   4.899  11.030  1.7316  0.5543  2.6630
  427MOL0     H57631   5.513   4.855  10.857 -0.1279 -0.3739 -0.2124
  427MOL0     H57632   5.691   4.738  10.934 -2.0144 -0.9974 -1.2997
  427MOL0     H57633   5.807   4.742  11.379  0.7791 -0.2109  0.1727
  427MOL0     H57634   5.886   4.891  11.321 -1.6731  0.4724 -3.3136
  427MOL0     H57635   6.048   4.738  11.399  0.5153  1.2243 -1.5435
  427MOL0     H57636   6.073   4.759  11.234  0.6382 -2.0146  0.2762
  427MOL0     H57637   5.963   4.555  11.180 -0.8191 -0.5120  0.0500
  427MOL0     H57638   5.953   4.502  11.340  1.2278 -2.6246 -1.2904
  427MOL0     H57639   6.235   4.592  11.261  0.8989 -0.6580  1.2529
  427MOL0     H57640   6.179   4.472  11.374  1.6225 -1.4154 -0.8973
  427MOL0     H57641   6.171   4.258  11.014  3.0143  0.4523 -0.9043
  427MOL0     H57642   5.624   4.912  11.335 -2.7035 -0.3090  1.3028
  427MOL0     H57643   5.332   5.028  11.301  0.4001 -0.7192 -1.1161
  427MOL0     H57644   5.489   5.055  11.383  1.1734 -1.7051 -0.2447
  427MOL0     H57645   5.443   5.150  11.236  0.0296 -0.4910 -1.3160
  428MOL0     O57646   0.486   5.065   8.693 -0.4946  0.7552 -0.0209
  428MOL0     C57647   0.503   4.972   8.616  0.3701  0.3629  0.1484
  428MOL0     O57648   0.403   4.923   8.535 -0.2176  0.2401 -0.5370
  428MOL0     C57649   0.282   4.962   8.548 -0.5201 -0.0089 -0.4980
  428MOL0     C57650   0.201   4.921   8.649  1.0732 -1.8428 -0.0215
  428MOL0     C57651   0.073   4.965   8.661  0.0367  0.7766  0.9119
  428MOL0     C57652   0.020   5.055   8.566  0.3941 -0.2464 -0.8598
  428MOL0     O57653  -0.102   5.105   8.600  0.2325 -0.2848  0.2333
  428MOL0     C57654  -0.107   5.245   8.570  0.1635 -0.5998 -0.5957
  428MOL0     C57655  -0.247   5.296   8.603  0.0691 -0.1845 -0.6503
  428MOL0     C57656  -0.269   5.437   8.552  0.0152 -0.9112 -0.0397
  428MOL0     C57657  -0.416   5.475   8.550  0.8883 -0.5448  0.4864
  428MOL0     C57658  -0.505   5.389   8.455 -1.3622 -0.5052  0.2910
  428MOL0     C57659  -0.641   5.455   8.413  0.1938 -0.2540  0.6817
  428MOL0     C57660  -0.741   5.459   8.516  0.9297  0.0820 -1.0357
  428MOL0     C57661  -0.806   5.311   8.536  1.1613 -0.2319  0.0241
  428MOL0     N57662  -0.883   5.262   8.413  0.0399  0.2410 -0.5747
  428MOL0     C57663  -0.973   5.153   8.405 -0.2500 -1.3968 -0.6659
  428MOL0     C57664  -1.046   5.173   8.291  0.4891  0.2128 -0.6014
  428MOL0     C57665  -1.173   5.102   8.243  0.2230 -0.6064 -0.3143
  428MOL0     C57666  -1.151   4.950   8.238 -0.1955  0.6055 -0.1870
  428MOL0     C57667  -1.275   4.885   8.175  0.0060  0.8912  0.6768
  428MOL0     C57668  -1.283   4.730   8.217 -0.4210 -0.2183  0.0423
  428MOL0     O57669  -1.158   4.669   8.187 -0.3096  0.0708 -0.0785
  428MOL0     C57670  -1.146   4.537   8.195 -0.3672 -0.7128  0.3997
  428MOL0     C57671  -1.032   4.481   8.132 -0.4545  0.0175  0.4713
  428MOL0     C57672  -1.011   4.343   8.120 -0.4532 -0.1270 -0.3766
  428MOL0     C57673  -1.103   4.253   8.174  0.3775 -0.0611  0.3103
  428MOL0     C57674  -1.090   4.105   8.162 -0.1377  0.2979  0.3429
  428MOL0     O57675  -0.972   4.061   8.094  0.4176  0.2609 -0.4936
  428MOL0     C57676  -0.956   3.927   8.084  0.6496  0.6740 -0.0548
  428MOL0     C57677  -1.002   3.822   8.165  0.5089  0.4387  0.0575
  428MOL0     C57678  -0.981   3.685   8.135  0.4279  0.4010  0.4356
  428MOL0     C57679  -0.909   3.658   8.022  0.2227 -0.5935 -0.3088
  428MOL0     O57680  -0.875   3.526   7.991 -0.0128 -0.5880 -0.1804
  428MOL0     C57681  -0.852   3.425   8.101  0.2443 -0.1312  0.5680
  428MOL0     C57682  -0.922   3.290   8.077 -1.5947 -0.4380  0.2364
  428MOL0     C57683  -0.864   3.200   8.190 -0.5686  0.1207 -0.2343
  428MOL0     C57684  -0.923   3.052   8.182 -0.0125 -0.0415  0.1619
  428MOL0     C57685  -0.853   2.966   8.071 -0.5238 -0.0926 -0.3119
  428MOL0     C57686  -0.721   2.912   8.125 -0.8356  0.6954  0.4282
  428MOL0     C57687  -0.642   2.838   8.012 -0.5256 -0.3120 -0.3051
  428MOL0     C57688  -0.488   2.806   8.026  0.1351  0.0446 -0.0753
  428MOL0    Cl57689  -0.483   2.657   8.143 -0.0292  0.1598  0.1309
  428MOL0     C57690  -0.852   3.752   7.941  0.2124 -0.2532  0.3935
  428MOL0     C57691  -0.883   3.887   7.968  0.0958 -0.9838 -0.7543
  428MOL0     O57692  -1.179   4.037   8.200  0.0627  0.1400 -0.4289
  428MOL0     C57693  -1.219   4.310   8.231  1.0711  1.0708 -0.2976
  428MOL0     C57694  -1.244   4.445   8.241  0.3143 -0.3172  0.0335
  428MOL0     N57695  -0.998   5.286   8.234 -0.7052  0.4895 -0.6790
  428MOL0     N57696  -0.900   5.335   8.304  0.2459  0.3914  0.0208
  428MOL0     C57697   0.093   5.096   8.460 -0.9629  0.1536  0.2636
  428MOL0     C57698   0.227   5.048   8.450  0.5214  0.0937  0.2001
  428MOL0     C57699   0.647   4.926   8.614 -0.5367  0.9705  0.0935
  428MOL0     C57700   0.724   4.928   8.487 -0.4891  0.7441 -0.1907
  428MOL0     C57701   0.852   4.889   8.485  0.0355  0.9056 -0.0311
  428MOL0     C57702   0.910   4.846   8.604  0.6763 -0.9240  0.0050
  428MOL0     O57703   1.034   4.800   8.625 -0.7640 -0.3774  0.4707
  428MOL0     C57704   1.141   4.873   8.557 -0.2479  0.0354 -0.4045
  428MOL0     C57705   1.268   4.846   8.629 -0.2878  0.3082  0.2607
  428MOL0     C57706   1.318   4.705   8.590 -0.5463 -0.0883 -0.2786
  428MOL0     C57707   1.357   4.653   8.446 -0.4514  0.0836 -0.1025
  428MOL0     C57708   1.267   4.546   8.395 -0.6719  0.3778 -0.0132
  428MOL0     C57709   1.205   4.454   8.342  1.3789 -1.1716 -1.2304
  428MOL0     C57710   0.842   4.828   8.724  0.4243  0.9817 -0.4204
  428MOL0     C57711   0.707   4.878   8.732 -0.1918 -0.3431  0.5561
  428MOL0     C57712   0.638   4.848   8.867  0.6735  0.1570 -0.6478
  428MOL0     H57713   0.243   4.857   8.727  3.6150  1.7371  1.8207
  428MOL0     H57714   0.019   4.932   8.749 -3.7693  1.3473 -0.9893
  428MOL0     H57715  -0.033   5.303   8.626  0.2207 -0.8463 -0.4137
  428MOL0     H57716  -0.085   5.267   8.465  1.1242  2.5057  0.1535
  428MOL0     H57717  -0.275   5.301   8.708 -0.3659  0.8423 -0.8088
  428MOL0     H57718  -0.311   5.224   8.550 -1.2196  0.4181  0.0404
  428MOL0     H57719  -0.240   5.434   8.446  0.4470 -1.8829  0.0985
  428MOL0     H57720  -0.217   5.522   8.597 -0.2014  0.4142 -2.1300
  428MOL0     H57721  -0.460   5.454   8.648 -0.9191 -3.1245 -0.7658
  428MOL0     H57722  -0.426   5.578   8.515 -1.5173 -1.4258 -1.7099
  428MOL0     H57723  -0.447   5.381   8.362 -0.0533  1.0957  0.9178
  428MOL0     H57724  -0.520   5.287   8.489 -0.8203 -0.2031  1.4865
  428MOL0     H57725  -0.623   5.554   8.371 -1.4657 -0.6105 -1.0410
  428MOL0     H57726  -0.669   5.394   8.326 -2.2355 -0.5331  1.5924
  428MOL0     H57727  -0.824   5.529   8.499  0.9014  1.0973  2.5481
  428MOL0     H57728  -0.689   5.492   8.606 -0.5231  1.0473 -0.5113
  428MOL0     H57729  -0.734   5.231   8.555  2.0224  0.4226 -0.3745
  428MOL0     H57730  -0.867   5.322   8.626  0.7711  2.1896 -0.4525
  428MOL0     H57731  -0.984   5.077   8.482  1.8143 -2.4506 -1.3127
  428MOL0     H57732  -1.241   5.118   8.326  0.2604 -0.4158 -0.3199
  428MOL0     H57733  -1.224   5.125   8.149 -1.2827  1.0730  0.8404
  428MOL0     H57734  -1.066   4.924   8.175  0.1459 -1.3409  1.0051
  428MOL0     H57735  -1.128   4.908   8.336 -0.1765  0.9486 -0.0407
  428MOL0     H57736  -1.272   4.887   8.066  3.4366  0.4200  0.6539
  428MOL0     H57737  -1.364   4.943   8.203  1.6779  3.0546  1.8925
  428MOL0     H57738  -1.367   4.687   8.162 -0.8001  1.8528 -1.1261
  428MOL0     H57739  -1.303   4.712   8.324  3.1956  1.4209  1.1406
  428MOL0     H57740  -0.949   4.535   8.088 -0.9435  1.3675  1.1610
  428MOL0     H57741  -0.923   4.299   8.074  0.6924  2.0751 -0.4666
  428MOL0     H57742  -1.072   3.856   8.241  0.2713  1.7149 -0.6957
  428MOL0     H57743  -1.019   3.611   8.205  0.9377  0.6710  1.0102
  428MOL0     H57744  -0.744   3.415   8.087  0.1902 -1.9736  1.1270
  428MOL0     H57745  -0.859   3.452   8.207 -0.8128 -0.3108  0.5554
  428MOL0     H57746  -1.030   3.306   8.071 -1.2698  2.8435  1.0184
  428MOL0     H57747  -0.889   3.259   7.977 -0.1649  0.0405  0.5358
  428MOL0     H57748  -0.755   3.200   8.188 -0.5059 -1.3220  1.2653
  428MOL0     H57749  -0.903   3.227   8.289  0.3418  1.4283 -0.2033
  428MOL0     H57750  -1.032   3.049   8.176  0.0125  0.2624 -0.5535
  428MOL0     H57751  -0.911   3.011   8.283 -4.1510  0.1916  0.9252
  428MOL0     H57752  -0.853   3.022   7.977 -2.3638  0.9919  0.2825
  428MOL0     H57753  -0.905   2.878   8.030  0.4304 -1.6741  1.6793
  428MOL0     H57754  -0.656   2.994   8.156  0.3454  0.7844 -2.0395
  428MOL0     H57755  -0.743   2.845   8.209  1.3158 -1.8924 -0.8792
  428MOL0     H57756  -0.655   2.899   7.922 -1.7457  2.6104  1.6943
  428MOL0     H57757  -0.696   2.745   7.989 -2.6081  0.7381  0.0478
  428MOL0     H57758  -0.439   2.785   7.931  1.0319 -1.5966  0.6864
  428MOL0     H57759  -0.439   2.900   8.054  0.5076  0.3933 -1.8148
  428MOL0     H57760  -0.782   3.731   7.861  1.8493 -1.1719  2.0032
  428MOL0     H57761  -0.855   3.962   7.894 -3.4842  1.5035  0.1229
  428MOL0     H57762  -1.289   4.242   8.280  3.6215 -1.3475  0.2955
  428MOL0     H57763  -1.340   4.476   8.280 -0.6386  0.1922 -2.4879
  428MOL0     H57764   0.069   5.173   8.387  0.3906  4.6587  4.0803
  428MOL0     H57765   0.289   5.072   8.364 -1.4866 -2.3649 -2.1222
  428MOL0     H57766   0.679   4.963   8.395 -4.2332  1.6571  1.7397
  428MOL0     H57767   0.904   4.891   8.390  0.1358  3.0123  0.0089
  428MOL0     H57768   1.120   4.981   8.565 -0.5892 -0.1094  1.1099
  428MOL0     H57769   1.150   4.840   8.454 -0.2881 -0.6308 -0.1965
  428MOL0     H57770   1.250   4.846   8.737  1.3255  1.4805  0.5667
  428MOL0     H57771   1.339   4.927   8.615  0.9485 -0.9872 -1.4605
  428MOL0     H57772   1.253   4.625   8.627  2.0466 -2.6797 -0.9671
  428MOL0     H57773   1.417   4.712   8.636 -0.0714 -0.4087 -1.2224
  428MOL0     H57774   1.357   4.737   8.376  1.9574  0.5283  0.3544
  428MOL0     H57775   1.461   4.620   8.445 -0.6362 -0.5068  0.2061
  428MOL0     H57776   1.156   4.364   8.312 -4.4684  0.2452  2.4717
  428MOL0     H57777   0.895   4.797   8.814 -2.7261 -0.8078  0.9689
  428MOL0     H57778   0.558   4.774   8.855  1.1726 -0.2452 -1.5055
  428MOL0     H57779   0.694   4.794   8.944 -1.6147 -0.0523  0.9860
  428MOL0     H57780   0.595   4.940   8.909  2.7795  1.8488 -1.9920
  429MOL0     O57781   1.557  10.189   8.285 -0.0417  0.0922 -0.5073
  429MOL0     C57782   1.637  10.130   8.354 -0.9448 -0.3739  0.1237
  429MOL0     O57783   1.732  10.041   8.302  0.0377  0.0050  0.0056
  429MOL0     C57784   1.715  10.003   8.170 -0.4276 -0.2793 -0.2165
  429MOL0     C57785   1.761  10.092   8.075  0.0276  0.0753  0.8342
  429MOL0     C57786   1.780  10.055   7.936  0.2606  0.0393 -0.9711
  429MOL0     C57787   1.761   9.922   7.896  0.1151  0.1677  0.0842
  429MOL0     O57788   1.783   9.887   7.761 -0.5338  0.0040  0.0910
  429MOL0     C57789   1.915   9.917   7.717  0.4592  0.6007  0.0816
  429MOL0     C57790   1.919   9.871   7.568 -0.6619 -0.7116  1.1835
  429MOL0     C57791   1.900   9.719   7.546 -1.0700 -0.1707 -0.0172
  429MOL0     C57792   1.982   9.624   7.638 -0.2174 -0.1688  0.2616
  429MOL0     C57793   1.934   9.473   7.613 -0.1402  0.8453  0.3579
  429MOL0     C57794   1.827   9.439   7.712  0.5357  0.2615 -1.0034
  429MOL0     C57795   1.778   9.293   7.687  0.0286 -0.3127 -0.2347
  429MOL0     C57796   1.638   9.261   7.722 -0.8206  0.9373 -1.1409
  429MOL0     N57797   1.621   9.293   7.865  0.1290  0.0456 -0.2507
  429MOL0     C57798   1.554   9.407   7.905 -0.4031 -0.0924 -1.3094
  429MOL0     C57799   1.538   9.389   8.040 -0.3816 -0.1918 -0.2146
  429MOL0     C57800   1.488   9.498   8.131  0.0353  0.2656 -0.3766
  429MOL0     C57801   1.358   9.458   8.208  0.1704  0.4514  0.8192
  429MOL0     C57802   1.304   9.581   8.274 -0.7469  0.0081  0.4269
  429MOL0     C57803   1.183   9.545   8.359  0.6630  0.1218  0.4073
  429MOL0     O57804   1.065   9.521   8.284 -0.2094 -0.7156  0.3516
  429MOL0     C57805   0.951   9.481   8.347 -0.1367  0.3871 -0.9954
  429MOL0     C57806   0.844   9.447   8.263 -0.6738  0.0944  0.9082
  429MOL0     C57807   0.714   9.432   8.314  0.4228 -0.2160  1.5636
  429MOL0     C57808   0.686   9.442   8.446  0.4365 -0.8214 -1.3181
  429MOL0     C57809   0.544   9.423   8.501  0.2975  0.1087 -0.1833
  429MOL0     O57810   0.450   9.356   8.428 -0.2173 -0.4475  0.6640
  429MOL0     C57811   0.340   9.304   8.491 -0.5246  0.2065  0.0299
  429MOL0     C57812   0.349   9.219   8.600 -0.2810  0.8736  0.1571
  429MOL0     C57813   0.242   9.172   8.685 -0.5000 -0.3718  0.1412
  429MOL0     C57814   0.115   9.220   8.650  0.2503 -0.1717 -0.3244
  429MOL0     O57815  -0.013   9.192   8.691  0.3560  0.9635 -0.4622
  429MOL0     C57816  -0.029   9.106   8.804 -0.7301 -0.1070  0.2957
  429MOL0     C57817  -0.177   9.138   8.845 -0.7313  0.2545 -0.5895
  429MOL0     C57818  -0.225   9.061   8.964  0.2403  0.0543 -0.5230
  429MOL0     C57819  -0.356   9.117   9.022  0.9264  0.2247  0.0977
  429MOL0     C57820  -0.377   9.075   9.170 -0.5123  0.0181  0.0694
  429MOL0     C57821  -0.308   9.162   9.283  0.0021 -0.6760  0.0669
  429MOL0     C57822  -0.376   9.158   9.421 -0.8562  0.2574  0.5506
  429MOL0     C57823  -0.298   9.251   9.527  0.0913  0.1518  0.1000
  429MOL0    Cl57824  -0.351   9.199   9.690 -0.2262  0.0097  0.0436
  429MOL0     C57825   0.111   9.318   8.555 -0.6264 -0.1190  0.3861
  429MOL0     C57826   0.215   9.363   8.472  0.0469  0.3025 -0.0705
  429MOL0     O57827   0.533   9.454   8.626  0.3314 -0.0607 -0.8170
  429MOL0     C57828   0.796   9.462   8.537 -0.0081 -0.8438 -0.3232
  429MOL0     C57829   0.930   9.476   8.486 -0.8084  0.1688  0.3679
  429MOL0     N57830   1.578   9.267   8.074 -0.4109  0.6805  1.0729
  429MOL0     N57831   1.627   9.206   7.972 -0.4544  0.4614 -0.0821
  429MOL0     C57832   1.708   9.829   7.985 -0.0811 -0.1618 -0.7796
  429MOL0     C57833   1.686   9.867   8.128  0.3212 -0.0232  0.5903
  429MOL0     C57834   1.647  10.137   8.505  0.0798 -0.5719  0.6428
  429MOL0     C57835   1.758  10.101   8.574 -0.2147 -0.2448 -0.2205
  429MOL0     C57836   1.759  10.096   8.714 -0.2549 -0.6557 -0.3940
  429MOL0     C57837   1.654  10.154   8.792  0.0889  0.0193 -0.7862
  429MOL0     O57838   1.654  10.150   8.928  0.3664 -0.0118  0.3243
  429MOL0     C57839   1.666  10.019   8.987  0.3970  0.2963  0.0997
  429MOL0     C57840   1.571  10.001   9.105 -0.5227  0.4116  0.1129
  429MOL0     C57841   1.418  10.035   9.085 -0.9125  0.8007 -0.1379
  429MOL0     C57842   1.365   9.937   8.980  0.4645 -0.2727 -0.1720
  429MOL0     C57843   1.258   9.999   8.912 -0.1792 -0.7506 -0.1868
  429MOL0     C57844   1.171  10.055   8.853  0.1580 -0.2063 -0.2247
  429MOL0     C57845   1.540  10.199   8.725  0.3493  0.8212 -0.3817
  429MOL0     C57846   1.534  10.192   8.582 -0.0025  0.0027  0.2675
  429MOL0     C57847   1.399  10.237   8.530 -0.3489  0.1245  0.0402
  429MOL0     H57848   1.781  10.193   8.108  0.0830  0.2540  0.2619
  429MOL0     H57849   1.824  10.126   7.866 -1.3473 -0.9947 -3.1304
  429MOL0     H57850   1.922  10.026   7.722 -2.9193  0.9636 -0.4583
  429MOL0     H57851   1.988   9.849   7.762  1.0864  0.4507 -1.1428
  429MOL0     H57852   2.012   9.895   7.515 -0.7723 -0.0552  1.2738
  429MOL0     H57853   1.834   9.910   7.511 -1.3372 -1.2731  1.7912
  429MOL0     H57854   1.928   9.702   7.442 -1.4853  0.1797 -0.1911
  429MOL0     H57855   1.795   9.691   7.560 -1.2668 -1.0158 -2.6843
  429MOL0     H57856   2.087   9.623   7.608 -0.4658 -1.6490 -0.6840
  429MOL0     H57857   1.977   9.631   7.747 -1.0145 -2.4362  0.4302
  429MOL0     H57858   1.896   9.458   7.511 -1.7368 -0.9330  1.1779
  429MOL0     H57859   2.008   9.399   7.642 -0.5859 -0.9115 -2.5718
  429MOL0     H57860   1.858   9.437   7.817  0.6895  2.6584 -0.9638
  429MOL0     H57861   1.753   9.516   7.692  0.1006 -0.0838 -0.7323
  429MOL0     H57862   1.833   9.228   7.756  0.6748 -0.3272 -0.7563
  429MOL0     H57863   1.792   9.276   7.580 -1.9599  3.2403 -1.2335
  429MOL0     H57864   1.569   9.310   7.653 -2.4902 -1.5893 -1.4154
  429MOL0     H57865   1.629   9.152   7.711  2.0841  0.3327  1.1547
  429MOL0     H57866   1.548   9.504   7.857  0.1593  0.0982 -0.9988
  429MOL0     H57867   1.561   9.538   8.202 -0.9449 -1.2149  1.5694
  429MOL0     H57868   1.454   9.582   8.070 -0.6252  1.4837  1.5692
  429MOL0     H57869   1.277   9.416   8.147  2.4229 -1.2380 -1.2320
  429MOL0     H57870   1.391   9.391   8.288  0.4816  1.3867  1.4838
  429MOL0     H57871   1.276   9.664   8.208 -3.5296 -0.3658  0.9995
  429MOL0     H57872   1.383   9.622   8.337  2.4323 -0.6809 -2.8061
  429MOL0     H57873   1.154   9.621   8.432 -1.8893 -1.0447  0.7177
  429MOL0     H57874   1.208   9.459   8.422  1.5871  1.7367  2.3732
  429MOL0     H57875   0.867   9.439   8.157  0.6550 -2.1618  1.2904
  429MOL0     H57876   0.630   9.418   8.247  1.3404 -2.3461  0.7932
  429MOL0     H57877   0.447   9.178   8.618 -1.2491 -0.3414  3.2711
  429MOL0     H57878   0.255   9.101   8.766  1.0180 -0.4679 -0.1645
  429MOL0     H57879  -0.015   9.004   8.769 -0.7284  0.6669 -2.1496
  429MOL0     H57880   0.042   9.118   8.887 -0.6789  0.9123  0.1131
  429MOL0     H57881  -0.186   9.246   8.852  2.2431  0.4801  2.6180
  429MOL0     H57882  -0.235   9.106   8.758 -1.5016 -1.7763  0.5922
  429MOL0     H57883  -0.242   8.959   8.930 -2.0197 -1.1242  3.4821
  429MOL0     H57884  -0.149   9.058   9.043  1.8230  0.0561 -1.9898
  429MOL0     H57885  -0.438   9.068   8.969  0.4044 -0.8395  1.8037
  429MOL0     H57886  -0.368   9.224   9.002  0.8633  0.0432 -0.8735
  429MOL0     H57887  -0.342   8.971   9.174  0.3650  0.2304 -1.3479
  429MOL0     H57888  -0.485   9.068   9.184 -0.7825  0.2589 -1.6901
  429MOL0     H57889  -0.205   9.126   9.284  0.5374  0.7473 -0.7568
  429MOL0     H57890  -0.310   9.267   9.252 -0.8811 -0.5167  0.6143
  429MOL0     H57891  -0.372   9.055   9.459 -0.3238  0.5554  1.3349
  429MOL0     H57892  -0.480   9.190   9.412 -0.5713  1.1187  0.2576
  429MOL0     H57893  -0.190   9.237   9.529 -0.1603 -2.3836 -0.1145
  429MOL0     H57894  -0.327   9.353   9.502 -1.7546 -0.6217 -1.1695
  429MOL0     H57895   0.011   9.357   8.540 -0.1756 -0.0514 -3.5055
  429MOL0     H57896   0.201   9.443   8.400  0.1907 -1.5563 -2.2606
  429MOL0     H57897   0.775   9.471   8.643  0.6977  0.3382 -0.2635
  429MOL0     H57898   1.010   9.501   8.555 -1.0399  0.0718  0.6734
  429MOL0     H57899   1.696   9.731   7.940 -0.5375 -0.1768 -0.6395
  429MOL0     H57900   1.663   9.788   8.198 -0.7137 -1.9569 -1.7695
  429MOL0     H57901   1.849  10.066   8.525  1.4589 -0.0750  2.5655
  429MOL0     H57902   1.846  10.062   8.769  0.5190  1.5889 -0.1347
  429MOL0     H57903   1.769  10.012   9.024  1.7639 -2.0288 -3.5823
  429MOL0     H57904   1.660   9.942   8.910  2.4767  1.4192 -1.3245
  429MOL0     H57905   1.611  10.071   9.178 -2.0928  0.9296  0.5107
  429MOL0     H57906   1.585   9.905   9.156  0.9958 -0.5000 -1.8848
  429MOL0     H57907   1.405  10.142   9.069  1.5624  1.2361  0.3147
  429MOL0     H57908   1.354  10.018   9.172 -2.6728 -1.4456 -1.7610
  429MOL0     H57909   1.437   9.899   8.908  1.0080  1.8998 -0.8405
  429MOL0     H57910   1.316   9.850   9.026 -0.5607 -0.3047 -1.2605
  429MOL0     H57911   1.097  10.110   8.799 -0.4859  1.0918  1.8930
  429MOL0     H57912   1.456  10.244   8.777 -0.3720 -0.9169  0.0512
  429MOL0     H57913   1.400  10.342   8.501 -0.4895  0.6136  1.7161
  429MOL0     H57914   1.359  10.176   8.449 -0.9884 -1.2163  1.3019
  429MOL0     H57915   1.314  10.225   8.598  0.9359 -3.2022  1.2800
  430MOL0     O57916   6.865   4.042   1.424 -0.1230 -1.3753  0.9723
  430MOL0     C57917   6.958   4.051   1.503  0.4872  0.1698 -0.4823
  430MOL0     O57918   6.938   4.106   1.636  0.2799  0.0951  0.1767
  430MOL0     C57919   6.813   4.146   1.667 -0.1956 -0.3115 -0.4314
  430MOL0     C57920   6.763   4.281   1.667  0.6036  0.4496  0.6035
  430MOL0     C57921   6.635   4.313   1.710 -0.2936  0.4575  0.2583
  430MOL0     C57922   6.546   4.212   1.755 -0.4639 -0.3284  0.3171
  430MOL0     O57923   6.416   4.239   1.812 -0.5169  0.2701 -0.7531
  430MOL0     C57924   6.371   4.375   1.824 -0.4850 -0.3129  0.1452
  430MOL0     C57925   6.217   4.369   1.852  0.4316 -0.5416  0.3347
  430MOL0     C57926   6.148   4.284   1.750  0.1302  0.4708  0.8208
  430MOL0     C57927   5.995   4.279   1.765  0.0426  1.0095 -0.8224
  430MOL0     C57928   5.931   4.201   1.657  0.5119  0.2450  0.0320
  430MOL0     C57929   5.791   4.186   1.698  0.9380  0.0681 -0.2828
  430MOL0     C57930   5.715   4.076   1.616  0.1935  0.7984 -0.2100
  430MOL0     C57931   5.711   3.949   1.692  0.7484  0.6040 -0.1709
  430MOL0     N57932   5.598   3.865   1.642  0.1800 -0.1315 -0.3865
  430MOL0     C57933   5.618   3.736   1.605 -0.2423 -0.7181  0.7406
  430MOL0     C57934   5.501   3.686   1.579  0.2382 -0.4327 -0.5200
  430MOL0     C57935   5.457   3.555   1.540  0.1298  0.1553  0.6662
  430MOL0     C57936   5.371   3.470   1.642 -0.2932  0.4506 -0.0337
  430MOL0     C57937   5.325   3.341   1.580  0.1699 -1.3448 -0.1607
  430MOL0     C57938   5.419   3.227   1.567  0.0470  0.7480  0.1059
  430MOL0     O57939   5.471   3.202   1.707 -0.1717 -0.1118  0.7317
  430MOL0     C57940   5.546   3.086   1.721 -0.3459  0.1312 -0.2947
  430MOL0     C57941   5.622   3.023   1.621 -0.6360  0.6080 -0.7013
  430MOL0     C57942   5.676   2.899   1.645 -0.4604  0.5878 -0.9337
  430MOL0     C57943   5.668   2.832   1.767  0.0250  0.7394  1.0130
  430MOL0     C57944   5.726   2.692   1.797  0.0270 -0.1752  0.3218
  430MOL0     O57945   5.705   2.635   1.914  0.1568  0.1332 -0.2414
  430MOL0     C57946   5.797   2.541   1.959 -0.1510 -0.2095  0.1666
  430MOL0     C57947   5.883   2.579   2.058 -0.4513 -0.5133  0.1250
  430MOL0     C57948   5.983   2.487   2.109  0.9223 -0.0968  0.4478
  430MOL0     C57949   5.989   2.351   2.054  0.4202 -0.1093 -0.2966
  430MOL0     O57950   6.085   2.251   2.086 -0.4672  0.0009  0.4131
  430MOL0     C57951   6.203   2.295   2.154 -0.0147  0.6779 -0.0431
  430MOL0     C57952   6.322   2.188   2.153  0.4122  0.1080 -0.2752
  430MOL0     C57953   6.274   2.045   2.162  0.1850 -0.0919  0.0438
  430MOL0     C57954   6.234   2.012   2.302  0.0453 -0.8483 -0.0277
  430MOL0     C57955   6.234   1.861   2.339 -0.7918 -0.6058  0.7969
  430MOL0     C57956   6.136   1.788   2.252 -0.4321  0.1063 -0.0113
  430MOL0     C57957   6.131   1.636   2.290 -0.3010  0.2628 -0.4602
  430MOL0     C57958   5.997   1.594   2.234 -0.4747  0.1733 -0.4534
  430MOL0    Cl57959   5.854   1.650   2.330  0.2406 -0.3616 -0.2392
  430MOL0     C57960   5.886   2.318   1.966 -0.2793  0.0714 -1.0360
  430MOL0     C57961   5.804   2.413   1.909 -1.0075 -0.1253 -0.0557
  430MOL0     O57962   5.779   2.630   1.705  0.2192 -0.2976  0.2053
  430MOL0     C57963   5.598   2.898   1.865 -0.3440 -1.2198  1.0562
  430MOL0     C57964   5.534   3.023   1.837 -0.3716  0.5987 -0.8166
  430MOL0     N57965   5.409   3.772   1.622  0.3672  0.1106 -0.3204
  430MOL0     N57966   5.464   3.882   1.666  0.5327 -0.7987 -1.2636
  430MOL0     C57967   6.601   4.079   1.754 -0.4415  0.0419 -0.8235
  430MOL0     C57968   6.728   4.042   1.708  0.0909 -0.8015 -0.6931
  430MOL0     C57969   7.086   3.990   1.469 -0.8424 -0.0514 -0.9982
  430MOL0     C57970   7.079   3.885   1.375  1.6587 -0.7667  0.0885
  430MOL0     C57971   7.202   3.830   1.338  0.2933  0.3472 -0.5729
  430MOL0     C57972   7.333   3.887   1.381  0.1503  1.0841 -0.4692
  430MOL0     O57973   7.460   3.833   1.364  0.0408 -0.2107  0.6226
  430MOL0     C57974   7.466   3.713   1.294 -0.2736  0.5956 -0.1461
  430MOL0     C57975   7.485   3.605   1.402 -0.5758 -0.3001  0.1775
  430MOL0     C57976   7.416   3.473   1.360 -0.3236 -0.4243 -0.1715
  430MOL0     C57977   7.505   3.402   1.254 -0.3819 -0.2889 -0.7297
  430MOL0     C57978   7.461   3.439   1.122  0.0758  0.5882 -0.2503
  430MOL0     C57979   7.436   3.488   1.016  0.1856 -0.0803  0.7530
  430MOL0     C57980   7.328   3.981   1.487  1.2652 -0.0010  0.5718
  430MOL0     C57981   7.206   4.031   1.534  0.1172 -0.1319 -0.4784
  430MOL0     C57982   7.205   4.145   1.629  0.2517  0.0978  0.5929
  430MOL0     H57983   6.820   4.357   1.615 -1.0359  0.8004 -0.7468
  430MOL0     H57984   6.608   4.418   1.702 -0.1368  0.4106 -1.2140
  430MOL0     H57985   6.417   4.422   1.911  0.2841 -0.4626 -0.1754
  430MOL0     H57986   6.401   4.429   1.734  0.0626 -0.1396  0.4277
  430MOL0     H57987   6.169   4.466   1.867 -1.2532 -1.1786 -0.7291
  430MOL0     H57988   6.214   4.326   1.952 -3.3598 -0.5262  0.3599
  430MOL0     H57989   6.182   4.180   1.752 -1.1625 -0.2104 -2.9631
  430MOL0     H57990   6.184   4.313   1.651  3.1919  0.5466  1.8650
  430MOL0     H57991   5.988   4.223   1.859  3.5823  0.3472 -0.7825
  430MOL0     H57992   5.942   4.374   1.776 -2.3008 -0.3170  0.1191
  430MOL0     H57993   5.931   4.260   1.565  1.1119  0.6895  0.3121
  430MOL0     H57994   5.984   4.107   1.636 -0.8594 -0.2739 -1.3061
  430MOL0     H57995   5.779   4.173   1.806 -1.5359  1.2108 -0.3316
  430MOL0     H57996   5.735   4.280   1.691 -0.0894  0.0210  4.1977
  430MOL0     H57997   5.760   4.073   1.516 -3.4990  4.1020 -2.2606
  430MOL0     H57998   5.616   4.113   1.589  0.9925  1.5894 -2.3402
  430MOL0     H57999   5.810   3.905   1.703 -0.2095 -2.1647 -1.7798
  430MOL0     H58000   5.682   3.977   1.794  0.2077 -3.5449  1.0057
  430MOL0     H58001   5.713   3.684   1.603 -0.3842 -1.1893  3.1744
  430MOL0     H58002   5.407   3.554   1.443  0.4927  0.4211  0.4743
  430MOL0     H58003   5.550   3.500   1.520 -1.6355 -2.4068 -1.1064
  430MOL0     H58004   5.434   3.460   1.731 -0.3653  1.8340  0.1901
  430MOL0     H58005   5.287   3.532   1.675 -0.1800 -0.5673  2.4121
  430MOL0     H58006   5.269   3.367   1.490  0.0686 -0.0729  0.2457
  430MOL0     H58007   5.251   3.302   1.652 -0.4293  0.8861  0.5048
  430MOL0     H58008   5.497   3.260   1.498  1.0773  1.2641  1.4500
  430MOL0     H58009   5.370   3.137   1.531  0.0546  1.4875 -1.8485
  430MOL0     H58010   5.640   3.068   1.524  3.6496 -2.7176 -1.7876
  430MOL0     H58011   5.737   2.843   1.576  0.9617 -1.0571  1.5013
  430MOL0     H58012   5.891   2.676   2.105 -0.6295 -1.4184  2.1146
  430MOL0     H58013   6.052   2.510   2.189 -1.7927  2.8667  2.1529
  430MOL0     H58014   6.235   2.388   2.105 -1.3986  1.0733 -0.2241
  430MOL0     H58015   6.184   2.316   2.260  0.2711  2.9056 -0.3758
  430MOL0     H58016   6.364   2.204   2.054 -0.1755  2.1484 -0.2408
  430MOL0     H58017   6.394   2.214   2.231 -0.1255  1.2945 -0.1555
  430MOL0     H58018   6.193   2.021   2.093  0.0068  4.3102 -1.5929
  430MOL0     H58019   6.360   1.983   2.133  1.4092  3.0798 -4.0821
  430MOL0     H58020   6.133   2.051   2.312  0.9752  1.9926 -0.6620
  430MOL0     H58021   6.282   2.068   2.383 -1.4227  2.3997 -1.2418
  430MOL0     H58022   6.209   1.843   2.444 -0.2655 -1.0173  0.8553
  430MOL0     H58023   6.333   1.818   2.322 -1.3812 -0.7930 -3.3283
  430MOL0     H58024   6.037   1.832   2.264 -1.0807 -0.3322 -2.8843
  430MOL0     H58025   6.162   1.792   2.146  2.5547 -0.4285  0.5957
  430MOL0     H58026   6.126   1.618   2.398 -1.4069  2.6539 -0.0565
  430MOL0     H58027   6.213   1.584   2.240  0.3094  1.2881 -0.5600
  430MOL0     H58028   5.990   1.626   2.130  1.8318  3.1940  0.1658
  430MOL0     H58029   5.986   1.485   2.234 -2.7570  0.3400 -2.3999
  430MOL0     H58030   5.882   2.213   1.939 -0.0555  0.0862 -1.1323
  430MOL0     H58031   5.751   2.383   1.819 -0.3968 -2.3595  0.2565
  430MOL0     H58032   5.574   2.854   1.962 -0.3688 -0.9158  1.1872
  430MOL0     H58033   5.473   3.068   1.915  0.2779  1.8819 -1.0222
  430MOL0     H58034   6.529   4.010   1.797 -0.5718  0.3096 -0.6111
  430MOL0     H58035   6.780   3.947   1.705 -0.9687 -1.4674  0.8369
  430MOL0     H58036   6.994   3.843   1.323  1.9179 -1.1032 -0.0747
  430MOL0     H58037   7.202   3.739   1.279  3.0203  0.4642 -0.8774
  430MOL0     H58038   7.561   3.710   1.240 -0.1234  0.7324  0.1117
  430MOL0     H58039   7.384   3.690   1.226 -0.5643  0.6177  0.1966
  430MOL0     H58040   7.446   3.632   1.500  1.6447 -2.7574  1.9048
  430MOL0     H58041   7.593   3.602   1.420 -0.8675 -1.9427  2.0382
  430MOL0     H58042   7.315   3.493   1.323 -1.2913 -2.8855  0.9267
  430MOL0     H58043   7.407   3.401   1.442 -2.6044 -0.6749 -0.5807
  430MOL0     H58044   7.610   3.425   1.272 -0.2086  1.5152 -3.5250
  430MOL0     H58045   7.499   3.294   1.274 -2.0244 -0.1677 -0.4151
  430MOL0     H58046   7.413   3.524   0.918 -0.1480  4.2942  2.2550
  430MOL0     H58047   7.422   4.026   1.519  0.4617  2.8276 -0.7405
  430MOL0     H58048   7.169   4.100   1.722 -4.8460 -3.7774 -2.7353
  430MOL0     H58049   7.306   4.187   1.640  1.1312  0.8173 -6.0934
  430MOL0     H58050   7.138   4.228   1.602  2.2877  2.5925  2.6264
  431MOL0     O58051   1.239   0.997   5.338 -0.1485  0.0249  0.1018
  431MOL0     C58052   1.321   1.090   5.352 -0.2145  0.1236 -0.6761
  431MOL0     O58053   1.364   1.138   5.467 -0.5293  0.5400 -0.2364
  431MOL0     C58054   1.349   1.070   5.587 -0.5887 -0.6455 -0.3630
  431MOL0     C58055   1.228   1.041   5.650  0.3370  0.0943  0.2976
  431MOL0     C58056   1.228   0.978   5.772 -0.0130  0.5079 -0.4839
  431MOL0     C58057   1.348   0.937   5.832 -0.2953  0.2141  0.6229
  431MOL0     O58058   1.353   0.864   5.955 -0.0451  0.3498  0.1564
  431MOL0     C58059   1.239   0.780   5.983 -0.4590  0.4935 -0.0083
  431MOL0     C58060   1.275   0.708   6.119 -0.4588 -0.3398 -0.4322
  431MOL0     C58061   1.151   0.642   6.197  0.1505  0.3124  0.4577
  431MOL0     C58062   1.182   0.554   6.317 -0.2516  0.2599  0.8420
  431MOL0     C58063   1.060   0.493   6.369  0.6064  0.0857 -0.2685
  431MOL0     C58064   1.070   0.457   6.513 -0.9802 -0.0917 -0.8981
  431MOL0     C58065   0.931   0.419   6.576  0.7013 -0.3893  0.8806
  431MOL0     C58066   0.938   0.405   6.730  0.5977 -0.0506 -0.3657
  431MOL0     N58067   1.001   0.292   6.777  0.3194  0.3610  0.0257
  431MOL0     C58068   0.994   0.241   6.906 -1.0433 -0.4562 -0.4509
  431MOL0     C58069   1.082   0.133   6.904  0.1445  0.3225 -1.4535
  431MOL0     C58070   1.124   0.028   7.018  0.3434 -0.8309 -0.2389
  431MOL0     C58071   1.088  -0.115   6.988 -0.1868  0.3329 -0.4726
  431MOL0     C58072   1.137  -0.206   7.096 -0.1027 -0.0829 -0.0925
  431MOL0     C58073   1.056  -0.206   7.231  0.4382 -0.2530 -0.0686
  431MOL0     O58074   1.128  -0.290   7.327 -0.4162  0.4911  0.6604
  431MOL0     C58075   1.070  -0.309   7.458  0.5309  0.1431  0.4278
  431MOL0     C58076   0.949  -0.245   7.500  0.2105 -0.4934 -0.0186
  431MOL0     C58077   0.900  -0.279   7.625  0.1519 -0.6319 -0.2693
  431MOL0     C58078   0.972  -0.356   7.708  0.0833  0.6498 -0.2152
  431MOL0     C58079   0.903  -0.398   7.836  0.3287  0.1064 -0.7473
  431MOL0     O58080   0.933  -0.519   7.887 -0.3154  0.9638  0.1954
  431MOL0     C58081   0.880  -0.577   8.001 -1.0539 -0.3721 -0.7284
  431MOL0     C58082   0.773  -0.532   8.076 -0.2267  0.2312 -0.3040
  431MOL0     C58083   0.727  -0.594   8.191  0.2634  0.7551 -0.1786
  431MOL0     C58084   0.808  -0.686   8.255  0.8757  0.1669  0.0890
  431MOL0     O58085   0.768  -0.731   8.380  0.4364 -0.1303  0.3384
  431MOL0     C58086   0.780  -0.622   8.469  0.6701 -0.4268 -0.4657
  431MOL0     C58087   0.799  -0.654   8.613  0.2616  0.1960 -0.0225
  431MOL0     C58088   0.689  -0.741   8.664 -0.1489  0.7773 -0.1330
  431MOL0     C58089   0.732  -0.774   8.806  0.0695 -0.5296 -0.1446
  431MOL0     C58090   0.605  -0.789   8.905 -0.0071 -0.4871 -0.2357
  431MOL0     C58091   0.505  -0.896   8.854 -0.0120 -0.4677 -0.2134
  431MOL0     C58092   0.403  -0.940   8.960 -0.3850  0.0881 -0.2571
  431MOL0     C58093   0.466  -1.045   9.048  0.3974  0.2181  0.4170
  431MOL0    Cl58094   0.340  -1.077   9.169  0.1787 -0.2173  0.2012
  431MOL0     C58095   0.931  -0.718   8.196 -0.2993 -0.3551 -0.1556
  431MOL0     C58096   0.961  -0.671   8.066  0.2401 -0.2991 -1.3778
  431MOL0     O58097   0.824  -0.317   7.884 -0.0930  0.1443 -0.7383
  431MOL0     C58098   1.098  -0.402   7.671 -0.1876  0.6321  0.0556
  431MOL0     C58099   1.151  -0.378   7.553 -0.6635 -0.4200  0.0248
  431MOL0     N58100   1.137   0.126   6.777 -0.0816 -0.5827 -0.3842
  431MOL0     N58101   1.084   0.212   6.702  0.1120  0.1677 -0.8457
  431MOL0     C58102   1.469   0.982   5.775  0.2695  0.1075  0.2326
  431MOL0     C58103   1.472   1.036   5.648 -0.9279  0.0057 -0.0126
  431MOL0     C58104   1.373   1.147   5.226  0.3155  0.1504  0.0872
  431MOL0     C58105   1.296   1.118   5.109  0.6973 -0.5542 -0.6312
  431MOL0     C58106   1.349   1.134   4.978  0.0431  0.3757  0.3451
  431MOL0     C58107   1.480   1.189   4.957 -0.3928 -0.3788 -0.4942
  431MOL0     O58108   1.533   1.228   4.833 -0.3668  0.1337  0.3014
  431MOL0     C58109   1.637   1.327   4.814  0.5865 -0.0640  0.1077
  431MOL0     C58110   1.781   1.259   4.792 -0.8786 -0.8473  0.0739
  431MOL0     C58111   1.799   1.140   4.701 -0.7344  0.0361 -0.2630
  431MOL0     C58112   1.763   1.016   4.785  1.1732 -0.0985 -0.3228
  431MOL0     C58113   1.806   0.895   4.713  0.6014 -0.2589  0.6493
  431MOL0     C58114   1.838   0.789   4.658  0.6271 -0.8906 -0.3466
  431MOL0     C58115   1.552   1.233   5.072 -0.4947 -0.0637  0.1222
  431MOL0     C58116   1.499   1.209   5.205  1.1567  0.8894  0.2752
  431MOL0     C58117   1.592   1.244   5.321  0.4220 -0.3151 -0.3381
  431MOL0     H58118   1.132   1.061   5.603 -0.1078 -0.6626  0.8624
  431MOL0     H58119   1.135   0.970   5.827  0.9226 -0.7412  0.9867
  431MOL0     H58120   1.151   0.844   5.986  0.8971  2.4039  1.2406
  431MOL0     H58121   1.230   0.707   5.902 -1.3529 -0.2166  0.7135
  431MOL0     H58122   1.319   0.775   6.193 -0.1812 -1.8616  0.8424
  431MOL0     H58123   1.348   0.630   6.093 -0.8907 -1.2780  1.0771
  431MOL0     H58124   1.106   0.586   6.115  2.7195  0.4986 -1.2195
  431MOL0     H58125   1.084   0.723   6.228 -0.8327 -0.3010 -0.0261
  431MOL0     H58126   1.246   0.474   6.280 -3.4191 -2.1090  0.0910
  431MOL0     H58127   1.236   0.598   6.402  0.1544 -1.0795  1.2904
  431MOL0     H58128   0.986   0.573   6.369 -0.3784 -0.7899 -0.9813
  431MOL0     H58129   1.018   0.412   6.309 -1.0902 -0.1735  1.1713
  431MOL0     H58130   1.145   0.379   6.523 -0.4314  0.4283 -0.9256
  431MOL0     H58131   1.095   0.550   6.566 -1.7783  0.7941 -2.0322
  431MOL0     H58132   0.906   0.331   6.517 -1.1238  0.7448 -0.1078
  431MOL0     H58133   0.857   0.492   6.543 -0.1978 -1.4157  0.5425
  431MOL0     H58134   0.986   0.496   6.768 -1.0353  1.8155 -2.4527
  431MOL0     H58135   0.840   0.414   6.779  1.3303  0.0534  1.1395
  431MOL0     H58136   0.950   0.282   6.996 -0.3495  0.7892 -0.6650
  431MOL0     H58137   1.231   0.023   7.035  0.2448 -0.7702  0.4162
  431MOL0     H58138   1.073   0.055   7.111 -0.4361 -0.5253 -0.7385
  431MOL0     H58139   0.979  -0.116   6.977 -0.0446  2.4403 -2.8073
  431MOL0     H58140   1.119  -0.136   6.886 -1.1715  2.0445 -1.1587
  431MOL0     H58141   1.244  -0.186   7.112  0.2632 -1.3854 -0.7411
  431MOL0     H58142   1.129  -0.305   7.049 -2.1028  0.8009 -1.8025
  431MOL0     H58143   0.959  -0.252   7.210 -0.1921  0.8539  0.3419
  431MOL0     H58144   1.027  -0.109   7.274  1.4112 -0.1900  0.4862
  431MOL0     H58145   0.895  -0.173   7.440 -0.1364  0.9526  1.9473
  431MOL0     H58146   0.799  -0.245   7.643 -0.9651 -0.8984 -4.8603
  431MOL0     H58147   0.709  -0.448   8.050 -0.5770 -0.0655 -0.4098
  431MOL0     H58148   0.639  -0.546   8.231  0.9107 -0.8815  3.6127
  431MOL0     H58149   0.868  -0.560   8.448  0.8764 -0.3199  0.6565
  431MOL0     H58150   0.690  -0.561   8.452 -0.0991 -1.9666 -2.2787
  431MOL0     H58151   0.896  -0.699   8.632  0.5335  0.4510 -0.7691
  431MOL0     H58152   0.807  -0.556   8.660  1.3660  1.2755 -2.2930
  431MOL0     H58153   0.588  -0.701   8.656 -1.3311 -2.1349 -1.2299
  431MOL0     H58154   0.687  -0.836   8.610 -0.7160  0.3897  0.5737
  431MOL0     H58155   0.798  -0.698   8.851 -1.7517  0.9609  0.1215
  431MOL0     H58156   0.783  -0.871   8.805  0.8058 -0.1462 -0.9639
  431MOL0     H58157   0.570  -0.692   8.940 -3.2896 -1.6677  0.0933
  431MOL0     H58158   0.657  -0.835   8.990 -0.4575 -0.2758  0.1610
  431MOL0     H58159   0.444  -0.856   8.773 -0.3988 -0.9261 -0.1553
  431MOL0     H58160   0.558  -0.982   8.811 -2.0948 -1.7686 -0.3623
  431MOL0     H58161   0.311  -0.973   8.912  1.5372 -0.3537 -4.0460
  431MOL0     H58162   0.391  -0.855   9.028  1.0608  0.9729 -1.0472
  431MOL0     H58163   0.468  -1.142   8.998  2.1757 -0.1245  1.0893
  431MOL0     H58164   0.555  -1.021   9.106  1.0387  0.6764 -0.7296
  431MOL0     H58165   1.000  -0.775   8.257  1.8224  0.6545 -1.4867
  431MOL0     H58166   1.049  -0.697   8.009  1.8202  0.3209  0.6686
  431MOL0     H58167   1.153  -0.470   7.735 -1.6047 -5.6460 -4.5490
  431MOL0     H58168   1.251  -0.418   7.541  0.4145  0.3245  4.5573
  431MOL0     H58169   1.560   0.975   5.834 -1.9502  0.0098  3.8917
  431MOL0     H58170   1.561   1.057   5.589 -1.0829  0.3047 -0.1451
  431MOL0     H58171   1.198   1.075   5.123 -0.5070  0.5429 -4.5132
  431MOL0     H58172   1.292   1.123   4.886  1.8558  0.5851 -0.8516
  431MOL0     H58173   1.636   1.404   4.891 -2.9248  0.4751 -0.2877
  431MOL0     H58174   1.619   1.381   4.720 -0.8361  0.5900  0.7204
  431MOL0     H58175   1.813   1.249   4.896 -0.4451 -0.2644  0.0063
  431MOL0     H58176   1.847   1.340   4.758 -0.1436 -0.3979  2.3973
  431MOL0     H58177   1.904   1.139   4.671 -0.8663  4.2646 -1.5522
  431MOL0     H58178   1.735   1.145   4.612  1.9766  0.9758 -2.3157
  431MOL0     H58179   1.807   1.025   4.885 -1.7597 -1.1660  1.1901
  431MOL0     H58180   1.655   1.008   4.802  1.1269  1.4190  0.1955
  431MOL0     H58181   1.854   0.692   4.615 -2.4920 -2.0995  0.8613
  431MOL0     H58182   1.650   1.280   5.072  0.7862 -2.5684  0.6201
  431MOL0     H58183   1.678   1.303   5.289  1.6960 -2.3843 -0.8868
  431MOL0     H58184   1.533   1.301   5.393 -0.7886 -2.4004  0.4059
  431MOL0     H58185   1.637   1.162   5.376 -1.2847  0.3622  2.2948
  432MOL0     O58186   1.194   1.523  11.250  0.3219 -0.3533  0.4580
  432MOL0     C58187   1.257   1.528  11.355 -0.3306 -0.2729  0.6636
  432MOL0     O58188   1.334   1.633  11.389 -0.1446  0.3713  0.5611
  432MOL0     C58189   1.386   1.725  11.300 -0.3371 -0.1182 -0.4123
  432MOL0     C58190   1.508   1.791  11.346  0.3612 -0.3925  0.0154
  432MOL0     C58191   1.572   1.896  11.279 -1.0448  0.8499  0.0164
  432MOL0     C58192   1.513   1.952  11.165  1.4143 -0.3176 -0.0643
  432MOL0     O58193   1.568   2.056  11.104 -1.0665  0.0113 -0.4676
  432MOL0     C58194   1.500   2.130  11.005  0.0243 -0.3323  0.7488
  432MOL0     C58195   1.585   2.242  10.982 -0.8920 -0.1564 -0.4339
  432MOL0     C58196   1.598   2.346  11.089 -0.0181  0.0244  0.5769
  432MOL0     C58197   1.626   2.488  11.025  0.1190  0.7619  0.9139
  432MOL0     C58198   1.643   2.591  11.140  1.3079 -0.0604 -0.7354
  432MOL0     C58199   1.756   2.692  11.110  0.5011  0.7811  0.2690
  432MOL0     C58200   1.730   2.808  11.206 -0.3318 -0.4801 -0.9361
  432MOL0     C58201   1.849   2.909  11.208  0.5186  0.1514 -0.0368
  432MOL0     N58202   1.973   2.848  11.271 -0.7589  0.3731  0.7157
  432MOL0     C58203   2.084   2.806  11.204 -0.4340  1.5026 -0.3359
  432MOL0     C58204   2.178   2.763  11.293  0.0853  0.1399  0.3859
  432MOL0     C58205   2.318   2.722  11.238 -0.7216 -0.6653  0.3353
  432MOL0     C58206   2.328   2.581  11.174  0.1411 -0.6182 -0.3985
  432MOL0     C58207   2.454   2.552  11.094 -0.4037  0.1962 -0.1766
  432MOL0     C58208   2.442   2.421  11.016 -1.7821  0.3002  0.1399
  432MOL0     O58209   2.566   2.381  10.969  0.0430 -0.4900  0.5071
  432MOL0     C58210   2.575   2.255  10.904 -0.2028  0.0529 -0.3834
  432MOL0     C58211   2.709   2.215  10.883  0.4860 -0.8407 -0.6434
  432MOL0     C58212   2.734   2.100  10.810  0.3519 -1.0860 -0.1692
  432MOL0     C58213   2.633   2.008  10.775 -0.4440 -0.1308  0.0010
  432MOL0     C58214   2.657   1.889  10.701  0.4483 -0.7712  0.0151
  432MOL0     O58215   2.787   1.875  10.666  0.0809 -0.0249 -0.7123
  432MOL0     C58216   2.824   1.760  10.600  0.2627  0.7915 -0.4611
  432MOL0     C58217   2.895   1.657  10.662  0.2506 -0.2113 -0.0033
  432MOL0     C58218   2.937   1.546  10.601  0.1444  0.7423 -0.3872
  432MOL0     C58219   2.892   1.518  10.475 -0.3523 -0.8059 -0.2160
  432MOL0     O58220   2.932   1.404  10.418 -0.3509  1.1493 -0.2908
  432MOL0     C58221   2.927   1.402  10.279  0.3484 -0.1280 -0.1368
  432MOL0     C58222   3.012   1.293  10.205  0.1137  0.5494  0.9149
  432MOL0     C58223   3.003   1.147  10.263  0.6013 -0.5145  0.4537
  432MOL0     C58224   3.050   1.028  10.178 -0.1218 -0.9405  0.3552
  432MOL0     C58225   2.972   1.004  10.052 -0.4954  0.1195  0.4937
  432MOL0     C58226   3.031   0.906   9.950  0.8041  0.6314  0.3823
  432MOL0     C58227   3.083   0.980   9.824  0.0868 -0.0917 -0.6073
  432MOL0     C58228   3.205   1.080   9.861 -0.1404 -1.4681  0.1921
  432MOL0    Cl58229   3.286   1.166   9.724  0.4091  0.1244 -0.3448
  432MOL0     C58230   2.809   1.619  10.411 -0.7341  0.5100 -0.1665
  432MOL0     C58231   2.787   1.743  10.472 -0.0158 -0.4566  0.2322
  432MOL0     O58232   2.574   1.802  10.702 -0.3907 -0.1729  0.1572
  432MOL0     C58233   2.503   2.046  10.810  0.0011 -0.1715 -0.3480
  432MOL0     C58234   2.469   2.171  10.871 -0.1809  0.1515 -0.1750
  432MOL0     N58235   2.121   2.756  11.419  0.1760 -0.3110 -0.2866
  432MOL0     N58236   2.001   2.809  11.404  0.3040 -0.1424 -0.3394
  432MOL0     C58237   1.397   1.885  11.107 -0.5826  0.1451 -0.2001
  432MOL0     C58238   1.339   1.773  11.173 -0.2567  0.1322 -0.0123
  432MOL0     C58239   1.250   1.410  11.445  0.3106 -1.2607  0.0808
  432MOL0     C58240   1.338   1.403  11.557  0.3641 -0.4814 -0.0794
  432MOL0     C58241   1.328   1.304  11.651 -0.6882  0.7362  0.5520
  432MOL0     C58242   1.232   1.206  11.639  0.3941  0.0122  0.5133
  432MOL0     O58243   1.233   1.110  11.743  0.5478  0.0942  0.3335
  432MOL0     C58244   1.148   0.996  11.753  0.5482  0.3505  0.7786
  432MOL0     C58245   1.214   0.903  11.860  0.5884  0.1897  0.7287
  432MOL0     C58246   1.316   0.808  11.802  1.1874  0.3136  0.3112
  432MOL0     C58247   1.380   0.718  11.922  0.3169  0.0040 -0.7654
  432MOL0     C58248   1.470   0.612  11.884 -0.6165 -0.6168  0.6949
  432MOL0     C58249   1.541   0.529  11.834  0.5532 -0.0068 -0.3091
  432MOL0     C58250   1.146   1.204  11.535  0.1346 -0.6187  0.7755
  432MOL0     C58251   1.159   1.303  11.433 -1.3207  0.3123  0.1060
  432MOL0     C58252   1.064   1.282  11.322  0.3694 -0.2601  0.4743
  432MOL0     H58253   1.555   1.758  11.438 -3.0755 -2.3896  1.2599
  432MOL0     H58254   1.658   1.952  11.315 -1.9285  2.7860 -0.7079
  432MOL0     H58255   1.498   2.065  10.917  1.0294 -1.0924  1.2683
  432MOL0     H58256   1.399   2.162  11.035 -1.7664 -3.2383 -1.6216
  432MOL0     H58257   1.545   2.293  10.894 -1.5037 -1.7568 -1.1191
  432MOL0     H58258   1.689   2.215  10.961 -0.2776 -0.5061  2.5645
  432MOL0     H58259   1.681   2.312  11.152  0.4722  1.3241  0.6667
  432MOL0     H58260   1.519   2.362  11.162 -1.0327  0.4226 -0.5754
  432MOL0     H58261   1.717   2.490  10.966 -1.3160  1.6043 -1.3929
  432MOL0     H58262   1.542   2.521  10.963  0.8333  1.5213  0.3384
  432MOL0     H58263   1.551   2.650  11.137  0.1057 -1.8924 -3.3962
  432MOL0     H58264   1.677   2.535  11.228  4.4122  0.1213 -1.7005
  432MOL0     H58265   1.854   2.645  11.124 -0.4299 -0.6995  2.5212
  432MOL0     H58266   1.760   2.723  11.006 -1.5372 -0.7134 -0.3275
  432MOL0     H58267   1.705   2.766  11.304 -0.3447 -2.0307 -1.5631
  432MOL0     H58268   1.642   2.870  11.189  0.8714  2.5663  2.6611
  432MOL0     H58269   1.871   2.941  11.106 -0.4867  0.1869 -0.2495
  432MOL0     H58270   1.808   2.993  11.265  1.6002  2.4520 -2.4431
  432MOL0     H58271   2.105   2.811  11.097  0.7828 -0.8388 -0.2592
  432MOL0     H58272   2.345   2.800  11.166 -4.2414  0.7418  0.3462
  432MOL0     H58273   2.390   2.717  11.320  1.7160 -2.4915 -1.7716
  432MOL0     H58274   2.304   2.493  11.235 -0.8752 -1.6249 -2.1875
  432MOL0     H58275   2.244   2.588  11.104  1.9205  1.0370 -2.5103
  432MOL0     H58276   2.544   2.543  11.155 -0.0893 -1.2007 -0.8047
  432MOL0     H58277   2.488   2.639  11.037 -0.0301 -0.4962 -1.0336
  432MOL0     H58278   2.374   2.434  10.931 -1.3537  0.0839 -0.2398
  432MOL0     H58279   2.390   2.355  11.087 -2.0675  1.4589  1.0350
  432MOL0     H58280   2.781   2.282  10.928 -0.4413 -1.8166  2.5417
  432MOL0     H58281   2.837   2.086  10.778  1.4900  1.3655  2.0010
  432MOL0     H58282   2.915   1.659  10.768 -0.7052 -0.4018  0.1879
  432MOL0     H58283   2.998   1.475  10.655 -2.2376 -2.0164 -1.0812
  432MOL0     H58284   2.824   1.380  10.250  0.7719  1.0258 -2.7278
  432MOL0     H58285   2.958   1.501  10.243  0.0636  0.0506  0.1033
  432MOL0     H58286   2.963   1.294  10.107 -1.8549 -3.9366  1.6282
  432MOL0     H58287   3.113   1.334  10.217  0.7666 -0.7156  0.0361
  432MOL0     H58288   3.062   1.152  10.355  1.9670  1.9654 -0.4822
  432MOL0     H58289   2.899   1.123  10.287  0.9026 -1.0424  1.2935
  432MOL0     H58290   3.044   0.941  10.244 -2.0203  0.8436  2.6852
  432MOL0     H58291   3.153   1.049  10.148 -0.3181 -0.5188 -0.0470
  432MOL0     H58292   2.948   1.098  10.003  1.4395  0.4473  0.0810
  432MOL0     H58293   2.885   0.957  10.100 -0.7550  2.2450  2.2239
  432MOL0     H58294   3.108   0.837   9.986  0.0573 -0.3615  0.1198
  432MOL0     H58295   2.958   0.828   9.926  1.5494  0.1768 -0.5205
  432MOL0     H58296   3.001   1.036   9.778 -1.3778 -1.5980  0.0517
  432MOL0     H58297   3.119   0.901   9.758  0.2307  0.3898 -1.1099
  432MOL0     H58298   3.171   1.160   9.928 -1.2799 -0.1803 -1.8337
  432MOL0     H58299   3.277   1.018   9.915 -0.5180 -1.2830  0.9288
  432MOL0     H58300   2.776   1.598  10.309 -0.2960  1.1444 -0.4445
  432MOL0     H58301   2.730   1.820  10.421 -1.2221 -0.7840  1.0576
  432MOL0     H58302   2.428   1.970  10.791  0.9871 -1.7028  1.5262
  432MOL0     H58303   2.369   2.199  10.900 -0.0800  0.8040 -0.4382
  432MOL0     H58304   1.338   1.917  11.021 -2.2703 -0.2495  0.7494
  432MOL0     H58305   1.250   1.718  11.143  1.5354 -2.7513 -0.3599
  432MOL0     H58306   1.418   1.475  11.570 -0.7499  0.7665  0.0628
  432MOL0     H58307   1.388   1.303  11.741 -3.1348  0.7878  2.2740
  432MOL0     H58308   1.143   0.952  11.653  0.5939 -2.8093  2.0438
  432MOL0     H58309   1.052   1.024  11.797  2.3836  1.6047  4.4008
  432MOL0     H58310   1.144   0.844  11.919  1.9963 -0.7982  1.4833
  432MOL0     H58311   1.255   0.970  11.937 -2.6179  3.1888  0.0744
  432MOL0     H58312   1.398   0.873  11.770  0.6435 -1.0311 -4.5063
  432MOL0     H58313   1.277   0.744  11.723 -1.6574  0.8366  1.1583
  432MOL0     H58314   1.434   0.796  11.976 -1.9718  0.5585  0.8546
  432MOL0     H58315   1.292   0.682  11.977 -0.6570  0.4503 -1.9736
  432MOL0     H58316   1.591   0.448  11.785  0.8398  0.6439 -1.1074
  432MOL0     H58317   1.068   1.131  11.516 -0.4079  0.3977 -1.1601
  432MOL0     H58318   0.987   1.206  11.341 -1.7852  1.4752 -0.7820
  432MOL0     H58319   1.006   1.373  11.307  2.6827  0.9186 -2.0790
  432MOL0     H58320   1.110   1.252  11.227 -1.2274 -2.4533  0.3096
  433MOL0     O58321   9.759   7.858   8.011 -0.3003  0.7832 -0.2302
  433MOL0     C58322   9.643   7.870   8.011  0.1563  0.3623  1.1623
  433MOL0     O58323   9.566   7.914   8.120  1.1472 -0.6464 -0.3679
  433MOL0     C58324   9.616   7.957   8.238  0.6352 -0.3037 -0.1605
  433MOL0     C58325   9.544   8.047   8.309 -0.0516 -0.2041 -0.0544
  433MOL0     C58326   9.577   8.081   8.435  0.0159 -0.2613 -0.2502
  433MOL0     C58327   9.690   8.016   8.492 -0.3669 -0.3635  0.3317
  433MOL0     O58328   9.725   8.042   8.623  0.1220 -0.3228 -0.9037
  433MOL0     C58329   9.867   8.072   8.652  0.4797 -0.0919 -0.5000
  433MOL0     C58330   9.858   8.168   8.764  0.2382 -0.3106 -1.2618
  433MOL0     C58331   9.767   8.283   8.749  0.6593  0.2588 -0.2996
  433MOL0     C58332   9.816   8.390   8.657 -0.1184  0.4049 -0.4297
  433MOL0     C58333   9.700   8.441   8.567  0.2701  0.2677  0.2239
  433MOL0     C58334   9.752   8.576   8.507  0.7736 -0.2451  0.1386
  433MOL0     C58335   9.643   8.661   8.431 -0.6209  0.0920  0.3968
  433MOL0     C58336   9.572   8.598   8.312  0.1334  0.2795  0.2224
  433MOL0     N58337   9.511   8.707   8.232  0.5106  0.6973  0.0333
  433MOL0     C58338   9.572   8.762   8.120 -0.5117  0.6671 -0.4600
  433MOL0     C58339   9.468   8.823   8.056  0.1238  0.4815 -0.1856
  433MOL0     C58340   9.468   8.907   7.927 -0.2664  0.4129  0.7053
  433MOL0     C58341   9.601   8.978   7.895 -0.4603 -0.0777  1.0421
  433MOL0     C58342   9.632   9.092   7.994  0.2114  0.1222  0.7427
  433MOL0     C58343   9.752   9.170   7.936 -0.8345 -0.2863 -0.7918
  433MOL0     O58344   9.874   9.092   7.907  0.1720 -0.5717 -0.1400
  433MOL0     C58345   9.924   9.016   8.013 -0.7077 -0.5140  0.3128
  433MOL0     C58346   9.959   8.886   7.975  0.1227  0.3014 -0.5627
  433MOL0     C58347   9.993   8.802   8.078  0.6201 -0.6262  0.0942
  433MOL0     C58348  10.004   8.841   8.215 -0.1134 -0.0831  0.2746
  433MOL0     C58349  10.035   8.750   8.321 -0.0560 -0.0325  0.0123
  433MOL0     O58350  10.114   8.649   8.286  0.6297  0.3834  0.4143
  433MOL0     C58351  10.155   8.556   8.379  0.5714  1.0791 -0.4642
  433MOL0     C58352  10.210   8.445   8.317  0.9527 -0.1119 -0.6938
  433MOL0     C58353  10.253   8.332   8.391 -0.2949 -1.1900 -0.1815
  433MOL0     C58354  10.255   8.337   8.532 -0.2169  0.0093  0.3563
  433MOL0     O58355  10.285   8.223   8.605 -0.2005  0.2289  0.7367
  433MOL0     C58356  10.382   8.130   8.548 -0.0393  0.1998  0.0874
  433MOL0     C58357  10.486   8.118   8.653 -0.7549  1.2309 -0.0758
  433MOL0     C58358  10.553   8.256   8.678  0.2761  0.8936  0.0878
  433MOL0     C58359  10.669   8.224   8.762 -0.0071  0.7568  0.5792
  433MOL0     C58360  10.800   8.161   8.702 -0.1271  0.6889  0.4540
  433MOL0     C58361  10.827   8.200   8.557  0.2039 -0.1013  0.1306
  433MOL0     C58362  10.983   8.180   8.520 -0.0017 -0.0466  1.2385
  433MOL0     C58363  11.019   8.215   8.369  0.2131  0.1053  0.6484
  433MOL0    Cl58364  10.973   8.078   8.260 -0.0290  0.0389 -0.3686
  433MOL0     C58365  10.213   8.453   8.597 -1.0833  0.5366 -0.1187
  433MOL0     C58366  10.169   8.564   8.525  0.0528 -0.4236  0.3781
  433MOL0     O58367   9.983   8.772   8.432  0.3879 -0.5939  0.9341
  433MOL0     C58368   9.982   8.976   8.247  0.6844  0.5476 -0.3482
  433MOL0     C58369   9.937   9.064   8.146 -0.6140 -0.9036  0.5114
  433MOL0     N58370   9.347   8.781   8.109  0.0419  1.0528 -0.1280
  433MOL0     N58371   9.379   8.713   8.210 -0.0155 -0.1449 -0.0071
  433MOL0     C58372   9.778   7.947   8.417  0.4573  0.6997  0.2183
  433MOL0     C58373   9.738   7.916   8.294  0.2859 -0.0327 -0.1182
  433MOL0     C58374   9.558   7.851   7.893 -0.6058 -0.1029 -1.2526
  433MOL0     C58375   9.432   7.804   7.913  0.0736 -0.2619 -0.3064
  433MOL0     C58376   9.337   7.781   7.812  0.2775 -0.6633 -0.2574
  433MOL0     C58377   9.366   7.813   7.681  1.2655  0.0118  0.5836
  433MOL0     O58378   9.276   7.802   7.576  0.1369 -0.5358  0.3492
  433MOL0     C58379   9.159   7.723   7.602  0.5696  0.5114  0.6054
  433MOL0     C58380   9.102   7.674   7.463 -1.3362  0.2341 -0.5215
  433MOL0     C58381   9.003   7.795   7.415 -0.1259 -0.1809 -0.3368
  433MOL0     C58382   8.939   7.760   7.283 -0.6075 -0.6554 -1.0379
  433MOL0     C58383   8.855   7.648   7.303 -0.8269  0.1264 -0.3345
  433MOL0     C58384   8.787   7.553   7.288 -0.6194  0.1633 -0.2646
  433MOL0     C58385   9.490   7.855   7.657  0.7808  0.1982  0.2290
  433MOL0     C58386   9.591   7.880   7.756  0.0377  0.8231 -0.8025
  433MOL0     C58387   9.724   7.926   7.715 -0.5238  0.2144  0.2126
  433MOL0     H58388   9.443   8.075   8.281 -0.1022  0.7019  0.9393
  433MOL0     H58389   9.527   8.148   8.504  1.1090 -1.0703  1.3916
  433MOL0     H58390   9.922   7.983   8.685  0.2560 -0.1774 -0.3641
  433MOL0     H58391   9.907   8.136   8.573 -2.9667  3.9749  0.7196
  433MOL0     H58392   9.962   8.197   8.783  0.7366 -1.2793 -2.3761
  433MOL0     H58393   9.808   8.111   8.843 -0.8452  2.7213  0.3726
  433MOL0     H58394   9.777   8.340   8.842 -2.5454  1.4147 -0.5553
  433MOL0     H58395   9.660   8.263   8.739 -0.1019  2.9902  1.2438
  433MOL0     H58396   9.848   8.474   8.721 -1.9472 -0.2225  1.3998
  433MOL0     H58397   9.907   8.362   8.602  1.3884  0.8997  1.6792
  433MOL0     H58398   9.678   8.373   8.484  0.3907 -0.3947  0.7224
  433MOL0     H58399   9.606   8.455   8.623  0.9314  0.8960  1.2083
  433MOL0     H58400   9.795   8.642   8.584  0.4911 -1.0583  1.0104
  433MOL0     H58401   9.826   8.558   8.429  1.3784  4.2547 -0.6085
  433MOL0     H58402   9.691   8.756   8.405  0.3290 -0.5268 -0.1761
  433MOL0     H58403   9.557   8.684   8.494  0.1721  2.4401  0.7083
  433MOL0     H58404   9.649   8.539   8.262  1.6710  1.5306  1.0002
  433MOL0     H58405   9.494   8.525   8.334 -0.1884 -0.5247 -3.0622
  433MOL0     H58406   9.678   8.778   8.102 -1.0513  2.3166 -2.6852
  433MOL0     H58407   9.432   8.850   7.841  1.4622 -0.0045  0.2360
  433MOL0     H58408   9.390   8.982   7.945 -0.2190  0.4696  0.6699
  433MOL0     H58409   9.681   8.903   7.893  2.1194  2.5171 -1.9205
  433MOL0     H58410   9.596   9.020   7.795 -0.5476 -1.3151  0.5030
  433MOL0     H58411   9.653   9.043   8.090 -2.1480 -1.1083  0.7340
  433MOL0     H58412   9.549   9.164   7.994 -2.1079 -2.2489 -2.3540
  433MOL0     H58413   9.770   9.251   8.006 -1.0291 -0.4022 -0.6074
  433MOL0     H58414   9.717   9.211   7.841  1.5209 -0.8300 -1.9807
  433MOL0     H58415   9.953   8.844   7.876 -0.3117 -3.0997  0.7692
  433MOL0     H58416  10.003   8.698   8.047 -1.6466 -1.0651  0.6647
  433MOL0     H58417  10.210   8.435   8.209  0.5955  0.4926 -0.7548
  433MOL0     H58418  10.285   8.245   8.334 -1.8884 -1.4248 -0.7765
  433MOL0     H58419  10.365   8.022   8.543 -1.8007  0.2972  2.3432
  433MOL0     H58420  10.425   8.174   8.458 -1.8007  2.1835  0.1310
  433MOL0     H58421  10.431   8.082   8.741 -2.6459  0.9243 -1.3103
  433MOL0     H58422  10.571   8.056   8.625  1.0790  2.4049  2.5119
  433MOL0     H58423  10.582   8.308   8.586 -2.4934  4.3276  0.9255
  433MOL0     H58424  10.477   8.317   8.728 -1.2352 -0.0988 -0.9240
  433MOL0     H58425  10.637   8.158   8.843 -0.4252 -3.0954 -2.4413
  433MOL0     H58426  10.702   8.320   8.803  2.1863  1.5011 -2.5965
  433MOL0     H58427  10.798   8.052   8.705 -0.0953  0.5611 -2.0855
  433MOL0     H58428  10.883   8.190   8.767  1.2718 -0.1352 -0.8973
  433MOL0     H58429  10.757   8.146   8.493 -2.4373  3.8925 -0.7840
  433MOL0     H58430  10.794   8.302   8.532 -1.4307 -0.0268  2.3562
  433MOL0     H58431  11.012   8.075   8.538  1.1816  0.0305 -0.0410
  433MOL0     H58432  11.044   8.241   8.588 -0.2170 -0.0125  1.3997
  433MOL0     H58433  10.967   8.309   8.348 -0.2922  0.5709  3.5553
  433MOL0     H58434  11.125   8.237   8.358  0.7048 -2.0622  0.7452
  433MOL0     H58435  10.202   8.447   8.704 -1.7311  1.7409 -0.0975
  433MOL0     H58436  10.127   8.650   8.574 -0.2041  0.4025 -1.2227
  433MOL0     H58437  10.001   9.018   8.346 -0.0131  0.1549 -0.0436
  433MOL0     H58438   9.911   9.167   8.167 -0.0241 -0.4704 -0.8281
  433MOL0     H58439   9.874   7.920   8.460 -0.3382 -1.1993  0.9462
  433MOL0     H58440   9.819   7.858   8.250  1.8968  2.0505 -0.0871
  433MOL0     H58441   9.394   7.770   8.008  2.5805 -2.8368 -0.1017
  433MOL0     H58442   9.242   7.737   7.842 -0.5814  1.8008  0.8362
  433MOL0     H58443   9.075   7.783   7.639 -1.1653 -1.1123 -0.4936
  433MOL0     H58444   9.176   7.640   7.672 -0.0699  1.2273  1.6429
  433MOL0     H58445   9.054   7.578   7.480  4.5947 -3.5153 -1.8515
  433MOL0     H58446   9.178   7.671   7.384 -0.6498 -0.0158  0.1428
  433MOL0     H58447   9.068   7.883   7.419  2.2108 -1.8683  1.2288
  433MOL0     H58448   8.918   7.803   7.483  0.6412 -0.5735  0.6901
  433MOL0     H58449   8.886   7.849   7.247  1.5700  0.4815 -1.6145
  433MOL0     H58450   9.013   7.753   7.203  0.7686  3.2652 -0.3505
  433MOL0     H58451   8.705   7.484   7.278  0.4888 -1.2798  0.1223
  433MOL0     H58452   9.524   7.876   7.556 -1.0016  2.8543  0.0609
  433MOL0     H58453   9.730   7.964   7.613 -1.1782 -1.2724 -0.4156
  433MOL0     H58454   9.748   8.016   7.772 -0.4529 -1.8224  3.7401
  433MOL0     H58455   9.798   7.846   7.726  0.8696  1.4130 -0.1671
  434MOL0     O58456   1.809   8.789   1.339  0.7890  0.4802 -0.6351
  434MOL0     C58457   1.894   8.770   1.261 -0.6711  0.3921 -0.2167
  434MOL0     O58458   2.009   8.685   1.283  0.4551  0.5818 -0.1081
  434MOL0     C58459   2.009   8.613   1.403  0.1359 -0.0711  0.1501
  434MOL0     C58460   2.073   8.656   1.518 -0.5651 -0.1214 -1.0759
  434MOL0     C58461   2.060   8.581   1.631  0.4543  0.3519  0.0888
  434MOL0     C58462   1.993   8.461   1.639 -0.6801 -0.0338 -0.2101
  434MOL0     O58463   1.983   8.412   1.770  0.3878 -0.6028  0.2365
  434MOL0     C58464   1.902   8.293   1.778 -0.1387  0.4558  0.4695
  434MOL0     C58465   1.874   8.258   1.922  0.5838 -0.4916 -0.5766
  434MOL0     C58466   1.808   8.369   2.002  0.3541 -0.1166  0.1751
  434MOL0     C58467   1.680   8.422   1.941  0.8165 -0.0106  0.5970
  434MOL0     C58468   1.592   8.493   2.057 -0.4137  0.5590 -0.6077
  434MOL0     C58469   1.455   8.530   1.992 -0.0752  0.3451  0.3051
  434MOL0     C58470   1.354   8.577   2.103  0.8835 -0.8802 -0.2990
  434MOL0     C58471   1.212   8.584   2.058 -0.6504  0.4375 -0.6170
  434MOL0     N58472   1.126   8.653   2.160  0.2689  0.0422 -0.4366
  434MOL0     C58473   1.112   8.790   2.166  0.3106  0.0766  0.0913
  434MOL0     C58474   1.014   8.815   2.259 -0.4292  0.0144 -0.1308
  434MOL0     C58475   0.947   8.954   2.296 -0.6635 -0.3094 -0.4632
  434MOL0     C58476   1.024   9.007   2.412 -0.5799 -0.2108  0.8109
  434MOL0     C58477   1.166   9.055   2.378 -0.3723 -0.6620 -0.5135
  434MOL0     C58478   1.233   9.089   2.519  0.5019 -1.6013 -0.6919
  434MOL0     O58479   1.152   9.189   2.595  0.3329  0.0829  0.0995
  434MOL0     C58480   1.201   9.221   2.720  0.1567 -0.3411 -0.4457
  434MOL0     C58481   1.122   9.190   2.824 -0.5717 -0.3957 -0.0963
  434MOL0     C58482   1.164   9.213   2.955  0.0418 -0.3550  0.2153
  434MOL0     C58483   1.282   9.279   2.977 -0.5960  0.0268 -0.1748
  434MOL0     C58484   1.333   9.305   3.113  0.1493 -0.2527 -0.0102
  434MOL0     O58485   1.255   9.300   3.217 -1.0700  0.7584 -0.2886
  434MOL0     C58486   1.301   9.316   3.345  0.0694 -0.1232  0.1534
  434MOL0     C58487   1.412   9.249   3.390  0.1889  0.5870 -0.6569
  434MOL0     C58488   1.461   9.251   3.526  0.3880 -0.6196 -0.2859
  434MOL0     C58489   1.387   9.343   3.612 -1.3245 -0.2500 -0.4520
  434MOL0     O58490   1.437   9.363   3.740  0.4472 -0.2128 -0.5646
  434MOL0     C58491   1.399   9.481   3.819  1.1543 -0.4897  0.4088
  434MOL0     C58492   1.469   9.484   3.946  0.1951 -0.2391 -0.3909
  434MOL0     C58493   1.436   9.361   4.027 -1.2433 -0.0052  0.9464
  434MOL0     C58494   1.518   9.367   4.162  0.5124 -0.3604 -0.5627
  434MOL0     C58495   1.508   9.244   4.246  0.0918 -0.4988 -0.0992
  434MOL0     C58496   1.573   9.262   4.382 -0.0537 -0.6351  0.1409
  434MOL0     C58497   1.602   9.132   4.449  0.2317 -0.5024 -0.7951
  434MOL0     C58498   1.710   9.048   4.392  0.2633  0.6768  0.0360
  434MOL0    Cl58499   1.862   9.142   4.377  0.1667  0.3119 -0.5742
  434MOL0     C58500   1.278   9.418   3.564 -1.0642  0.0038 -0.4355
  434MOL0     C58501   1.246   9.414   3.436 -0.0270  0.3450 -0.1478
  434MOL0     O58502   1.444   9.347   3.120 -0.0666  0.1331 -0.5075
  434MOL0     C58503   1.366   9.314   2.865  0.0072  0.4834  1.2443
  434MOL0     C58504   1.325   9.272   2.742 -1.1949  1.2612  0.0551
  434MOL0     N58505   0.987   8.693   2.317  0.4652 -0.0053  0.4914
  434MOL0     N58506   1.048   8.599   2.253 -0.6976 -0.4885 -0.2645
  434MOL0     C58507   1.926   8.413   1.524  0.2814 -0.0828  0.6833
  434MOL0     C58508   1.931   8.488   1.405  0.2500 -0.2355 -0.7168
  434MOL0     C58509   1.902   8.847   1.134 -0.4540  1.1745  1.2048
  434MOL0     C58510   2.008   8.818   1.037 -0.4743  0.8049 -0.8508
  434MOL0     C58511   2.015   8.873   0.913  0.1914 -1.1840  0.2436
  434MOL0     C58512   1.929   8.981   0.883  0.1542  0.5073  0.4068
  434MOL0     O58513   1.945   9.038   0.759 -0.5308 -0.6326  0.0147
  434MOL0     C58514   1.842   9.121   0.701  0.0599 -0.9082 -0.7703
  434MOL0     C58515   1.880   9.180   0.559  0.6434 -0.5596 -0.7192
  434MOL0     C58516   1.928   9.073   0.469 -0.1691 -0.6567 -0.6303
  434MOL0     C58517   1.958   9.133   0.326  0.1853  0.7320 -0.7006
  434MOL0     C58518   2.080   9.214   0.324  0.9840  0.8837  0.0604
  434MOL0     C58519   2.176   9.286   0.340 -0.7442  0.2940  0.3443
  434MOL0     C58520   1.829   9.022   0.974  0.9497  0.5814  0.4588
  434MOL0     C58521   1.806   8.942   1.083 -0.4326 -0.2648  0.7351
  434MOL0     C58522   1.682   8.977   1.152 -0.3772  0.8582  0.2017
  434MOL0     H58523   2.136   8.744   1.524 -0.2586 -0.3188 -1.4046
  434MOL0     H58524   2.108   8.617   1.722  3.8032  0.3291 -1.5051
  434MOL0     H58525   1.804   8.308   1.731  0.9364  0.9623 -1.7272
  434MOL0     H58526   1.960   8.208   1.742 -1.0255  0.3586 -0.8103
  434MOL0     H58527   1.965   8.224   1.971  1.5434 -2.3085 -3.3674
  434MOL0     H58528   1.808   8.171   1.927 -0.1606  0.1277  2.0431
  434MOL0     H58529   1.870   8.458   2.013 -2.2461  1.7698  0.4382
  434MOL0     H58530   1.796   8.333   2.104  3.5106 -0.6173  0.4635
  434MOL0     H58531   1.700   8.500   1.867  1.1069  1.7464  2.4188
  434MOL0     H58532   1.609   8.351   1.899  1.0297  0.7541 -1.1199
  434MOL0     H58533   1.564   8.426   2.140 -0.6033 -0.3261 -1.3713
  434MOL0     H58534   1.643   8.582   2.096 -0.8010  0.3326  0.4597
  434MOL0     H58535   1.480   8.597   1.909  2.3643 -0.0482  0.6620
  434MOL0     H58536   1.414   8.441   1.944  2.1804 -0.3237 -0.5003
  434MOL0     H58537   1.389   8.673   2.144  0.4656  0.3559 -2.6936
  434MOL0     H58538   1.362   8.507   2.187  1.9637 -1.1500 -0.6101
  434MOL0     H58539   1.201   8.629   1.959  2.3959  2.3163 -0.2352
  434MOL0     H58540   1.182   8.479   2.055 -1.2973  0.6172 -0.5441
  434MOL0     H58541   1.165   8.858   2.100 -1.1288  1.5176  0.3609
  434MOL0     H58542   0.939   9.026   2.214  1.9763  0.8307  0.1712
  434MOL0     H58543   0.845   8.940   2.335 -0.8808  2.0008 -0.0160
  434MOL0     H58544   0.967   9.086   2.462  0.2599  0.0993  1.3028
  434MOL0     H58545   1.038   8.917   2.473  3.2681 -0.5741 -0.3726
  434MOL0     H58546   1.171   9.143   2.314 -0.1360 -1.0284 -1.0117
  434MOL0     H58547   1.224   8.973   2.333  1.0353 -1.3223  2.2341
  434MOL0     H58548   1.325   9.135   2.483 -0.7699 -1.5803 -4.4177
  434MOL0     H58549   1.247   9.000   2.581  1.0454  1.2432  3.7348
  434MOL0     H58550   1.031   9.138   2.795  0.4090 -1.9457 -0.5468
  434MOL0     H58551   1.089   9.184   3.027 -0.9190 -0.0867 -0.6503
  434MOL0     H58552   1.452   9.179   3.318 -3.1578 -3.0013  0.6376
  434MOL0     H58553   1.546   9.200   3.569 -1.2413 -0.9308  2.8653
  434MOL0     H58554   1.424   9.575   3.769  0.9856 -0.4666  0.3664
  434MOL0     H58555   1.293   9.489   3.843  1.2942 -3.8221  2.6535
  434MOL0     H58556   1.577   9.477   3.930 -0.1204 -3.7604 -1.9923
  434MOL0     H58557   1.448   9.577   3.998 -1.1963  0.5893 -2.3026
  434MOL0     H58558   1.331   9.347   4.053 -0.7410  2.3409  5.2174
  434MOL0     H58559   1.477   9.271   3.979 -1.5626 -0.4764  1.5426
  434MOL0     H58560   1.486   9.448   4.227 -1.0981 -2.2661  1.1235
  434MOL0     H58561   1.619   9.387   4.125 -0.8493 -0.8668 -5.2255
  434MOL0     H58562   1.558   9.163   4.192 -1.1283 -2.0290  0.9551
  434MOL0     H58563   1.405   9.213   4.265 -0.1010  1.9453  4.3082
  434MOL0     H58564   1.670   9.312   4.379 -0.2870 -0.1741  0.2482
  434MOL0     H58565   1.506   9.333   4.431  0.4870  2.6527 -3.4049
  434MOL0     H58566   1.517   9.064   4.447  0.1535 -0.5660  1.6756
  434MOL0     H58567   1.623   9.147   4.556  1.1454 -0.7376 -0.9260
  434MOL0     H58568   1.717   8.965   4.463  1.2606  0.0187 -0.8013
  434MOL0     H58569   1.685   9.012   4.292 -1.5127 -2.3268  1.4327
  434MOL0     H58570   1.222   9.493   3.619  0.0960  0.1061  0.6661
  434MOL0     H58571   1.167   9.476   3.395 -3.3708 -3.7833 -0.7159
  434MOL0     H58572   1.461   9.367   2.873  0.6112  0.2581 -2.5454
  434MOL0     H58573   1.384   9.272   2.651 -2.3534  0.6713 -0.7323
  434MOL0     H58574   1.883   8.313   1.520  0.4247 -0.1065 -0.7739
  434MOL0     H58575   1.891   8.444   1.314  1.4143 -0.7118 -1.0137
  434MOL0     H58576   2.082   8.739   1.050 -1.8919 -0.6435 -1.2829
  434MOL0     H58577   2.092   8.845   0.841  1.5348 -0.6334  1.4167
  434MOL0     H58578   1.815   9.196   0.775  0.1233 -1.3902 -0.2553
  434MOL0     H58579   1.741   9.081   0.690 -0.1934 -0.2157 -1.0557
  434MOL0     H58580   1.964   9.250   0.567  0.0004  0.2357 -0.7497
  434MOL0     H58581   1.794   9.230   0.513  1.4719  2.0583  0.3693
  434MOL0     H58582   1.859   8.988   0.460 -1.1769  0.4138 -5.3006
  434MOL0     H58583   2.016   9.036   0.524 -1.5425 -0.5078  1.8085
  434MOL0     H58584   1.980   9.056   0.251  0.9069  0.1110  0.1347
  434MOL0     H58585   1.875   9.200   0.302 -0.4631 -0.0544 -0.6623
  434MOL0     H58586   2.251   9.353   0.376  0.0786 -0.0980 -0.6050
  434MOL0     H58587   1.765   9.107   0.955  1.3193  0.6572 -0.5323
  434MOL0     H58588   1.604   9.013   1.085  1.4874  0.3842 -2.3600
  434MOL0     H58589   1.646   8.882   1.193  0.1497 -0.0549 -1.3529
  434MOL0     H58590   1.704   9.046   1.235  2.7264  0.5506 -0.2460
  435MOL0     O58591   1.847   9.102   5.028  0.3472 -1.0795  0.3164
  435MOL0     C58592   1.895   9.086   4.917 -0.7961  1.4421 -0.4172
  435MOL0     O58593   1.843   9.012   4.811 -0.1672  0.1880 -0.4414
  435MOL0     C58594   1.702   9.006   4.824 -0.4729  0.8891  0.1139
  435MOL0     C58595   1.636   8.892   4.867  0.2128  0.1449 -0.0774
  435MOL0     C58596   1.500   8.884   4.887 -0.0323  0.2018 -0.2521
  435MOL0     C58597   1.422   8.998   4.875 -0.5273 -1.0532  0.5001
  435MOL0     O58598   1.302   9.001   4.920 -0.6130 -0.0231  0.4689
  435MOL0     C58599   1.305   9.012   5.063 -0.2371  0.5427 -0.6636
  435MOL0     C58600   1.158   9.008   5.109 -0.0018  0.1203 -0.4177
  435MOL0     C58601   1.094   8.875   5.070  0.0542 -0.2291  0.0566
  435MOL0     C58602   0.939   8.872   5.085  0.2585  0.5368  0.5408
  435MOL0     C58603   0.915   8.826   5.232  0.2638 -0.4630  0.1235
  435MOL0     C58604   0.776   8.811   5.294  0.2215 -0.0735  1.0782
  435MOL0     C58605   0.674   8.925   5.292 -0.1169  0.2982  0.4713
  435MOL0     C58606   0.742   9.050   5.367  0.0021 -0.7380  0.2305
  435MOL0     N58607   0.654   9.169   5.370 -0.6703  0.1827 -0.4513
  435MOL0     C58608   0.597   9.221   5.260  0.3054  0.7242  0.3286
  435MOL0     C58609   0.486   9.281   5.307  0.0742 -0.3490 -1.0676
  435MOL0     C58610   0.368   9.342   5.242 -0.3006  0.2431 -0.5638
  435MOL0     C58611   0.415   9.473   5.170  0.6145  0.2817  1.6047
  435MOL0     C58612   0.308   9.541   5.079 -0.1085  0.2041 -1.1682
  435MOL0     C58613   0.253   9.431   4.981  0.3431  0.1582  0.4292
  435MOL0     O58614   0.191   9.490   4.865  0.0297 -0.2954  0.0624
  435MOL0     C58615   0.062   9.513   4.865 -0.9075  0.4782 -0.1233
  435MOL0     C58616  -0.018   9.511   4.981  0.4857  0.0093 -0.9499
  435MOL0     C58617  -0.150   9.554   4.980 -0.5897 -0.7602 -1.5350
  435MOL0     C58618  -0.211   9.592   4.863 -0.4756  0.4611  0.2902
  435MOL0     C58619  -0.358   9.617   4.852  0.7233  0.7863  1.4387
  435MOL0     O58620  -0.415   9.621   4.720 -0.5794  0.6521  0.0908
  435MOL0     C58621  -0.538   9.680   4.703 -0.1122 -0.0216 -0.5871
  435MOL0     C58622  -0.588   9.796   4.760 -0.1876 -0.2954  0.1787
  435MOL0     C58623  -0.724   9.839   4.738 -0.1185  0.4041 -0.0332
  435MOL0     C58624  -0.812   9.767   4.652 -0.6318  0.6713 -1.6701
  435MOL0     O58625  -0.946   9.801   4.649 -0.3176 -0.4728 -0.1010
  435MOL0     C58626  -1.017   9.764   4.529 -0.2870 -0.1041 -0.9278
  435MOL0     C58627  -1.163   9.813   4.540  0.3699 -0.5753  0.8232
  435MOL0     C58628  -1.256   9.741   4.637 -0.1200  0.1540  0.3035
  435MOL0     C58629  -1.308   9.614   4.567 -0.6526 -0.8095 -0.8247
  435MOL0     C58630  -1.404   9.523   4.652  0.2864  0.2054 -0.5177
  435MOL0     C58631  -1.540   9.584   4.660 -0.0688 -0.4189  0.0075
  435MOL0     C58632  -1.654   9.496   4.699  1.0158  0.0153  1.2456
  435MOL0     C58633  -1.777   9.576   4.723  0.5696  0.5456 -0.2487
  435MOL0    Cl58634  -1.888   9.456   4.805  0.1826  0.1610 -0.3116
  435MOL0     C58635  -0.750   9.656   4.588  0.0028 -0.1804 -1.0490
  435MOL0     C58636  -0.622   9.605   4.624 -0.5939 -0.0430  0.0705
  435MOL0     O58637  -0.409   9.644   4.960  0.0348 -0.2116 -0.2776
  435MOL0     C58638  -0.133   9.596   4.746 -0.3877 -0.4079 -0.4017
  435MOL0     C58639   0.007   9.557   4.747  0.0123  0.4034  0.7706
  435MOL0     N58640   0.492   9.271   5.451  0.4370  0.7461  0.3965
  435MOL0     N58641   0.605   9.222   5.481  0.0819  0.5877  0.3904
  435MOL0     C58642   1.481   9.117   4.825  0.2701  0.5463 -0.5876
  435MOL0     C58643   1.619   9.121   4.803 -0.2904  0.1149  0.4635
  435MOL0     C58644   2.015   9.158   4.896  0.4329  0.1374 -0.3887
  435MOL0     C58645   2.079   9.151   4.773  0.2759  1.0001 -0.5104
  435MOL0     C58646   2.202   9.206   4.752 -0.4321 -0.7957  0.1879
  435MOL0     C58647   2.279   9.269   4.848  0.4510 -0.5242  0.7700
  435MOL0     O58648   2.398   9.323   4.812 -0.1240 -0.3214  0.1029
  435MOL0     C58649   2.479   9.378   4.918 -0.0594  0.0733  0.9924
  435MOL0     C58650   2.595   9.438   4.845 -0.2660 -0.4577  0.2780
  435MOL0     C58651   2.688   9.518   4.938 -0.5167 -0.1551  0.1852
  435MOL0     C58652   2.836   9.523   4.883  0.0257  0.8897 -0.7226
  435MOL0     C58653   2.914   9.604   4.979 -0.1716 -0.1295  0.3402
  435MOL0     C58654   2.992   9.666   5.050 -0.2809  0.1599 -0.1468
  435MOL0     C58655   2.212   9.291   4.969  0.6739 -1.0987 -1.0157
  435MOL0     C58656   2.086   9.238   4.996  0.8825 -0.5234  1.3972
  435MOL0     C58657   2.031   9.272   5.133 -0.1007 -0.0479  0.0156
  435MOL0     H58658   1.683   8.799   4.896 -0.3797 -0.5008 -1.1231
  435MOL0     H58659   1.451   8.789   4.906 -0.0669  0.5934  1.8332
  435MOL0     H58660   1.350   8.924   5.110 -2.1331 -0.1592 -0.0981
  435MOL0     H58661   1.357   9.104   5.094 -1.2691  1.0762 -0.4758
  435MOL0     H58662   1.102   9.090   5.063  1.2267  0.6863 -0.9338
  435MOL0     H58663   1.154   9.023   5.217  1.4420  1.0377 -0.4704
  435MOL0     H58664   1.131   8.788   5.126  3.7446 -0.1498 -1.9021
  435MOL0     H58665   1.118   8.849   4.966 -3.6104  1.8782 -1.5024
  435MOL0     H58666   0.893   8.970   5.068  1.4243  1.2141  1.1644
  435MOL0     H58667   0.884   8.805   5.019  0.0822 -0.2244  1.4346
  435MOL0     H58668   0.973   8.734   5.245  0.6625 -0.6313 -2.3287
  435MOL0     H58669   0.951   8.907   5.295 -1.7823 -0.5750  1.5448
  435MOL0     H58670   0.741   8.723   5.240  0.3761  1.1463 -1.1120
  435MOL0     H58671   0.791   8.777   5.397  2.6112  3.2653  1.9852
  435MOL0     H58672   0.578   8.895   5.334  0.1705  0.1443  1.0252
  435MOL0     H58673   0.648   8.971   5.196 -3.1212  1.6773  1.8180
  435MOL0     H58674   0.770   9.024   5.470  1.5224  2.4656  0.7439
  435MOL0     H58675   0.833   9.091   5.323  0.4590  0.4009  2.1407
  435MOL0     H58676   0.625   9.208   5.156  1.0035  0.6648  0.5223
  435MOL0     H58677   0.331   9.264   5.175 -0.7788 -2.2443  2.3877
  435MOL0     H58678   0.302   9.371   5.324  0.2989 -2.1659  0.8793
  435MOL0     H58679   0.440   9.548   5.246  2.1536 -0.1250  1.5150
  435MOL0     H58680   0.501   9.459   5.104 -2.6690 -1.6422 -2.8056
  435MOL0     H58681   0.365   9.619   5.026 -3.4871  4.6140  1.0566
  435MOL0     H58682   0.233   9.590   5.141  1.8881 -0.5672  2.1022
  435MOL0     H58683   0.192   9.358   5.035  1.9837 -0.9900  0.8249
  435MOL0     H58684   0.338   9.374   4.942  0.5087  0.1599  0.7834
  435MOL0     H58685   0.013   9.486   5.082  0.3285  2.2835 -0.2822
  435MOL0     H58686  -0.205   9.551   5.074  0.8708  0.5352 -0.6094
  435MOL0     H58687  -0.531   9.855   4.831 -1.3973 -0.8894  1.7194
  435MOL0     H58688  -0.754   9.926   4.796  1.9666 -1.0546  3.5918
  435MOL0     H58689  -0.973   9.815   4.443 -0.9350  0.8891 -0.6822
  435MOL0     H58690  -1.015   9.654   4.527  1.8764 -0.1026 -1.4636
  435MOL0     H58691  -1.154   9.914   4.579  2.8878 -0.0719 -0.8408
  435MOL0     H58692  -1.203   9.814   4.438 -0.0001  0.6325  0.9668
  435MOL0     H58693  -1.216   9.722   4.737  2.8262  0.1895 -0.7638
  435MOL0     H58694  -1.342   9.805   4.661 -1.1913 -2.4947  4.6475
  435MOL0     H58695  -1.211   9.564   4.554 -0.1207 -0.9277  2.6580
  435MOL0     H58696  -1.355   9.650   4.475  1.5175  0.7955 -1.3784
  435MOL0     H58697  -1.366   9.496   4.751 -1.5735 -2.1365 -0.3646
  435MOL0     H58698  -1.409   9.424   4.605  1.6246 -0.7211  1.1829
  435MOL0     H58699  -1.535   9.668   4.730 -2.5552 -0.9240  0.8622
  435MOL0     H58700  -1.556   9.619   4.557 -1.9659 -4.5290 -1.2687
  435MOL0     H58701  -1.632   9.438   4.788  1.4226 -2.1214 -0.1659
  435MOL0     H58702  -1.685   9.424   4.622  0.3268  1.2606  0.3046
  435MOL0     H58703  -1.761   9.663   4.788  0.0006  0.4727 -0.0091
  435MOL0     H58704  -1.809   9.610   4.624  1.2243  1.8411 -0.0367
  435MOL0     H58705  -0.809   9.610   4.509 -1.6886 -1.5761  0.9051
  435MOL0     H58706  -0.602   9.511   4.572 -0.7656  0.7182 -1.4378
  435MOL0     H58707  -0.173   9.634   4.652 -0.3104  3.5937  1.0001
  435MOL0     H58708   0.065   9.555   4.655  0.7167 -0.0030  1.2200
  435MOL0     H58709   1.426   9.210   4.814  2.2008  1.7788 -0.1693
  435MOL0     H58710   1.670   9.213   4.781  1.3147 -0.6677  0.7849
  435MOL0     H58711   2.030   9.103   4.689  0.2713  2.8140 -1.6043
  435MOL0     H58712   2.259   9.184   4.662 -1.7186  0.0719 -0.8843
  435MOL0     H58713   2.515   9.293   4.977  2.9609  2.2354  2.5360
  435MOL0     H58714   2.438   9.452   4.987  2.3647  0.0053  2.6292
  435MOL0     H58715   2.553   9.494   4.761 -0.5382 -2.0295 -0.6705
  435MOL0     H58716   2.658   9.359   4.802  3.1075  0.5825  2.8590
  435MOL0     H58717   2.683   9.466   5.034  0.2885  0.0828  0.3576
  435MOL0     H58718   2.646   9.618   4.950  0.7937  0.3817  0.4087
  435MOL0     H58719   2.876   9.424   4.860  2.0362  1.6169 -0.6360
  435MOL0     H58720   2.845   9.572   4.785  0.6267 -0.8321 -1.5662
  435MOL0     H58721   3.062   9.695   5.126 -2.3752 -0.9683  2.3617
  435MOL0     H58722   2.255   9.341   5.055 -1.0481 -1.7955  0.3136
  435MOL0     H58723   2.122   9.279   5.194  1.1488  0.4372 -1.8450
  435MOL0     H58724   1.984   9.370   5.125 -0.2603  0.0404  1.6880
  435MOL0     H58725   1.971   9.206   5.197 -1.0559  0.1489 -0.6544
  436MOL0     O58726   8.830   8.771   9.459 -0.0733  0.2988  0.6145
  436MOL0     C58727   8.740   8.714   9.527 -0.3782  0.7116 -0.5034
  436MOL0     O58728   8.758   8.671   9.663 -0.1580 -0.7490  0.5080
  436MOL0     C58729   8.879   8.639   9.717 -0.4921  0.6014 -0.3691
  436MOL0     C58730   9.009   8.662   9.667 -0.0708 -0.3398  1.2341
  436MOL0     C58731   9.118   8.633   9.748  0.1353  0.3174 -0.1557
  436MOL0     C58732   9.110   8.581   9.886  0.1966 -0.8125  0.9643
  436MOL0     O58733   9.215   8.535   9.953 -0.2459 -0.1180 -0.7631
  436MOL0     C58734   9.288   8.420   9.900 -0.1524  0.2591  1.0764
  436MOL0     C58735   9.393   8.365   9.988 -0.0168 -0.3344 -0.6178
  436MOL0     C58736   9.352   8.342  10.138 -0.6192  0.6909 -0.7265
  436MOL0     C58737   9.322   8.470  10.224 -0.8650 -0.5970  0.7352
  436MOL0     C58738   9.309   8.418  10.366 -0.1842 -0.4415  0.2358
  436MOL0     C58739   9.227   8.512  10.453 -0.1917  0.2494 -0.4597
  436MOL0     C58740   9.243   8.470  10.598  0.5100  1.0312  1.1393
  436MOL0     C58741   9.140   8.529  10.697  0.3440 -0.5031 -0.0509
  436MOL0     N58742   9.153   8.672  10.715  0.1779 -0.1663 -0.6904
  436MOL0     C58743   9.274   8.742  10.712  0.1414 -0.4097  0.3692
  436MOL0     C58744   9.244   8.874  10.717  0.3863 -0.7250  0.0258
  436MOL0     C58745   9.340   8.992  10.714  0.3673 -0.0322  0.5014
  436MOL0     C58746   9.446   8.985  10.599  0.0242  0.1065 -0.3210
  436MOL0     C58747   9.550   9.093  10.632 -0.7108  0.5878  0.5685
  436MOL0     C58748   9.541   9.225  10.552  0.4725  0.0149 -0.1222
  436MOL0     O58749   9.414   9.283  10.533 -0.0742 -0.0067  0.1099
  436MOL0     C58750   9.357   9.281  10.405 -0.3805 -0.0818  0.0354
  436MOL0     C58751   9.221   9.239  10.392 -0.1850  0.3482  0.6919
  436MOL0     C58752   9.164   9.239  10.268 -0.6496 -0.4011  0.0485
  436MOL0     C58753   9.220   9.296  10.151  0.3791 -0.3441  0.0797
  436MOL0     C58754   9.145   9.287  10.021 -0.9416  0.4649  0.5914
  436MOL0     O58755   9.009   9.278  10.034 -0.1789  0.3857  0.5154
  436MOL0     C58756   8.938   9.266   9.912 -0.4236 -0.1379  0.0866
  436MOL0     C58757   8.939   9.155   9.833  0.2053 -0.0980  0.2003
  436MOL0     C58758   8.891   9.158   9.700  0.9240 -0.0929 -0.5752
  436MOL0     C58759   8.821   9.272   9.656 -0.4636  0.0078 -1.1195
  436MOL0     O58760   8.792   9.276   9.520 -0.0255 -0.2038 -1.4876
  436MOL0     C58761   8.672   9.347   9.475  0.0952 -0.4794 -0.4064
  436MOL0     C58762   8.650   9.310   9.327  0.2289  0.8075 -0.7374
  436MOL0     C58763   8.627   9.156   9.316 -0.0709  0.1985  0.4585
  436MOL0     C58764   8.510   9.093   9.398 -0.1523  0.3221  0.0794
  436MOL0     C58765   8.376   9.157   9.381  0.5047  0.4556 -0.9928
  436MOL0     C58766   8.254   9.073   9.438 -0.3525  1.2457  0.2187
  436MOL0     C58767   8.267   9.036   9.580  0.3218 -0.3317 -0.1327
  436MOL0     C58768   8.221   9.152   9.673 -0.1529 -0.1754  0.1119
  436MOL0    Cl58769   8.043   9.168   9.658 -0.5395 -0.0740 -0.4158
  436MOL0     C58770   8.801   9.374   9.748 -0.5174 -0.3691  0.0559
  436MOL0     C58771   8.856   9.373   9.877  0.0767  0.2818  0.1949
  436MOL0     O58772   9.199   9.297   9.916 -0.8016 -0.3182  0.8823
  436MOL0     C58773   9.347   9.357  10.167  0.2117 -0.2256  0.5436
  436MOL0     C58774   9.419   9.338  10.290  1.1284 -0.3172  0.1897
  436MOL0     N58775   9.106   8.882  10.716 -0.1482  0.4226  0.2745
  436MOL0     N58776   9.050   8.764  10.723 -0.1018  0.4687  0.3831
  436MOL0     C58777   8.980   8.559   9.932  1.0055 -0.3238 -0.2426
  436MOL0     C58778   8.870   8.583   9.851 -0.5229  0.5595  0.1893
  436MOL0     C58779   8.594   8.708   9.495 -0.0613 -0.3291 -0.1665
  436MOL0     C58780   8.491   8.707   9.591  0.3503  0.5647 -0.4936
  436MOL0     C58781   8.355   8.708   9.543  0.4534 -0.3566 -0.5960
  436MOL0     C58782   8.318   8.710   9.411 -0.0777  0.3024 -0.2636
  436MOL0     O58783   8.182   8.722   9.372 -0.0820 -0.1565 -0.6205
  436MOL0     C58784   8.086   8.674   9.461  0.1558  0.2011 -0.1951
  436MOL0     C58785   7.944   8.731   9.427  0.2160 -0.3577  0.9326
  436MOL0     C58786   7.944   8.888   9.397  0.4962  0.7558  0.4431
  436MOL0     C58787   7.802   8.940   9.385 -0.3345  0.7283  0.2059
  436MOL0     C58788   7.737   8.948   9.520 -0.2213 -0.1257 -0.0101
  436MOL0     C58789   7.679   8.955   9.634  0.3549 -0.1382  0.3381
  436MOL0     C58790   8.413   8.714   9.319  0.4371 -1.0097  0.1256
  436MOL0     C58791   8.547   8.710   9.358  0.7304 -0.4299 -0.7091
  436MOL0     C58792   8.631   8.715   9.231 -1.3248 -0.3599  0.3343
  436MOL0     H58793   9.031   8.691   9.564  1.4593 -0.6740  1.4500
  436MOL0     H58794   9.218   8.646   9.707  0.8933 -2.9646  0.3803
  436MOL0     H58795   9.217   8.340   9.876 -2.6367  2.9532 -1.3527
  436MOL0     H58796   9.341   8.456   9.811  1.3603 -0.6777  1.5628
  436MOL0     H58797   9.482   8.427   9.992 -0.2767  0.0345 -0.4748
  436MOL0     H58798   9.402   8.260   9.958  0.4691 -0.4983  0.0692
  436MOL0     H58799   9.435   8.283  10.175  0.5225  1.6498 -1.6797
  436MOL0     H58800   9.272   8.268  10.140  0.1321 -0.1123  0.2125
  436MOL0     H58801   9.409   8.535  10.213  0.9041 -2.7685  1.1418
  436MOL0     H58802   9.229   8.517  10.190 -0.5152 -0.7359 -0.4578
  436MOL0     H58803   9.259   8.321  10.358 -2.2684  0.6370 -0.4023
  436MOL0     H58804   9.408   8.411  10.411 -0.2269  1.1053  0.6236
  436MOL0     H58805   9.256   8.618  10.448 -1.7828  0.8417  1.5745
  436MOL0     H58806   9.123   8.511  10.419  0.4792  1.1625 -2.6902
  436MOL0     H58807   9.342   8.502  10.632 -0.7660  2.6380  3.7219
  436MOL0     H58808   9.226   8.362  10.597 -0.9337  1.2351  1.6892
  436MOL0     H58809   9.037   8.509  10.666  0.0903 -0.3858  0.6926
  436MOL0     H58810   9.149   8.484  10.797 -2.1535  2.0856  1.4691
  436MOL0     H58811   9.369   8.690  10.713 -1.5178 -3.7603 -0.2104
  436MOL0     H58812   9.280   9.083  10.703  0.1165 -0.2273  0.2770
  436MOL0     H58813   9.395   9.010  10.807  0.0251  1.8377  0.3836
  436MOL0     H58814   9.502   8.891  10.602 -0.1464  0.0288  1.7242
  436MOL0     H58815   9.397   8.988  10.502 -0.2500 -0.8624 -0.2258
  436MOL0     H58816   9.648   9.050  10.607 -0.3240  1.3080  0.8030
  436MOL0     H58817   9.552   9.119  10.738 -1.1713 -0.7037  0.9048
  436MOL0     H58818   9.575   9.197  10.452 -0.8107 -3.7823  0.3232
  436MOL0     H58819   9.613   9.302  10.580  0.0022  0.8770 -1.2096
  436MOL0     H58820   9.168   9.200  10.478  0.9609  0.0166  1.2735
  436MOL0     H58821   9.073   9.179  10.265  0.3908 -2.1747  1.7235
  436MOL0     H58822   8.993   9.074   9.881  0.5134  0.9959  1.7682
  436MOL0     H58823   8.914   9.082   9.627 -0.6948  0.3286 -1.5686
  436MOL0     H58824   8.592   9.322   9.546  0.1271 -0.1533 -0.2553
  436MOL0     H58825   8.672   9.456   9.480  1.3248 -0.4806 -0.2054
  436MOL0     H58826   8.565   9.360   9.280  0.6420  0.9101 -1.3703
  436MOL0     H58827   8.739   9.329   9.267  1.1658 -1.2027 -0.0721
  436MOL0     H58828   8.611   9.128   9.212  0.4630  1.2459  0.0740
  436MOL0     H58829   8.716   9.104   9.355 -0.5200  0.2505  1.6010
  436MOL0     H58830   8.544   9.107   9.501 -1.7263 -0.9391  0.7947
  436MOL0     H58831   8.515   8.987   9.374 -2.8864  0.5623 -1.9778
  436MOL0     H58832   8.352   9.173   9.276 -2.0751  1.3600 -0.3359
  436MOL0     H58833   8.377   9.258   9.423 -0.4005  0.2138 -0.3552
  436MOL0     H58834   8.167   9.134   9.411 -0.5819 -0.2639 -2.8805
  436MOL0     H58835   8.241   8.980   9.382  0.2032  0.1169  1.8711
  436MOL0     H58836   8.367   8.992   9.592  0.3817 -0.7306 -1.8938
  436MOL0     H58837   8.193   8.962   9.611  1.3091 -0.7765  1.2984
  436MOL0     H58838   8.249   9.136   9.777 -0.5736 -1.8982 -0.0087
  436MOL0     H58839   8.269   9.245   9.644  2.6786 -1.6322 -0.1970
  436MOL0     H58840   8.741   9.462   9.723 -1.0517 -0.9535 -0.8066
  436MOL0     H58841   8.843   9.459   9.942  1.2138  0.5933  0.0361
  436MOL0     H58842   9.389   9.404  10.078 -2.0245 -1.9336 -1.5240
  436MOL0     H58843   9.514   9.385  10.312  2.0034 -2.0938  0.3786
  436MOL0     H58844   8.983   8.511  10.029  0.8641 -5.0123 -2.2506
  436MOL0     H58845   8.779   8.537   9.889 -0.7102  0.9451  0.2102
  436MOL0     H58846   8.513   8.712   9.697  3.7518  1.4535 -1.1098
  436MOL0     H58847   8.294   8.715   9.632  1.8351  2.1036  0.2745
  436MOL0     H58848   8.108   8.692   9.567  1.9680  0.4328 -0.5703
  436MOL0     H58849   8.090   8.565   9.447 -1.6970  0.2407 -1.2909
  436MOL0     H58850   7.873   8.692   9.501 -1.5773 -0.7327 -0.9070
  436MOL0     H58851   7.914   8.677   9.337 -1.4768 -1.8362  2.2939
  436MOL0     H58852   8.003   8.904   9.306 -0.8141 -0.0258 -0.5807
  436MOL0     H58853   7.997   8.925   9.485  1.9282 -1.6568  0.6716
  436MOL0     H58854   7.795   9.043   9.350 -2.3375  0.7979  0.6852
  436MOL0     H58855   7.733   8.878   9.327 -0.6038  0.5192  0.7383
  436MOL0     H58856   7.633   8.950   9.731  1.3928 -1.2161  0.7943
  436MOL0     H58857   8.385   8.725   9.215  0.1963  0.6178  0.3344
  436MOL0     H58858   8.721   8.653   9.241  0.0432  0.3987 -4.7602
  436MOL0     H58859   8.587   8.674   9.140  1.3982 -1.2365 -0.6973
  436MOL0     H58860   8.663   8.818   9.213 -0.0714 -0.3187  2.4296
  437MOL0     O58861  10.695   9.703   6.569  0.1564  0.0191 -0.2816
  437MOL0     C58862  10.748   9.609   6.509  0.2199 -0.7353  0.6820
  437MOL0     O58863  10.848   9.535   6.563  0.3148 -0.5312 -0.2503
  437MOL0     C58864  10.869   9.554   6.702 -0.0909 -0.0335  0.2058
  437MOL0     C58865  10.999   9.578   6.759 -1.0446  0.4530  0.8227
  437MOL0     C58866  11.008   9.588   6.895 -0.0975  0.7934 -0.9739
  437MOL0     C58867  10.894   9.560   6.980 -0.3216 -0.2689  0.1171
  437MOL0     O58868  10.929   9.557   7.120 -0.2675 -0.3264  0.1341
  437MOL0     C58869  10.813   9.602   7.194 -0.4819  0.0075  0.9064
  437MOL0     C58870  10.867   9.611   7.338  0.0934  0.5482  0.3068
  437MOL0     C58871  10.748   9.642   7.433  0.4969 -0.3767  0.0331
  437MOL0     C58872  10.812   9.683   7.568 -0.8574  0.1947  0.5931
  437MOL0     C58873  10.705   9.735   7.661 -0.0897  1.0086  0.8790
  437MOL0     C58874  10.769   9.796   7.785  0.3147 -1.1499  0.8281
  437MOL0     C58875  10.679   9.908   7.844  0.0144 -0.0228  0.3464
  437MOL0     C58876  10.558   9.858   7.908 -0.9478  0.4211 -0.7364
  437MOL0     N58877  10.486   9.976   7.964 -0.5373  0.4998  0.3867
  437MOL0     C58878  10.355  10.004   7.926  0.2420 -0.3247 -0.1029
  437MOL0     C58879  10.315  10.095   8.020  0.9941  0.0500  0.4335
  437MOL0     C58880  10.179  10.159   8.033 -0.5610 -0.3451  0.4998
  437MOL0     C58881  10.120  10.175   8.176  0.2216  0.6129 -0.2037
  437MOL0     C58882   9.976  10.131   8.200 -0.0632  0.5176  0.1289
  437MOL0     C58883   9.868  10.227   8.138 -0.2172  0.0095  0.6587
  437MOL0     O58884   9.736  10.169   8.099 -0.1388  0.2428  0.3757
  437MOL0     C58885   9.643  10.167   8.198  0.6381  0.5019 -0.1121
  437MOL0     C58886   9.521  10.104   8.158 -0.0796  0.1632 -1.4577
  437MOL0     C58887   9.416  10.078   8.250 -0.1877 -0.6548 -0.3137
  437MOL0     C58888   9.433  10.120   8.387 -0.7323 -0.0288  0.6276
  437MOL0     C58889   9.326  10.110   8.478 -0.6690  0.6474  0.1854
  437MOL0     O58890   9.211  10.169   8.433 -0.4421 -0.9817 -0.2906
  437MOL0     C58891   9.104  10.163   8.513 -0.2625  0.4417 -0.2156
  437MOL0     C58892   9.098  10.209   8.642 -0.3240  0.5667 -0.1706
  437MOL0     C58893   8.977  10.198   8.713  0.0603  0.2928  1.1483
  437MOL0     C58894   8.862  10.145   8.651 -0.2901 -0.3834 -1.0858
  437MOL0     O58895   8.752  10.129   8.727 -0.4833  0.0990 -0.6366
  437MOL0     C58896   8.691   9.996   8.727  0.5514  0.4447  0.2470
  437MOL0     C58897   8.590   9.989   8.852 -0.8888 -0.6894  0.9667
  437MOL0     C58898   8.539   9.847   8.861 -1.3374 -0.0241  0.4550
  437MOL0     C58899   8.407   9.841   8.940  0.1154  0.5690 -0.4452
  437MOL0     C58900   8.341   9.700   8.935  0.6649 -0.3181 -0.8338
  437MOL0     C58901   8.192   9.707   8.985  0.0652 -0.0079 -0.0296
  437MOL0     C58902   8.095   9.797   8.900 -0.3594 -0.3234  0.1539
  437MOL0     C58903   7.959   9.791   8.954 -0.0637 -0.9016 -0.3279
  437MOL0    Cl58904   7.879   9.648   8.912  0.3981 -0.5025 -0.2484
  437MOL0     C58905   8.870  10.100   8.522  0.5338 -0.4286 -0.4539
  437MOL0     C58906   8.992  10.110   8.451  0.4541  0.7473 -1.0707
  437MOL0     O58907   9.342  10.042   8.586  0.0353  0.1192 -0.0132
  437MOL0     C58908   9.554  10.190   8.421  0.6904 -0.4294 -0.1211
  437MOL0     C58909   9.655  10.212   8.330 -0.3196  1.0777 -0.7642
  437MOL0     N58910  10.419  10.119   8.105  0.0940  0.0962  0.1854
  437MOL0     N58911  10.514  10.047   8.071  0.3862 -0.5074 -0.3862
  437MOL0     C58912  10.771   9.531   6.927  0.2782 -0.4507  0.3556
  437MOL0     C58913  10.765   9.529   6.786  0.0208 -0.7724 -0.1649
  437MOL0     C58914  10.738   9.594   6.361  0.0441 -0.0034 -0.4001
  437MOL0     C58915  10.615   9.629   6.310 -0.4713 -0.3717  0.2725
  437MOL0     C58916  10.588   9.613   6.175  0.6195 -1.2818  0.5596
  437MOL0     C58917  10.687   9.573   6.079  0.2511  1.5247  0.9962
  437MOL0     O58918  10.674   9.561   5.937  0.1478  0.0921 -0.7253
  437MOL0     C58919  10.549   9.590   5.882 -0.1071 -0.3660 -0.2327
  437MOL0     C58920  10.533   9.542   5.740 -0.1176  0.0018  0.2345
  437MOL0     C58921  10.654   9.600   5.662  0.3613  0.0452  0.3039
  437MOL0     C58922  10.607   9.636   5.523 -0.3164 -0.0522  0.2236
  437MOL0     C58923  10.573   9.510   5.461 -1.0311 -0.2637  0.5491
  437MOL0     C58924  10.548   9.405   5.406  0.3169  0.5923 -0.5250
  437MOL0     C58925  10.817   9.553   6.134  0.3944 -0.5007 -0.3796
  437MOL0     C58926  10.845   9.557   6.272  0.8191  0.6446 -1.0486
  437MOL0     C58927  10.989   9.517   6.305 -0.7983  0.4093  0.5102
  437MOL0     H58928  11.077   9.595   6.686 -1.9334  1.8504  0.1403
  437MOL0     H58929  11.098   9.611   6.950 -1.3103  2.0555  0.5964
  437MOL0     H58930  10.791   9.700   7.151 -2.0527  0.0998  1.8187
  437MOL0     H58931  10.723   9.540   7.190 -1.0423  0.8059  0.8860
  437MOL0     H58932  10.947   9.685   7.344 -0.8829  1.5463  5.2667
  437MOL0     H58933  10.909   9.517   7.377 -1.9259 -0.0079  1.2811
  437MOL0     H58934  10.665   9.572   7.448 -1.8517  2.3130  0.5442
  437MOL0     H58935  10.711   9.736   7.390 -1.6267  1.0670  4.3543
  437MOL0     H58936  10.852   9.590   7.608 -0.5955  0.1692  0.2815
  437MOL0     H58937  10.889   9.757   7.543  0.5272 -1.2363  0.4620
  437MOL0     H58938  10.636   9.800   7.607 -2.3012 -0.9695  1.1157
  437MOL0     H58939  10.644   9.651   7.696 -0.2298 -0.2924 -2.2035
  437MOL0     H58940  10.799   9.720   7.858  0.9321 -0.5172  1.2310
  437MOL0     H58941  10.861   9.848   7.758 -0.4056 -1.6631 -3.4281
  437MOL0     H58942  10.641   9.980   7.771 -1.3012  1.0550  2.0176
  437MOL0     H58943  10.736   9.967   7.916  1.2748  2.2688 -2.3289
  437MOL0     H58944  10.499   9.792   7.844  0.1352 -1.4467  0.1205
  437MOL0     H58945  10.585   9.791   7.990  1.0660 -0.8852 -2.3814
  437MOL0     H58946  10.304   9.973   7.835 -0.8678 -0.2822  0.4883
  437MOL0     H58947  10.186  10.256   7.981  0.2680  0.2597  1.6999
  437MOL0     H58948  10.117  10.097   7.967  3.4115  0.1255 -4.2820
  437MOL0     H58949  10.178  10.106   8.238 -2.3765  0.1945  1.9305
  437MOL0     H58950  10.131  10.275   8.218  2.6437 -0.4861  2.0819
  437MOL0     H58951   9.962  10.119   8.308 -0.9286 -0.8071 -0.1119
  437MOL0     H58952   9.950  10.036   8.154 -3.0853  1.1974  0.2077
  437MOL0     H58953   9.906  10.269   8.044 -3.4182  0.0078 -0.7903
  437MOL0     H58954   9.858  10.309   8.209 -2.6528  0.5744 -0.2299
  437MOL0     H58955   9.505  10.083   8.053 -0.0821 -0.7027 -1.2925
  437MOL0     H58956   9.326  10.031   8.212 -0.3057  0.0078 -0.8776
  437MOL0     H58957   9.189  10.256   8.679 -0.2529 -0.8446  1.5387
  437MOL0     H58958   8.958  10.242   8.810  0.3790  1.1711  0.8293
  437MOL0     H58959   8.637   9.984   8.632  0.8353  2.6403 -0.2476
  437MOL0     H58960   8.771   9.922   8.738  1.8287  1.6120 -0.9061
  437MOL0     H58961   8.637  10.028   8.943  1.2831  0.1863 -0.4704
  437MOL0     H58962   8.504  10.050   8.824 -0.4331 -0.9852 -1.2001
  437MOL0     H58963   8.523   9.804   8.761  1.6446 -0.1660 -0.0734
  437MOL0     H58964   8.617   9.781   8.902 -0.6853  0.2360 -0.3298
  437MOL0     H58965   8.347   9.921   8.895 -1.0721  0.0566  0.1837
  437MOL0     H58966   8.429   9.865   9.044 -2.4768  2.9252 -0.3073
  437MOL0     H58967   8.393   9.621   8.990  2.9585  1.5437 -0.1671
  437MOL0     H58968   8.345   9.662   8.832  3.0820  0.9043 -1.2712
  437MOL0     H58969   8.149   9.607   8.987  3.2569 -1.5568 -1.2809
  437MOL0     H58970   8.208   9.741   9.088  1.7475  2.5717 -1.0347
  437MOL0     H58971   8.099   9.770   8.794 -1.8213  2.0301 -0.5773
  437MOL0     H58972   8.131   9.900   8.914 -0.2549 -0.6370  2.7943
  437MOL0     H58973   7.958   9.809   9.062 -0.7005 -0.1122 -0.4558
  437MOL0     H58974   7.898   9.866   8.903  2.9742  0.9052 -1.5463
  437MOL0     H58975   8.780  10.062   8.474  1.8894 -4.3224 -0.3233
  437MOL0     H58976   8.991  10.076   8.348  0.1484 -1.0021 -0.5237
  437MOL0     H58977   9.564  10.227   8.522 -4.4120  1.9817 -0.1579
  437MOL0     H58978   9.751  10.236   8.375 -0.6802 -0.5711  0.9862
  437MOL0     H58979  10.686   9.492   6.982  0.6927 -1.7696  0.0830
  437MOL0     H58980  10.670   9.511   6.736  0.8332 -0.4604 -1.9191
  437MOL0     H58981  10.537   9.661   6.378  1.4645 -0.6403  2.7666
  437MOL0     H58982  10.487   9.636   6.144  1.1289  1.4296  0.6483
  437MOL0     H58983  10.538   9.698   5.890  1.4726 -0.3523  4.3680
  437MOL0     H58984  10.478   9.524   5.933  0.4512 -1.0731 -0.3418
  437MOL0     H58985  10.435   9.558   5.694 -0.3416  1.3790  1.1555
  437MOL0     H58986  10.549   9.434   5.746 -0.7594 -0.2071 -1.3767
  437MOL0     H58987  10.724   9.516   5.661 -0.7204 -0.8721 -0.6529
  437MOL0     H58988  10.699   9.685   5.713 -1.3633  1.3918 -0.3212
  437MOL0     H58989  10.530   9.713   5.525  0.6668  1.0826 -1.8966
  437MOL0     H58990  10.687   9.693   5.474 -1.4615 -0.4322 -2.2253
  437MOL0     H58991  10.544   9.314   5.350  1.9272  0.0267  0.2070
  437MOL0     H58992  10.905   9.531   6.074  2.0792 -1.2074  2.2158
  437MOL0     H58993  11.053   9.515   6.217  0.2588  1.0362  1.2438
  437MOL0     H58994  11.027   9.594   6.373 -2.0677  0.8494  0.7552
  437MOL0     H58995  10.986   9.417   6.348 -2.0982  0.3813  0.3958
  438MOL0     O58996   5.141   2.162   5.843  0.4746 -0.5491  0.0558
  438MOL0     C58997   5.179   2.266   5.785  0.2364  0.3540  0.2767
  438MOL0     O58998   5.257   2.266   5.670 -0.7668 -0.0031  0.3567
  438MOL0     C58999   5.309   2.145   5.622  0.1059 -0.2115 -0.6717
  438MOL0     C59000   5.452   2.104   5.640 -0.8287 -0.5134 -0.3337
  438MOL0     C59001   5.504   1.987   5.589  0.6602  0.2872  0.1945
  438MOL0     C59002   5.421   1.901   5.522 -0.1979 -0.2423 -1.4088
  438MOL0     O59003   5.479   1.787   5.483 -0.1580  0.5938  0.2566
  438MOL0     C59004   5.404   1.661   5.457 -0.5361 -0.3099 -0.6361
  438MOL0     C59005   5.496   1.538   5.478  0.4464 -0.7004  0.5323
  438MOL0     C59006   5.418   1.407   5.449  0.8755 -1.0413 -0.2820
  438MOL0     C59007   5.465   1.274   5.497 -0.3798 -0.2032 -0.4810
  438MOL0     C59008   5.409   1.147   5.427  0.5053  0.0824 -0.2854
  438MOL0     C59009   5.443   1.025   5.513  0.1478  0.3178 -0.2470
  438MOL0     C59010   5.594   0.996   5.522 -0.1782 -0.0523 -0.3935
  438MOL0     C59011   5.624   0.854   5.574 -0.0191  0.3078 -0.4004
  438MOL0     N59012   5.579   0.840   5.713  0.0359 -0.4647  1.3058
  438MOL0     C59013   5.620   0.900   5.830  0.3128  0.1536  0.1363
  438MOL0     C59014   5.536   0.843   5.924  0.6143 -0.3306 -0.1258
  438MOL0     C59015   5.548   0.868   6.073 -0.1957  0.3770  0.2290
  438MOL0     C59016   5.542   1.019   6.114 -0.0566 -0.1715 -0.2536
  438MOL0     C59017   5.403   1.067   6.150  0.9799  0.0269 -0.0980
  438MOL0     C59018   5.310   1.086   6.042  0.4507  0.7986  0.4130
  438MOL0     O59019   5.221   0.968   6.018  0.1378 -0.3080 -0.7381
  438MOL0     C59020   5.114   0.950   6.091  0.2766 -0.2373 -0.4392
  438MOL0     C59021   5.060   0.822   6.078  0.3452  0.3389 -0.0953
  438MOL0     C59022   4.941   0.796   6.146  0.2325 -0.3494  0.9542
  438MOL0     C59023   4.874   0.887   6.224  0.5279 -1.0192 -0.4725
  438MOL0     C59024   4.742   0.845   6.290  0.2073 -0.2602  0.5237
  438MOL0     O59025   4.680   0.722   6.272 -0.0994 -0.5429  0.6098
  438MOL0     C59026   4.574   0.689   6.350  0.0861 -0.2476  0.5250
  438MOL0     C59027   4.444   0.738   6.354 -0.4495  0.2993  0.4531
  438MOL0     C59028   4.351   0.703   6.452  0.7228 -0.0018  0.6634
  438MOL0     C59029   4.396   0.616   6.551  1.0887  0.0116 -0.2266
  438MOL0     O59030   4.316   0.601   6.658  0.8183  0.2226  0.3390
  438MOL0     C59031   4.251   0.480   6.661 -0.0876 -0.0359 -0.7256
  438MOL0     C59032   4.128   0.464   6.569 -0.4108  0.8541  0.3456
  438MOL0     C59033   4.162   0.369   6.442  0.3938 -0.9046  0.6423
  438MOL0     C59034   4.062   0.380   6.337 -0.2032 -0.7515  0.2779
  438MOL0     C59035   4.099   0.283   6.225 -1.1093 -0.5087 -0.1037
  438MOL0     C59036   3.978   0.255   6.134  0.1635  0.3531  0.3245
  438MOL0     C59037   4.004   0.207   5.995 -0.2013 -0.4972  0.2255
  438MOL0     C59038   3.885   0.130   5.934  0.1521  0.4836  0.9015
  438MOL0    Cl59039   3.748   0.235   5.938  0.0814  0.3277 -0.1350
  438MOL0     C59040   4.522   0.553   6.546  0.4688  1.0268 -0.1626
  438MOL0     C59041   4.610   0.589   6.449 -0.3928 -0.8606 -0.8479
  438MOL0     O59042   4.715   0.921   6.381  0.2264 -0.6643 -1.0028
  438MOL0     C59043   4.930   1.015   6.245  0.7488  0.2317 -0.3900
  438MOL0     C59044   5.044   1.050   6.175 -1.4462 -0.4366  1.0872
  438MOL0     N59045   5.453   0.747   5.875 -0.7348 -0.1391 -0.2115
  438MOL0     N59046   5.487   0.743   5.747  0.0759  0.3614  0.4835
  438MOL0     C59047   5.285   1.931   5.513 -0.7795  0.1196  1.1496
  438MOL0     C59048   5.230   2.055   5.553  0.2764  0.2022  0.2852
  438MOL0     C59049   5.143   2.398   5.831  0.8754  0.1600 -0.1139
  438MOL0     C59050   5.028   2.417   5.908  0.1931  0.5322  0.2588
  438MOL0     C59051   4.994   2.529   5.976  0.1630  0.3657 -0.9334
  438MOL0     C59052   5.079   2.639   5.967 -0.4706  0.0582  0.8111
  438MOL0     O59053   5.049   2.760   6.022 -0.1287  1.3328 -0.9782
  438MOL0     C59054   4.937   2.764   6.108  0.3249 -0.2860  0.0599
  438MOL0     C59055   4.928   2.895   6.189 -0.1165 -0.9979  0.0151
  438MOL0     C59056   5.046   2.912   6.290 -0.2865  0.1727  0.5000
  438MOL0     C59057   5.028   3.023   6.392 -1.2017 -0.7259  0.4966
  438MOL0     C59058   5.014   3.156   6.327 -0.1358 -0.4513  0.0163
  438MOL0     C59059   5.005   3.269   6.281 -0.2246 -0.0348 -0.0491
  438MOL0     C59060   5.195   2.628   5.890  0.5834 -0.2930 -0.5734
  438MOL0     C59061   5.233   2.506   5.825  1.0854 -0.6611  0.1989
  438MOL0     C59062   5.374   2.512   5.783  0.2938  0.0372 -0.1957
  438MOL0     H59063   5.523   2.167   5.693 -0.8008 -1.1859  0.4401
  438MOL0     H59064   5.610   1.970   5.606  0.3521 -1.2389  0.7220
  438MOL0     H59065   5.315   1.661   5.520  0.7625  2.1313  1.3647
  438MOL0     H59066   5.356   1.665   5.358 -1.4234  0.7905 -0.1716
  438MOL0     H59067   5.537   1.538   5.579  4.2483  1.7906 -0.8035
  438MOL0     H59068   5.581   1.543   5.410  1.2636 -0.2137  1.5615
  438MOL0     H59069   5.419   1.389   5.341  1.8342 -2.1322 -0.1144
  438MOL0     H59070   5.315   1.408   5.486 -0.3014 -3.0164 -3.2429
  438MOL0     H59071   5.574   1.266   5.497 -0.4096 -0.6983 -0.3795
  438MOL0     H59072   5.441   1.279   5.603  3.0057  3.8496  0.3682
  438MOL0     H59073   5.301   1.161   5.415  0.0504 -3.1699 -0.8579
  438MOL0     H59074   5.452   1.134   5.328  1.0095 -0.5120  0.0034
  438MOL0     H59075   5.396   1.048   5.609 -1.5865  1.6527 -1.3499
  438MOL0     H59076   5.398   0.937   5.466 -0.0893  0.8243 -0.9878
  438MOL0     H59077   5.644   1.066   5.590  0.5660  0.8721 -1.8297
  438MOL0     H59078   5.650   0.997   5.428  2.2814  0.6214  1.0000
  438MOL0     H59079   5.578   0.779   5.510 -1.4515  1.6012 -0.9347
  438MOL0     H59080   5.732   0.840   5.589 -0.5655 -2.1728  2.0022
  438MOL0     H59081   5.695   0.975   5.848  0.4139  0.6698 -2.1580
  438MOL0     H59082   5.483   0.811   6.140  2.8071 -2.1322  1.2752
  438MOL0     H59083   5.649   0.826   6.083  0.1734  0.7044 -1.7719
  438MOL0     H59084   5.609   1.030   6.200  0.4209 -0.5426 -0.5714
  438MOL0     H59085   5.577   1.091   6.041  0.5877  1.0890  1.2377
  438MOL0     H59086   5.405   1.166   6.196  2.5503 -0.1877  0.3366
  438MOL0     H59087   5.361   1.002   6.228  0.1867  0.8240  0.1635
  438MOL0     H59088   5.377   1.104   5.957 -2.1712 -0.6507 -2.1551
  438MOL0     H59089   5.244   1.173   6.047 -2.2303 -1.0955 -0.1960
  438MOL0     H59090   5.100   0.740   6.020 -0.1574  0.3167 -0.4088
  438MOL0     H59091   4.904   0.695   6.130  1.5043 -0.3819 -2.4924
  438MOL0     H59092   4.411   0.806   6.277  0.2520 -0.3920 -0.4775
  438MOL0     H59093   4.258   0.754   6.475  0.4075 -0.4846  0.4865
  438MOL0     H59094   4.325   0.401   6.647  1.9337  2.1292 -3.4841
  438MOL0     H59095   4.221   0.465   6.765 -0.1035 -1.9524 -0.9634
  438MOL0     H59096   4.050   0.415   6.628  0.8198 -1.0187  0.5274
  438MOL0     H59097   4.093   0.564   6.543 -1.5727 -0.0627 -1.8640
  438MOL0     H59098   4.266   0.380   6.407  0.0852 -2.6836 -0.9876
  438MOL0     H59099   4.135   0.269   6.476 -3.0810 -0.3090 -0.0064
  438MOL0     H59100   4.054   0.483   6.301  1.8854 -0.8568 -0.5961
  438MOL0     H59101   3.964   0.355   6.378  0.3702 -0.7783  1.6889
  438MOL0     H59102   4.140   0.185   6.251 -0.1209 -1.9245 -5.7232
  438MOL0     H59103   4.180   0.331   6.170  0.2983 -3.7119 -1.0829
  438MOL0     H59104   3.913   0.179   6.180  0.8161 -0.8550 -0.6648
  438MOL0     H59105   3.916   0.344   6.124 -1.3702 -0.7304 -0.2002
  438MOL0     H59106   4.097   0.150   6.000 -0.7737 -1.3413  2.1360
  438MOL0     H59107   4.021   0.293   5.930 -0.1171 -1.4968 -1.1352
  438MOL0     H59108   3.896   0.090   5.833  0.0188  2.4489  0.0602
  438MOL0     H59109   3.877   0.044   6.002 -0.0593 -1.0656 -1.0086
  438MOL0     H59110   4.541   0.481   6.625  0.6915 -1.8686 -2.6937
  438MOL0     H59111   4.713   0.555   6.459  0.2056  1.0481 -0.1543
  438MOL0     H59112   4.870   1.087   6.301 -1.7671 -3.0795  1.5423
  438MOL0     H59113   5.087   1.147   6.197 -3.5551  1.1935 -1.4526
  438MOL0     H59114   5.230   1.857   5.456  0.4922  2.0070 -2.9348
  438MOL0     H59115   5.122   2.069   5.549 -0.0149 -0.4839  3.3530
  438MOL0     H59116   4.945   2.348   5.915  0.0767  0.7441  1.0028
  438MOL0     H59117   4.896   2.540   6.022  1.4634  1.1840  1.8983
  438MOL0     H59118   4.925   2.674   6.169 -1.0464 -0.2483 -0.1272
  438MOL0     H59119   4.847   2.770   6.047 -1.1026  2.6381  2.1771
  438MOL0     H59120   4.829   2.901   6.234 -0.3326  1.5430 -0.5964
  438MOL0     H59121   4.936   2.985   6.127 -0.3916 -0.6487  0.4725
  438MOL0     H59122   5.139   2.936   6.237 -0.4288 -1.4257 -0.5386
  438MOL0     H59123   5.059   2.813   6.334 -3.5710 -0.0964  1.1033
  438MOL0     H59124   4.940   3.002   6.454 -1.8460  1.2248  0.3219
  438MOL0     H59125   5.107   3.024   6.468 -2.3661 -1.3013  1.7485
  438MOL0     H59126   5.004   3.370   6.247 -4.3390  0.2953  0.5289
  438MOL0     H59127   5.249   2.723   5.890 -2.2111  1.3942 -0.4568
  438MOL0     H59128   5.382   2.490   5.676 -6.2165 -2.9571 -0.5690
  438MOL0     H59129   5.429   2.603   5.808 -1.3168  1.2978 -1.0939
  438MOL0     H59130   5.440   2.442   5.836  0.2201  1.6584  2.1590
  439MOL0     O59131  11.352   3.750   5.991  0.6607  0.4221  0.0039
  439MOL0     C59132  11.345   3.784   6.109 -0.2320 -0.8209  0.3468
  439MOL0     O59133  11.328   3.907   6.154  0.2856  0.0668 -0.1150
  439MOL0     C59134  11.306   3.994   6.046 -0.9034 -0.1047 -0.6240
  439MOL0     C59135  11.386   4.111   6.039 -0.7663  0.2112 -0.6855
  439MOL0     C59136  11.354   4.215   5.947  0.3354 -0.6432  0.0505
  439MOL0     C59137  11.238   4.205   5.865 -0.0393  0.1437  0.0017
  439MOL0     O59138  11.189   4.307   5.789  0.2049 -0.0235  0.0603
  439MOL0     C59139  11.276   4.418   5.758  0.3997 -0.4402 -0.5446
  439MOL0     C59140  11.259   4.468   5.619  0.5996 -0.6562 -0.2990
  439MOL0     C59141  11.265   4.364   5.498  0.6069  0.1675  0.1803
  439MOL0     C59142  11.244   4.439   5.364 -0.0665  0.7503 -0.4011
  439MOL0     C59143  11.265   4.347   5.235  0.4649 -0.3658  0.1772
  439MOL0     C59144  11.404   4.284   5.231 -1.0746  0.0295  0.5032
  439MOL0     C59145  11.454   4.229   5.096 -1.5542  0.6235 -0.3747
  439MOL0     C59146  11.359   4.135   5.011 -0.2698  0.0278 -0.8378
  439MOL0     N59147  11.434   4.075   4.906 -0.6314 -0.5809  0.4326
  439MOL0     C59148  11.457   4.137   4.779  0.8489 -0.0294 -0.4683
  439MOL0     C59149  11.539   4.055   4.710 -0.8493  1.7446 -0.6199
  439MOL0     C59150  11.574   4.085   4.565 -0.4537  0.2453 -0.3663
  439MOL0     C59151  11.646   4.222   4.550 -0.0457 -1.0237 -0.1552
  439MOL0     C59152  11.633   4.294   4.416 -0.0557  0.4024  0.0483
  439MOL0     C59153  11.696   4.228   4.305 -0.5150  0.4038  1.2111
  439MOL0     O59154  11.838   4.240   4.305  0.5031  0.4701 -0.4944
  439MOL0     C59155  11.917   4.178   4.208 -0.5357 -0.3216 -0.2900
  439MOL0     C59156  12.050   4.186   4.229  0.0782  1.0213 -0.0547
  439MOL0     C59157  12.136   4.119   4.137 -1.5680 -0.1094 -1.0317
  439MOL0     C59158  12.094   4.059   4.025 -0.3120 -1.0790  0.1165
  439MOL0     C59159  12.183   4.005   3.921 -0.4112  0.3066 -0.6875
  439MOL0     O59160  12.139   3.930   3.816 -0.0446  0.1188 -0.0539
  439MOL0     C59161  12.222   3.936   3.719 -0.2344 -0.4019 -0.2007
  439MOL0     C59162  12.315   3.839   3.692 -0.4277  0.5047 -0.6035
  439MOL0     C59163  12.395   3.851   3.573  0.3259  0.1217 -0.9465
  439MOL0     C59164  12.383   3.964   3.491  0.4047 -0.4945 -0.5990
  439MOL0     O59165  12.479   3.973   3.399 -0.1241  0.3705 -0.4306
  439MOL0     C59166  12.445   4.046   3.282  0.1479 -0.2598 -0.5640
  439MOL0     C59167  12.507   4.187   3.277  0.1230  0.5307 -0.5330
  439MOL0     C59168  12.659   4.196   3.273  0.2028 -0.0083 -1.1767
  439MOL0     C59169  12.712   4.336   3.243 -0.3557 -0.0242  0.5799
  439MOL0     C59170  12.853   4.358   3.213 -0.8653 -0.9867  0.4125
  439MOL0     C59171  12.900   4.481   3.297 -1.2011  0.2961 -0.3061
  439MOL0     C59172  13.043   4.516   3.267  0.1245  0.5822 -0.0488
  439MOL0     C59173  13.076   4.659   3.317 -0.2960  0.9645 -0.5466
  439MOL0    Cl59174  13.193   4.630   3.459 -0.1778  0.0975  0.0027
  439MOL0     C59175  12.287   4.055   3.521 -0.0020  1.1602 -0.1933
  439MOL0     C59176  12.209   4.042   3.631 -1.0138 -1.0701 -0.5862
  439MOL0     O59177  12.298   4.022   3.954  0.4328  0.3085  0.1720
  439MOL0     C59178  11.950   4.043   4.010  0.0251 -0.0198 -0.1517
  439MOL0     C59179  11.868   4.096   4.115 -0.4715 -0.1373  0.2306
  439MOL0     N59180  11.581   3.942   4.787 -0.6666  0.4085  0.2175
  439MOL0     N59181  11.518   3.959   4.897  0.9240  0.3013 -0.2441
  439MOL0     C59182  11.161   4.094   5.877 -0.8129 -0.5747 -0.2968
  439MOL0     C59183  11.194   3.989   5.966 -0.7163  0.4803  0.6168
  439MOL0     C59184  11.377   3.680   6.205  0.1156 -0.0091  0.6952
  439MOL0     C59185  11.317   3.686   6.329  0.1209 -0.4016 -0.9614
  439MOL0     C59186  11.342   3.593   6.426 -0.4721  0.3260  0.2630
  439MOL0     C59187  11.402   3.479   6.402 -0.2097  0.1323 -0.6358
  439MOL0     O59188  11.421   3.375   6.496  0.7127 -0.6487  0.8801
  439MOL0     C59189  11.317   3.278   6.511  0.1975  0.0865 -0.2651
  439MOL0     C59190  11.300   3.185   6.398  0.1229  0.3156  0.0534
  439MOL0     C59191  11.395   3.069   6.385  0.1426  0.2413 -0.3352
  439MOL0     C59192  11.345   2.983   6.271 -0.5984 -0.1796 -0.1943
  439MOL0     C59193  11.436   2.867   6.252  0.6623  1.0012  0.1083
  439MOL0     C59194  11.502   2.774   6.236  0.1495  0.0236  0.5939
  439MOL0     C59195  11.468   3.468   6.282 -0.5331  0.2373 -0.5436
  439MOL0     C59196  11.462   3.563   6.182  0.8989 -0.4289 -0.2403
  439MOL0     C59197  11.547   3.541   6.059  0.2141  0.5059  0.6116
  439MOL0     H59198  11.465   4.120   6.113 -2.2201 -0.2540  0.9971
  439MOL0     H59199  11.423   4.299   5.947 -0.8800  0.4015 -1.5029
  439MOL0     H59200  11.256   4.507   5.819 -3.6586 -1.6227  0.1785
  439MOL0     H59201  11.381   4.396   5.781  0.7848  1.7353 -0.0226
  439MOL0     H59202  11.320   4.558   5.611 -0.4639  0.7519  4.5471
  439MOL0     H59203  11.164   4.521   5.609  0.9724  0.9500  3.2479
  439MOL0     H59204  11.188   4.288   5.512  1.6328 -0.8227  0.6348
  439MOL0     H59205  11.362   4.313   5.499 -0.2346 -1.5873  2.8627
  439MOL0     H59206  11.142   4.478   5.352 -1.6536 -2.8275  0.3548
  439MOL0     H59207  11.307   4.528   5.363 -0.6777  1.1911 -0.7114
  439MOL0     H59208  11.188   4.270   5.225 -1.3067  1.4771 -0.9281
  439MOL0     H59209  11.252   4.413   5.149  2.8318  0.4718  0.3844
  439MOL0     H59210  11.471   4.361   5.270  1.8795 -1.0236 -2.1380
  439MOL0     H59211  11.409   4.199   5.300 -1.4746  1.1480  1.9710
  439MOL0     H59212  11.539   4.164   5.120 -0.5243  0.6503 -3.4673
  439MOL0     H59213  11.496   4.308   5.033  0.7456 -1.2164 -1.2730
  439MOL0     H59214  11.302   4.064   5.073  0.8900  0.0287  0.2831
  439MOL0     H59215  11.282   4.202   4.973 -1.6566 -0.5860  0.7394
  439MOL0     H59216  11.414   4.228   4.738  3.0872 -0.5248 -4.3149
  439MOL0     H59217  11.647   4.009   4.537 -0.3046 -0.4540  1.7035
  439MOL0     H59218  11.486   4.075   4.501 -0.4263 -4.6116 -0.0647
  439MOL0     H59219  11.609   4.296   4.622  2.4004  1.5965 -1.3738
  439MOL0     H59220  11.752   4.220   4.575  0.6724  1.0878 -2.5819
  439MOL0     H59221  11.672   4.396   4.424 -0.0599  0.8211 -3.4611
  439MOL0     H59222  11.526   4.294   4.395  0.5246  0.5006 -3.6152
  439MOL0     H59223  11.663   4.283   4.217 -0.2536 -0.3110  0.6590
  439MOL0     H59224  11.664   4.124   4.301  1.5756 -0.2651 -1.9161
  439MOL0     H59225  12.097   4.238   4.312  1.2548  0.6286 -0.4507
  439MOL0     H59226  12.243   4.126   4.155 -1.5260 -0.0770 -1.2929
  439MOL0     H59227  12.326   3.758   3.764  3.5561  2.1188  0.8830
  439MOL0     H59228  12.477   3.783   3.553  0.8243  0.4662 -0.1152
  439MOL0     H59229  12.499   4.000   3.199 -1.4378 -0.4476 -1.5433
  439MOL0     H59230  12.337   4.042   3.266 -0.0757 -2.2733  1.0278
  439MOL0     H59231  12.470   4.240   3.188  0.4379  2.4804  0.4360
  439MOL0     H59232  12.479   4.243   3.366 -1.2109 -2.1696  0.8544
  439MOL0     H59233  12.686   4.166   3.375 -0.7066  0.4733 -0.7806
  439MOL0     H59234  12.698   4.121   3.204  0.2106 -0.1236 -1.0457
  439MOL0     H59235  12.685   4.387   3.336  1.0863 -2.8582  2.7124
  439MOL0     H59236  12.661   4.379   3.157  1.2945 -1.7425 -1.3471
  439MOL0     H59237  12.864   4.381   3.106  0.7444  2.8642  1.2227
  439MOL0     H59238  12.914   4.272   3.240 -2.7434 -1.7709  2.3809
  439MOL0     H59239  12.837   4.565   3.266 -0.3179  0.8238 -0.7039
  439MOL0     H59240  12.884   4.468   3.405 -2.9115  0.9143 -0.4572
  439MOL0     H59241  13.049   4.534   3.159  2.4028 -1.7213 -0.4060
  439MOL0     H59242  13.107   4.431   3.290 -0.1820 -0.5395 -2.8658
  439MOL0     H59243  13.137   4.714   3.245  1.5377 -0.8444 -0.4681
  439MOL0     H59244  12.981   4.710   3.336 -2.3549 -2.4420 -0.7092
  439MOL0     H59245  12.271   4.140   3.456 -0.6227  0.2851 -1.2242
  439MOL0     H59246  12.142   4.126   3.642  1.4136  0.9242 -0.1324
  439MOL0     H59247  11.904   3.980   3.934  0.5451  0.0705 -0.5467
  439MOL0     H59248  11.764   4.066   4.109 -0.4473 -0.4789  1.3096
  439MOL0     H59249  11.062   4.086   5.833 -0.3880 -0.4456 -1.3031
  439MOL0     H59250  11.137   3.897   5.970 -0.8522  0.3281 -2.4527
  439MOL0     H59251  11.258   3.774   6.351 -0.9793 -0.8360 -2.0842
  439MOL0     H59252  11.286   3.604   6.518  1.0170  0.1305  1.2233
  439MOL0     H59253  11.220   3.328   6.517  0.0291  0.4320 -3.6689
  439MOL0     H59254  11.337   3.231   6.608 -2.2130  0.4905  0.4867
  439MOL0     H59255  11.314   3.245   6.308  0.1139  0.4454  0.1397
  439MOL0     H59256  11.201   3.140   6.412  1.1714 -2.0536  0.3014
  439MOL0     H59257  11.407   3.015   6.479 -0.3119 -2.3778 -1.7030
  439MOL0     H59258  11.494   3.108   6.358 -0.3131  1.6928 -0.0205
  439MOL0     H59259  11.244   2.951   6.297 -1.5943  0.2895 -3.1525
  439MOL0     H59260  11.326   3.043   6.182 -1.3134  0.4687  0.3813
  439MOL0     H59261  11.555   2.682   6.224 -2.4964 -1.7867  1.7911
  439MOL0     H59262  11.531   3.380   6.270  2.3831  2.3362 -1.7973
  439MOL0     H59263  11.485   3.517   5.973  2.0607 -3.1460  0.1003
  439MOL0     H59264  11.609   3.630   6.046 -2.0206  2.2431  1.1361
  439MOL0     H59265  11.608   3.452   6.069 -1.7116 -0.7537  1.7554
  440MOL0     O59266   4.032   0.832   8.945  0.0962 -0.2923 -0.2137
  440MOL0     C59267   4.010   0.841   9.064  0.8882 -0.4541 -0.3451
  440MOL0     O59268   3.968   0.952   9.123  0.3560 -0.8997 -0.2746
  440MOL0     C59269   3.933   1.065   9.045  0.2129 -0.0292 -0.5789
  440MOL0     C59270   3.825   1.058   8.964 -0.4930  0.3787  0.6081
  440MOL0     C59271   3.799   1.168   8.881  0.2456 -0.3488 -0.3684
  440MOL0     C59272   3.870   1.287   8.892 -0.4060 -0.4217  0.5182
  440MOL0     O59273   3.827   1.393   8.816 -0.6848  0.6798 -0.2099
  440MOL0     C59274   3.850   1.534   8.861  0.0591  0.1515  0.4437
  440MOL0     C59275   3.737   1.624   8.809  0.5137  0.1661 -0.3258
  440MOL0     C59276   3.754   1.766   8.890 -0.2894  0.1500  0.6268
  440MOL0     C59277   3.618   1.848   8.882  0.8787 -0.0372  0.8576
  440MOL0     C59278   3.589   1.943   8.994 -0.1054 -0.0847  0.0847
  440MOL0     C59279   3.688   2.058   8.988 -0.6889 -0.2464 -0.3390
  440MOL0     C59280   3.665   2.158   9.106 -1.0130 -0.1430 -0.8760
  440MOL0     C59281   3.753   2.115   9.235 -0.1144 -0.4770  0.6754
  440MOL0     N59282   3.893   2.115   9.213 -0.1884 -0.1680 -0.5430
  440MOL0     C59283   3.968   2.225   9.211  0.9685  0.0623 -0.2862
  440MOL0     C59284   4.097   2.170   9.188  0.1045  0.0678 -0.2947
  440MOL0     C59285   4.223   2.247   9.158 -0.4388  0.3623  0.6033
  440MOL0     C59286   4.241   2.287   9.012 -0.1526  0.0051 -0.3858
  440MOL0     C59287   4.324   2.407   8.981 -0.4631 -0.4253  0.3354
  440MOL0     C59288   4.462   2.404   9.052  0.3280  0.9168 -0.0246
  440MOL0     O59289   4.448   2.494   9.163 -0.4479 -0.4647  0.6129
  440MOL0     C59290   4.558   2.548   9.234  0.4274  0.6769  0.1605
  440MOL0     C59291   4.676   2.476   9.256  0.2830 -0.0478  0.8103
  440MOL0     C59292   4.788   2.536   9.322  0.5388 -1.1418 -0.1421
  440MOL0     C59293   4.785   2.675   9.356  0.0035 -0.3764 -1.1009
  440MOL0     C59294   4.911   2.742   9.393 -0.1783  0.8269 -0.4455
  440MOL0     O59295   5.023   2.670   9.396 -0.1990  0.2680 -0.6484
  440MOL0     C59296   5.139   2.730   9.442 -0.2774  0.3938  0.1183
  440MOL0     C59297   5.209   2.649   9.533 -0.0524 -0.2231 -1.0279
  440MOL0     C59298   5.327   2.707   9.583 -0.1184  0.3332 -0.4918
  440MOL0     C59299   5.369   2.840   9.561  1.0256  0.0303 -0.5652
  440MOL0     O59300   5.490   2.893   9.590  0.0660 -0.5609  0.4329
  440MOL0     C59301   5.579   2.826   9.675  0.3037  0.1717 -0.0731
  440MOL0     C59302   5.673   2.723   9.604  0.5132  0.5987 -0.5849
  440MOL0     C59303   5.731   2.633   9.711 -0.3567  0.1950  1.3142
  440MOL0     C59304   5.851   2.687   9.773  0.4666 -0.3187  0.2302
  440MOL0     C59305   5.919   2.590   9.863 -0.0535  0.0742 -1.2070
  440MOL0     C59306   6.018   2.649   9.974 -0.2699  0.3299  0.5822
  440MOL0     C59307   5.959   2.760  10.070  0.4712  0.2096  0.6026
  440MOL0     C59308   6.066   2.817  10.171  0.5041  0.0012  0.4531
  440MOL0    Cl59309   6.208   2.881  10.102  0.4591  0.2937  0.0237
  440MOL0     C59310   5.296   2.917   9.466  0.8046 -0.2370 -0.2106
  440MOL0     C59311   5.182   2.861   9.411  1.1431 -0.3210 -0.3111
  440MOL0     O59312   4.896   2.858   9.433 -0.5000  0.7941 -0.1311
  440MOL0     C59313   4.663   2.738   9.334  0.6813 -0.1462 -0.8050
  440MOL0     C59314   4.555   2.675   9.282  0.6934  0.3815 -0.0539
  440MOL0     N59315   4.092   2.032   9.176  0.3537  0.1602 -0.4956
  440MOL0     N59316   3.967   2.002   9.190  0.8363 -1.0340  1.2136
  440MOL0     C59317   3.973   1.299   8.993  1.0605 -0.1657  0.5756
  440MOL0     C59318   4.003   1.183   9.063 -0.0022  0.8089  0.7544
  440MOL0     C59319   4.060   0.723   9.141  0.5478 -0.1622  0.1493
  440MOL0     C59320   4.062   0.593   9.081  0.0866 -0.3093 -0.9952
  440MOL0     C59321   4.095   0.482   9.158 -0.0121 -0.3467  0.0457
  440MOL0     C59322   4.131   0.495   9.292  0.0483 -0.6029 -0.0236
  440MOL0     O59323   4.161   0.386   9.375 -0.8203  0.5444 -0.0070
  440MOL0     C59324   4.127   0.392   9.512  0.7135 -0.4056 -1.5237
  440MOL0     C59325   4.241   0.341   9.597 -0.3943  0.0274  0.0194
  440MOL0     C59326   4.252   0.187   9.587  0.4989  0.0762  0.0555
  440MOL0     C59327   4.376   0.149   9.664  1.0261  0.4702 -0.0728
  440MOL0     C59328   4.400   0.011   9.632  0.2109  0.2882  0.0185
  440MOL0     C59329   4.436  -0.109   9.600  0.1096 -1.1271 -0.7651
  440MOL0     C59330   4.143   0.627   9.344  0.5172  0.1031 -0.6651
  440MOL0     C59331   4.107   0.737   9.269 -0.6711  0.3307  1.0254
  440MOL0     C59332   4.137   0.871   9.343 -0.1636 -0.3883 -0.8287
  440MOL0     H59333   3.765   0.968   8.966  0.1341 -0.0763 -0.2167
  440MOL0     H59334   3.721   1.163   8.806  2.3234 -1.7104 -2.5840
  440MOL0     H59335   3.844   1.531   8.971 -1.7778  5.5000  0.8398
  440MOL0     H59336   3.943   1.572   8.819  1.2812 -3.1405 -0.0970
  440MOL0     H59337   3.642   1.582   8.844  0.4252 -0.5016 -1.3311
  440MOL0     H59338   3.734   1.624   8.700 -0.8452  2.2039 -0.3447
  440MOL0     H59339   3.840   1.809   8.838 -1.2345  0.2462 -0.9491
  440MOL0     H59340   3.794   1.750   8.990  0.6398  0.3829  0.3038
  440MOL0     H59341   3.609   1.890   8.782  0.1790 -1.0487  0.4789
  440MOL0     H59342   3.542   1.770   8.890 -0.0342  0.7955  0.3544
  440MOL0     H59343   3.489   1.988   8.998  1.3024  3.2450  1.2668
  440MOL0     H59344   3.599   1.897   9.093  1.1618 -1.8283 -0.7953
  440MOL0     H59345   3.791   2.021   8.986  0.5308  2.8599 -0.2128
  440MOL0     H59346   3.681   2.109   8.892  0.6366  0.5125 -0.0530
  440MOL0     H59347   3.561   2.182   9.130  0.2407  3.6966  1.8741
  440MOL0     H59348   3.707   2.253   9.072  0.1893 -0.4241 -0.2217
  440MOL0     H59349   3.730   2.191   9.310 -0.9211  3.7512 -3.3914
  440MOL0     H59350   3.721   2.013   9.262  2.1968 -1.1264  1.1459
  440MOL0     H59351   3.943   2.331   9.219 -3.3114 -0.8103  0.0451
  440MOL0     H59352   4.241   2.334   9.222  1.0483  0.4889  0.0366
  440MOL0     H59353   4.305   2.174   9.166 -1.1089 -1.5500 -5.2588
  440MOL0     H59354   4.282   2.197   8.965  2.0516  0.5055  0.4285
  440MOL0     H59355   4.138   2.312   8.987 -0.7088  2.3967  3.5323
  440MOL0     H59356   4.277   2.503   9.005 -0.5326 -0.7545  1.5582
  440MOL0     H59357   4.337   2.406   8.872 -0.4222  1.7078  0.2812
  440MOL0     H59358   4.541   2.447   8.990  0.7846 -0.6242 -0.5524
  440MOL0     H59359   4.497   2.304   9.078 -1.3559 -0.0388 -1.2640
  440MOL0     H59360   4.687   2.376   9.216  1.2813  0.9050 -1.4705
  440MOL0     H59361   4.875   2.473   9.333  0.2125 -1.2884  2.3415
  440MOL0     H59362   5.168   2.555   9.566  0.7615  0.6775  3.0884
  440MOL0     H59363   5.390   2.645   9.645  0.9559  3.2044  1.5054
  440MOL0     H59364   5.639   2.909   9.714  1.2792 -0.0315 -1.0782
  440MOL0     H59365   5.530   2.788   9.765  0.4088  0.8750  0.2871
  440MOL0     H59366   5.634   2.665   9.519  3.0188 -0.7992 -0.8664
  440MOL0     H59367   5.753   2.781   9.558  2.3368 -1.1383  0.2489
  440MOL0     H59368   5.658   2.615   9.791 -1.4984  1.3812  0.5730
  440MOL0     H59369   5.751   2.535   9.665  2.9371  0.2926  2.2987
  440MOL0     H59370   5.828   2.779   9.828 -2.9435 -0.6428 -0.4577
  440MOL0     H59371   5.919   2.719   9.692  2.8296  2.0288  2.9040
  440MOL0     H59372   5.962   2.510   9.802  1.0270  0.1093 -0.5237
  440MOL0     H59373   5.843   2.544   9.926  1.4468  0.5286  1.0638
  440MOL0     H59374   6.064   2.573  10.038  2.4451 -1.4990 -3.1731
  440MOL0     H59375   6.103   2.696   9.924  1.8458 -1.7854  1.9759
  440MOL0     H59376   5.864   2.726  10.113  0.0433 -2.0723 -1.8963
  440MOL0     H59377   5.935   2.846  10.007  4.8624  0.5625 -0.8964
  440MOL0     H59378   6.029   2.906  10.222  2.5151  0.2572  1.5681
  440MOL0     H59379   6.096   2.732  10.234  0.1103  1.5497  2.8604
  440MOL0     H59380   5.327   3.020   9.448  0.1823 -0.1367 -0.7142
  440MOL0     H59381   5.110   2.913   9.349 -2.3423 -0.7186  3.0779
  440MOL0     H59382   4.649   2.841   9.365 -0.8997 -0.4457 -0.4298
  440MOL0     H59383   4.461   2.726   9.264 -0.0823  0.6678  3.8534
  440MOL0     H59384   4.030   1.390   9.009 -1.1448  1.5958 -0.9554
  440MOL0     H59385   4.088   1.186   9.129  0.8636  0.6015 -0.3184
  440MOL0     H59386   4.019   0.557   8.988  1.2764 -0.6860 -1.4176
  440MOL0     H59387   4.068   0.385   9.116 -5.5109  0.5430  0.8194
  440MOL0     H59388   4.043   0.324   9.532  0.0204  1.1210  1.3288
  440MOL0     H59389   4.091   0.493   9.535  0.6249 -0.8217  0.2811
  440MOL0     H59390   4.217   0.356   9.703  1.9498  0.5106  0.5203
  440MOL0     H59391   4.332   0.393   9.568  0.1016 -0.7634  0.1410
  440MOL0     H59392   4.265   0.157   9.482  1.9411  1.5904 -0.2523
  440MOL0     H59393   4.166   0.133   9.626 -0.1898 -0.6132 -2.2631
  440MOL0     H59394   4.452   0.212   9.617  0.1746  1.0648 -0.6781
  440MOL0     H59395   4.377   0.153   9.773  4.3408 -3.2588  0.2259
  440MOL0     H59396   4.456  -0.206   9.562  0.2749 -0.8647 -1.3630
  440MOL0     H59397   4.186   0.641   9.443  1.0262  0.6302 -0.9507
  440MOL0     H59398   4.043   0.924   9.357 -0.7120 -0.6183 -3.1437
  440MOL0     H59399   4.201   0.860   9.431 -0.9235 -1.7559 -0.4159
  440MOL0     H59400   4.167   0.951   9.274 -0.5212  2.1243  1.7314
  441MOL0     O59401   1.134   6.364   0.531  1.0196  0.4149 -0.2331
  441MOL0     C59402   1.143   6.428   0.632  0.0840  0.5586 -0.2317
  441MOL0     O59403   1.095   6.558   0.654 -0.3072  0.4975  0.5378
  441MOL0     C59404   1.028   6.631   0.564  1.1089  0.4259 -0.2899
  441MOL0     C59405   0.904   6.700   0.607 -0.5351  0.6055  0.3682
  441MOL0     C59406   0.835   6.787   0.525 -0.0796 -0.2343 -0.4035
  441MOL0     C59407   0.877   6.805   0.393  1.2019  0.0644  0.4417
  441MOL0     O59408   0.828   6.904   0.308  0.2038 -0.2908 -0.2501
  441MOL0     C59409   0.832   6.877   0.172  0.3703  0.2272  1.5889
  441MOL0     C59410   0.717   6.941   0.095 -0.1990 -0.4448  0.0148
  441MOL0     C59411   0.573   6.882   0.117 -0.0975 -0.2042  0.2750
  441MOL0     C59412   0.542   6.772   0.012 -0.2177  0.1968  0.0780
  441MOL0     C59413   0.469   6.854  -0.094 -0.6276 -0.3981  0.1383
  441MOL0     C59414   0.446   6.770  -0.223 -0.2370  0.1454 -0.4483
  441MOL0     C59415   0.415   6.867  -0.335  0.0585 -0.7178  0.1499
  441MOL0     C59416   0.311   6.976  -0.308  1.3238 -0.8463 -0.0261
  441MOL0     N59417   0.175   6.950  -0.271 -0.6608  1.0773 -0.0951
  441MOL0     C59418   0.094   7.032  -0.196  1.1797  0.7846  0.0868
  441MOL0     C59419  -0.028   6.973  -0.201 -1.0284  0.3802  0.1474
  441MOL0     C59420  -0.151   7.039  -0.135  0.1273 -0.1754  0.4048
  441MOL0     C59421  -0.125   7.153  -0.037  0.4829 -0.1073 -0.6214
  441MOL0     C59422  -0.241   7.238   0.025 -1.2687 -0.2641  0.0658
  441MOL0     C59423  -0.195   7.306   0.152 -0.3036 -0.3529  0.5885
  441MOL0     O59424  -0.170   7.217   0.265  1.3125  0.5293  0.1813
  441MOL0     C59425  -0.099   7.271   0.373  0.4506  0.3877  0.4708
  441MOL0     C59426  -0.044   7.173   0.450  0.2558  0.6004 -0.2141
  441MOL0     C59427   0.026   7.206   0.568  1.5837 -0.9234 -0.0370
  441MOL0     C59428   0.055   7.339   0.603 -0.0561 -0.7883 -0.4975
  441MOL0     C59429   0.140   7.378   0.724  0.7931  0.5432 -0.0727
  441MOL0     O59430   0.207   7.281   0.775  0.4953  0.2603  0.4517
  441MOL0     C59431   0.310   7.306   0.866 -0.3607 -0.0127  0.1817
  441MOL0     C59432   0.441   7.352   0.817  0.1244 -0.0996 -0.6048
  441MOL0     C59433   0.543   7.369   0.908  0.2752  0.2301 -0.5687
  441MOL0     C59434   0.521   7.354   1.045  0.5103  0.2507  0.5839
  441MOL0     O59435   0.635   7.350   1.118 -0.1282  0.3302 -0.0358
  441MOL0     C59436   0.632   7.360   1.265  0.3447  0.1590  1.3288
  441MOL0     C59437   0.777   7.351   1.305  0.0280 -0.4478 -0.3522
  441MOL0     C59438   0.816   7.361   1.456 -0.1141 -0.0127 -0.0988
  441MOL0     C59439   0.753   7.488   1.515 -0.2195  0.5085  0.1520
  441MOL0     C59440   0.641   7.445   1.608 -0.7204 -0.1090 -0.2258
  441MOL0     C59441   0.539   7.563   1.617  0.5734 -0.0161  0.4871
  441MOL0     C59442   0.425   7.532   1.714  0.8222 -0.8227 -1.0152
  441MOL0     C59443   0.349   7.657   1.758 -0.1644 -0.1163 -0.3398
  441MOL0    Cl59444   0.253   7.619   1.905  0.0954  0.2156 -0.1596
  441MOL0     C59445   0.396   7.318   1.096  0.3967 -0.3181 -0.1501
  441MOL0     C59446   0.293   7.293   1.000  0.4668  0.0983 -0.2215
  441MOL0     O59447   0.152   7.498   0.757 -0.0848  0.2610  0.7516
  441MOL0     C59448   0.008   7.434   0.511 -0.8943  0.0391  0.3132
  441MOL0     C59449  -0.065   7.403   0.396 -0.4236 -0.1198  0.2073
  441MOL0     N59450  -0.018   6.861  -0.281  0.3516 -0.1201 -1.0428
  441MOL0     N59451   0.098   6.847  -0.326  0.0931  0.3463  0.0546
  441MOL0     C59452   0.996   6.739   0.352  0.5717  0.2767  1.0704
  441MOL0     C59453   1.067   6.653   0.438 -0.3684  0.0763  0.7716
  441MOL0     C59454   1.210   6.370   0.755  0.1884  1.2773 -0.8962
  441MOL0     C59455   1.206   6.440   0.880 -0.1695 -1.0157 -1.0716
  441MOL0     C59456   1.271   6.383   0.991 -0.6007 -0.3851 -1.2532
  441MOL0     C59457   1.329   6.257   0.996 -0.2680 -0.3024 -0.6410
  441MOL0     O59458   1.380   6.199   1.109  0.1888  0.4879  0.8253
  441MOL0     C59459   1.281   6.179   1.213  0.3157 -0.1123 -0.3519
  441MOL0     C59460   1.330   6.114   1.340 -0.7007  0.4730 -0.3095
  441MOL0     C59461   1.443   6.011   1.316  0.2381 -0.4211 -0.1708
  441MOL0     C59462   1.493   5.954   1.448 -0.3746  0.1587 -0.3431
  441MOL0     C59463   1.633   5.898   1.441 -0.3925  0.1630  0.3591
  441MOL0     C59464   1.753   5.860   1.429 -0.3217 -0.4303 -0.5696
  441MOL0     C59465   1.311   6.176   0.886  0.3972  0.2560 -0.2826
  441MOL0     C59466   1.266   6.233   0.765  0.7812  0.0134 -0.4018
  441MOL0     C59467   1.272   6.144   0.653 -0.3238 -0.5007  0.1767
  441MOL0     H59468   0.888   6.694   0.714 -2.3784 -0.5919  0.0619
  441MOL0     H59469   0.751   6.843   0.564  1.2626  1.3338  0.3554
  441MOL0     H59470   0.925   6.924   0.137  1.0912 -1.3176  1.3706
  441MOL0     H59471   0.843   6.771   0.147  2.6917  1.0691 -1.6348
  441MOL0     H59472   0.743   6.943  -0.012  1.4752  1.3096  0.3925
  441MOL0     H59473   0.699   7.047   0.117 -3.2149 -0.8263 -0.1970
  441MOL0     H59474   0.498   6.962   0.113 -2.0189 -1.9343  0.2550
  441MOL0     H59475   0.552   6.839   0.215 -1.4985  1.7566  0.8953
  441MOL0     H59476   0.629   6.722  -0.031 -1.5362 -1.4131 -0.8784
  441MOL0     H59477   0.502   6.680   0.056  0.4296  0.1270  0.5344
  441MOL0     H59478   0.381   6.886  -0.039 -0.0494  2.5621 -0.5106
  441MOL0     H59479   0.526   6.943  -0.123 -3.3708  1.5489  0.3200
  441MOL0     H59480   0.539   6.718  -0.250  1.6193  1.4187  2.9287
  441MOL0     H59481   0.362   6.702  -0.207 -1.6141  2.4898  4.2234
  441MOL0     H59482   0.372   6.813  -0.420 -0.6675  1.0258 -0.6451
  441MOL0     H59483   0.512   6.915  -0.349 -0.8110  2.8873  4.2858
  441MOL0     H59484   0.350   7.059  -0.248 -3.2626 -0.1146  2.4310
  441MOL0     H59485   0.295   7.033  -0.400 -0.9202 -4.0457 -1.7929
  441MOL0     H59486   0.116   7.126  -0.146 -1.2353  0.8188  1.2089
  441MOL0     H59487  -0.231   7.044  -0.210 -0.9382  2.5555  1.6120
  441MOL0     H59488  -0.185   6.962  -0.065  1.8151  0.9290  2.5678
  441MOL0     H59489  -0.062   7.123   0.048  0.5084  3.1422  0.6578
  441MOL0     H59490  -0.056   7.221  -0.087  2.1971  0.5293  2.3451
  441MOL0     H59491  -0.328   7.174   0.045 -2.0956 -0.2772 -3.0760
  441MOL0     H59492  -0.265   7.319  -0.044  0.8695 -0.1788 -0.6392
  441MOL0     H59493  -0.280   7.370   0.179 -0.8009 -0.4010 -0.7590
  441MOL0     H59494  -0.106   7.366   0.130  0.7725 -2.6632 -2.0182
  441MOL0     H59495  -0.073   7.073   0.421  2.1067  0.6139 -2.3845
  441MOL0     H59496   0.060   7.115   0.616 -0.8726 -2.1536 -0.4676
  441MOL0     H59497   0.451   7.370   0.711 -2.8081 -1.6857 -1.2571
  441MOL0     H59498   0.648   7.378   0.881  0.3365 -0.2142 -0.4917
  441MOL0     H59499   0.580   7.455   1.284 -1.1857 -0.2527 -0.4922
  441MOL0     H59500   0.580   7.275   1.310  1.2832 -0.6335  0.9409
  441MOL0     H59501   0.816   7.255   1.270  0.7225  0.1104 -1.1621
  441MOL0     H59502   0.828   7.429   1.247  1.0129 -1.7374 -1.2838
  441MOL0     H59503   0.772   7.271   1.500  0.1282  0.1346  0.4523
  441MOL0     H59504   0.925   7.369   1.463  0.2348 -1.8141 -2.1935
  441MOL0     H59505   0.708   7.548   1.436 -0.0613  2.1354  1.2693
  441MOL0     H59506   0.817   7.557   1.570  0.3056  2.6013 -2.8153
  441MOL0     H59507   0.669   7.405   1.706 -0.0613  0.7937 -0.0389
  441MOL0     H59508   0.591   7.359   1.562  1.0491 -1.1621 -0.2698
  441MOL0     H59509   0.603   7.639   1.663  3.4294 -3.0484  1.9453
  441MOL0     H59510   0.486   7.580   1.522 -2.4508 -2.7552  1.5063
  441MOL0     H59511   0.461   7.479   1.802  1.6202  1.5958  0.2051
  441MOL0     H59512   0.345   7.471   1.671 -0.3704  0.3604 -0.5477
  441MOL0     H59513   0.420   7.735   1.786 -0.6971  0.0401  0.6265
  441MOL0     H59514   0.280   7.696   1.682  1.6252  1.4663 -1.2366
  441MOL0     H59515   0.385   7.296   1.201  1.7857  1.3928  0.4114
  441MOL0     H59516   0.198   7.255   1.036  0.0114  2.1901  0.9414
  441MOL0     H59517   0.029   7.534   0.547  0.9597 -0.6105  1.1426
  441MOL0     H59518  -0.094   7.478   0.322 -4.2168 -2.1293 -0.5741
  441MOL0     H59519   1.042   6.729   0.255 -3.0183 -5.0907 -0.5115
  441MOL0     H59520   1.162   6.609   0.409  0.0933  0.6883  1.3279
  441MOL0     H59521   1.158   6.537   0.891 -1.2848 -1.8389  2.4902
  441MOL0     H59522   1.281   6.443   1.081  0.8468 -1.2234 -0.8268
  441MOL0     H59523   1.208   6.108   1.172 -0.3554  0.6094 -0.4228
  441MOL0     H59524   1.230   6.273   1.235  0.4427  0.6256 -2.8682
  441MOL0     H59525   1.236   6.081   1.384 -1.7956  1.8891 -1.5238
  441MOL0     H59526   1.381   6.193   1.396 -1.8685  0.6767  0.4947
  441MOL0     H59527   1.532   6.054   1.269  0.4460 -2.1087 -1.4042
  441MOL0     H59528   1.404   5.928   1.257  1.7118 -0.4475 -1.1543
  441MOL0     H59529   1.492   6.037   1.520 -0.8424  2.2636 -2.6352
  441MOL0     H59530   1.423   5.877   1.483  0.3612  0.6410  2.4103
  441MOL0     H59531   1.861   5.861   1.431 -0.2960  0.7316  2.0791
  441MOL0     H59532   1.345   6.075   0.904  3.9953  1.7002  2.5218
  441MOL0     H59533   1.344   6.173   0.575 -2.0934 -0.1268 -1.3871
  441MOL0     H59534   1.303   6.041   0.673 -0.6385 -0.8929 -1.2002
  441MOL0     H59535   1.175   6.135   0.603 -0.3675  1.2610 -0.1186
  442MOL0     O59536   7.605   6.388   3.248  0.6551 -0.1263  0.4359
  442MOL0     C59537   7.635   6.292   3.172  0.4117  0.8697  0.4863
  442MOL0     O59538   7.704   6.307   3.048  1.2302  0.2088  0.5822
  442MOL0     C59539   7.730   6.434   3.003  0.0301  0.1742  0.1623
  442MOL0     C59540   7.827   6.433   2.912 -0.3061 -0.2955  0.0251
  442MOL0     C59541   7.859   6.553   2.840  1.1792  0.5701  0.4191
  442MOL0     C59542   7.792   6.675   2.873  0.5534  0.0136  0.1018
  442MOL0     O59543   7.817   6.792   2.802 -0.1517 -0.1219  1.2258
  442MOL0     C59544   7.955   6.841   2.801 -0.2176  0.2421  0.5225
  442MOL0     C59545   7.966   6.992   2.773 -0.7005 -0.6849  0.1119
  442MOL0     C59546   8.107   7.050   2.804  0.0018  0.4856  0.2217
  442MOL0     C59547   8.099   7.200   2.805  0.1800 -1.4079 -0.9997
  442MOL0     C59548   8.037   7.269   2.935  0.0258  0.3450  0.0679
  442MOL0     C59549   8.118   7.259   3.064  0.2131 -0.2060  0.0177
  442MOL0     C59550   8.029   7.279   3.193 -0.7678  0.1453 -1.0345
  442MOL0     C59551   7.978   7.145   3.253  0.6587 -0.1399 -0.5272
  442MOL0     N59552   7.931   7.163   3.390 -0.0295 -0.3465  0.3182
  442MOL0     C59553   7.877   7.071   3.472 -0.0672  0.7554  0.0363
  442MOL0     C59554   7.867   7.123   3.594  0.9527 -0.0614 -0.5466
  442MOL0     C59555   7.812   7.056   3.723 -0.7543 -0.6738 -0.0198
  442MOL0     C59556   7.671   7.093   3.759 -0.7138  0.1349  0.0230
  442MOL0     C59557   7.568   7.080   3.643  0.8737  0.5427  1.2100
  442MOL0     C59558   7.424   7.100   3.700  0.7527  0.0872 -0.6174
  442MOL0     O59559   7.390   7.009   3.804  0.2882 -0.2290 -0.1615
  442MOL0     C59560   7.251   6.991   3.820  1.0561  0.0779  0.0623
  442MOL0     C59561   7.156   7.082   3.774  0.4195 -0.2505  1.1870
  442MOL0     C59562   7.020   7.061   3.815  0.4017  0.2514  0.0087
  442MOL0     C59563   6.981   6.946   3.896 -0.2706  0.0769  0.7007
  442MOL0     C59564   6.842   6.925   3.932  0.2838 -0.6289 -0.7297
  442MOL0     O59565   6.806   6.859   4.047  0.0672  0.4707 -0.6939
  442MOL0     C59566   6.673   6.827   4.079  0.3549  0.0642  0.1112
  442MOL0     C59567   6.553   6.902   4.043 -0.5005  0.9080  0.0235
  442MOL0     C59568   6.428   6.876   4.106  0.0479  0.6650 -0.3809
  442MOL0     C59569   6.416   6.780   4.202  0.3565 -0.1110 -0.3683
  442MOL0     O59570   6.300   6.772   4.267  0.0848 -0.0369  0.4305
  442MOL0     C59571   6.267   6.641   4.327 -0.8684 -1.5696  0.4053
  442MOL0     C59572   6.135   6.637   4.399 -0.7436 -0.1662  0.9370
  442MOL0     C59573   6.002   6.649   4.311  1.2024 -0.8555 -0.5294
  442MOL0     C59574   6.004   6.789   4.245 -0.0035  0.6837 -0.3422
  442MOL0     C59575   5.867   6.858   4.247 -1.3300 -0.1041 -0.5122
  442MOL0     C59576   5.883   7.012   4.263  0.0940  0.8909  0.4495
  442MOL0     C59577   5.754   7.087   4.243 -0.1929  0.2577  0.6131
  442MOL0     C59578   5.778   7.245   4.243  0.2714  0.0818  0.0730
  442MOL0    Cl59579   5.861   7.307   4.389 -0.6686 -0.1431  0.3330
  442MOL0     C59580   6.522   6.699   4.226 -0.0434 -0.1504 -0.1924
  442MOL0     C59581   6.654   6.726   4.174 -0.4650 -0.5046  0.5698
  442MOL0     O59582   6.769   6.972   3.853  0.6422  0.8590  0.0452
  442MOL0     C59583   7.083   6.853   3.931  1.1182  0.8914  0.2258
  442MOL0     C59584   7.214   6.882   3.889 -0.7288  0.1604 -1.1156
  442MOL0     N59585   7.904   7.253   3.577  0.7845 -0.0200  0.1871
  442MOL0     N59586   7.936   7.280   3.460 -0.0082 -0.0237 -0.0411
  442MOL0     C59587   7.688   6.675   2.962 -0.2798  0.3522 -0.2701
  442MOL0     C59588   7.654   6.550   3.021  0.4454 -0.1087  1.1733
  442MOL0     C59589   7.587   6.148   3.205  0.2102 -0.1960 -0.4569
  442MOL0     C59590   7.659   6.050   3.135  0.1784  0.2656 -1.1112
  442MOL0     C59591   7.633   5.912   3.167 -0.3011  0.6382  0.6372
  442MOL0     C59592   7.539   5.879   3.269 -0.6687 -0.7706  0.4221
  442MOL0     O59593   7.531   5.745   3.310 -0.1299  0.2614 -0.3717
  442MOL0     C59594   7.443   5.710   3.424 -0.5361 -0.4236 -0.3869
  442MOL0     C59595   7.522   5.712   3.553  0.8277 -0.6057 -0.1073
  442MOL0     C59596   7.594   5.579   3.560 -0.3122  0.6571  0.0651
  442MOL0     C59597   7.711   5.566   3.665 -0.1362 -0.0648 -0.2297
  442MOL0     C59598   7.829   5.646   3.611 -0.1055 -0.9553 -0.1183
  442MOL0     C59599   7.905   5.726   3.563  0.3065 -0.3189  0.1723
  442MOL0     C59600   7.467   5.984   3.336 -1.1139  0.1171  0.3342
  442MOL0     C59601   7.486   6.111   3.291  0.5143  0.1854  0.3287
  442MOL0     C59602   7.393   6.211   3.354 -0.7177 -0.4612 -0.9178
  442MOL0     H59603   7.866   6.334   2.894  1.7815  0.1704  1.5531
  442MOL0     H59604   7.935   6.543   2.764  1.6379 -0.3005  0.9701
  442MOL0     H59605   8.014   6.808   2.887 -1.0486  1.5349  1.6312
  442MOL0     H59606   8.005   6.801   2.712  1.1488  1.2509  0.8162
  442MOL0     H59607   7.901   7.036   2.849 -0.6717 -3.1483  1.6995
  442MOL0     H59608   7.935   7.018   2.671  1.4235  0.8834 -0.1859
  442MOL0     H59609   8.170   7.016   2.721 -0.4249  0.7277 -0.2053
  442MOL0     H59610   8.157   6.995   2.885 -0.2784 -1.3252 -0.7933
  442MOL0     H59611   8.202   7.235   2.795  0.3825 -1.6770 -0.0016
  442MOL0     H59612   8.042   7.233   2.718 -0.7082 -1.6364 -0.5170
  442MOL0     H59613   8.037   7.376   2.912  1.6417  0.6306  1.2028
  442MOL0     H59614   7.935   7.235   2.950  0.1687 -0.4091 -0.6151
  442MOL0     H59615   8.157   7.157   3.072 -0.3501 -0.3831  0.6342
  442MOL0     H59616   8.186   7.344   3.071 -0.8175  0.6357  0.1267
  442MOL0     H59617   7.952   7.353   3.169 -0.1673  1.1235 -0.0396
  442MOL0     H59618   8.095   7.320   3.270 -1.0778  2.6702 -2.0151
  442MOL0     H59619   7.900   7.092   3.198  0.2651  0.3676 -0.4701
  442MOL0     H59620   8.059   7.072   3.259  0.2194 -0.5789  0.3740
  442MOL0     H59621   7.845   6.970   3.447  3.5215 -0.2255 -1.2891
  442MOL0     H59622   7.826   6.949   3.705  0.4998 -1.0148  2.5907
  442MOL0     H59623   7.878   7.093   3.802  0.1961  2.0276 -1.9182
  442MOL0     H59624   7.651   7.029   3.845 -0.5304 -2.2911 -1.6290
  442MOL0     H59625   7.655   7.189   3.809  0.4390 -1.6576  4.1641
  442MOL0     H59626   7.571   6.979   3.602  0.0806  0.6113  0.9663
  442MOL0     H59627   7.587   7.152   3.563 -1.4990 -1.3552 -1.2729
  442MOL0     H59628   7.344   7.102   3.625 -0.0082  1.7969  0.1716
  442MOL0     H59629   7.402   7.201   3.736 -1.6823 -0.2191 -1.0749
  442MOL0     H59630   7.183   7.169   3.716  1.0030 -0.4964  1.0809
  442MOL0     H59631   6.945   7.137   3.801  0.9988  0.9946  0.7673
  442MOL0     H59632   6.559   6.989   3.978  0.5555 -0.0348 -1.1863
  442MOL0     H59633   6.345   6.941   4.083 -0.2189  1.0617  1.5605
  442MOL0     H59634   6.266   6.557   4.257  0.9887  0.1777 -1.9033
  442MOL0     H59635   6.344   6.625   4.404 -1.5216  2.4600  2.2011
  442MOL0     H59636   6.142   6.533   4.432 -2.3457 -0.6393 -0.0616
  442MOL0     H59637   6.126   6.703   4.485  0.0365  0.6757  0.3970
  442MOL0     H59638   5.986   6.568   4.238 -0.5410 -2.1749  1.1944
  442MOL0     H59639   5.922   6.655   4.385  0.9342  1.9351 -0.9557
  442MOL0     H59640   6.032   6.796   4.140  0.9556 -0.3879 -0.1783
  442MOL0     H59641   6.062   6.853   4.313  1.8851 -0.9027 -0.3963
  442MOL0     H59642   5.800   6.821   4.326  1.4097 -1.6835  1.2472
  442MOL0     H59643   5.819   6.838   4.151 -1.5215  2.2122 -0.9467
  442MOL0     H59644   5.926   7.032   4.361  0.0897  2.6940  0.1070
  442MOL0     H59645   5.963   7.042   4.195  0.6664 -1.6267 -0.1093
  442MOL0     H59646   5.674   7.068   4.315 -2.1976  2.9272 -0.6717
  442MOL0     H59647   5.705   7.052   4.151 -2.5082  0.1560  1.8015
  442MOL0     H59648   5.842   7.272   4.159  1.0279 -1.6502  0.0430
  442MOL0     H59649   5.680   7.292   4.234  0.1416 -0.2650 -0.3843
  442MOL0     H59650   6.513   6.619   4.298 -1.5041 -0.1102 -0.2830
  442MOL0     H59651   6.740   6.670   4.209 -2.2898 -3.7706  0.1523
  442MOL0     H59652   7.058   6.762   3.983 -1.0654  2.5851  2.3948
  442MOL0     H59653   7.301   6.828   3.924  0.0389  1.8861 -0.2460
  442MOL0     H59654   7.627   6.764   2.973  0.3678  0.5675  2.1891
  442MOL0     H59655   7.555   6.530   3.062  0.2419  1.2423  1.4202
  442MOL0     H59656   7.736   6.071   3.063  2.1526 -0.4991  0.6712
  442MOL0     H59657   7.675   5.829   3.111  1.6179  2.5942 -0.9631
  442MOL0     H59658   7.414   5.607   3.403  0.2132 -0.3224 -2.0977
  442MOL0     H59659   7.353   5.772   3.418 -0.2529  0.2505  1.5715
  442MOL0     H59660   7.445   5.717   3.631 -0.9267  2.1964 -1.8362
  442MOL0     H59661   7.593   5.795   3.558  2.1607 -1.7537  1.6103
  442MOL0     H59662   7.616   5.550   3.457 -2.7886 -0.9653 -0.0954
  442MOL0     H59663   7.526   5.505   3.603  1.7876 -0.3235  1.8788
  442MOL0     H59664   7.681   5.601   3.764  1.1951  1.6942 -0.3847
  442MOL0     H59665   7.750   5.466   3.682  1.1770  0.9055  3.5622
  442MOL0     H59666   7.958   5.808   3.519  2.9575 -1.3091  1.3102
  442MOL0     H59667   7.406   5.957   3.421  0.5289 -4.6565  0.3088
  442MOL0     H59668   7.440   6.260   3.440 -2.6869 -2.0575  1.2217
  442MOL0     H59669   7.367   6.296   3.290  1.0508  0.3945 -0.5757
  442MOL0     H59670   7.303   6.150   3.372 -0.6369 -0.2299  0.4030
  443MOL0     O59671   2.320   0.502   9.575 -1.0070  0.0382  0.6943
  443MOL0     C59672   2.413   0.571   9.522  1.3242  0.5087  0.9841
  443MOL0     O59673   2.406   0.707   9.508 -0.0606 -0.2176 -0.0587
  443MOL0     C59674   2.296   0.787   9.543 -0.1165  0.0072 -0.1191
  443MOL0     C59675   2.201   0.784   9.644 -0.5135  0.0605 -0.1655
  443MOL0     C59676   2.105   0.882   9.662 -0.4095  0.4979  0.6412
  443MOL0     C59677   2.109   0.996   9.593 -0.3913  0.2769 -0.2435
  443MOL0     O59678   2.025   1.104   9.616  0.8985 -0.4993  0.3057
  443MOL0     C59679   2.086   1.208   9.706 -0.6257 -0.4009  1.1113
  443MOL0     C59680   2.046   1.185   9.844 -0.6324  0.0774  0.0137
  443MOL0     C59681   2.071   1.308   9.925  0.3351  0.5070 -1.1038
  443MOL0     C59682   2.037   1.277  10.072  0.2770 -1.8998 -0.0930
  443MOL0     C59683   2.044   1.410  10.151 -0.7611  0.5236 -0.5592
  443MOL0     C59684   2.188   1.479  10.144 -0.4141  0.8888  0.2825
  443MOL0     C59685   2.185   1.627  10.198  0.1070  0.3407  1.0759
  443MOL0     C59686   2.322   1.692  10.199  0.4442  0.8228  1.9744
  443MOL0     N59687   2.328   1.824  10.269 -0.8129  0.1269  0.2642
  443MOL0     C59688   2.267   1.935  10.222 -0.0699  1.1349  0.1564
  443MOL0     C59689   2.327   2.034  10.283  0.0095  0.3542 -0.7086
  443MOL0     C59690   2.291   2.178  10.263 -0.2606 -0.5068 -0.3466
  443MOL0     C59691   2.218   2.255  10.378  0.3745 -0.0345  1.1007
  443MOL0     C59692   2.063   2.235  10.385 -1.3972  0.0025 -0.5150
  443MOL0     C59693   2.020   2.118  10.472 -0.2928 -0.9502  0.1879
  443MOL0     O59694   1.916   2.151  10.571 -0.3521 -0.3553  0.4099
  443MOL0     C59695   1.832   2.050  10.615  0.3515  0.0711  0.5346
  443MOL0     C59696   1.872   1.917  10.626  0.3418 -0.3339 -0.7235
  443MOL0     C59697   1.776   1.823  10.668 -0.1952  0.0196  0.3117
  443MOL0     C59698   1.638   1.853  10.696 -0.4574  0.6387  1.1149
  443MOL0     C59699   1.542   1.745  10.733  0.0658 -0.0857  0.0842
  443MOL0     O59700   1.410   1.779  10.731  0.6040  1.0092 -0.1664
  443MOL0     C59701   1.313   1.683  10.760 -0.0560 -0.7781 -1.4372
  443MOL0     C59702   1.306   1.620  10.880 -0.5955 -0.7679  0.8086
  443MOL0     C59703   1.211   1.522  10.917 -0.6789 -0.1602  0.3988
  443MOL0     C59704   1.105   1.486  10.828  0.4874 -0.0196  0.5891
  443MOL0     O59705   1.000   1.398  10.834 -0.3196 -0.0821  0.5003
  443MOL0     C59706   0.984   1.342  10.960 -0.1877  0.2425  0.5616
  443MOL0     C59707   0.893   1.218  10.944  0.0238 -0.9401  0.3922
  443MOL0     C59708   0.967   1.100  10.874 -0.6324 -0.9061 -0.7885
  443MOL0     C59709   0.885   1.043  10.757 -0.5313  0.0827 -0.9609
  443MOL0     C59710   0.929   0.900  10.726  0.3176 -0.6165 -0.4246
  443MOL0     C59711   0.855   0.841  10.603  0.6868 -0.6624  0.8870
  443MOL0     C59712   0.907   0.695  10.563 -0.8596 -1.0390  0.2771
  443MOL0     C59713   1.031   0.684  10.469 -0.1636  0.6053 -0.0635
  443MOL0    Cl59714   1.166   0.656  10.581  0.5534 -0.2411  0.2035
  443MOL0     C59715   1.110   1.561  10.710  0.0710  0.2578  0.7229
  443MOL0     C59716   1.213   1.655  10.669 -0.6290 -0.3544  0.1373
  443MOL0     O59717   1.587   1.641  10.764  0.3161 -0.0100  0.5071
  443MOL0     C59718   1.608   1.986  10.683 -0.6542 -0.2651 -0.9573
  443MOL0     C59719   1.703   2.087  10.650 -0.8293 -0.7661  0.2757
  443MOL0     N59720   2.427   1.990  10.370 -0.0096  0.0781 -0.5173
  443MOL0     N59721   2.423   1.859  10.360  0.6058  0.0834 -0.3765
  443MOL0     C59722   2.203   1.007   9.482 -1.2538  0.4065  0.6691
  443MOL0     C59723   2.297   0.902   9.475  0.6298 -0.3192 -0.0422
  443MOL0     C59724   2.533   0.500   9.473  0.3203  0.8649  0.1666
  443MOL0     C59725   2.643   0.576   9.436  0.1712  1.4252 -0.5063
  443MOL0     C59726   2.764   0.509   9.402 -0.2911  0.1236  0.6004
  443MOL0     C59727   2.765   0.371   9.377 -0.6443 -0.7633 -0.5890
  443MOL0     O59728   2.885   0.315   9.346 -0.2665  0.7580  0.5566
  443MOL0     C59729   2.893   0.179   9.321  0.8064  0.1290  0.9848
  443MOL0     C59730   3.034   0.127   9.272 -0.2932 -0.1079 -1.0621
  443MOL0     C59731   3.159   0.220   9.320  0.4386  0.3791 -0.9795
  443MOL0     C59732   3.290   0.147   9.287  0.5806 -1.1941 -1.0267
  443MOL0     C59733   3.343   0.072   9.398 -0.3112 -0.0143  1.0416
  443MOL0     C59734   3.372   0.018   9.503  0.0981 -0.8844  0.6183
  443MOL0     C59735   2.653   0.296   9.404 -0.1228  0.3624  0.7476
  443MOL0     C59736   2.533   0.355   9.446 -0.0282 -1.3319 -0.3143
  443MOL0     C59737   2.417   0.258   9.459 -0.8473 -0.4752 -0.2595
  443MOL0     H59738   2.191   0.691   9.699 -3.3124  0.9991  1.1169
  443MOL0     H59739   2.025   0.863   9.734 -2.4871 -1.4128 -1.9443
  443MOL0     H59740   2.195   1.199   9.699 -0.7299 -2.1056  1.1044
  443MOL0     H59741   2.059   1.309   9.676  1.3720 -0.3517 -0.7820
  443MOL0     H59742   2.104   1.101   9.883 -1.8325  0.6060  3.2033
  443MOL0     H59743   1.941   1.155   9.846 -0.9602  1.2146  1.1625
  443MOL0     H59744   1.997   1.386   9.903 -2.2492  0.0727  4.3529
  443MOL0     H59745   2.169   1.350   9.905  0.0378  0.3958 -3.0061
  443MOL0     H59746   1.940   1.227  10.082 -0.7115  0.0536  0.5347
  443MOL0     H59747   2.113   1.206  10.108  0.4527 -1.7943 -0.2574
  443MOL0     H59748   1.960   1.468  10.111 -1.9779  0.3291  1.6063
  443MOL0     H59749   2.018   1.404  10.257  0.8707  0.9427 -0.0978
  443MOL0     H59750   2.262   1.430  10.208 -0.9103  1.4096  1.2804
  443MOL0     H59751   2.225   1.485  10.041 -2.6736 -0.3329 -0.6696
  443MOL0     H59752   2.140   1.632  10.297 -0.8539  1.6787  0.5999
  443MOL0     H59753   2.125   1.686  10.128 -1.5268 -2.4628 -0.0560
  443MOL0     H59754   2.384   1.616  10.248 -0.6869 -1.6168 -0.1443
  443MOL0     H59755   2.350   1.699  10.094 -0.6762 -1.9450  1.3849
  443MOL0     H59756   2.191   1.948  10.146  0.9768  1.0836 -0.9430
  443MOL0     H59757   2.388   2.224  10.244 -1.1347  1.2272 -0.7348
  443MOL0     H59758   2.235   2.189  10.170  1.9963  0.2312 -1.6768
  443MOL0     H59759   2.250   2.222  10.477 -0.6418 -1.8529  0.8715
  443MOL0     H59760   2.236   2.362  10.366 -0.9888  0.2167  1.1098
  443MOL0     H59761   2.010   2.228  10.289 -2.6424  4.1707 -0.3067
  443MOL0     H59762   2.033   2.321  10.444 -0.2872 -1.1831  1.8913
  443MOL0     H59763   2.107   2.074  10.521  0.3282 -1.3129 -1.1671
  443MOL0     H59764   1.991   2.035  10.407 -1.4680 -1.6839  1.5998
  443MOL0     H59765   1.970   1.878  10.600  1.6652  2.6585 -0.6749
  443MOL0     H59766   1.812   1.722  10.678  1.4155  0.7164  2.2768
  443MOL0     H59767   1.390   1.658  10.938  1.8398 -0.6803 -2.4690
  443MOL0     H59768   1.233   1.467  11.008 -3.1001 -1.8295  0.0552
  443MOL0     H59769   1.081   1.311  11.002 -0.5321  1.3978  2.2986
  443MOL0     H59770   0.937   1.407  11.034 -1.0494 -0.0746  0.2955
  443MOL0     H59771   0.882   1.184  11.047  0.9677 -0.2939  0.7226
  443MOL0     H59772   0.797   1.248  10.901  1.1855  3.2666  0.2819
  443MOL0     H59773   1.054   1.144  10.825 -0.2229  0.0907  0.7768
  443MOL0     H59774   0.995   1.025  10.948  2.1269 -0.7279 -1.5483
  443MOL0     H59775   0.898   1.109  10.671 -0.6601  0.1611 -0.9205
  443MOL0     H59776   0.780   1.054  10.786  0.5261  2.1310  2.7983
  443MOL0     H59777   0.922   0.830  10.811  0.7028 -0.3861 -0.2012
  443MOL0     H59778   1.036   0.891  10.709  0.3474 -0.2695 -0.4281
  443MOL0     H59779   0.746   0.835  10.613  0.7518 -0.9291  1.4760
  443MOL0     H59780   0.875   0.904  10.516  0.7101 -2.4471 -0.4727
  443MOL0     H59781   0.827   0.646  10.508  0.1341 -1.3872 -0.9094
  443MOL0     H59782   0.919   0.632  10.651 -2.9513 -2.1680 -0.1927
  443MOL0     H59783   1.032   0.597  10.402 -2.8758  1.2485 -1.0478
  443MOL0     H59784   1.054   0.775  10.414 -0.0521  0.5423 -0.1209
  443MOL0     H59785   1.019   1.545  10.653  0.5722  1.7903 -0.5908
  443MOL0     H59786   1.210   1.704  10.572  2.2407 -3.0096 -1.4790
  443MOL0     H59787   1.503   2.016  10.680 -1.1234 -1.4824  1.1908
  443MOL0     H59788   1.666   2.189  10.644 -1.4505 -1.0686 -1.9861
  443MOL0     H59789   2.202   1.095   9.418 -1.6601 -1.3002 -1.8387
  443MOL0     H59790   2.371   0.926   9.399  0.6898  2.2898  0.7569
  443MOL0     H59791   2.634   0.683   9.452 -1.0728  1.2072  0.4056
  443MOL0     H59792   2.857   0.560   9.378 -1.0114  0.8496 -0.7744
  443MOL0     H59793   2.822   0.143   9.247  2.7730  0.7100 -1.2967
  443MOL0     H59794   2.878   0.136   9.421  2.3313  0.2586  1.2991
  443MOL0     H59795   3.024   0.131   9.163 -1.5965  2.3968 -0.9246
  443MOL0     H59796   3.060   0.032   9.319 -0.8520  0.6572  0.9074
  443MOL0     H59797   3.163   0.243   9.426  0.8774  1.1964 -1.1709
  443MOL0     H59798   3.153   0.315   9.266  1.1351  0.4130 -0.9968
  443MOL0     H59799   3.285   0.086   9.196  2.7319 -0.1852 -1.8740
  443MOL0     H59800   3.376   0.212   9.272 -0.2381  0.2513  0.2235
  443MOL0     H59801   3.402  -0.019   9.600  0.8793  1.6002  1.4052
  443MOL0     H59802   2.651   0.189   9.383 -1.4586  0.6141 -0.5485
  443MOL0     H59803   2.317   0.301   9.446  0.1592  1.9108 -0.6180
  443MOL0     H59804   2.415   0.178   9.385  0.1181 -0.2098 -0.5932
  443MOL0     H59805   2.421   0.204   9.554 -0.1257 -2.1235 -1.1783
  444MOL0     O59806   2.568   2.245   6.479 -0.6018  0.5875  1.3091
  444MOL0     C59807   2.606   2.146   6.416  0.6510  0.2963 -0.0955
  444MOL0     O59808   2.522   2.055   6.357  0.2271  0.3608 -0.0805
  444MOL0     C59809   2.410   2.115   6.298  0.4323  0.7345  0.3899
  444MOL0     C59810   2.287   2.117   6.370 -0.3311 -0.4380  0.5687
  444MOL0     C59811   2.173   2.154   6.309  0.7274  0.3440  0.3101
  444MOL0     C59812   2.169   2.199   6.170 -0.2032 -0.0262 -0.6968
  444MOL0     O59813   2.050   2.247   6.118 -0.0618 -0.3427  0.4953
  444MOL0     C59814   1.953   2.308   6.207  0.0658  0.1900  0.2031
  444MOL0     C59815   1.843   2.374   6.123 -0.7026 -0.9411 -0.0312
  444MOL0     C59816   1.775   2.279   6.021  0.4208 -0.0009  0.4925
  444MOL0     C59817   1.681   2.369   5.939  0.1148 -0.6003 -0.2373
  444MOL0     C59818   1.561   2.295   5.870  0.5580  0.7983 -0.5504
  444MOL0     C59819   1.597   2.249   5.729  0.3752 -0.2885 -0.5072
  444MOL0     C59820   1.667   2.112   5.742 -0.1429 -0.3782  0.0970
  444MOL0     C59821   1.769   2.099   5.630 -0.4390  0.0114  0.7068
  444MOL0     N59822   1.830   1.967   5.662  0.4374 -0.1766 -0.5937
  444MOL0     C59823   1.929   1.941   5.761  0.7155 -1.1970  0.1238
  444MOL0     C59824   1.949   1.806   5.741  0.4152  1.0775 -0.2569
  444MOL0     C59825   2.054   1.727   5.822  0.0746  0.0709  0.2369
  444MOL0     C59826   2.071   1.770   5.960 -0.1395 -1.4402 -0.6343
  444MOL0     C59827   2.176   1.676   6.030  0.1994  0.6232 -0.2020
  444MOL0     C59828   2.228   1.721   6.170 -0.6639  0.0513  0.8502
  444MOL0     O59829   2.322   1.617   6.223  0.4339  0.3653  0.7685
  444MOL0     C59830   2.392   1.638   6.346 -0.2963 -0.4295  0.3002
  444MOL0     C59831   2.376   1.753   6.424  0.4044  0.3796 -0.9362
  444MOL0     C59832   2.458   1.784   6.531 -0.9765  0.2110  1.1797
  444MOL0     C59833   2.564   1.693   6.566  0.1075 -0.2306 -0.2462
  444MOL0     C59834   2.659   1.714   6.670  0.2128 -0.1111 -1.1936
  444MOL0     O59835   2.746   1.609   6.705  0.2699  0.0961  0.0205
  444MOL0     C59836   2.841   1.648   6.787  0.3018  1.3411 -0.4566
  444MOL0     C59837   2.817   1.672   6.920  0.4558 -0.4275  0.1559
  444MOL0     C59838   2.916   1.714   7.000 -0.1912  0.3028 -0.4933
  444MOL0     C59839   3.052   1.723   6.943  1.0109 -0.3238 -0.6669
  444MOL0     O59840   3.151   1.754   7.030  0.0884 -0.7829 -0.8807
  444MOL0     C59841   3.161   1.688   7.150 -0.1528  0.0207 -0.8469
  444MOL0     C59842   3.307   1.673   7.175 -0.8688 -0.6951  0.2821
  444MOL0     C59843   3.381   1.565   7.091  0.8931 -0.9755  0.1872
  444MOL0     C59844   3.535   1.579   7.103  0.3399 -0.2637 -0.2099
  444MOL0     C59845   3.611   1.668   6.995 -1.6205 -0.8738 -0.7522
  444MOL0     C59846   3.754   1.691   7.034 -0.1578  0.2824  1.5913
  444MOL0     C59847   3.840   1.574   7.017 -0.0886  0.4288 -0.2410
  444MOL0     C59848   3.976   1.601   7.089  0.5266 -0.8202  0.7126
  444MOL0    Cl59849   3.965   1.647   7.263  0.3543 -0.0869  0.1273
  444MOL0     C59850   3.076   1.692   6.808 -0.3394 -0.3962  0.3091
  444MOL0     C59851   2.960   1.660   6.728 -0.9160  0.1749 -0.4099
  444MOL0     O59852   2.651   1.824   6.722 -0.7028 -0.6313  0.5096
  444MOL0     C59853   2.583   1.584   6.477 -0.1646 -0.2166 -0.7041
  444MOL0     C59854   2.502   1.557   6.369  0.0721  0.2664  0.2546
  444MOL0     N59855   1.868   1.760   5.634  0.5769  0.1092 -0.3403
  444MOL0     N59856   1.804   1.856   5.587 -0.0040  0.7140  0.2936
  444MOL0     C59857   2.292   2.195   6.100  0.2125  0.9701 -0.1772
  444MOL0     C59858   2.403   2.153   6.167 -0.6081  0.2677  0.5740
  444MOL0     C59859   2.754   2.099   6.414 -0.0602 -0.3625 -0.5649
  444MOL0     C59860   2.781   1.968   6.362  0.8777 -0.4575  0.3763
  444MOL0     C59861   2.906   1.912   6.373 -0.2319 -0.0272  0.0360
  444MOL0     C59862   3.017   1.982   6.428  0.7729 -1.0891  0.1352
  444MOL0     O59863   3.137   1.935   6.445 -0.8546 -0.4736  0.1545
  444MOL0     C59864   3.179   1.805   6.408  0.0463 -0.1060  0.2727
  444MOL0     C59865   3.200   1.801   6.251 -0.3776 -0.5989  0.4046
  444MOL0     C59866   3.230   1.660   6.188  0.7489 -0.4966 -0.0251
  444MOL0     C59867   3.122   1.609   6.088 -0.3142 -0.3139  0.6588
  444MOL0     C59868   2.997   1.589   6.155  0.2755  0.7091  0.1549
  444MOL0     C59869   2.897   1.554   6.223 -0.4096 -0.7235  0.9233
  444MOL0     C59870   2.989   2.113   6.469  0.1538  0.9128  0.9038
  444MOL0     C59871   2.864   2.174   6.454 -0.2709  0.0952 -0.6176
  444MOL0     C59872   2.861   2.318   6.501  0.1446 -0.4358  0.5127
  444MOL0     H59873   2.285   2.092   6.476  3.4583 -0.0408  0.8764
  444MOL0     H59874   2.086   2.140   6.373 -0.0766  0.7220 -0.6715
  444MOL0     H59875   1.910   2.233   6.275  0.0453 -0.0847 -0.1111
  444MOL0     H59876   2.005   2.389   6.259 -3.0019  2.1269  0.5225
  444MOL0     H59877   1.886   2.446   6.053  1.6328 -1.5580  0.6548
  444MOL0     H59878   1.771   2.426   6.186 -0.0476  1.1618 -0.9495
  444MOL0     H59879   1.721   2.207   6.082  2.1326 -1.2921  0.5771
  444MOL0     H59880   1.839   2.220   5.953 -2.2679 -3.0198  0.3699
  444MOL0     H59881   1.643   2.444   6.009  0.6876 -0.8363  0.3388
  444MOL0     H59882   1.733   2.433   5.867 -2.7633 -1.3836 -3.2756
  444MOL0     H59883   1.519   2.216   5.933 -1.2936  1.5545 -0.7696
  444MOL0     H59884   1.475   2.362   5.866 -1.4702 -1.6906 -0.7082
  444MOL0     H59885   1.509   2.230   5.668  0.9990  1.5595 -2.0812
  444MOL0     H59886   1.665   2.317   5.676  0.3433 -1.6330 -2.3823
  444MOL0     H59887   1.590   2.036   5.729 -0.3212 -0.1905  0.0542
  444MOL0     H59888   1.719   2.108   5.838  2.1474 -1.2276 -1.0891
  444MOL0     H59889   1.705   2.090   5.543  0.7587 -0.0534 -0.1986
  444MOL0     H59890   1.843   2.180   5.630 -0.5205  0.1087  1.8751
  444MOL0     H59891   1.969   2.014   5.831 -0.2817 -1.1164  0.6150
  444MOL0     H59892   2.023   1.622   5.819  0.4628 -0.0210 -0.9000
  444MOL0     H59893   2.150   1.729   5.768  0.5470 -1.5954  0.9403
  444MOL0     H59894   2.104   1.874   5.967 -0.9129 -1.1888 -0.5833
  444MOL0     H59895   1.976   1.772   6.016 -0.6173  3.4833 -1.1625
  444MOL0     H59896   2.265   1.674   5.965 -0.2098  0.9298 -0.7782
  444MOL0     H59897   2.138   1.575   6.047  1.2357  0.2101 -0.2320
  444MOL0     H59898   2.150   1.752   6.240 -1.9932 -0.8478 -0.1699
  444MOL0     H59899   2.292   1.808   6.152 -1.2477  1.4944  4.7299
  444MOL0     H59900   2.305   1.832   6.404 -1.8215 -1.8134 -2.2250
  444MOL0     H59901   2.446   1.876   6.588 -1.3243  1.3941 -0.7064
  444MOL0     H59902   2.719   1.662   6.965 -0.6152 -0.3314 -2.0323
  444MOL0     H59903   2.905   1.738   7.105  0.6044 -3.1562  0.4987
  444MOL0     H59904   3.116   1.747   7.230  1.4396 -0.0311  0.1348
  444MOL0     H59905   3.128   1.584   7.145 -1.1410  0.3657 -2.4478
  444MOL0     H59906   3.362   1.768   7.168  0.0822 -1.0666  2.0978
  444MOL0     H59907   3.323   1.627   7.272  0.4935 -2.6324 -0.7850
  444MOL0     H59908   3.351   1.467   7.129 -2.7560  0.8178  2.5011
  444MOL0     H59909   3.365   1.575   6.984  1.2398  3.3875  0.3494
  444MOL0     H59910   3.569   1.476   7.089 -3.9340 -1.6385 -2.3018
  444MOL0     H59911   3.569   1.611   7.202  1.6429  1.4331 -1.1604
  444MOL0     H59912   3.563   1.766   6.996 -1.7695 -0.9474 -0.1826
  444MOL0     H59913   3.594   1.638   6.891 -0.2263  1.1173 -1.6221
  444MOL0     H59914   3.802   1.773   6.981  3.9762 -3.6874 -1.6498
  444MOL0     H59915   3.754   1.722   7.139  0.0464  2.2044  1.0520
  444MOL0     H59916   3.868   1.554   6.913  1.9437  0.3541  0.2758
  444MOL0     H59917   3.797   1.487   7.069  1.7007 -2.0115 -2.6028
  444MOL0     H59918   4.032   1.508   7.073 -0.1059 -1.5869  2.7220
  444MOL0     H59919   4.021   1.682   7.030 -0.2229 -0.4204  0.6709
  444MOL0     H59920   3.177   1.664   6.781 -0.7274 -1.7959  0.2605
  444MOL0     H59921   2.965   1.632   6.624  3.9538  1.7168 -0.8431
  444MOL0     H59922   2.655   1.508   6.505 -0.6712 -0.2747  0.5087
  444MOL0     H59923   2.504   1.458   6.326 -1.1559  0.4567 -0.2867
  444MOL0     H59924   2.289   2.220   5.995 -1.8866 -0.6923 -0.5839
  444MOL0     H59925   2.498   2.156   6.115 -0.9591  1.2091 -0.0368
  444MOL0     H59926   2.709   1.899   6.322  2.2579 -1.9135  0.2888
  444MOL0     H59927   2.922   1.817   6.323 -1.3872 -0.0855 -0.2411
  444MOL0     H59928   3.115   1.728   6.451  0.2669  0.3999  1.5850
  444MOL0     H59929   3.280   1.790   6.447 -0.4047  2.9135  3.1599
  444MOL0     H59930   3.290   1.859   6.230  2.1305 -2.6759  4.2118
  444MOL0     H59931   3.115   1.844   6.197  0.9806 -1.5033 -2.6927
  444MOL0     H59932   3.236   1.579   6.262 -0.2504 -1.2670 -0.7492
  444MOL0     H59933   3.332   1.665   6.149  1.1123  0.8401  1.0414
  444MOL0     H59934   3.107   1.678   6.005 -1.8008 -0.8819  0.4316
  444MOL0     H59935   3.146   1.511   6.046  0.6665 -0.8085  2.2466
  444MOL0     H59936   2.815   1.537   6.290 -1.1688 -2.5649 -0.3619
  444MOL0     H59937   3.074   2.166   6.510 -0.6655  1.2274  2.2400
  444MOL0     H59938   2.961   2.349   6.532 -0.6345  1.5910  1.1817
  444MOL0     H59939   2.846   2.376   6.411  3.7503  0.9476  0.6301
  444MOL0     H59940   2.790   2.334   6.583  2.2191 -1.8767  2.7547
  445MOL0     O59941   1.666   3.981   4.736 -0.0336  0.6312 -0.4355
  445MOL0     C59942   1.715   4.067   4.662  0.0444  0.3382 -0.0804
  445MOL0     O59943   1.816   4.156   4.688 -0.3286 -0.0523  0.3806
  445MOL0     C59944   1.939   4.119   4.728  0.1798 -0.1561 -0.6953
  445MOL0     C59945   1.971   3.994   4.780  0.8415 -0.0480  0.3653
  445MOL0     C59946   2.108   3.963   4.810 -0.3288  0.0330 -0.9653
  445MOL0     C59947   2.211   4.057   4.795  0.2017 -0.5099  0.6661
  445MOL0     O59948   2.343   4.045   4.829  0.2228 -0.6445 -0.5704
  445MOL0     C59949   2.390   3.922   4.886  0.3220 -0.1603 -0.3626
  445MOL0     C59950   2.539   3.937   4.916 -0.2217 -0.6838  0.4575
  445MOL0     C59951   2.632   3.915   4.791  0.1743 -0.7827  0.0638
  445MOL0     C59952   2.769   3.994   4.798 -0.4876 -0.3107  0.0750
  445MOL0     C59953   2.827   4.035   4.664 -1.2165  0.0484 -0.4587
  445MOL0     C59954   2.855   3.921   4.568 -0.3343 -0.2332 -0.5765
  445MOL0     C59955   2.960   3.817   4.616  0.9346  0.5521 -0.2178
  445MOL0     C59956   3.106   3.868   4.638 -0.0265 -0.4499  0.3461
  445MOL0     N59957   3.177   3.895   4.505 -0.0450  0.0807 -0.2241
  445MOL0     C59958   3.232   3.796   4.427  0.6790  1.0636 -0.6178
  445MOL0     C59959   3.277   3.859   4.316  0.1588 -0.7768 -0.0378
  445MOL0     C59960   3.331   3.801   4.184  0.3516 -0.1166 -0.0003
  445MOL0     C59961   3.217   3.726   4.107 -0.2490 -0.4273 -0.3427
  445MOL0     C59962   3.251   3.608   4.024  0.7633  0.5919  0.5308
  445MOL0     C59963   3.341   3.637   3.906  0.3855  0.5298 -0.5591
  445MOL0     O59964   3.386   3.504   3.852 -0.7579 -0.3276  1.0241
  445MOL0     C59965   3.456   3.509   3.732 -0.7049 -0.5811  1.1773
  445MOL0     C59966   3.484   3.619   3.644  0.0317  0.4951 -0.0603
  445MOL0     C59967   3.576   3.599   3.534  0.2663  0.3290 -0.4491
  445MOL0     C59968   3.624   3.474   3.507 -0.2709  0.6248  0.4320
  445MOL0     C59969   3.718   3.439   3.396 -0.2237 -0.6850  0.5658
  445MOL0     O59970   3.821   3.351   3.420 -0.7385  0.0805  0.0529
  445MOL0     C59971   3.909   3.332   3.319  0.9167 -0.6474 -0.5500
  445MOL0     C59972   4.044   3.344   3.352 -0.3983 -0.3139  0.0631
  445MOL0     C59973   4.136   3.332   3.260  0.0353 -1.1178  0.3324
  445MOL0     C59974   4.103   3.286   3.132 -0.5938 -0.2215  0.7054
  445MOL0     O59975   4.193   3.235   3.035  0.6283  0.2160 -0.5312
  445MOL0     C59976   4.325   3.295   3.040 -0.0081  0.1013  0.4417
  445MOL0     C59977   4.389   3.258   2.899  0.1873  0.6527 -0.0642
  445MOL0     C59978   4.465   3.120   2.907  0.2029 -1.0558  1.2611
  445MOL0     C59979   4.506   3.077   2.767  1.4950 -0.2522 -1.4207
  445MOL0     C59980   4.620   3.157   2.720 -0.8636  0.5326  1.0227
  445MOL0     C59981   4.742   3.149   2.813  0.2320  0.0251 -0.0793
  445MOL0     C59982   4.855   3.216   2.737 -0.2169  1.1557  0.2905
  445MOL0     C59983   4.985   3.186   2.811 -0.0019 -1.0149  0.9253
  445MOL0    Cl59984   5.006   3.010   2.810 -0.0451 -0.3448 -0.3236
  445MOL0     C59985   3.967   3.280   3.084 -0.0191 -0.5411 -0.1766
  445MOL0     C59986   3.868   3.299   3.178  0.4618  0.1120 -0.5965
  445MOL0     O59987   3.712   3.508   3.296  0.3080 -0.3369 -0.7268
  445MOL0     C59988   3.588   3.364   3.586 -0.3244  0.3572 -0.9992
  445MOL0     C59989   3.502   3.387   3.697 -0.0528 -0.2364 -0.4939
  445MOL0     N59990   3.262   3.998   4.342 -0.4716 -0.8175 -0.1477
  445MOL0     N59991   3.226   4.011   4.465  0.1156 -0.2171 -0.3695
  445MOL0     C59992   2.163   4.188   4.767  0.0459  0.0624 -0.1126
  445MOL0     C59993   2.030   4.218   4.724  0.9903  0.6954 -0.5690
  445MOL0     C59994   1.638   4.097   4.532 -0.6491 -0.2661  0.0338
  445MOL0     C59995   1.502   4.074   4.522  0.3511 -0.1707  0.0654
  445MOL0     C59996   1.430   4.085   4.398  0.2746 -0.5061 -0.6454
  445MOL0     C59997   1.501   4.144   4.299 -0.2062 -0.0478  0.2877
  445MOL0     O59998   1.451   4.158   4.173 -0.0921 -0.2773 -0.1698
  445MOL0     C59999   1.319   4.122   4.139 -0.4247 -0.3568 -0.3086
  445MOL0     C60000   1.299   4.155   3.989  0.3736 -0.2156  0.1954
  445MOL0     C60001   1.180   4.075   3.935  0.1306  0.0729  0.0822
  445MOL0     C60002   1.141   4.110   3.798 -0.1706  0.1244  0.3585
  445MOL0     C60003   1.027   4.204   3.789  0.0766  0.7857  0.0027
  445MOL0     C60004   0.922   4.272   3.782  0.4193  1.1012 -0.0121
  445MOL0     C60005   1.631   4.185   4.318 -0.7985 -0.9991  0.2920
  445MOL0     C60006   1.703   4.164   4.425  0.4879 -0.0823 -0.8071
  445MOL0     C60007   1.857   4.183   4.418  0.3137 -0.2263 -0.5246
  445MOL0     H60008   1.897   3.918   4.806  1.7558 -1.7501 -1.7007
  445MOL0     H60009   2.144   3.866   4.842  2.9223  1.2328 -0.6544
  445MOL0     H60010   2.336   3.905   4.980 -1.4646 -1.7482 -1.5931
  445MOL0     H60011   2.376   3.839   4.816  4.8475  0.4291 -2.3015
  445MOL0     H60012   2.560   3.866   4.997  0.0731  0.5121  1.4603
  445MOL0     H60013   2.552   4.037   4.959 -0.8910 -0.4224  0.0679
  445MOL0     H60014   2.569   3.948   4.707 -0.3450 -0.9976  0.3672
  445MOL0     H60015   2.664   3.812   4.773  1.0269 -0.2530 -1.8046
  445MOL0     H60016   2.776   4.084   4.859  4.4833 -0.1013 -0.3738
  445MOL0     H60017   2.841   3.926   4.844  1.8664  2.5410  0.9184
  445MOL0     H60018   2.749   4.101   4.626 -1.0151  0.4665 -0.1573
  445MOL0     H60019   2.916   4.099   4.670 -2.0675  1.1465  0.9357
  445MOL0     H60020   2.759   3.870   4.553 -0.4974  0.3873 -1.7604
  445MOL0     H60021   2.874   3.965   4.470  0.0452  2.4363  0.6239
  445MOL0     H60022   2.964   3.739   4.539  3.3000  2.1670 -1.8760
  445MOL0     H60023   2.923   3.776   4.711  3.2925 -2.2305 -0.3504
  445MOL0     H60024   3.121   3.955   4.703 -0.4249  0.9268 -1.3445
  445MOL0     H60025   3.156   3.786   4.692 -3.1172 -1.4570  1.9187
  445MOL0     H60026   3.210   3.691   4.441 -1.4123  1.5980  0.5660
  445MOL0     H60027   3.374   3.879   4.121 -0.6842 -0.1146 -0.7145
  445MOL0     H60028   3.405   3.727   4.217 -1.3392 -0.9464  2.1934
  445MOL0     H60029   3.153   3.688   4.187 -2.4472  3.8993  0.2244
  445MOL0     H60030   3.168   3.803   4.046 -0.7305 -1.2956 -1.0787
  445MOL0     H60031   3.160   3.559   3.988  0.0215  0.8576  1.9623
  445MOL0     H60032   3.298   3.531   4.085 -0.5270  0.7063  1.7280
  445MOL0     H60033   3.432   3.686   3.943  1.1683 -0.4550 -1.0958
  445MOL0     H60034   3.294   3.701   3.831 -1.1198  1.1349  0.8483
  445MOL0     H60035   3.452   3.718   3.677  0.3816  0.5513  0.1163
  445MOL0     H60036   3.603   3.684   3.472 -0.6459  1.4663  0.6525
  445MOL0     H60037   4.081   3.366   3.451 -2.7620  2.4063  0.4458
  445MOL0     H60038   4.237   3.349   3.297  0.5078  2.9587 -2.1257
  445MOL0     H60039   4.318   3.404   3.047 -0.5900 -0.0271  2.2114
  445MOL0     H60040   4.389   3.255   3.119  1.9170 -0.8304 -1.4934
  445MOL0     H60041   4.311   3.256   2.823  0.6857 -0.5739 -0.5764
  445MOL0     H60042   4.463   3.334   2.873  2.5720 -1.0945  1.2389
  445MOL0     H60043   4.536   3.108   2.989 -0.0120 -0.8004  1.4886
  445MOL0     H60044   4.386   3.050   2.935 -0.7326 -0.7195 -0.3909
  445MOL0     H60045   4.421   3.081   2.699  0.5038  0.8097 -0.1759
  445MOL0     H60046   4.531   2.970   2.771 -1.8064 -1.1247  0.4369
  445MOL0     H60047   4.593   3.260   2.694 -0.3324  0.4696  0.1916
  445MOL0     H60048   4.649   3.109   2.626  1.1458  2.1788  0.7258
  445MOL0     H60049   4.723   3.203   2.906 -0.3016 -2.9443  1.6694
  445MOL0     H60050   4.756   3.041   2.822  3.7355 -0.0113 -3.2310
  445MOL0     H60051   4.819   3.318   2.720 -1.0346  0.6438 -1.2173
  445MOL0     H60052   4.876   3.171   2.640  3.2646  2.2726  0.4088
  445MOL0     H60053   5.064   3.230   2.749 -2.3584 -1.9677 -3.1246
  445MOL0     H60054   4.986   3.223   2.914 -0.1290 -0.3843  0.7080
  445MOL0     H60055   3.935   3.252   2.984  1.2955 -2.3975 -0.1323
  445MOL0     H60056   3.764   3.288   3.149 -0.1849  2.0278  0.7714
  445MOL0     H60057   3.624   3.268   3.551  0.1909  0.2758 -0.2708
  445MOL0     H60058   3.483   3.303   3.763 -3.3291  0.1174 -0.7758
  445MOL0     H60059   2.236   4.265   4.788 -0.2451 -0.5138  3.6730
  445MOL0     H60060   1.993   4.315   4.690 -1.2622 -1.3885 -4.9026
  445MOL0     H60061   1.459   4.021   4.607 -3.2108  2.7995  0.3781
  445MOL0     H60062   1.322   4.076   4.392 -0.0493  0.8249  1.8941
  445MOL0     H60063   1.244   4.162   4.208 -1.7711 -3.1920 -0.0182
  445MOL0     H60064   1.310   4.014   4.154 -2.9971 -0.2053 -0.3455
  445MOL0     H60065   1.387   4.118   3.937  1.2690  0.3869  1.2511
  445MOL0     H60066   1.279   4.262   3.984 -3.4789 -0.7285  0.9481
  445MOL0     H60067   1.093   4.071   4.002  0.2922 -1.5857  0.2387
  445MOL0     H60068   1.218   3.972   3.927  2.1376  0.6147  1.7538
  445MOL0     H60069   1.222   4.156   3.740 -0.6788  2.0419  1.1027
  445MOL0     H60070   1.109   4.021   3.742  1.8649 -1.6347  1.8465
  445MOL0     H60071   0.834   4.334   3.782  0.0873  0.6449  0.5819
  445MOL0     H60072   1.675   4.211   4.222 -1.2906 -1.6033 -0.1110
  445MOL0     H60073   1.894   4.280   4.452  1.9400  0.5561 -4.0269
  445MOL0     H60074   1.916   4.106   4.468 -0.7859 -0.7518 -0.0101
  445MOL0     H60075   1.891   4.191   4.314  3.3448 -0.9901  0.3087
  446MOL0     O60076   8.505   8.955   7.985 -0.5319  0.2057 -0.1980
  446MOL0     C60077   8.486   8.871   8.078 -0.5282 -0.6795 -0.4480
  446MOL0     O60078   8.563   8.864   8.191 -0.3093 -0.2387 -0.5175
  446MOL0     C60079   8.664   8.949   8.218 -0.9761  0.6867 -0.1474
  446MOL0     C60080   8.647   9.082   8.237  0.2305 -0.5279  0.0373
  446MOL0     C60081   8.750   9.170   8.281 -0.0119 -0.3240 -0.1380
  446MOL0     C60082   8.878   9.110   8.310  0.0530 -0.6950  0.2917
  446MOL0     O60083   8.969   9.207   8.361 -0.2699  0.0633 -0.5541
  446MOL0     C60084   9.042   9.157   8.472  0.5192 -0.6531 -0.9360
  446MOL0     C60085   9.090   9.279   8.556 -0.0805 -0.4379  0.6070
  446MOL0     C60086   8.962   9.364   8.606 -0.6435 -0.4703 -0.4325
  446MOL0     C60087   8.882   9.281   8.711 -0.0222  1.3440 -0.3323
  446MOL0     C60088   8.804   9.371   8.806 -0.1163  0.0590  0.0869
  446MOL0     C60089   8.890   9.453   8.901 -0.0045  0.3628  0.2650
  446MOL0     C60090   8.800   9.504   9.004 -0.8536 -0.0573  0.2512
  446MOL0     C60091   8.888   9.585   9.105  0.2880  0.1867  0.0068
  446MOL0     N60092   8.815   9.671   9.200 -0.7691 -0.2018  0.7413
  446MOL0     C60093   8.797   9.804   9.175  0.2792  0.2135 -0.4647
  446MOL0     C60094   8.720   9.851   9.276  0.5644 -0.4397  0.9831
  446MOL0     C60095   8.674   9.985   9.312  0.2090  0.1859  0.4042
  446MOL0     C60096   8.746  10.057   9.422 -0.5875 -0.2685  0.0594
  446MOL0     C60097   8.901  10.050   9.404 -0.2958  0.0862 -0.1254
  446MOL0     C60098   8.975  10.135   9.500  0.3072  0.1813 -0.0796
  446MOL0     O60099   8.934  10.109   9.629  0.7701 -0.0299 -0.4154
  446MOL0     C60100   8.973  10.201   9.725 -0.0168  0.3134  0.4998
  446MOL0     C60101   8.877  10.239   9.821  0.3353 -0.8888 -0.7367
  446MOL0     C60102   8.913  10.317   9.933  0.6147  0.0142 -0.2539
  446MOL0     C60103   9.044  10.348   9.948 -0.1369 -1.3224  0.4680
  446MOL0     C60104   9.085  10.434  10.058 -0.0018 -0.9459 -0.9595
  446MOL0     O60105   8.984  10.481  10.149 -0.6457 -0.1523  0.7161
  446MOL0     C60106   9.025  10.553  10.262  0.4056  0.7186  0.8560
  446MOL0     C60107   9.027  10.696  10.251 -0.4961 -0.5771  1.0203
  446MOL0     C60108   9.077  10.766  10.357 -0.8089  0.3050 -0.7625
  446MOL0     C60109   9.125  10.706  10.479  0.9681 -0.7158  0.1243
  446MOL0     O60110   9.164  10.807  10.563 -0.0366 -0.2040 -0.4967
  446MOL0     C60111   9.207  10.768  10.696 -0.4919 -0.5279 -0.1590
  446MOL0     C60112   9.238  10.901  10.763  0.2438  0.8202 -0.1226
  446MOL0     C60113   9.247  10.882  10.914 -0.4005  0.9085  0.5368
  446MOL0     C60114   9.295  11.014  10.979  0.3058  0.0204 -0.4698
  446MOL0     C60115   9.441  11.033  10.972 -0.3418 -0.1499  0.7060
  446MOL0     C60116   9.491  11.155  11.050 -0.1976 -1.0256 -0.0730
  446MOL0     C60117   9.630  11.194  11.010 -0.2283  1.3505 -0.9326
  446MOL0     C60118   9.678  11.333  11.040  0.5619 -0.4486 -0.1353
  446MOL0    Cl60119   9.840  11.365  10.984  0.1942 -0.6519 -0.7174
  446MOL0     C60120   9.124  10.564  10.491 -0.7745 -0.5972  0.5489
  446MOL0     C60121   9.079  10.487  10.380  0.5482 -0.0068  0.0420
  446MOL0     O60122   9.204  10.461  10.074  0.6147 -0.3272  1.0522
  446MOL0     C60123   9.142  10.325   9.846 -0.2440 -0.1445 -0.4955
  446MOL0     C60124   9.108  10.247   9.741 -0.0836  0.0129 -0.4929
  446MOL0     N60125   8.681   9.744   9.354  0.5356  0.2871  0.0181
  446MOL0     N60126   8.751   9.639   9.312  0.3157 -0.3335 -0.5031
  446MOL0     C60127   8.897   8.977   8.270 -0.3486  0.2059 -0.4546
  446MOL0     C60128   8.794   8.894   8.221  0.1048 -1.2244 -0.9237
  446MOL0     C60129   8.384   8.767   8.053  0.1488  0.9654 -1.0760
  446MOL0     C60130   8.350   8.682   8.168 -0.8517 -0.0573  0.1671
  446MOL0     C60131   8.239   8.603   8.171  0.1638  0.2351 -0.1872
  446MOL0     C60132   8.160   8.593   8.055 -0.1679  0.0090  0.9759
  446MOL0     O60133   8.057   8.506   8.051  0.3522  1.3310  0.0902
  446MOL0     C60134   7.988   8.449   7.931  0.7341  0.1966  0.1839
  446MOL0     C60135   7.888   8.547   7.863 -0.2991  0.0267 -0.3477
  446MOL0     C60136   7.895   8.543   7.709  0.2173  0.0842 -0.0155
  446MOL0     C60137   7.829   8.426   7.641  0.7442  0.6151 -0.1048
  446MOL0     C60138   7.848   8.292   7.696 -0.0566  0.5093  0.6368
  446MOL0     C60139   7.863   8.189   7.760  0.1166 -0.5489 -0.4745
  446MOL0     C60140   8.199   8.667   7.942  0.6719  1.0645 -0.4925
  446MOL0     C60141   8.305   8.754   7.940  0.4409 -0.2615  0.4334
  446MOL0     C60142   8.316   8.840   7.820  0.0407  0.2537 -0.2155
  446MOL0     H60143   8.543   9.111   8.221 -0.6858 -3.6449 -0.4249
  446MOL0     H60144   8.737   9.277   8.298  0.9841 -0.4475  1.6592
  446MOL0     H60145   8.990   9.087   8.538  0.6206 -0.7505 -0.9571
  446MOL0     H60146   9.125   9.092   8.441  2.0359 -0.1637  1.7991
  446MOL0     H60147   9.161   9.333   8.492 -0.9834 -1.2494 -1.1472
  446MOL0     H60148   9.138   9.235   8.643 -1.4799 -0.4932  1.3837
  446MOL0     H60149   8.897   9.393   8.523 -3.8531 -2.4934  1.1754
  446MOL0     H60150   9.003   9.443   8.670 -2.8093  0.0289  0.4146
  446MOL0     H60151   8.810   9.222   8.653  0.2967  0.7107 -0.0897
  446MOL0     H60152   8.951   9.220   8.769 -0.8240 -0.0242 -0.7737
  446MOL0     H60153   8.733   9.433   8.749 -0.3462  0.9763  1.3135
  446MOL0     H60154   8.747   9.297   8.862  2.0360 -1.7250  0.0489
  446MOL0     H60155   8.972   9.403   8.953  0.4870  1.7763  0.9058
  446MOL0     H60156   8.923   9.532   8.833 -3.1917 -1.4139 -3.8064
  446MOL0     H60157   8.742   9.421   9.045 -1.7089  1.4864  2.3232
  446MOL0     H60158   8.730   9.580   8.968 -1.1965  0.9574  2.7903
  446MOL0     H60159   8.939   9.507   9.161 -0.2896 -0.0424  0.2243
  446MOL0     H60160   8.968   9.641   9.055  2.5548 -1.1497  1.9408
  446MOL0     H60161   8.839   9.872   9.101  0.8018 -0.1192 -0.4796
  446MOL0     H60162   8.691  10.052   9.228  1.8552 -1.5708 -0.7552
  446MOL0     H60163   8.567   9.976   9.336  0.7648 -3.0829  2.2963
  446MOL0     H60164   8.716  10.162   9.433 -0.8962 -0.4502  1.0042
  446MOL0     H60165   8.709  10.014   9.516 -1.5321  0.7116  0.1596
  446MOL0     H60166   8.929  10.081   9.303  3.5007 -1.3765  0.2977
  446MOL0     H60167   8.947   9.954   9.430 -0.1255 -0.5525 -2.5531
  446MOL0     H60168   8.969  10.244   9.487  1.7457  0.9522  4.2433
  446MOL0     H60169   9.080  10.105   9.484 -0.1712 -0.8420 -1.5463
  446MOL0     H60170   8.781  10.188   9.818  0.7971 -2.0136  1.4887
  446MOL0     H60171   8.840  10.326  10.012  0.7970  0.8450 -0.1695
  446MOL0     H60172   9.007  10.756  10.163 -0.4521  0.2067  1.5368
  446MOL0     H60173   9.068  10.874  10.357 -0.9581  0.3011  0.1370
  446MOL0     H60174   9.121  10.717  10.739  0.0903 -2.9658 -1.7026
  446MOL0     H60175   9.301  10.713  10.696  1.3031  2.2741  1.3459
  446MOL0     H60176   9.333  10.932  10.718  0.7309 -2.2721 -1.5288
  446MOL0     H60177   9.162  10.977  10.744  0.1660  1.0902  1.2018
  446MOL0     H60178   9.150  10.849  10.953 -0.6825 -1.8844 -2.1420
  446MOL0     H60179   9.312  10.797  10.939 -1.9958 -0.1741  1.1938
  446MOL0     H60180   9.277  11.003  11.086 -0.5456  2.2411 -0.3257
  446MOL0     H60181   9.230  11.095  10.943  2.0799  1.8222  0.1885
  446MOL0     H60182   9.453  11.045  10.864 -3.3307  1.2860  0.4197
  446MOL0     H60183   9.504  10.953  11.011 -1.7153 -0.5016  2.3327
  446MOL0     H60184   9.424  11.233  11.011  0.6649 -0.0120  0.4380
  446MOL0     H60185   9.484  11.143  11.158 -1.5684  2.3819  0.3282
  446MOL0     H60186   9.635  11.159  10.906 -0.1345 -3.9619  0.5505
  446MOL0     H60187   9.693  11.125  11.067 -0.0762  1.4560 -0.9714
  446MOL0     H60188   9.604  11.406  11.006  2.5774  1.4818 -0.6049
  446MOL0     H60189   9.693  11.358  11.146  5.1160  0.9760 -0.8820
  446MOL0     H60190   9.156  10.520  10.585 -0.0979 -0.2661  0.4779
  446MOL0     H60191   9.084  10.379  10.380  2.6087  0.0349 -1.0498
  446MOL0     H60192   9.232  10.386   9.849 -0.0846 -0.3933  2.5442
  446MOL0     H60193   9.171  10.214   9.659 -0.4880 -2.7575  0.2115
  446MOL0     H60194   9.000   8.942   8.274 -0.4467 -0.0629 -0.3212
  446MOL0     H60195   8.805   8.799   8.169 -0.7287 -1.2882 -0.9970
  446MOL0     H60196   8.395   8.694   8.266 -0.0509 -1.7069  0.0365
  446MOL0     H60197   8.227   8.532   8.252  0.3426  1.5447  1.0336
  446MOL0     H60198   7.934   8.360   7.965  2.7582 -2.0671 -2.1706
  446MOL0     H60199   8.062   8.411   7.861  2.0916 -0.0556  1.6987
  446MOL0     H60200   7.910   8.652   7.887  1.0320  0.1338 -1.8614
  446MOL0     H60201   7.788   8.520   7.896 -0.2847  1.3723  0.9113
  446MOL0     H60202   7.998   8.551   7.674 -0.5759  1.2030 -2.2993
  446MOL0     H60203   7.850   8.640   7.685  0.0534  0.2143  0.7690
  446MOL0     H60204   7.723   8.452   7.654  1.1080  2.4140 -0.3965
  446MOL0     H60205   7.868   8.426   7.539  0.0307  0.4438 -0.3879
  446MOL0     H60206   7.856   8.094   7.808  0.4872 -1.3138 -1.8753
  446MOL0     H60207   8.144   8.641   7.852  0.9778  3.5477 -1.4749
  446MOL0     H60208   8.409   8.830   7.762 -0.5088  1.4989 -1.4024
  446MOL0     H60209   8.230   8.817   7.756  0.2118 -0.3898 -0.2197
  446MOL0     H60210   8.306   8.942   7.859 -0.5771  0.7374 -1.5494
  447MOL0     O60211   4.391   0.221  10.156  0.2040 -0.1782 -0.1212
  447MOL0     C60212   4.388   0.347  10.146  0.2286 -0.2993 -0.2492
  447MOL0     O60213   4.500   0.420  10.192  0.5269 -1.1631 -0.0772
  447MOL0     C60214   4.583   0.373  10.287 -1.0048 -0.0515  0.8169
  447MOL0     C60215   4.717   0.413  10.273 -1.4267  0.4937 -0.0808
  447MOL0     C60216   4.814   0.370  10.363 -1.2109 -0.2548  0.0503
  447MOL0     C60217   4.780   0.291  10.478  1.4443  0.3009  0.0957
  447MOL0     O60218   4.884   0.242  10.554 -0.1276 -0.5536  0.0057
  447MOL0     C60219   4.874   0.100  10.583  0.7961  0.5706  0.3238
  447MOL0     C60220   4.931   0.077  10.713 -0.1642 -0.7698 -0.2868
  447MOL0     C60221   4.925  -0.063  10.751  0.0499  0.1009 -0.2023
  447MOL0     C60222   4.947  -0.079  10.908  0.2090  0.3105 -0.5326
  447MOL0     C60223   4.820  -0.120  10.975 -0.2776 -0.3669  0.0850
  447MOL0     C60224   4.795  -0.112  11.126  0.6152  0.0320  0.1401
  447MOL0     C60225   4.877  -0.211  11.211  1.5302 -0.5611 -0.6084
  447MOL0     C60226   4.824  -0.233  11.357 -0.0484 -0.0547 -0.4225
  447MOL0     N60227   4.689  -0.293  11.345 -0.0704 -0.4268  0.3103
  447MOL0     C60228   4.648  -0.382  11.246  0.1431 -0.1177 -0.1027
  447MOL0     C60229   4.519  -0.397  11.259 -0.0928  0.7440  0.1459
  447MOL0     C60230   4.423  -0.473  11.162 -0.1724  0.1490 -0.7577
  447MOL0     C60231   4.422  -0.381  11.034 -0.1187  0.6291 -0.5831
  447MOL0     C60232   4.313  -0.419  10.934  0.1744  0.5258  0.4344
  447MOL0     C60233   4.183  -0.339  10.977 -0.1042  0.3456  1.2270
  447MOL0     O60234   4.100  -0.338  10.860 -1.0741 -0.3260 -0.8559
  447MOL0     C60235   3.999  -0.246  10.852  0.2101  0.1297 -0.9284
  447MOL0     C60236   3.928  -0.242  10.737 -0.5602 -0.0242  0.5380
  447MOL0     C60237   3.820  -0.154  10.707 -0.1331 -0.6694  0.1333
  447MOL0     C60238   3.781  -0.065  10.810 -0.3148 -0.7997  0.1369
  447MOL0     C60239   3.661   0.009  10.802 -0.2377 -0.3282 -0.2032
  447MOL0     O60240   3.608   0.066  10.910  0.2921  0.0909 -0.6341
  447MOL0     C60241   3.503   0.144  10.893  0.1854  0.0972 -0.6935
  447MOL0     C60242   3.504   0.283  10.887  0.2809 -0.0344  0.1768
  447MOL0     C60243   3.382   0.353  10.869  0.0350  0.3863  0.4181
  447MOL0     C60244   3.261   0.289  10.886  0.3543 -0.2546  0.4112
  447MOL0     O60245   3.145   0.348  10.884  0.0243  0.1355 -0.4780
  447MOL0     C60246   3.069   0.311  10.768 -0.6928  0.3453  1.4046
  447MOL0     C60247   2.956   0.412  10.770  0.2911  0.4019 -0.3226
  447MOL0     C60248   2.987   0.539  10.698 -0.6082  0.3826  0.4641
  447MOL0     C60249   2.879   0.643  10.683  0.0984 -0.8581 -0.3162
  447MOL0     C60250   2.937   0.780  10.633  0.6242 -0.0152 -0.0116
  447MOL0     C60251   2.842   0.891  10.670 -0.1995  0.3119  1.0450
  447MOL0     C60252   2.889   1.030  10.612  0.1154 -0.1979 -0.1755
  447MOL0     C60253   3.030   1.079  10.649 -0.7920  0.2661  0.3508
  447MOL0    Cl60254   3.047   1.116  10.829  0.2801  0.3201  0.0315
  447MOL0     C60255   3.262   0.148  10.898  0.0259  0.0849 -1.0721
  447MOL0     C60256   3.381   0.079  10.899  1.7810  0.4523 -0.3348
  447MOL0     O60257   3.614   0.024  10.686  0.1452  0.3124  0.8526
  447MOL0     C60258   3.839  -0.077  10.932  0.1242  0.2537 -1.0633
  447MOL0     C60259   3.943  -0.165  10.956 -0.1825  0.6221 -0.0271
  447MOL0     N60260   4.478  -0.321  11.368 -0.2795 -0.4457 -0.3571
  447MOL0     N60261   4.582  -0.251  11.417  0.4251  0.4372  0.1564
  447MOL0     C60262   4.642   0.261  10.490  0.6484 -0.4512  0.0962
  447MOL0     C60263   4.542   0.293  10.397 -0.0554 -0.5346  0.7991
  447MOL0     C60264   4.283   0.406  10.059  0.3974 -0.0034  0.0686
  447MOL0     C60265   4.170   0.327  10.027 -0.1142 -0.8272 -0.6453
  447MOL0     C60266   4.054   0.380   9.960 -0.2474  0.4961  0.6370
  447MOL0     C60267   4.054   0.514   9.919 -0.2884  0.2755  0.0009
  447MOL0     O60268   3.962   0.580   9.834  0.3639 -0.2148 -0.2720
  447MOL0     C60269   3.846   0.497   9.799 -0.5760 -1.2218 -0.7476
  447MOL0     C60270   3.750   0.603   9.731  0.0202  0.5281  0.7084
  447MOL0     C60271   3.629   0.538   9.671  0.2253 -0.0023  0.4981
  447MOL0     C60272   3.644   0.410   9.577 -0.5644  0.1912  0.0688
  447MOL0     C60273   3.715   0.450   9.457 -0.4753 -0.2589 -0.1749
  447MOL0     C60274   3.793   0.484   9.366  0.9404 -0.5075 -0.7247
  447MOL0     C60275   4.167   0.590   9.948  0.5391  0.1849  0.4517
  447MOL0     C60276   4.278   0.542  10.021 -0.4272 -0.7943  0.2946
  447MOL0     C60277   4.383   0.640  10.050 -0.9407 -0.4014 -0.4151
  447MOL0     H60278   4.749   0.469  10.185 -1.0482  0.1388 -0.1719
  447MOL0     H60279   4.918   0.401  10.353 -1.5979  1.9720  2.1422
  447MOL0     H60280   4.775   0.054  10.578  1.7219 -1.8039  1.8459
  447MOL0     H60281   4.935   0.043  10.512 -0.0173 -0.0820  0.1311
  447MOL0     H60282   4.877   0.136  10.788 -2.9533 -3.7328  0.2246
  447MOL0     H60283   5.034   0.116  10.712 -0.7142  0.8424  1.2184
  447MOL0     H60284   5.003  -0.117  10.697 -1.9250 -2.5190 -0.6725
  447MOL0     H60285   4.830  -0.115  10.734 -0.8562  1.6191  0.0407
  447MOL0     H60286   5.008  -0.167  10.930  0.9779  1.7324  4.1630
  447MOL0     H60287   4.982   0.011  10.959  2.2418 -1.5713  1.6397
  447MOL0     H60288   4.741  -0.061  10.928 -1.1459 -1.5002  0.0882
  447MOL0     H60289   4.793  -0.222  10.946 -0.0942 -0.5133  0.4148
  447MOL0     H60290   4.814  -0.011  11.164  1.2140 -0.5331  1.4163
  447MOL0     H60291   4.690  -0.140  11.135  0.4931  0.4543  0.0719
  447MOL0     H60292   4.982  -0.180  11.210  1.1161  0.9028 -0.9102
  447MOL0     H60293   4.879  -0.310  11.165 -0.4195 -1.3973  0.9458
  447MOL0     H60294   4.879  -0.312  11.409  0.1533  0.6079  0.3907
  447MOL0     H60295   4.817  -0.135  11.406  1.6283 -0.1842  0.1605
  447MOL0     H60296   4.707  -0.420  11.164 -0.3512 -1.3725  0.1091
  447MOL0     H60297   4.476  -0.567  11.144  1.5975  0.6654  1.3293
  447MOL0     H60298   4.327  -0.490  11.211  1.7013  1.5677  4.0640
  447MOL0     H60299   4.414  -0.275  11.059 -0.1163  0.2790  1.0020
  447MOL0     H60300   4.512  -0.410  10.980 -0.9759 -1.4651 -0.9830
  447MOL0     H60301   4.303  -0.527  10.921  2.5566  0.3061 -0.0532
  447MOL0     H60302   4.344  -0.394  10.831 -3.2345 -1.2746 -1.1841
  447MOL0     H60303   4.212  -0.238  11.008  2.8654  0.1452 -0.5080
  447MOL0     H60304   4.129  -0.382  11.062 -0.5254 -0.8542  0.3699
  447MOL0     H60305   3.970  -0.306  10.660 -1.4034 -0.0508  0.0957
  447MOL0     H60306   3.774  -0.146  10.609 -0.4229 -3.4271 -0.0238
  447MOL0     H60307   3.603   0.325  10.901 -0.1125  0.3664  2.1279
  447MOL0     H60308   3.379   0.459  10.844 -1.4605 -0.1612 -2.0497
  447MOL0     H60309   3.124   0.305  10.674 -0.5434  2.1824  1.3372
  447MOL0     H60310   3.021   0.213  10.770 -1.2411  0.6088  1.8600
  447MOL0     H60311   2.867   0.364  10.729 -0.1770  0.8992  0.1024
  447MOL0     H60312   2.930   0.443  10.872 -0.2850  2.6111 -1.0929
  447MOL0     H60313   3.071   0.584  10.752 -1.7468  0.6577  2.0760
  447MOL0     H60314   3.021   0.514  10.597  1.5188 -1.3591  1.5340
  447MOL0     H60315   2.845   0.656  10.786  0.2154 -1.6500 -0.1756
  447MOL0     H60316   2.797   0.615  10.617 -3.4536  4.2826  1.2574
  447MOL0     H60317   2.949   0.776  10.524  0.9870 -0.7612  0.0425
  447MOL0     H60318   3.038   0.803  10.668  1.2090 -0.1634 -1.5097
  447MOL0     H60319   2.744   0.872  10.626  0.3528  1.8658 -0.9604
  447MOL0     H60320   2.829   0.880  10.779  3.5242 -2.0831  1.4534
  447MOL0     H60321   2.818   1.112  10.626 -0.0201  0.2527 -3.0591
  447MOL0     H60322   2.894   1.023  10.503 -0.3390 -0.5306 -0.1777
  447MOL0     H60323   3.116   1.021  10.614 -0.8065  1.6489 -2.2176
  447MOL0     H60324   3.042   1.175  10.598  0.8269  1.0022  1.9911
  447MOL0     H60325   3.175   0.085  10.882 -0.4405 -0.6014  2.9974
  447MOL0     H60326   3.381  -0.029  10.913  1.2432  0.5821  0.7120
  447MOL0     H60327   3.801  -0.028  11.021 -0.6201 -0.0308 -1.2196
  447MOL0     H60328   3.985  -0.167  11.056 -2.3286  1.1345  0.9342
  447MOL0     H60329   4.612   0.200  10.575 -2.4328  0.6822 -0.0747
  447MOL0     H60330   4.439   0.261  10.409 -0.7413  0.9950 -0.6796
  447MOL0     H60331   4.163   0.224  10.061  0.1667  0.6498  4.8629
  447MOL0     H60332   3.964   0.323   9.941 -2.3696  3.6309  0.4370
  447MOL0     H60333   3.805   0.446   9.887 -0.2202  0.2464  0.2984
  447MOL0     H60334   3.894   0.429   9.728  2.4762  1.2035 -1.2171
  447MOL0     H60335   3.796   0.667   9.655 -2.5354  2.4418  0.6408
  447MOL0     H60336   3.710   0.664   9.813  1.7426 -0.3909  2.3404
  447MOL0     H60337   3.586   0.625   9.621  2.6439 -0.5977 -2.9943
  447MOL0     H60338   3.560   0.505   9.749  0.9383 -0.8716  0.7829
  447MOL0     H60339   3.702   0.337   9.635  1.7134  2.1419  0.3801
  447MOL0     H60340   3.548   0.368   9.544 -0.7054 -0.1481  0.8870
  447MOL0     H60341   3.849   0.520   9.282 -0.6877  4.7886  0.0553
  447MOL0     H60342   4.153   0.690   9.910 -0.3211 -0.6857 -1.6797
  447MOL0     H60343   4.474   0.595  10.009 -1.4446 -0.7979 -1.1319
  447MOL0     H60344   4.366   0.738  10.004  0.4218 -0.0948 -0.2938
  447MOL0     H60345   4.413   0.654  10.154  2.3986  2.5156 -1.5530
  448MOL0     O60346   7.817   5.527   8.681  0.2151 -0.3683  0.3820
  448MOL0     C60347   7.866   5.483   8.778 -0.0550  0.8371 -0.0540
  448MOL0     O60348   7.974   5.545   8.842 -0.5631 -0.2558  0.3022
  448MOL0     C60349   8.010   5.676   8.810  0.2308  0.4247  0.3340
  448MOL0     C60350   8.149   5.689   8.812 -0.7181  0.6700 -0.3305
  448MOL0     C60351   8.201   5.819   8.791 -0.2720  0.1067  0.1430
  448MOL0     C60352   8.120   5.916   8.738 -0.0565 -0.2043  0.0617
  448MOL0     O60353   8.177   6.037   8.707 -0.0261  0.3359 -0.0430
  448MOL0     C60354   8.198   6.046   8.564  0.6966  0.8960  0.7033
  448MOL0     C60355   8.130   6.174   8.514  0.4516 -0.9100 -0.0274
  448MOL0     C60356   8.191   6.303   8.570 -1.6182  0.1732 -0.3766
  448MOL0     C60357   8.137   6.427   8.513  0.7284 -0.0834 -0.1060
  448MOL0     C60358   8.220   6.548   8.544 -0.8002  0.0443 -0.5160
  448MOL0     C60359   8.226   6.596   8.701 -0.1712 -0.8701 -0.4480
  448MOL0     C60360   8.352   6.673   8.745 -0.3004 -0.1012 -0.3928
  448MOL0     C60361   8.349   6.723   8.884  0.6685 -0.4637 -0.3572
  448MOL0     N60362   8.366   6.625   8.997  0.7890 -0.6190  0.2806
  448MOL0     C60363   8.268   6.576   9.083 -0.6983  1.4195 -0.1024
  448MOL0     C60364   8.343   6.532   9.187  0.5685 -0.2270  0.8977
  448MOL0     C60365   8.267   6.470   9.304 -0.0922  0.0340 -0.4965
  448MOL0     C60366   8.351   6.478   9.433  0.8027  0.4722 -0.9553
  448MOL0     C60367   8.374   6.624   9.471 -0.3896 -0.2003 -0.3150
  448MOL0     C60368   8.427   6.650   9.611  0.0749  0.5331 -0.0944
  448MOL0     O60369   8.543   6.576   9.637 -0.5713 -0.1953  0.8520
  448MOL0     C60370   8.586   6.533   9.763  0.4873 -1.0660 -0.4097
  448MOL0     C60371   8.551   6.588   9.881  0.5830 -0.9197 -0.6914
  448MOL0     C60372   8.610   6.548  10.003 -0.9094 -0.7040  0.2528
  448MOL0     C60373   8.707   6.450  10.010  0.6401 -1.0064  1.1125
  448MOL0     C60374   8.758   6.403  10.143 -0.3947 -0.0908  0.4880
  448MOL0     O60375   8.798   6.267  10.148 -0.0520  0.1171  0.1236
  448MOL0     C60376   8.854   6.222  10.262 -0.4777  0.6142 -0.7389
  448MOL0     C60377   8.779   6.150  10.359  0.4512  0.7410 -0.1554
  448MOL0     C60378   8.834   6.114  10.474  0.0689 -0.7039  0.6380
  448MOL0     C60379   8.971   6.135  10.505 -0.1163 -0.0910  0.0437
  448MOL0     O60380   9.020   6.087  10.624  0.4318 -1.0062  0.2848
  448MOL0     C60381   8.973   6.169  10.731  0.0732  0.5752 -0.9550
  448MOL0     C60382   8.951   6.091  10.864 -0.4632 -0.2433 -0.3322
  448MOL0     C60383   9.074   6.008  10.908 -1.1137  0.4557 -0.0644
  448MOL0     C60384   9.092   6.004  11.062  1.3858 -0.9446 -0.8605
  448MOL0     C60385   9.241   5.965  11.102  0.8072  0.1400  0.2948
  448MOL0     C60386   9.248   5.944  11.249  0.0784 -0.5582 -0.6239
  448MOL0     C60387   9.391   5.950  11.309 -0.3300 -0.3597 -0.6883
  448MOL0     C60388   9.401   5.855  11.428  0.8975  0.9454  0.5116
  448MOL0    Cl60389   9.345   5.922  11.586  0.3054 -0.5652 -0.4952
  448MOL0     C60390   9.054   6.191  10.404  0.0887  1.0079  0.6237
  448MOL0     C60391   8.999   6.232  10.279  0.4981  0.0070  0.5122
  448MOL0     O60392   8.777   6.484  10.235 -0.8013  0.4869 -0.1916
  448MOL0     C60393   8.737   6.393   9.887  0.1872  0.0834 -0.3742
  448MOL0     C60394   8.678   6.423   9.767 -0.6957 -0.3262 -0.0149
  448MOL0     N60395   8.473   6.545   9.160  0.3669  0.2393 -0.3469
  448MOL0     N60396   8.487   6.603   9.048  0.0516 -0.9905  0.4503
  448MOL0     C60397   7.979   5.906   8.731  0.0674  0.7023 -0.0956
  448MOL0     C60398   7.930   5.779   8.764 -0.0923  0.1707  0.4928
  448MOL0     C60399   7.823   5.348   8.817  0.4505 -0.0547 -0.6447
  448MOL0     C60400   7.748   5.270   8.729  0.9587  0.1704  0.9061
  448MOL0     C60401   7.700   5.141   8.752  0.5087 -0.2589 -0.0234
  448MOL0     C60402   7.719   5.079   8.881  0.3862 -0.3275 -0.3206
  448MOL0     O60403   7.676   4.950   8.916 -0.0655 -0.6452 -0.4441
  448MOL0     C60404   7.600   4.869   8.820  0.2122  0.7391 -1.0420
  448MOL0     C60405   7.577   4.730   8.871  0.2869 -0.0652 -0.1261
  448MOL0     C60406   7.502   4.655   8.755  0.4753 -0.0290  0.3151
  448MOL0     C60407   7.421   4.530   8.806  0.9568 -0.5949 -0.0050
  448MOL0     C60408   7.503   4.451   8.892 -0.5994  0.2607 -0.4448
  448MOL0     C60409   7.592   4.385   8.953  0.3030 -0.2618  0.4963
  448MOL0     C60410   7.783   5.156   8.977 -0.1311 -0.6151  0.8038
  448MOL0     C60411   7.843   5.279   8.943  0.4110  0.4896 -0.3042
  448MOL0     C60412   7.918   5.348   9.040 -1.1184  0.1157 -0.2371
  448MOL0     H60413   8.223   5.612   8.834  0.0121  1.1606 -1.0453
  448MOL0     H60414   8.307   5.823   8.811  0.0241 -2.7796 -0.4957
  448MOL0     H60415   8.301   6.015   8.545  0.2282 -3.1487  3.5527
  448MOL0     H60416   8.149   5.958   8.522  2.8649 -0.6450  1.2592
  448MOL0     H60417   8.023   6.174   8.536 -0.1621  3.8103 -1.8665
  448MOL0     H60418   8.145   6.183   8.406 -0.9134  4.2178 -0.0494
  448MOL0     H60419   8.299   6.304   8.550 -1.6913  2.7227 -0.9553
  448MOL0     H60420   8.185   6.296   8.679  1.6364  2.6160  0.1108
  448MOL0     H60421   8.121   6.426   8.405 -0.1511 -1.4454  0.0100
  448MOL0     H60422   8.038   6.440   8.560 -0.4072  1.4141 -2.7242
  448MOL0     H60423   8.324   6.534   8.514  0.6203 -0.7005  3.9611
  448MOL0     H60424   8.169   6.628   8.489  2.7724  2.0785 -1.1422
  448MOL0     H60425   8.145   6.663   8.732  1.2884  0.3000  1.0444
  448MOL0     H60426   8.214   6.508   8.765  0.7912 -0.9621 -0.3681
  448MOL0     H60427   8.368   6.762   8.685  1.6604  1.9427  2.8218
  448MOL0     H60428   8.442   6.611   8.739  1.0711  1.4459  2.3579
  448MOL0     H60429   8.438   6.786   8.877 -1.3400  2.6690  0.3846
  448MOL0     H60430   8.261   6.787   8.891  1.6966  0.8201  1.7295
  448MOL0     H60431   8.162   6.573   9.061 -0.6711  0.3084 -0.1241
  448MOL0     H60432   8.173   6.523   9.321 -1.3472 -1.5467 -2.0817
  448MOL0     H60433   8.237   6.366   9.288 -1.1566  0.4988 -1.6773
  448MOL0     H60434   8.299   6.421   9.510  1.3791 -0.7529 -1.4465
  448MOL0     H60435   8.456   6.446   9.429  0.9670  1.1052 -2.6166
  448MOL0     H60436   8.275   6.672   9.475  1.2485  3.5728  3.8120
  448MOL0     H60437   8.438   6.678   9.401  2.4879 -0.0062  2.2374
  448MOL0     H60438   8.354   6.606   9.680 -0.0997 -1.7856 -1.6643
  448MOL0     H60439   8.454   6.752   9.639  2.2218 -0.1263  0.3909
  448MOL0     H60440   8.476   6.666   9.879  2.1614  0.6636 -0.9075
  448MOL0     H60441   8.605   6.609  10.092  4.4552 -0.1069  0.4738
  448MOL0     H60442   8.672   6.134  10.357 -0.0271  3.5039  0.2749
  448MOL0     H60443   8.780   6.061  10.552  1.9235 -0.5849  2.0700
  448MOL0     H60444   9.048   6.248  10.744 -0.8073  1.0603  1.5923
  448MOL0     H60445   8.875   6.216  10.720  0.0038  0.5704 -0.3563
  448MOL0     H60446   8.916   6.160  10.942  1.5617 -1.4044  1.7383
  448MOL0     H60447   8.876   6.013  10.853 -1.0159 -0.0895  1.8248
  448MOL0     H60448   9.045   5.908  10.873  0.2201  0.5269 -1.4824
  448MOL0     H60449   9.162   6.044  10.855 -2.1496  1.8531 -0.9047
  448MOL0     H60450   9.012   5.939  11.098 -0.8723  2.8149  1.5395
  448MOL0     H60451   9.058   6.100  11.101 -1.1228 -2.9562  2.4491
  448MOL0     H60452   9.311   6.045  11.075  0.1626  1.6327  2.7152
  448MOL0     H60453   9.263   5.872  11.049 -2.1217 -0.1157 -0.6410
  448MOL0     H60454   9.176   6.016  11.288 -0.4293 -0.8731 -0.9702
  448MOL0     H60455   9.205   5.844  11.262 -0.1454 -0.4278 -0.3649
  448MOL0     H60456   9.423   6.051  11.338  0.7097 -0.2491 -2.0983
  448MOL0     H60457   9.464   5.908  11.240  3.2001  1.6443  1.4580
  448MOL0     H60458   9.338   5.767  11.414  0.9186  0.7169  1.7589
  448MOL0     H60459   9.504   5.823  11.446  0.4387 -0.5763  0.5849
  448MOL0     H60460   9.160   6.207  10.421  0.7154 -1.3779 -0.6467
  448MOL0     H60461   9.061   6.295  10.216  1.3922  1.7162  2.9703
  448MOL0     H60462   8.801   6.306   9.888  0.3519  0.1833  1.7055
  448MOL0     H60463   8.707   6.366   9.679  2.8617  0.5267  0.4463
  448MOL0     H60464   7.919   5.979   8.679  0.5698 -0.3537 -2.2806
  448MOL0     H60465   7.822   5.775   8.770 -0.0064 -0.4803  2.0758
  448MOL0     H60466   7.719   5.319   8.636 -2.3141 -1.6270  0.8213
  448MOL0     H60467   7.673   5.086   8.663  0.6118 -1.4883  0.6736
  448MOL0     H60468   7.664   4.845   8.734 -0.4140 -0.0648 -1.2931
  448MOL0     H60469   7.510   4.920   8.785 -0.1458  0.7920 -0.0618
  448MOL0     H60470   7.507   4.737   8.956 -0.6330  1.9882 -0.9964
  448MOL0     H60471   7.668   4.675   8.894 -0.0331 -0.6042 -0.1239
  448MOL0     H60472   7.581   4.620   8.689  0.8502 -0.0968  0.7972
  448MOL0     H60473   7.446   4.735   8.705  0.9113 -0.2651 -0.5778
  448MOL0     H60474   7.327   4.547   8.860 -0.4822 -2.6123 -1.7389
  448MOL0     H60475   7.390   4.470   8.720 -2.3873  0.9843 -0.0297
  448MOL0     H60476   7.668   4.330   9.005 -1.9839 -1.9379  2.2328
  448MOL0     H60477   7.782   5.108   9.074 -1.4038 -1.7470  0.2657
  448MOL0     H60478   8.020   5.331   9.006 -0.1332 -2.1132  3.4277
  448MOL0     H60479   7.885   5.452   9.049  0.9879  0.6949  1.4084
  448MOL0     H60480   7.919   5.296   9.136  0.0227  0.3945 -0.0818
  449MOL0     O60481   1.736  10.734  11.276 -0.3727 -0.1110 -0.2681
  449MOL0     C60482   1.788  10.797  11.369  0.2841  0.3532  0.2440
  449MOL0     O60483   1.722  10.888  11.449  0.9798  0.2903 -0.4969
  449MOL0     C60484   1.624  10.961  11.394 -0.0241 -0.9739 -0.9613
  449MOL0     C60485   1.661  11.083  11.351 -0.0867  0.3855  0.8303
  449MOL0     C60486   1.556  11.176  11.309  0.3300 -0.6751 -0.1879
  449MOL0     C60487   1.423  11.136  11.315  0.0383  0.4325 -0.3980
  449MOL0     O60488   1.312  11.211  11.271 -0.8761 -0.2297 -0.2457
  449MOL0     C60489   1.341  11.339  11.209  1.0846  0.6989  0.4400
  449MOL0     C60490   1.210  11.409  11.174 -0.5758 -0.0428 -0.5114
  449MOL0     C60491   1.101  11.308  11.123  0.0027  0.0352 -0.0311
  449MOL0     C60492   0.974  11.385  11.091  0.7522 -1.0567 -0.4478
  449MOL0     C60493   0.888  11.316  10.991  0.4716 -0.5458  0.1277
  449MOL0     C60494   0.812  11.190  11.047  0.8085  0.6819  0.4576
  449MOL0     C60495   0.741  11.206  11.181  0.0979 -0.1676  0.0421
  449MOL0     C60496   0.626  11.313  11.168 -0.3678  0.1698 -0.5900
  449MOL0     N60497   0.500  11.271  11.105  0.1076  0.5082  0.1599
  449MOL0     C60498   0.397  11.356  11.120  0.2272  0.7051  0.4655
  449MOL0     C60499   0.289  11.290  11.065 -0.7879 -0.5488 -0.6046
  449MOL0     C60500   0.151  11.350  11.068 -0.1096  0.2186  0.4820
  449MOL0     C60501   0.063  11.268  11.165 -0.0485 -0.9020 -0.9515
  449MOL0     C60502  -0.085  11.306  11.160  0.4784  0.2692 -1.0381
  449MOL0     C60503  -0.171  11.254  11.041  0.3890  0.1386  0.7645
  449MOL0     O60504  -0.278  11.347  11.023 -0.0989  0.2043  0.0135
  449MOL0     C60505  -0.398  11.301  10.960 -0.3660  0.0097  0.0713
  449MOL0     C60506  -0.494  11.401  10.936 -0.1845 -0.5887 -0.7583
  449MOL0     C60507  -0.624  11.371  10.886 -0.3575 -0.8505  0.3034
  449MOL0     C60508  -0.666  11.238  10.870  0.4245 -0.4466  1.3365
  449MOL0     C60509  -0.798  11.199  10.826  0.9009 -0.1015 -0.0502
  449MOL0     O60510  -0.861  11.293  10.750  0.1306 -0.6413  0.3808
  449MOL0     C60511  -0.983  11.268  10.690  0.0457 -0.4095 -0.3312
  449MOL0     C60512  -0.997  11.322  10.561  0.0286 -0.0485  0.5183
  449MOL0     C60513  -1.116  11.294  10.477  0.6320 -1.0294  0.3765
  449MOL0     C60514  -1.231  11.243  10.540 -0.3255  0.4649 -0.3430
  449MOL0     O60515  -1.345  11.238  10.469  0.1476 -0.8034 -0.2177
  449MOL0     C60516  -1.450  11.158  10.519 -0.6417 -0.8352 -0.6184
  449MOL0     C60517  -1.550  11.127  10.411 -0.3655  0.2246 -0.1589
  449MOL0     C60518  -1.630  11.241  10.367 -1.3720  0.2667  0.4267
  449MOL0     C60519  -1.721  11.221  10.238 -0.0625 -0.3391 -0.8115
  449MOL0     C60520  -1.817  11.342  10.223  0.0918  0.9827  0.2589
  449MOL0     C60521  -1.905  11.308  10.108 -0.6432  0.1314  0.0303
  449MOL0     C60522  -1.984  11.433  10.075  0.4834 -0.3834  0.4119
  449MOL0     C60523  -2.082  11.477  10.184 -0.0724  0.3546 -0.0672
  449MOL0    Cl60524  -2.190  11.584  10.111  0.1728  0.2927 -0.0841
  449MOL0     C60525  -1.219  11.202  10.680  0.5393 -0.5787  1.6908
  449MOL0     C60526  -1.096  11.198  10.749  0.1230 -0.1758  0.4158
  449MOL0     O60527  -0.846  11.096  10.855 -0.5057  1.1726  0.0259
  449MOL0     C60528  -0.564  11.141  10.886  0.0091 -0.4529  0.0153
  449MOL0     C60529  -0.433  11.167  10.925 -0.5587 -0.1234  0.1726
  449MOL0     N60530   0.328  11.155  11.045  0.5338  0.2840 -0.3204
  449MOL0     N60531   0.461  11.148  11.062  0.3623 -1.4524  0.0440
  449MOL0     C60532   1.392  11.012  11.369  0.4776 -0.2775  0.0646
  449MOL0     C60533   1.494  10.931  11.417  1.2001  0.9797  1.0843
  449MOL0     C60534   1.918  10.759  11.413 -0.6775 -0.0898 -0.0920
  449MOL0     C60535   1.988  10.851  11.490 -1.4057  0.1798  0.1571
  449MOL0     C60536   2.121  10.824  11.538 -0.5651  0.6326 -0.1158
  449MOL0     C60537   2.186  10.713  11.485 -0.5433 -0.3615 -0.7082
  449MOL0     O60538   2.307  10.672  11.530 -0.3418  0.1269  0.0851
  449MOL0     C60539   2.419  10.764  11.532  1.0377 -1.0435 -0.4712
  449MOL0     C60540   2.545  10.668  11.552 -0.4912  0.2570 -0.3062
  449MOL0     C60541   2.575  10.628  11.702 -0.0298  0.2214  0.3253
  449MOL0     C60542   2.634  10.753  11.778 -0.3597 -0.1759  0.2531
  449MOL0     C60543   2.764  10.795  11.741  0.4191 -0.9112 -0.0692
  449MOL0     C60544   2.880  10.828  11.722  0.4307  0.4882 -0.0260
  449MOL0     C60545   2.118  10.623  11.401  0.0045  0.4980 -0.2107
  449MOL0     C60546   1.979  10.632  11.378 -0.1414 -0.1102  0.1157
  449MOL0     C60547   1.925  10.518  11.286 -0.2352  0.2609 -0.3026
  449MOL0     H60548   1.763  11.119  11.350  0.1130 -0.1321  1.7140
  449MOL0     H60549   1.571  11.276  11.269 -2.0774 -0.1777  0.0174
  449MOL0     H60550   1.401  11.403  11.275  0.3900  1.0592  0.7323
  449MOL0     H60551   1.396  11.332  11.116 -0.4662  1.7891 -0.6098
  449MOL0     H60552   1.240  11.466  11.085 -0.3063 -0.6261 -0.8022
  449MOL0     H60553   1.198  11.485  11.251  2.6748 -0.4893  0.6070
  449MOL0     H60554   1.064  11.242  11.202 -0.3159  0.6075  0.3017
  449MOL0     H60555   1.146  11.264  11.034  0.2957  0.3573 -0.0460
  449MOL0     H60556   0.923  11.410  11.184  0.4348  1.8632 -1.3128
  449MOL0     H60557   0.993  11.485  11.051  3.1111 -0.5190  1.7251
  449MOL0     H60558   0.808  11.378  10.949 -0.2909 -0.5573  1.5013
  449MOL0     H60559   0.947  11.291  10.903 -1.5986  1.4215 -1.9738
  449MOL0     H60560   0.745  11.152  10.970  2.7795  0.3808 -1.1919
  449MOL0     H60561   0.880  11.107  11.067  1.0713  0.8399  0.2204
  449MOL0     H60562   0.810  11.237  11.261 -1.2813 -1.4189  1.8132
  449MOL0     H60563   0.689  11.117  11.219  1.6953 -1.1904 -0.0449
  449MOL0     H60564   0.581  11.338  11.264 -1.3779 -0.3641 -0.9093
  449MOL0     H60565   0.664  11.402  11.116  0.4045 -0.8476 -1.8156
  449MOL0     H60566   0.386  11.461  11.145  0.2558  1.0970 -1.0449
  449MOL0     H60567   0.152  11.450  11.111 -0.1992  0.1398  0.6725
  449MOL0     H60568   0.110  11.346  10.967  1.4172  2.5412 -0.2958
  449MOL0     H60569   0.072  11.159  11.159  1.8535 -0.8736  0.5526
  449MOL0     H60570   0.094  11.288  11.268 -1.6709 -0.7619 -0.4656
  449MOL0     H60571  -0.094  11.415  11.158 -2.2692  0.1446 -0.1042
  449MOL0     H60572  -0.132  11.267  11.251  1.2818 -4.6733 -2.4237
  449MOL0     H60573  -0.215  11.155  11.052 -2.1154  0.6530 -2.9024
  449MOL0     H60574  -0.109  11.241  10.952 -0.1262 -0.9165  0.5521
  449MOL0     H60575  -0.481  11.498  10.984 -2.8160 -0.6499  0.2865
  449MOL0     H60576  -0.697  11.450  10.866  1.6074  1.0366  0.2406
  449MOL0     H60577  -0.907  11.366  10.520 -0.5676  1.0044  0.3123
  449MOL0     H60578  -1.115  11.335  10.376  0.5750  0.0555  0.8059
  449MOL0     H60579  -1.421  11.056  10.546  0.4514 -0.8292 -1.6813
  449MOL0     H60580  -1.489  11.202  10.611  3.4653  0.7355  0.5974
  449MOL0     H60581  -1.493  11.094  10.323 -0.8699 -2.1839  0.3383
  449MOL0     H60582  -1.604  11.041  10.452 -0.9688  0.3257 -0.7236
  449MOL0     H60583  -1.694  11.290  10.442 -2.1059  0.0452 -0.0365
  449MOL0     H60584  -1.559  11.318  10.336 -1.2383  0.1016  0.3227
  449MOL0     H60585  -1.790  11.137  10.244 -3.3275  2.1613 -0.5213
  449MOL0     H60586  -1.659  11.229  10.148 -2.5301  1.7846 -2.4725
  449MOL0     H60587  -1.757  11.429  10.195  2.3371 -0.3675  0.5618
  449MOL0     H60588  -1.876  11.364  10.312  0.5566  0.1144  0.7964
  449MOL0     H60589  -1.847  11.280  10.019  0.6946  1.9280  0.2839
  449MOL0     H60590  -1.967  11.227  10.147  0.5869 -2.2394 -2.5614
  449MOL0     H60591  -2.043  11.434   9.983  2.9749  4.6165 -1.4639
  449MOL0     H60592  -1.912  11.512  10.053  0.4081 -0.1997  0.8229
  449MOL0     H60593  -2.146  11.398  10.225  0.1754  0.0567 -0.2457
  449MOL0     H60594  -2.040  11.539  10.263  0.9572 -1.9733  1.3141
  449MOL0     H60595  -1.296  11.148  10.734  2.8212 -1.2079  4.5991
  449MOL0     H60596  -1.077  11.180  10.855  1.9157  1.7004  0.4829
  449MOL0     H60597  -0.592  11.037  10.869  0.6418 -0.9852  2.0140
  449MOL0     H60598  -0.369  11.079  10.930  0.6869  0.7756  0.7564
  449MOL0     H60599   1.287  10.985  11.374 -0.4905  2.3161 -3.0548
  449MOL0     H60600   1.462  10.834  11.453 -0.9030  1.1426 -0.1654
  449MOL0     H60601   1.938  10.935  11.538  0.7307  1.2352  0.6311
  449MOL0     H60602   2.169  10.892  11.607  1.6263  0.1469 -1.0670
  449MOL0     H60603   2.408  10.843  11.607  3.0079 -0.6777 -0.5129
  449MOL0     H60604   2.432  10.808  11.433  0.0624 -1.0220 -0.6021
  449MOL0     H60605   2.629  10.720  11.504  0.5315 -0.8275  0.2638
  449MOL0     H60606   2.523  10.584  11.485 -0.9128  1.9015 -2.3549
  449MOL0     H60607   2.646  10.545  11.705 -1.0028 -0.7217 -1.0623
  449MOL0     H60608   2.484  10.594  11.752  1.1147  0.1906  2.5094
  449MOL0     H60609   2.573  10.844  11.785 -1.0070 -0.7077  2.5181
  449MOL0     H60610   2.640  10.715  11.881 -2.1897  0.2707  0.5528
  449MOL0     H60611   2.981  10.862  11.713  0.2616  0.4445 -3.3334
  449MOL0     H60612   2.170  10.537  11.362 -0.3855  0.6407 -1.0613
  449MOL0     H60613   1.987  10.518  11.196  0.9930  1.8744  0.4855
  449MOL0     H60614   1.943  10.423  11.336  3.1186  1.3540  0.8555
  449MOL0     H60615   1.823  10.533  11.250 -0.3241  1.0745  0.2634
  450MOL0     O60616   4.424   2.128   8.731  0.0448 -0.6793 -0.6433
  450MOL0     C60617   4.481   2.020   8.731 -0.1614  0.2967 -0.1886
  450MOL0     O60618   4.615   1.997   8.739 -0.1276  0.6772  0.5134
  450MOL0     C60619   4.701   2.100   8.771 -0.6479  0.7902  0.8876
  450MOL0     C60620   4.781   2.162   8.675  0.9211  0.4185 -0.9675
  450MOL0     C60621   4.878   2.257   8.707 -0.6731 -0.8339 -0.1883
  450MOL0     C60622   4.896   2.303   8.838 -0.8044  1.2674 -0.1362
  450MOL0     O60623   4.989   2.404   8.864 -0.0888 -0.9850 -0.2199
  450MOL0     C60624   4.998   2.462   8.992 -0.2924 -1.0415  0.1011
  450MOL0     C60625   5.139   2.526   8.988 -0.6453 -0.1742 -0.6457
  450MOL0     C60626   5.194   2.592   9.117 -0.0059  0.7200 -1.0256
  450MOL0     C60627   5.349   2.631   9.091  0.6848 -0.0998 -0.7026
  450MOL0     C60628   5.415   2.733   9.183  0.0967  0.2094  0.4841
  450MOL0     C60629   5.553   2.739   9.136 -0.0927 -0.4111 -0.0637
  450MOL0     C60630   5.624   2.843   9.225  0.2135  0.0860  0.8467
  450MOL0     C60631   5.751   2.911   9.160  0.0453  0.1825  0.6614
  450MOL0     N60632   5.857   2.937   9.254  0.2478 -0.2719 -0.1768
  450MOL0     C60633   5.989   2.883   9.266  0.2848  0.1625 -0.6710
  450MOL0     C60634   6.054   2.956   9.361 -0.0089  0.3703  0.5233
  450MOL0     C60635   6.189   2.922   9.410 -0.0513  0.0686  0.0969
  450MOL0     C60636   6.156   2.861   9.550 -0.3993  0.4121  0.6138
  450MOL0     C60637   6.274   2.794   9.631  0.5623 -0.1809  0.1857
  450MOL0     C60638   6.356   2.897   9.705  0.6896  0.6152  0.0265
  450MOL0     O60639   6.453   2.805   9.764 -0.0971 -0.3610  0.1223
  450MOL0     C60640   6.572   2.782   9.696  0.4022  0.4096 -0.0322
  450MOL0     C60641   6.632   2.654   9.726  0.5575 -0.1094 -0.7708
  450MOL0     C60642   6.752   2.614   9.676  0.1049 -0.3865 -0.8533
  450MOL0     C60643   6.823   2.708   9.597 -0.6160  0.4079  0.2936
  450MOL0     C60644   6.964   2.672   9.551 -0.1854  0.4312  1.4511
  450MOL0     O60645   7.020   2.559   9.599  0.5244 -0.0419  0.6364
  450MOL0     C60646   7.159   2.550   9.572 -0.1173  0.5240 -0.0594
  450MOL0     C60647   7.247   2.620   9.654  0.4959  0.1399 -0.1544
  450MOL0     C60648   7.383   2.608   9.630 -0.5467 -0.3796  0.2031
  450MOL0     C60649   7.436   2.536   9.519  0.1882 -0.0019  0.1681
  450MOL0     O60650   7.568   2.532   9.511  0.3767 -0.0237  0.1213
  450MOL0     C60651   7.626   2.430   9.415 -0.0837 -0.7348  0.1253
  450MOL0     C60652   7.771   2.464   9.407 -0.3782 -0.1146  0.7695
  450MOL0     C60653   7.841   2.366   9.316  0.9465  0.2194  0.2795
  450MOL0     C60654   7.982   2.418   9.282 -0.1672 -0.1632  0.0802
  450MOL0     C60655   8.061   2.297   9.239 -0.3680 -0.2651  0.1482
  450MOL0     C60656   8.208   2.336   9.207  0.2927 -0.3146 -0.1293
  450MOL0     C60657   8.302   2.224   9.186 -0.3218  0.4363  0.2808
  450MOL0     C60658   8.279   2.130   9.059  0.2208 -0.8199  0.7311
  450MOL0    Cl60659   8.292   2.236   8.910  0.2469  0.1426 -0.0625
  450MOL0     C60660   7.350   2.474   9.428  1.0174 -0.6565  0.5005
  450MOL0     C60661   7.206   2.486   9.457  0.8717  1.3868 -0.7987
  450MOL0     O60662   7.022   2.753   9.481  0.2496  0.1537  0.2750
  450MOL0     C60663   6.763   2.839   9.565 -0.0282 -0.1409  0.6481
  450MOL0     C60664   6.642   2.882   9.620 -0.7623 -0.4456  0.4259
  450MOL0     N60665   5.961   3.052   9.403  0.7972 -0.3303 -0.4914
  450MOL0     N60666   5.861   3.051   9.321 -0.4517 -0.2042 -0.6430
  450MOL0     C60667   4.820   2.241   8.935  1.0054 -0.8973  0.0805
  450MOL0     C60668   4.724   2.142   8.904  0.3717 -0.1852 -0.4673
  450MOL0     C60669   4.407   1.897   8.706  0.1512  0.5896  0.3452
  450MOL0     C60670   4.473   1.781   8.658  0.1560 -0.5391  0.4301
  450MOL0     C60671   4.405   1.660   8.623  0.6292  0.0235  0.9038
  450MOL0     C60672   4.265   1.647   8.633 -0.2078 -0.0869  0.5765
  450MOL0     O60673   4.201   1.541   8.589 -0.2511  0.2565 -0.7659
  450MOL0     C60674   4.252   1.489   8.467  0.4690  0.3144  0.7317
  450MOL0     C60675   4.151   1.384   8.405 -0.3081  0.1993 -0.0655
  450MOL0     C60676   4.029   1.457   8.343 -0.1090  0.1090  0.2438
  450MOL0     C60677   3.939   1.506   8.449 -0.1556  0.1299  1.9953
  450MOL0     C60678   3.799   1.495   8.398  0.4778  0.2456 -0.6492
  450MOL0     C60679   3.686   1.481   8.355 -0.2756  0.1096  1.1071
  450MOL0     C60680   4.198   1.757   8.695 -0.0497 -1.3005  1.4008
  450MOL0     C60681   4.265   1.879   8.728  0.3997  0.4813  0.0148
  450MOL0     C60682   4.179   1.989   8.784 -0.4749  0.3353  0.3175
  450MOL0     H60683   4.770   2.136   8.571 -1.5703 -4.1164  0.1386
  450MOL0     H60684   4.936   2.317   8.638  1.0237 -0.4314  1.5103
  450MOL0     H60685   4.922   2.537   9.014 -0.9039 -0.2675 -3.9960
  450MOL0     H60686   5.024   2.387   9.068 -0.9483 -0.0129  1.3753
  450MOL0     H60687   5.133   2.596   8.905 -0.4510 -0.1176 -0.6134
  450MOL0     H60688   5.211   2.449   8.956  3.2606  2.1890  1.6103
  450MOL0     H60689   5.191   2.515   9.195  1.9467 -0.3996 -1.9680
  450MOL0     H60690   5.138   2.680   9.148  1.4317  0.4825  2.9199
  450MOL0     H60691   5.408   2.540   9.088  1.2885  0.3065 -1.4876
  450MOL0     H60692   5.354   2.671   8.989  3.3797 -2.9179 -1.8353
  450MOL0     H60693   5.361   2.828   9.173  1.2028  0.6953 -1.1758
  450MOL0     H60694   5.413   2.702   9.288  2.8892  0.4980  0.6914
  450MOL0     H60695   5.596   2.642   9.160 -1.2693 -0.8545  0.3188
  450MOL0     H60696   5.540   2.768   9.031  0.7858 -0.1099 -0.0986
  450MOL0     H60697   5.651   2.792   9.318  1.1780 -0.0689  0.4928
  450MOL0     H60698   5.562   2.927   9.256 -0.0490 -0.6390  2.3700
  450MOL0     H60699   5.785   2.842   9.082 -1.6244  1.4913 -1.3445
  450MOL0     H60700   5.738   3.007   9.109  2.0144 -0.6301 -1.5613
  450MOL0     H60701   6.040   2.801   9.218  3.0595  1.1631  0.3310
  450MOL0     H60702   6.235   2.840   9.355 -0.2094  1.0248 -1.5353
  450MOL0     H60703   6.253   3.007   9.435 -0.6358 -0.3421  3.4247
  450MOL0     H60704   6.102   2.939   9.605 -1.8073 -1.1606  1.5408
  450MOL0     H60705   6.080   2.783   9.542  0.9585 -1.0606  1.5988
  450MOL0     H60706   6.337   2.736   9.563 -0.8428 -1.7986  0.1882
  450MOL0     H60707   6.234   2.722   9.702  2.2681  0.5848  2.0161
  450MOL0     H60708   6.299   2.954   9.779  1.1194  1.4590 -0.2736
  450MOL0     H60709   6.393   2.970   9.632 -2.3179  3.7983  1.3752
  450MOL0     H60710   6.594   2.588   9.803  2.3402 -1.8290 -1.2772
  450MOL0     H60711   6.797   2.517   9.693  0.2823 -0.7936 -3.2540
  450MOL0     H60712   7.232   2.666   9.751  3.4412 -5.1244  3.3066
  450MOL0     H60713   7.454   2.661   9.693 -0.9556  0.9717 -0.4346
  450MOL0     H60714   7.609   2.331   9.459  2.6635 -0.4126  2.1879
  450MOL0     H60715   7.585   2.437   9.314  0.1616  0.6128  0.1013
  450MOL0     H60716   7.791   2.560   9.358 -1.1606 -1.8178 -3.3178
  450MOL0     H60717   7.820   2.438   9.501 -2.9811 -0.9039  2.0171
  450MOL0     H60718   7.841   2.270   9.367 -2.3227  0.0083  0.0975
  450MOL0     H60719   7.797   2.357   9.216  3.2102  3.0026 -1.1274
  450MOL0     H60720   8.020   2.465   9.373 -3.7449  2.2142  0.5423
  450MOL0     H60721   7.974   2.490   9.199 -3.8627  0.6686  0.9773
  450MOL0     H60722   8.013   2.250   9.152  0.2556  0.2484 -0.4885
  450MOL0     H60723   8.067   2.227   9.322 -0.5543  0.2433  0.5997
  450MOL0     H60724   8.224   2.402   9.121  0.7947  0.4989  0.5682
  450MOL0     H60725   8.238   2.405   9.286 -1.3208  1.9445 -1.3694
  450MOL0     H60726   8.290   2.163   9.276 -3.7300 -3.1680 -2.2456
  450MOL0     H60727   8.403   2.264   9.172 -0.1497 -0.1803 -0.3122
  450MOL0     H60728   8.352   2.049   9.056 -1.9089 -3.0776  3.3881
  450MOL0     H60729   8.181   2.082   9.067 -1.5437  2.6651  2.4253
  450MOL0     H60730   7.378   2.427   9.334  0.7248  1.0315 -0.4678
  450MOL0     H60731   7.128   2.446   9.393 -1.3461 -0.0425  2.5299
  450MOL0     H60732   6.817   2.899   9.492 -0.7193  0.4528  0.6186
  450MOL0     H60733   6.602   2.980   9.598  0.0770 -0.3692 -0.8676
  450MOL0     H60734   4.824   2.266   9.041  1.2765  0.1618 -0.1678
  450MOL0     H60735   4.660   2.100   8.981  0.4828  1.2288  0.4364
  450MOL0     H60736   4.582   1.780   8.650  0.0004 -0.8004 -2.9799
  450MOL0     H60737   4.469   1.575   8.600  1.7298  1.0845 -0.1414
  450MOL0     H60738   4.341   1.426   8.482 -2.2843 -4.0571  0.5927
  450MOL0     H60739   4.269   1.564   8.389 -5.0675  0.4796 -0.7088
  450MOL0     H60740   4.127   1.307   8.479  1.5483  0.3545  0.7613
  450MOL0     H60741   4.212   1.333   8.330 -0.9081 -0.6946  0.0393
  450MOL0     H60742   3.970   1.399   8.271 -1.9471 -0.5711  2.2025
  450MOL0     H60743   4.067   1.540   8.283  0.6403 -0.2091  0.2655
  450MOL0     H60744   3.948   1.443   8.538 -3.9749 -1.2954  1.5626
  450MOL0     H60745   3.949   1.612   8.474  0.1613  0.7330 -0.4244
  450MOL0     H60746   3.582   1.485   8.326 -0.1775  1.3697  0.8456
  450MOL0     H60747   4.093   1.752   8.722 -0.7838 -4.0379 -1.3791
  450MOL0     H60748   4.159   2.061   8.704 -2.0709  1.4202  1.6330
  450MOL0     H60749   4.084   1.946   8.817 -1.3196  0.6075 -1.6108
  450MOL0     H60750   4.219   2.032   8.876  0.3414 -0.7455  0.4920
  451MOL0     O60751   3.033   3.996   7.260  0.0471 -0.2688  0.6969
  451MOL0     C60752   2.985   3.970   7.155 -0.4098  0.9123  0.7501
  451MOL0     O60753   2.866   4.015   7.107 -0.4530  0.3530 -0.9340
  451MOL0     C60754   2.802   4.122   7.157 -0.6906  0.6411  0.1269
  451MOL0     C60755   2.874   4.236   7.196  0.0182 -0.1324 -0.2461
  451MOL0     C60756   2.805   4.355   7.239 -1.0217 -0.4390  0.8359
  451MOL0     C60757   2.664   4.357   7.229  0.1848  0.5695 -1.2683
  451MOL0     O60758   2.589   4.469   7.259  0.4976 -0.2123 -0.5787
  451MOL0     C60759   2.611   4.548   7.373 -0.5544  0.0294 -0.2718
  451MOL0     C60760   2.502   4.646   7.386  0.8227  0.7532 -0.6585
  451MOL0     C60761   2.504   4.713   7.523  0.3241  0.4877 -0.2428
  451MOL0     C60762   2.621   4.808   7.547  0.2656  0.1556 -0.4606
  451MOL0     C60763   2.580   4.918   7.649 -0.5479  1.4571  1.3161
  451MOL0     C60764   2.519   4.856   7.786 -0.8024 -0.2092 -0.6526
  451MOL0     C60765   2.528   4.963   7.904  0.1665  0.3895  0.1901
  451MOL0     C60766   2.675   4.983   7.934  0.1572 -0.2112  0.6356
  451MOL0     N60767   2.707   5.060   8.053 -1.2220 -0.2134  0.0892
  451MOL0     C60768   2.690   5.036   8.187 -0.2193 -0.4406 -0.8470
  451MOL0     C60769   2.746   5.149   8.247 -0.3719  0.0930  0.6720
  451MOL0     C60770   2.735   5.174   8.390  0.1918 -0.1363 -0.6023
  451MOL0     C60771   2.730   5.055   8.495 -0.2291 -0.3417  0.0273
  451MOL0     C60772   2.876   4.993   8.526  0.4783  0.2452 -0.0198
  451MOL0     C60773   2.941   4.899   8.431  0.3169  0.4473  0.2485
  451MOL0     O60774   2.839   4.811   8.375 -0.0851  0.0224 -0.1937
  451MOL0     C60775   2.782   4.703   8.449  0.2245 -1.0809 -0.1689
  451MOL0     C60776   2.819   4.665   8.587 -0.1249  1.1506  0.1858
  451MOL0     C60777   2.733   4.569   8.649  0.0342 -0.1016 -0.0559
  451MOL0     C60778   2.626   4.502   8.577 -0.1602 -0.8652  0.0864
  451MOL0     C60779   2.549   4.391   8.634  0.6782  0.3781  0.1867
  451MOL0     O60780   2.591   4.335   8.752 -0.3438 -0.6043  0.6512
  451MOL0     C60781   2.558   4.215   8.810  0.8837 -0.8083  0.7136
  451MOL0     C60782   2.439   4.147   8.779 -0.1235  0.0753 -0.1119
  451MOL0     C60783   2.419   4.022   8.832 -0.3399 -0.4295 -0.2914
  451MOL0     C60784   2.512   3.960   8.922  0.7025 -0.9256  0.6933
  451MOL0     O60785   2.480   3.837   8.973  0.2465  0.6827 -0.0983
  451MOL0     C60786   2.487   3.813   9.115  0.5828 -1.1402  0.5544
  451MOL0     C60787   2.395   3.696   9.142  1.0145  0.3078 -0.1025
  451MOL0     C60788   2.420   3.560   9.067  0.3123 -0.0589  0.2970
  451MOL0     C60789   2.564   3.514   9.105  0.6597 -0.0956  0.0672
  451MOL0     C60790   2.592   3.366   9.076  0.3135  0.3673 -0.0727
  451MOL0     C60791   2.749   3.338   9.111  0.4475  0.3069 -0.1794
  451MOL0     C60792   2.795   3.193   9.124  0.0877  0.2484  0.4404
  451MOL0     C60793   2.945   3.191   9.098  0.4784 -0.3051  0.1690
  451MOL0    Cl60794   2.993   3.025   9.098 -0.0620  0.4884 -0.4189
  451MOL0     C60795   2.637   4.026   8.943  0.1118 -0.7470 -0.4862
  451MOL0     C60796   2.649   4.160   8.903  1.3909  0.7033  0.2194
  451MOL0     O60797   2.456   4.345   8.564  0.2940 -0.2049  0.7261
  451MOL0     C60798   2.604   4.552   8.447  0.0092 -0.3454 -0.1071
  451MOL0     C60799   2.675   4.656   8.383  0.6097 -0.5220  0.5063
  451MOL0     N60800   2.812   5.220   8.148 -0.0616  0.3842 -0.6260
  451MOL0     N60801   2.794   5.164   8.037  0.1663  0.2511 -0.4261
  451MOL0     C60802   2.590   4.251   7.174 -0.5757 -1.1786 -0.1493
  451MOL0     C60803   2.663   4.132   7.143 -0.3181 -0.2711  0.9408
  451MOL0     C60804   3.043   3.852   7.085  0.1396  0.3713 -0.6290
  451MOL0     C60805   2.962   3.745   7.037  0.2975  0.1954 -0.4762
  451MOL0     C60806   3.020   3.637   6.973  1.3414 -0.0594 -0.3430
  451MOL0     C60807   3.165   3.628   6.956  0.0326 -0.2120  0.9597
  451MOL0     O60808   3.232   3.530   6.884 -0.1090  0.2803  0.6679
  451MOL0     C60809   3.142   3.458   6.785  0.3697  0.3429 -0.9473
  451MOL0     C60810   3.216   3.401   6.674 -0.3988  0.4225 -0.1843
  451MOL0     C60811   3.267   3.258   6.709  0.3830  0.5779  0.1318
  451MOL0     C60812   3.355   3.198   6.601 -0.1286  0.9748  0.2504
  451MOL0     C60813   3.434   3.080   6.627  0.1238 -0.8494 -0.4215
  451MOL0     C60814   3.491   2.974   6.632 -1.0510 -0.8805  0.1815
  451MOL0     C60815   3.246   3.722   7.019 -0.1293 -0.9845  0.4394
  451MOL0     C60816   3.188   3.843   7.078 -0.1385  1.2316  0.0923
  451MOL0     C60817   3.286   3.947   7.130 -0.2314 -0.5886  0.3631
  451MOL0     H60818   2.981   4.249   7.185 -0.3879  2.7175 -1.8396
  451MOL0     H60819   2.853   4.447   7.270 -0.2721 -0.7663  0.6742
  451MOL0     H60820   2.625   4.486   7.462 -0.6542 -2.2254 -1.7470
  451MOL0     H60821   2.696   4.615   7.359 -0.3061 -0.0880  0.5947
  451MOL0     H60822   2.408   4.594   7.366  1.0198  0.7989 -1.8185
  451MOL0     H60823   2.521   4.718   7.306 -0.7945  0.9617 -0.8829
  451MOL0     H60824   2.502   4.634   7.598  0.9669  0.1536 -0.5741
  451MOL0     H60825   2.410   4.769   7.525  0.5185  0.8586 -1.0061
  451MOL0     H60826   2.708   4.751   7.580 -1.4578 -3.5809 -1.7423
  451MOL0     H60827   2.645   4.857   7.452  0.8692 -0.3322 -0.5617
  451MOL0     H60828   2.666   4.984   7.664 -0.5737  1.8695 -0.2259
  451MOL0     H60829   2.507   4.988   7.607  2.3856  2.8593 -1.9284
  451MOL0     H60830   2.414   4.840   7.760 -0.8436 -0.2542 -0.4626
  451MOL0     H60831   2.574   4.765   7.811 -1.4708 -0.7033 -0.9555
  451MOL0     H60832   2.482   4.927   7.997 -2.2260 -0.9158 -1.3942
  451MOL0     H60833   2.485   5.057   7.868  0.1600  0.4170  0.2701
  451MOL0     H60834   2.728   4.888   7.948  2.7716  1.3973  2.9861
  451MOL0     H60835   2.723   5.042   7.856  0.1712  0.0302  0.8273
  451MOL0     H60836   2.631   4.957   8.233 -0.1743  0.9202  1.7172
  451MOL0     H60837   2.815   5.243   8.421 -1.6572  2.4664 -1.2998
  451MOL0     H60838   2.641   5.228   8.399 -0.6558 -1.6761  0.1019
  451MOL0     H60839   2.685   5.108   8.579  1.3465  1.5451 -0.2489
  451MOL0     H60840   2.655   4.979   8.467 -0.6117  1.3677 -4.3892
  451MOL0     H60841   2.877   4.940   8.622  1.7596 -1.1841 -0.7835
  451MOL0     H60842   2.941   5.081   8.535  0.6642  0.3733 -2.1917
  451MOL0     H60843   3.014   4.831   8.475  1.1037  1.5544  0.6996
  451MOL0     H60844   2.995   4.952   8.353 -0.6272  0.6699 -0.2707
  451MOL0     H60845   2.896   4.715   8.645 -0.6036  2.4144 -0.2522
  451MOL0     H60846   2.775   4.550   8.747 -0.9743  0.2261  0.4460
  451MOL0     H60847   2.365   4.170   8.703 -0.5306 -1.3441 -0.1786
  451MOL0     H60848   2.331   3.962   8.811 -1.4492  0.7795  0.7461
  451MOL0     H60849   2.588   3.798   9.154  0.9260 -0.3473 -0.0053
  451MOL0     H60850   2.443   3.899   9.166 -0.2533 -0.4288 -1.2860
  451MOL0     H60851   2.384   3.688   9.251 -0.4106  0.0888 -0.2356
  451MOL0     H60852   2.295   3.722   9.104  1.6238 -0.4036 -2.3055
  451MOL0     H60853   2.351   3.486   9.109  0.4990  0.3762  1.3981
  451MOL0     H60854   2.405   3.569   8.959  0.4779  2.4610  0.4340
  451MOL0     H60855   2.579   3.538   9.210 -0.4880  0.7657  0.0513
  451MOL0     H60856   2.641   3.577   9.061  0.7249 -0.9468 -1.0873
  451MOL0     H60857   2.560   3.336   8.976 -0.3209 -2.6058  0.9342
  451MOL0     H60858   2.523   3.314   9.143 -1.1046  3.2974  0.9108
  451MOL0     H60859   2.813   3.367   9.026  0.1879 -3.0084 -1.6519
  451MOL0     H60860   2.772   3.384   9.207  0.2751 -1.6282  0.8331
  451MOL0     H60861   2.742   3.122   9.059  1.8139 -2.2487  1.6042
  451MOL0     H60862   2.783   3.153   9.225  1.6706  1.2697  1.0773
  451MOL0     H60863   2.959   3.241   9.002 -0.1389 -2.1123 -0.9278
  451MOL0     H60864   3.009   3.247   9.167  1.3710  0.0808 -0.9479
  451MOL0     H60865   2.717   3.988   9.006 -0.8123  2.3045  2.8269
  451MOL0     H60866   2.740   4.217   8.917  1.0850  0.8879  1.5506
  451MOL0     H60867   2.522   4.511   8.389 -2.6403  2.1920  1.5293
  451MOL0     H60868   2.648   4.684   8.282  2.3329 -1.2978 -0.2045
  451MOL0     H60869   2.485   4.256   7.146  0.4724  1.4915 -4.4944
  451MOL0     H60870   2.617   4.062   7.075  0.8760  0.1378 -0.3371
  451MOL0     H60871   2.856   3.755   7.063  0.4303 -1.0909  0.7034
  451MOL0     H60872   2.954   3.561   6.933  0.0618  0.0928  1.3472
  451MOL0     H60873   3.069   3.533   6.754 -0.9920 -0.5878 -0.0804
  451MOL0     H60874   3.082   3.379   6.831  2.9650 -1.4545 -0.4332
  451MOL0     H60875   3.295   3.470   6.643  0.7237 -1.3221 -1.4094
  451MOL0     H60876   3.153   3.397   6.585  0.8305  0.8418 -1.1044
  451MOL0     H60877   3.179   3.193   6.721  0.7616  0.2357  1.1066
  451MOL0     H60878   3.315   3.259   6.807  0.3071  1.8026  0.1768
  451MOL0     H60879   3.291   3.189   6.514 -0.2611  3.2736  0.0545
  451MOL0     H60880   3.430   3.274   6.576 -0.9584  1.1660 -1.8442
  451MOL0     H60881   3.538   2.878   6.638  1.4318  0.2630  0.0835
  451MOL0     H60882   3.353   3.709   7.009 -0.5660 -3.6985 -1.8489
  451MOL0     H60883   3.258   4.050   7.105  0.0938  0.4121  3.6228
  451MOL0     H60884   3.297   3.948   7.239  0.5474 -0.3431  0.2851
  451MOL0     H60885   3.380   3.921   7.081 -1.1164  4.0660 -4.8387
  452MOL0     O60886   0.216   5.818   8.435 -0.8850 -0.6393  0.3920
  452MOL0     C60887   0.131   5.865   8.511 -0.3354  0.4945 -0.8778
  452MOL0     O60888   0.151   5.912   8.642  0.5040 -0.1306 -0.3459
  452MOL0     C60889   0.275   5.884   8.689  0.0037  0.4397  0.3533
  452MOL0     C60890   0.287   5.776   8.779 -0.6530 -0.8535 -0.0689
  452MOL0     C60891   0.411   5.743   8.835  0.3484 -0.8155 -0.4622
  452MOL0     C60892   0.524   5.814   8.804  0.3690  0.1272 -0.0670
  452MOL0     O60893   0.635   5.769   8.864 -0.0717  0.3124  0.0273
  452MOL0     C60894   0.760   5.833   8.819  0.3355  0.5834  0.2319
  452MOL0     C60895   0.872   5.758   8.875  0.5825  0.6828  0.5563
  452MOL0     C60896   1.000   5.849   8.897 -0.4068 -0.6666 -0.3652
  452MOL0     C60897   1.132   5.783   8.852  1.6625 -0.0366 -0.4767
  452MOL0     C60898   1.250   5.881   8.830 -0.3834  0.3812 -0.5794
  452MOL0     C60899   1.361   5.829   8.734 -0.4005 -0.9095  0.5280
  452MOL0     C60900   1.310   5.811   8.585  0.0376  0.1613  0.0334
  452MOL0     C60901   1.315   5.954   8.514 -0.4647  0.1397 -0.3697
  452MOL0     N60902   1.314   5.934   8.373  0.1300 -0.0135  0.7893
  452MOL0     C60903   1.357   5.820   8.291 -0.2396 -0.0160 -0.5196
  452MOL0     C60904   1.336   5.860   8.157 -0.6477  0.4017  0.1477
  452MOL0     C60905   1.374   5.789   8.028  1.2767  0.6285  0.4854
  452MOL0     C60906   1.260   5.692   7.988 -0.2308  0.3480 -0.0387
  452MOL0     C60907   1.126   5.768   7.969 -0.1826  0.1484 -0.2607
  452MOL0     C60908   1.040   5.667   7.880 -0.0416 -0.5013  0.3869
  452MOL0     O60909   1.075   5.647   7.739 -0.1817 -0.5446  0.0270
  452MOL0     C60910   1.009   5.552   7.658  0.2608 -0.3786 -0.4313
  452MOL0     C60911   1.025   5.561   7.520 -0.6852 -0.8639 -0.4880
  452MOL0     C60912   0.947   5.491   7.433  0.1204  0.3443  0.8247
  452MOL0     C60913   0.864   5.389   7.482 -0.0751  0.6455  0.7100
  452MOL0     C60914   0.776   5.311   7.390  0.7598  0.6706  0.1599
  452MOL0     O60915   0.669   5.245   7.445  0.0908 -0.1938 -0.9509
  452MOL0     C60916   0.600   5.138   7.376 -0.8434 -0.0806 -0.2146
  452MOL0     C60917   0.659   5.065   7.265 -1.2445 -0.7464  0.6941
  452MOL0     C60918   0.588   4.974   7.189 -0.2434 -0.6234 -0.6306
  452MOL0     C60919   0.448   4.953   7.220  0.1548 -0.5965 -0.0610
  452MOL0     O60920   0.376   4.866   7.142  0.8300  0.5686 -0.9267
  452MOL0     C60921   0.422   4.838   7.014  0.6803 -0.5853 -0.0467
  452MOL0     C60922   0.421   4.972   6.930  0.2583  0.6328 -0.4928
  452MOL0     C60923   0.401   4.955   6.782 -0.5563 -0.7191  1.3545
  452MOL0     C60924   0.421   5.079   6.683 -0.4309 -0.2014  0.2264
  452MOL0     C60925   0.376   5.043   6.536  0.9560 -0.0497 -0.4257
  452MOL0     C60926   0.417   5.147   6.425  0.6509 -0.0117  0.2618
  452MOL0     C60927   0.365   5.291   6.452  0.0677  0.2958 -0.5028
  452MOL0     C60928   0.466   5.402   6.455 -0.1474  0.3668  0.2912
  452MOL0    Cl60929   0.516   5.450   6.291  0.0063 -0.4240  0.3084
  452MOL0     C60930   0.386   5.015   7.328  0.1538  0.1249 -1.5359
  452MOL0     C60931   0.463   5.114   7.401  0.2924  0.7972  0.6954
  452MOL0     O60932   0.793   5.311   7.267 -0.0373 -0.3368 -0.5836
  452MOL0     C60933   0.843   5.394   7.624  0.0728  0.2185  1.0841
  452MOL0     C60934   0.914   5.472   7.710  0.0111 -0.1194 -0.8401
  452MOL0     N60935   1.275   5.977   8.163 -0.6356  0.0742 -0.3060
  452MOL0     N60936   1.252   6.023   8.287  0.2906 -0.0222 -0.1064
  452MOL0     C60937   0.505   5.930   8.718  1.1204 -0.1192  0.2235
  452MOL0     C60938   0.384   5.970   8.660  0.7072 -0.3753 -0.4877
  452MOL0     C60939  -0.002   5.887   8.452 -0.5275 -0.2940  0.9127
  452MOL0     C60940  -0.097   5.787   8.451 -0.6851 -0.1356 -0.2431
  452MOL0     C60941  -0.224   5.809   8.395 -0.9098  0.9213 -0.7489
  452MOL0     C60942  -0.264   5.930   8.353 -0.0241 -0.3121  0.2899
  452MOL0     O60943  -0.393   5.973   8.328 -0.5790  0.6568  0.0302
  452MOL0     C60944  -0.489   5.864   8.300  0.6809  0.6814  1.0715
  452MOL0     C60945  -0.633   5.912   8.314 -0.0513  0.5787  1.1058
  452MOL0     C60946  -0.741   5.847   8.227  0.4492  0.3194  0.9784
  452MOL0     C60947  -0.881   5.806   8.299  0.6612 -0.1152  0.4607
  452MOL0     C60948  -0.971   5.916   8.305 -1.2881  0.2562  0.2076
  452MOL0     C60949  -1.032   6.021   8.327 -0.1808  0.3776 -0.1371
  452MOL0     C60950  -0.166   6.029   8.344  0.7038 -0.0276  0.2071
  452MOL0     C60951  -0.037   6.006   8.386 -0.7720  0.2724 -0.4999
  452MOL0     C60952   0.072   6.117   8.371  0.6302 -0.1418  0.2771
  452MOL0     H60953   0.210   5.711   8.819 -0.3616 -1.3651 -0.3287
  452MOL0     H60954   0.420   5.647   8.884  0.9780 -0.2645  0.5339
  452MOL0     H60955   0.785   5.833   8.712  3.4143 -0.5052  0.8654
  452MOL0     H60956   0.751   5.936   8.857  0.8476  0.4604  0.6873
  452MOL0     H60957   0.896   5.670   8.816  0.4821  0.6290  0.5952
  452MOL0     H60958   0.844   5.715   8.971  2.6066 -2.5356 -0.1527
  452MOL0     H60959   1.001   5.876   9.003 -3.8539 -0.9243 -0.1601
  452MOL0     H60960   0.987   5.946   8.846  1.2586 -0.1147  0.1789
  452MOL0     H60961   1.146   5.708   8.931 -3.6865  0.9990  1.8696
  452MOL0     H60962   1.109   5.720   8.766 -1.4103 -0.6771  0.6934
  452MOL0     H60963   1.216   5.981   8.799 -1.2599  0.0001 -0.8829
  452MOL0     H60964   1.297   5.902   8.927  1.2790  3.8414 -1.9464
  452MOL0     H60965   1.437   5.908   8.736 -0.5113 -0.8090  0.8083
  452MOL0     H60966   1.404   5.737   8.773  0.3529 -0.2640  1.2612
  452MOL0     H60967   1.211   5.765   8.588  0.0236  0.1611 -0.3397
  452MOL0     H60968   1.372   5.733   8.539  0.0964 -1.5254  2.7532
  452MOL0     H60969   1.220   5.992   8.554 -2.1786 -2.2212 -1.9480
  452MOL0     H60970   1.403   6.016   8.533  0.6667 -1.7450  0.8229
  452MOL0     H60971   1.407   5.730   8.326 -0.2129  0.2545  0.1471
  452MOL0     H60972   1.396   5.859   7.946 -2.2643 -1.5059 -2.5956
  452MOL0     H60973   1.464   5.737   8.062 -0.2169 -2.4930  0.0156
  452MOL0     H60974   1.288   5.638   7.898 -1.4206 -0.9671  0.3496
  452MOL0     H60975   1.256   5.620   8.071 -3.2175 -0.8549 -1.1022
  452MOL0     H60976   1.146   5.863   7.919  0.4529  0.0728 -0.1589
  452MOL0     H60977   1.069   5.790   8.060 -2.9800 -1.6494 -1.4331
  452MOL0     H60978   0.938   5.707   7.876  0.2020  0.1346  0.3421
  452MOL0     H60979   1.031   5.575   7.938  0.5505  0.4342  2.0414
  452MOL0     H60980   1.102   5.633   7.492 -1.4876  0.7268  1.1954
  452MOL0     H60981   0.948   5.513   7.327 -2.0331 -1.2587  0.3975
  452MOL0     H60982   0.765   5.075   7.243 -1.2892  0.3664  0.9227
  452MOL0     H60983   0.652   4.944   7.107  1.8413  0.2472  0.5936
  452MOL0     H60984   0.523   4.800   7.028  1.2613  1.0579  0.4443
  452MOL0     H60985   0.360   4.759   6.970  0.7037  0.0706 -1.3173
  452MOL0     H60986   0.329   5.025   6.956 -0.2132  2.7694 -5.4184
  452MOL0     H60987   0.503   5.039   6.958  0.0231  0.1096  1.6304
  452MOL0     H60988   0.455   4.865   6.751 -0.4285 -0.1690 -0.0852
  452MOL0     H60989   0.295   4.926   6.776 -1.2188  1.6972 -0.3759
  452MOL0     H60990   0.526   5.109   6.673 -0.5290 -0.1424 -0.8095
  452MOL0     H60991   0.374   5.170   6.721  2.1979  0.6340  1.6579
  452MOL0     H60992   0.268   5.030   6.541  0.9266 -0.3029 -1.5261
  452MOL0     H60993   0.414   4.946   6.503 -0.0539 -0.4520 -0.4315
  452MOL0     H60994   0.525   5.163   6.421  0.5376  0.5834 -1.0735
  452MOL0     H60995   0.382   5.116   6.326  0.0073  4.3560 -1.0819
  452MOL0     H60996   0.299   5.305   6.539 -1.6420 -0.1969 -1.6791
  452MOL0     H60997   0.293   5.301   6.371  0.0580 -1.3993 -0.7344
  452MOL0     H60998   0.418   5.494   6.491 -0.9630  0.3548 -0.6983
  452MOL0     H60999   0.561   5.388   6.507  0.4319 -0.0765 -0.8446
  452MOL0     H61000   0.282   4.989   7.346  0.4512  0.6713  1.5372
  452MOL0     H61001   0.411   5.169   7.479 -4.9243 -2.1382 -0.2263
  452MOL0     H61002   0.757   5.342   7.663 -2.6435  0.8317 -3.3231
  452MOL0     H61003   0.889   5.459   7.815  2.0466 -2.5216 -0.5524
  452MOL0     H61004   0.585   5.997   8.687  0.1441 -0.9316 -4.7571
  452MOL0     H61005   0.381   6.054   8.592  2.2774 -0.5479 -0.8123
  452MOL0     H61006  -0.066   5.689   8.487 -1.3732  0.1655  1.2282
  452MOL0     H61007  -0.294   5.726   8.395 -1.2657  1.2134 -0.1958
  452MOL0     H61008  -0.482   5.775   8.363 -0.6539 -0.9838 -1.0142
  452MOL0     H61009  -0.464   5.813   8.207 -1.9686 -2.1503  1.7598
  452MOL0     H61010  -0.625   6.016   8.283 -0.7895 -0.2522 -2.3315
  452MOL0     H61011  -0.657   5.897   8.420 -2.3611 -0.2171  0.5313
  452MOL0     H61012  -0.690   5.757   8.193  0.2991  0.8396 -0.7310
  452MOL0     H61013  -0.764   5.906   8.138  1.9403  2.2006  1.7771
  452MOL0     H61014  -0.940   5.739   8.235 -2.5236  1.1045  1.9430
  452MOL0     H61015  -0.866   5.768   8.400 -1.3624 -0.7726  0.5690
  452MOL0     H61016  -1.094   6.109   8.324 -2.5600 -1.2324 -1.3570
  452MOL0     H61017  -0.186   6.132   8.318  0.8548 -0.0262  0.0925
  452MOL0     H61018   0.033   6.205   8.319 -1.6334 -1.0519  0.3313
  452MOL0     H61019   0.100   6.138   8.475 -2.0460  1.4324  0.7774
  452MOL0     H61020   0.148   6.089   8.297 -0.3823 -0.6292 -0.6234
  453MOL0     O61021   9.927   8.904  11.345 -0.5740 -0.3486  0.3547
  453MOL0     C61022  10.005   8.974  11.411 -0.6490 -1.1616 -0.2687
  453MOL0     O61023  10.089   9.071  11.362 -0.3418  0.4477 -0.1710
  453MOL0     C61024  10.097   9.069  11.225 -0.2115  0.6384 -1.3188
  453MOL0     C61025  10.030   9.167  11.148  0.3675 -0.2923 -0.2601
  453MOL0     C61026  10.033   9.175  11.012  0.1004 -0.1199  0.5283
  453MOL0     C61027  10.129   9.098  10.946  0.2641 -0.0269 -0.1010
  453MOL0     O61028  10.142   9.092  10.817  0.3400  0.0747  0.5697
  453MOL0     C61029  10.177   9.219  10.753  0.9373 -0.0721 -1.0495
  453MOL0     C61030  10.174   9.205  10.605 -0.3992 -0.1116  1.0530
  453MOL0     C61031  10.039   9.218  10.536  0.0872 -0.4631 -1.2500
  453MOL0     C61032  10.046   9.263  10.391 -0.6903 -0.5479 -0.3992
  453MOL0     C61033   9.903   9.286  10.338  0.9445 -0.3029 -0.2690
  453MOL0     C61034   9.887   9.326  10.196 -0.6276 -0.1550  0.1012
  453MOL0     C61035   9.960   9.456  10.151 -0.3835  0.8118 -0.4929
  453MOL0     C61036   9.896   9.508  10.024  0.3648 -0.3136 -0.0155
  453MOL0     N61037   9.766   9.566  10.046 -0.3032  0.1473  0.3292
  453MOL0     C61038   9.747   9.669  10.136 -0.0575 -0.5174  0.3396
  453MOL0     C61039   9.611   9.677  10.142 -0.9122 -0.2119 -0.5010
  453MOL0     C61040   9.528   9.763  10.239  0.5234  0.4302 -0.4543
  453MOL0     C61041   9.502   9.898  10.182 -0.3405 -0.1172 -0.0782
  453MOL0     C61042   9.627   9.991  10.156  0.0038 -0.0942  0.3132
  453MOL0     C61043   9.600  10.144  10.164  0.7702  0.5508 -0.7062
  453MOL0     O61044   9.558  10.183  10.288 -0.2708  0.0348  0.1646
  453MOL0     C61045   9.577  10.317  10.327 -0.3635  0.1035 -0.5478
  453MOL0     C61046   9.471  10.402  10.330 -0.8666 -0.0809 -0.4483
  453MOL0     C61047   9.482  10.531  10.377  0.0594  0.2888  0.3821
  453MOL0     C61048   9.603  10.589  10.407 -0.2386 -1.4669 -0.5218
  453MOL0     C61049   9.610  10.740  10.422 -1.4530 -0.0323  0.8025
  453MOL0     O61050   9.498  10.818  10.418  0.4028  0.3567 -0.4338
  453MOL0     C61051   9.490  10.946  10.466  0.3671 -0.7041 -0.2979
  453MOL0     C61052   9.381  11.021  10.420 -0.4838  0.1549  0.7655
  453MOL0     C61053   9.373  11.150  10.461 -0.6727  0.0840  1.1031
  453MOL0     C61054   9.472  11.202  10.551 -0.3947  0.0042  0.5732
  453MOL0     O61055   9.463  11.335  10.584  0.1578  0.2898  0.4514
  453MOL0     C61056   9.449  11.362  10.721 -0.4085  0.5891 -0.5816
  453MOL0     C61057   9.401  11.499  10.747  0.0928  0.1552  0.7290
  453MOL0     C61058   9.509  11.600  10.777 -0.4787 -0.6239  0.4146
  453MOL0     C61059   9.585  11.643  10.650 -0.2395  0.5428 -0.4989
  453MOL0     C61060   9.512  11.739  10.557  0.2353  0.5757 -0.2351
  453MOL0     C61061   9.589  11.761  10.425 -0.6910 -0.4731 -0.6448
  453MOL0     C61062   9.485  11.825  10.324  0.6322  0.0622  0.0102
  453MOL0     C61063   9.548  11.822  10.184  0.3240 -0.2593  1.2605
  453MOL0    Cl61064   9.458  11.940  10.088  0.2361 -0.1621  0.0128
  453MOL0     C61065   9.572  11.122  10.595  0.5142  0.2104 -0.7845
  453MOL0     C61066   9.575  10.986  10.562  0.5745 -0.6925 -0.1341
  453MOL0     O61067   9.728  10.780  10.429 -0.2101  1.0849 -0.0651
  453MOL0     C61068   9.713  10.500  10.408 -0.6468 -0.4102  0.2537
  453MOL0     C61069   9.700  10.366  10.378  1.0133  0.0848 -0.2410
  453MOL0     N61070   9.559   9.574  10.064 -0.0782  0.6125  0.4357
  453MOL0     N61071   9.652   9.508  10.007  0.5936 -0.1049  0.7640
  453MOL0     C61072  10.202   8.999  11.011  0.4933  0.7500 -0.9139
  453MOL0     C61073  10.186   8.985  11.154 -0.5313 -0.0094  0.9922
  453MOL0     C61074   9.990   8.974  11.561 -0.6194  0.7933 -0.6243
  453MOL0     C61075   9.999   9.095  11.632 -0.4696 -0.6234  0.3274
  453MOL0     C61076   9.976   9.095  11.769  0.5089 -0.0431 -0.5035
  453MOL0     C61077   9.956   8.976  11.837 -1.0419 -0.6781  0.1319
  453MOL0     O61078   9.936   8.968  11.973  0.2510  0.5844 -0.2259
  453MOL0     C61079   9.862   9.067  12.040 -1.0068 -0.0403 -0.4120
  453MOL0     C61080   9.772   9.020  12.150  1.1788  0.5077 -0.1915
  453MOL0     C61081   9.844   8.946  12.260 -0.9005 -0.5583 -0.1172
  453MOL0     C61082   9.728   8.875  12.354 -0.3419 -0.2580  0.2023
  453MOL0     C61083   9.641   8.979  12.412  0.5067  0.3582 -0.5478
  453MOL0     C61084   9.550   9.056  12.452 -0.5305  0.9451 -0.0338
  453MOL0     C61085   9.966   8.853  11.772 -0.1778 -0.2051  0.1610
  453MOL0     C61086   9.982   8.862  11.635 -0.3562 -0.2465 -0.2410
  453MOL0     C61087   9.984   8.723  11.572  0.2485 -0.8977 -0.0849
  453MOL0     H61088   9.953   9.212  11.210 -0.2902 -4.5362  2.4231
  453MOL0     H61089   9.960   9.226  10.951  0.2277 -1.1304 -0.5085
  453MOL0     H61090  10.116   9.302  10.791 -0.9635 -2.0769  0.5578
  453MOL0     H61091  10.280   9.247  10.777  0.3251  1.2891  0.1753
  453MOL0     H61092  10.220   9.111  10.572  0.5722  0.9183 -0.6632
  453MOL0     H61093  10.234   9.290  10.571  0.3322 -0.6833  0.8844
  453MOL0     H61094   9.979   9.287  10.596  0.8432 -0.3113 -0.6517
  453MOL0     H61095   9.991   9.121  10.545 -0.2205 -0.3729 -1.9215
  453MOL0     H61096  10.104   9.355  10.399  1.6454 -2.1040  2.8763
  453MOL0     H61097  10.099   9.196  10.323  1.4258 -0.8454  1.4378
  453MOL0     H61098   9.857   9.188  10.348  3.0312 -1.3422 -0.2807
  453MOL0     H61099   9.851   9.356  10.405  1.5234 -0.6954  0.6197
  453MOL0     H61100   9.906   9.241  10.130 -3.6230 -1.8612  1.2698
  453MOL0     H61101   9.778   9.337  10.191 -0.7175  0.9846  2.8093
  453MOL0     H61102  10.067   9.441  10.131 -0.2962  0.2000  0.3482
  453MOL0     H61103   9.953   9.529  10.232  3.5060  0.4886  0.3374
  453MOL0     H61104   9.962   9.580   9.975 -1.6532  0.7308 -1.3164
  453MOL0     H61105   9.887   9.425   9.953  1.6019  1.8078 -2.8495
  453MOL0     H61106   9.825   9.725  10.187 -0.2174 -1.1426  1.2786
  453MOL0     H61107   9.435   9.709  10.261  2.1862 -1.7917  1.7911
  453MOL0     H61108   9.571   9.787  10.337  0.2306 -0.5561 -0.0668
  453MOL0     H61109   9.453   9.888  10.084 -1.9133 -1.6911  0.8172
  453MOL0     H61110   9.440   9.960  10.248  1.2611  1.7220 -0.1950
  453MOL0     H61111   9.667   9.961  10.059  1.2958  1.7104  0.2455
  453MOL0     H61112   9.709   9.964  10.223  0.7281  1.5466  0.1346
  453MOL0     H61113   9.518  10.164  10.094  1.0792 -0.0102 -1.2442
  453MOL0     H61114   9.684  10.207  10.132  1.0626 -0.3852 -1.8686
  453MOL0     H61115   9.370  10.364  10.318 -0.9729  0.3437 -0.9010
  453MOL0     H61116   9.392  10.591  10.387  0.2616  0.5101  0.9314
  453MOL0     H61117   9.330  10.988  10.330 -0.0653  2.9025 -0.5838
  453MOL0     H61118   9.290  11.218  10.440 -0.6743  0.2462  1.6228
  453MOL0     H61119   9.377  11.289  10.759 -0.1851  0.2217 -0.8611
  453MOL0     H61120   9.546  11.347  10.770 -0.0316 -3.5378 -2.2109
  453MOL0     H61121   9.340  11.527  10.660 -1.0963 -0.4859  1.3345
  453MOL0     H61122   9.344  11.498  10.840 -0.0411  0.6393  0.6550
  453MOL0     H61123   9.464  11.681  10.835  0.0470  0.4335 -0.6014
  453MOL0     H61124   9.580  11.547  10.841 -0.6992 -0.5357  0.7369
  453MOL0     H61125   9.607  11.551  10.596 -0.6797 -0.2797  0.7017
  453MOL0     H61126   9.683  11.688  10.667  1.0988 -2.0084 -1.1007
  453MOL0     H61127   9.489  11.832  10.610 -0.1859 -0.0149  0.6439
  453MOL0     H61128   9.417  11.701  10.517  0.4127  0.6438 -0.7201
  453MOL0     H61129   9.685  11.813  10.437 -0.7347 -0.5104 -0.0874
  453MOL0     H61130   9.593  11.658  10.388 -2.4361 -0.0624 -2.1439
  453MOL0     H61131   9.460  11.929  10.344  1.2254  0.2548 -0.2326
  453MOL0     H61132   9.391  11.770  10.316  1.4450 -1.1670 -1.7561
  453MOL0     H61133   9.652  11.853  10.196 -0.4528  2.5398  1.5629
  453MOL0     H61134   9.547  11.722  10.140  0.9808  0.9722 -1.7957
  453MOL0     H61135   9.649  11.166  10.657 -0.2531 -0.3754  0.6301
  453MOL0     H61136   9.655  10.929  10.607 -2.2357 -3.6711  1.4479
  453MOL0     H61137   9.815  10.537  10.414  0.2773 -2.9483  1.6800
  453MOL0     H61138   9.782  10.295  10.367 -0.7270 -1.9438 -0.8652
  453MOL0     H61139  10.275   8.939  10.958  1.7541  2.0755 -0.7463
  453MOL0     H61140  10.255   8.925  11.212  2.4612  2.6331  0.4070
  453MOL0     H61141  10.011   9.191  11.584 -2.4850 -0.9704 -0.9741
  453MOL0     H61142   9.981   9.192  11.818  3.3019 -1.3575  2.1466
  453MOL0     H61143   9.803   9.127  11.969 -0.9220 -0.8535 -1.1820
  453MOL0     H61144   9.947   9.124  12.078  1.4305 -2.6978 -1.5322
  453MOL0     H61145   9.705   8.943  12.109  0.0649  1.6020 -0.5157
  453MOL0     H61146   9.710   9.103  12.184  2.2832  1.1245  0.3549
  453MOL0     H61147   9.896   9.019  12.323 -0.1240 -1.8544  0.7974
  453MOL0     H61148   9.916   8.875  12.220  0.2698  0.0794  0.8050
  453MOL0     H61149   9.666   8.806  12.298 -0.9624 -1.4162  2.2193
  453MOL0     H61150   9.772   8.822  12.440 -2.1030 -1.0266  0.6663
  453MOL0     H61151   9.476   9.116  12.501  0.4374  0.0929  2.6881
  453MOL0     H61152   9.954   8.762  11.829  1.1473  0.1038  0.9837
  453MOL0     H61153  10.036   8.725  11.476  0.8823  0.7895  0.2597
  453MOL0     H61154  10.028   8.646  11.635  1.0504 -0.2032  0.2240
  453MOL0     H61155   9.880   8.691  11.565  0.0005 -0.6693  2.0695
  454MOL0     O61156   5.785   1.449   3.120 -0.0754 -0.0383  0.9315
  454MOL0     C61157   5.835   1.481   3.229  0.5936 -0.2363  0.0355
  454MOL0     O61158   5.974   1.493   3.254  0.0844 -0.1848 -0.6763
  454MOL0     C61159   6.059   1.503   3.148 -0.0646 -0.0534  0.2671
  454MOL0     C61160   6.137   1.618   3.145  0.3438 -0.2041  0.5329
  454MOL0     C61161   6.230   1.643   3.043  0.2763 -0.7404  0.3762
  454MOL0     C61162   6.252   1.540   2.948  0.4864  0.0462 -0.2227
  454MOL0     O61163   6.333   1.575   2.846  0.2371  0.6579  0.0070
  454MOL0     C61164   6.329   1.501   2.719  0.1486  1.0785  0.3107
  454MOL0     C61165   6.465   1.480   2.649 -0.5085  0.0191 -0.8023
  454MOL0     C61166   6.520   1.618   2.624 -0.3801 -0.0361  0.2633
  454MOL0     C61167   6.666   1.617   2.585 -0.6610 -0.2581  0.2304
  454MOL0     C61168   6.762   1.583   2.706  0.1309  0.1434 -0.4414
  454MOL0     C61169   6.902   1.578   2.657 -0.0637  0.0484  0.2437
  454MOL0     C61170   6.956   1.722   2.643  0.9013 -0.3089  0.5142
  454MOL0     C61171   7.107   1.729   2.631  0.1321  0.2635 -0.2465
  454MOL0     N61172   7.165   1.861   2.626 -0.4108 -0.4103  0.3073
  454MOL0     C61173   7.258   1.912   2.711  0.0743 -0.1343 -0.6884
  454MOL0     C61174   7.269   2.043   2.677 -0.5755 -0.3323  0.5871
  454MOL0     C61175   7.341   2.139   2.767 -0.2413  0.4550  0.8266
  454MOL0     C61176   7.310   2.131   2.924 -0.2865  0.0998  0.4775
  454MOL0     C61177   7.160   2.151   2.969 -0.8932  0.3435 -0.4439
  454MOL0     C61178   7.055   2.033   2.940 -1.0884  0.7160  0.4918
  454MOL0     O61179   7.103   1.920   3.015 -0.3239 -0.2573 -0.4052
  454MOL0     C61180   7.000   1.866   3.096  0.2152 -0.1299  0.0859
  454MOL0     C61181   6.959   1.912   3.218  0.6997  0.3238  0.9224
  454MOL0     C61182   6.872   1.835   3.294 -0.4640  0.1392 -0.5631
  454MOL0     C61183   6.815   1.718   3.250 -0.7638 -0.1299 -0.8102
  454MOL0     C61184   6.739   1.635   3.343 -0.1268 -1.0411  0.6639
  454MOL0     O61185   6.725   1.504   3.307 -0.8402 -0.1070  0.5023
  454MOL0     C61186   6.653   1.432   3.403 -0.2901 -0.7350  0.4144
  454MOL0     C61187   6.510   1.424   3.405 -0.4450 -1.2178  0.0582
  454MOL0     C61188   6.447   1.336   3.495 -0.7175 -0.4771  0.4476
  454MOL0     C61189   6.522   1.268   3.586  0.3725 -0.4799 -0.6201
  454MOL0     O61190   6.473   1.200   3.681  0.6581 -0.4294 -0.0873
  454MOL0     C61191   6.345   1.137   3.664 -0.1509 -0.2731 -0.6513
  454MOL0     C61192   6.323   1.017   3.761  0.1214 -0.8918 -0.1454
  454MOL0     C61193   6.195   0.949   3.722  0.1105 -0.1709  0.7029
  454MOL0     C61194   6.173   0.822   3.794  0.2882 -0.3880 -0.3737
  454MOL0     C61195   6.034   0.769   3.760 -0.2102  0.4529  0.2207
  454MOL0     C61196   6.030   0.621   3.811  1.0395  0.1024 -0.3148
  454MOL0     C61197   5.905   0.553   3.777  2.1061  0.5351 -0.5551
  454MOL0     C61198   5.771   0.634   3.784 -0.2908  0.3810  0.4397
  454MOL0    Cl61199   5.727   0.722   3.938  0.2694 -0.0395  0.3349
  454MOL0     C61200   6.660   1.289   3.593 -0.3354 -0.5086 -0.4417
  454MOL0     C61201   6.723   1.362   3.502 -0.9406 -0.3724  0.7440
  454MOL0     O61202   6.699   1.685   3.445 -0.3059 -0.1326 -0.3765
  454MOL0     C61203   6.843   1.681   3.121 -0.5068  1.1176 -0.6917
  454MOL0     C61204   6.945   1.748   3.044  0.5256 -0.6079 -0.4414
  454MOL0     N61205   7.186   2.065   2.571  0.0191 -0.0103 -0.2474
  454MOL0     N61206   7.126   1.958   2.541  0.5718 -0.7677  0.3684
  454MOL0     C61207   6.182   1.424   2.965  0.4939  0.0579 -0.1481
  454MOL0     C61208   6.079   1.401   3.053 -0.0254 -0.3674 -0.5940
  454MOL0     C61209   5.741   1.482   3.345 -0.5283 -0.9562  0.3244
  454MOL0     C61210   5.790   1.523   3.468  0.1655  0.0336 -0.4462
  454MOL0     C61211   5.708   1.521   3.582  0.4106 -0.1120  0.7409
  454MOL0     C61212   5.579   1.486   3.579  0.5295  0.2783 -0.2973
  454MOL0     O61213   5.510   1.470   3.698  0.2988 -0.1036 -0.2791
  454MOL0     C61214   5.439   1.583   3.754  0.1744  0.6082 -0.3392
  454MOL0     C61215   5.448   1.571   3.914 -0.3559  0.6898  1.0478
  454MOL0     C61216   5.567   1.659   3.966 -0.1479 -0.3021  0.8305
  454MOL0     C61217   5.585   1.647   4.117  0.8710  0.3931  0.4358
  454MOL0     C61218   5.676   1.533   4.148  0.6440  0.6491  0.4264
  454MOL0     C61219   5.752   1.440   4.171  0.3116 -0.7962  0.0155
  454MOL0     C61220   5.517   1.460   3.458  0.7695  0.4107 -0.1776
  454MOL0     C61221   5.594   1.458   3.343  0.2673  0.2307  0.7685
  454MOL0     C61222   5.525   1.414   3.220  0.1642  0.4807  0.3916
  454MOL0     H61223   6.124   1.691   3.225  0.3140  0.9661 -0.5054
  454MOL0     H61224   6.283   1.737   3.028 -3.0483  1.0394 -1.6356
  454MOL0     H61225   6.306   1.396   2.738  2.0521  0.2458 -1.6139
  454MOL0     H61226   6.265   1.539   2.638  1.4104 -2.7212 -2.7806
  454MOL0     H61227   6.434   1.433   2.555 -2.0994  0.6080 -0.6128
  454MOL0     H61228   6.520   1.416   2.719 -0.4134  1.7014  0.7515
  454MOL0     H61229   6.506   1.682   2.711 -2.4562 -0.3085  0.1834
  454MOL0     H61230   6.463   1.673   2.548  1.8373  1.7399 -0.2294
  454MOL0     H61231   6.690   1.544   2.507 -1.0266 -1.8947  1.5787
  454MOL0     H61232   6.693   1.717   2.552 -0.0935 -0.4878 -0.0145
  454MOL0     H61233   6.731   1.646   2.790 -3.2808 -0.1492 -1.3220
  454MOL0     H61234   6.747   1.478   2.734  1.8249 -0.1069 -0.3955
  454MOL0     H61235   6.967   1.520   2.723 -0.0573  0.5753  0.7043
  454MOL0     H61236   6.899   1.530   2.558 -2.2236  1.6225 -0.5391
  454MOL0     H61237   6.933   1.777   2.734  0.0605 -1.2971  0.9278
  454MOL0     H61238   6.902   1.781   2.569  0.2242  1.1687  2.1175
  454MOL0     H61239   7.158   1.668   2.706  1.2810  1.0122 -0.3983
  454MOL0     H61240   7.129   1.685   2.533 -0.6042  2.3579 -1.4222
  454MOL0     H61241   7.305   1.871   2.800  1.2847  0.8525 -0.8354
  454MOL0     H61242   7.448   2.116   2.760 -0.2093  0.3778  1.5139
  454MOL0     H61243   7.331   2.244   2.737  0.8334  0.4217  0.2913
  454MOL0     H61244   7.330   2.026   2.949  0.2238 -0.5272 -2.2034
  454MOL0     H61245   7.374   2.202   2.976  3.7169 -0.3730 -3.1751
  454MOL0     H61246   7.132   2.244   2.918 -2.2051  1.5737  2.3139
  454MOL0     H61247   7.156   2.169   3.077 -2.3389 -4.3859  0.5317
  454MOL0     H61248   7.048   1.997   2.837 -0.4924  0.0816  0.6686
  454MOL0     H61249   6.955   2.066   2.971 -1.0257  3.2035 -1.6319
  454MOL0     H61250   7.013   1.987   3.276  4.2635 -0.8276 -0.5783
  454MOL0     H61251   6.862   1.858   3.400 -2.2607 -1.3989 -0.3441
  454MOL0     H61252   6.460   1.476   3.324 -2.4632 -0.0938  1.9082
  454MOL0     H61253   6.339   1.322   3.493 -0.7186 -0.4247 -1.3097
  454MOL0     H61254   6.271   1.216   3.680 -0.4880 -0.6721 -0.1859
  454MOL0     H61255   6.341   1.095   3.563  0.7166 -1.2168 -0.3127
  454MOL0     H61256   6.400   0.940   3.759 -0.9522 -1.9676 -2.4907
  454MOL0     H61257   6.313   1.067   3.859  3.6947 -1.1198  0.4695
  454MOL0     H61258   6.111   1.018   3.730 -0.1776 -0.5524  0.9744
  454MOL0     H61259   6.211   0.920   3.618  2.9276  1.4524  0.5804
  454MOL0     H61260   6.188   0.845   3.900  2.3635  1.0754 -0.9354
  454MOL0     H61261   6.255   0.752   3.778 -1.7802 -2.4300 -2.8782
  454MOL0     H61262   6.009   0.777   3.654 -0.0904 -3.3451 -0.2030
  454MOL0     H61263   5.964   0.833   3.816  0.7727  1.3594  0.4468
  454MOL0     H61264   6.115   0.557   3.782  2.1021  1.5288 -0.4298
  454MOL0     H61265   6.030   0.617   3.921  2.1597  1.0332 -0.2691
  454MOL0     H61266   5.897   0.465   3.841 -1.0194  0.5599 -0.7403
  454MOL0     H61267   5.932   0.513   3.680  3.6339 -2.8780  1.1344
  454MOL0     H61268   5.781   0.699   3.696  1.0930  0.0286  0.3235
  454MOL0     H61269   5.695   0.557   3.764 -0.0975  0.2918  0.0397
  454MOL0     H61270   6.739   1.259   3.661  0.4861  1.8781 -0.2451
  454MOL0     H61271   6.831   1.373   3.501 -1.0636  1.2413  1.6403
  454MOL0     H61272   6.794   1.591   3.085  1.1886  0.2827 -1.0156
  454MOL0     H61273   6.975   1.704   2.950 -1.9827 -3.4917 -0.0438
  454MOL0     H61274   6.199   1.347   2.891  1.6770  1.5565 -1.5376
  454MOL0     H61275   6.023   1.309   3.039  2.3481 -1.9867 -0.0533
  454MOL0     H61276   5.898   1.534   3.481 -0.1392  0.3973  2.5211
  454MOL0     H61277   5.756   1.553   3.674  0.9528  1.3566 -0.0124
  454MOL0     H61278   5.333   1.580   3.726  0.1531  2.8809 -0.6486
  454MOL0     H61279   5.487   1.674   3.718  1.1979  0.4962  0.6631
  454MOL0     H61280   5.463   1.470   3.950  1.2351  0.7119  0.4960
  454MOL0     H61281   5.357   1.613   3.960 -2.2309 -4.5162  2.8288
  454MOL0     H61282   5.558   1.764   3.939  0.8330  0.0000  1.6011
  454MOL0     H61283   5.650   1.612   3.912 -1.7369 -0.4265 -1.6470
  454MOL0     H61284   5.630   1.742   4.146 -1.4822  1.9422 -0.7481
  454MOL0     H61285   5.492   1.627   4.171  1.0236  1.1456  0.9888
  454MOL0     H61286   5.820   1.362   4.199  2.0502  0.2397 -1.1622
  454MOL0     H61287   5.411   1.442   3.452  0.5500  1.1326  1.1706
  454MOL0     H61288   5.520   1.487   3.138 -2.2690 -1.8880 -1.7764
  454MOL0     H61289   5.572   1.326   3.174  4.5045  2.4976  0.4501
  454MOL0     H61290   5.418   1.401   3.234  0.3327  0.6906  2.0775
  455MOL0     O61291   5.226   0.623   6.480  0.3056 -0.5793 -0.3939
  455MOL0     C61292   5.139   0.707   6.502  0.1584 -0.3783 -0.6474
  455MOL0     O61293   4.997   0.679   6.509 -0.2704  0.8023  0.7599
  455MOL0     C61294   4.971   0.554   6.551 -0.3728  0.4077  0.0516
  455MOL0     C61295   4.915   0.520   6.675 -0.4219  0.1499 -0.1171
  455MOL0     C61296   4.879   0.388   6.710 -0.8124  0.0469  0.5898
  455MOL0     C61297   4.894   0.289   6.611  0.4276 -0.4207  0.2465
  455MOL0     O61298   4.879   0.157   6.634  0.6783  0.4490  0.1267
  455MOL0     C61299   4.915   0.114   6.763  0.1307  0.0229 -0.3581
  455MOL0     C61300   4.855  -0.025   6.777  0.7765  0.6852  0.5801
  455MOL0     C61301   4.918  -0.088   6.903  0.0224 -1.0447 -0.0490
  455MOL0     C61302   5.070  -0.120   6.897  0.1892 -0.4745  0.4653
  455MOL0     C61303   5.109  -0.190   7.027 -0.1720 -0.6660 -0.8846
  455MOL0     C61304   5.263  -0.231   7.022  0.8745 -0.3039 -0.4224
  455MOL0     C61305   5.307  -0.322   7.143 -0.4515  0.1004  0.4684
  455MOL0     C61306   5.296  -0.262   7.290 -0.6558 -1.1617  0.5766
  455MOL0     N61307   5.370  -0.133   7.295  0.3775 -0.6318 -0.2494
  455MOL0     C61308   5.511  -0.124   7.282  0.7513 -0.8198  0.3276
  455MOL0     C61309   5.537  -0.000   7.227  1.0433  0.1272 -1.1263
  455MOL0     C61310   5.681   0.039   7.185  0.3912  0.1169  0.0367
  455MOL0     C61311   5.760   0.089   7.310  0.3741  0.3830  0.3031
  455MOL0     C61312   5.900   0.139   7.291  1.2725 -0.1286 -0.4362
  455MOL0     C61313   5.999   0.027   7.243  0.7956 -0.3781  0.7400
  455MOL0     O61314   6.134   0.069   7.253 -0.3858  0.0432 -0.0725
  455MOL0     C61315   6.204   0.046   7.370  0.1431  0.4587 -0.2545
  455MOL0     C61316   6.340   0.078   7.380 -0.1553  0.3463 -0.2490
  455MOL0     C61317   6.409   0.080   7.504  0.3227 -0.2882  1.0179
  455MOL0     C61318   6.338   0.049   7.619  0.1818  0.0942  0.3035
  455MOL0     C61319   6.392   0.064   7.757 -0.5246 -0.0297 -0.1367
  455MOL0     O61320   6.303   0.067   7.867  0.2517 -0.0927 -0.4069
  455MOL0     C61321   6.354   0.058   7.996  0.2476  0.0245 -0.4610
  455MOL0     C61322   6.458  -0.030   8.029 -0.7847 -0.6919 -0.1072
  455MOL0     C61323   6.531  -0.018   8.146  0.1311  0.4388 -0.5880
  455MOL0     C61324   6.488   0.074   8.247 -0.0913  0.1876  0.3760
  455MOL0     O61325   6.538   0.079   8.380  0.6490  0.9128  0.0569
  455MOL0     C61326   6.677   0.101   8.397  0.1684 -1.1262  0.7724
  455MOL0     C61327   6.745  -0.026   8.433 -0.1632 -0.3848  0.7040
  455MOL0     C61328   6.899  -0.019   8.459  0.1388 -0.3013  0.3783
  455MOL0     C61329   6.959   0.035   8.326 -0.5618  0.2226 -0.5928
  455MOL0     C61330   7.111   0.052   8.339 -0.1484  0.0900 -0.3350
  455MOL0     C61331   7.191  -0.070   8.280  0.5501 -0.4660  0.7267
  455MOL0     C61332   7.344  -0.043   8.302  0.7050  0.0209 -0.1563
  455MOL0     C61333   7.439  -0.160   8.265 -0.4985 -0.4905 -0.5079
  455MOL0    Cl61334   7.607  -0.092   8.271  0.1511 -0.1932 -0.6402
  455MOL0     C61335   6.374   0.150   8.220 -0.4321  0.4622 -0.5237
  455MOL0     C61336   6.307   0.144   8.098 -0.8272  0.7650  1.1773
  455MOL0     O61337   6.513   0.070   7.768  0.0951 -0.3621 -0.6794
  455MOL0     C61338   6.203   0.019   7.607 -0.4381 -0.2750 -0.9882
  455MOL0     C61339   6.145   0.010   7.489 -0.2381  0.4750 -0.0967
  455MOL0     N61340   5.415   0.065   7.219  0.5577 -0.0585 -0.3042
  455MOL0     N61341   5.320  -0.011   7.258  0.4046  0.2647  0.9623
  455MOL0     C61342   4.938   0.326   6.482  0.2636  0.9733  0.1728
  455MOL0     C61343   4.982   0.452   6.456 -0.2542 -0.5975 -0.2832
  455MOL0     C61344   5.174   0.847   6.515 -1.6773 -0.6899  0.5235
  455MOL0     C61345   5.074   0.944   6.544  0.7199  0.2498  0.2618
  455MOL0     C61346   5.099   1.079   6.561 -0.1820 -0.1001  0.0819
  455MOL0     C61347   5.234   1.121   6.556  0.8611  0.4917  0.2460
  455MOL0     O61348   5.251   1.251   6.593  0.2713  0.2999  0.4134
  455MOL0     C61349   5.344   1.285   6.690 -0.3542  0.0578  0.1680
  455MOL0     C61350   5.280   1.325   6.823 -0.0284  0.2964 -0.3459
  455MOL0     C61351   5.171   1.433   6.804  1.0727  0.2268  0.2225
  455MOL0     C61352   5.094   1.455   6.931  0.4432  0.0063  0.2262
  455MOL0     C61353   5.178   1.529   7.028  0.1530 -0.1633  0.0015
  455MOL0     C61354   5.253   1.603   7.082 -0.5583  1.0167  0.3196
  455MOL0     C61355   5.341   1.034   6.535 -0.0076 -0.3549  0.7498
  455MOL0     C61356   5.316   0.897   6.519 -0.5217  0.3448 -0.2537
  455MOL0     C61357   5.441   0.814   6.512 -0.1726  0.1993  0.1943
  455MOL0     H61358   4.909   0.600   6.748 -2.5550 -0.5272  0.5485
  455MOL0     H61359   4.833   0.361   6.805 -3.7953  3.0981  0.1887
  455MOL0     H61360   5.024   0.126   6.770  0.0104  1.3626 -0.5438
  455MOL0     H61361   4.870   0.169   6.847  1.6322 -1.0966  1.2580
  455MOL0     H61362   4.861  -0.096   6.694  1.6332  0.4254  0.8555
  455MOL0     H61363   4.749  -0.003   6.792  0.8468  3.2627 -1.8803
  455MOL0     H61364   4.863  -0.176   6.936 -0.0671 -0.6733  0.8267
  455MOL0     H61365   4.899  -0.009   6.976 -1.4440 -0.6359 -0.8429
  455MOL0     H61366   5.087  -0.188   6.813 -1.3603 -0.4462  0.1020
  455MOL0     H61367   5.129  -0.028   6.885 -1.3248  0.2918 -1.7471
  455MOL0     H61368   5.108  -0.112   7.104  3.4103  0.8327 -2.1413
  455MOL0     H61369   5.040  -0.269   7.059 -1.7297 -0.2433 -3.0383
  455MOL0     H61370   5.282  -0.282   6.926 -0.1974 -1.3641 -0.1032
  455MOL0     H61371   5.326  -0.143   7.033 -1.1451  0.9501  2.3297
  455MOL0     H61372   5.412  -0.343   7.120 -0.7662 -1.7985  0.5958
  455MOL0     H61373   5.249  -0.414   7.138 -2.4901  1.1727  2.4779
  455MOL0     H61374   5.192  -0.241   7.316 -0.3343  1.2954  0.1559
  455MOL0     H61375   5.343  -0.327   7.365 -0.1988  0.5736  1.8619
  455MOL0     H61376   5.579  -0.209   7.289 -1.6752 -3.0077 -0.8599
  455MOL0     H61377   5.717  -0.057   7.146 -2.7236  0.0756 -3.3087
  455MOL0     H61378   5.691   0.112   7.103  1.6782  0.7789  0.7571
  455MOL0     H61379   5.714   0.177   7.356  2.9068  3.3133 -2.3505
  455MOL0     H61380   5.766   0.012   7.388  0.1386 -1.3216 -1.2984
  455MOL0     H61381   5.938   0.178   7.386 -2.0552 -1.2673  1.5177
  455MOL0     H61382   5.883   0.225   7.225 -1.9669  0.2094  0.6824
  455MOL0     H61383   5.977   0.003   7.138  0.0056  0.9148  0.5825
  455MOL0     H61384   5.981  -0.066   7.298  0.3026 -0.3461  0.6353
  455MOL0     H61385   6.391   0.117   7.292  0.3709 -0.4129 -0.2859
  455MOL0     H61386   6.513   0.110   7.506  0.5494 -0.7366 -1.2514
  455MOL0     H61387   6.500  -0.091   7.949 -0.4575 -0.2353 -0.2905
  455MOL0     H61388   6.616  -0.086   8.148  0.5328  0.8649 -2.1074
  455MOL0     H61389   6.708   0.151   8.305 -0.0364 -0.5625  1.0060
  455MOL0     H61390   6.694   0.170   8.480  1.4209 -0.0644 -0.3221
  455MOL0     H61391   6.702  -0.071   8.523  2.0910  0.3594  2.2333
  455MOL0     H61392   6.730  -0.102   8.356 -1.4355 -1.0168  1.5321
  455MOL0     H61393   6.911   0.048   8.545  1.7066  1.0649 -0.8576
  455MOL0     H61394   6.951  -0.112   8.487  2.1891  0.1131 -1.7672
  455MOL0     H61395   6.925   0.134   8.295 -1.0191  0.1996 -0.1796
  455MOL0     H61396   6.933  -0.043   8.255 -0.3391 -2.7008  2.3068
  455MOL0     H61397   7.139   0.067   8.444  0.8746 -0.8298 -0.4526
  455MOL0     H61398   7.140   0.142   8.285 -0.7720  0.7403  0.3929
  455MOL0     H61399   7.170  -0.168   8.323 -0.9881 -0.6177 -0.3184
  455MOL0     H61400   7.179  -0.070   8.171  2.6467 -0.6884  0.4551
  455MOL0     H61401   7.365  -0.031   8.409  0.1266  0.5509 -0.0948
  455MOL0     H61402   7.362   0.047   8.243  1.2931 -0.6044 -0.9442
  455MOL0     H61403   7.417  -0.251   8.320  1.6387 -0.9148 -0.2598
  455MOL0     H61404   7.426  -0.192   8.161 -0.3710 -3.0258  0.1941
  455MOL0     H61405   6.336   0.222   8.292  0.6575  0.0804  0.4509
  455MOL0     H61406   6.232   0.217   8.070 -0.0179  0.9918 -0.5347
  455MOL0     H61407   6.145  -0.017   7.692  1.2714  1.9785  1.3069
  455MOL0     H61408   6.044  -0.025   7.476  0.5262 -0.7522 -4.5009
  455MOL0     H61409   4.948   0.247   6.408  1.1410  1.6493 -0.4563
  455MOL0     H61410   5.023   0.469   6.356 -0.4937 -0.8562 -0.4255
  455MOL0     H61411   4.967   0.924   6.549  0.6318  0.6140 -0.1109
  455MOL0     H61412   5.033   1.159   6.590 -2.6877 -2.6416  1.8663
  455MOL0     H61413   5.406   1.368   6.654 -0.2026 -0.4649 -0.8102
  455MOL0     H61414   5.412   1.201   6.707 -1.3163 -1.0718 -1.3074
  455MOL0     H61415   5.349   1.356   6.902 -0.5613 -1.0872  0.7089
  455MOL0     H61416   5.227   1.237   6.862  0.3792  0.6200  0.9738
  455MOL0     H61417   5.094   1.410   6.730 -2.8204  3.2748  2.9032
  455MOL0     H61418   5.208   1.530   6.770  2.7577 -0.5048 -0.1428
  455MOL0     H61419   5.001   1.507   6.906  0.7202 -0.6410 -2.4706
  455MOL0     H61420   5.060   1.363   6.980 -2.7120  1.5342  1.1925
  455MOL0     H61421   5.336   1.660   7.119 -1.7087  2.7375  0.3585
  455MOL0     H61422   5.444   1.069   6.546 -0.0028 -0.3851  0.8000
  455MOL0     H61423   5.474   0.796   6.409 -2.8966  1.1910 -0.9236
  455MOL0     H61424   5.528   0.859   6.563  2.3985 -5.0831  1.2292
  455MOL0     H61425   5.422   0.722   6.569 -2.8069 -0.2594 -1.3153
  456MOL0     O61426   8.858   6.743   6.333  0.0055  0.2265  0.0960
  456MOL0     C61427   8.869   6.668   6.435 -0.2936 -0.4263 -0.2354
  456MOL0     O61428   8.829   6.695   6.561 -0.5012 -0.5410  0.4431
  456MOL0     C61429   8.751   6.807   6.596  0.4075  1.0248 -0.0618
  456MOL0     C61430   8.636   6.855   6.532  0.0206  0.5613  0.5217
  456MOL0     C61431   8.571   6.970   6.564 -0.1793 -0.1817  0.1941
  456MOL0     C61432   8.613   7.041   6.681  0.3489 -0.3092 -0.5262
  456MOL0     O61433   8.570   7.167   6.724 -0.6918 -0.2335  1.2687
  456MOL0     C61434   8.518   7.253   6.624  0.3997 -0.3053 -0.5984
  456MOL0     C61435   8.562   7.400   6.653 -0.7451  0.7184 -0.2957
  456MOL0     C61436   8.489   7.458   6.778  0.6641 -0.6152  0.3110
  456MOL0     C61437   8.532   7.611   6.784  0.1423 -0.7593 -0.5313
  456MOL0     C61438   8.684   7.637   6.817  0.3951  0.4756 -0.2078
  456MOL0     C61439   8.720   7.782   6.849  0.3101 -0.7396  0.3480
  456MOL0     C61440   8.857   7.795   6.915  0.9026  0.0410 -0.5668
  456MOL0     C61441   8.923   7.935   6.920 -0.4429 -0.9151  0.2153
  456MOL0     N61442   9.052   7.944   6.984 -0.2226  0.3693 -1.5351
  456MOL0     C61443   9.172   7.891   6.948 -0.0407  0.2748  0.0459
  456MOL0     C61444   9.259   7.923   7.055 -0.4341  0.7923  0.1908
  456MOL0     C61445   9.408   7.884   7.055 -0.8137 -0.2461  0.1986
  456MOL0     C61446   9.426   7.730   7.034  0.2417 -0.0622  0.3378
  456MOL0     C61447   9.565   7.669   7.051 -0.2431  0.2089 -0.4309
  456MOL0     C61448   9.556   7.512   7.039  0.4307 -0.5240 -0.3332
  456MOL0     O61449   9.688   7.463   7.007  0.1122 -0.0018 -0.1149
  456MOL0     C61450   9.725   7.408   6.880  0.1281  0.3652 -0.4196
  456MOL0     C61451   9.823   7.307   6.889 -1.4195 -0.4175  0.0745
  456MOL0     C61452   9.873   7.248   6.775  0.7343 -0.5379 -0.3525
  456MOL0     C61453   9.822   7.278   6.647 -0.4634 -0.1464  0.6299
  456MOL0     C61454   9.905   7.236   6.529 -0.3603 -0.1364  0.1748
  456MOL0     O61455   9.858   7.285   6.411  0.1179 -0.7062  0.3340
  456MOL0     C61456   9.921   7.257   6.293 -0.0184  0.2529  0.5589
  456MOL0     C61457   9.872   7.160   6.205 -0.4219  0.0622 -0.1415
  456MOL0     C61458   9.955   7.122   6.094 -0.0202  0.6412  0.8908
  456MOL0     C61459  10.071   7.188   6.061 -0.6402  0.0332  0.8101
  456MOL0     O61460  10.163   7.168   5.956  0.2763 -0.5068  0.3359
  456MOL0     C61461  10.183   7.030   5.922 -0.0448  0.8912  0.8357
  456MOL0     C61462  10.319   7.001   5.861 -0.3841 -0.5170  0.4145
  456MOL0     C61463  10.342   6.852   5.838 -0.0827 -0.8074 -0.3224
  456MOL0     C61464  10.244   6.803   5.727  1.3499  0.1649  0.6080
  456MOL0     C61465  10.313   6.696   5.654  0.3606  0.9256  0.5126
  456MOL0     C61466  10.353   6.578   5.743 -0.5877  0.5670 -0.9854
  456MOL0     C61467  10.241   6.471   5.779  0.2198 -0.6627  0.2568
  456MOL0     C61468  10.288   6.367   5.886  1.1292  0.4433 -0.0372
  456MOL0    Cl61469  10.180   6.229   5.899 -0.4196 -0.0342  0.2868
  456MOL0     C61470  10.106   7.299   6.137  0.0327  0.6145  0.2271
  456MOL0     C61471  10.042   7.322   6.259 -0.3165 -0.2901 -0.0010
  456MOL0     O61472  10.005   7.175   6.540 -0.2707  1.0840 -0.0207
  456MOL0     C61473   9.722   7.379   6.642  0.1644  0.1056  0.2292
  456MOL0     C61474   9.674   7.442   6.760  0.0783  0.4420 -0.3659
  456MOL0     N61475   9.186   7.995   7.149  0.0121 -0.0366 -0.1406
  456MOL0     N61476   9.070   8.006   7.108  0.7516  0.5037 -0.1332
  456MOL0     C61477   8.712   6.987   6.761 -0.0778  0.1813  0.4703
  456MOL0     C61478   8.790   6.869   6.718 -0.0797  0.3625  0.1645
  456MOL0     C61479   8.897   6.531   6.404  0.9644  0.1666 -0.3844
  456MOL0     C61480   8.835   6.429   6.472  0.3104 -0.5048 -0.2832
  456MOL0     C61481   8.860   6.296   6.442 -1.1936 -0.0509 -0.8689
  456MOL0     C61482   8.944   6.250   6.339  1.0390  0.0146 -0.2448
  456MOL0     O61483   8.989   6.125   6.319 -0.6601  0.0856  0.4452
  456MOL0     C61484   8.931   6.017   6.397 -0.7174  0.3308  0.0778
  456MOL0     C61485   8.786   5.994   6.363  0.2317 -0.1617 -0.7452
  456MOL0     C61486   8.761   5.914   6.239 -1.2097 -0.2860 -0.0097
  456MOL0     C61487   8.621   5.860   6.222 -0.4644 -0.3009  1.2047
  456MOL0     C61488   8.619   5.768   6.102  0.1048 -0.0771  0.3443
  456MOL0     C61489   8.603   5.702   5.999  0.5419 -0.6796  0.2956
  456MOL0     C61490   9.005   6.357   6.265  0.2252  1.1601 -0.0639
  456MOL0     C61491   8.990   6.494   6.302  0.8541 -0.6337  0.6436
  456MOL0     C61492   9.070   6.598   6.229 -0.2714  0.7037 -0.0888
  456MOL0     H61493   8.616   6.796   6.443  0.5094  0.1345  0.6876
  456MOL0     H61494   8.491   7.013   6.505  0.7574  0.7613 -0.4252
  456MOL0     H61495   8.562   7.223   6.528  1.7178  0.0705 -0.1431
  456MOL0     H61496   8.409   7.248   6.623  0.1475  1.2032  3.1979
  456MOL0     H61497   8.567   7.465   6.566  1.6614  2.3863  0.9922
  456MOL0     H61498   8.670   7.391   6.669 -0.9485 -0.0142  0.8473
  456MOL0     H61499   8.524   7.418   6.873 -4.0389 -2.0554  1.6841
  456MOL0     H61500   8.381   7.445   6.765  0.5070 -2.0416  2.6073
  456MOL0     H61501   8.506   7.661   6.689 -1.7997 -2.1154 -0.7710
  456MOL0     H61502   8.481   7.663   6.866  1.4680  0.3198 -0.3523
  456MOL0     H61503   8.704   7.569   6.900 -2.8793 -0.4616 -0.0376
  456MOL0     H61504   8.739   7.607   6.728  1.9245  0.2424  0.7728
  456MOL0     H61505   8.716   7.850   6.764  1.8430  1.1947  1.7339
  456MOL0     H61506   8.645   7.839   6.904  1.8814  0.7545  1.0312
  456MOL0     H61507   8.926   7.734   6.857  1.3417  0.9186 -0.9911
  456MOL0     H61508   8.839   7.755   7.015  0.2723  2.5778  0.4172
  456MOL0     H61509   8.951   7.956   6.817 -0.5695 -0.6574  0.2349
  456MOL0     H61510   8.848   8.005   6.956  0.6762  0.2762  0.3231
  456MOL0     H61511   9.203   7.844   6.856  3.9575  0.1502  1.2578
  456MOL0     H61512   9.470   7.933   6.980 -1.9861  3.2466  1.3055
  456MOL0     H61513   9.447   7.910   7.154  0.7510  1.1471 -0.7499
  456MOL0     H61514   9.359   7.673   7.099  1.4927 -0.9582  0.8771
  456MOL0     H61515   9.388   7.711   6.933 -0.2371  1.4922  0.1951
  456MOL0     H61516   9.606   7.693   7.150 -0.9381 -2.3142  0.5755
  456MOL0     H61517   9.639   7.711   6.983  4.2250 -3.1940  1.8354
  456MOL0     H61518   9.476   7.481   6.972 -4.1109  1.7042  3.4976
  456MOL0     H61519   9.524   7.485   7.140  0.4518 -2.5941 -0.8421
  456MOL0     H61520   9.856   7.286   6.990 -3.1421  1.8908  1.2146
  456MOL0     H61521   9.969   7.200   6.789 -0.0034 -2.5273 -1.7549
  456MOL0     H61522   9.781   7.105   6.227  0.0941 -0.3356  1.1109
  456MOL0     H61523   9.935   7.039   6.026 -1.0682 -0.7050  2.7580
  456MOL0     H61524  10.170   6.969   6.012 -3.0043 -0.4866 -0.3936
  456MOL0     H61525  10.106   6.992   5.855  2.5337 -2.2722 -0.6657
  456MOL0     H61526  10.340   7.056   5.769  1.4743 -0.8775  0.5762
  456MOL0     H61527  10.393   7.047   5.928 -1.9079  2.2170  0.3673
  456MOL0     H61528  10.446   6.855   5.802  0.1521 -0.9528  0.3348
  456MOL0     H61529  10.317   6.796   5.929 -4.0971  2.6343  0.9987
  456MOL0     H61530  10.231   6.885   5.656 -0.5548 -1.5235 -1.1041
  456MOL0     H61531  10.149   6.760   5.760  1.0714  0.0167 -0.3594
  456MOL0     H61532  10.406   6.721   5.603  0.9859 -1.7190  0.2003
  456MOL0     H61533  10.241   6.661   5.579 -0.8470  2.9562  0.6684
  456MOL0     H61534  10.434   6.527   5.690 -0.3561  1.7009 -1.7412
  456MOL0     H61535  10.408   6.624   5.826  0.0037  1.5814 -1.9164
  456MOL0     H61536  10.213   6.422   5.685 -0.1057  1.0104 -0.5456
  456MOL0     H61537  10.153   6.522   5.820  1.4412  0.6800  1.3110
  456MOL0     H61538  10.392   6.340   5.869  1.2267  1.2157 -0.7192
  456MOL0     H61539  10.278   6.423   5.980 -0.1600  0.3404 -0.0974
  456MOL0     H61540  10.201   7.336   6.100 -0.6606 -2.2715 -5.7554
  456MOL0     H61541  10.095   7.391   6.324 -0.7053  0.6854 -0.7054
  456MOL0     H61542   9.685   7.403   6.542  1.2915  0.2072 -0.1803
  456MOL0     H61543   9.622   7.537   6.751  2.1290  1.7395  0.7462
  456MOL0     H61544   8.735   7.037   6.855 -0.4007  1.3140 -0.0327
  456MOL0     H61545   8.871   6.837   6.782  0.3178 -2.3978 -1.5464
  456MOL0     H61546   8.744   6.449   6.528 -1.5102 -3.8588 -1.7444
  456MOL0     H61547   8.804   6.229   6.506 -0.3431  0.9558  1.0130
  456MOL0     H61548   8.943   6.042   6.503  1.0186 -0.5007  0.1194
  456MOL0     H61549   8.986   5.926   6.372 -1.8289 -0.2807 -0.2148
  456MOL0     H61550   8.730   6.086   6.346 -1.3614 -0.9761 -0.1597
  456MOL0     H61551   8.752   5.939   6.451 -1.0537  0.2907 -0.9361
  456MOL0     H61552   8.835   5.834   6.250  2.0018  2.3390 -0.7960
  456MOL0     H61553   8.801   5.971   6.154  2.6724 -0.5460  1.4510
  456MOL0     H61554   8.596   5.801   6.311 -2.3933 -2.8107 -0.8352
  456MOL0     H61555   8.549   5.942   6.214  0.4628  0.4184 -0.2166
  456MOL0     H61556   8.589   5.634   5.918 -0.6351  0.9333 -0.9219
  456MOL0     H61557   9.079   6.321   6.193 -0.6137 -2.4948  0.6928
  456MOL0     H61558   9.015   6.656   6.154  1.4535  3.0664  0.3666
  456MOL0     H61559   9.112   6.665   6.304 -0.4917 -1.8383  2.4738
  456MOL0     H61560   9.154   6.546   6.182 -0.8010  0.2053 -0.5015
  457MOL0     O61561   7.468   6.326  10.583 -0.1450  0.3903  0.7568
  457MOL0     C61562   7.565   6.248  10.579 -0.4357  0.5058 -0.2603
  457MOL0     O61563   7.662   6.251  10.675  0.1932 -0.4037  0.1403
  457MOL0     C61564   7.647   6.348  10.771 -0.2277 -0.2830 -0.3352
  457MOL0     C61565   7.593   6.323  10.898 -0.5707  0.5617  0.1593
  457MOL0     C61566   7.572   6.419  10.991  0.1688  0.4881  0.0551
  457MOL0     C61567   7.596   6.553  10.972 -0.0418  0.2378  0.0529
  457MOL0     O61568   7.567   6.648  11.064 -0.0725  0.0811  0.1615
  457MOL0     C61569   7.457   6.632  11.157 -0.4636  0.5926 -0.3485
  457MOL0     C61570   7.316   6.600  11.101  0.1300 -0.3442 -0.3016
  457MOL0     C61571   7.277   6.698  10.993  0.7282  0.0769  0.4058
  457MOL0     C61572   7.128   6.687  10.952  0.9245  0.1033  0.6249
  457MOL0     C61573   7.066   6.776  10.843 -0.6675  0.3926 -0.1533
  457MOL0     C61574   7.073   6.928  10.872 -0.2902  0.4584 -0.5557
  457MOL0     C61575   6.976   7.011  10.782 -0.3988  0.7065 -0.0730
  457MOL0     C61576   6.985   6.963  10.640 -0.1101  0.4143  0.2586
  457MOL0     N61577   6.911   7.049  10.561  0.4066 -0.4461  0.0385
  457MOL0     C61578   6.778   7.036  10.553  0.1630  0.7799 -0.2240
  457MOL0     C61579   6.747   7.133  10.464 -0.1158 -0.2898 -0.5047
  457MOL0     C61580   6.615   7.144  10.391 -0.7044 -0.3074 -0.7365
  457MOL0     C61581   6.543   7.014  10.365 -0.4948 -0.1771  1.0160
  457MOL0     C61582   6.408   7.036  10.291 -0.8018 -0.4411 -0.1086
  457MOL0     C61583   6.421   7.043  10.141  0.2725  0.1452 -0.3606
  457MOL0     O61584   6.445   6.909  10.084  1.0404 -0.5709 -0.2145
  457MOL0     C61585   6.512   6.897   9.966 -0.6718 -0.0134 -0.1169
  457MOL0     C61586   6.489   6.970   9.845  0.2613 -0.3653  0.2769
  457MOL0     C61587   6.548   6.940   9.722  0.8620  1.1686  0.4367
  457MOL0     C61588   6.632   6.829   9.716 -0.9288 -0.2849  0.0655
  457MOL0     C61589   6.696   6.796   9.589 -0.2531  0.3897 -0.4217
  457MOL0     O61590   6.693   6.662   9.562  0.3827  0.0975 -0.2201
  457MOL0     C61591   6.770   6.607   9.459 -0.3775 -0.3092  0.3799
  457MOL0     C61592   6.902   6.648   9.430  0.0762  0.4550  0.2473
  457MOL0     C61593   6.972   6.573   9.333  0.6489  0.6481  0.1122
  457MOL0     C61594   6.908   6.480   9.252 -0.2414 -0.4500  0.0839
  457MOL0     O61595   6.955   6.415   9.136 -0.0742  0.7341 -0.0077
  457MOL0     C61596   7.102   6.398   9.137  1.0050 -0.7186 -1.0225
  457MOL0     C61597   7.138   6.256   9.083 -0.2771  0.2064 -1.1783
  457MOL0     C61598   7.073   6.146   9.166 -0.2888 -0.4746  0.4569
  457MOL0     C61599   7.120   6.009   9.113  0.4905  0.1630 -0.6852
  457MOL0     C61600   7.025   5.900   9.161  0.2853  0.9567  0.7649
  457MOL0     C61601   7.098   5.788   9.239 -0.2924 -0.8168  0.8966
  457MOL0     C61602   6.996   5.694   9.303  0.1434  0.1344  0.7960
  457MOL0     C61603   7.059   5.561   9.333  0.5794  0.7935 -0.0399
  457MOL0    Cl61604   7.222   5.581   9.404  0.0811  0.5254 -0.1520
  457MOL0     C61605   6.781   6.450   9.280  0.4608  0.0697  0.3088
  457MOL0     C61606   6.710   6.506   9.387 -0.6124  0.6012  0.9918
  457MOL0     O61607   6.733   6.880   9.517  0.7991  0.1495 -0.0554
  457MOL0     C61608   6.653   6.752   9.826  0.5526 -0.3788 -0.3150
  457MOL0     C61609   6.589   6.792   9.947 -0.2178 -0.1927 -0.1938
  457MOL0     N61610   6.862   7.201  10.433  0.6904  0.5563  0.4443
  457MOL0     N61611   6.965   7.145  10.483 -0.0673 -0.9392 -0.2665
  457MOL0     C61612   7.667   6.584  10.849  0.1704 -0.4338 -0.0064
  457MOL0     C61613   7.684   6.485  10.751 -0.1742  0.5146  0.2510
  457MOL0     C61614   7.584   6.174  10.463 -0.4663 -0.1303  1.1619
  457MOL0     C61615   7.520   6.220  10.342 -1.0753 -0.0529 -0.9955
  457MOL0     C61616   7.535   6.150  10.227 -0.3420  0.0791  0.0924
  457MOL0     C61617   7.597   6.032  10.219  0.1014  0.3841  0.1920
  457MOL0     O61618   7.585   5.972  10.096 -0.2910 -0.2877 -0.1505
  457MOL0     C61619   7.630   5.842  10.077  0.7176 -0.7339  0.1518
  457MOL0     C61620   7.629   5.820   9.924  0.3421  0.3430  0.5120
  457MOL0     C61621   7.628   5.668   9.905 -0.7952 -0.1074  0.4030
  457MOL0     C61622   7.492   5.598   9.931 -0.0083  0.5031 -0.1414
  457MOL0     C61623   7.381   5.654   9.852  0.9431 -0.3775  0.2528
  457MOL0     C61624   7.279   5.695   9.801  0.3010  0.4539 -0.2869
  457MOL0     C61625   7.661   5.980  10.333 -0.3978  0.0230 -0.0314
  457MOL0     C61626   7.656   6.054  10.453 -1.1079 -0.0044  0.3259
  457MOL0     C61627   7.709   5.979  10.571 -0.0618  0.7940  0.9864
  457MOL0     H61628   7.556   6.224  10.923  1.6874 -0.4354 -0.2150
  457MOL0     H61629   7.535   6.394  11.090 -1.0655 -0.8058 -0.6872
  457MOL0     H61630   7.483   6.554  11.230  2.8340  2.8864  1.1679
  457MOL0     H61631   7.447   6.717  11.224 -2.1182  1.1573 -1.2711
  457MOL0     H61632   7.244   6.618  11.181  0.4647  2.9091 -0.5927
  457MOL0     H61633   7.302   6.496  11.070 -0.7307  0.3376 -2.4193
  457MOL0     H61634   7.335   6.660  10.908 -0.5882 -2.6685  0.6239
  457MOL0     H61635   7.299   6.802  11.018 -3.8458  1.3803 -0.1670
  457MOL0     H61636   7.105   6.583  10.927  0.8802  0.8014 -2.6033
  457MOL0     H61637   7.061   6.712  11.035  1.5801  1.7209  0.7141
  457MOL0     H61638   7.107   6.759  10.743 -0.2940  2.1878 -0.3399
  457MOL0     H61639   6.958   6.758  10.839 -0.8116  1.1354  0.2385
  457MOL0     H61640   7.057   6.935  10.980  1.4434 -3.3857  0.1342
  457MOL0     H61641   7.178   6.955  10.859  0.4375 -0.8500  1.9729
  457MOL0     H61642   6.992   7.119  10.792 -1.4404  0.9280 -0.6536
  457MOL0     H61643   6.872   6.990  10.809 -0.5722 -0.8744 -1.7668
  457MOL0     H61644   7.088   6.968  10.604 -1.0315  2.2666 -2.4169
  457MOL0     H61645   6.947   6.861  10.628 -1.2345  0.8035  0.3456
  457MOL0     H61646   6.714   6.961  10.600 -0.7341  1.0612 -0.9715
  457MOL0     H61647   6.551   7.196  10.463 -0.1869 -0.8155  0.1112
  457MOL0     H61648   6.633   7.197  10.297  0.0181 -1.1110 -1.0574
  457MOL0     H61649   6.594   6.939  10.303 -0.0601 -0.9443  2.2711
  457MOL0     H61650   6.533   6.971  10.465 -0.6564  1.4287  1.7179
  457MOL0     H61651   6.357   7.126  10.327  0.7065  1.3468 -2.1479
  457MOL0     H61652   6.335   6.960  10.318 -0.7582 -0.6360 -0.5304
  457MOL0     H61653   6.501   7.113  10.115 -0.5182  0.4808 -2.0292
  457MOL0     H61654   6.336   7.087  10.087 -1.1158 -1.0503  0.7784
  457MOL0     H61655   6.427   7.058   9.854  0.1897 -0.3215 -0.5740
  457MOL0     H61656   6.522   6.996   9.633 -2.1334 -0.3706  0.2285
  457MOL0     H61657   6.958   6.719   9.490  0.4057 -1.5313  2.4036
  457MOL0     H61658   7.073   6.611   9.317  0.5033  0.0592 -2.7137
  457MOL0     H61659   7.135   6.477   9.069  1.9307 -0.2007  0.0110
  457MOL0     H61660   7.132   6.391   9.242 -0.2173 -1.2506 -0.6888
  457MOL0     H61661   7.122   6.235   8.977  1.7549 -3.2349 -0.9528
  457MOL0     H61662   7.245   6.257   9.108 -0.2826  0.6664 -1.1757
  457MOL0     H61663   7.111   6.160   9.267  0.5891  2.5952 -0.1870
  457MOL0     H61664   6.964   6.156   9.166 -0.6006 -2.6075 -1.8953
  457MOL0     H61665   7.222   5.998   9.149  0.6965 -1.2413 -1.6648
  457MOL0     H61666   7.127   6.008   9.004  0.0265 -0.3439 -0.7134
  457MOL0     H61667   6.979   5.859   9.071 -2.5337  1.7887  1.7383
  457MOL0     H61668   6.944   5.942   9.221 -2.0192 -0.9352 -0.8524
  457MOL0     H61669   7.153   5.730   9.165 -0.2007  2.1107 -1.5526
  457MOL0     H61670   7.163   5.836   9.312 -1.2418  3.2341 -0.6397
  457MOL0     H61671   6.915   5.682   9.231 -0.3816  0.4569  1.3167
  457MOL0     H61672   6.958   5.743   9.393 -3.6082  1.5093 -1.3326
  457MOL0     H61673   6.998   5.513   9.410  0.4592  0.2377 -0.4714
  457MOL0     H61674   7.053   5.502   9.241 -0.8756 -0.3710  0.7564
  457MOL0     H61675   6.729   6.377   9.219  1.6714 -2.0117  1.6560
  457MOL0     H61676   6.609   6.474   9.412  0.6151 -2.6689  2.3620
  457MOL0     H61677   6.720   6.667   9.830  0.0415 -0.8324 -1.0365
  457MOL0     H61678   6.618   6.739  10.038  0.0028 -2.5938 -1.5665
  457MOL0     H61679   7.706   6.684  10.830  0.7379 -0.5882  0.3228
  457MOL0     H61680   7.725   6.519  10.657 -0.3905 -3.3780 -1.4152
  457MOL0     H61681   7.470   6.316  10.333 -0.6438  0.3588  0.5955
  457MOL0     H61682   7.483   6.201  10.147 -2.1672  1.0509  1.8313
  457MOL0     H61683   7.555   5.781  10.129 -1.6247  0.8621 -1.1735
  457MOL0     H61684   7.725   5.816  10.126 -0.2969 -2.6448  1.2314
  457MOL0     H61685   7.715   5.868   9.877  2.0314 -2.9328  0.0373
  457MOL0     H61686   7.535   5.859   9.882 -0.9677  0.2910  3.1808
  457MOL0     H61687   7.709   5.635   9.971  0.2847 -0.5085 -1.0625
  457MOL0     H61688   7.663   5.636   9.806 -0.0659  0.2778  0.5296
  457MOL0     H61689   7.497   5.489   9.920  1.3172  0.7508 -2.8617
  457MOL0     H61690   7.469   5.623  10.035  1.0306  1.1178 -0.0450
  457MOL0     H61691   7.180   5.712   9.766  0.4970  2.1658 -0.0809
  457MOL0     H61692   7.694   5.877  10.329 -2.5991 -0.7180 -0.5680
  457MOL0     H61693   7.790   6.030  10.625  2.0623 -1.3132 -0.0561
  457MOL0     H61694   7.630   5.951  10.641 -0.1862  0.3467  0.6622
  457MOL0     H61695   7.758   5.885  10.546 -0.9165  0.1408  1.7273
  458MOL0     O61696  11.028   1.199   9.271 -0.0586 -0.2485 -0.7466
  458MOL0     C61697  11.112   1.246   9.349  1.0544 -0.6897 -0.1298
  458MOL0     O61698  11.219   1.305   9.315  0.2730  0.8940 -0.0556
  458MOL0     C61699  11.284   1.254   9.210  0.0975 -0.0885  1.2873
  458MOL0     C61700  11.227   1.273   9.078  0.6454 -0.6206  0.2574
  458MOL0     C61701  11.278   1.202   8.964 -0.8952 -0.8964  0.3590
  458MOL0     C61702  11.382   1.107   8.977 -0.5849  0.3787 -1.1320
  458MOL0     O61703  11.433   1.051   8.867  0.6870 -0.3386  0.1573
  458MOL0     C61704  11.347   1.008   8.762  0.6399  0.2685 -0.0579
  458MOL0     C61705  11.401   0.892   8.679  0.6490 -0.2281  0.1092
  458MOL0     C61706  11.517   0.946   8.593 -0.0046  0.2929 -0.6193
  458MOL0     C61707  11.529   0.850   8.466 -0.1894  0.3351 -0.7804
  458MOL0     C61708  11.591   0.930   8.342 -0.8318 -0.2500  0.4355
  458MOL0     C61709  11.740   0.949   8.357 -0.2926 -0.0079 -0.8960
  458MOL0     C61710  11.795   0.994   8.210 -0.2542  0.3750  0.1520
  458MOL0     C61711  11.929   1.073   8.200  0.7371  0.5244 -0.0238
  458MOL0     N61712  11.947   1.123   8.064 -0.5718 -0.0143  0.6043
  458MOL0     C61713  12.037   1.057   7.974  0.6443  0.6838  0.2190
  458MOL0     C61714  12.034   1.136   7.865 -0.4128  0.1199  0.9081
  458MOL0     C61715  12.106   1.108   7.731  0.1870  0.1196 -0.4911
  458MOL0     C61716  12.260   1.143   7.713  1.0913  0.5862 -0.2308
  458MOL0     C61717  12.286   1.295   7.729  0.6860  0.4456  0.6476
  458MOL0     C61718  12.411   1.361   7.663 -0.0020 -0.7914  0.2147
  458MOL0     O61719  12.428   1.347   7.515  0.4449 -0.2236 -0.9191
  458MOL0     C61720  12.552   1.385   7.468  1.1770 -0.3175  0.4895
  458MOL0     C61721  12.595   1.518   7.474 -0.3989  1.3460  0.6620
  458MOL0     C61722  12.725   1.546   7.427  0.6338 -0.0725  0.5776
  458MOL0     C61723  12.817   1.439   7.399  0.3952 -0.3038  0.4294
  458MOL0     C61724  12.948   1.477   7.359 -0.0227 -0.7829 -0.8490
  458MOL0     O61725  13.024   1.382   7.320  0.7559 -1.0218 -0.0790
  458MOL0     C61726  13.139   1.423   7.258  0.1302 -0.2724 -0.2431
  458MOL0     C61727  13.148   1.429   7.123  0.3835  0.3769  0.2003
  458MOL0     C61728  13.272   1.456   7.058 -0.0776  0.3508  0.0224
  458MOL0     C61729  13.391   1.479   7.134  0.3288 -0.3760  0.8733
  458MOL0     O61730  13.509   1.511   7.085  0.2995  0.3669  0.2818
  458MOL0     C61731  13.556   1.409   6.997 -0.1873  0.1256 -0.5381
  458MOL0     C61732  13.695   1.450   6.957  0.0885  0.6172  0.4212
  458MOL0     C61733  13.743   1.361   6.842  0.4265  1.3604  0.1803
  458MOL0     C61734  13.870   1.412   6.769  0.4059 -0.2171 -0.0203
  458MOL0     C61735  13.990   1.305   6.786 -0.3747 -0.3695  1.3485
  458MOL0     C61736  14.054   1.319   6.921 -0.3191 -0.0824  0.6532
  458MOL0     C61737  14.134   1.193   6.971  0.1434  0.2165 -0.2340
  458MOL0     C61738  14.175   1.181   7.115  0.4958 -0.1439  0.3867
  458MOL0    Cl61739  14.046   1.157   7.233 -0.1173 -0.0746  0.0738
  458MOL0     C61740  13.372   1.479   7.276  0.1856 -0.0535  0.0237
  458MOL0     C61741  13.250   1.454   7.339 -0.4757 -0.8770 -0.8260
  458MOL0     O61742  12.976   1.595   7.358 -0.3093 -0.4250  0.1947
  458MOL0     C61743  12.776   1.302   7.400 -0.0741 -0.3573 -0.4583
  458MOL0     C61744  12.638   1.284   7.433  0.1949  0.1546  0.5277
  458MOL0     N61745  11.940   1.232   7.888  0.6508 -0.2453 -0.7755
  458MOL0     N61746  11.899   1.227   8.003  0.1580 -1.1245 -0.3133
  458MOL0     C61747  11.429   1.081   9.114  0.2947  0.4346  0.9528
  458MOL0     C61748  11.382   1.158   9.218 -0.2521  0.0742  0.4008
  458MOL0     C61749  11.082   1.263   9.491  0.0980  0.0535 -0.3195
  458MOL0     C61750  11.184   1.285   9.583 -0.3319  1.0248 -0.2341
  458MOL0     C61751  11.153   1.302   9.717 -0.1075 -0.3054 -0.3592
  458MOL0     C61752  11.027   1.310   9.766 -0.2813  0.3950 -0.4305
  458MOL0     O61753  10.992   1.326   9.901  0.0322 -0.2752 -0.1072
  458MOL0     C61754  11.099   1.313  10.000  0.0392 -0.7983  0.1460
  458MOL0     C61755  11.018   1.325  10.125 -0.1257  0.2493  0.4365
  458MOL0     C61756  11.090   1.258  10.247  0.3868 -0.3097 -0.1333
  458MOL0     C61757  11.221   1.321  10.282  0.2509 -1.2695 -0.9710
  458MOL0     C61758  11.224   1.456  10.350  0.4798  0.5674  0.4495
  458MOL0     C61759  11.206   1.561  10.405 -0.1555 -0.3498  0.0004
  458MOL0     C61760  10.925   1.282   9.679  0.6650  0.4171 -0.1344
  458MOL0     C61761  10.946   1.252   9.541 -0.2007 -0.1258  0.3359
  458MOL0     C61762  10.822   1.206   9.465 -0.2956  0.1194 -0.9679
  458MOL0     H61763  11.141   1.338   9.066 -0.1746 -0.9562  3.5695
  458MOL0     H61764  11.224   1.224   8.873 -3.6048 -0.3993  1.9658
  458MOL0     H61765  11.258   0.962   8.805 -0.9773 -0.9335 -4.1751
  458MOL0     H61766  11.313   1.092   8.700 -1.3108  1.2934  2.2528
  458MOL0     H61767  11.320   0.861   8.613  4.3503 -1.8868 -4.1375
  458MOL0     H61768  11.436   0.803   8.732 -1.0623 -2.2187 -1.9399
  458MOL0     H61769  11.611   0.942   8.648 -0.5185  2.9708  0.5876
  458MOL0     H61770  11.503   1.053   8.575  3.3444  0.9829  0.1978
  458MOL0     H61771  11.567   0.749   8.480 -1.6696 -0.1651 -0.1263
  458MOL0     H61772  11.424   0.825   8.449  0.0622 -2.6539  1.3671
  458MOL0     H61773  11.571   0.875   8.249  2.4669 -0.1831 -0.4169
  458MOL0     H61774  11.557   1.033   8.327  1.0964 -0.0027 -3.2774
  458MOL0     H61775  11.764   1.029   8.428 -0.5908 -0.3669 -0.3813
  458MOL0     H61776  11.793   0.857   8.385  1.2170  1.5813  1.9344
  458MOL0     H61777  11.719   1.061   8.169  0.4917 -0.9231 -3.7427
  458MOL0     H61778  11.793   0.910   8.140  0.2208  0.1102  0.4476
  458MOL0     H61779  11.922   1.153   8.274 -2.1275 -2.3541  3.1738
  458MOL0     H61780  12.011   1.010   8.236  0.5703  0.7571  0.7785
  458MOL0     H61781  12.096   0.972   8.006  0.0931 -0.1475 -0.9072
  458MOL0     H61782  12.073   1.006   7.708 -1.2708  0.2290  0.9375
  458MOL0     H61783  12.055   1.168   7.654  1.1019  0.3719 -0.9149
  458MOL0     H61784  12.318   1.076   7.777  1.1226 -2.1037 -2.8486
  458MOL0     H61785  12.289   1.122   7.609  0.0505 -2.0156 -0.0777
  458MOL0     H61786  12.283   1.322   7.835 -0.9036 -2.0780  1.3462
  458MOL0     H61787  12.208   1.344   7.670 -0.7613 -3.1892 -0.7307
  458MOL0     H61788  12.502   1.324   7.711 -0.7053 -0.2713  2.0605
  458MOL0     H61789  12.398   1.466   7.689 -1.2454 -0.5080 -1.3652
  458MOL0     H61790  12.533   1.603   7.499 -1.6933  1.8327 -3.4394
  458MOL0     H61791  12.754   1.650   7.416  1.3394 -0.4094 -1.0982
  458MOL0     H61792  13.053   1.436   7.070 -0.0011 -0.5018  0.7668
  458MOL0     H61793  13.286   1.477   6.952  0.6371  1.4271  0.3113
  458MOL0     H61794  13.554   1.312   7.047  2.7127 -0.4208 -1.3559
  458MOL0     H61795  13.509   1.395   6.900  2.9401 -1.9180 -1.9071
  458MOL0     H61796  13.704   1.556   6.931 -4.9118  0.7044 -2.0246
  458MOL0     H61797  13.754   1.419   7.044 -0.5500  0.6763  0.8821
  458MOL0     H61798  13.761   1.258   6.873  2.9083  2.0667  1.2625
  458MOL0     H61799  13.656   1.356   6.775  0.8135 -2.9514 -0.2863
  458MOL0     H61800  13.881   1.510   6.814  2.1495 -1.1525  1.7342
  458MOL0     H61801  13.856   1.417   6.661 -3.2072  1.4202  0.3723
  458MOL0     H61802  14.061   1.308   6.703 -1.3018  0.4682  0.5604
  458MOL0     H61803  13.948   1.204   6.780 -0.2526 -0.3490 -1.2198
  458MOL0     H61804  14.129   1.397   6.914  0.7636 -1.0874  0.6901
  458MOL0     H61805  13.975   1.346   6.991 -1.7556 -1.7676 -0.2366
  458MOL0     H61806  14.233   1.184   6.926  1.1496 -5.1103  2.1808
  458MOL0     H61807  14.077   1.105   6.939  0.0506  0.1011  0.2265
  458MOL0     H61808  14.252   1.105   7.129  2.5490  1.8679  0.6036
  458MOL0     H61809  14.218   1.281   7.129  0.1916  0.1360 -0.5882
  458MOL0     H61810  13.461   1.502   7.333  0.6214 -1.4094 -0.0598
  458MOL0     H61811  13.228   1.450   7.445 -2.6314 -0.7513 -1.2326
  458MOL0     H61812  12.852   1.226   7.393  1.1342  0.8225 -0.6647
  458MOL0     H61813  12.606   1.180   7.433  0.0465  0.1864 -0.4136
  458MOL0     H61814  11.520   1.024   9.129  0.8373  1.6002  2.3750
  458MOL0     H61815  11.438   1.151   9.311  2.5574 -0.4056 -1.1859
  458MOL0     H61816  11.287   1.285   9.547  1.1678  2.7554  3.4599
  458MOL0     H61817  11.233   1.321   9.788 -1.4664  2.1021  0.6720
  458MOL0     H61818  11.175   1.391   9.991  0.3355 -0.9345  1.3636
  458MOL0     H61819  11.143   1.215   9.985  1.4343 -0.8190  3.6246
  458MOL0     H61820  10.921   1.274  10.116 -1.3781  2.6653 -0.8570
  458MOL0     H61821  11.005   1.432  10.141 -0.1355  0.0472  1.9278
  458MOL0     H61822  11.111   1.153  10.223  2.6394 -0.3014  1.5066
  458MOL0     H61823  11.026   1.274  10.333 -0.8327 -0.4360 -0.9931
  458MOL0     H61824  11.288   1.262  10.346  2.9149  0.7929 -1.6550
  458MOL0     H61825  11.278   1.344  10.192  1.1915 -2.0065 -0.5838
  458MOL0     H61826  11.184   1.644  10.470 -0.7992  0.9212 -1.7387
  458MOL0     H61827  10.822   1.290   9.714  0.5573  2.2211 -0.7461
  458MOL0     H61828  10.823   1.097   9.456 -0.3103  0.0611 -0.3121
  458MOL0     H61829  10.724   1.216   9.514 -0.4749 -5.7914  0.6923
  458MOL0     H61830  10.818   1.260   9.370 -1.0040  0.9113 -0.5052
  459MOL0     O61831   4.847   3.881   8.056  0.0739  0.0298  0.1501
  459MOL0     C61832   4.897   3.819   7.964 -0.0693  0.4104 -0.3091
  459MOL0     O61833   4.818   3.758   7.865 -0.1760  0.0640 -0.2127
  459MOL0     C61834   4.874   3.643   7.818  0.9526  0.7644 -0.1286
  459MOL0     C61835   4.906   3.535   7.900  0.7574  0.8570  0.1938
  459MOL0     C61836   4.954   3.417   7.839  0.3815 -0.5772 -0.3032
  459MOL0     C61837   4.962   3.408   7.696  0.0063  1.0748 -0.5185
  459MOL0     O61838   4.974   3.290   7.622 -0.3819 -0.2121  0.2659
  459MOL0     C61839   5.000   3.159   7.678  1.4374 -1.0657 -1.0678
  459MOL0     C61840   5.142   3.131   7.639  0.4500 -0.6999 -0.3041
  459MOL0     C61841   5.215   3.014   7.715 -0.3351  0.2791 -0.1513
  459MOL0     C61842   5.370   3.038   7.706  1.2169 -0.0493  0.4458
  459MOL0     C61843   5.452   2.916   7.737 -0.7345 -0.5415  0.8320
  459MOL0     C61844   5.596   2.962   7.708  0.4799  0.6776  0.0007
  459MOL0     C61845   5.701   2.855   7.713  0.0012 -0.3428 -0.0622
  459MOL0     C61846   5.676   2.740   7.609  0.2797 -0.2138 -1.3081
  459MOL0     N61847   5.790   2.654   7.614 -0.4300  0.9202  0.2341
  459MOL0     C61848   5.865   2.646   7.497  0.5040 -0.5753  0.6530
  459MOL0     C61849   5.935   2.535   7.510  0.4056 -0.0213 -0.9314
  459MOL0     C61850   6.029   2.478   7.402 -0.5132 -0.0686  0.2175
  459MOL0     C61851   6.141   2.414   7.481 -0.2999  0.3569 -0.3275
  459MOL0     C61852   6.264   2.379   7.387  0.0974  0.0997 -0.5761
  459MOL0     C61853   6.368   2.327   7.472  0.0242  0.1332 -0.1299
  459MOL0     O61854   6.501   2.333   7.417  0.2983 -0.1967  0.2287
  459MOL0     C61855   6.609   2.324   7.506  1.1266  0.3300  0.9062
  459MOL0     C61856   6.678   2.442   7.509 -0.1311 -0.0230  0.4871
  459MOL0     C61857   6.799   2.445   7.571 -0.3397 -0.2725 -0.0817
  459MOL0     C61858   6.845   2.336   7.653  0.5732 -0.0659 -0.4791
  459MOL0     C61859   6.977   2.335   7.724  0.3436  0.6884 -0.2048
  459MOL0     O61860   7.020   2.208   7.766  0.6254  0.0914  0.0243
  459MOL0     C61861   7.151   2.174   7.753 -0.1649  0.5771  0.3790
  459MOL0     C61862   7.172   2.033   7.744 -0.2458  1.2733 -0.6876
  459MOL0     C61863   7.297   1.975   7.712  0.5337  0.2323  0.2044
  459MOL0     C61864   7.407   2.054   7.695 -0.5489  0.0684 -0.3421
  459MOL0     O61865   7.526   1.990   7.669  0.2300 -0.2819  0.1077
  459MOL0     C61866   7.645   2.064   7.649 -0.1152 -0.8617 -0.4940
  459MOL0     C61867   7.758   1.983   7.598  0.1082  0.6147 -0.1860
  459MOL0     C61868   7.824   1.887   7.692 -0.1899  0.1076 -1.3824
  459MOL0     C61869   7.720   1.778   7.741  0.5137  0.2865 -0.2147
  459MOL0     C61870   7.793   1.659   7.800  0.3675 -0.3504 -0.6331
  459MOL0     C61871   7.839   1.562   7.698 -0.0846 -0.1314  0.5301
  459MOL0     C61872   7.900   1.440   7.756  0.1651 -0.0989  0.1301
  459MOL0     C61873   7.916   1.323   7.665  0.2300  0.1399 -0.2471
  459MOL0    Cl61874   7.972   1.176   7.754  0.3741  0.2507 -0.2037
  459MOL0     C61875   7.394   2.197   7.697  0.2246  0.8670  0.1526
  459MOL0     C61876   7.258   2.255   7.730  0.5188 -0.2252 -0.5977
  459MOL0     O61877   7.015   2.438   7.781  0.3241 -0.4262  0.0063
  459MOL0     C61878   6.770   2.214   7.643 -1.3138  0.4869  0.4197
  459MOL0     C61879   6.652   2.212   7.572  0.8596  0.4691  1.3255
  459MOL0     N61880   5.908   2.467   7.631  0.2320  0.2863 -0.0022
  459MOL0     N61881   5.828   2.546   7.697  0.1355 -0.1581  0.6954
  459MOL0     C61882   4.942   3.515   7.624 -0.0837  0.5911  0.6741
  459MOL0     C61883   4.892   3.636   7.682 -0.2295 -0.4474  0.0736
  459MOL0     C61884   5.046   3.830   7.964 -0.2146  1.0409  0.3610
  459MOL0     C61885   5.103   3.869   7.842  0.5351 -1.0526  0.7537
  459MOL0     C61886   5.242   3.885   7.826 -0.5928 -0.5371  0.1135
  459MOL0     C61887   5.317   3.854   7.935 -1.0835  0.5120 -0.6849
  459MOL0     O61888   5.450   3.890   7.929 -0.3887 -0.4391 -0.1357
  459MOL0     C61889   5.546   3.820   7.997 -0.1009 -0.7455  0.3956
  459MOL0     C61890   5.600   3.908   8.114 -0.7893  0.2892 -0.6226
  459MOL0     C61891   5.743   3.853   8.155 -0.8649 -0.0462  0.4922
  459MOL0     C61892   5.783   3.900   8.290 -0.3827 -0.6293 -0.9656
  459MOL0     C61893   5.912   3.847   8.328  0.5423 -0.9343  0.3999
  459MOL0     C61894   6.024   3.828   8.365 -0.6707  0.3836  0.5381
  459MOL0     C61895   5.260   3.801   8.053  0.0564  0.6921  0.9336
  459MOL0     C61896   5.123   3.788   8.073 -0.0920 -1.1232  0.0175
  459MOL0     C61897   5.062   3.729   8.201  0.0669  0.8391 -0.1412
  459MOL0     H61898   4.891   3.534   8.008  0.4898  0.5968  0.1568
  459MOL0     H61899   4.968   3.331   7.904 -2.0487 -1.2013 -0.5091
  459MOL0     H61900   4.993   3.151   7.787  1.2631 -2.4277 -1.1549
  459MOL0     H61901   4.935   3.082   7.634 -1.6983 -0.0286  1.3154
  459MOL0     H61902   5.196   3.219   7.676  0.1654 -0.8174  0.4055
  459MOL0     H61903   5.140   3.110   7.532 -1.2254 -5.0279  0.3795
  459MOL0     H61904   5.190   2.922   7.663  2.7326 -0.7287 -0.0339
  459MOL0     H61905   5.186   2.997   7.819  2.6548 -3.4936  0.3112
  459MOL0     H61906   5.385   3.075   7.604  1.7768 -1.4209  0.0067
  459MOL0     H61907   5.399   3.117   7.775  2.5689  0.9555 -1.1746
  459MOL0     H61908   5.439   2.881   7.840  0.0276  1.5783  1.7181
  459MOL0     H61909   5.433   2.831   7.671 -1.5800 -0.5529  1.0878
  459MOL0     H61910   5.598   3.003   7.607  3.2007 -0.8657 -0.6477
  459MOL0     H61911   5.617   3.046   7.775  3.2497  0.4210 -0.4554
  459MOL0     H61912   5.705   2.830   7.820 -1.8187  1.4902  0.5157
  459MOL0     H61913   5.800   2.892   7.684  2.5983 -4.7463  2.2065
  459MOL0     H61914   5.584   2.690   7.639  0.7861 -1.4184 -1.6989
  459MOL0     H61915   5.666   2.795   7.515  0.6379  2.0474 -0.1035
  459MOL0     H61916   5.869   2.711   7.410  2.9324 -2.7248 -0.9771
  459MOL0     H61917   5.980   2.393   7.353  0.7492  1.4147 -4.0528
  459MOL0     H61918   6.060   2.556   7.332 -0.9337  0.5075  0.6642
  459MOL0     H61919   6.184   2.495   7.540 -1.3694  0.9074 -0.2863
  459MOL0     H61920   6.107   2.326   7.535 -2.7241  1.2459 -0.3037
  459MOL0     H61921   6.301   2.475   7.350 -1.3899  1.2330  0.7641
  459MOL0     H61922   6.252   2.311   7.302  0.4051 -3.8456  2.2384
  459MOL0     H61923   6.331   2.227   7.500  1.1394 -0.3041 -0.1499
  459MOL0     H61924   6.361   2.372   7.571 -3.4365  0.7186 -0.5342
  459MOL0     H61925   6.656   2.522   7.439 -1.3577  0.9729  1.9654
  459MOL0     H61926   6.872   2.524   7.558  0.9966 -1.2504  1.0322
  459MOL0     H61927   7.087   1.970   7.768  2.3336 -1.1179  3.0102
  459MOL0     H61928   7.316   1.868   7.709 -0.4688  0.0222 -3.3571
  459MOL0     H61929   7.620   2.134   7.569 -1.7512  2.1435  2.4015
  459MOL0     H61930   7.668   2.122   7.739  0.4252 -1.2159 -0.3943
  459MOL0     H61931   7.720   1.927   7.513  2.4758  1.1634 -1.6944
  459MOL0     H61932   7.840   2.046   7.561 -1.3002  2.8208  0.2321
  459MOL0     H61933   7.915   1.841   7.651  0.8769 -0.3287  1.2903
  459MOL0     H61934   7.869   1.937   7.778  2.1491 -3.5069 -0.2793
  459MOL0     H61935   7.658   1.745   7.657  3.1543  2.6163 -3.3580
  459MOL0     H61936   7.657   1.816   7.822 -0.8337 -1.3153 -0.4668
  459MOL0     H61937   7.735   1.616   7.882 -1.3080  1.4981 -0.7652
  459MOL0     H61938   7.885   1.698   7.845  0.3453 -0.9767 -0.0326
  459MOL0     H61939   7.749   1.529   7.646 -0.4122 -1.3211  1.7772
  459MOL0     H61940   7.903   1.616   7.627  0.5278 -1.5294 -0.0207
  459MOL0     H61941   7.842   1.407   7.843  0.3474  0.5843  0.5180
  459MOL0     H61942   7.999   1.464   7.797 -0.2551  0.3852  0.8915
  459MOL0     H61943   7.825   1.300   7.608 -0.8383  0.5543  1.2225
  459MOL0     H61944   7.995   1.350   7.595  0.1889  0.0100 -0.3453
  459MOL0     H61945   7.478   2.265   7.681  0.4187 -0.1524 -4.6733
  459MOL0     H61946   7.250   2.363   7.727  4.1914  0.2647  1.5392
  459MOL0     H61947   6.784   2.122   7.699 -2.1654  1.0319  1.5577
  459MOL0     H61948   6.597   2.118   7.568 -0.3787  0.9577  4.0710
  459MOL0     H61949   4.962   3.515   7.518  1.6908 -1.9565  0.9031
  459MOL0     H61950   4.868   3.719   7.617  2.0433 -0.1102 -0.4089
  459MOL0     H61951   5.036   3.900   7.763  3.1186  1.6962 -0.5408
  459MOL0     H61952   5.292   3.929   7.741 -0.2805 -2.3791 -0.6988
  459MOL0     H61953   5.618   3.797   7.917  0.3662  2.6249 -0.3036
  459MOL0     H61954   5.510   3.724   8.035 -3.9516  0.5059  0.3612
  459MOL0     H61955   5.536   3.909   8.203 -0.5294  0.3229 -0.4331
  459MOL0     H61956   5.620   4.009   8.079  0.4375  0.8329  1.4494
  459MOL0     H61957   5.825   3.887   8.092 -2.0881 -0.2927 -1.3048
  459MOL0     H61958   5.750   3.744   8.160  0.2401  0.0540  3.7038
  459MOL0     H61959   5.784   4.009   8.285 -2.2466 -0.6220 -2.2978
  459MOL0     H61960   5.713   3.865   8.367 -0.3080 -0.4651 -0.8239
  459MOL0     H61961   6.123   3.802   8.394 -1.5376 -1.9673  1.5835
  459MOL0     H61962   5.313   3.768   8.142 -2.3009 -0.3417  2.0381
  459MOL0     H61963   5.134   3.718   8.283 -1.6272  0.8088  1.3991
  459MOL0     H61964   4.972   3.781   8.233  0.9770  1.1612  2.1187
  459MOL0     H61965   5.053   3.623   8.176  3.1363  0.8615 -1.8655
  460MOL0     O61966   8.148  10.157  10.840  0.1058 -0.2064 -0.1661
  460MOL0     C61967   8.216  10.188  10.741 -0.9311  0.7838 -0.2551
  460MOL0     O61968   8.295  10.294  10.731 -0.3612 -0.6815 -0.4136
  460MOL0     C61969   8.324  10.372  10.842  0.6918 -0.4558 -0.2169
  460MOL0     C61970   8.224  10.439  10.916 -0.0513  0.0710  0.3842
  460MOL0     C61971   8.258  10.515  11.025 -0.0313 -0.6687 -0.0762
  460MOL0     C61972   8.394  10.542  11.061  0.0282 -0.1805  0.2758
  460MOL0     O61973   8.428  10.604  11.172 -0.1992 -0.5581 -0.1549
  460MOL0     C61974   8.345  10.617  11.295 -0.6569  0.1622 -0.4488
  460MOL0     C61975   8.261  10.741  11.286 -1.1240 -0.0782 -0.0602
  460MOL0     C61976   8.169  10.744  11.404 -0.6271  0.1953 -0.4947
  460MOL0     C61977   8.108  10.884  11.410 -0.9392  0.0531  0.9868
  460MOL0     C61978   8.023  10.897  11.535 -0.2838 -0.3470  0.6872
  460MOL0     C61979   8.007  11.046  11.580 -0.3710 -0.0532  0.1237
  460MOL0     C61980   7.906  11.110  11.486 -0.0787 -0.1812  0.1506
  460MOL0     C61981   7.952  11.251  11.460  0.3088 -0.0602 -0.5043
  460MOL0     N61982   8.085  11.258  11.402 -0.9887  0.1796 -0.0025
  460MOL0     C61983   8.127  11.220  11.272  0.2023 -0.1397  0.0138
  460MOL0     C61984   8.266  11.225  11.281 -0.9244  0.7655  0.4302
  460MOL0     C61985   8.368  11.169  11.180 -0.5848  0.8392 -0.4094
  460MOL0     C61986   8.308  11.173  11.033 -0.6933  0.4031 -0.1378
  460MOL0     C61987   8.393  11.081  10.952  0.1043 -0.4040 -0.2772
  460MOL0     C61988   8.326  11.069  10.819  0.0772 -0.9870 -0.3356
  460MOL0     O61989   8.362  11.191  10.743 -0.0523  0.8129  0.5036
  460MOL0     C61990   8.341  11.197  10.607 -0.4303  0.4129 -0.8141
  460MOL0     C61991   8.414  11.282  10.530  0.1324  0.6325  0.1282
  460MOL0     C61992   8.401  11.299  10.391  0.5128 -0.0172 -0.8612
  460MOL0     C61993   8.309  11.208  10.328  0.7985 -0.4918 -1.0935
  460MOL0     C61994   8.297  11.215  10.181 -0.3390  0.9512 -0.4699
  460MOL0     O61995   8.306  11.341  10.121 -0.1260  1.0325  0.4252
  460MOL0     C61996   8.303  11.348   9.988 -0.3675  0.3009  0.6944
  460MOL0     C61997   8.415  11.388   9.919  0.3946 -0.2224 -0.9682
  460MOL0     C61998   8.425  11.403   9.785 -0.5470  0.4157  0.4002
  460MOL0     C61999   8.317  11.362   9.709  0.0034  0.7581  1.0596
  460MOL0     O62000   8.310  11.367   9.571 -0.2943 -0.4520  0.2515
  460MOL0     C62001   8.441  11.396   9.507 -0.3160 -0.0670 -0.2608
  460MOL0     C62002   8.426  11.417   9.351  0.0527  0.2783  0.0473
  460MOL0     C62003   8.370  11.296   9.278 -0.9876  0.3072  1.0252
  460MOL0     C62004   8.341  11.326   9.129 -0.3979 -0.2098 -0.6545
  460MOL0     C62005   8.354  11.198   9.044  0.7726 -0.9691  0.5883
  460MOL0     C62006   8.217  11.150   8.991 -0.2241 -0.7705 -0.4699
  460MOL0     C62007   8.227  11.008   8.918 -0.0109 -1.5511 -0.3611
  460MOL0     C62008   8.352  11.017   8.825 -0.0622 -0.4065 -0.2797
  460MOL0    Cl62009   8.374  10.869   8.717  0.2845 -0.1715  0.1276
  460MOL0     C62010   8.202  11.317   9.770 -0.0736 -0.1201 -0.9695
  460MOL0     C62011   8.195  11.307   9.908  0.3788  0.0983 -0.1103
  460MOL0     O62012   8.286  11.106  10.125  0.5748 -0.1376  0.5949
  460MOL0     C62013   8.234  11.109  10.395 -0.2088 -0.5224 -0.2242
  460MOL0     C62014   8.253  11.110  10.533 -1.0667  0.5055 -0.1292
  460MOL0     N62015   8.301  11.269  11.405 -0.6585 -0.1048  0.2233
  460MOL0     N62016   8.196  11.294  11.476  0.7776  0.4108  0.4349
  460MOL0     C62017   8.489  10.470  10.984  0.3646 -0.0787 -0.5263
  460MOL0     C62018   8.464  10.387  10.871  1.1659 -0.0000 -1.5594
  460MOL0     C62019   8.202  10.098  10.623 -0.4600 -0.7072  0.8639
  460MOL0     C62020   8.312  10.095  10.543  0.3084  0.0098  1.0709
  460MOL0     C62021   8.314  10.013  10.426  0.5090 -0.6952  0.6157
  460MOL0     C62022   8.208   9.926  10.408 -0.2394 -0.2490  0.5569
  460MOL0     O62023   8.238   9.827  10.308 -0.2882 -0.5514  0.1327
  460MOL0     C62024   8.175   9.698  10.324 -0.5161 -0.2748 -0.4382
  460MOL0     C62025   8.118   9.638  10.192 -0.0933 -0.1848 -0.1409
  460MOL0     C62026   8.230   9.581  10.107  1.0569  0.1552  0.3719
  460MOL0     C62027   8.233   9.422  10.111 -0.2335 -0.0488 -0.7950
  460MOL0     C62028   8.121   9.362  10.042 -0.4272  0.7920  0.4099
  460MOL0     C62029   8.043   9.308   9.967  0.3113 -0.1120 -0.1725
  460MOL0     C62030   8.093   9.932  10.483 -0.4774 -0.2704 -0.7695
  460MOL0     C62031   8.086  10.019  10.596 -0.7439  0.9604  0.1499
  460MOL0     C62032   7.956  10.022  10.674  0.1508  0.9171 -0.6284
  460MOL0     H62033   8.121  10.432  10.884 -0.3031 -3.2793  1.5525
  460MOL0     H62034   8.175  10.538  11.090 -1.3949 -2.1309 -1.2271
  460MOL0     H62035   8.278  10.531  11.306  0.4845 -0.7752 -0.7151
  460MOL0     H62036   8.410  10.613  11.382 -0.7531 -2.6513 -0.4274
  460MOL0     H62037   8.204  10.733  11.193  0.1135 -0.5622 -0.7963
  460MOL0     H62038   8.314  10.837  11.277 -1.2620 -0.0550 -0.6618
  460MOL0     H62039   8.220  10.727  11.499  2.9518  0.0463 -2.2694
  460MOL0     H62040   8.081  10.680  11.393 -0.6277  0.4753 -2.5749
  460MOL0     H62041   8.191  10.954  11.406  0.6438 -1.7689 -2.1635
  460MOL0     H62042   8.050  10.891  11.317 -1.3225  0.1618  1.2293
  460MOL0     H62043   7.925  10.849  11.522 -0.4779 -0.1029  1.2302
  460MOL0     H62044   8.062  10.845  11.623 -1.9789 -0.1967  1.5689
  460MOL0     H62045   7.967  11.046  11.682 -0.0696 -0.1094  0.2421
  460MOL0     H62046   8.106  11.093  11.576 -1.3577  2.1448 -0.2436
  460MOL0     H62047   7.802  11.112  11.522  0.0143 -1.7010  0.5721
  460MOL0     H62048   7.911  11.062  11.388  0.6090  0.3871 -0.1034
  460MOL0     H62049   7.887  11.296  11.385 -2.5683  0.2200  1.9585
  460MOL0     H62050   7.959  11.302  11.556  1.6077  0.9689 -1.1207
  460MOL0     H62051   8.067  11.161  11.204 -2.2104 -0.8182  2.5552
  460MOL0     H62052   8.452  11.238  11.189 -0.7766  1.2632 -1.6836
  460MOL0     H62053   8.396  11.069  11.215  0.2464  1.5195  0.9485
  460MOL0     H62054   8.204  11.139  11.033 -1.2382  1.9915  0.1083
  460MOL0     H62055   8.300  11.277  11.001 -2.4236 -0.2513 -2.0004
  460MOL0     H62056   8.386  10.987  11.008  0.8511 -0.1065  0.3320
  460MOL0     H62057   8.500  11.104  10.946  0.8021 -2.8779  1.0936
  460MOL0     H62058   8.217  11.068  10.817 -0.0280  1.9104 -1.5638
  460MOL0     H62059   8.371  10.982  10.771  0.3573 -0.0182 -1.9138
  460MOL0     H62060   8.485  11.347  10.581  1.7940 -0.3436 -0.8281
  460MOL0     H62061   8.449  11.385  10.346 -2.9588  2.7775  0.3139
  460MOL0     H62062   8.503  11.426   9.971 -2.4663  2.7286  2.2903
  460MOL0     H62063   8.520  11.445   9.754  0.4954  0.4881  3.3806
  460MOL0     H62064   8.488  11.484   9.552 -0.2560 -1.7021  3.1763
  460MOL0     H62065   8.517  11.319   9.525  2.1518  2.3652  0.4848
  460MOL0     H62066   8.363  11.504   9.333  2.3177  2.1884  0.7809
  460MOL0     H62067   8.528  11.429   9.313  1.4372  2.5039  3.8853
  460MOL0     H62068   8.443  11.215   9.286 -0.2640  0.9558  1.1390
  460MOL0     H62069   8.280  11.257   9.325 -1.2232  0.5443  0.7778
  460MOL0     H62070   8.401  11.406   9.085 -4.0755  2.2481 -1.6658
  460MOL0     H62071   8.242  11.369   9.110 -0.8776 -1.1221 -0.3098
  460MOL0     H62072   8.397  11.114   9.099 -1.8087 -4.1773 -1.8681
  460MOL0     H62073   8.420  11.223   8.961  0.1575  2.4572  0.9828
  460MOL0     H62074   8.149  11.136   9.075  1.9589  0.1289  1.5652
  460MOL0     H62075   8.180  11.226   8.921 -2.1354 -2.5970 -1.5412
  460MOL0     H62076   8.145  10.994   8.847 -0.8140 -1.7697  0.5974
  460MOL0     H62077   8.227  10.925   8.990 -0.3745 -1.5940 -0.4068
  460MOL0     H62078   8.345  11.115   8.776  1.4347 -0.5411 -0.8184
  460MOL0     H62079   8.447  11.021   8.879  0.4322 -0.3054 -1.1341
  460MOL0     H62080   8.114  11.284   9.716  0.4075 -0.8405 -1.3277
  460MOL0     H62081   8.108  11.265   9.958 -1.2841 -0.2421 -3.0587
  460MOL0     H62082   8.174  11.034  10.345 -1.4748 -0.5893  1.3162
  460MOL0     H62083   8.203  11.022  10.571  1.2032 -0.4717  0.7609
  460MOL0     H62084   8.594  10.489  11.007 -0.0621  0.4305  1.0944
  460MOL0     H62085   8.547  10.351  10.811  1.4466 -0.5614 -0.8472
  460MOL0     H62086   8.399  10.160  10.540 -0.2753  0.7968 -0.9800
  460MOL0     H62087   8.384  10.024  10.344 -0.3378  1.3678  0.0899
  460MOL0     H62088   8.092   9.701  10.396 -0.1276 -1.9496  0.1206
  460MOL0     H62089   8.250   9.632  10.368 -2.2196 -0.1174  3.0625
  460MOL0     H62090   8.077   9.719  10.131 -1.3047 -1.3267 -0.9037
  460MOL0     H62091   8.040   9.565  10.218 -2.4838  2.6594  1.2075
  460MOL0     H62092   8.320   9.632  10.141 -0.1234  0.9860  2.4731
  460MOL0     H62093   8.200   9.619  10.009  0.4637  0.2475  0.5820
  460MOL0     H62094   8.320   9.387  10.055  1.4833 -0.4048  1.9225
  460MOL0     H62095   8.230   9.386  10.214  0.5469  2.8268  0.3279
  460MOL0     H62096   7.979   9.257   9.898  1.1721  1.9324 -2.6443
  460MOL0     H62097   8.011   9.867  10.454  0.6831 -2.7321  1.0257
  460MOL0     H62098   7.963   9.963  10.766 -1.2831  1.5762 -0.0669
  460MOL0     H62099   7.943  10.124  10.710 -3.1395  0.5382 -0.4032
  460MOL0     H62100   7.869   9.993  10.614  0.7011 -1.1696 -0.5024
  461MOL0     O62101   8.518  11.279   7.278 -0.5116 -0.0378 -0.4067
  461MOL0     C62102   8.411  11.318   7.234 -0.1079 -0.6457  0.5280
  461MOL0     O62103   8.343  11.255   7.126  0.5901 -0.2019  0.4348
  461MOL0     C62104   8.406  11.144   7.093 -0.4754  0.4510 -0.6855
  461MOL0     C62105   8.379  11.029   7.165 -0.2835  0.5366  0.5105
  461MOL0     C62106   8.430  10.903   7.128 -0.7590 -0.6881  0.7268
  461MOL0     C62107   8.508  10.896   7.010  0.1152  0.2289  0.3099
  461MOL0     O62108   8.573  10.788   6.967 -0.4623  0.3595  0.5219
  461MOL0     C62109   8.718  10.789   6.969  0.0982 -0.3878 -0.0266
  461MOL0     C62110   8.778  10.694   6.852 -0.2311 -1.4326  0.4585
  461MOL0     C62111   8.930  10.684   6.856 -0.1555  0.0628  0.6086
  461MOL0     C62112   8.988  10.616   6.732  0.1736  0.3575 -0.3608
  461MOL0     C62113   9.123  10.543   6.747  0.3490 -0.5653  0.6635
  461MOL0     C62114   9.194  10.531   6.621  0.0367 -0.0076  0.6568
  461MOL0     C62115   9.312  10.439   6.622 -0.4448  0.0651 -0.1154
  461MOL0     C62116   9.263  10.294   6.643  0.2006  0.3547  0.5692
  461MOL0     N62117   9.321  10.227   6.758  0.3349  0.1726  0.8169
  461MOL0     C62118   9.446  10.249   6.803  0.0676  0.0882  0.4030
  461MOL0     C62119   9.455  10.150   6.889 -0.2053  0.2838  0.0751
  461MOL0     C62120   9.564  10.132   6.980 -0.5535 -0.1670 -0.0905
  461MOL0     C62121   9.629   9.989   6.979 -0.4033  0.1165  0.9115
  461MOL0     C62122   9.730   9.977   7.091  0.4562  0.6431 -1.2155
  461MOL0     C62123   9.721   9.836   7.139 -0.5503  1.5979 -0.6286
  461MOL0     O62124   9.801   9.745   7.060  0.1539  0.3340  0.2088
  461MOL0     C62125   9.786   9.608   7.081 -0.1842  0.3545 -0.6504
  461MOL0     C62126   9.871   9.524   7.024  0.2279  0.7710 -0.2461
  461MOL0     C62127   9.876   9.389   7.053  0.7942 -0.9764 -0.7820
  461MOL0     C62128   9.795   9.331   7.150  0.1988  0.2817  0.0920
  461MOL0     C62129   9.821   9.197   7.209  0.5051  0.2616  0.3085
  461MOL0     O62130   9.728   9.160   7.306 -0.0492 -0.0075  0.7187
  461MOL0     C62131   9.742   9.038   7.369  0.0411 -0.6862  1.1063
  461MOL0     C62132   9.671   8.930   7.318 -0.0246 -0.3148  0.8330
  461MOL0     C62133   9.676   8.804   7.378 -0.4654  0.2382  0.2526
  461MOL0     C62134   9.728   8.798   7.510  0.5543 -0.3853 -1.0072
  461MOL0     O62135   9.738   8.686   7.582 -0.3993  0.3353  0.0948
  461MOL0     C62136   9.669   8.571   7.537 -0.1164  0.6402 -0.0355
  461MOL0     C62137   9.686   8.455   7.633  0.2691  0.2328  0.2210
  461MOL0     C62138   9.622   8.474   7.772 -1.3044  0.3964 -0.2120
  461MOL0     C62139   9.625   8.351   7.854  0.7651 -0.0125 -0.6482
  461MOL0     C62140   9.754   8.323   7.919  0.1677  0.5556  0.1870
  461MOL0     C62141   9.740   8.212   8.024 -0.0572 -0.4381  1.4455
  461MOL0     C62142   9.874   8.190   8.096  0.1899 -0.4940  1.2908
  461MOL0     C62143   9.888   8.268   8.232  0.7916 -0.4165 -0.1493
  461MOL0    Cl62144   9.909   8.438   8.200 -0.6655 -0.0452 -0.2268
  461MOL0     C62145   9.798   8.912   7.566 -1.3308 -0.4189  0.2096
  461MOL0     C62146   9.803   9.029   7.487  0.1496  0.2397 -0.6016
  461MOL0     O62147   9.910   9.122   7.166 -0.8163  0.2026 -0.0688
  461MOL0     C62148   9.691   9.407   7.204 -0.1108 -0.0169  0.5587
  461MOL0     C62149   9.687   9.542   7.165 -0.3614  0.1042  0.2632
  461MOL0     N62150   9.340  10.072   6.890  0.0018  0.5794  0.0242
  461MOL0     N62151   9.261  10.118   6.810  0.5498 -1.1867 -0.1693
  461MOL0     C62152   8.535  11.016   6.947  0.3324  1.7808 -0.4190
  461MOL0     C62153   8.486  11.138   6.982  0.1249  0.5679  0.2983
  461MOL0     C62154   8.364  11.457   7.272 -0.5080 -0.1618  0.1889
  461MOL0     C62155   8.459  11.567   7.288  0.1805  0.3082  0.0663
  461MOL0     C62156   8.415  11.698   7.318 -0.4154 -0.2159 -0.6546
  461MOL0     C62157   8.283  11.727   7.328  0.2994 -1.2602  1.4022
  461MOL0     O62158   8.252  11.857   7.339 -0.8631 -0.4010 -1.1065
  461MOL0     C62159   8.115  11.895   7.328  0.2974  0.2102  0.4815
  461MOL0     C62160   8.092  12.047   7.322 -0.0720  0.3361  0.4808
  461MOL0     C62161   8.137  12.130   7.451 -0.8104  0.2949  0.4292
  461MOL0     C62162   8.053  12.098   7.574 -0.6738 -0.0382 -0.8353
  461MOL0     C62163   8.065  12.189   7.691  0.5451 -0.7519 -1.5754
  461MOL0     C62164   8.056  12.285   7.766 -0.4130 -0.0431 -0.2248
  461MOL0     C62165   8.187  11.623   7.301  0.1010 -0.5272 -0.4192
  461MOL0     C62166   8.223  11.492   7.276  0.7332  0.5817 -0.0810
  461MOL0     C62167   8.114  11.381   7.266  0.0788 -0.1901 -0.2930
  461MOL0     H62168   8.318  11.035   7.254 -1.6710 -1.1015 -0.2855
  461MOL0     H62169   8.409  10.822   7.196  1.6384 -0.9394  1.2783
  461MOL0     H62170   8.769  10.886   6.969 -0.2641 -0.1952 -0.2192
  461MOL0     H62171   8.752  10.743   7.063  2.1054 -3.9047 -2.2574
  461MOL0     H62172   8.749  10.739   6.757  2.0342  1.4665  1.0111
  461MOL0     H62173   8.735  10.593   6.858  0.7732 -1.9009 -0.0187
  461MOL0     H62174   8.954  10.629   6.948 -0.2914 -1.6311 -0.3323
  461MOL0     H62175   8.984  10.778   6.871  2.3418 -1.3633  1.1424
  461MOL0     H62176   8.910  10.550   6.694  0.5494 -0.5430  0.3906
  461MOL0     H62177   9.002  10.695   6.657 -0.7210 -0.4639 -1.4330
  461MOL0     H62178   9.195  10.596   6.810  0.0496  0.6712 -0.0008
  461MOL0     H62179   9.089  10.456   6.802 -0.4160 -1.8191 -1.6493
  461MOL0     H62180   9.124  10.503   6.541 -1.2000  1.8290  1.0064
  461MOL0     H62181   9.236  10.629   6.594  1.4318 -0.3997  1.3402
  461MOL0     H62182   9.374  10.473   6.705 -0.3096  0.9384 -0.5595
  461MOL0     H62183   9.360  10.446   6.523  2.8949 -1.4986  1.2325
  461MOL0     H62184   9.154  10.292   6.659  0.3294 -0.0756  1.4295
  461MOL0     H62185   9.289  10.235   6.554 -0.9844  1.0212 -0.2548
  461MOL0     H62186   9.515  10.331   6.785  0.5386 -0.1862  0.9413
  461MOL0     H62187   9.639  10.211   6.971  0.2415 -1.1259 -3.5885
  461MOL0     H62188   9.517  10.152   7.076 -1.0821  0.6771 -0.5160
  461MOL0     H62189   9.556   9.908   6.982  0.2209 -0.5069 -0.1317
  461MOL0     H62190   9.682   9.972   6.885  1.0415 -0.5721  1.8228
  461MOL0     H62191   9.706  10.047   7.171  0.2505 -0.0259 -0.6841
  461MOL0     H62192   9.834   9.994   7.061  0.0434  0.6648 -2.7291
  461MOL0     H62193   9.618   9.800   7.146 -0.2982  0.2474 -2.8713
  461MOL0     H62194   9.766   9.835   7.239 -0.1103  2.3689 -0.8127
  461MOL0     H62195   9.951   9.564   6.963 -0.5521 -1.1235 -2.6514
  461MOL0     H62196   9.953   9.325   7.011 -1.1048 -2.9508 -1.4657
  461MOL0     H62197   9.607   8.951   7.233  1.7471  1.1490 -0.2328
  461MOL0     H62198   9.638   8.715   7.329  1.8766 -0.1677 -0.9504
  461MOL0     H62199   9.567   8.607   7.518  1.1702  3.0177 -3.5739
  461MOL0     H62200   9.696   8.526   7.441 -1.4916  1.6205 -0.9305
  461MOL0     H62201   9.635   8.373   7.582 -1.1332  0.3090  1.4203
  461MOL0     H62202   9.791   8.427   7.644 -0.4120 -1.6768  2.8890
  461MOL0     H62203   9.671   8.551   7.833  0.2566 -0.1012 -0.8094
  461MOL0     H62204   9.514   8.490   7.762 -1.4227 -0.2011  0.0956
  461MOL0     H62205   9.603   8.272   7.781 -3.4702 -1.0325  1.4382
  461MOL0     H62206   9.554   8.371   7.934  0.1990  1.2040 -1.4155
  461MOL0     H62207   9.782   8.412   7.975  1.8562 -0.1930  0.5884
  461MOL0     H62208   9.832   8.294   7.848  0.8451 -1.8865  1.8041
  461MOL0     H62209   9.654   8.232   8.088 -0.2913  0.5450  0.8485
  461MOL0     H62210   9.713   8.115   7.979  1.8831 -1.1176  1.6682
  461MOL0     H62211   9.957   8.221   8.032 -2.2052 -0.4298 -2.0301
  461MOL0     H62212   9.893   8.086   8.123  2.1223 -1.0619 -1.7610
  461MOL0     H62213   9.795   8.259   8.290  2.1539 -4.0126  1.7228
  461MOL0     H62214   9.966   8.217   8.288  1.9698 -0.1584 -1.5117
  461MOL0     H62215   9.844   8.919   7.663  1.1110  3.3721 -0.9999
  461MOL0     H62216   9.848   9.114   7.537 -0.2006 -0.2686  0.6088
  461MOL0     H62217   9.610   9.381   7.271 -0.5563  1.4048  0.6119
  461MOL0     H62218   9.608   9.601   7.209  0.5070  1.8897 -0.4843
  461MOL0     H62219   8.606  11.023   6.865  0.2753  0.4167 -0.6168
  461MOL0     H62220   8.505  11.226   6.923  0.8162 -0.2312 -0.7027
  461MOL0     H62221   8.566  11.547   7.286  0.1540 -0.3589  2.4083
  461MOL0     H62222   8.491  11.773   7.336 -1.4013  0.0568  3.1730
  461MOL0     H62223   8.054  11.843   7.403 -2.1619 -3.7358 -3.7304
  461MOL0     H62224   8.085  11.859   7.229  1.1572 -0.7165  0.5422
  461MOL0     H62225   7.984  12.057   7.304 -0.8797  1.1727  4.6963
  461MOL0     H62226   8.154  12.079   7.239  3.1762  0.8147  2.9061
  461MOL0     H62227   8.120  12.231   7.413 -3.1499 -0.3425 -0.3569
  461MOL0     H62228   8.242  12.106   7.470 -0.6770 -0.6688 -1.2936
  461MOL0     H62229   7.948  12.083   7.548 -0.8522 -1.3418  0.5120
  461MOL0     H62230   8.105  12.007   7.607  1.9270  0.7884 -2.3445
  461MOL0     H62231   8.039  12.364   7.836  2.2797 -1.8929  2.7774
  461MOL0     H62232   8.081  11.646   7.306 -0.2417 -1.0266 -3.5075
  461MOL0     H62233   8.141  11.290   7.320 -2.4434 -1.2242 -0.6309
  461MOL0     H62234   8.019  11.415   7.309 -0.3414 -1.4355 -0.2001
  461MOL0     H62235   8.106  11.355   7.160  1.4353  0.1055 -0.4789
  462MOL0     O62236   9.229   8.932   0.729  0.8779  0.2657  0.9095
  462MOL0     C62237   9.266   8.913   0.614  0.0557 -0.6542  0.8994
  462MOL0     O62238   9.255   8.998   0.512  0.4464  0.0744 -0.1785
  462MOL0     C62239   9.227   9.134   0.532  0.1305 -0.3119 -0.1702
  462MOL0     C62240   9.289   9.231   0.455  1.2478 -0.4558 -0.3098
  462MOL0     C62241   9.248   9.366   0.455  0.5217  0.1800  0.4416
  462MOL0     C62242   9.158   9.416   0.554 -1.4555  0.3101 -0.0177
  462MOL0     O62243   9.138   9.544   0.587 -0.1467  0.4714 -0.2555
  462MOL0     C62244   9.239   9.634   0.567 -0.4356 -0.3023  0.4490
  462MOL0     C62245   9.234   9.747   0.670 -0.6167  0.1852 -0.0463
  462MOL0     C62246   9.120   9.844   0.675 -0.5855 -0.3121  0.3775
  462MOL0     C62247   9.140   9.957   0.777 -0.0361 -0.1686 -1.1083
  462MOL0     C62248   9.008  10.032   0.808 -0.1321  0.0971 -0.2235
  462MOL0     C62249   9.026  10.122   0.928  0.1431  0.5399 -0.2225
  462MOL0     C62250   8.914  10.217   0.951  0.9889  0.0910 -0.3852
  462MOL0     C62251   8.873  10.258   1.093 -1.2625  0.1010  0.2669
  462MOL0     N62252   8.759  10.343   1.096  1.1898 -0.0536  0.0044
  462MOL0     C62253   8.737  10.479   1.109  0.2838 -0.2024  0.4950
  462MOL0     C62254   8.604  10.505   1.107 -0.1623 -0.5310 -0.0425
  462MOL0     C62255   8.528  10.632   1.096  0.1778  0.2978 -0.3647
  462MOL0     C62256   8.473  10.659   0.952  0.7010  0.7262 -0.4670
  462MOL0     C62257   8.402  10.791   0.935  0.2538 -0.5206 -0.3418
  462MOL0     C62258   8.502  10.911   0.954  0.0016  0.0669 -0.0114
  462MOL0     O62259   8.593  10.915   0.848 -0.1722 -0.4071 -0.1077
  462MOL0     C62260   8.715  10.856   0.870  0.4212 -0.1836 -0.0425
  462MOL0     C62261   8.768  10.786   0.765 -0.3210  0.1940  0.3206
  462MOL0     C62262   8.893  10.720   0.780 -0.2717 -0.6629 -0.0389
  462MOL0     C62263   8.963  10.712   0.895 -0.4111 -0.0867  0.2943
  462MOL0     C62264   9.088  10.634   0.900 -0.4854  0.2436 -1.3725
  462MOL0     O62265   9.113  10.543   0.803 -0.3859  0.2865  0.3697
  462MOL0     C62266   9.239  10.476   0.786  0.2235  0.3290 -0.6466
  462MOL0     C62267   9.241  10.349   0.726  1.1063  0.5772 -0.4260
  462MOL0     C62268   9.364  10.289   0.698  0.3185 -0.4509 -0.1185
  462MOL0     C62269   9.483  10.351   0.717  0.4403  0.8246  0.9399
  462MOL0     O62270   9.591  10.273   0.688 -1.4799  0.4760 -0.0597
  462MOL0     C62271   9.718  10.343   0.688 -0.0627 -0.0303 -0.7809
  462MOL0     C62272   9.819  10.292   0.581 -0.6496 -0.4652 -0.2142
  462MOL0     C62273   9.786  10.326   0.440  0.0758  0.2782  0.5254
  462MOL0     C62274   9.897  10.302   0.344  0.2071  0.2869 -0.4702
  462MOL0     C62275   9.854  10.340   0.202 -0.4724  0.6574 -0.9409
  462MOL0     C62276   9.993  10.329   0.119  0.5153 -0.3028 -1.7924
  462MOL0     C62277   9.991  10.369  -0.025  0.0218  0.4848  0.8780
  462MOL0     C62278  10.118  10.325  -0.095 -0.7820  0.4605 -0.8462
  462MOL0    Cl62279  10.246  10.437  -0.055 -0.3131 -0.1769  0.3943
  462MOL0     C62280   9.483  10.480   0.773  0.2312 -0.5367 -0.5052
  462MOL0     C62281   9.363  10.537   0.810  0.3481  0.8663  0.2666
  462MOL0     O62282   9.152  10.639   1.011  0.0552  0.6730  0.6188
  462MOL0     C62283   8.911  10.782   1.007 -0.0532  0.4486 -0.6236
  462MOL0     C62284   8.787  10.850   0.994 -0.1017  0.1702 -0.0573
  462MOL0     N62285   8.542  10.383   1.095 -0.0722  0.1063  0.6829
  462MOL0     N62286   8.631  10.291   1.078 -0.3023  0.0754 -0.2692
  462MOL0     C62287   9.099   9.324   0.637  0.2606  0.0096  0.4299
  462MOL0     C62288   9.119   9.180   0.616 -0.8447 -0.1432 -0.2732
  462MOL0     C62289   9.328   8.783   0.569  0.7012 -0.9218 -0.4189
  462MOL0     C62290   9.340   8.749   0.428 -0.2458  0.3360  0.0441
  462MOL0     C62291   9.383   8.621   0.387  0.1348 -0.2876  0.2571
  462MOL0     C62292   9.404   8.521   0.487  0.6039 -1.5712 -0.4885
  462MOL0     O62293   9.437   8.397   0.443 -0.0923  0.4614 -0.7083
  462MOL0     C62294   9.438   8.284   0.525 -0.4165  0.3630 -0.0569
  462MOL0     C62295   9.488   8.158   0.450 -0.4939  0.6794 -0.0722
  462MOL0     C62296   9.470   8.024   0.522 -0.3152 -0.3431 -0.1802
  462MOL0     C62297   9.523   8.022   0.669 -0.4709  0.3963 -0.3943
  462MOL0     C62298   9.531   7.881   0.714  0.1799  0.4118 -0.4044
  462MOL0     C62299   9.536   7.764   0.743  0.7056  0.2831 -0.6267
  462MOL0     C62300   9.398   8.561   0.620 -0.4216  0.1945  0.4240
  462MOL0     C62301   9.371   8.690   0.665  0.4522 -0.5524  0.4643
  462MOL0     C62302   9.381   8.718   0.817 -0.8071  0.5104  0.9923
  462MOL0     H62303   9.364   9.193   0.386 -0.9254 -0.8505 -2.6195
  462MOL0     H62304   9.285   9.431   0.376 -0.0565 -0.6857 -0.5655
  462MOL0     H62305   9.336   9.583   0.570 -0.6449 -0.7841 -0.7542
  462MOL0     H62306   9.225   9.673   0.466 -0.7933 -0.6518  0.3648
  462MOL0     H62307   9.331   9.796   0.652  1.0995 -2.7737  0.4040
  462MOL0     H62308   9.245   9.698   0.767 -0.5659  0.3346  0.0251
  462MOL0     H62309   9.027   9.786   0.685 -0.7383  0.1845  2.2468
  462MOL0     H62310   9.113   9.904   0.584 -3.1294 -0.4045  0.4424
  462MOL0     H62311   9.181   9.913   0.869 -0.5979  3.1538  0.8952
  462MOL0     H62312   9.206  10.038   0.744  1.4227 -2.0196 -3.0231
  462MOL0     H62313   8.996  10.097   0.721 -1.4594 -0.5090 -0.5184
  462MOL0     H62314   8.920   9.967   0.815  0.5424 -1.0599 -1.7479
  462MOL0     H62315   9.055  10.054   1.009  0.1433 -0.6254 -1.1771
  462MOL0     H62316   9.109  10.191   0.912 -0.4112  2.4184  3.6457
  462MOL0     H62317   8.821  10.174   0.911  2.5784 -3.6906 -0.4279
  462MOL0     H62318   8.934  10.312   0.901 -0.6557  0.1542 -0.9988
  462MOL0     H62319   8.869  10.168   1.156  2.1626 -1.2699 -1.2521
  462MOL0     H62320   8.956  10.316   1.133 -2.6848  0.1570  3.4711
  462MOL0     H62321   8.823  10.544   1.099 -0.3822  0.6696  0.2400
  462MOL0     H62322   8.443  10.641   1.165 -0.4383  1.5131 -1.2439
  462MOL0     H62323   8.595  10.712   1.130 -0.0752 -0.5639  2.5003
  462MOL0     H62324   8.545  10.637   0.872 -2.0792 -2.3902 -2.3501
  462MOL0     H62325   8.392  10.587   0.943 -0.1589  1.7133 -0.8004
  462MOL0     H62326   8.322  10.802   1.009  0.2115 -0.3198 -0.4153
  462MOL0     H62327   8.347  10.791   0.840 -2.6562  1.2493  1.1730
  462MOL0     H62328   8.561  10.907   1.046  0.8058 -0.5801 -0.5366
  462MOL0     H62329   8.445  11.003   0.967  1.0499  0.6695  0.4535
  462MOL0     H62330   8.721  10.783   0.667 -1.8293 -3.2042  1.0052
  462MOL0     H62331   8.932  10.670   0.692  1.0059 -1.6227  1.0381
  462MOL0     H62332   9.154  10.295   0.691  0.6688  1.5065 -0.8034
  462MOL0     H62333   9.370  10.188   0.657 -0.2960  0.5875 -3.0042
  462MOL0     H62334   9.708  10.449   0.665  0.1969 -0.1825 -1.6353
  462MOL0     H62335   9.759  10.334   0.789 -0.7410 -0.4682 -0.5290
  462MOL0     H62336   9.914  10.326   0.624 -2.6004  1.7503  2.6776
  462MOL0     H62337   9.825  10.183   0.587  1.5551 -0.4591 -1.1349
  462MOL0     H62338   9.694  10.276   0.409 -1.4251  3.7368 -1.1821
  462MOL0     H62339   9.760  10.432   0.431 -0.3376  0.1486  0.1830
  462MOL0     H62340   9.918  10.194   0.345  0.0376  0.1859 -2.9387
  462MOL0     H62341   9.986  10.350   0.385 -1.1516  2.3543  0.2394
  462MOL0     H62342   9.814  10.441   0.195  1.9979  1.6967 -1.0851
  462MOL0     H62343   9.780  10.266   0.170 -0.0907  0.0240 -0.4047
  462MOL0     H62344  10.070  10.386   0.172  0.1954  0.9417 -2.6105
  462MOL0     H62345  10.028  10.226   0.127 -1.2676 -0.8061  2.9744
  462MOL0     H62346   9.970  10.474  -0.046 -0.4370  0.0038 -1.3165
  462MOL0     H62347   9.903  10.323  -0.072  0.2422  0.1324  0.8071
  462MOL0     H62348  10.138  10.223  -0.060 -0.9354  0.7767  0.1943
  462MOL0     H62349  10.099  10.314  -0.203 -0.1112  0.1961 -0.9362
  462MOL0     H62350   9.576  10.535   0.783 -0.7519  1.1913 -0.2751
  462MOL0     H62351   9.364  10.641   0.841  1.9408  1.1584 -0.6680
  462MOL0     H62352   8.957  10.773   1.105  0.3634 -2.0907 -0.9931
  462MOL0     H62353   8.751  10.906   1.080 -1.6333 -0.2905 -0.3735
  462MOL0     H62354   9.023   9.360   0.706 -1.4509  0.8349 -1.7527
  462MOL0     H62355   9.068   9.098   0.666 -0.4436 -0.7915 -0.9202
  462MOL0     H62356   9.296   8.814   0.354  1.0329 -0.7912 -1.7785
  462MOL0     H62357   9.375   8.587   0.285  0.3009  0.8847 -0.1597
  462MOL0     H62358   9.340   8.263   0.568  0.4217 -5.5777 -0.2169
  462MOL0     H62359   9.504   8.288   0.613  4.1779  0.9934 -3.1785
  462MOL0     H62360   9.595   8.163   0.428  0.5081 -0.2886  3.8577
  462MOL0     H62361   9.436   8.171   0.354  1.7522 -0.0580 -1.4768
  462MOL0     H62362   9.535   7.954   0.469 -2.1934  0.0110 -3.2491
  462MOL0     H62363   9.367   7.986   0.524  0.1578 -1.7999  3.1859
  462MOL0     H62364   9.617   8.078   0.673 -2.1715  3.4279  0.8510
  462MOL0     H62365   9.463   8.070   0.747 -0.7846  0.4040 -0.6378
  462MOL0     H62366   9.532   7.661   0.771 -1.5243  0.3747 -0.4294
  462MOL0     H62367   9.424   8.486   0.693  1.2935  0.3056 -0.0204
  462MOL0     H62368   9.283   8.692   0.857 -1.0154 -0.4911 -0.0881
  462MOL0     H62369   9.467   8.663   0.857 -3.0797 -3.0298  1.4216
  462MOL0     H62370   9.410   8.821   0.837  1.2827  0.2951 -0.5524
  463MOL0     O62371   8.068   0.838   2.588 -0.0062  0.0488 -0.0978
  463MOL0     C62372   7.962   0.773   2.601 -0.2191 -0.2294  0.0605
  463MOL0     O62373   7.940   0.664   2.689 -0.8748  0.3960  0.9288
  463MOL0     C62374   8.046   0.628   2.767  0.0071  0.6261 -0.1740
  463MOL0     C62375   8.067   0.484   2.755  0.0175 -0.6265 -0.0083
  463MOL0     C62376   8.166   0.426   2.838 -0.2714 -0.9611  0.9944
  463MOL0     C62377   8.244   0.508   2.920  0.2138  0.9777  0.4695
  463MOL0     O62378   8.366   0.457   2.960 -0.5736  0.1481 -0.5572
  463MOL0     C62379   8.422   0.505   3.089 -0.0911  1.1960  0.6219
  463MOL0     C62380   8.517   0.392   3.144 -0.6205  0.9171  0.6066
  463MOL0     C62381   8.630   0.372   3.044 -0.2445 -0.0011 -0.0416
  463MOL0     C62382   8.747   0.294   3.100 -0.0303 -0.4931  0.0945
  463MOL0     C62383   8.861   0.268   3.009  0.7209 -1.2438 -0.0877
  463MOL0     C62384   8.940   0.397   2.990 -0.4668  0.3788 -0.1684
  463MOL0     C62385   9.075   0.388   2.906  0.2752 -0.6551 -0.2698
  463MOL0     C62386   9.085   0.493   2.794  0.2457 -0.4163 -0.0547
  463MOL0     N62387   9.096   0.620   2.862  0.4450 -0.1063 -0.8882
  463MOL0     C62388   9.209   0.699   2.872  0.0903 -0.3000 -0.1133
  463MOL0     C62389   9.169   0.827   2.877  0.5666  0.1357 -0.1912
  463MOL0     C62390   9.257   0.944   2.865 -0.4989 -0.9158  0.0780
  463MOL0     C62391   9.294   0.980   3.007 -0.5434 -0.3154 -0.8464
  463MOL0     C62392   9.384   1.103   2.997  0.7176 -0.2611  0.0481
  463MOL0     C62393   9.526   1.067   2.949 -0.7943 -0.6937  0.1949
  463MOL0     O62394   9.589   0.969   3.030 -0.3750  0.9525 -0.0078
  463MOL0     C62395   9.684   0.877   2.982  0.9649  0.7763 -0.6098
  463MOL0     C62396   9.688   0.840   2.849 -0.7952 -0.6629  0.5499
  463MOL0     C62397   9.776   0.752   2.800 -0.6196 -0.0507  0.0655
  463MOL0     C62398   9.879   0.713   2.885  0.5559  0.3949 -0.8250
  463MOL0     C62399   9.987   0.634   2.838 -0.6327 -0.9508 -0.3347
  463MOL0     O62400   9.978   0.568   2.713  0.6346 -0.4387  0.0647
  463MOL0     C62401  10.089   0.509   2.665 -1.1970  0.7678  0.6379
  463MOL0     C62402  10.103   0.365   2.665  0.6439 -0.2362 -0.1067
  463MOL0     C62403  10.210   0.312   2.594  0.1952 -0.7496 -0.1289
  463MOL0     C62404  10.321   0.381   2.534  0.3222  1.2705  0.5648
  463MOL0     O62405  10.425   0.310   2.469  0.1285  0.0639 -0.3079
  463MOL0     C62406  10.529   0.399   2.427 -0.6641  0.3035 -0.7617
  463MOL0     C62407  10.646   0.318   2.359 -0.2798 -0.2108 -0.7740
  463MOL0     C62408  10.717   0.221   2.455  0.1793 -0.0430 -0.8926
  463MOL0     C62409  10.778   0.110   2.362 -0.9180  0.2352  0.3334
  463MOL0     C62410  10.852  -0.007   2.434  0.0391  0.1595  0.1178
  463MOL0     C62411  10.756  -0.095   2.510  0.1391  0.0532 -0.6667
  463MOL0     C62412  10.843  -0.204   2.577 -0.3536 -0.4427 -0.8811
  463MOL0     C62413  10.760  -0.265   2.696  0.5093  0.3685 -0.5587
  463MOL0    Cl62414  10.851  -0.394   2.768 -0.2288 -0.2643  0.2351
  463MOL0     C62415  10.316   0.521   2.552 -0.1614 -0.1891 -0.4124
  463MOL0     C62416  10.200   0.580   2.604 -0.1658 -0.0332 -0.6720
  463MOL0     O62417  10.087   0.640   2.905  0.0890  0.0081  0.2444
  463MOL0     C62418   9.876   0.750   3.018 -0.0669  1.6044 -0.1849
  463MOL0     C62419   9.774   0.821   3.075  0.7988 -0.4576  1.3083
  463MOL0     N62420   9.030   0.829   2.888  0.6191 -0.0417 -0.2221
  463MOL0     N62421   8.996   0.708   2.876 -0.7014  0.4720  0.8295
  463MOL0     C62422   8.224   0.647   2.928  0.0681 -0.3675  0.2025
  463MOL0     C62423   8.121   0.704   2.861  0.6756 -0.3979  0.1200
  463MOL0     C62424   7.838   0.823   2.539 -0.0001  0.0297 -1.5046
  463MOL0     C62425   7.715   0.811   2.609 -0.0590  0.2687  0.5804
  463MOL0     C62426   7.594   0.846   2.543  0.4254 -0.9216  0.1186
  463MOL0     C62427   7.603   0.922   2.426  0.5055 -0.0106 -0.5113
  463MOL0     O62428   7.483   0.971   2.400 -0.0177 -0.4168  0.1208
  463MOL0     C62429   7.471   1.052   2.281  0.3816 -0.0365  0.3985
  463MOL0     C62430   7.323   1.082   2.253  0.8527 -0.2032  0.8252
  463MOL0     C62431   7.243   0.946   2.228  0.0917 -0.2545  0.4367
  463MOL0     C62432   7.135   0.965   2.122 -1.4999 -0.1097 -0.4905
  463MOL0     C62433   7.030   0.866   2.103  0.5039 -0.4660 -0.0747
  463MOL0     C62434   6.945   0.793   2.064 -0.5831  0.3522  0.3245
  463MOL0     C62435   7.731   0.953   2.362 -0.0020  0.2813 -0.3832
  463MOL0     C62436   7.844   0.906   2.420 -0.5650 -0.1189  0.5222
  463MOL0     C62437   7.978   0.921   2.335  0.1859  0.0733  0.0747
  463MOL0     H62438   8.012   0.427   2.680  1.1904 -1.9038  0.0775
  463MOL0     H62439   8.189   0.322   2.817 -0.1138 -1.5254  3.6355
  463MOL0     H62440   8.479   0.598   3.080 -0.4416  1.4463  0.9493
  463MOL0     H62441   8.342   0.521   3.161 -1.6747 -0.9116 -0.5551
  463MOL0     H62442   8.471   0.295   3.160  1.6026 -0.4037 -0.4562
  463MOL0     H62443   8.560   0.431   3.237  1.5940  2.8416 -1.0964
  463MOL0     H62444   8.678   0.470   3.033  3.4027 -1.5675  0.2414
  463MOL0     H62445   8.596   0.339   2.945 -1.9101  0.3609  0.3882
  463MOL0     H62446   8.785   0.338   3.192  0.7999  1.9493 -1.3359
  463MOL0     H62447   8.696   0.198   3.114 -0.4067 -0.0019  2.5378
  463MOL0     H62448   8.921   0.180   3.035 -0.2700 -2.8897 -2.8620
  463MOL0     H62449   8.823   0.242   2.909 -0.3677  0.4916 -0.1536
  463MOL0     H62450   8.879   0.466   2.931 -2.2392 -0.2719  0.8276
  463MOL0     H62451   8.966   0.446   3.084  1.0016 -0.5994 -0.0335
  463MOL0     H62452   9.080   0.287   2.866 -0.7997 -1.7175  2.0893
  463MOL0     H62453   9.147   0.406   2.987 -1.2444  2.6799  0.5212
  463MOL0     H62454   9.177   0.470   2.739  1.3561 -2.1542  2.3609
  463MOL0     H62455   9.006   0.493   2.718 -1.3007  1.8764  1.4157
  463MOL0     H62456   9.313   0.667   2.865  0.6995  0.7394  2.9139
  463MOL0     H62457   9.336   0.939   2.790 -0.2939  1.0011  0.0990
  463MOL0     H62458   9.195   1.028   2.830 -0.6381 -2.9047 -5.3932
  463MOL0     H62459   9.206   1.010   3.065  1.0493  0.8939  1.0977
  463MOL0     H62460   9.347   0.899   3.059 -1.1850 -0.0913  0.1871
  463MOL0     H62461   9.393   1.166   3.086 -3.0331  2.0367 -0.9766
  463MOL0     H62462   9.339   1.170   2.923  1.9037  2.9329  1.9999
  463MOL0     H62463   9.597   1.150   2.957  0.1197 -1.6620  3.6329
  463MOL0     H62464   9.511   1.031   2.847 -1.3511 -1.7738  0.6488
  463MOL0     H62465   9.618   0.880   2.775  1.3313  0.4467 -0.9800
  463MOL0     H62466   9.775   0.714   2.699 -0.7580 -2.5995  0.9408
  463MOL0     H62467  10.041   0.293   2.715 -0.1642  0.9174  0.6078
  463MOL0     H62468  10.233   0.207   2.601  3.5451 -0.0233  2.8416
  463MOL0     H62469  10.501   0.474   2.352  1.1401  1.0807 -0.7168
  463MOL0     H62470  10.570   0.440   2.519  0.4799  0.2639 -1.2411
  463MOL0     H62471  10.603   0.259   2.278  0.9269  1.3741 -2.6589
  463MOL0     H62472  10.716   0.399   2.336 -0.3442  0.4420  1.1803
  463MOL0     H62473  10.792   0.280   2.510 -4.2351  2.9891  2.6131
  463MOL0     H62474  10.652   0.177   2.530 -0.1504  1.3844 -0.2994
  463MOL0     H62475  10.852   0.145   2.290 -1.7445 -0.9174 -1.1549
  463MOL0     H62476  10.700   0.063   2.301 -1.0766  2.3544 -1.1997
  463MOL0     H62477  10.919   0.039   2.507  1.8416  1.2437 -2.1156
  463MOL0     H62478  10.907  -0.067   2.362 -1.4728 -2.4199  0.9626
  463MOL0     H62479  10.704  -0.035   2.585  1.8902  1.6237 -0.6245
  463MOL0     H62480  10.676  -0.135   2.447 -0.5258  0.4780 -0.1099
  463MOL0     H62481  10.939  -0.168   2.616 -2.2290  2.9199  1.2272
  463MOL0     H62482  10.866  -0.283   2.506 -1.9416 -1.7255 -0.0369
  463MOL0     H62483  10.742  -0.191   2.775  1.1864 -0.9550  0.8838
  463MOL0     H62484  10.662  -0.296   2.657 -1.2930  6.5777 -2.1439
  463MOL0     H62485  10.392   0.584   2.508  2.5422 -4.3872 -2.4962
  463MOL0     H62486  10.206   0.689   2.601  4.1228 -0.0222  1.5753
  463MOL0     H62487   9.934   0.716   3.104 -0.0792  2.5890  0.2238
  463MOL0     H62488   9.762   0.855   3.177  0.6952  2.4557  0.4063
  463MOL0     H62489   8.291   0.707   2.988  0.7125  0.9127 -1.6886
  463MOL0     H62490   8.112   0.812   2.866  0.8398 -0.3813  0.0748
  463MOL0     H62491   7.714   0.787   2.714 -1.1056  1.7506  0.9403
  463MOL0     H62492   7.493   0.837   2.581 -0.2433 -0.2287 -1.4247
  463MOL0     H62493   7.531   1.010   2.200  2.2883 -0.1869  1.8170
  463MOL0     H62494   7.513   1.150   2.304  0.0601  0.6692 -1.8321
  463MOL0     H62495   7.324   1.134   2.157  0.7778  1.6150  1.7813
  463MOL0     H62496   7.273   1.134   2.335  1.3213 -0.0587  1.0199
  463MOL0     H62497   7.203   0.914   2.325  2.9953  1.7993  2.5203
  463MOL0     H62498   7.310   0.863   2.203 -0.2170 -1.1668  2.4638
  463MOL0     H62499   7.084   1.062   2.133  1.0371  1.2341  0.1099
  463MOL0     H62500   7.196   0.967   2.031  1.9250 -0.8166  1.6089
  463MOL0     H62501   6.863   0.733   2.030  1.5732 -1.5827 -1.8852
  463MOL0     H62502   7.747   1.000   2.266  0.8004 -0.0350 -0.4091
  463MOL0     H62503   8.015   0.821   2.310  0.1999 -0.4967  2.1251
  463MOL0     H62504   7.960   0.969   2.239 -0.2440 -2.1212 -1.0188
  463MOL0     H62505   8.060   0.975   2.382  0.9136 -1.6598  0.8951
  464MOL0     O62506   0.900   9.443   6.196 -0.7836  0.1040 -0.0659
  464MOL0     C62507   0.774   9.430   6.196 -0.0503 -0.6040 -0.0104
  464MOL0     O62508   0.704   9.343   6.126 -0.0120 -0.0480  0.6379
  464MOL0     C62509   0.757   9.289   6.014  0.5184  0.5449  0.0357
  464MOL0     C62510   0.742   9.351   5.895 -0.5302  0.2182  0.5362
  464MOL0     C62511   0.806   9.297   5.781  0.9370  0.6957  0.2315
  464MOL0     C62512   0.884   9.180   5.797  0.1783  0.3126 -0.1260
  464MOL0     O62513   0.931   9.129   5.676  0.2861 -0.0897  0.2168
  464MOL0     C62514   1.067   9.123   5.654 -0.0347 -0.1720  0.4495
  464MOL0     C62515   1.080   9.155   5.501 -0.2694  0.1557 -0.3475
  464MOL0     C62516   1.223   9.178   5.447  0.0466  0.4184  0.0781
  464MOL0     C62517   1.300   9.274   5.534 -0.5511  0.3741  0.5196
  464MOL0     C62518   1.230   9.410   5.558 -0.5190 -0.9786  0.7111
  464MOL0     C62519   1.319   9.485   5.647 -0.6457  0.8006  0.3114
  464MOL0     C62520   1.272   9.624   5.659  0.8883  1.0638 -0.3252
  464MOL0     C62521   1.337   9.700   5.775 -0.7702 -0.1047  0.2562
  464MOL0     N62522   1.474   9.732   5.734 -0.6117  0.7838 -0.3645
  464MOL0     C62523   1.584   9.656   5.761 -0.5098 -0.1460  0.3501
  464MOL0     C62524   1.687   9.734   5.716  0.4995 -0.4750  1.2766
  464MOL0     C62525   1.834   9.706   5.717 -1.3537 -0.0503 -0.2700
  464MOL0     C62526   1.880   9.744   5.864 -0.4190 -0.1196  0.2381
  464MOL0     C62527   2.015   9.689   5.896  1.2189 -0.9895 -0.2212
  464MOL0     C62528   2.004   9.539   5.926  0.5240  0.7499 -0.4998
  464MOL0     O62529   1.989   9.533   6.064 -0.5948 -0.3630 -0.1604
  464MOL0     C62530   2.032   9.417   6.119 -0.3305 -0.5877  0.7590
  464MOL0     C62531   1.934   9.352   6.174 -0.5478 -0.6565  0.4630
  464MOL0     C62532   1.959   9.230   6.238 -0.7929 -1.1047 -0.2123
  464MOL0     C62533   2.092   9.179   6.243  0.1505  0.2325 -0.4890
  464MOL0     C62534   2.125   9.044   6.302  0.4222  0.2502  0.0633
  464MOL0     O62535   2.030   8.952   6.298  0.4388  0.1987 -0.2301
  464MOL0     C62536   2.048   8.833   6.363 -0.3411 -0.7177 -1.1395
  464MOL0     C62537   2.101   8.736   6.286  0.0539  0.5351  0.4165
  464MOL0     C62538   2.141   8.614   6.338  0.2457  0.3851 -0.2130
  464MOL0     C62539   2.101   8.577   6.479  0.2247  0.0683  0.0438
  464MOL0     O62540   2.124   8.464   6.551 -1.0102 -0.7821  0.2544
  464MOL0     C62541   2.017   8.397   6.617  0.7372  0.5905 -0.1667
  464MOL0     C62542   1.951   8.291   6.530  0.0997  0.2491  0.2548
  464MOL0     C62543   1.875   8.346   6.412 -0.9000 -0.3262 -0.0262
  464MOL0     C62544   1.737   8.406   6.461 -0.0092  0.0512  0.1953
  464MOL0     C62545   1.636   8.426   6.344 -0.2754  0.9409 -0.4070
  464MOL0     C62546   1.650   8.550   6.260 -1.0946  0.4042  0.0096
  464MOL0     C62547   1.603   8.524   6.121  0.0766  0.5192  0.1525
  464MOL0     C62548   1.457   8.466   6.114 -0.1971 -1.3626  0.0696
  464MOL0    Cl62549   1.352   8.551   6.228 -0.3554  0.2585  0.5846
  464MOL0     C62550   2.027   8.688   6.546  0.6287  0.5146 -0.3574
  464MOL0     C62551   2.017   8.811   6.493  1.0417 -0.2535 -0.6105
  464MOL0     O62552   2.240   9.022   6.351 -0.0974 -0.8585  0.3141
  464MOL0     C62553   2.194   9.262   6.194  0.3625 -0.1468 -0.4569
  464MOL0     C62554   2.167   9.382   6.127 -0.1336 -0.0115 -0.4132
  464MOL0     N62555   1.635   9.841   5.645 -0.1592 -0.7900  0.3255
  464MOL0     N62556   1.506   9.842   5.657 -0.0272  0.5283  0.8882
  464MOL0     C62557   0.900   9.117   5.915 -0.8515 -0.9528 -0.2196
  464MOL0     C62558   0.835   9.171   6.021 -0.5948  0.3848 -0.0273
  464MOL0     C62559   0.703   9.528   6.291  1.3123  0.3227  0.1561
  464MOL0     C62560   0.774   9.649   6.317  0.3370 -1.1508 -0.7791
  464MOL0     C62561   0.712   9.738   6.399  0.8440  0.2239 -0.0926
  464MOL0     C62562   0.585   9.720   6.461 -0.2244  0.2838 -0.3698
  464MOL0     O62563   0.514   9.813   6.541  0.9210  1.2076 -0.1963
  464MOL0     C62564   0.588   9.929   6.581 -0.2013 -0.1021 -0.3075
  464MOL0     C62565   0.504  10.011   6.672 -0.2559 -1.4063  0.2017
  464MOL0     C62566   0.573  10.143   6.718  0.2924 -0.7476  0.7623
  464MOL0     C62567   0.498  10.239   6.813 -0.2992 -0.6594  0.3704
  464MOL0     C62568   0.422  10.171   6.924  0.1480 -1.1915  0.6457
  464MOL0     C62569   0.358  10.114   7.012  0.1220 -1.0274  0.4141
  464MOL0     C62570   0.517   9.594   6.434 -0.2550 -0.1531 -0.7531
  464MOL0     C62571   0.584   9.495   6.353 -1.1439 -0.7623 -0.5942
  464MOL0     C62572   0.527   9.352   6.354 -0.5296  0.6521  0.1373
  464MOL0     H62573   0.678   9.439   5.892 -0.6210  0.1742  1.1770
  464MOL0     H62574   0.796   9.345   5.684 -1.2451  0.4654  0.2966
  464MOL0     H62575   1.119   9.197   5.717  3.7476 -0.6254 -1.8608
  464MOL0     H62576   1.100   9.023   5.683  0.7510  0.2321  0.9974
  464MOL0     H62577   1.023   9.246   5.476  1.0539  0.2385 -3.4908
  464MOL0     H62578   1.029   9.077   5.445 -4.0190  0.5382  2.1265
  464MOL0     H62579   1.211   9.216   5.345 -2.1551  0.3863  0.2625
  464MOL0     H62580   1.287   9.091   5.462 -3.0670 -1.6514  2.9182
  464MOL0     H62581   1.316   9.238   5.636  2.0626  2.3900  0.9170
  464MOL0     H62582   1.397   9.293   5.487  0.0853 -1.2597  1.0923
  464MOL0     H62583   1.219   9.462   5.463 -1.3548 -2.0863  0.1761
  464MOL0     H62584   1.139   9.396   5.616  0.3510 -3.0702  1.6878
  464MOL0     H62585   1.319   9.444   5.748 -1.2478 -2.3879 -0.8655
  464MOL0     H62586   1.424   9.476   5.617 -1.5381  0.4140 -3.1646
  464MOL0     H62587   1.164   9.632   5.671  0.4405  0.9187 -3.4529
  464MOL0     H62588   1.290   9.678   5.566 -1.5305  0.7116 -1.0778
  464MOL0     H62589   1.292   9.798   5.793 -0.9951 -0.3148  0.8801
  464MOL0     H62590   1.330   9.647   5.871 -0.4899 -0.7617 -0.0799
  464MOL0     H62591   1.575   9.550   5.784 -3.9587 -0.3641 -1.3513
  464MOL0     H62592   1.859   9.608   5.677  2.7584  1.7044 -2.7350
  464MOL0     H62593   1.882   9.775   5.646  0.7925 -0.6470  0.5042
  464MOL0     H62594   1.880   9.851   5.885 -0.5581 -0.1879  0.5900
  464MOL0     H62595   1.816   9.700   5.941  2.0551 -1.7551  1.5304
  464MOL0     H62596   2.044   9.740   5.989  0.3278  1.3997 -1.1644
  464MOL0     H62597   2.087   9.725   5.823  2.9912  1.8445  2.6344
  464MOL0     H62598   2.097   9.485   5.907  0.1553 -1.5305  3.1484
  464MOL0     H62599   1.921   9.482   5.883  1.2954 -0.4091 -0.5037
  464MOL0     H62600   1.830   9.380   6.159 -0.1122  0.1698 -1.2775
  464MOL0     H62601   1.877   9.169   6.274 -0.5706 -1.4845 -0.3510
  464MOL0     H62602   2.114   8.754   6.179 -4.0660 -2.7427 -0.8975
  464MOL0     H62603   2.201   8.542   6.283 -0.0920  2.7165 -3.9036
  464MOL0     H62604   2.060   8.346   6.703 -0.7036 -1.9137 -0.8537
  464MOL0     H62605   1.944   8.472   6.651  0.1648 -0.4724  0.9995
  464MOL0     H62606   2.029   8.224   6.492  1.8508  3.9889 -3.6305
  464MOL0     H62607   1.878   8.238   6.591  0.6125  1.1954  1.7512
  464MOL0     H62608   1.928   8.426   6.362 -1.1075  0.8857  1.6139
  464MOL0     H62609   1.847   8.266   6.342 -1.8507 -0.3502  0.3671
  464MOL0     H62610   1.739   8.504   6.508 -0.8558 -0.5591  1.5783
  464MOL0     H62611   1.683   8.337   6.527 -0.4910  0.1881 -0.0509
  464MOL0     H62612   1.540   8.416   6.396  0.0442  2.1629  0.4667
  464MOL0     H62613   1.646   8.343   6.273 -0.8903  1.1093 -0.6897
  464MOL0     H62614   1.581   8.626   6.298 -1.8261  0.3313 -1.1483
  464MOL0     H62615   1.753   8.588   6.259 -1.5110  1.5540 -0.6159
  464MOL0     H62616   1.673   8.464   6.063  1.4944  1.3989  0.8816
  464MOL0     H62617   1.593   8.621   6.072  1.9562  0.2166 -0.9320
  464MOL0     H62618   1.424   8.457   6.011 -1.0899 -2.9384  0.4617
  464MOL0     H62619   1.454   8.363   6.151  3.6316 -1.6088  0.0467
  464MOL0     H62620   1.992   8.677   6.648  3.0170 -2.4457  0.2880
  464MOL0     H62621   1.956   8.892   6.534 -0.2843 -1.4769 -0.0550
  464MOL0     H62622   2.299   9.241   6.210  0.2872 -1.1238 -1.1380
  464MOL0     H62623   2.244   9.444   6.083 -1.3125  3.9801  2.4893
  464MOL0     H62624   0.957   9.025   5.913 -2.0192 -1.6952 -0.3155
  464MOL0     H62625   0.839   9.109   6.110 -0.4291  0.6185  0.1298
  464MOL0     H62626   0.871   9.668   6.271 -0.2084  2.2498 -0.8420
  464MOL0     H62627   0.762   9.833   6.418  1.8696 -0.0995 -1.1003
  464MOL0     H62628   0.607   9.985   6.489 -1.1216 -0.3344 -0.6504
  464MOL0     H62629   0.679   9.903   6.637 -0.9894 -1.1930  0.5070
  464MOL0     H62630   0.486   9.943   6.756 -1.5137  0.0362  1.1455
  464MOL0     H62631   0.411  10.041   6.623 -2.2176 -2.5962  2.9331
  464MOL0     H62632   0.602  10.200   6.629 -0.6068 -1.4016  0.0341
  464MOL0     H62633   0.666  10.127   6.774  1.7464  2.4329 -0.4679
  464MOL0     H62634   0.573  10.301   6.862 -0.9307  0.5900 -0.1903
  464MOL0     H62635   0.438  10.312   6.757  2.0009 -2.1006 -4.4797
  464MOL0     H62636   0.311  10.060   7.092  0.5749  0.0134  1.4122
  464MOL0     H62637   0.437   9.564   6.501 -0.4428 -1.8125 -1.6735
  464MOL0     H62638   0.603   9.279   6.386 -2.7506 -1.3999  0.9776
  464MOL0     H62639   0.441   9.352   6.421 -0.7897  0.9980 -0.1972
  464MOL0     H62640   0.491   9.335   6.253 -2.7293 -0.5483  1.0665
  465MOL0     O62641   8.629   8.579   4.989 -0.0846 -0.1935 -0.1462
  465MOL0     C62642   8.611   8.459   4.968  0.0303  0.4652  0.2026
  465MOL0     O62643   8.703   8.364   4.983 -0.2199 -0.1997 -0.0388
  465MOL0     C62644   8.825   8.395   5.045  0.4489 -0.1846  0.0270
  465MOL0     C62645   8.831   8.475   5.164  0.1819 -0.9801 -0.6194
  465MOL0     C62646   8.956   8.507   5.216  0.8937 -0.6921  0.3431
  465MOL0     C62647   9.068   8.463   5.152  0.4798  0.0877  0.6886
  465MOL0     O62648   9.188   8.488   5.212 -0.7541  0.3190  0.4549
  465MOL0     C62649   9.250   8.373   5.271 -0.1257 -0.5227  1.3594
  465MOL0     C62650   9.202   8.347   5.404  0.0506 -0.1199 -1.5990
  465MOL0     C62651   9.249   8.464   5.499  0.9235 -0.3488 -0.2405
  465MOL0     C62652   9.400   8.477   5.512  0.7921 -0.0959 -0.1792
  465MOL0     C62653   9.452   8.597   5.431 -0.5961 -0.3489 -0.1723
  465MOL0     C62654   9.604   8.610   5.420  0.0105  0.6934  0.2440
  465MOL0     C62655   9.660   8.747   5.389  0.5410 -0.9564  0.2287
  465MOL0     C62656   9.677   8.831   5.511  0.1845 -1.1312 -0.0138
  465MOL0     N62657   9.774   8.765   5.596 -0.5937  0.6315  0.0859
  465MOL0     C62658   9.909   8.739   5.573  0.7082 -0.8738  0.5568
  465MOL0     C62659   9.950   8.678   5.690  0.4128 -0.2446 -0.5449
  465MOL0     C62660  10.084   8.637   5.722 -0.2202  0.2912 -0.3484
  465MOL0     C62661  10.166   8.747   5.790 -0.2067 -0.5387  0.1950
  465MOL0     C62662  10.310   8.759   5.744 -0.0762 -0.5911  0.2498
  465MOL0     C62663  10.377   8.890   5.776  0.1494  0.0387 -0.2356
  465MOL0     O62664  10.414   8.887   5.912  0.4256 -0.3227  0.5059
  465MOL0     C62665  10.504   8.790   5.953 -0.0866  0.6554 -0.3696
  465MOL0     C62666  10.598   8.726   5.878 -0.1783 -0.6892 -0.6425
  465MOL0     C62667  10.686   8.629   5.938  0.6561 -0.0706 -0.4498
  465MOL0     C62668  10.676   8.596   6.069  0.4943 -0.3432 -0.0083
  465MOL0     C62669  10.765   8.494   6.134 -0.5466 -0.0578 -0.0675
  465MOL0     O62670  10.867   8.444   6.057  0.3421 -0.0705  0.2644
  465MOL0     C62671  10.965   8.365   6.109  0.5582  0.5054 -0.8813
  465MOL0     C62672  10.945   8.228   6.145  0.2226 -0.5030  0.9238
  465MOL0     C62673  11.057   8.156   6.192  0.4790  0.3824 -1.2891
  465MOL0     C62674  11.169   8.228   6.236 -0.8180  0.1763  0.0609
  465MOL0     O62675  11.274   8.160   6.302  0.0496  0.2654 -0.1639
  465MOL0     C62676  11.374   8.222   6.385 -0.1988  0.3254  0.6600
  465MOL0     C62677  11.415   8.114   6.494 -0.4968  0.0008 -0.0955
  465MOL0     C62678  11.535   8.023   6.462  1.1557 -0.3740 -0.1819
  465MOL0     C62679  11.656   8.097   6.505 -0.8992 -0.2839  0.8273
  465MOL0     C62680  11.785   8.037   6.465  0.2445 -0.0230 -0.4956
  465MOL0     C62681  11.814   8.066   6.319 -0.8412  0.3030 -0.0135
  465MOL0     C62682  11.851   7.937   6.242  0.1250 -1.0406 -0.6558
  465MOL0     C62683  11.981   7.871   6.291 -0.0939  0.0370 -0.1901
  465MOL0    Cl62684  12.012   7.727   6.179 -0.0010 -0.3668 -0.2694
  465MOL0     C62685  11.186   8.362   6.208  0.1238  0.4172 -0.0518
  465MOL0     C62686  11.081   8.435   6.153 -0.8106 -0.0810 -1.4755
  465MOL0     O62687  10.733   8.449   6.240  0.7162 -0.3087  0.4860
  465MOL0     C62688  10.574   8.651   6.142 -0.1830  0.6396  0.1518
  465MOL0     C62689  10.488   8.749   6.087  0.1029 -0.6470  0.3708
  465MOL0     N62690   9.843   8.668   5.776  0.1427  0.0879  0.3631
  465MOL0     N62691   9.743   8.722   5.720 -0.6606 -0.7495 -0.0204
  465MOL0     C62692   9.064   8.393   5.038 -0.3389 -0.6450 -0.0999
  465MOL0     C62693   8.946   8.345   4.998  0.1855 -0.4267  0.2335
  465MOL0     C62694   8.482   8.403   4.930 -1.0205  0.0466 -0.0145
  465MOL0     C62695   8.474   8.265   4.924  0.8291  0.1461 -0.3183
  465MOL0     C62696   8.356   8.197   4.895  0.2881  0.1208 -1.0401
  465MOL0     C62697   8.242   8.278   4.871 -0.1280  0.3865 -0.0431
  465MOL0     O62698   8.124   8.221   4.832  0.0084  0.0809 -0.0992
  465MOL0     C62699   8.104   8.087   4.874 -0.0284  0.2232 -0.8057
  465MOL0     C62700   7.952   8.064   4.853 -0.6510 -0.5593 -0.2179
  465MOL0     C62701   7.904   7.917   4.826  0.0848 -0.4046 -0.6093
  465MOL0     C62702   7.982   7.833   4.717 -0.2238 -0.0818 -1.0608
  465MOL0     C62703   7.993   7.908   4.593  0.0875  0.1145  0.6301
  465MOL0     C62704   8.010   7.978   4.500  0.3725 -0.0581  0.3133
  465MOL0     C62705   8.253   8.413   4.867  0.0590 -0.2958 -0.8053
  465MOL0     C62706   8.366   8.481   4.905 -0.4311  0.5493 -0.0616
  465MOL0     C62707   8.360   8.629   4.924  0.0698 -0.2777 -0.2692
  465MOL0     H62708   8.743   8.520   5.210  1.3586  0.5412  0.2347
  465MOL0     H62709   8.969   8.556   5.312 -3.6622 -0.4544  1.0649
  465MOL0     H62710   9.246   8.282   5.210 -0.5468  1.0670 -1.1274
  465MOL0     H62711   9.358   8.395   5.270 -0.1602 -0.2498 -0.3485
  465MOL0     H62712   9.231   8.250   5.446  1.7370  0.8881 -0.2379
  465MOL0     H62713   9.094   8.340   5.396  0.1453 -4.1364 -1.1982
  465MOL0     H62714   9.205   8.433   5.594 -1.0080 -1.9277 -1.5386
  465MOL0     H62715   9.191   8.552   5.472 -4.1374 -1.7987  4.1495
  465MOL0     H62716   9.428   8.478   5.617  0.0924 -3.0511  0.1256
  465MOL0     H62717   9.445   8.386   5.472  1.3149  0.2151 -0.3150
  465MOL0     H62718   9.410   8.600   5.330  2.7626  2.9791 -1.6879
  465MOL0     H62719   9.414   8.686   5.481 -1.4021  0.4924 -2.1833
  465MOL0     H62720   9.653   8.571   5.510 -0.3619  0.2924  0.2808
  465MOL0     H62721   9.639   8.538   5.346 -1.5902 -2.1799  2.0576
  465MOL0     H62722   9.589   8.798   5.322 -0.3302  0.1513  1.9345
  465MOL0     H62723   9.753   8.747   5.331 -0.0317  1.9839 -0.9104
  465MOL0     H62724   9.715   8.932   5.494  0.8926 -1.0888  1.6476
  465MOL0     H62725   9.583   8.842   5.565  0.5673  1.8346  0.1891
  465MOL0     H62726   9.959   8.769   5.481 -0.6846 -2.2528 -0.7200
  465MOL0     H62727  10.084   8.542   5.777 -0.2181 -0.3371 -1.4022
  465MOL0     H62728  10.129   8.610   5.626  1.6624 -3.1942  1.3075
  465MOL0     H62729  10.120   8.845   5.774  1.7301  0.1348 -1.7187
  465MOL0     H62730  10.166   8.724   5.897 -0.4355 -1.8534 -0.0688
  465MOL0     H62731  10.313   8.750   5.635 -1.3595  3.0793 -0.2019
  465MOL0     H62732  10.368   8.669   5.768 -1.2220 -1.0732  1.3310
  465MOL0     H62733  10.308   8.972   5.759  1.6780  1.0054 -2.3020
  465MOL0     H62734  10.458   8.892   5.702 -0.1727  1.8985 -0.5643
  465MOL0     H62735  10.612   8.747   5.772  0.5166 -2.1157 -0.8650
  465MOL0     H62736  10.764   8.595   5.870  3.0843  6.8542 -1.8746
  465MOL0     H62737  10.853   8.183   6.111  1.5721 -0.2761 -3.6105
  465MOL0     H62738  11.053   8.048   6.203  0.5584  0.3354 -1.7031
  465MOL0     H62739  11.458   8.245   6.318 -2.2972  1.6520 -1.6794
  465MOL0     H62740  11.329   8.307   6.437  0.5705  1.9116 -1.1293
  465MOL0     H62741  11.432   8.155   6.594  1.5877 -0.7377 -0.0943
  465MOL0     H62742  11.321   8.059   6.500 -0.9400  0.2816 -2.9931
  465MOL0     H62743  11.531   7.939   6.531 -0.5218 -1.1375 -1.1310
  465MOL0     H62744  11.528   7.986   6.359  0.6209  0.5166 -0.4780
  465MOL0     H62745  11.667   8.095   6.613  1.3977 -1.2936  0.6276
  465MOL0     H62746  11.652   8.198   6.462  2.5376  1.7616  4.6318
  465MOL0     H62747  11.790   7.933   6.498  2.9959  1.1031  3.4287
  465MOL0     H62748  11.854   8.093   6.529 -3.1677 -0.0718  3.7014
  465MOL0     H62749  11.726   8.112   6.273 -1.4180 -1.2434 -0.5189
  465MOL0     H62750  11.894   8.140   6.305 -2.2955  1.7846 -0.8885
  465MOL0     H62751  11.858   7.955   6.134 -0.0296  3.1189 -0.1311
  465MOL0     H62752  11.760   7.877   6.255 -0.4977  0.0491  0.1669
  465MOL0     H62753  12.071   7.932   6.300 -0.9920  1.1473  2.6388
  465MOL0     H62754  11.970   7.827   6.391  0.9849 -0.1117 -0.1326
  465MOL0     H62755  11.272   8.414   6.248 -0.3921  0.6714  0.7613
  465MOL0     H62756  11.085   8.541   6.133  0.1047  0.0389 -0.6991
  465MOL0     H62757  10.554   8.623   6.245 -4.1260 -0.4483 -0.7392
  465MOL0     H62758  10.414   8.800   6.147  0.3258 -0.1819  0.2572
  465MOL0     H62759   9.160   8.370   4.994  1.0456  2.1681  1.1713
  465MOL0     H62760   8.929   8.267   4.924  1.5759 -0.0892 -0.4798
  465MOL0     H62761   8.558   8.198   4.941  0.3906 -0.6728 -1.2492
  465MOL0     H62762   8.352   8.090   4.914 -0.5224 -0.3280 -3.4783
  465MOL0     H62763   8.129   8.081   4.981 -0.7611  0.2826 -0.6230
  465MOL0     H62764   8.170   8.020   4.818 -0.8007  0.5159 -2.1066
  465MOL0     H62765   7.913   8.122   4.769 -0.4277 -1.7499 -1.1789
  465MOL0     H62766   7.905   8.098   4.945 -0.8036 -1.0887 -0.0946
  465MOL0     H62767   7.796   7.902   4.818  0.0956 -0.8367 -0.0352
  465MOL0     H62768   7.930   7.868   4.921 -1.5176  1.4052  0.8466
  465MOL0     H62769   8.086   7.810   4.744 -0.3463 -0.5464 -0.9789
  465MOL0     H62770   7.936   7.733   4.710  4.2372 -2.4135 -0.7650
  465MOL0     H62771   8.022   8.029   4.407  0.4585 -3.1467 -1.5244
  465MOL0     H62772   8.162   8.467   4.844  0.8471  1.1330 -0.6800
  465MOL0     H62773   8.442   8.679   4.872  1.3158 -0.1485  1.7143
  465MOL0     H62774   8.261   8.664   4.891 -0.4247 -2.5185 -1.4054
  465MOL0     H62775   8.371   8.637   5.032 -0.5401  0.0084 -0.2235
  466MOL0     O62776   4.219   3.170  11.052 -0.3356 -0.7884  0.0474
  466MOL0     C62777   4.153   3.139  10.955 -0.1293 -0.2159  1.1434
  466MOL0     O62778   4.108   3.227  10.857  1.2763 -0.1797  0.4790
  466MOL0     C62779   4.157   3.355  10.857 -0.1705 -0.0036 -0.0201
  466MOL0     C62780   4.089   3.467  10.915  0.5120 -0.8396 -0.7008
  466MOL0     C62781   4.137   3.601  10.905 -0.3171  0.0675  0.1325
  466MOL0     C62782   4.242   3.632  10.823 -0.8516  0.0868  0.3958
  466MOL0     O62783   4.266   3.765  10.801  0.5852 -1.1237 -0.2010
  466MOL0     C62784   4.405   3.802  10.795  0.4281 -0.0305  0.3492
  466MOL0     C62785   4.426   3.949  10.762  0.2137 -0.0487 -0.3852
  466MOL0     C62786   4.370   4.005  10.629  0.2682 -0.2546  0.5559
  466MOL0     C62787   4.215   4.023  10.610 -0.2280  0.0343  0.2826
  466MOL0     C62788   4.183   4.082  10.475 -0.3551  0.9044  0.1725
  466MOL0     C62789   4.233   3.998  10.360 -0.8960 -0.3961 -0.1257
  466MOL0     C62790   4.163   4.062  10.233  0.0785  0.0969 -0.6357
  466MOL0     C62791   4.177   3.965  10.116 -0.3798 -1.2717  0.2803
  466MOL0     N62792   4.144   4.046  10.002  0.3153 -0.8229  0.5417
  466MOL0     C62793   4.216   4.067   9.884 -0.1267  0.1333 -1.3992
  466MOL0     C62794   4.142   4.153   9.815  0.0891  0.1867  0.6921
  466MOL0     C62795   4.173   4.204   9.681  0.4998  0.7253  0.3272
  466MOL0     C62796   4.162   4.110   9.558  0.3174 -0.0381 -0.4750
  466MOL0     C62797   4.046   4.011   9.557  0.3545 -0.1175  0.0806
  466MOL0     C62798   3.899   4.074   9.562 -0.8789  0.3506  0.7279
  466MOL0     O62799   3.804   3.969   9.566 -0.0473 -0.8894 -0.3335
  466MOL0     C62800   3.780   3.894   9.454 -0.6961 -0.0270  0.1448
  466MOL0     C62801   3.699   3.791   9.467  0.1985 -0.2456 -0.1283
  466MOL0     C62802   3.668   3.703   9.370  0.4714 -0.0757  0.4756
  466MOL0     C62803   3.707   3.719   9.241  0.6563 -0.6733  0.4041
  466MOL0     C62804   3.669   3.622   9.144 -0.1833 -0.2007 -0.0429
  466MOL0     O62805   3.732   3.640   9.018 -0.5058 -0.3280 -0.5759
  466MOL0     C62806   3.677   3.578   8.906 -0.0887 -0.2398 -0.0867
  466MOL0     C62807   3.635   3.652   8.798  0.0332  0.3612 -0.5161
  466MOL0     C62808   3.594   3.589   8.682 -0.6959  0.1408 -0.2035
  466MOL0     C62809   3.589   3.447   8.672 -0.4137 -0.1259 -0.2070
  466MOL0     O62810   3.559   3.387   8.557  0.1650 -0.5093  0.5768
  466MOL0     C62811   3.608   3.423   8.423  0.4811  0.0335  0.1194
  466MOL0     C62812   3.609   3.312   8.318 -0.2992 -0.2932 -1.3436
  466MOL0     C62813   3.475   3.277   8.255 -0.8895 -1.0872 -0.7191
  466MOL0     C62814   3.493   3.149   8.185  0.7663  0.3309  0.0092
  466MOL0     C62815   3.362   3.094   8.138  0.2140  0.4256  0.1540
  466MOL0     C62816   3.268   3.019   8.241 -0.4815 -0.3673  0.3387
  466MOL0     C62817   3.244   2.873   8.195  0.3276 -1.0795 -0.0943
  466MOL0     C62818   3.143   2.805   8.287 -0.0197  0.7349  0.2374
  466MOL0    Cl62819   2.987   2.898   8.282  0.4677 -0.0997 -0.2501
  466MOL0     C62820   3.616   3.372   8.788 -0.1561  1.0955 -0.9682
  466MOL0     C62821   3.669   3.437   8.901 -0.7262  0.5726 -0.0196
  466MOL0     O62822   3.586   3.541   9.161 -0.4941  0.3774  0.4694
  466MOL0     C62823   3.778   3.841   9.220 -0.7415  0.2039  0.1239
  466MOL0     C62824   3.828   3.921   9.321 -0.2020 -1.6265 -0.9035
  466MOL0     N62825   4.013   4.166   9.871  0.0228  0.3569  0.8540
  466MOL0     N62826   4.019   4.098   9.985 -0.0691  0.2235 -0.8978
  466MOL0     C62827   4.320   3.526  10.771 -0.1762  0.3862 -0.0266
  466MOL0     C62828   4.272   3.388  10.787  0.2825 -0.4498  1.1805
  466MOL0     C62829   4.107   2.999  10.931 -0.4635  0.3237 -0.4521
  466MOL0     C62830   4.040   2.969  10.804 -0.7249  0.8215  0.4865
  466MOL0     C62831   4.006   2.838  10.779  0.2057  0.4012 -0.4284
  466MOL0     C62832   4.027   2.738  10.871  0.5502  0.4071 -0.2117
  466MOL0     O62833   3.981   2.611  10.835 -0.1278 -0.6172 -0.1112
  466MOL0     C62834   4.086   2.524  10.787 -0.2677 -0.1061  0.4552
  466MOL0     C62835   4.065   2.498  10.641  0.3637 -0.1473 -0.4985
  466MOL0     C62836   3.938   2.413  10.620 -0.1458 -0.2001 -0.6277
  466MOL0     C62837   3.947   2.299  10.520 -0.9764  0.2820  1.1662
  466MOL0     C62838   4.044   2.192  10.557  1.1025 -0.7549  1.1880
  466MOL0     C62839   4.094   2.083  10.590 -0.5420 -1.1220  0.0940
  466MOL0     C62840   4.084   2.758  11.000  0.1370 -0.4941  0.8737
  466MOL0     C62841   4.118   2.894  11.033  0.5416  0.8815  0.3771
  466MOL0     C62842   4.166   2.914  11.174 -0.2938  0.9209 -0.7149
  466MOL0     H62843   4.006   3.454  10.983 -0.6528 -1.0123 -2.1092
  466MOL0     H62844   4.085   3.680  10.958 -1.4063 -1.3945  1.3407
  466MOL0     H62845   4.450   3.781  10.892  0.3094 -0.2511  0.3542
  466MOL0     H62846   4.456   3.749  10.714 -0.8428 -0.4135 -0.2285
  466MOL0     H62847   4.534   3.958  10.774  0.2710 -0.8910 -0.2583
  466MOL0     H62848   4.384   3.999  10.850 -0.9728 -2.4847  0.4972
  466MOL0     H62849   4.387   3.924  10.558  0.4226  2.4488 -2.7488
  466MOL0     H62850   4.424   4.096  10.602 -1.1920  0.8785  1.3098
  466MOL0     H62851   4.156   3.931  10.610  0.1436 -0.4092 -4.2125
  466MOL0     H62852   4.195   4.093  10.692  1.2126 -0.1021  0.7783
  466MOL0     H62853   4.075   4.097  10.478 -0.6062 -0.8023  0.4302
  466MOL0     H62854   4.236   4.177  10.465  0.2148  0.5580 -0.1462
  466MOL0     H62855   4.338   4.012  10.336 -0.9305  0.4338  0.1736
  466MOL0     H62856   4.206   3.894  10.383  3.5068 -0.8941  4.8448
  466MOL0     H62857   4.213   4.154  10.202  1.1210 -0.2060  0.1046
  466MOL0     H62858   4.056   4.074  10.252  0.1426 -0.3196  0.0107
  466MOL0     H62859   4.280   3.930  10.111 -0.4020 -1.2275 -0.5308
  466MOL0     H62860   4.119   3.873  10.117 -1.0784 -0.8649 -0.8947
  466MOL0     H62861   4.313   4.021   9.865 -0.4316 -1.3800  0.4036
  466MOL0     H62862   4.101   4.287   9.683  1.0540  1.2068  2.1180
  466MOL0     H62863   4.270   4.254   9.680  0.7732  0.2149 -1.0834
  466MOL0     H62864   4.144   4.178   9.475  0.6622 -1.3378 -1.6591
  466MOL0     H62865   4.257   4.060   9.537  0.9262  0.5104  0.8526
  466MOL0     H62866   4.079   3.949   9.640  0.9475 -1.7932 -1.3451
  466MOL0     H62867   4.045   3.934   9.480 -3.3809  1.0954 -1.3425
  466MOL0     H62868   3.890   4.139   9.475  0.0068 -2.0358 -1.2880
  466MOL0     H62869   3.883   4.135   9.651  1.8177 -2.3326  3.3053
  466MOL0     H62870   3.661   3.760   9.564 -2.0055  2.2735 -0.0735
  466MOL0     H62871   3.617   3.613   9.401 -1.8641  1.4738  1.3397
  466MOL0     H62872   3.635   3.760   8.810 -0.8351  0.6409 -2.7114
  466MOL0     H62873   3.543   3.648   8.607 -2.8759  0.5926  1.5219
  466MOL0     H62874   3.540   3.502   8.389  1.5210  1.3999  1.1043
  466MOL0     H62875   3.713   3.450   8.432  1.0409 -0.9908 -2.5952
  466MOL0     H62876   3.670   3.350   8.237 -0.3375  2.4895 -0.1899
  466MOL0     H62877   3.670   3.231   8.359  1.5669  0.9571 -1.5529
  466MOL0     H62878   3.396   3.263   8.329  0.2656  2.3573  1.4207
  466MOL0     H62879   3.449   3.349   8.177 -1.3819  0.6960  1.0110
  466MOL0     H62880   3.549   3.074   8.240  0.7263 -1.7931 -2.6384
  466MOL0     H62881   3.551   3.169   8.094 -0.6920 -1.3708 -1.3466
  466MOL0     H62882   3.393   3.022   8.061  0.2775  0.1048  0.4792
  466MOL0     H62883   3.301   3.169   8.086 -0.8347  0.4627  1.4025
  466MOL0     H62884   3.307   3.019   8.343  0.1322  0.5790  0.1173
  466MOL0     H62885   3.174   3.074   8.245 -1.5409 -2.1956  2.4571
  466MOL0     H62886   3.339   2.822   8.177  0.7371  0.0616 -1.3890
  466MOL0     H62887   3.195   2.882   8.097 -0.5266  1.1275  0.4768
  466MOL0     H62888   3.132   2.703   8.248  0.8144  0.1422  1.4777
  466MOL0     H62889   3.198   2.791   8.381  0.9309 -1.3150 -0.5718
  466MOL0     H62890   3.618   3.264   8.779 -0.9954  0.9312  0.4440
  466MOL0     H62891   3.714   3.387   8.986  1.6668  0.8410 -1.0365
  466MOL0     H62892   3.807   3.853   9.116 -0.9495 -0.7516 -0.0464
  466MOL0     H62893   3.901   3.998   9.296 -0.2844 -1.1693  0.1992
  466MOL0     H62894   4.402   3.549  10.704 -0.5490 -2.4846 -1.6419
  466MOL0     H62895   4.325   3.301  10.748  1.9041  0.6862  0.7703
  466MOL0     H62896   4.016   3.040  10.725  1.6778 -0.4775 -1.5468
  466MOL0     H62897   3.962   2.803  10.686 -3.2192 -0.7578  1.4320
  466MOL0     H62898   4.104   2.432  10.843  0.7198 -0.7824 -0.9141
  466MOL0     H62899   4.186   2.567  10.793  0.1862 -1.2387  1.2758
  466MOL0     H62900   4.156   2.445  10.611  3.8644  5.1387 -0.6167
  466MOL0     H62901   4.060   2.581  10.571 -2.0062 -2.0762 -2.8364
  466MOL0     H62902   3.859   2.477  10.578  1.2376  2.7707  1.0272
  466MOL0     H62903   3.909   2.386  10.722 -1.5343  3.1988  0.0058
  466MOL0     H62904   3.850   2.257  10.488 -0.7926 -0.2924  1.3503
  466MOL0     H62905   3.989   2.338  10.427  0.1511 -4.4345 -0.6249
  466MOL0     H62906   4.160   2.006  10.623  1.7633  0.5323 -0.3686
  466MOL0     H62907   4.111   2.669  11.055  0.2869  0.7319  2.8782
  466MOL0     H62908   4.151   2.826  11.238 -1.5390  0.3197 -1.8054
  466MOL0     H62909   4.276   2.920  11.174  0.0511 -2.9078 -0.4437
  466MOL0     H62910   4.131   3.009  11.216 -2.2330  0.1630 -0.5452
  467MOL0     O62911   1.542   9.048   5.793 -0.0601 -0.8167 -0.0173
  467MOL0     C62912   1.463   8.974   5.849 -0.3062 -0.1490  0.0480
  467MOL0     O62913   1.380   9.018   5.952 -0.0726  0.3350  0.6374
  467MOL0     C62914   1.374   9.154   5.987 -0.5403  0.4770  0.6996
  467MOL0     C62915   1.247   9.194   6.025 -0.2286  1.1945  0.0931
  467MOL0     C62916   1.221   9.317   6.074 -0.3234 -0.6752 -0.0007
  467MOL0     C62917   1.329   9.405   6.087 -0.6999  0.2139 -0.7985
  467MOL0     O62918   1.324   9.538   6.134 -0.8191  0.1644  0.1940
  467MOL0     C62919   1.197   9.595   6.146  0.6355 -0.0981 -0.1702
  467MOL0     C62920   1.208   9.747   6.153 -0.5208  0.1535 -0.5098
  467MOL0     C62921   1.074   9.829   6.127 -0.0714  0.8753  0.0184
  467MOL0     C62922   1.102   9.963   6.053  0.1539  0.0688  0.5235
  467MOL0     C62923   0.974  10.057   6.041  0.4217  0.0061 -0.1401
  467MOL0     C62924   1.023  10.178   5.970 -0.3736 -0.1824 -0.7393
  467MOL0     C62925   0.937  10.300   5.982  0.0377 -0.1529 -0.6733
  467MOL0     C62926   0.988  10.413   5.902  0.7883  0.2190  0.4741
  467MOL0     N62927   0.977  10.406   5.747  0.2717 -0.6961  0.6752
  467MOL0     C62928   0.865  10.378   5.683  0.8558  0.3917  0.7089
  467MOL0     C62929   0.905  10.349   5.547  0.1172  0.1848 -1.1490
  467MOL0     C62930   0.819  10.334   5.423  0.3223 -0.3966 -0.6688
  467MOL0     C62931   0.683  10.397   5.438 -0.0766  0.9285  0.5450
  467MOL0     C62932   0.618  10.417   5.302  0.5699 -0.3264  0.0488
  467MOL0     C62933   0.464  10.438   5.317 -0.5702 -0.6729 -0.6204
  467MOL0     O62934   0.402  10.445   5.184  0.1039  0.1783  0.6571
  467MOL0     C62935   0.265  10.463   5.171 -0.0296 -0.3323 -0.1336
  467MOL0     C62936   0.216  10.462   5.043  0.1267  0.5133 -0.5172
  467MOL0     C62937   0.078  10.494   5.023  1.0072  0.1675 -0.2119
  467MOL0     C62938  -0.007  10.525   5.133  0.4523 -0.1093 -0.2237
  467MOL0     C62939  -0.134  10.599   5.111 -0.2036 -0.2550  0.4941
  467MOL0     O62940  -0.188  10.608   4.981 -0.2714  0.2389  0.2334
  467MOL0     C62941  -0.280  10.700   4.948  0.0164 -0.1409 -0.8254
  467MOL0     C62942  -0.403  10.674   4.884 -0.5560 -1.3275 -0.3333
  467MOL0     C62943  -0.485  10.776   4.855 -0.4533  0.1712  0.9756
  467MOL0     C62944  -0.447  10.912   4.876 -0.6674  1.0083  0.5390
  467MOL0     O62945  -0.527  11.017   4.851 -0.8434  0.0523 -0.2502
  467MOL0     C62946  -0.609  11.009   4.730 -0.3644 -1.6066 -0.7500
  467MOL0     C62947  -0.641  11.146   4.686 -0.9760  1.3378  0.0120
  467MOL0     C62948  -0.737  11.223   4.775  0.3329  0.0338  0.8480
  467MOL0     C62949  -0.697  11.369   4.780  0.9483  0.1647 -0.5295
  467MOL0     C62950  -0.731  11.450   4.650 -0.5896 -0.2952 -0.4906
  467MOL0     C62951  -0.861  11.426   4.578  0.3211 -0.5215  0.1694
  467MOL0     C62952  -0.900  11.527   4.471 -0.3278 -1.5648  1.2867
  467MOL0     C62953  -1.050  11.556   4.480  0.2880 -0.0078  0.3471
  467MOL0    Cl62954  -1.146  11.412   4.429  0.6036  0.4436  0.1634
  467MOL0     C62955  -0.324  10.936   4.927 -0.7960  0.2629  0.6698
  467MOL0     C62956  -0.233  10.833   4.970  1.0340  0.2003  0.4283
  467MOL0     O62957  -0.183  10.659   5.212 -0.4104  0.6045 -0.3295
  467MOL0     C62958   0.042  10.505   5.264 -0.7333 -0.5878 -0.6544
  467MOL0     C62959   0.184  10.474   5.283  0.2224 -0.9395 -0.3953
  467MOL0     N62960   1.040  10.354   5.541 -1.3424  0.0972  0.1154
  467MOL0     N62961   1.084  10.388   5.657  0.2372 -0.6026 -0.1987
  467MOL0     C62962   1.456   9.369   6.052  0.2941 -0.5738 -0.3745
  467MOL0     C62963   1.481   9.243   6.001 -0.3315  0.3994  0.2475
  467MOL0     C62964   1.475   8.834   5.795  0.5368  1.0362 -0.6334
  467MOL0     C62965   1.596   8.790   5.732 -0.8358 -0.2643  0.6836
  467MOL0     C62966   1.613   8.661   5.677  0.5087 -0.3315  0.1706
  467MOL0     C62967   1.507   8.570   5.684  0.2120  0.0371 -0.5806
  467MOL0     O62968   1.504   8.447   5.617  0.0461 -0.2323  0.9276
  467MOL0     C62969   1.566   8.432   5.491  0.4179 -0.1843  0.7158
  467MOL0     C62970   1.508   8.312   5.410  0.2797  0.4332 -0.2902
  467MOL0     C62971   1.554   8.181   5.482 -0.6589  0.5529  0.6905
  467MOL0     C62972   1.484   8.061   5.414  0.6535 -0.8760 -0.0197
  467MOL0     C62973   1.509   7.939   5.485  0.1584  0.3057  0.6381
  467MOL0     C62974   1.525   7.840   5.555 -0.1016  0.4052  0.4750
  467MOL0     C62975   1.393   8.604   5.751  0.1527 -0.5237 -0.1670
  467MOL0     C62976   1.372   8.737   5.805 -0.0696 -0.7282 -0.0062
  467MOL0     C62977   1.239   8.767   5.877 -0.4512  0.2117  0.7301
  467MOL0     H62978   1.171   9.117   6.017  0.6080  0.1901  1.4618
  467MOL0     H62979   1.121   9.337   6.111  0.6441  2.7460  1.1469
  467MOL0     H62980   1.142   9.570   6.055 -0.9494  3.2243 -0.2507
  467MOL0     H62981   1.149   9.550   6.234  0.7763 -0.6036 -0.3492
  467MOL0     H62982   1.282   9.778   6.080  0.8515 -1.6844  0.0254
  467MOL0     H62983   1.251   9.764   6.252 -1.9842  1.8090 -0.1140
  467MOL0     H62984   1.031   9.850   6.226 -2.1800  0.8642 -0.8335
  467MOL0     H62985   0.996   9.781   6.067  1.4853 -0.0583 -1.3262
  467MOL0     H62986   1.166  10.017   6.123 -1.9800  2.2182  0.9498
  467MOL0     H62987   1.152   9.949   5.957 -0.3726 -4.5353  0.6760
  467MOL0     H62988   0.894  10.009   5.984  2.2387 -1.3962 -1.6373
  467MOL0     H62989   0.936  10.071   6.143  0.0665 -2.6215  0.1592
  467MOL0     H62990   1.122  10.198   6.012 -1.0873  0.2403  0.8127
  467MOL0     H62991   1.044  10.156   5.865  0.2349 -0.5622 -0.5431
  467MOL0     H62992   0.944  10.322   6.089  6.9630 -1.9539 -0.3055
  467MOL0     H62993   0.838  10.270   5.947  0.1347 -3.2137  1.2715
  467MOL0     H62994   0.929  10.498   5.938 -2.5619 -1.7405  0.0894
  467MOL0     H62995   1.092  10.423   5.934  0.9352  0.8696 -0.1756
  467MOL0     H62996   0.768  10.361   5.727  1.5957 -2.7017  1.4200
  467MOL0     H62997   0.867  10.380   5.336 -2.4986 -0.0625 -2.1872
  467MOL0     H62998   0.807  10.231   5.390 -3.1728  0.0154 -1.0954
  467MOL0     H62999   0.626  10.337   5.509  0.8546  0.4055  0.8794
  467MOL0     H63000   0.684  10.498   5.480  0.8945  1.8992 -1.6111
  467MOL0     H63001   0.620  10.333   5.233 -5.3615  0.0536 -1.0861
  467MOL0     H63002   0.652  10.515   5.267  1.8537 -0.6159  0.4543
  467MOL0     H63003   0.443  10.535   5.363  0.0663 -1.0630  0.5302
  467MOL0     H63004   0.424  10.365   5.389  3.4875 -0.5221  2.0938
  467MOL0     H63005   0.282  10.446   4.959  1.3670 -3.4337  0.9729
  467MOL0     H63006   0.042  10.496   4.920  0.9227  0.7761 -0.1703
  467MOL0     H63007  -0.426  10.571   4.862  1.3504 -1.5215 -1.7457
  467MOL0     H63008  -0.584  10.749   4.821  0.1126 -0.4997 -0.1991
  467MOL0     H63009  -0.563  10.959   4.645 -3.2589 -3.3654 -1.4064
  467MOL0     H63010  -0.700  10.951   4.749  1.4384 -4.3119  0.2265
  467MOL0     H63011  -0.544  11.197   4.675  0.0841 -1.1090 -3.7695
  467MOL0     H63012  -0.683  11.133   4.586 -0.7820  2.6591 -0.2594
  467MOL0     H63013  -0.833  11.209   4.725  1.1966 -3.2381 -0.1500
  467MOL0     H63014  -0.749  11.184   4.876 -0.9150  2.5927  1.7787
  467MOL0     H63015  -0.589  11.373   4.798  1.4720 -2.7376 -2.3402
  467MOL0     H63016  -0.755  11.422   4.856  0.6023 -0.0904 -0.6163
  467MOL0     H63017  -0.645  11.418   4.590  1.5197 -0.4397  2.3658
  467MOL0     H63018  -0.726  11.559   4.662 -2.2673 -0.2825  0.3777
  467MOL0     H63019  -0.873  11.328   4.531  1.0776  0.0779 -1.3582
  467MOL0     H63020  -0.936  11.428   4.658  1.7558  1.4807  1.5670
  467MOL0     H63021  -0.869  11.494   4.372 -0.0145  2.5928 -0.1919
  467MOL0     H63022  -0.844  11.621   4.481 -0.3536 -1.3004 -0.6894
  467MOL0     H63023  -1.079  11.601   4.576 -2.2218  1.5380 -1.0281
  467MOL0     H63024  -1.075  11.631   4.405  2.0978 -1.2474 -1.6100
  467MOL0     H63025  -0.303  11.040   4.949 -2.3787  0.8324 -0.3730
  467MOL0     H63026  -0.138  10.860   5.015  2.5180 -0.6925 -1.9568
  467MOL0     H63027  -0.009  10.518   5.359  0.9495 -0.2658  0.2348
  467MOL0     H63028   0.216  10.502   5.383 -3.1027 -0.4202  0.6299
  467MOL0     H63029   1.526   9.444   6.088 -1.4332  1.9930 -2.0571
  467MOL0     H63030   1.586   9.216   6.003  0.7353  3.9780  2.8699
  467MOL0     H63031   1.674   8.860   5.707  0.8090 -3.2935 -3.8886
  467MOL0     H63032   1.706   8.626   5.636  0.6265 -1.4036  1.2948
  467MOL0     H63033   1.675   8.417   5.498  0.2244 -1.1326  2.4752
  467MOL0     H63034   1.550   8.521   5.430  0.0116  0.2562  1.4489
  467MOL0     H63035   1.542   8.323   5.306 -2.7337  0.2930 -1.4183
  467MOL0     H63036   1.399   8.311   5.395  0.5684  0.4552 -2.7815
  467MOL0     H63037   1.516   8.197   5.583  0.2063 -0.6374  1.2295
  467MOL0     H63038   1.661   8.165   5.468 -0.4172  2.1496  0.4985
  467MOL0     H63039   1.376   8.074   5.421  0.4108 -2.3572 -0.6248
  467MOL0     H63040   1.512   8.050   5.309 -1.5486  0.2591 -0.7883
  467MOL0     H63041   1.534   7.748   5.609  0.4803  0.5680  0.6675
  467MOL0     H63042   1.304   8.542   5.743 -0.2308  0.0761 -0.7341
  467MOL0     H63043   1.186   8.840   5.816  1.6396 -1.8005 -3.9439
  467MOL0     H63044   1.181   8.675   5.888  1.0847 -1.1316 -1.5689
  467MOL0     H63045   1.250   8.795   5.983 -1.0389  2.9282  0.1429
  468MOL0     O63046  10.462   9.173   1.014 -0.2686  0.2679 -0.6652
  468MOL0     C63047  10.344   9.168   1.043  0.4140 -0.8642  0.6178
  468MOL0     O63048  10.243   9.167   0.947 -0.2455 -0.2237 -1.2686
  468MOL0     C63049  10.274   9.170   0.811 -0.2005 -0.7340 -0.3631
  468MOL0     C63050  10.235   9.059   0.738  0.8391 -0.4164 -0.3159
  468MOL0     C63051  10.244   9.066   0.595 -0.2902  0.5437 -0.3548
  468MOL0     C63052  10.280   9.180   0.532 -0.2006  0.6601  0.3645
  468MOL0     O63053  10.282   9.185   0.390 -0.3232  0.1017 -0.8679
  468MOL0     C63054  10.360   9.295   0.322  0.5553 -0.2391  1.2083
  468MOL0     C63055  10.359   9.274   0.164 -0.3230  0.7176  0.1340
  468MOL0     C63056  10.419   9.390   0.085  0.3422 -0.0629  0.2943
  468MOL0     C63057  10.403   9.381  -0.068 -0.4607 -0.6473 -0.4604
  468MOL0     C63058  10.471   9.496  -0.148  0.2122  0.7930 -1.3228
  468MOL0     C63059  10.424   9.486  -0.301 -0.1772 -0.8369  0.3376
  468MOL0     C63060  10.532   9.536  -0.393 -0.1123 -0.0588  0.6934
  468MOL0     C63061  10.480   9.499  -0.534 -0.9449 -0.8754 -0.5285
  468MOL0     N63062  10.373   9.582  -0.580  0.3885  0.1051 -0.0584
  468MOL0     C63063  10.356   9.719  -0.558  0.7775  0.4749 -0.0835
  468MOL0     C63064  10.231   9.747  -0.599  0.2987  0.4213 -0.0049
  468MOL0     C63065  10.158   9.871  -0.575 -0.1042 -0.4535  0.5498
  468MOL0     C63066  10.109   9.880  -0.437  0.1505 -0.1484 -0.4937
  468MOL0     C63067  10.061  10.023  -0.423 -0.7410  0.3486  0.4548
  468MOL0     C63068   9.924  10.015  -0.347  0.2399 -0.4810 -0.5925
  468MOL0     O63069   9.953   9.988  -0.212 -0.1500 -0.9410 -0.7193
  468MOL0     C63070   9.852   9.992  -0.121  0.4800  0.2590 -0.1969
  468MOL0     C63071   9.883   9.982   0.017  0.4383  0.3781 -0.7694
  468MOL0     C63072   9.780   9.987   0.117  0.4320 -0.0470 -0.0420
  468MOL0     C63073   9.647   9.996   0.080  0.9386 -0.0883 -0.2614
  468MOL0     C63074   9.536  10.030   0.187  0.0468  0.3852  0.6007
  468MOL0     O63075   9.402  10.024   0.152 -0.1692 -0.4101 -0.8693
  468MOL0     C63076   9.309  10.078   0.237  0.1635 -0.7561 -1.2601
  468MOL0     C63077   9.320  10.199   0.307 -0.3870 -0.8756  0.1959
  468MOL0     C63078   9.207  10.261   0.357  0.9431  0.8207 -0.6861
  468MOL0     C63079   9.081  10.192   0.375 -0.5186 -1.1835 -0.2262
  468MOL0     O63080   8.984  10.227   0.468 -0.0702  0.6527  0.5512
  468MOL0     C63081   8.935  10.354   0.439  1.3262  0.2116 -0.3459
  468MOL0     C63082   8.833  10.393   0.550 -0.8135  0.3696 -0.7121
  468MOL0     C63083   8.699  10.312   0.552 -0.5204  0.2195  1.0137
  468MOL0     C63084   8.602  10.370   0.659 -0.1528  0.1799  0.0410
  468MOL0     C63085   8.475  10.291   0.645  0.6580  0.9230 -0.3468
  468MOL0     C63086   8.371  10.337   0.749 -1.1057 -0.6242  0.9779
  468MOL0     C63087   8.236  10.277   0.709 -0.2690  0.2898 -0.0237
  468MOL0     C63088   8.135  10.249   0.823  0.3272  0.3469 -0.2059
  468MOL0    Cl63089   8.026  10.096   0.793 -0.1681 -0.2071  0.0368
  468MOL0     C63090   9.065  10.079   0.302 -0.7570  0.4519  0.2043
  468MOL0     C63091   9.179  10.020   0.232  0.0183 -0.7068  0.2968
  468MOL0     O63092   9.582  10.044   0.302  0.5185  0.3562  0.7103
  468MOL0     C63093   9.620   9.992  -0.052  0.3268  0.3419 -0.0812
  468MOL0     C63094   9.713   9.997  -0.155 -0.1057 -0.2013  0.6447
  468MOL0     N63095  10.180   9.635  -0.669 -0.0266 -0.6902 -0.4807
  468MOL0     N63096  10.262   9.538  -0.645 -0.1782 -0.4543  0.5156
  468MOL0     C63097  10.315   9.296   0.611  0.0637  0.4976  0.1145
  468MOL0     C63098  10.318   9.285   0.747 -0.1555  0.8469  0.2545
  468MOL0     C63099  10.312   9.175   1.193  1.3730 -0.8501 -0.4979
  468MOL0     C63100  10.178   9.176   1.231  0.5215  0.0793  0.6464
  468MOL0     C63101  10.128   9.189   1.367  0.5011 -0.0791  0.5223
  468MOL0     C63102  10.226   9.194   1.466 -1.5385 -0.2250  0.3608
  468MOL0     O63103  10.208   9.205   1.602 -0.1422  0.1978  0.2506
  468MOL0     C63104  10.091   9.241   1.657  0.2257  0.0206 -0.6739
  468MOL0     C63105  10.130   9.345   1.769 -0.6874  0.3099  0.2200
  468MOL0     C63106  10.029   9.352   1.885 -0.0637  0.2529 -0.3415
  468MOL0     C63107   9.972   9.492   1.918  0.0341  0.2905 -0.4171
  468MOL0     C63108  10.068   9.591   1.969  0.4181 -0.2281 -0.4621
  468MOL0     C63109  10.142   9.671   2.034  0.4971  0.0728 -0.0375
  468MOL0     C63110  10.358   9.191   1.432 -0.3476 -0.3368 -1.4262
  468MOL0     C63111  10.402   9.186   1.303 -0.4718 -0.2190  0.1705
  468MOL0     C63112  10.550   9.190   1.281 -0.7126 -0.0302  0.1916
  468MOL0     H63113  10.232   8.966   0.794  2.8427 -0.2352  0.1476
  468MOL0     H63114  10.234   8.974   0.539  2.0026 -0.0408  0.0832
  468MOL0     H63115  10.303   9.388   0.330 -1.0017 -0.5903 -3.0037
  468MOL0     H63116  10.463   9.315   0.350  1.4429 -1.5558 -0.8291
  468MOL0     H63117  10.254   9.265   0.134  0.0601 -1.9174 -0.7757
  468MOL0     H63118  10.410   9.182   0.133 -1.3571  0.4790 -0.9341
  468MOL0     H63119  10.527   9.400   0.099  0.7333 -0.7985 -1.8290
  468MOL0     H63120  10.379   9.489   0.111 -2.1656 -0.6967 -0.8121
  468MOL0     H63121  10.459   9.292  -0.098  1.2899  0.4516 -0.6089
  468MOL0     H63122  10.300   9.360  -0.097 -0.9370 -1.4039  1.6135
  468MOL0     H63123  10.439   9.591  -0.104 -0.1384  0.0400  0.1075
  468MOL0     H63124  10.579   9.485  -0.137  0.6060  2.3504 -3.0653
  468MOL0     H63125  10.393   9.383  -0.319 -0.3666 -1.3299  3.0122
  468MOL0     H63126  10.338   9.553  -0.314  2.3158  3.1993  2.6003
  468MOL0     H63127  10.617   9.476  -0.361  0.0359  0.1158  0.6269
  468MOL0     H63128  10.546   9.641  -0.366 -1.0062  0.9256 -2.3116
  468MOL0     H63129  10.561   9.496  -0.607 -0.5561 -0.6989 -0.1058
  468MOL0     H63130  10.455   9.392  -0.533 -0.1475 -1.0723 -0.8712
  468MOL0     H63131  10.417   9.792  -0.505  1.0464  0.5833 -0.5452
  468MOL0     H63132  10.239   9.941  -0.597  0.8267 -1.5462  0.3934
  468MOL0     H63133  10.079   9.877  -0.650 -0.5846 -1.2802  0.9736
  468MOL0     H63134  10.028   9.807  -0.427 -1.5683  1.7838  0.3833
  468MOL0     H63135  10.186   9.862  -0.361 -0.3153 -2.9241 -0.5660
  468MOL0     H63136  10.049  10.072  -0.520  0.9354  4.1863  1.9788
  468MOL0     H63137  10.139  10.080  -0.370 -0.9262 -0.5948  1.7783
  468MOL0     H63138   9.851   9.948  -0.395 -2.0072  2.0682 -0.9655
  468MOL0     H63139   9.884  10.116  -0.360  0.2099 -0.1242  1.8206
  468MOL0     H63140   9.981   9.962   0.058 -0.6516  0.3022  1.9506
  468MOL0     H63141   9.799   9.987   0.224 -1.9737 -0.0942  0.4606
  468MOL0     H63142   9.416  10.249   0.300 -0.8444  0.1591  1.2087
  468MOL0     H63143   9.237  10.356   0.402  1.4889  0.5582 -0.4819
  468MOL0     H63144   9.009  10.434   0.447  0.3226  1.0985  0.2634
  468MOL0     H63145   8.878  10.359   0.345  0.9453  1.0091 -0.0864
  468MOL0     H63146   8.881  10.368   0.646 -1.2789 -1.3561 -0.9037
  468MOL0     H63147   8.822  10.502   0.560 -0.0477  0.3129  1.1882
  468MOL0     H63148   8.652  10.308   0.453 -0.1849  2.5102  0.6884
  468MOL0     H63149   8.723  10.210   0.583  1.2229  0.8402  1.8295
  468MOL0     H63150   8.581  10.472   0.628 -2.2762 -0.9975 -2.8408
  468MOL0     H63151   8.644  10.359   0.760  0.8482 -2.2137 -0.5653
  468MOL0     H63152   8.496  10.186   0.669  1.0145  1.5136  2.2406
  468MOL0     H63153   8.440  10.285   0.542 -0.3658 -1.2086  0.0772
  468MOL0     H63154   8.405  10.302   0.847  0.5624 -1.2277  0.2135
  468MOL0     H63155   8.372  10.446   0.744 -0.9898 -0.6679 -0.6221
  468MOL0     H63156   8.247  10.177   0.666 -4.3521 -0.9032  1.1996
  468MOL0     H63157   8.184  10.338   0.634 -1.6125 -0.5066  0.2397
  468MOL0     H63158   8.189  10.221   0.915  1.3772 -1.4806 -1.3067
  468MOL0     H63159   8.079  10.336   0.860 -0.8980  0.3227 -1.9167
  468MOL0     H63160   8.969  10.027   0.303 -0.8533  0.5846 -0.9555
  468MOL0     H63161   9.176   9.926   0.177  0.6746 -0.6771  0.2084
  468MOL0     H63162   9.514  10.003  -0.072  0.2826  1.1022  0.5537
  468MOL0     H63163   9.676  10.016  -0.255  2.1185 -1.3453 -0.4804
  468MOL0     H63164  10.343   9.393   0.573  3.4141 -0.5184 -0.3465
  468MOL0     H63165  10.358   9.365   0.808 -0.2956  1.0973  0.0185
  468MOL0     H63166  10.099   9.172   1.156 -0.6310 -0.2358  1.8212
  468MOL0     H63167  10.021   9.190   1.385 -0.2120  4.8376 -2.0999
  468MOL0     H63168  10.040   9.161   1.712  0.7611  0.9108  1.2136
  468MOL0     H63169  10.022   9.282   1.583 -2.0560  0.8864  1.7583
  468MOL0     H63170  10.129   9.444   1.722 -1.9178 -0.1775 -0.8039
  468MOL0     H63171  10.234   9.324   1.798  0.3148 -0.7400 -3.5526
  468MOL0     H63172  10.084   9.314   1.971  3.1178  1.7273 -1.5408
  468MOL0     H63173   9.947   9.285   1.859  0.6248 -0.0953 -1.7556
  468MOL0     H63174   9.908   9.525   1.836 -2.2328 -2.9623 -0.1669
  468MOL0     H63175   9.887   9.467   1.982  0.6567  2.8416  1.5454
  468MOL0     H63176  10.201   9.743   2.087 -0.6388 -0.4371  2.0482
  468MOL0     H63177  10.434   9.184   1.509 -2.0280 -0.1313  0.2987
  468MOL0     H63178  10.585   9.111   1.213 -3.8686 -2.1682  0.7929
  468MOL0     H63179  10.579   9.288   1.243 -1.2269  1.1132  2.5989
  468MOL0     H63180  10.609   9.191   1.373  1.6972 -1.2240 -1.2527
  469MOL0     O63181   6.708   5.006   0.231  0.8673  0.8376  1.5588
  469MOL0     C63182   6.722   5.119   0.189 -0.4596 -0.5224 -0.2720
  469MOL0     O63183   6.851   5.167   0.154  0.4328  0.3337 -0.4727
  469MOL0     C63184   6.949   5.067   0.153 -0.2065  0.1118  0.5674
  469MOL0     C63185   6.996   5.026   0.278 -0.5630 -0.4085 -0.3867
  469MOL0     C63186   7.094   4.927   0.291 -0.4507  0.2885  0.3727
  469MOL0     C63187   7.140   4.861   0.176  0.4281 -0.5516 -0.4508
  469MOL0     O63188   7.239   4.761   0.177  0.5721 -0.4404 -0.4307
  469MOL0     C63189   7.348   4.753   0.270  0.0433  1.1960  0.3061
  469MOL0     C63190   7.457   4.669   0.222  0.5008 -0.2047 -0.2986
  469MOL0     C63191   7.553   4.631   0.342 -0.3250  0.2416  0.0327
  469MOL0     C63192   7.696   4.587   0.305 -0.5770  0.6854 -0.1825
  469MOL0     C63193   7.782   4.532   0.414 -0.0854  0.2437 -0.2444
  469MOL0     C63194   7.737   4.392   0.454 -1.1121  0.5218  0.0929
  469MOL0     C63195   7.809   4.334   0.573  0.5854 -0.5797 -0.3638
  469MOL0     C63196   7.790   4.424   0.693  1.0020  0.0463  1.1156
  469MOL0     N63197   7.651   4.456   0.740  0.9822  0.1225 -0.0779
  469MOL0     C63198   7.568   4.372   0.814 -0.3762 -0.5964  1.3158
  469MOL0     C63199   7.449   4.434   0.826  0.1231  0.1829 -0.5016
  469MOL0     C63200   7.341   4.396   0.917  0.2536  0.0270 -1.0549
  469MOL0     C63201   7.233   4.314   0.838  0.2882 -0.2604 -1.0301
  469MOL0     C63202   7.106   4.303   0.923  0.2271 -0.8702 -0.0960
  469MOL0     C63203   6.989   4.241   0.836  0.2701  0.0463  0.1561
  469MOL0     O63204   6.869   4.248   0.909  0.4933  0.0746  0.5715
  469MOL0     C63205   6.755   4.203   0.852  0.0906 -0.6939 -0.7396
  469MOL0     C63206   6.640   4.178   0.937 -1.4944 -0.7073 -0.6737
  469MOL0     C63207   6.528   4.109   0.893 -0.2020 -0.2171 -0.2549
  469MOL0     C63208   6.520   4.076   0.756  0.8747 -0.1476  0.2051
  469MOL0     C63209   6.391   4.027   0.696 -0.0152  0.1518 -0.3780
  469MOL0     O63210   6.385   4.010   0.560 -0.1567 -0.2527  0.5525
  469MOL0     C63211   6.277   3.939   0.508 -0.5086  0.5528 -0.2731
  469MOL0     C63212   6.159   4.002   0.456 -0.2313  0.2208 -0.0974
  469MOL0     C63213   6.057   3.941   0.376  0.3190 -0.2817  0.2430
  469MOL0     C63214   6.057   3.802   0.362 -0.0318  0.1049  0.0786
  469MOL0     O63215   5.971   3.725   0.297 -0.2449  0.5044 -0.6261
  469MOL0     C63216   5.898   3.786   0.191 -0.5948 -0.8266 -0.6358
  469MOL0     C63217   5.805   3.696   0.120  1.2057  0.0870  0.2628
  469MOL0     C63218   5.678   3.788   0.087  0.1790 -0.2069  0.7312
  469MOL0     C63219   5.587   3.708   0.002  1.0097 -1.0357  0.1082
  469MOL0     C63220   5.452   3.778  -0.025 -1.0412  0.0305 -0.0736
  469MOL0     C63221   5.470   3.922  -0.087 -0.6153 -0.8054  0.4756
  469MOL0     C63222   5.330   3.960  -0.150  0.5253 -0.4547  0.2891
  469MOL0     C63223   5.287   3.892  -0.291 -0.5267 -0.7581  0.5213
  469MOL0    Cl63224   5.354   3.991  -0.423 -0.5353  0.4903 -0.1147
  469MOL0     C63225   6.174   3.735   0.423 -0.3370 -0.5453 -0.0865
  469MOL0     C63226   6.281   3.805   0.491  0.1528  0.0114 -0.3215
  469MOL0     O63227   6.303   4.001   0.781 -0.6109 -0.1995  0.4829
  469MOL0     C63228   6.621   4.109   0.665  0.4450  0.2185 -0.5241
  469MOL0     C63229   6.737   4.163   0.716 -0.1850 -0.9493  0.9401
  469MOL0     N63230   7.464   4.546   0.758 -0.6923 -0.6494 -0.3341
  469MOL0     N63231   7.584   4.568   0.713 -0.2286  0.9730  0.0867
  469MOL0     C63232   7.077   4.889   0.053  0.2304 -0.2883 -0.0027
  469MOL0     C63233   6.982   4.998   0.035 -0.3712 -0.3313  1.2124
  469MOL0     C63234   6.600   5.194   0.178  1.2990 -1.2908  0.1031
  469MOL0     C63235   6.610   5.304   0.086  0.0714  0.5087  0.0315
  469MOL0     C63236   6.509   5.394   0.084 -0.5359  0.0954 -0.3975
  469MOL0     C63237   6.393   5.382   0.161  0.1487 -0.9102 -1.0076
  469MOL0     O63238   6.283   5.460   0.153  0.2217 -0.3017  0.6271
  469MOL0     C63239   6.268   5.569   0.057 -0.3483  0.2037 -0.0908
  469MOL0     C63240   6.157   5.673   0.094  0.4748 -0.1995 -1.2554
  469MOL0     C63241   6.018   5.602   0.098 -0.1070 -0.3089  1.4328
  469MOL0     C63242   5.916   5.718   0.128 -0.3668 -0.7080  0.4670
  469MOL0     C63243   5.923   5.764   0.268  0.0805  0.3388  0.8727
  469MOL0     C63244   5.932   5.761   0.384  0.7570  0.0514  0.6018
  469MOL0     C63245   6.379   5.266   0.240  0.5501  0.7740  0.2455
  469MOL0     C63246   6.485   5.176   0.253 -0.1987 -0.1947 -0.6079
  469MOL0     C63247   6.477   5.062   0.362 -0.5220 -0.2873  0.3883
  469MOL0     H63248   6.957   5.067   0.371 -2.8820 -1.4471 -0.8509
  469MOL0     H63249   7.134   4.908   0.390  2.1883 -0.6652 -0.7874
  469MOL0     H63250   7.394   4.852   0.277  3.4358 -0.3533  2.9239
  469MOL0     H63251   7.322   4.725   0.372  1.5185  1.4697  0.7853
  469MOL0     H63252   7.511   4.709   0.135  0.0880 -0.3732 -0.6353
  469MOL0     H63253   7.418   4.573   0.186  0.2005  0.0268 -0.5938
  469MOL0     H63254   7.511   4.549   0.402  0.6456  0.1426  0.5960
  469MOL0     H63255   7.571   4.714   0.412  1.2945 -1.2409  1.4886
  469MOL0     H63256   7.679   4.507   0.233  0.7856 -0.1557  0.4060
  469MOL0     H63257   7.747   4.673   0.261  0.2339 -0.9382 -2.6378
  469MOL0     H63258   7.888   4.523   0.389 -0.1020  1.3878 -0.7930
  469MOL0     H63259   7.782   4.609   0.493  0.1543 -0.3230  0.3181
  469MOL0     H63260   7.632   4.391   0.484 -0.4646 -2.9722  3.0030
  469MOL0     H63261   7.749   4.328   0.367 -0.7270 -2.4565  2.1766
  469MOL0     H63262   7.915   4.323   0.549  1.0544  1.2837  0.6617
  469MOL0     H63263   7.752   4.242   0.588 -1.1640  0.4040 -0.7643
  469MOL0     H63264   7.846   4.387   0.779  2.4507 -1.3335 -0.3401
  469MOL0     H63265   7.840   4.518   0.667 -1.4902  1.2264  0.2664
  469MOL0     H63266   7.595   4.275   0.853 -1.9951 -1.6884 -0.1478
  469MOL0     H63267   7.388   4.327   0.988 -3.5824 -2.9160 -1.0494
  469MOL0     H63268   7.306   4.486   0.968  2.0803  1.9375 -3.0276
  469MOL0     H63269   7.202   4.373   0.751  2.4077  1.2413 -0.8472
  469MOL0     H63270   7.267   4.215   0.804  0.1831  0.4682 -3.4863
  469MOL0     H63271   7.077   4.393   0.978 -0.4983 -1.8556  1.1975
  469MOL0     H63272   7.126   4.224   0.996  0.6471 -0.3389  0.3744
  469MOL0     H63273   7.007   4.142   0.792 -1.1202 -0.1902  0.0914
  469MOL0     H63274   6.975   4.319   0.760  1.7733 -0.6206 -0.8608
  469MOL0     H63275   6.645   4.219   1.037 -2.4330 -0.6139 -0.6576
  469MOL0     H63276   6.446   4.094   0.962 -0.2518  0.6133 -0.1275
  469MOL0     H63277   6.175   4.109   0.465  0.6952  0.1161 -0.4460
  469MOL0     H63278   5.988   4.008   0.325  0.0320  0.6771  1.8274
  469MOL0     H63279   5.844   3.872   0.231  1.5720  0.2461  0.1345
  469MOL0     H63280   5.970   3.815   0.115 -0.0188 -0.3792  0.0705
  469MOL0     H63281   5.849   3.656   0.028 -2.9832  1.6711 -2.7599
  469MOL0     H63282   5.772   3.608   0.177 -0.7505  0.9056  0.4679
  469MOL0     H63283   5.627   3.830   0.173  0.7589 -0.2710  1.1129
  469MOL0     H63284   5.719   3.872   0.031  0.3975  1.9254  3.8467
  469MOL0     H63285   5.561   3.623   0.066 -0.6574  1.4662  3.0508
  469MOL0     H63286   5.640   3.680  -0.090 -0.4951  4.3013 -2.7814
  469MOL0     H63287   5.392   3.787   0.066  0.0215  4.4998  0.4153
  469MOL0     H63288   5.400   3.707  -0.090  0.2233  0.9159 -2.1330
  469MOL0     H63289   5.508   3.996  -0.016  2.0021 -2.6459  1.1114
  469MOL0     H63290   5.545   3.926  -0.166 -0.6862  2.9048  0.4242
  469MOL0     H63291   5.327   4.069  -0.162  2.1266 -0.1943  1.8375
  469MOL0     H63292   5.251   3.939  -0.078  0.3478 -0.7162  0.0219
  469MOL0     H63293   5.339   3.796  -0.294  3.1852  1.1125 -0.4168
  469MOL0     H63294   5.178   3.884  -0.304 -0.9801  1.3603  2.4688
  469MOL0     H63295   6.207   3.635   0.395  1.4288 -0.2439  0.7654
  469MOL0     H63296   6.366   3.743   0.517 -0.3062  0.5342  2.8348
  469MOL0     H63297   6.626   4.084   0.559  0.1482 -0.4887 -0.3777
  469MOL0     H63298   6.816   4.181   0.644 -2.6037 -2.2440 -2.2668
  469MOL0     H63299   7.106   4.823  -0.028 -0.2800 -0.6198  0.0777
  469MOL0     H63300   6.940   5.013  -0.064  1.3198 -2.6430  0.0325
  469MOL0     H63301   6.701   5.333   0.035 -0.6420  2.7084 -0.0721
  469MOL0     H63302   6.523   5.478   0.017 -0.2731  1.0615  0.8322
  469MOL0     H63303   6.240   5.509  -0.030  0.7499  1.0066 -1.0320
  469MOL0     H63304   6.369   5.607   0.042 -0.0391 -0.5456  0.0608
  469MOL0     H63305   6.156   5.743   0.009 -0.7134  1.4125  0.0269
  469MOL0     H63306   6.179   5.722   0.189 -3.0881 -0.6919 -0.0339
  469MOL0     H63307   6.004   5.515   0.164  0.5317  0.3862  2.5082
  469MOL0     H63308   5.996   5.588  -0.008  0.1008 -0.1029  1.3622
  469MOL0     H63309   5.921   5.805   0.062 -0.5461 -2.0530 -1.4217
  469MOL0     H63310   5.811   5.694   0.110 -1.2295  3.1204 -0.4470
  469MOL0     H63311   5.928   5.772   0.491 -3.8539 -0.0995  0.6593
  469MOL0     H63312   6.288   5.246   0.295  0.5882 -0.3126 -0.0540
  469MOL0     H63313   6.410   5.087   0.445 -0.7412 -1.0935  0.4696
  469MOL0     H63314   6.454   4.966   0.315 -0.7166 -0.5705  1.0472
  469MOL0     H63315   6.570   5.057   0.420  0.3324  0.9670 -0.8152
  470MOL0     O63316   3.708   1.049   0.696 -0.1568  0.9531  0.1681
  470MOL0     C63317   3.786   1.143   0.697 -0.4247 -0.8245  0.7713
  470MOL0     O63318   3.880   1.155   0.789  0.4789  0.1553 -0.1881
  470MOL0     C63319   3.941   1.049   0.857  0.2201 -0.3833  0.1646
  470MOL0     C63320   3.939   1.044   0.995 -0.3450 -0.3565 -0.5705
  470MOL0     C63321   3.970   0.937   1.063  0.3981  0.4479 -0.3308
  470MOL0     C63322   4.011   0.823   0.996 -0.7190 -0.1618 -0.7120
  470MOL0     O63323   4.049   0.710   1.059 -0.0793 -0.2706  0.4731
  470MOL0     C63324   4.157   0.626   0.999  0.2434 -0.4248  0.0495
  470MOL0     C63325   4.296   0.677   1.047  1.0146 -0.7671  0.1605
  470MOL0     C63326   4.405   0.574   1.007  0.4503 -0.1279 -0.9019
  470MOL0     C63327   4.397   0.451   1.104 -0.5547 -0.2961  0.5764
  470MOL0     C63328   4.384   0.315   1.023 -0.3777 -0.6275 -0.1727
  470MOL0     C63329   4.394   0.178   1.095  0.3770 -0.2760  0.9221
  470MOL0     C63330   4.517   0.174   1.181  0.5832 -0.4041 -0.3090
  470MOL0     C63331   4.643   0.175   1.094  1.1329 -0.0508  0.4360
  470MOL0     N63332   4.770   0.151   1.167  0.3785  1.0623  1.0534
  470MOL0     C63333   4.815   0.025   1.219  0.9457  0.3453 -0.1626
  470MOL0     C63334   4.924   0.066   1.281  0.2255  0.3352  0.2391
  470MOL0     C63335   5.013  -0.034   1.348 -0.0041 -0.5025  0.3668
  470MOL0     C63336   4.988  -0.013   1.488 -0.7916 -0.2868 -0.2896
  470MOL0     C63337   5.058   0.108   1.555 -0.3791  0.7935 -0.8216
  470MOL0     C63338   5.191   0.072   1.629  0.1668 -0.0418 -0.0011
  470MOL0     O63339   5.279   0.037   1.524 -0.2599 -1.5052  0.3835
  470MOL0     C63340   5.414   0.037   1.542  0.7512  1.0334  0.1909
  470MOL0     C63341   5.463   0.035   1.674 -0.4838  0.5007  0.2853
  470MOL0     C63342   5.598   0.016   1.703  0.1728 -0.6184  0.6145
  470MOL0     C63343   5.689   0.001   1.594 -0.7981  0.7614  0.5565
  470MOL0     C63344   5.834  -0.025   1.619 -0.6237  0.2282  0.3141
  470MOL0     O63345   5.912  -0.023   1.504  0.4072  0.2440 -0.4545
  470MOL0     C63346   6.037   0.035   1.510  0.5535  0.7159 -0.2062
  470MOL0     C63347   6.039   0.173   1.512 -0.1553  0.6094  0.2511
  470MOL0     C63348   6.166   0.242   1.521  0.0748 -0.0138  0.0687
  470MOL0     C63349   6.285   0.164   1.520 -0.4273  0.1803  0.0473
  470MOL0     O63350   6.405   0.241   1.532  0.1655 -0.0505  0.4153
  470MOL0     C63351   6.521   0.203   1.456  0.4347 -0.5328 -0.4806
  470MOL0     C63352   6.621   0.095   1.497  0.8517 -0.3319 -0.6290
  470MOL0     C63353   6.758   0.122   1.428  0.1930  0.3512  0.5820
  470MOL0     C63354   6.857   0.021   1.471  0.0218  0.9480 -0.5945
  470MOL0     C63355   6.982   0.020   1.388  0.2951  0.5249 -0.5206
  470MOL0     C63356   7.090  -0.079   1.440 -0.6152  0.0409 -0.1604
  470MOL0     C63357   7.144  -0.045   1.582 -0.0041  0.7078  0.3587
  470MOL0     C63358   7.251  -0.150   1.638 -0.9870 -0.0937 -0.2329
  470MOL0    Cl63359   7.172  -0.301   1.640  0.0020  0.1015  0.0006
  470MOL0     C63360   6.281   0.027   1.521 -0.3900 -0.1911 -0.6334
  470MOL0     C63361   6.154  -0.041   1.512 -0.5303  0.1611 -0.5440
  470MOL0     O63362   5.867  -0.045   1.733 -0.5043 -0.2136 -0.2014
  470MOL0     C63363   5.641   0.031   1.458 -1.0010 -0.0440  0.1658
  470MOL0     C63364   5.505   0.038   1.431 -0.1300 -0.7726 -0.0534
  470MOL0     N63365   4.953   0.201   1.262 -0.1146  0.7828 -0.3948
  470MOL0     N63366   4.855   0.249   1.199  0.1509  0.4575 -0.0315
  470MOL0     C63367   4.010   0.825   0.855  0.3827 -0.0139 -0.4748
  470MOL0     C63368   3.974   0.938   0.786 -0.3528 -0.5875 -0.3325
  470MOL0     C63369   3.771   1.257   0.603 -0.0106 -0.4611  0.6503
  470MOL0     C63370   3.876   1.353   0.596  0.2139  0.0040 -1.1185
  470MOL0     C63371   3.872   1.469   0.512  0.4360 -0.0240 -1.2842
  470MOL0     C63372   3.752   1.491   0.431  0.2147  1.0766 -0.1110
  470MOL0     O63373   3.732   1.605   0.349  0.1487 -0.0410  0.2930
  470MOL0     C63374   3.831   1.705   0.347 -0.1977 -0.3967 -0.3071
  470MOL0     C63375   3.822   1.788   0.218  0.7076  0.1447  0.0419
  470MOL0     C63376   3.958   1.847   0.168  0.4409 -0.2355  0.0210
  470MOL0     C63377   3.930   1.944   0.053 -0.4899  0.0624 -0.3350
  470MOL0     C63378   4.062   1.998   0.003 -0.2375  0.5892 -0.7564
  470MOL0     C63379   4.166   2.053  -0.040  0.2536  0.5967 -0.5726
  470MOL0     C63380   3.654   1.395   0.433 -0.1503 -0.4509 -0.9146
  470MOL0     C63381   3.663   1.278   0.509 -0.6837  0.0504  0.6334
  470MOL0     C63382   3.560   1.173   0.479  0.0148  0.3277  1.3831
  470MOL0     H63383   3.896   1.133   1.039 -1.7106  0.0234 -2.5356
  470MOL0     H63384   3.957   0.942   1.171 -0.5264 -1.4388 -0.3029
  470MOL0     H63385   4.145   0.521   1.029 -0.4711 -0.4237 -0.2187
  470MOL0     H63386   4.160   0.621   0.889 -1.2899  0.2365 -0.0362
  470MOL0     H63387   4.297   0.691   1.155  1.2947  1.3519 -0.0675
  470MOL0     H63388   4.303   0.782   1.018 -2.0135  0.2629  2.5663
  470MOL0     H63389   4.501   0.625   1.020 -1.3781  3.3056  0.2522
  470MOL0     H63390   4.400   0.523   0.910  1.7182 -1.7458 -0.1819
  470MOL0     H63391   4.491   0.444   1.158  0.5206 -0.3333 -1.2142
  470MOL0     H63392   4.310   0.463   1.169 -2.8739 -0.8811 -2.2270
  470MOL0     H63393   4.282   0.321   0.984 -0.1245  1.0102 -0.6851
  470MOL0     H63394   4.453   0.321   0.938 -0.7019  0.8847 -0.3589
  470MOL0     H63395   4.309   0.169   1.163  1.3923  0.3753  2.3465
  470MOL0     H63396   4.394   0.091   1.029  1.8725 -0.5820  1.2919
  470MOL0     H63397   4.509   0.078   1.234  1.5503 -1.6085 -2.2611
  470MOL0     H63398   4.519   0.253   1.258  1.1396 -0.5922 -0.1267
  470MOL0     H63399   4.644   0.101   1.013  1.8091 -0.5187  0.8592
  470MOL0     H63400   4.652   0.269   1.039  1.0909 -0.8417 -0.9682
  470MOL0     H63401   4.773  -0.074   1.230 -0.4789  1.1787  3.3185
  470MOL0     H63402   4.977  -0.135   1.325 -1.3514 -0.1967  1.0093
  470MOL0     H63403   5.115  -0.008   1.320 -1.1946  1.0056 -3.3788
  470MOL0     H63404   4.879  -0.000   1.496 -0.4704  2.2228  0.8904
  470MOL0     H63405   5.015  -0.106   1.539  1.8878  0.9315  0.6531
  470MOL0     H63406   4.991   0.143   1.634 -0.0145  2.0506 -1.0419
  470MOL0     H63407   5.069   0.197   1.492  1.9157 -0.5889 -2.5492
  470MOL0     H63408   5.186  -0.006   1.705  1.4708 -2.6433 -2.3769
  470MOL0     H63409   5.232   0.160   1.678  1.0297 -1.4576  1.9214
  470MOL0     H63410   5.394   0.019   1.757 -1.1096 -0.0236 -0.3252
  470MOL0     H63411   5.628   0.009   1.807 -0.1943  4.8482  1.3805
  470MOL0     H63412   5.941   0.219   1.524 -2.5884 -3.5700 -1.5022
  470MOL0     H63413   6.168   0.349   1.537 -0.8938  0.0339 -0.0653
  470MOL0     H63414   6.498   0.196   1.349 -2.7410  1.5608 -0.0840
  470MOL0     H63415   6.579   0.296   1.465 -2.3279  1.4387 -1.5876
  470MOL0     H63416   6.629   0.106   1.605 -0.6574 -2.0581 -0.2925
  470MOL0     H63417   6.592  -0.007   1.471  0.8153 -0.1623 -1.2768
  470MOL0     H63418   6.738   0.125   1.321  0.8888 -0.1328  0.4288
  470MOL0     H63419   6.798   0.222   1.445  1.8819  0.4119 -2.8738
  470MOL0     H63420   6.809  -0.077   1.461 -1.1625  1.5716 -1.1842
  470MOL0     H63421   6.897   0.042   1.571  2.0019 -1.8609 -0.6819
  470MOL0     H63422   7.023   0.121   1.382  0.6517  0.3133 -4.2187
  470MOL0     H63423   6.953  -0.015   1.288 -5.5716  3.3147 -0.1809
  470MOL0     H63424   7.043  -0.178   1.451  1.2952 -0.6163  4.0142
  470MOL0     H63425   7.173  -0.078   1.368 -0.4330  0.1046  0.0488
  470MOL0     H63426   7.063  -0.049   1.656  0.0303  2.8642  0.5790
  470MOL0     H63427   7.182   0.057   1.573  4.7169 -0.9505 -1.8798
  470MOL0     H63428   7.335  -0.153   1.568  0.2390  1.8853  1.0707
  470MOL0     H63429   7.288  -0.117   1.735 -1.1039  2.6550 -1.0402
  470MOL0     H63430   6.376  -0.024   1.536 -0.2361  0.4734  0.8212
  470MOL0     H63431   6.151  -0.148   1.529 -1.4374  0.6024  2.9037
  470MOL0     H63432   5.700   0.033   1.367 -0.5815  1.2067  0.4566
  470MOL0     H63433   5.457   0.031   1.334  1.4887 -2.7724 -0.7931
  470MOL0     H63434   4.030   0.738   0.794 -2.1859 -1.2491  0.3141
  470MOL0     H63435   3.988   0.938   0.678  1.2669 -1.6838 -0.1543
  470MOL0     H63436   3.964   1.337   0.657 -1.0307  1.5266  1.2234
  470MOL0     H63437   3.958   1.535   0.516  0.4078  0.2403 -3.8608
  470MOL0     H63438   3.931   1.663   0.361  0.3922  1.0484 -0.0049
  470MOL0     H63439   3.821   1.765   0.437 -1.4418 -2.6385  1.1366
  470MOL0     H63440   3.752   1.872   0.221  1.0907  0.4942 -0.5119
  470MOL0     H63441   3.777   1.722   0.143 -2.2531  2.7531 -0.7024
  470MOL0     H63442   4.031   1.771   0.140  1.1557  0.8363 -1.1097
  470MOL0     H63443   3.996   1.908   0.250  1.5289 -3.6428  2.2479
  470MOL0     H63444   3.872   1.893  -0.025 -1.3240 -0.4962  0.6291
  470MOL0     H63445   3.871   2.030   0.086 -2.2949 -1.6015  1.0356
  470MOL0     H63446   4.259   2.089  -0.079  1.7216 -2.2183  0.0150
  470MOL0     H63447   3.573   1.418   0.365 -1.8226  0.4748  1.2375
  470MOL0     H63448   3.616   1.084   0.450  0.6959  0.9135  0.8725
  470MOL0     H63449   3.499   1.125   0.556  1.4462 -2.0404  1.1461
  470MOL0     H63450   3.493   1.204   0.398 -2.6160  1.3517  3.7562
  471MOL0     O63451   2.725   6.835   1.800  0.6102  0.3155  0.2888
  471MOL0     C63452   2.612   6.819   1.739  0.4690  0.8886  0.0100
  471MOL0     O63453   2.500   6.755   1.788 -0.1367 -0.0593  0.1957
  471MOL0     C63454   2.508   6.699   1.917  0.5250 -0.0437 -0.9091
  471MOL0     C63455   2.450   6.574   1.949 -0.0971  0.2939  0.4135
  471MOL0     C63456   2.436   6.533   2.080 -0.0969  0.1939 -0.0372
  471MOL0     C63457   2.481   6.621   2.182  0.3846  1.2348  0.9700
  471MOL0     O63458   2.483   6.572   2.313  0.2317 -0.1996  0.1407
  471MOL0     C63459   2.498   6.655   2.427 -0.2996 -1.0866 -0.9454
  471MOL0     C63460   2.373   6.615   2.518  0.2537 -0.2631 -0.5023
  471MOL0     C63461   2.320   6.733   2.602 -0.4787  0.2220  0.1962
  471MOL0     C63462   2.411   6.757   2.721 -0.2960 -1.1349 -1.0032
  471MOL0     C63463   2.402   6.655   2.836 -0.5985  0.0689 -0.0354
  471MOL0     C63464   2.486   6.693   2.959  0.0254 -0.3614  0.7596
  471MOL0     C63465   2.434   6.809   3.043 -0.3043  0.1715  0.2685
  471MOL0     C63466   2.513   6.846   3.173 -0.8137  0.6786  0.3519
  471MOL0     N63467   2.487   6.747   3.277  0.5380  0.1229 -0.2071
  471MOL0     C63468   2.537   6.622   3.289  0.0111 -0.4413 -0.0750
  471MOL0     C63469   2.461   6.548   3.364 -0.0428 -0.3389 -0.0920
  471MOL0     C63470   2.482   6.403   3.390  0.0719  0.1457 -0.1795
  471MOL0     C63471   2.530   6.368   3.526 -0.1094 -0.1508  0.8662
  471MOL0     C63472   2.600   6.235   3.525  0.2046 -0.2610  0.0518
  471MOL0     C63473   2.660   6.215   3.664 -0.1078 -0.4041 -0.9804
  471MOL0     O63474   2.770   6.301   3.672 -0.0009 -0.6607 -0.5998
  471MOL0     C63475   2.837   6.331   3.792  1.7833  0.0137 -0.4277
  471MOL0     C63476   2.800   6.276   3.918 -1.1733  0.1145  0.7159
  471MOL0     C63477   2.871   6.309   4.033  0.5834 -0.8775  0.0919
  471MOL0     C63478   2.974   6.400   4.031  0.1826  0.0774 -0.2659
  471MOL0     C63479   3.042   6.441   4.148  0.2663 -1.0088  0.3561
  471MOL0     O63480   3.031   6.360   4.252 -0.6913  0.0176 -0.1466
  471MOL0     C63481   3.050   6.397   4.378 -0.3140 -0.5862  0.4172
  471MOL0     C63482   3.045   6.293   4.468  0.4876  0.3022 -0.2307
  471MOL0     C63483   3.033   6.330   4.604 -0.5577  0.0851 -0.3114
  471MOL0     C63484   3.058   6.462   4.655  0.0111 -0.8040  0.5131
  471MOL0     O63485   3.036   6.481   4.789  0.3428  0.0838 -0.5891
  471MOL0     C63486   3.143   6.412   4.858  0.5431 -0.3978 -0.2098
  471MOL0     C63487   3.121   6.439   5.002  0.0752  0.5785  0.3862
  471MOL0     C63488   3.245   6.408   5.091 -0.3450 -0.0772 -0.6196
  471MOL0     C63489   3.239   6.504   5.220  0.1630  0.6017  0.9795
  471MOL0     C63490   3.378   6.489   5.291 -0.2336  0.8732  0.1607
  471MOL0     C63491   3.394   6.587   5.408  0.2307  0.6521 -0.4492
  471MOL0     C63492   3.524   6.565   5.488  0.1696 -0.5019  1.0859
  471MOL0     C63493   3.539   6.657   5.598 -0.7648 -0.3135  1.0915
  471MOL0    Cl63494   3.387   6.644   5.700  0.1501  0.4543 -0.3256
  471MOL0     C63495   3.081   6.565   4.565 -0.3171 -1.5345  0.2522
  471MOL0     C63496   3.080   6.530   4.434 -0.2225 -0.3812  0.1619
  471MOL0     O63497   3.121   6.541   4.142  0.5011 -0.1868 -0.1543
  471MOL0     C63498   3.015   6.457   3.911 -0.1746  0.1358 -0.4375
  471MOL0     C63499   2.947   6.416   3.788  0.1147 -0.8335  0.5654
  471MOL0     N63500   2.367   6.633   3.421  0.9353  0.5101  0.6145
  471MOL0     N63501   2.389   6.751   3.372 -1.1405 -0.4865 -0.4581
  471MOL0     C63502   2.530   6.749   2.146 -0.3704 -0.3304 -0.3193
  471MOL0     C63503   2.528   6.793   2.016 -0.1239  0.9518 -0.0246
  471MOL0     C63504   2.598   6.870   1.604  0.6805  0.3614 -1.4052
  471MOL0     C63505   2.550   6.778   1.505  0.3612  0.9012  0.0864
  471MOL0     C63506   2.533   6.825   1.370 -0.7754  0.4927 -0.3524
  471MOL0     C63507   2.568   6.958   1.341  0.5779 -0.3603  0.1848
  471MOL0     O63508   2.552   7.014   1.219  0.0724  0.8116 -0.0351
  471MOL0     C63509   2.667   6.984   1.134 -0.1199  0.3236 -0.9259
  471MOL0     C63510   2.660   6.859   1.050 -0.3454 -0.8217 -0.0487
  471MOL0     C63511   2.537   6.860   0.960 -0.3993 -0.9127  0.7414
  471MOL0     C63512   2.546   6.743   0.858 -0.0529 -0.3374 -0.1097
  471MOL0     C63513   2.565   6.603   0.905  1.1032 -0.1606  0.3797
  471MOL0     C63514   2.572   6.479   0.935 -0.4551 -0.6598  0.4145
  471MOL0     C63515   2.615   7.036   1.440 -0.0897 -0.6223  0.3863
  471MOL0     C63516   2.631   7.000   1.573  0.1334  0.9576  0.2761
  471MOL0     C63517   2.702   7.091   1.677  0.0455 -0.8120 -0.2073
  471MOL0     H63518   2.401   6.515   1.872 -0.2246 -1.4891  1.7752
  471MOL0     H63519   2.393   6.438   2.109  0.0681  0.3953  0.9077
  471MOL0     H63520   2.588   6.654   2.488 -1.2414 -1.7712  0.4879
  471MOL0     H63521   2.489   6.761   2.401  6.4594  0.8990  2.6478
  471MOL0     H63522   2.398   6.534   2.587  0.7413  2.3307  2.5910
  471MOL0     H63523   2.291   6.578   2.456  0.6756  0.7754 -1.7171
  471MOL0     H63524   2.218   6.708   2.635 -0.6672 -1.5685 -1.5635
  471MOL0     H63525   2.306   6.821   2.539 -0.8959 -1.0374 -1.5339
  471MOL0     H63526   2.515   6.761   2.687  0.3650 -3.3134  0.5153
  471MOL0     H63527   2.383   6.855   2.760 -1.6862 -1.7383 -0.4221
  471MOL0     H63528   2.297   6.647   2.865  0.3722 -0.9708  3.8742
  471MOL0     H63529   2.442   6.558   2.803  0.9501  0.2786  1.0913
  471MOL0     H63530   2.497   6.606   3.024 -0.0543  1.1588  2.9186
  471MOL0     H63531   2.589   6.718   2.930 -0.4821 -0.4936 -1.3471
  471MOL0     H63532   2.331   6.793   3.076  0.7712 -4.4584  2.0352
  471MOL0     H63533   2.438   6.904   2.989 -1.2901 -1.8946 -3.8800
  471MOL0     H63534   2.618   6.858   3.148 -0.9197  2.1447  0.5599
  471MOL0     H63535   2.464   6.933   3.219  0.2843  2.1356 -1.1536
  471MOL0     H63536   2.618   6.573   3.236 -0.5458 -1.4257 -0.0405
  471MOL0     H63537   2.389   6.351   3.367 -0.4197  0.3831  1.1798
  471MOL0     H63538   2.558   6.365   3.321 -1.4894  1.9200 -3.0974
  471MOL0     H63539   2.593   6.449   3.565  3.3063 -2.2659  0.1989
  471MOL0     H63540   2.449   6.349   3.597 -1.6523 -2.8437 -1.4356
  471MOL0     H63541   2.676   6.229   3.446  0.8632  1.0377  0.5615
  471MOL0     H63542   2.517   6.164   3.521 -1.4663  1.1737  4.0582
  471MOL0     H63543   2.692   6.111   3.653 -1.2328 -1.2925  2.7333
  471MOL0     H63544   2.598   6.226   3.754  0.2428  3.6667 -1.0352
  471MOL0     H63545   2.719   6.204   3.926  1.3524 -3.0364  0.1494
  471MOL0     H63546   2.827   6.265   4.122 -1.6284 -1.4064 -1.1703
  471MOL0     H63547   3.036   6.194   4.425  1.7420  1.2499 -2.8442
  471MOL0     H63548   3.001   6.250   4.670  0.2716  0.0338  0.0519
  471MOL0     H63549   3.143   6.308   4.825  1.6067  0.1826 -2.1413
  471MOL0     H63550   3.241   6.450   4.831  0.0578  0.6899 -0.4932
  471MOL0     H63551   3.108   6.546   5.016  0.8952  0.4485  2.5167
  471MOL0     H63552   3.039   6.377   5.041 -0.4564  1.5653  0.8569
  471MOL0     H63553   3.225   6.304   5.121 -4.4743 -0.4380 -3.6248
  471MOL0     H63554   3.347   6.406   5.051  0.4511  1.9793  1.1607
  471MOL0     H63555   3.158   6.468   5.283 -1.3950 -0.0144 -1.2418
  471MOL0     H63556   3.221   6.608   5.194 -0.3958  0.5896  1.3128
  471MOL0     H63557   3.452   6.521   5.218  0.5960 -1.2367  0.0273
  471MOL0     H63558   3.389   6.385   5.324 -1.7216  0.7062  0.2155
  471MOL0     H63559   3.404   6.687   5.365  1.2606 -0.4081 -2.8272
  471MOL0     H63560   3.306   6.597   5.472  0.5292  0.4990 -0.0024
  471MOL0     H63561   3.606   6.579   5.416 -1.8832 -0.5544 -1.4001
  471MOL0     H63562   3.525   6.463   5.528 -1.4487  0.0035  2.4795
  471MOL0     H63563   3.627   6.657   5.663 -2.2202 -0.9609  3.2031
  471MOL0     H63564   3.545   6.757   5.554  1.1383 -0.4878  0.8843
  471MOL0     H63565   3.099   6.666   4.600  1.8187 -1.0547 -1.9465
  471MOL0     H63566   3.099   6.616   4.372 -0.1577 -0.7867 -0.3875
  471MOL0     H63567   3.092   6.533   3.912  0.7934 -0.7941  2.1873
  471MOL0     H63568   2.968   6.449   3.688  3.9250  0.1599  1.5601
  471MOL0     H63569   2.571   6.814   2.223  1.3788 -3.5579  1.7024
  471MOL0     H63570   2.555   6.896   1.998 -2.6886  1.9407  1.2896
  471MOL0     H63571   2.526   6.677   1.537 -3.2421  0.3764 -3.4746
  471MOL0     H63572   2.491   6.758   1.294 -2.1687  1.0065 -0.0679
  471MOL0     H63573   2.752   6.980   1.203 -1.9272  2.5622  1.6603
  471MOL0     H63574   2.682   7.073   1.073  0.3122  0.3259 -0.8159
  471MOL0     H63575   2.660   6.771   1.115  1.2994 -2.2976 -1.9211
  471MOL0     H63576   2.739   6.850   0.975 -1.2897 -1.6523 -0.9714
  471MOL0     H63577   2.535   6.954   0.903 -0.1417 -0.3811  1.5782
  471MOL0     H63578   2.448   6.850   1.023 -2.2842 -1.0164 -1.7999
  471MOL0     H63579   2.451   6.731   0.805 -0.0756 -0.4394 -0.0449
  471MOL0     H63580   2.617   6.776   0.781  0.1245  0.5061  0.4036
  471MOL0     H63581   2.580   6.372   0.944  1.0934 -0.4313  2.3676
  471MOL0     H63582   2.639   7.141   1.424  1.2363 -0.9639  0.0220
  471MOL0     H63583   2.674   7.197   1.677  1.9075 -0.2750 -0.9565
  471MOL0     H63584   2.684   7.069   1.782  0.0976  0.6721  0.1355
  471MOL0     H63585   2.810   7.095   1.661 -0.2397 -1.2176 -2.6467
  472MOL0     O63586   5.398   7.822   0.018 -0.3628  0.8834 -0.1948
  472MOL0     C63587   5.467   7.923   0.013 -0.2703 -0.3111  0.7910
  472MOL0     O63588   5.561   7.966   0.110  0.5945 -0.1048 -0.2473
  472MOL0     C63589   5.562   7.899   0.234 -0.7477  0.3910 -0.8625
  472MOL0     C63590   5.515   7.968   0.346  0.3992  0.6541  0.9676
  472MOL0     C63591   5.509   7.906   0.471  0.2528  0.7214  0.4254
  472MOL0     C63592   5.554   7.774   0.488  0.0823 -0.3498  0.9743
  472MOL0     O63593   5.555   7.731   0.618  0.2315  0.0313 -0.2390
  472MOL0     C63594   5.679   7.665   0.660  0.4386  0.0701  0.0278
  472MOL0     C63595   5.695   7.685   0.808 -0.3733 -0.2752 -0.5105
  472MOL0     C63596   5.604   7.579   0.888 -0.1304 -0.0971  0.1504
  472MOL0     C63597   5.498   7.651   0.967  0.8464  0.5657  0.1280
  472MOL0     C63598   5.361   7.566   0.950 -0.2684 -0.2397 -0.7277
  472MOL0     C63599   5.389   7.456   1.052 -0.6306  0.3220 -0.0806
  472MOL0     C63600   5.282   7.344   1.063 -0.1758  0.2276 -0.2542
  472MOL0     C63601   5.321   7.241   1.171 -0.2695  0.5435 -0.1164
  472MOL0     N63602   5.214   7.146   1.186  0.5660 -0.0067  0.5735
  472MOL0     C63603   5.111   7.151   1.284 -0.4284 -0.7503  0.2598
  472MOL0     C63604   5.050   7.029   1.281 -0.5992 -0.1930 -0.7395
  472MOL0     C63605   4.941   6.990   1.372 -0.2670  0.5921 -0.5335
  472MOL0     C63606   4.933   6.838   1.396 -0.4757  1.0716  0.5577
  472MOL0     C63607   4.789   6.796   1.432 -0.1498 -0.1095 -0.5275
  472MOL0     C63608   4.763   6.644   1.472 -0.4660 -0.7290 -0.0121
  472MOL0     O63609   4.804   6.625   1.615  0.6833  0.0205 -0.3891
  472MOL0     C63610   4.764   6.506   1.680 -1.0208 -0.1013 -0.1643
  472MOL0     C63611   4.766   6.518   1.814  0.1535  0.9276 -0.4108
  472MOL0     C63612   4.725   6.406   1.895  0.2487  0.1368  0.1662
  472MOL0     C63613   4.674   6.291   1.832  1.0712 -0.4867  0.3503
  472MOL0     C63614   4.615   6.174   1.908  0.2469  0.0645  0.6968
  472MOL0     O63615   4.555   6.078   1.828  0.3588 -0.3475  0.3833
  472MOL0     C63616   4.467   5.988   1.892 -0.9980 -0.0410  0.1540
  472MOL0     C63617   4.513   5.867   1.933  0.1082 -0.5320 -0.4734
  472MOL0     C63618   4.439   5.777   1.999  0.5857  0.3953 -0.3699
  472MOL0     C63619   4.301   5.813   2.035  0.4381 -1.3244  0.3831
  472MOL0     O63620   4.219   5.720   2.091  0.0833  0.2642  0.4249
  472MOL0     C63621   4.247   5.666   2.222 -0.4073  0.5619 -0.0447
  472MOL0     C63622   4.141   5.560   2.240 -0.4957 -0.1089  0.6420
  472MOL0     C63623   4.014   5.615   2.305 -0.0365 -0.6185 -0.5291
  472MOL0     C63624   3.900   5.519   2.284  0.0667 -0.0965 -0.6594
  472MOL0     C63625   3.776   5.547   2.367 -0.4333 -0.3555  0.7356
  472MOL0     C63626   3.738   5.691   2.386 -0.0156 -0.1591 -0.2761
  472MOL0     C63627   3.602   5.717   2.452 -0.4023  0.1049 -0.6488
  472MOL0     C63628   3.587   5.858   2.511 -0.4935  0.4513  0.2182
  472MOL0    Cl63629   3.478   5.874   2.647 -0.4073  0.0954 -0.4539
  472MOL0     C63630   4.259   5.944   2.000  0.4542  0.1245  0.6529
  472MOL0     C63631   4.339   6.033   1.931  0.1633  0.0532 -0.5215
  472MOL0     O63632   4.613   6.184   2.034 -0.4689  0.0521  0.2935
  472MOL0     C63633   4.673   6.292   1.694  0.1524  0.2456 -0.1243
  472MOL0     C63634   4.725   6.394   1.616 -0.1447 -0.0390  0.8092
  472MOL0     N63635   5.114   6.957   1.190 -0.2685 -0.4244 -0.2338
  472MOL0     N63636   5.202   7.019   1.122  0.8064 -0.6593  0.0693
  472MOL0     C63637   5.601   7.700   0.376 -0.8241  0.0125 -0.3221
  472MOL0     C63638   5.608   7.765   0.254 -0.0315 -0.2711  0.2556
  472MOL0     C63639   5.479   7.990  -0.125  0.2918 -0.0013  0.3443
  472MOL0     C63640   5.603   8.017  -0.175 -0.0274 -0.1106  0.9295
  472MOL0     C63641   5.631   8.073  -0.298  0.3755 -0.0209 -0.3472
  472MOL0     C63642   5.519   8.109  -0.371  0.5544 -0.9336  0.2897
  472MOL0     O63643   5.544   8.177  -0.485 -0.8228 -0.1870 -0.2073
  472MOL0     C63644   5.442   8.240  -0.560 -0.2106 -0.6019  0.2497
  472MOL0     C63645   5.517   8.326  -0.660  0.1336 -0.3304 -0.1456
  472MOL0     C63646   5.574   8.265  -0.788  0.9242 -0.2849 -0.3282
  472MOL0     C63647   5.618   8.376  -0.895 -0.4312  0.8593 -0.4153
  472MOL0     C63648   5.499   8.445  -0.939  0.0310  0.5277  0.8483
  472MOL0     C63649   5.391   8.502  -0.967 -0.8271  0.2720 -0.0079
  472MOL0     C63650   5.392   8.088  -0.325 -0.3402 -0.3063 -0.0287
  472MOL0     C63651   5.371   8.026  -0.203 -0.2268 -0.1786 -0.8114
  472MOL0     C63652   5.226   7.993  -0.161 -0.5607 -1.7159  1.0789
  472MOL0     H63653   5.485   8.070   0.324 -1.4378 -0.1927 -0.8484
  472MOL0     H63654   5.469   7.961   0.555 -1.7906 -2.1767  1.4874
  472MOL0     H63655   5.687   7.557   0.645 -1.8326 -0.4088  1.6053
  472MOL0     H63656   5.759   7.721   0.611  0.5828  0.7724  1.0436
  472MOL0     H63657   5.669   7.787   0.840 -0.0095 -0.7280  1.3796
  472MOL0     H63658   5.802   7.690   0.829  0.0110  2.0817 -2.5410
  472MOL0     H63659   5.665   7.525   0.960 -1.8965 -1.0499  1.0022
  472MOL0     H63660   5.569   7.507   0.813  1.2425  1.1171 -1.7669
  472MOL0     H63661   5.524   7.666   1.072  0.0577 -1.2321  0.6297
  472MOL0     H63662   5.468   7.746   0.923 -2.7201  1.3205  3.5567
  472MOL0     H63663   5.276   7.625   0.987 -1.0001 -1.2300 -0.7964
  472MOL0     H63664   5.333   7.538   0.848  1.4498  1.8358 -1.8552
  472MOL0     H63665   5.484   7.408   1.025 -2.2141 -3.4914  0.4985
  472MOL0     H63666   5.422   7.500   1.147  0.8262 -0.6679 -0.0867
  472MOL0     H63667   5.258   7.281   0.977  2.0465 -1.1411  0.0405
  472MOL0     H63668   5.183   7.381   1.088 -0.3643 -0.5137  0.1274
  472MOL0     H63669   5.412   7.185   1.148 -0.1240  0.0083  1.5763
  472MOL0     H63670   5.335   7.283   1.271 -0.9689  2.0295 -0.6130
  472MOL0     H63671   5.090   7.238   1.345 -0.0813 -2.4578  2.9509
  472MOL0     H63672   4.939   7.044   1.467 -3.0163  0.7838 -0.6148
  472MOL0     H63673   4.844   7.024   1.332 -1.3004 -1.3563  0.1862
  472MOL0     H63674   4.968   6.775   1.315  0.8671  1.5087  0.7697
  472MOL0     H63675   4.993   6.792   1.475 -1.5545 -0.6810  0.4068
  472MOL0     H63676   4.724   6.823   1.348 -2.6603  2.3606  1.9541
  472MOL0     H63677   4.753   6.864   1.510  0.8845 -0.0503 -0.0928
  472MOL0     H63678   4.819   6.579   1.405 -0.3985  0.5710 -1.2646
  472MOL0     H63679   4.658   6.628   1.447 -0.6033 -0.7004  0.5185
  472MOL0     H63680   4.824   6.596   1.862  2.7905 -1.3292  0.2795
  472MOL0     H63681   4.727   6.407   2.003 -0.1046  1.2502  0.1739
  472MOL0     H63682   4.612   5.824   1.918 -0.4721 -2.9312  1.7077
  472MOL0     H63683   4.459   5.670   2.010 -1.5798  0.0196  0.3013
  472MOL0     H63684   4.340   5.610   2.231 -1.8286 -2.0135 -0.5442
  472MOL0     H63685   4.237   5.751   2.290  0.1520  1.6799 -1.3117
  472MOL0     H63686   4.124   5.524   2.138  1.2680  4.3441 -1.4609
  472MOL0     H63687   4.181   5.479   2.302 -1.0035  0.2313  1.4409
  472MOL0     H63688   4.024   5.642   2.411 -1.9714  3.4631 -1.2010
  472MOL0     H63689   3.989   5.704   2.248  2.0575 -1.0405 -2.2421
  472MOL0     H63690   3.937   5.422   2.319  0.8152  0.7822  1.1507
  472MOL0     H63691   3.872   5.519   2.179  1.0274  0.7924 -0.9334
  472MOL0     H63692   3.805   5.515   2.467  1.7217 -0.1665  0.2190
  472MOL0     H63693   3.690   5.494   2.324  0.5736  0.1832 -2.1466
  472MOL0     H63694   3.826   5.733   2.436 -0.2338 -0.8329  0.7140
  472MOL0     H63695   3.736   5.743   2.290  1.2559  3.2139  1.3759
  472MOL0     H63696   3.592   5.642   2.531  0.1383  1.5027  0.8021
  472MOL0     H63697   3.519   5.697   2.383 -1.3095  0.3057  0.3792
  472MOL0     H63698   3.677   5.913   2.538 -1.1019  0.8715  1.4910
  472MOL0     H63699   3.537   5.917   2.434 -0.2292  2.9014  1.8022
  472MOL0     H63700   4.165   5.989   2.030  0.4567 -1.0367  2.6016
  472MOL0     H63701   4.311   6.137   1.915 -2.0256 -0.3168  0.6010
  472MOL0     H63702   4.626   6.217   1.630 -0.9283  0.3283  0.5577
  472MOL0     H63703   4.705   6.397   1.510 -1.9176  0.8165  1.1279
  472MOL0     H63704   5.616   7.592   0.374  1.0157  0.2150 -3.1594
  472MOL0     H63705   5.641   7.709   0.167 -0.1078  1.2554 -0.7939
  472MOL0     H63706   5.693   7.995  -0.120  0.0912 -2.3072 -0.0480
  472MOL0     H63707   5.730   8.092  -0.339 -0.7254  0.7935 -2.8873
  472MOL0     H63708   5.389   8.309  -0.494  2.3493  2.5171 -0.7322
  472MOL0     H63709   5.383   8.160  -0.607 -1.2961  0.8508 -0.9870
  472MOL0     H63710   5.600   8.378  -0.611 -0.1364 -0.3241  0.3127
  472MOL0     H63711   5.448   8.405  -0.692 -0.9705  0.1756  3.1017
  472MOL0     H63712   5.499   8.205  -0.840  1.1751 -1.8595  1.0322
  472MOL0     H63713   5.654   8.196  -0.760 -0.9793 -2.7270 -0.5300
  472MOL0     H63714   5.685   8.453  -0.856 -0.4695  0.4500  0.4883
  472MOL0     H63715   5.673   8.326  -0.975  0.5182 -0.8360  1.2108
  472MOL0     H63716   5.300   8.554  -0.987 -0.4555  1.2943  0.8669
  472MOL0     H63717   5.309   8.118  -0.389 -1.1993 -0.8763  0.7859
  472MOL0     H63718   5.211   8.018  -0.055 -0.0352 -0.5479  0.8999
  472MOL0     H63719   5.167   8.064  -0.218  3.4903  1.6581  0.5390
  472MOL0     H63720   5.188   7.896  -0.193 -2.1961 -0.3445 -1.4018
  473MOL0     O63721   2.033   2.783   9.711  0.4206  0.2063 -0.0518
  473MOL0     C63722   2.079   2.882   9.763  0.6859  0.6517 -0.5918
  473MOL0     O63723   2.073   3.003   9.706 -0.3505  0.0489  0.5800
  473MOL0     C63724   2.048   3.011   9.578 -0.1717  1.2623  0.3053
  473MOL0     C63725   2.095   2.931   9.472 -0.8166  0.3421 -0.2990
  473MOL0     C63726   2.037   2.961   9.347  0.2977 -0.0115 -0.1531
  473MOL0     C63727   1.937   3.056   9.323  0.2810 -0.1224 -0.3160
  473MOL0     O63728   1.883   3.070   9.202 -0.3987 -0.4248  0.2346
  473MOL0     C63729   1.837   2.954   9.129 -0.5973 -0.8034 -1.1712
  473MOL0     C63730   1.712   2.981   9.046  0.9103 -0.6598  0.2405
  473MOL0     C63731   1.692   2.880   8.931  0.5386 -0.2938  0.4644
  473MOL0     C63732   1.619   2.749   8.971 -0.4251 -0.2925 -0.1039
  473MOL0     C63733   1.664   2.637   8.876  0.4573  0.2186 -0.4658
  473MOL0     C63734   1.802   2.585   8.911 -0.2804 -0.1776  0.1787
  473MOL0     C63735   1.818   2.445   8.851 -0.1362 -0.7626 -0.1741
  473MOL0     C63736   1.896   2.442   8.716 -0.2271  0.4738 -0.8145
  473MOL0     N63737   1.836   2.527   8.616  0.8938  0.5615  0.1712
  473MOL0     C63738   1.705   2.500   8.571  0.9649 -0.7683  0.6705
  473MOL0     C63739   1.684   2.590   8.468 -0.7203 -0.0846 -1.1804
  473MOL0     C63740   1.554   2.599   8.400 -0.6425 -0.9816  0.5652
  473MOL0     C63741   1.459   2.714   8.445  0.3420  1.1511  0.5895
  473MOL0     C63742   1.313   2.675   8.413 -0.1893 -0.2083 -0.6159
  473MOL0     C63743   1.221   2.759   8.501  0.3232  0.3658  0.2134
  473MOL0     O63744   1.090   2.718   8.465 -0.0143 -0.3627  0.0555
  473MOL0     C63745   0.985   2.786   8.522  0.4055 -0.0940 -0.0788
  473MOL0     C63746   0.984   2.908   8.592 -1.0950  0.5529  0.0367
  473MOL0     C63747   0.860   2.958   8.625 -0.6355 -0.3204 -1.0023
  473MOL0     C63748   0.734   2.907   8.600 -1.0801 -0.7824 -0.7637
  473MOL0     C63749   0.613   2.970   8.652  0.4146 -0.5998  1.1099
  473MOL0     O63750   0.492   2.903   8.646  0.7630 -0.0052 -0.2787
  473MOL0     C63751   0.376   2.965   8.681 -0.1400  0.1281  0.0170
  473MOL0     C63752   0.352   3.073   8.773 -0.8525  0.4880  0.2889
  473MOL0     C63753   0.218   3.127   8.781 -0.4971  0.8159  0.1940
  473MOL0     C63754   0.113   3.080   8.703  0.2065  0.5274  0.5715
  473MOL0     O63755  -0.006   3.119   8.732 -0.2340 -0.7655  0.1986
  473MOL0     C63756  -0.120   3.062   8.664  0.1971  1.0422  0.0510
  473MOL0     C63757  -0.255   3.117   8.728 -0.0829 -0.2346 -0.5305
  473MOL0     C63758  -0.253   3.262   8.745 -0.4553 -0.3012 -0.7381
  473MOL0     C63759  -0.382   3.295   8.838 -0.6543  0.0920  0.6514
  473MOL0     C63760  -0.376   3.443   8.878 -0.7400  0.4631  0.2155
  473MOL0     C63761  -0.507   3.484   8.928 -0.5201 -0.7994 -0.1967
  473MOL0     C63762  -0.495   3.637   8.969  1.0751 -0.1905  0.3989
  473MOL0     C63763  -0.633   3.702   8.996 -0.9964  0.2841 -0.3053
  473MOL0    Cl63764  -0.706   3.663   9.159 -0.3235  0.1911  0.1092
  473MOL0     C63765   0.143   2.996   8.598 -0.7979 -0.0138  0.0694
  473MOL0     C63766   0.270   2.932   8.590  1.1102 -0.4225 -0.1076
  473MOL0     O63767   0.627   3.086   8.688  0.2788 -0.8666  0.8153
  473MOL0     C63768   0.732   2.784   8.544 -0.1108 -0.0659  0.3567
  473MOL0     C63769   0.856   2.731   8.495 -0.6156  0.8021  0.1657
  473MOL0     N63770   1.806   2.673   8.463  1.0441  0.4061  0.8083
  473MOL0     N63771   1.893   2.617   8.535  0.5659 -0.7718 -0.0158
  473MOL0     C63772   1.883   3.119   9.434  0.3774  0.3937 -0.2780
  473MOL0     C63773   1.944   3.098   9.564  0.4095  0.1758  0.7995
  473MOL0     C63774   2.124   2.866   9.897 -0.4290 -0.1832  1.3279
  473MOL0     C63775   2.039   2.799   9.998 -0.4493  0.4223  0.0315
  473MOL0     C63776   2.093   2.775  10.121 -0.5677  0.5846  0.6396
  473MOL0     C63777   2.222   2.808  10.153  0.5789 -0.4935  0.3799
  473MOL0     O63778   2.268   2.761  10.276  0.1237 -1.0009  0.3781
  473MOL0     C63779   2.399   2.723  10.277  0.1278 -0.2712  0.5444
  473MOL0     C63780   2.428   2.621  10.391  0.2732 -0.5893  0.3962
  473MOL0     C63781   2.487   2.696  10.513 -0.1693 -0.6229  0.0452
  473MOL0     C63782   2.567   2.606  10.606 -0.6931 -0.4700 -0.2531
  473MOL0     C63783   2.558   2.464  10.584  0.3549  0.3851  0.1684
  473MOL0     C63784   2.538   2.341  10.571 -0.1027  0.4827  0.7300
  473MOL0     C63785   2.292   2.888  10.066 -1.0339 -0.0510 -0.4519
  473MOL0     C63786   2.239   2.920   9.940  0.4269  0.0289 -0.0221
  473MOL0     C63787   2.332   2.996   9.845 -0.8402  0.5308 -0.8200
  473MOL0     H63788   2.173   2.857   9.484  0.4214  1.9553  2.6274
  473MOL0     H63789   2.061   2.904   9.258 -1.8052 -1.4178  0.1100
  473MOL0     H63790   1.909   2.933   9.050  2.1144  0.5912  0.7687
  473MOL0     H63791   1.836   2.863   9.189 -0.1536  0.7482  1.3333
  473MOL0     H63792   1.724   3.077   8.997  1.0631 -0.7158  0.1681
  473MOL0     H63793   1.620   2.975   9.106 -0.2201 -1.2300 -1.4863
  473MOL0     H63794   1.789   2.847   8.895  0.7200  0.3673  0.3389
  473MOL0     H63795   1.633   2.937   8.859 -1.7700 -1.1474  1.5681
  473MOL0     H63796   1.651   2.715   9.070 -0.6438  5.9780  2.5879
  473MOL0     H63797   1.510   2.760   8.966 -0.9748 -4.4421 -0.6395
  473MOL0     H63798   1.592   2.555   8.884  2.6851 -1.6567  3.1031
  473MOL0     H63799   1.677   2.679   8.775 -1.0693  1.7221 -0.0886
  473MOL0     H63800   1.884   2.650   8.877 -2.7445  2.0540 -1.9569
  473MOL0     H63801   1.805   2.565   9.018 -2.6686 -2.9417 -0.1732
  473MOL0     H63802   1.719   2.400   8.842 -0.3262 -0.8312  1.7449
  473MOL0     H63803   1.867   2.385   8.928  1.9242 -1.2094 -1.7387
  473MOL0     H63804   1.998   2.473   8.744 -0.4395 -1.6916  3.0903
  473MOL0     H63805   1.913   2.340   8.680  2.8953 -0.6915  3.1049
  473MOL0     H63806   1.640   2.433   8.626 -0.6764  1.0067  1.0343
  473MOL0     H63807   1.571   2.606   8.292  1.1973  0.0232  0.8820
  473MOL0     H63808   1.516   2.497   8.416  3.1787 -3.2330 -2.8422
  473MOL0     H63809   1.480   2.737   8.550  2.7088 -0.9067  0.6497
  473MOL0     H63810   1.486   2.808   8.395 -2.7023  0.9875 -1.6817
  473MOL0     H63811   1.293   2.568   8.416  0.9108 -0.4406 -1.1422
  473MOL0     H63812   1.281   2.694   8.309 -3.2010 -2.4362 -0.2152
  473MOL0     H63813   1.239   2.859   8.462  1.0097 -0.5774 -2.1160
  473MOL0     H63814   1.244   2.754   8.608 -1.5225  1.0158  0.6735
  473MOL0     H63815   1.071   2.964   8.626 -0.2324 -2.4818  3.4587
  473MOL0     H63816   0.864   3.047   8.687  0.2437 -0.1806 -1.2498
  473MOL0     H63817   0.434   3.096   8.841 -1.4753 -0.0634  1.2499
  473MOL0     H63818   0.207   3.213   8.846  0.2967  1.1250 -0.0744
  473MOL0     H63819  -0.115   3.090   8.559 -0.3039  0.9461 -0.0016
  473MOL0     H63820  -0.122   2.953   8.654 -2.3680  1.0664 -0.3396
  473MOL0     H63821  -0.336   3.083   8.664 -0.9610  1.2320 -0.2302
  473MOL0     H63822  -0.268   3.068   8.825 -0.7673  1.9111  0.5149
  473MOL0     H63823  -0.166   3.293   8.803  0.0901 -2.3971 -0.3703
  473MOL0     H63824  -0.261   3.325   8.656  0.6282  0.7973 -0.0854
  473MOL0     H63825  -0.380   3.239   8.931 -2.3134 -0.8367  0.1755
  473MOL0     H63826  -0.473   3.259   8.789  0.8311 -0.8722 -1.6044
  473MOL0     H63827  -0.351   3.492   8.784 -1.9909  0.2515 -0.2339
  473MOL0     H63828  -0.308   3.454   8.963 -0.5353  1.9655 -0.1206
  473MOL0     H63829  -0.589   3.473   8.857  0.9212 -3.3120 -1.6212
  473MOL0     H63830  -0.538   3.425   9.014 -0.7494  1.4398  1.3694
  473MOL0     H63831  -0.438   3.698   8.898 -3.7705  3.8862 -0.5335
  473MOL0     H63832  -0.440   3.631   9.063 -1.8465  0.7158  2.2911
  473MOL0     H63833  -0.621   3.811   8.991 -0.9689  0.2518 -1.0132
  473MOL0     H63834  -0.711   3.669   8.927  0.4897 -0.8521 -1.5019
  473MOL0     H63835   0.067   2.956   8.531 -2.1435  0.7804  1.0637
  473MOL0     H63836   0.285   2.856   8.513 -5.7702 -2.5777  0.0085
  473MOL0     H63837   0.642   2.736   8.509  1.3049 -2.2135 -0.5873
  473MOL0     H63838   0.853   2.639   8.438  1.5966  0.2112  0.9152
  473MOL0     H63839   1.804   3.191   9.416  0.5228  0.6521  0.1284
  473MOL0     H63840   1.919   3.147   9.657  1.4748 -1.9102  2.2490
  473MOL0     H63841   1.943   2.757   9.969  0.8038 -0.8399 -2.5659
  473MOL0     H63842   2.040   2.731  10.205 -2.2897  0.7813 -0.3162
  473MOL0     H63843   2.472   2.805  10.276 -1.9625  1.6742  0.3006
  473MOL0     H63844   2.401   2.660  10.187  0.9803 -0.3184  0.5882
  473MOL0     H63845   2.494   2.537  10.366 -0.3194 -1.9111  2.9053
  473MOL0     H63846   2.334   2.581  10.429  1.7555 -3.8460  1.0247
  473MOL0     H63847   2.397   2.733  10.563 -0.6675  0.0372 -1.2709
  473MOL0     H63848   2.553   2.777  10.482 -2.9407  0.8969 -2.4049
  473MOL0     H63849   2.674   2.629  10.607 -1.0438  1.7042  3.0666
  473MOL0     H63850   2.540   2.630  10.709  1.4504 -3.5186  1.1769
  473MOL0     H63851   2.512   2.238  10.580  0.3801  0.5801  5.3355
  473MOL0     H63852   2.379   2.941  10.105 -2.5317  0.8244  1.9685
  473MOL0     H63853   2.413   3.043   9.901 -0.3146 -1.2591 -0.0163
  473MOL0     H63854   2.394   2.948   9.769 -0.3295  1.5314 -1.0542
  473MOL0     H63855   2.274   3.075   9.795 -1.9594  0.8937  0.9755
  474MOL0     O63856   5.816   1.171   9.112  0.0865  0.2304 -0.1043
  474MOL0     C63857   5.824   1.279   9.180  0.4302  0.5587  0.3989
  474MOL0     O63858   5.718   1.342   9.228  0.5263 -0.0274  0.0097
  474MOL0     C63859   5.601   1.283   9.223 -0.2405 -0.3831 -0.1881
  474MOL0     C63860   5.575   1.151   9.263 -0.3234  0.2320 -0.2496
  474MOL0     C63861   5.447   1.107   9.267  0.2892  0.8313  0.4919
  474MOL0     C63862   5.341   1.187   9.234 -0.8113  0.4850  0.2589
  474MOL0     O63863   5.215   1.129   9.242 -0.3410  0.4231 -0.5133
  474MOL0     C63864   5.132   1.153   9.124 -0.3337 -0.7372  0.3719
  474MOL0     C63865   5.056   1.032   9.093  0.4570 -0.1906  0.5022
  474MOL0     C63866   4.963   1.054   8.969 -0.8897 -0.7223  0.2684
  474MOL0     C63867   5.045   1.057   8.835  0.1036 -0.3028 -0.4114
  474MOL0     C63868   4.962   1.025   8.712 -0.7413  0.3898 -0.9701
  474MOL0     C63869   4.992   0.889   8.651  0.6690 -0.5000  0.7048
  474MOL0     C63870   4.912   0.780   8.733 -0.6714  0.0833  0.9203
  474MOL0     C63871   4.857   0.669   8.646  0.7310  0.3665 -0.0600
  474MOL0     N63872   4.710   0.683   8.611  0.8111  0.0845  0.0787
  474MOL0     C63873   4.658   0.696   8.487 -0.4566  0.5660 -0.2614
  474MOL0     C63874   4.531   0.727   8.505  0.0359  0.1370 -0.1887
  474MOL0     C63875   4.432   0.746   8.398  0.1776 -0.8430 -0.3051
  474MOL0     C63876   4.403   0.619   8.316 -0.6598 -0.2051 -0.8116
  474MOL0     C63877   4.497   0.571   8.202  0.5862  0.3679 -0.2091
  474MOL0     C63878   4.458   0.427   8.162 -0.0345  0.6941  0.1641
  474MOL0     O63879   4.568   0.355   8.106 -0.1566 -0.1717 -0.2193
  474MOL0     C63880   4.604   0.359   7.972  0.3714 -0.4152  0.1204
  474MOL0     C63881   4.712   0.291   7.923 -0.3896 -0.2884  0.0996
  474MOL0     C63882   4.751   0.286   7.786 -0.2268 -0.5789 -0.1154
  474MOL0     C63883   4.691   0.361   7.692  0.6253  0.0069  0.3396
  474MOL0     C63884   4.738   0.373   7.552 -0.4470 -1.5608  0.0863
  474MOL0     O63885   4.814   0.267   7.515 -0.3651  0.1491  0.2478
  474MOL0     C63886   4.872   0.278   7.392 -1.7531  0.7249 -0.7433
  474MOL0     C63887   5.013   0.262   7.394  0.3868  0.7877 -0.5220
  474MOL0     C63888   5.078   0.255   7.276 -0.3050 -0.2139  0.1901
  474MOL0     C63889   5.010   0.267   7.150 -0.9909  0.5484 -1.1846
  474MOL0     O63890   5.066   0.269   7.019 -0.5930 -0.7760 -0.3243
  474MOL0     C63891   5.209   0.279   7.014  0.4437 -0.0560 -0.1023
  474MOL0     C63892   5.260   0.316   6.875  0.2509 -0.0194  0.7990
  474MOL0     C63893   5.405   0.355   6.887  0.0324 -0.3293 -0.0485
  474MOL0     C63894   5.500   0.292   6.791 -0.6296 -0.5983 -0.2725
  474MOL0     C63895   5.529   0.152   6.847 -0.9717  0.8350 -0.8914
  474MOL0     C63896   5.637   0.083   6.756 -0.4029  0.5673 -0.0535
  474MOL0     C63897   5.706  -0.036   6.814 -0.4167 -0.1133 -0.5697
  474MOL0     C63898   5.845   0.013   6.879  0.2803 -0.9562 -0.5899
  474MOL0    Cl63899   5.971   0.025   6.763  0.2201  0.5361 -0.0341
  474MOL0     C63900   4.878   0.290   7.162  0.3159 -0.1618  0.2094
  474MOL0     C63901   4.798   0.288   7.275 -0.7159 -0.0699  0.0131
  474MOL0     O63902   4.692   0.460   7.484  0.1885 -0.1678  0.7030
  474MOL0     C63903   4.578   0.437   7.737  0.4076  0.5459 -0.2733
  474MOL0     C63904   4.539   0.428   7.867  0.5611  0.4762  1.0022
  474MOL0     N63905   4.496   0.725   8.642  0.4259  0.1057 -0.2690
  474MOL0     N63906   4.606   0.690   8.703  0.1059 -0.9893 -0.0684
  474MOL0     C63907   5.364   1.315   9.197 -0.4539  0.7928  0.3794
  474MOL0     C63908   5.494   1.366   9.198  0.4857  0.7266 -0.1792
  474MOL0     C63909   5.955   1.337   9.204  0.0026 -1.0823 -0.5836
  474MOL0     C63910   6.068   1.278   9.141 -0.1550  0.4665 -0.0260
  474MOL0     C63911   6.193   1.337   9.162 -0.5134 -0.3212  0.0730
  474MOL0     C63912   6.213   1.463   9.217  0.2399  0.5558  0.2340
  474MOL0     O63913   6.335   1.513   9.218 -0.3444 -0.2167 -0.3451
  474MOL0     C63914   6.424   1.448   9.314  0.0658 -0.2520  0.5324
  474MOL0     C63915   6.520   1.561   9.364  0.5246 -0.2668  0.4996
  474MOL0     C63916   6.603   1.612   9.244  0.5237 -0.6126  0.3969
  474MOL0     C63917   6.744   1.621   9.276 -0.1442  0.3272  0.3661
  474MOL0     C63918   6.770   1.744   9.356  0.9223  0.5537 -0.0920
  474MOL0     C63919   6.801   1.844   9.412 -0.2747 -0.2893  0.1569
  474MOL0     C63920   6.102   1.522   9.272 -0.1539 -0.0434 -0.1261
  474MOL0     C63921   5.978   1.465   9.282 -0.6148  0.5220  0.6434
  474MOL0     C63922   5.875   1.534   9.368 -0.1018 -0.9953 -0.3386
  474MOL0     H63923   5.657   1.087   9.295  0.5477  0.4738 -1.8769
  474MOL0     H63924   5.425   1.008   9.307 -0.0070  1.5762  2.2932
  474MOL0     H63925   5.063   1.236   9.142  0.5623 -0.2988  1.9918
  474MOL0     H63926   5.198   1.186   9.044 -0.5667  0.2700  0.5754
  474MOL0     H63927   5.001   0.997   9.180  0.6402 -3.0994 -0.4146
  474MOL0     H63928   5.118   0.943   9.077  1.7086  0.7224  0.0733
  474MOL0     H63929   4.905   1.147   8.961 -1.5073 -1.0505  0.8966
  474MOL0     H63930   4.901   0.965   8.956  0.4922 -1.4093 -2.3954
  474MOL0     H63931   5.097   1.152   8.819 -0.2297  0.2361  1.4957
  474MOL0     H63932   5.128   0.987   8.849 -1.8135 -2.2218  2.4692
  474MOL0     H63933   4.859   1.027   8.749  0.5591 -1.6281  3.5003
  474MOL0     H63934   4.968   1.108   8.642 -3.1155  1.1223 -0.3867
  474MOL0     H63935   4.957   0.895   8.547  1.1713  0.4500  0.5886
  474MOL0     H63936   5.101   0.885   8.652  0.7676  1.5741  2.0320
  474MOL0     H63937   4.827   0.831   8.780  1.3125  2.4235  2.2231
  474MOL0     H63938   4.980   0.753   8.814 -0.6346  1.2920  1.3125
  474MOL0     H63939   4.913   0.636   8.559 -2.2252 -1.8542 -1.2873
  474MOL0     H63940   4.855   0.578   8.707 -3.1875 -0.1931 -0.7604
  474MOL0     H63941   4.724   0.696   8.401 -0.0278  0.9734  0.0607
  474MOL0     H63942   4.342   0.794   8.438 -0.2030 -0.5400 -1.5071
  474MOL0     H63943   4.483   0.817   8.333 -1.3232  1.1250  0.5670
  474MOL0     H63944   4.409   0.534   8.385  1.9587 -0.7453 -1.6153
  474MOL0     H63945   4.301   0.627   8.276 -1.1774 -1.1768  0.2482
  474MOL0     H63946   4.597   0.576   8.246  0.9934  1.2579 -1.1954
  474MOL0     H63947   4.497   0.635   8.113 -0.4869 -0.8960 -1.1475
  474MOL0     H63948   4.366   0.419   8.103 -0.6506 -0.6986  1.2533
  474MOL0     H63949   4.425   0.372   8.251 -0.8288  1.7077  0.5212
  474MOL0     H63950   4.768   0.233   7.996  0.5591  3.2188  2.4099
  474MOL0     H63951   4.836   0.223   7.762  0.0901  0.2942 -1.3341
  474MOL0     H63952   5.062   0.249   7.490  0.6274 -0.4553 -0.7946
  474MOL0     H63953   5.185   0.241   7.284 -0.1839  0.8496  0.6451
  474MOL0     H63954   5.252   0.345   7.089 -2.3803  1.0005  0.6772
  474MOL0     H63955   5.236   0.173   7.024 -1.8190 -0.9997 -2.5525
  474MOL0     H63956   5.257   0.233   6.804  2.0616  0.4553  0.1100
  474MOL0     H63957   5.200   0.400   6.840 -0.1906  0.1041  1.8080
  474MOL0     H63958   5.411   0.462   6.868 -1.5477 -0.8718 -5.2021
  474MOL0     H63959   5.447   0.324   6.983  0.9082  0.0640 -0.2888
  474MOL0     H63960   5.590   0.354   6.803 -0.6325 -0.2999 -1.6561
  474MOL0     H63961   5.490   0.288   6.683  0.7018  0.2892 -0.4576
  474MOL0     H63962   5.435   0.095   6.842 -1.4178  1.3914  0.5729
  474MOL0     H63963   5.566   0.155   6.950 -1.8727 -0.2263 -0.5105
  474MOL0     H63964   5.589   0.041   6.667  1.9409 -2.6758  0.0212
  474MOL0     H63965   5.711   0.159   6.729 -0.1501  0.1073 -0.6780
  474MOL0     H63966   5.730  -0.120   6.749  4.0774 -1.1412  1.9863
  474MOL0     H63967   5.641  -0.073   6.894  1.3376 -0.7445  0.6275
  474MOL0     H63968   5.830   0.105   6.935  3.3533  0.0049 -1.1608
  474MOL0     H63969   5.879  -0.054   6.958 -0.4829 -1.8277 -0.9801
  474MOL0     H63970   4.829   0.299   7.066  1.3270  0.7482 -0.2404
  474MOL0     H63971   4.690   0.291   7.269 -0.9839  0.9626  3.3652
  474MOL0     H63972   4.524   0.489   7.659 -1.1779 -2.7135 -1.5375
  474MOL0     H63973   4.445   0.470   7.902  0.8081 -0.8992  3.5672
  474MOL0     H63974   5.279   1.378   9.172 -0.9859  1.3783  3.2707
  474MOL0     H63975   5.518   1.464   9.159  1.1405  0.3670 -0.6929
  474MOL0     H63976   6.063   1.179   9.095  0.8252  0.6860 -0.6394
  474MOL0     H63977   6.278   1.283   9.120  0.0191 -2.0568  3.0746
  474MOL0     H63978   6.475   1.379   9.246 -0.4055  0.8705 -1.0192
  474MOL0     H63979   6.373   1.394   9.394 -1.9511 -3.2925 -2.5453
  474MOL0     H63980   6.594   1.520   9.434  1.7289 -1.5305 -1.4072
  474MOL0     H63981   6.457   1.637   9.411 -1.2220 -0.9939 -0.5826
  474MOL0     H63982   6.560   1.711   9.229 -2.0635 -1.1494  3.2995
  474MOL0     H63983   6.588   1.558   9.150  0.6181 -0.3616  0.2342
  474MOL0     H63984   6.779   1.534   9.331 -0.7500 -0.5720 -0.6319
  474MOL0     H63985   6.795   1.646   9.182 -0.6003  1.9871  0.5145
  474MOL0     H63986   6.840   1.920   9.476 -0.4618  0.0875 -0.1725
  474MOL0     H63987   6.120   1.624   9.308 -0.0709  1.1826 -3.3462
  474MOL0     H63988   5.823   1.473   9.443  0.1254  0.5387  1.1219
  474MOL0     H63989   5.927   1.607   9.431 -1.5703 -0.7755  0.6592
  474MOL0     H63990   5.809   1.602   9.315  3.0399  2.7367  0.1132
  475MOL0     O63991   0.031   1.715   9.507  0.5921  0.4349  0.2142
  475MOL0     C63992  -0.063   1.645   9.537  0.1008 -0.1265 -0.0239
  475MOL0     O63993  -0.048   1.516   9.591  0.4213  0.3290 -0.1557
  475MOL0     C63994   0.062   1.483   9.660 -0.1637 -0.7773 -0.8803
  475MOL0     C63995   0.165   1.397   9.609 -0.2331 -1.1455  0.6926
  475MOL0     C63996   0.258   1.349   9.700 -0.0565  0.2143 -0.5595
  475MOL0     C63997   0.258   1.385   9.831  0.2907 -0.5820 -0.3636
  475MOL0     O63998   0.342   1.333   9.934  0.2996 -0.3475 -0.0430
  475MOL0     C63999   0.468   1.277   9.893  0.4766 -0.1372  0.6067
  475MOL0     C64000   0.569   1.248  10.006  0.6367 -0.6344  0.0868
  475MOL0     C64001   0.589   1.367  10.106 -0.4193 -0.2179  0.0558
  475MOL0     C64002   0.630   1.507  10.033 -0.2021  0.7897  0.2308
  475MOL0     C64003   0.642   1.603  10.144  0.2221  0.5150  0.1806
  475MOL0     C64004   0.766   1.608  10.226 -0.3845 -0.9683 -0.0294
  475MOL0     C64005   0.748   1.697  10.343  1.1894  0.2930  0.2526
  475MOL0     C64006   0.869   1.685  10.426  0.2825  0.2227 -0.4951
  475MOL0     N64007   0.965   1.792  10.394 -0.2333 -0.4827  0.9889
  475MOL0     C64008   1.063   1.772  10.306 -0.6484  0.0952  0.8014
  475MOL0     C64009   1.127   1.893  10.292  0.0363  0.2073  0.2289
  475MOL0     C64010   1.250   1.922  10.206  0.3684 -0.4154  0.4545
  475MOL0     C64011   1.369   1.869  10.280 -0.0154  0.5204 -0.6791
  475MOL0     C64012   1.409   1.961  10.405 -0.0218  0.2227 -0.4721
  475MOL0     C64013   1.481   2.095  10.383  1.2794  0.6017 -1.4033
  475MOL0     O64014   1.593   2.065  10.305  0.2305 -0.5436 -0.1314
  475MOL0     C64015   1.611   2.180  10.237 -0.6031  0.5984  0.1079
  475MOL0     C64016   1.543   2.202  10.117 -0.5654 -0.4785 -0.3379
  475MOL0     C64017   1.552   2.327  10.055  0.1466 -0.5072 -0.5027
  475MOL0     C64018   1.645   2.430  10.099 -0.2532  0.1382 -0.4049
  475MOL0     C64019   1.659   2.558  10.024 -0.0030  0.6070  0.4215
  475MOL0     O64020   1.574   2.594   9.933 -0.5303  0.6535  1.3758
  475MOL0     C64021   1.592   2.712   9.864 -0.1410  0.2541  0.0151
  475MOL0     C64022   1.696   2.733   9.770 -0.2250 -0.1469  0.4995
  475MOL0     C64023   1.721   2.862   9.717 -0.3279  0.1093 -0.3193
  475MOL0     C64024   1.648   2.968   9.768  0.6988  0.4450 -0.0038
  475MOL0     O64025   1.653   3.095   9.707  0.1037  0.4313  0.1773
  475MOL0     C64026   1.578   3.204   9.752 -0.5417 -0.1466 -0.0537
  475MOL0     C64027   1.636   3.328   9.685  0.1565 -0.0725 -0.4929
  475MOL0     C64028   1.587   3.342   9.540 -0.0935  0.2502 -0.1587
  475MOL0     C64029   1.684   3.424   9.466 -1.2427 -0.7514  1.0668
  475MOL0     C64030   1.644   3.427   9.313 -0.2174 -0.2796  0.8444
  475MOL0     C64031   1.737   3.522   9.244  0.4063 -0.2464  0.1252
  475MOL0     C64032   1.739   3.504   9.092 -0.2766  0.8351  0.0422
  475MOL0     C64033   1.603   3.494   9.025  0.3120  0.6722  0.5270
  475MOL0    Cl64034   1.607   3.531   8.849 -0.1454  0.1275  0.5651
  475MOL0     C64035   1.536   2.946   9.859 -0.9779  0.2790  0.6331
  475MOL0     C64036   1.505   2.810   9.899  0.4290 -0.7913  0.8469
  475MOL0     O64037   1.755   2.629  10.063  0.3650 -0.4915 -0.0530
  475MOL0     C64038   1.706   2.402  10.224  0.5303 -0.6667  0.0581
  475MOL0     C64039   1.690   2.277  10.284 -0.3453 -0.3804 -0.0022
  475MOL0     N64040   1.071   1.970  10.390 -0.4292  0.8335 -0.4845
  475MOL0     N64041   0.974   1.914  10.452  0.0137  0.0440 -0.0105
  475MOL0     C64042   0.162   1.478   9.880  0.9068  0.1260 -0.8705
  475MOL0     C64043   0.066   1.539   9.789  0.2846  0.6150 -0.7528
  475MOL0     C64044  -0.191   1.697   9.514 -0.3907  0.2790  0.2253
  475MOL0     C64045  -0.287   1.658   9.606 -0.2173  0.2100 -0.3290
  475MOL0     C64046  -0.415   1.712   9.606 -0.4115  0.2680  0.2383
  475MOL0     C64047  -0.444   1.806   9.511  0.8166 -0.2389 -0.2113
  475MOL0     O64048  -0.563   1.882   9.517 -0.3488 -0.5254  0.4151
  475MOL0     C64049  -0.654   1.865   9.629 -0.0675 -0.0617 -0.5856
  475MOL0     C64050  -0.740   1.993   9.646  0.5084 -1.0935 -0.3063
  475MOL0     C64051  -0.649   2.109   9.691  0.2218 -0.2894 -0.5489
  475MOL0     C64052  -0.742   2.235   9.721  0.0602 -0.0416 -0.5177
  475MOL0     C64053  -0.797   2.290   9.595 -0.2537 -0.5159 -0.1851
  475MOL0     C64054  -0.837   2.342   9.496 -0.6180 -0.3581 -0.5451
  475MOL0     C64055  -0.351   1.848   9.421 -0.6806  0.2512 -0.0679
  475MOL0     C64056  -0.228   1.788   9.415 -0.3858 -0.2766 -0.4305
  475MOL0     C64057  -0.155   1.809   9.293 -0.0039 -0.6055  0.6531
  475MOL0     H64058   0.164   1.371   9.504  2.0912 -0.0144  0.3086
  475MOL0     H64059   0.320   1.270   9.658  1.1434  2.9505 -4.4820
  475MOL0     H64060   0.455   1.190   9.827 -1.8335  0.7659 -0.2508
  475MOL0     H64061   0.517   1.358   9.839 -2.4261  0.5941 -1.1973
  475MOL0     H64062   0.665   1.235   9.955  1.5368 -0.7281  1.7194
  475MOL0     H64063   0.542   1.161  10.066 -1.8376  0.0147  0.0147
  475MOL0     H64064   0.662   1.333  10.180 -0.5574 -0.5226  0.0550
  475MOL0     H64065   0.499   1.370  10.169  0.6220 -0.7453  1.6267
  475MOL0     H64066   0.728   1.511   9.983 -0.6814 -0.5106 -0.9031
  475MOL0     H64067   0.560   1.523   9.951 -0.4692  0.5074  0.4033
  475MOL0     H64068   0.633   1.705  10.107 -2.1149  1.1458  2.2065
  475MOL0     H64069   0.561   1.585  10.216  0.4188 -1.6206 -0.0502
  475MOL0     H64070   0.784   1.506  10.261  1.4047 -0.3058  1.1563
  475MOL0     H64071   0.844   1.648  10.160 -1.9708  1.8148 -0.3516
  475MOL0     H64072   0.674   1.642  10.402  1.4782 -0.8487 -0.3967
  475MOL0     H64073   0.715   1.799  10.323  0.2516 -0.1115 -0.3463
  475MOL0     H64074   0.856   1.690  10.535  1.3106  2.9359 -0.4061
  475MOL0     H64075   0.910   1.584  10.418 -0.4519 -0.0655 -0.6666
  475MOL0     H64076   1.085   1.680  10.252  2.3632  0.0693  1.9251
  475MOL0     H64077   1.227   1.871  10.111  0.6565 -0.8905  0.6336
  475MOL0     H64078   1.267   2.028  10.183  0.0478 -0.4858 -0.1384
  475MOL0     H64079   1.341   1.770  10.319 -0.6287  0.3910 -1.4379
  475MOL0     H64080   1.459   1.856  10.220  0.2757 -0.4829 -0.0542
  475MOL0     H64081   1.485   1.902  10.457 -1.0550 -1.5541 -0.8898
  475MOL0     H64082   1.328   1.973  10.478  0.6263 -0.1099  0.3251
  475MOL0     H64083   1.513   2.141  10.477 -0.8882 -0.2803 -0.1799
  475MOL0     H64084   1.404   2.155  10.334  0.7031  0.2679 -0.9056
  475MOL0     H64085   1.474   2.122  10.089 -0.7953  0.2100 -1.8353
  475MOL0     H64086   1.496   2.355   9.966  2.6527  3.3608 -1.1254
  475MOL0     H64087   1.762   2.651   9.742  1.4822  0.6113  2.0512
  475MOL0     H64088   1.798   2.874   9.642 -0.0175  0.5480  0.0646
  475MOL0     H64089   1.471   3.190   9.735 -0.2096 -1.1210 -1.5295
  475MOL0     H64090   1.592   3.214   9.860  0.8373  0.9327 -0.2968
  475MOL0     H64091   1.599   3.412   9.745  1.0889  0.1010 -0.1408
  475MOL0     H64092   1.745   3.335   9.690  0.5011 -3.5569 -1.0738
  475MOL0     H64093   1.587   3.238   9.507  1.3203  0.4703 -0.9707
  475MOL0     H64094   1.491   3.395   9.540 -0.7398 -0.9030  0.0707
  475MOL0     H64095   1.784   3.384   9.487 -0.7429  0.3971  0.9421
  475MOL0     H64096   1.673   3.530   9.491 -1.7769 -0.6738  0.5208
  475MOL0     H64097   1.539   3.452   9.297  0.0802  1.2650  1.0948
  475MOL0     H64098   1.657   3.322   9.289 -1.4623 -0.5641  1.3294
  475MOL0     H64099   1.713   3.626   9.267 -1.3630 -0.7330  0.6406
  475MOL0     H64100   1.837   3.499   9.283 -1.4908 -1.1944  5.2133
  475MOL0     H64101   1.789   3.408   9.076  1.3107  1.7835 -0.8855
  475MOL0     H64102   1.806   3.577   9.046 -2.1689  1.7062 -1.4814
  475MOL0     H64103   1.561   3.394   9.040  0.4875  0.4039 -0.6835
  475MOL0     H64104   1.526   3.560   9.066 -2.1558 -2.1219  0.7370
  475MOL0     H64105   1.492   3.024   9.921  1.6414  0.9151  1.8174
  475MOL0     H64106   1.423   2.776   9.962 -2.2008  0.1537 -1.8322
  475MOL0     H64107   1.757   2.479  10.280 -3.8253  2.0287  0.8241
  475MOL0     H64108   1.745   2.252  10.375 -0.5393  0.3749  0.3335
  475MOL0     H64109   0.144   1.507   9.983 -2.9664 -1.0723 -1.0461
  475MOL0     H64110  -0.008   1.612   9.823 -0.1800  1.0240 -2.5490
  475MOL0     H64111  -0.261   1.584   9.681 -0.0966 -0.6687 -1.2292
  475MOL0     H64112  -0.481   1.669   9.680 -0.1979 -2.3605 -0.9958
  475MOL0     H64113  -0.597   1.849   9.721  0.3500  0.7565 -0.6853
  475MOL0     H64114  -0.712   1.774   9.610 -3.4032  1.1878  2.5369
  475MOL0     H64115  -0.810   1.964   9.725  2.3440 -1.7847  1.1497
  475MOL0     H64116  -0.790   2.005   9.549 -1.2272  0.8449  0.7494
  475MOL0     H64117  -0.577   2.138   9.615  0.6638 -2.4677 -1.0307
  475MOL0     H64118  -0.604   2.085   9.788  1.8346 -2.7822 -1.8174
  475MOL0     H64119  -0.821   2.199   9.787  1.3107 -2.3446 -0.1684
  475MOL0     H64120  -0.675   2.308   9.768  0.1927  1.3379 -2.7237
  475MOL0     H64121  -0.876   2.385   9.406 -2.1153  0.2336  0.3596
  475MOL0     H64122  -0.389   1.925   9.354  2.0183  2.0581  0.3210
  475MOL0     H64123  -0.154   1.712   9.241 -1.4448 -0.5844  0.5497
  475MOL0     H64124  -0.200   1.879   9.222  0.7510 -1.1148 -0.3515
  475MOL0     H64125  -0.048   1.831   9.305  0.1011  2.4138 -3.6937
  476MOL0     O64126   0.770   7.542   9.362  0.2892  0.3404 -0.5834
  476MOL0     C64127   0.667   7.522   9.304 -0.1566  0.2735  0.0382
  476MOL0     O64128   0.561   7.613   9.280 -0.6005 -0.0256  0.4729
  476MOL0     C64129   0.582   7.745   9.312  0.0965 -0.3824 -0.1329
  476MOL0     C64130   0.612   7.778   9.448 -0.3771 -1.2571 -0.0432
  476MOL0     C64131   0.648   7.901   9.498  0.2569 -0.0623  0.0344
  476MOL0     C64132   0.658   8.008   9.415 -0.7266  0.1254 -0.3201
  476MOL0     O64133   0.689   8.132   9.456  0.7565  0.1227  0.2545
  476MOL0     C64134   0.821   8.179   9.436  0.1097 -0.1434  0.7490
  476MOL0     C64135   0.826   8.331   9.444  0.1253 -0.0318 -0.9122
  476MOL0     C64136   0.741   8.386   9.337  0.4489 -0.1031  0.0373
  476MOL0     C64137   0.709   8.531   9.359  0.6770 -0.0909  0.9202
  476MOL0     C64138   0.641   8.601   9.246  0.2581  0.1440  0.3136
  476MOL0     C64139   0.505   8.537   9.205  0.4002 -0.1807  0.4089
  476MOL0     C64140   0.429   8.615   9.103  0.0285 -0.5130 -0.1430
  476MOL0     C64141   0.289   8.551   9.084 -0.4761  0.7329 -0.6780
  476MOL0     N64142   0.212   8.642   8.995 -0.1732  0.0049  0.0139
  476MOL0     C64143   0.191   8.603   8.868  0.1205  0.5641  0.2400
  476MOL0     C64144   0.148   8.714   8.814 -0.6467 -0.5807 -0.2345
  476MOL0     C64145   0.114   8.731   8.665 -0.1651 -0.0650  0.3364
  476MOL0     C64146   0.225   8.820   8.603 -0.1347  0.6693 -0.3651
  476MOL0     C64147   0.182   8.861   8.464  0.3910 -0.3690  0.6096
  476MOL0     C64148   0.187   8.747   8.368  0.4269 -1.1081  0.3723
  476MOL0     O64149   0.167   8.798   8.237 -0.1449  0.1909  0.9381
  476MOL0     C64150   0.172   8.729   8.118  0.2772  0.3833 -0.0008
  476MOL0     C64151   0.156   8.811   7.999  1.1181  0.4042 -0.2324
  476MOL0     C64152   0.151   8.751   7.869  0.6350 -0.8006 -1.0639
  476MOL0     C64153   0.182   8.615   7.851  0.1932  0.1711 -0.2732
  476MOL0     C64154   0.172   8.551   7.716  0.4538 -0.2684  0.1916
  476MOL0     O64155   0.120   8.616   7.617  1.1342 -0.3893 -0.8136
  476MOL0     C64156   0.123   8.576   7.487  0.7581 -0.0751 -0.0502
  476MOL0     C64157   0.227   8.507   7.423 -0.9804  0.0718  0.8322
  476MOL0     C64158   0.209   8.480   7.283  0.2362  0.6215  0.4781
  476MOL0     C64159   0.089   8.518   7.211 -0.8835  1.1034 -0.1574
  476MOL0     O64160   0.101   8.479   7.079  0.1213  0.4925  0.3384
  476MOL0     C64161  -0.024   8.471   6.999  0.2052 -1.0374  0.4215
  476MOL0     C64162  -0.005   8.421   6.854 -0.6398 -0.0038  0.8185
  476MOL0     C64163   0.050   8.530   6.761 -0.1945 -0.3038 -0.6476
  476MOL0     C64164   0.047   8.489   6.616 -0.7168  0.3487  0.0030
  476MOL0     C64165   0.076   8.598   6.519 -0.4782 -0.4229  1.4587
  476MOL0     C64166   0.224   8.625   6.497  0.3327  0.0186  1.0225
  476MOL0     C64167   0.313   8.509   6.443  0.9285  0.1660  0.0202
  476MOL0     C64168   0.418   8.552   6.352  0.5186  0.0338  0.2785
  476MOL0    Cl64169   0.495   8.416   6.276  0.3755 -0.0360  0.2379
  476MOL0     C64170   0.000   8.609   7.271 -0.3378 -0.3597 -0.4031
  476MOL0     C64171   0.016   8.631   7.412 -0.2090  0.3375 -0.0931
  476MOL0     O64172   0.215   8.433   7.714  0.4874 -0.2719  0.0655
  476MOL0     C64173   0.208   8.547   7.968  0.3559  0.3036 -0.1780
  476MOL0     C64174   0.199   8.598   8.094  1.1945  0.7134  0.0750
  476MOL0     N64175   0.149   8.825   8.905 -0.1185  0.7141  0.9513
  476MOL0     N64176   0.197   8.777   9.005 -0.4571  0.8965  0.1590
  476MOL0     C64177   0.642   7.984   9.277 -0.3270 -0.5173  0.9990
  476MOL0     C64178   0.598   7.858   9.229 -0.9402  0.3114 -0.0617
  476MOL0     C64179   0.643   7.375   9.280  0.6148 -0.5057  0.4850
  476MOL0     C64180   0.514   7.327   9.251 -0.5424 -0.6997 -0.0908
  476MOL0     C64181   0.487   7.193   9.224 -0.0511 -0.7333 -0.5650
  476MOL0     C64182   0.588   7.099   9.196 -0.6220 -0.7622 -0.7260
  476MOL0     O64183   0.544   6.979   9.161 -0.3207 -0.7159 -0.1216
  476MOL0     C64184   0.642   6.893   9.103  0.6210  0.0097 -0.4740
  476MOL0     C64185   0.697   6.797   9.210  1.0395 -0.5746  0.3156
  476MOL0     C64186   0.712   6.662   9.142  0.4741  0.5458  0.2712
  476MOL0     C64187   0.832   6.580   9.193  0.7713  0.3167  0.1113
  476MOL0     C64188   0.948   6.661   9.159  0.3166 -0.1992 -0.0474
  476MOL0     C64189   1.046   6.707   9.108  0.4861 -0.1441  0.4200
  476MOL0     C64190   0.722   7.144   9.211  0.6598  0.2942  0.3150
  476MOL0     C64191   0.745   7.280   9.256 -0.6714 -0.6246 -0.5734
  476MOL0     C64192   0.893   7.311   9.273 -0.0302 -0.9192 -0.4846
  476MOL0     H64193   0.628   7.696   9.517 -1.7260 -1.5834 -0.0941
  476MOL0     H64194   0.676   7.905   9.603  1.7942 -0.8100 -0.3228
  476MOL0     H64195   0.891   8.129   9.504 -0.8927 -2.5161  0.1527
  476MOL0     H64196   0.855   8.146   9.338 -0.2415 -0.3826  0.7023
  476MOL0     H64197   0.922   8.375   9.417 -0.6770  0.6901 -2.7537
  476MOL0     H64198   0.800   8.375   9.541 -4.7284  1.3217 -2.5245
  476MOL0     H64199   0.645   8.334   9.341  0.8770 -0.8415  0.8720
  476MOL0     H64200   0.784   8.362   9.239 -1.1785  0.7247 -0.9235
  476MOL0     H64201   0.643   8.556   9.442 -0.0758  0.5243  0.1497
  476MOL0     H64202   0.808   8.576   9.374  0.3983  1.3057 -1.0010
  476MOL0     H64203   0.629   8.708   9.261  3.6471  0.6998 -0.2154
  476MOL0     H64204   0.711   8.598   9.162  1.2962  1.3353  1.1052
  476MOL0     H64205   0.526   8.442   9.155 -1.2104 -0.4539  0.2235
  476MOL0     H64206   0.434   8.531   9.288  1.9189 -0.1579  1.7701
  476MOL0     H64207   0.482   8.617   9.007 -0.9674 -0.1679 -0.7021
  476MOL0     H64208   0.420   8.718   9.139  1.0853  0.8221 -3.3280
  476MOL0     H64209   0.298   8.457   9.028  1.2109  0.8389 -0.6457
  476MOL0     H64210   0.239   8.530   9.179 -0.0053  0.4585 -0.4832
  476MOL0     H64211   0.193   8.505   8.820  0.2160  1.5589 -1.8999
  476MOL0     H64212   0.109   8.637   8.610  2.3952  1.2139 -2.3924
  476MOL0     H64213   0.023   8.786   8.642  0.2682  0.5725  0.1044
  476MOL0     H64214   0.241   8.905   8.670 -0.6437  0.0838  0.5237
  476MOL0     H64215   0.315   8.759   8.606 -0.8641 -0.4005  0.1569
  476MOL0     H64216   0.242   8.944   8.427  1.8226 -0.7514  1.9468
  476MOL0     H64217   0.081   8.904   8.460 -0.1480 -1.6952 -1.8539
  476MOL0     H64218   0.111   8.677   8.403 -0.7934  0.3708  0.8274
  476MOL0     H64219   0.288   8.705   8.380  1.6263  1.3911 -0.2594
  476MOL0     H64220   0.139   8.918   8.011  0.4345 -0.0239  5.3118
  476MOL0     H64221   0.119   8.817   7.788 -2.5660  0.3800  0.9899
  476MOL0     H64222   0.308   8.485   7.492  3.2156  0.6553 -3.3313
  476MOL0     H64223   0.281   8.423   7.226  2.0277  3.0748  0.1738
  476MOL0     H64224  -0.090   8.395   7.044 -2.7742 -0.0113 -1.8541
  476MOL0     H64225  -0.073   8.569   6.996  2.1744 -0.0271 -1.2787
  476MOL0     H64226   0.057   8.332   6.852 -0.5304  0.0802  0.1119
  476MOL0     H64227  -0.101   8.389   6.813 -0.1231 -0.3809 -0.1182
  476MOL0     H64228  -0.011   8.619   6.777  0.8369  0.0410  1.7878
  476MOL0     H64229   0.150   8.564   6.788 -0.8363  0.9561  0.1988
  476MOL0     H64230  -0.052   8.450   6.590 -0.2809 -1.6589  1.1580
  476MOL0     H64231   0.114   8.404   6.602 -2.6388 -1.3575  0.6577
  476MOL0     H64232   0.030   8.688   6.560  0.7763  1.2125 -0.5194
  476MOL0     H64233   0.023   8.579   6.425  0.6066 -2.9591  1.2719
  476MOL0     H64234   0.236   8.708   6.426  2.9221 -0.9829  0.1341
  476MOL0     H64235   0.269   8.661   6.590  1.3621  1.9018 -0.1357
  476MOL0     H64236   0.240   8.452   6.385  0.9646  0.8232 -0.6851
  476MOL0     H64237   0.353   8.456   6.530 -0.7028  0.3655  0.9178
  476MOL0     H64238   0.366   8.615   6.278  0.1166  0.9570  1.3268
  476MOL0     H64239   0.488   8.617   6.406  1.0184  0.2657 -0.6193
  476MOL0     H64240  -0.086   8.652   7.221 -0.5811  0.7554  0.9126
  476MOL0     H64241  -0.049   8.695   7.472 -1.2238 -0.6398 -0.1179
  476MOL0     H64242   0.245   8.446   7.956  0.4896  0.4635 -1.1834
  476MOL0     H64243   0.211   8.535   8.182  2.0157  2.0035  0.9073
  476MOL0     H64244   0.655   8.070   9.213 -0.0548 -1.2866 -0.0044
  476MOL0     H64245   0.561   7.855   9.127 -3.6298  2.5676  0.6894
  476MOL0     H64246   0.444   7.409   9.260  0.6787  0.1489  2.3829
  476MOL0     H64247   0.381   7.175   9.207 -0.6882  1.8580  0.2419
  476MOL0     H64248   0.718   6.940   9.040 -1.0515  0.6908 -2.0769
  476MOL0     H64249   0.580   6.843   9.028 -0.8534  2.7168 -1.1796
  476MOL0     H64250   0.623   6.776   9.288 -0.7154 -2.6948 -1.7427
  476MOL0     H64251   0.790   6.831   9.257  1.4707 -2.3741  0.8299
  476MOL0     H64252   0.712   6.660   9.032 -0.9505 -2.0276  0.2458
  476MOL0     H64253   0.615   6.626   9.175 -0.9020  2.6053 -1.2449
  476MOL0     H64254   0.822   6.557   9.299 -0.1386  0.1693  0.0020
  476MOL0     H64255   0.839   6.485   9.139 -0.8392  0.3426 -0.2053
  476MOL0     H64256   1.127   6.742   9.047  1.2160  0.0181  1.4580
  476MOL0     H64257   0.813   7.086   9.201  0.5461 -0.3657  2.5027
  476MOL0     H64258   0.930   7.390   9.208 -0.7471  1.0377  1.3658
  476MOL0     H64259   0.919   7.346   9.373 -1.1011 -0.0784 -0.4863
  476MOL0     H64260   0.961   7.228   9.249  2.5131  1.6217 -2.8178
  477MOL0     O64261   9.575   8.074   5.803  0.0788 -0.0850  0.5758
  477MOL0     C64262   9.672   8.057   5.721  0.5968  0.2503 -0.1158
  477MOL0     O64263   9.662   7.988   5.609 -1.2361  1.1820  0.0187
  477MOL0     C64264   9.612   7.860   5.608 -0.7541 -0.4198 -0.3461
  477MOL0     C64265   9.691   7.756   5.571  0.8636  0.0472 -0.9008
  477MOL0     C64266   9.638   7.633   5.535  0.2346 -0.1729 -0.2048
  477MOL0     C64267   9.497   7.621   5.530  0.4971  0.1199  0.5367
  477MOL0     O64268   9.433   7.508   5.484 -0.4487 -0.1755  0.9245
  477MOL0     C64269   9.498   7.387   5.505  0.2232  0.1378 -0.0779
  477MOL0     C64270   9.387   7.292   5.542  0.2492  0.2492  0.1711
  477MOL0     C64271   9.438   7.140   5.566 -0.4363  0.4098 -0.6355
  477MOL0     C64272   9.327   7.045   5.610 -0.4323  0.4085 -0.5825
  477MOL0     C64273   9.360   6.923   5.701  0.3113  0.2344  0.2648
  477MOL0     C64274   9.431   6.799   5.638  0.0480 -0.1552 -0.3947
  477MOL0     C64275   9.453   6.680   5.727  1.1147  0.2255 -1.3907
  477MOL0     C64276   9.322   6.596   5.742  0.3721 -0.6337  0.4180
  477MOL0     N64277   9.362   6.457   5.778  0.4134  0.0950  0.2800
  477MOL0     C64278   9.384   6.353   5.695  0.8111  0.1722  0.3111
  477MOL0     C64279   9.449   6.263   5.777 -0.3660  0.8546 -0.1188
  477MOL0     C64280   9.524   6.142   5.729 -1.0074 -0.7848 -0.5229
  477MOL0     C64281   9.685   6.150   5.727  0.2499 -0.1610  0.5636
  477MOL0     C64282   9.754   6.258   5.657 -0.5066  0.2269  0.2479
  477MOL0     C64283   9.896   6.283   5.705  0.4162  0.9626  0.3390
  477MOL0     O64284   9.956   6.391   5.632 -0.3095  0.7786 -0.0772
  477MOL0     C64285   9.914   6.512   5.661  0.1303  0.2490  0.8933
  477MOL0     C64286   9.918   6.604   5.554  0.3031  0.4374  0.5389
  477MOL0     C64287   9.875   6.736   5.562  0.1888  0.6308 -0.2947
  477MOL0     C64288   9.843   6.788   5.687 -0.2583  0.3590 -0.1347
  477MOL0     C64289   9.804   6.933   5.705 -0.5537 -0.6770 -0.2651
  477MOL0     O64290   9.769   6.962   5.832  0.0764  0.0789  0.0078
  477MOL0     C64291   9.725   7.087   5.859  0.5192  0.0348 -0.1968
  477MOL0     C64292   9.779   7.207   5.798 -0.1958  1.4462 -0.2306
  477MOL0     C64293   9.724   7.328   5.831 -0.5671 -0.0022 -0.2427
  477MOL0     C64294   9.627   7.342   5.926  0.3969  0.3764 -0.4698
  477MOL0     O64295   9.573   7.455   5.970  0.5665 -0.6726 -0.3553
  477MOL0     C64296   9.547   7.563   5.881 -0.9078  0.3922  0.6882
  477MOL0     C64297   9.419   7.637   5.947 -0.3281  0.3082 -0.1722
  477MOL0     C64298   9.294   7.567   5.897  0.6271 -0.0062 -0.4686
  477MOL0     C64299   9.159   7.602   5.975 -0.8363  0.7370 -0.3088
  477MOL0     C64300   9.178   7.567   6.125  0.1825 -0.5243  1.4287
  477MOL0     C64301   9.241   7.425   6.155  0.0076  0.1016 -0.1620
  477MOL0     C64302   9.280   7.412   6.301 -0.3570 -0.1506  0.6516
  477MOL0     C64303   9.406   7.486   6.332 -0.0499 -0.2517  0.7973
  477MOL0    Cl64304   9.422   7.468   6.509 -0.5095  0.3764  0.2412
  477MOL0     C64305   9.565   7.230   5.980 -0.7312 -0.1047 -0.5618
  477MOL0     C64306   9.610   7.102   5.946  0.3237 -0.5256  0.0279
  477MOL0     O64307   9.813   7.012   5.612  0.2115 -0.2950  0.4820
  477MOL0     C64308   9.830   6.693   5.800  0.5862  1.3140  0.3095
  477MOL0     C64309   9.867   6.558   5.784 -0.5353 -0.3511 -0.2854
  477MOL0     N64310   9.463   6.317   5.902 -0.2581  0.9901 -0.6369
  477MOL0     N64311   9.401   6.422   5.904  0.2986 -0.6356 -0.9374
  477MOL0     C64312   9.411   7.723   5.564  0.4794 -0.2540 -0.3493
  477MOL0     C64313   9.472   7.840   5.605  0.1096  0.4151 -0.2616
  477MOL0     C64314   9.802   8.115   5.756 -0.4864  0.3711 -0.3506
  477MOL0     C64315   9.911   8.026   5.757  0.2029 -0.5369 -0.9983
  477MOL0     C64316  10.034   8.057   5.807 -0.3490 -0.4057 -0.9694
  477MOL0     C64317  10.060   8.188   5.849 -0.1794 -0.4701  0.6168
  477MOL0     O64318  10.178   8.207   5.910 -0.7421  0.9210  0.9702
  477MOL0     C64319  10.214   8.325   5.980  0.3695  0.0919 -0.1347
  477MOL0     C64320  10.356   8.329   6.044 -0.2527 -0.0094  0.3876
  477MOL0     C64321  10.391   8.193   6.121 -0.0412  1.1191  0.3016
  477MOL0     C64322  10.498   8.206   6.237  0.6681 -0.6209 -0.3987
  477MOL0     C64323  10.444   8.285   6.350  0.4129  0.9985 -0.5449
  477MOL0     C64324  10.381   8.352   6.432  0.0717 -0.1657 -0.6539
  477MOL0     C64325   9.953   8.284   5.843 -0.2713  0.3699  0.3108
  477MOL0     C64326   9.826   8.249   5.796 -0.1961  0.9770  0.2659
  477MOL0     C64327   9.719   8.353   5.801 -0.0518  0.2104  0.2953
  477MOL0     H64328   9.798   7.773   5.575  0.9520 -0.6133  1.7111
  477MOL0     H64329   9.693   7.544   5.506 -0.2464  0.1687 -2.3113
  477MOL0     H64330   9.549   7.357   5.413 -0.0172 -0.9139  0.1229
  477MOL0     H64331   9.565   7.387   5.591 -0.2241  2.1309  0.3253
  477MOL0     H64332   9.318   7.273   5.459  0.6594 -0.0987 -0.0977
  477MOL0     H64333   9.325   7.326   5.625 -1.0002 -2.3821  0.4403
  477MOL0     H64334   9.531   7.139   5.625  2.2019 -1.7769 -4.4280
  477MOL0     H64335   9.476   7.111   5.468  2.9890  1.0419  0.3688
  477MOL0     H64336   9.269   7.115   5.671 -1.0196  0.4580 -1.1907
  477MOL0     H64337   9.272   7.016   5.521 -2.0047  1.6553 -0.0516
  477MOL0     H64338   9.420   6.957   5.786  1.5835 -0.2318 -0.4182
  477MOL0     H64339   9.265   6.884   5.738  2.2905 -2.1221  3.4517
  477MOL0     H64340   9.378   6.764   5.549  1.1922 -1.6855 -0.5151
  477MOL0     H64341   9.530   6.826   5.599 -0.1227 -0.5614 -1.1118
  477MOL0     H64342   9.477   6.709   5.830 -1.6822 -3.5396  0.5632
  477MOL0     H64343   9.542   6.620   5.707  2.1628  0.8866  0.9035
  477MOL0     H64344   9.262   6.621   5.829  0.6070  0.0548  0.3896
  477MOL0     H64345   9.269   6.589   5.647 -2.6289 -0.1408  1.9503
  477MOL0     H64346   9.378   6.351   5.587  1.6117 -0.3179  0.2666
  477MOL0     H64347   9.499   6.066   5.804  2.1735  1.3936  3.1637
  477MOL0     H64348   9.494   6.114   5.628 -0.3170 -0.3482 -0.8551
  477MOL0     H64349   9.712   6.151   5.833  5.1331 -0.2485 -0.4202
  477MOL0     H64350   9.724   6.053   5.695  1.8872 -0.0024  1.9133
  477MOL0     H64351   9.692   6.346   5.678  0.8179  1.7568 -1.9041
  477MOL0     H64352   9.765   6.238   5.550  0.4238 -1.9527  0.6961
  477MOL0     H64353   9.960   6.198   5.681  0.1711  0.9496 -0.2821
  477MOL0     H64354   9.888   6.295   5.814 -0.6498  0.7832  0.2920
  477MOL0     H64355   9.957   6.572   5.458  3.1402 -0.2743  1.8190
  477MOL0     H64356   9.894   6.804   5.480 -0.8173  3.4780  1.6954
  477MOL0     H64357   9.862   7.207   5.728 -1.4054 -1.0809 -1.8131
  477MOL0     H64358   9.764   7.418   5.786 -2.8851  1.2459  0.0849
  477MOL0     H64359   9.631   7.632   5.869 -0.6471  0.1849  1.2799
  477MOL0     H64360   9.521   7.523   5.783  1.3185  2.2022 -0.7308
  477MOL0     H64361   9.435   7.661   6.052  0.4296 -3.8135  0.8266
  477MOL0     H64362   9.417   7.738   5.905 -1.7674 -0.7264 -2.9042
  477MOL0     H64363   9.282   7.583   5.790  1.5004  0.6591 -0.4815
  477MOL0     H64364   9.309   7.461   5.918  3.0792 -0.1016 -2.2091
  477MOL0     H64365   9.084   7.528   5.949  1.6268 -1.4635 -1.6223
  477MOL0     H64366   9.127   7.705   5.957  3.7350  2.4387 -0.0092
  477MOL0     H64367   9.076   7.569   6.163 -0.3376 -2.3988  0.2516
  477MOL0     H64368   9.237   7.641   6.181 -0.1954  0.0916  1.0280
  477MOL0     H64369   9.169   7.349   6.124  2.1053 -0.9360 -2.8945
  477MOL0     H64370   9.330   7.402   6.096 -1.6532 -1.0085 -2.3921
  477MOL0     H64371   9.305   7.309   6.329 -0.7733  0.0469  1.8016
  477MOL0     H64372   9.198   7.435   6.369  0.1511 -2.1588  2.0475
  477MOL0     H64373   9.491   7.452   6.273 -1.8288 -1.5149 -1.2174
  477MOL0     H64374   9.393   7.588   6.293  1.4186 -0.5001 -0.4236
  477MOL0     H64375   9.477   7.242   6.044  0.0824 -1.5828  0.9097
  477MOL0     H64376   9.570   7.011   5.989 -2.4045  0.0429 -1.0926
  477MOL0     H64377   9.800   6.726   5.899 -1.7442 -0.5288  0.3098
  477MOL0     H64378   9.855   6.482   5.861 -2.8573 -1.1729 -1.3670
  477MOL0     H64379   9.304   7.711   5.553  0.4590 -2.7476  1.5252
  477MOL0     H64380   9.402   7.917   5.636  0.0105 -0.0845  0.8476
  477MOL0     H64381   9.896   7.921   5.730 -1.2543 -0.7807  0.5850
  477MOL0     H64382  10.102   7.973   5.818 -3.9139 -3.3120  0.9240
  477MOL0     H64383  10.151   8.339   6.069  0.4828  0.5959 -0.1278
  477MOL0     H64384  10.209   8.413   5.916 -1.8625 -0.8715 -1.4031
  477MOL0     H64385  10.357   8.410   6.118  4.0318 -3.0880  4.2911
  477MOL0     H64386  10.442   8.342   5.978  2.4987 -0.6093  3.5687
  477MOL0     H64387  10.431   8.123   6.048 -1.1827 -0.1487  0.8567
  477MOL0     H64388  10.294   8.157   6.156 -0.0608  0.0478 -0.8137
  477MOL0     H64389  10.525   8.106   6.272 -0.4264  0.1000  2.7725
  477MOL0     H64390  10.591   8.249   6.201  0.4093  0.9348  0.7362
  477MOL0     H64391  10.346   8.423   6.503 -2.3859  0.6080 -2.5117
  477MOL0     H64392   9.966   8.384   5.883 -1.3232 -0.2873  2.4427
  477MOL0     H64393   9.622   8.316   5.766 -1.4572  1.2008  2.8451
  477MOL0     H64394   9.710   8.400   5.900  3.2719  1.1639  0.2605
  477MOL0     H64395   9.740   8.426   5.723 -3.8080  2.4636  1.1157
  478MOL0     O64396   0.854  10.996   6.063 -0.2615  0.1460  0.0316
  478MOL0     C64397   0.928  11.061   6.132  0.4613 -0.6115  0.1922
  478MOL0     O64398   1.027  11.141   6.091 -0.5099 -0.0978  0.5191
  478MOL0     C64399   1.035  11.180   5.961 -0.5244 -0.3518  0.1567
  478MOL0     C64400   1.168  11.198   5.911 -0.4460  0.9522  1.3066
  478MOL0     C64401   1.181  11.239   5.774 -0.4396  0.3030  0.6366
  478MOL0     C64402   1.069  11.287   5.704 -0.6998 -0.8744 -0.1030
  478MOL0     O64403   1.091  11.349   5.584  0.6019 -0.2918 -0.1262
  478MOL0     C64404   0.992  11.399   5.501  0.1919 -1.1965  0.4829
  478MOL0     C64405   0.912  11.296   5.435  0.2121 -1.2999 -0.2878
  478MOL0     C64406   1.016  11.231   5.350  0.5310  0.5524  0.8764
  478MOL0     C64407   0.953  11.119   5.271 -0.4499 -0.7259 -0.8625
  478MOL0     C64408   0.889  11.185   5.142  0.7021  0.4429 -0.7870
  478MOL0     C64409   0.867  11.081   5.030  0.2580  0.1105  0.0868
  478MOL0     C64410   0.791  11.151   4.909  0.3161 -0.1968 -0.1062
  478MOL0     C64411   0.865  11.278   4.844  0.0381  0.0731  0.2191
  478MOL0     N64412   0.995  11.239   4.795  0.0306  0.0711 -0.0446
  478MOL0     C64413   1.013  11.127   4.721 -0.0969  0.0683 -0.6253
  478MOL0     C64414   1.144  11.134   4.698 -0.1895  0.0281  0.2249
  478MOL0     C64415   1.229  11.029   4.624 -0.0282 -0.0168  1.1467
  478MOL0     C64416   1.184  10.880   4.656 -0.6406 -0.4582  0.4805
  478MOL0     C64417   1.243  10.809   4.788  0.6706  0.3611 -0.0362
  478MOL0     C64418   1.252  10.899   4.904 -0.0885  0.4835 -0.1693
  478MOL0     O64419   1.343  10.848   4.999 -0.8128  0.0181  0.6762
  478MOL0     C64420   1.376  10.933   5.106  1.1414 -0.0508  0.2656
  478MOL0     C64421   1.385  10.870   5.229 -0.0177  0.2723  0.4404
  478MOL0     C64422   1.400  10.935   5.348  0.3083 -0.9132 -0.3949
  478MOL0     C64423   1.415  11.076   5.341 -0.3873  0.4074 -1.0367
  478MOL0     C64424   1.428  11.142   5.472  0.5071  0.2389  0.4623
  478MOL0     O64425   1.476  11.267   5.470  0.3240 -0.3591 -0.5318
  478MOL0     C64426   1.490  11.335   5.587 -0.0996 -0.0905 -0.4363
  478MOL0     C64427   1.409  11.445   5.616  0.2226 -0.1687 -0.7775
  478MOL0     C64428   1.417  11.524   5.734 -0.2474 -0.3290  0.3670
  478MOL0     C64429   1.521  11.500   5.814 -0.9109  1.0605  0.1207
  478MOL0     O64430   1.541  11.596   5.915 -0.6872  0.2653 -0.1456
  478MOL0     C64431   1.676  11.616   5.951 -0.1319  0.4066  0.6567
  478MOL0     C64432   1.677  11.762   6.008  0.2873 -0.8906 -0.1501
  478MOL0     C64433   1.606  11.800   6.141 -0.3158 -0.7979 -0.6751
  478MOL0     C64434   1.630  11.713   6.267  0.5298 -0.5861  0.4114
  478MOL0     C64435   1.536  11.766   6.380 -0.4662 -0.7185 -0.4759
  478MOL0     C64436   1.572  11.695   6.512 -0.6249 -0.0134  0.3775
  478MOL0     C64437   1.492  11.743   6.636 -0.1264  0.1698  0.1434
  478MOL0     C64438   1.506  11.645   6.745 -0.2745 -0.0827 -0.2262
  478MOL0    Cl64439   1.676  11.662   6.812 -0.0040 -0.0160  0.4686
  478MOL0     C64440   1.613  11.391   5.789  0.1276  0.3536 -0.3123
  478MOL0     C64441   1.592  11.310   5.675 -0.5837 -0.4176 -0.5328
  478MOL0     O64442   1.385  11.085   5.564  0.2256  0.2750 -0.1143
  478MOL0     C64443   1.423  11.141   5.217  0.7886 -0.7587  0.7810
  478MOL0     C64444   1.400  11.070   5.097  0.2224 -0.9878  0.3401
  478MOL0     N64445   1.199  11.248   4.748 -0.0560 -0.0945  0.6619
  478MOL0     N64446   1.109  11.306   4.813  0.0775 -0.5555  0.5870
  478MOL0     C64447   0.938  11.282   5.765 -0.1403  0.4712  0.9891
  478MOL0     C64448   0.924  11.219   5.888  0.6901  0.3158 -0.2336
  478MOL0     C64449   0.921  11.056   6.276 -0.4062 -0.3972 -0.5072
  478MOL0     C64450   1.011  11.130   6.362 -0.0578  0.0484  0.0341
  478MOL0     C64451   0.999  11.128   6.505 -0.0334  0.4739  0.2308
  478MOL0     C64452   0.913  11.045   6.563 -0.2233 -0.5106 -0.7780
  478MOL0     O64453   0.901  11.044   6.696 -0.1492 -0.1267  0.1793
  478MOL0     C64454   0.787  11.113   6.751 -0.0732  1.0264  0.2150
  478MOL0     C64455   0.756  11.041   6.885 -0.5103  0.1285 -1.1099
  478MOL0     C64456   0.774  10.887   6.873  0.6349 -0.1178 -0.8338
  478MOL0     C64457   0.724  10.815   6.995 -0.6732 -0.0631 -0.5533
  478MOL0     C64458   0.797  10.855   7.114 -0.2315 -0.6013 -0.2150
  478MOL0     C64459   0.868  10.858   7.208  0.9644 -0.5769 -0.2758
  478MOL0     C64460   0.820  10.970   6.489  0.4738  0.6123  0.5109
  478MOL0     C64461   0.831  10.974   6.352  0.2777 -0.2754  1.2178
  478MOL0     C64462   0.729  10.892   6.282  0.2066 -0.3499 -0.1603
  478MOL0     H64463   1.263  11.182   5.960 -0.2752  0.8506  0.9430
  478MOL0     H64464   1.281  11.245   5.731 -0.5696 -0.0267  0.2776
  478MOL0     H64465   0.919  11.456   5.560  0.6849  0.4480 -0.4274
  478MOL0     H64466   1.040  11.466   5.429  2.0166 -2.9287 -0.0035
  478MOL0     H64467   0.831  11.348   5.383  1.6819  3.0461  1.2554
  478MOL0     H64468   0.858  11.228   5.502  0.8338 -2.3659 -0.8508
  478MOL0     H64469   1.102  11.187   5.402  2.0294 -0.1228 -1.9898
  478MOL0     H64470   1.059  11.301   5.279 -1.2019 -0.1345 -0.9328
  478MOL0     H64471   1.031  11.046   5.244 -0.6455 -1.2986  0.0878
  478MOL0     H64472   0.882  11.066   5.335  1.1419 -0.3173  1.3735
  478MOL0     H64473   0.806  11.248   5.173  1.3286 -0.0480  2.2318
  478MOL0     H64474   0.948  11.265   5.096 -4.2114  4.3611 -1.1160
  478MOL0     H64475   0.963  11.044   4.992  0.6174  1.9665 -0.8982
  478MOL0     H64476   0.816  10.985   5.047 -0.4492  0.4073 -0.2976
  478MOL0     H64477   0.695  11.189   4.943 -0.9816 -4.2894  1.4254
  478MOL0     H64478   0.768  11.069   4.840 -0.8299 -0.1784  0.2365
  478MOL0     H64479   0.810  11.307   4.754  0.5897 -1.6644 -0.7068
  478MOL0     H64480   0.871  11.360   4.917 -0.4508  1.9188 -1.6855
  478MOL0     H64481   0.944  11.049   4.689 -0.3893 -0.3731  1.0102
  478MOL0     H64482   1.207  11.056   4.520 -0.4539 -0.8011  1.0309
  478MOL0     H64483   1.337  11.048   4.629  0.3954 -1.8615 -0.1198
  478MOL0     H64484   1.076  10.863   4.656 -0.6753 -0.5463  2.5286
  478MOL0     H64485   1.224  10.827   4.569  1.7721  0.9886  0.6193
  478MOL0     H64486   1.348  10.787   4.765  0.5387  1.2356 -1.6126
  478MOL0     H64487   1.185  10.719   4.810  0.9502  0.2683  0.3339
  478MOL0     H64488   1.155  10.891   4.954  1.2896 -0.0530  2.6174
  478MOL0     H64489   1.263  11.003   4.874 -0.2272  0.4047 -0.4932
  478MOL0     H64490   1.372  10.762   5.226 -3.4696  0.6079 -0.8110
  478MOL0     H64491   1.405  10.879   5.441 -0.4097  0.6345  0.6055
  478MOL0     H64492   1.326  11.462   5.549 -1.1683  0.1451  0.9535
  478MOL0     H64493   1.343  11.599   5.759  0.2526  0.4765 -0.4952
  478MOL0     H64494   1.707  11.540   6.024 -1.3585  1.7111  2.6414
  478MOL0     H64495   1.740  11.620   5.863 -0.4758 -0.2616  0.3660
  478MOL0     H64496   1.782  11.790   6.020 -0.7200  4.1459 -0.8340
  478MOL0     H64497   1.633  11.823   5.928  0.0094 -1.1611 -0.2097
  478MOL0     H64498   1.625  11.905   6.166  0.9395 -1.1822  0.0535
  478MOL0     H64499   1.501  11.786   6.114 -0.3769 -4.2566  0.7926
  478MOL0     H64500   1.733  11.711   6.304  1.9689 -2.1188 -3.2324
  478MOL0     H64501   1.606  11.609   6.243 -2.9554 -0.1198  1.3495
  478MOL0     H64502   1.431  11.753   6.352 -0.4826  0.9926 -1.3681
  478MOL0     H64503   1.562  11.869   6.406  1.5000 -1.4497  0.6874
  478MOL0     H64504   1.570  11.585   6.515  2.7535 -0.1680  4.1087
  478MOL0     H64505   1.678  11.713   6.528 -0.5292 -0.3732  0.1606
  478MOL0     H64506   1.390  11.762   6.601 -0.2300 -2.5452 -1.3257
  478MOL0     H64507   1.528  11.837   6.677  3.4419 -1.5516  1.3914
  478MOL0     H64508   1.440  11.666   6.830  1.8506 -1.0828  1.7981
  478MOL0     H64509   1.482  11.542   6.717 -0.5498  0.0259 -0.3913
  478MOL0     H64510   1.702  11.363   5.844  2.1292  1.1298 -2.9251
  478MOL0     H64511   1.653  11.222   5.658  1.2052 -0.3763  4.1488
  478MOL0     H64512   1.431  11.249   5.209 -2.8011 -0.3329  1.1577
  478MOL0     H64513   1.399  11.119   5.001 -1.3126  0.2040  0.9271
  478MOL0     H64514   0.855  11.328   5.712 -1.6472 -1.1857  1.8251
  478MOL0     H64515   0.823  11.205   5.924  0.9338  1.5722  1.0101
  478MOL0     H64516   1.072  11.210   6.322 -0.5604  0.7227  0.5856
  478MOL0     H64517   1.071  11.181   6.567  0.4205 -0.1882  0.2827
  478MOL0     H64518   0.698  11.124   6.688 -1.8516  4.5971  2.9966
  478MOL0     H64519   0.815  11.215   6.778 -0.5039  0.7417  1.8291
  478MOL0     H64520   0.652  11.065   6.909 -0.3250  0.1706 -0.3516
  478MOL0     H64521   0.829  11.083   6.955  0.2666  2.5783 -3.1965
  478MOL0     H64522   0.879  10.865   6.855  0.4731 -0.1472 -1.7913
  478MOL0     H64523   0.718  10.859   6.783 -0.4066  3.2139 -1.3572
  478MOL0     H64524   0.619  10.844   7.007  0.1965  2.4063  2.7622
  478MOL0     H64525   0.729  10.706   6.987 -2.2222 -0.2519  0.6376
  478MOL0     H64526   0.928  10.864   7.297 -0.0127  1.7436  0.3172
  478MOL0     H64527   0.750  10.909   6.546  0.8819 -0.2959  0.0722
  478MOL0     H64528   0.667  10.942   6.207 -1.5299  2.3721  2.8798
  478MOL0     H64529   0.782  10.803   6.245  1.8319  1.6463 -3.0510
  478MOL0     H64530   0.653  10.863   6.355 -1.3823 -0.0517 -1.6280
  479MOL0     O64531   9.307   0.799   4.180 -1.0102  0.1791 -0.3663
  479MOL0     C64532   9.260   0.895   4.127 -1.6816  0.6787  0.1400
  479MOL0     O64533   9.274   0.926   3.986  0.2821  1.1842  0.4799
  479MOL0     C64534   9.365   0.852   3.914  0.1921 -0.1249  0.0585
  479MOL0     C64535   9.483   0.910   3.855  0.3380 -0.5074  0.5719
  479MOL0     C64536   9.573   0.840   3.776  1.4955  0.0432  0.3970
  479MOL0     C64537   9.549   0.706   3.745 -0.0663 -0.0138 -0.0496
  479MOL0     O64538   9.633   0.665   3.651  0.4796  0.1888  0.4744
  479MOL0     C64539   9.661   0.529   3.645 -0.1631  0.2460  0.4241
  479MOL0     C64540   9.727   0.487   3.511  0.2485  0.3239  0.6040
  479MOL0     C64541   9.833   0.587   3.487 -0.7149  0.3481  0.2045
  479MOL0     C64542   9.941   0.614   3.596  0.1613 -0.3848 -0.3028
  479MOL0     C64543  10.052   0.716   3.545 -0.8370  0.8455  0.5333
  479MOL0     C64544  10.001   0.855   3.526 -0.4603  0.8160 -0.1991
  479MOL0     C64545   9.978   0.933   3.648 -0.6724 -0.6857 -0.6041
  479MOL0     C64546  10.108   0.967   3.732  0.2385  0.5461  0.1838
  479MOL0     N64547  10.231   1.003   3.656  0.9151 -0.9413  0.3004
  479MOL0     C64548  10.236   1.082   3.547  0.2699 -0.0401 -0.5858
  479MOL0     C64549  10.358   1.108   3.521  0.0185  0.0054  0.5890
  479MOL0     C64550  10.408   1.217   3.433 -1.0784 -0.7064 -0.5150
  479MOL0     C64551  10.480   1.171   3.294 -0.6596 -0.1416  0.0549
  479MOL0     C64552  10.368   1.165   3.181  0.4508 -0.2691  0.4349
  479MOL0     C64553  10.265   1.042   3.189  0.9923 -0.1788 -0.1517
  479MOL0     O64554  10.187   1.045   3.064 -0.1384 -0.3133 -0.5520
  479MOL0     C64555  10.243   0.998   2.953 -0.1705  1.5057  1.6057
  479MOL0     C64556  10.304   0.863   2.947 -0.7708 -0.6463 -0.5460
  479MOL0     C64557  10.352   0.821   2.828 -0.1219 -0.5189  0.5892
  479MOL0     C64558  10.372   0.901   2.718  0.1151  0.0015  0.0897
  479MOL0     C64559  10.447   0.842   2.612 -0.0278 -0.1325  0.0814
  479MOL0     O64560  10.567   0.785   2.660  0.0742  0.3625  0.2728
  479MOL0     C64561  10.681   0.802   2.582 -0.2179 -0.4914  0.0446
  479MOL0     C64562  10.764   0.907   2.612 -1.0564 -0.4567  0.3177
  479MOL0     C64563  10.879   0.917   2.529 -0.4619 -0.9362  0.2717
  479MOL0     C64564  10.919   0.812   2.442 -0.1439 -0.5354 -1.3971
  479MOL0     O64565  11.048   0.816   2.390 -0.3899  0.0901  0.3400
  479MOL0     C64566  11.066   0.782   2.247 -0.1446  0.3162  0.5355
  479MOL0     C64567  11.146   0.886   2.164  0.0242  0.0410  0.0966
  479MOL0     C64568  11.073   1.021   2.185 -0.2609 -1.6740 -0.1085
  479MOL0     C64569  11.150   1.133   2.276  0.2125  0.3138  0.1112
  479MOL0     C64570  11.051   1.247   2.297 -0.8184 -0.1913 -1.4560
  479MOL0     C64571  11.108   1.376   2.366 -0.2721 -0.0526 -0.8637
  479MOL0     C64572  11.098   1.374   2.521  0.7120 -0.0156 -0.3522
  479MOL0     C64573  11.206   1.452   2.594  0.3756  0.3360 -0.6680
  479MOL0    Cl64574  11.220   1.617   2.525 -0.1752  0.1503  0.5890
  479MOL0     C64575  10.832   0.711   2.419  0.2984  0.4239 -0.7070
  479MOL0     C64576  10.713   0.708   2.491  0.6522 -0.9330  0.2547
  479MOL0     O64577  10.422   0.871   2.497  0.1875 -0.6569  0.2028
  479MOL0     C64578  10.316   1.031   2.723  0.3708  0.2411  0.1473
  479MOL0     C64579  10.245   1.075   2.837  0.6713  0.0545 -0.2774
  479MOL0     N64580  10.437   1.021   3.599 -0.3747  1.0190 -0.0600
  479MOL0     N64581  10.356   0.967   3.679 -0.5447  0.1578 -0.0952
  479MOL0     C64582   9.426   0.642   3.779 -0.1558 -0.5774  0.3716
  479MOL0     C64583   9.343   0.717   3.873  0.4088 -0.7941 -0.5297
  479MOL0     C64584   9.185   0.994   4.211 -0.0644 -0.3674  0.5667
  479MOL0     C64585   9.071   1.050   4.154 -0.1450 -0.2358  0.0965
  479MOL0     C64586   8.988   1.126   4.223  0.0458  0.3203 -0.5126
  479MOL0     C64587   9.002   1.139   4.366  0.7891 -0.3993  0.2071
  479MOL0     O64588   8.911   1.210   4.452 -0.0167  0.5834 -0.0346
  479MOL0     C64589   8.787   1.245   4.394  0.1916 -0.0714 -0.0575
  479MOL0     C64590   8.677   1.300   4.488 -1.0452  0.2777  1.0443
  479MOL0     C64591   8.735   1.414   4.573  0.2712  0.4711  0.8558
  479MOL0     C64592   8.631   1.480   4.660  0.6672 -0.7836  0.0567
  479MOL0     C64593   8.587   1.401   4.777  0.0152  0.3507 -0.1818
  479MOL0     C64594   8.549   1.343   4.883 -0.7919 -0.0741  0.1049
  479MOL0     C64595   9.123   1.098   4.416  0.0361  0.4891 -0.4139
  479MOL0     C64596   9.219   1.019   4.352  0.3570 -0.3322  0.3964
  479MOL0     C64597   9.335   0.966   4.423  0.0125  0.4541 -0.1925
  479MOL0     H64598   9.503   1.014   3.877 -1.3848 -0.3590  1.6487
  479MOL0     H64599   9.663   0.895   3.751  1.5117 -0.2595 -0.2280
  479MOL0     H64600   9.731   0.500   3.724 -1.8940  1.6287  2.5776
  479MOL0     H64601   9.570   0.476   3.675  0.0736 -0.4192 -0.0080
  479MOL0     H64602   9.649   0.491   3.434  1.0763 -0.0394 -0.2720
  479MOL0     H64603   9.777   0.391   3.521 -1.8391 -0.6578  2.4501
  479MOL0     H64604   9.790   0.682   3.452 -0.2249  0.8900  1.0291
  479MOL0     H64605   9.884   0.559   3.395 -2.7697 -4.3247  0.2220
  479MOL0     H64606   9.890   0.657   3.682  0.8343  1.2160 -0.6657
  479MOL0     H64607   9.988   0.517   3.613  0.7063  0.1915  1.6966
  479MOL0     H64608  10.128   0.721   3.624 -1.5172  1.5339  1.1682
  479MOL0     H64609  10.097   0.685   3.450 -3.9090  1.0200 -1.1034
  479MOL0     H64610  10.067   0.912   3.459 -0.9528 -1.0559 -2.4108
  479MOL0     H64611   9.905   0.839   3.476 -0.7415  1.1267  0.2394
  479MOL0     H64612   9.908   0.883   3.717 -1.6057  0.9640 -0.3118
  479MOL0     H64613   9.937   1.031   3.625  0.0945  0.1207  1.2436
  479MOL0     H64614  10.082   1.055   3.793 -3.9437 -0.4383  0.1398
  479MOL0     H64615  10.132   0.884   3.799 -2.5458  0.8737  1.7849
  479MOL0     H64616  10.151   1.139   3.512 -2.1789 -0.9937  3.1876
  479MOL0     H64617  10.331   1.288   3.401 -0.1605  1.4723  1.7716
  479MOL0     H64618  10.478   1.275   3.495  0.3233 -1.6744 -1.1556
  479MOL0     H64619  10.561   1.241   3.270  1.3941 -2.8076 -1.3969
  479MOL0     H64620  10.536   1.078   3.287 -0.7403 -0.1281 -0.8473
  479MOL0     H64621  10.426   1.153   3.089  2.9003  0.2568  1.8119
  479MOL0     H64622  10.311   1.258   3.173  0.1026 -0.5510 -0.5311
  479MOL0     H64623  10.196   1.062   3.272  0.3947 -1.1948 -0.3781
  479MOL0     H64624  10.306   0.942   3.204  1.9498  0.5348  2.4234
  479MOL0     H64625  10.313   0.787   3.024 -0.5319  1.5613  1.7514
  479MOL0     H64626  10.376   0.715   2.836  0.0351 -0.5695 -0.4596
  479MOL0     H64627  10.744   0.980   2.691  0.6295  0.9278 -0.4630
  479MOL0     H64628  10.959   0.986   2.552  1.2397 -0.6990 -5.0742
  479MOL0     H64629  11.113   0.687   2.221 -0.7079  0.3148 -0.5560
  479MOL0     H64630  10.966   0.779   2.202  0.5292  2.4278 -1.2569
  479MOL0     H64631  11.249   0.908   2.191  0.5366 -1.7176 -0.3184
  479MOL0     H64632  11.144   0.864   2.057 -1.1250  3.9408 -0.8396
  479MOL0     H64633  11.070   1.060   2.082  0.6477  0.1088  0.4899
  479MOL0     H64634  10.966   1.011   2.206  0.0877 -0.0584  2.9413
  479MOL0     H64635  11.238   1.179   2.230 -0.0935  0.3468 -0.4468
  479MOL0     H64636  11.176   1.078   2.367 -0.7155  0.1036  0.2656
  479MOL0     H64637  10.969   1.216   2.363 -0.7118 -0.5561 -1.4950
  479MOL0     H64638  11.005   1.267   2.200 -1.5217 -1.9714 -1.5150
  479MOL0     H64639  11.213   1.389   2.339  0.5730 -3.5324  0.2407
  479MOL0     H64640  11.047   1.461   2.335  1.5365  1.1314 -1.3328
  479MOL0     H64641  11.099   1.274   2.566  1.9733  0.9655  1.9745
  479MOL0     H64642  10.999   1.411   2.547 -1.2854 -4.0974 -1.3147
  479MOL0     H64643  11.192   1.464   2.702  2.7676  1.8625 -0.4634
  479MOL0     H64644  11.305   1.406   2.588  1.7470  2.8778  0.5285
  479MOL0     H64645  10.862   0.629   2.356 -1.2937 -0.2401 -0.6619
  479MOL0     H64646  10.642   0.628   2.469 -0.9759  0.9983 -2.0037
  479MOL0     H64647  10.328   1.091   2.634 -0.8210  0.8861  0.4004
  479MOL0     H64648  10.178   1.160   2.824  2.4313  1.6328  0.4666
  479MOL0     H64649   9.397   0.545   3.739 -0.5528  0.1746 -1.2533
  479MOL0     H64650   9.266   0.656   3.920  1.4838  0.8269  3.8280
  479MOL0     H64651   9.044   1.023   4.053  2.1681  1.0477 -0.9375
  479MOL0     H64652   8.905   1.170   4.168 -0.3639 -0.9232 -0.9298
  479MOL0     H64653   8.743   1.158   4.344  0.7130  0.1442 -0.9090
  479MOL0     H64654   8.796   1.309   4.306 -2.0331  1.9048  1.0611
  479MOL0     H64655   8.639   1.220   4.552 -0.8336 -0.8035 -0.1341
  479MOL0     H64656   8.595   1.342   4.429 -1.4141 -0.0916  1.2884
  479MOL0     H64657   8.778   1.497   4.517 -3.2931  1.3431 -0.8701
  479MOL0     H64658   8.810   1.376   4.643  0.4762  0.4757  0.6402
  479MOL0     H64659   8.679   1.576   4.684  2.2739 -0.3210 -4.2222
  479MOL0     H64660   8.539   1.505   4.606  0.7515  0.2929  0.3728
  479MOL0     H64661   8.538   1.295   4.979  1.9242 -4.0655 -1.3080
  479MOL0     H64662   9.149   1.124   4.518 -0.0298 -1.6648  0.2003
  479MOL0     H64663   9.321   0.873   4.478 -1.1099  1.4763  1.3546
  479MOL0     H64664   9.419   0.951   4.355  0.3940  4.6814 -0.9107
  479MOL0     H64665   9.372   1.026   4.507  0.2371 -0.5949  0.4707
  480MOL0     O64666   1.744   1.358   0.692 -0.6117 -0.7980  0.8546
  480MOL0     C64667   1.626   1.335   0.713  0.0251  0.7770 -0.9129
  480MOL0     O64668   1.526   1.413   0.674 -0.2911 -0.0532  0.6557
  480MOL0     C64669   1.546   1.490   0.556 -0.7384  0.9998  0.0878
  480MOL0     C64670   1.629   1.460   0.446  0.0628  0.0357  0.5558
  480MOL0     C64671   1.651   1.555   0.343  0.1266  0.5554  0.6432
  480MOL0     C64672   1.603   1.687   0.355 -0.6535  0.1706 -1.5561
  480MOL0     O64673   1.633   1.766   0.251  0.2880  0.1692 -0.5160
  480MOL0     C64674   1.562   1.890   0.234 -0.3702  0.5206 -0.6733
  480MOL0     C64675   1.641   1.979   0.138 -0.4069  0.0514 -0.2070
  480MOL0     C64676   1.566   2.099   0.086 -0.4224 -0.3993  0.2852
  480MOL0     C64677   1.488   2.195   0.177 -0.7646 -0.6894 -0.0215
  480MOL0     C64678   1.404   2.305   0.105  0.0686  0.5856  0.5904
  480MOL0     C64679   1.491   2.380   0.012  0.7896 -0.6313  0.5022
  480MOL0     C64680   1.416   2.512  -0.035 -0.1892  0.7794 -0.8352
  480MOL0     C64681   1.312   2.497  -0.138  0.7462 -0.3638  0.2232
  480MOL0     N64682   1.260   2.622  -0.194  0.0891 -0.0697  0.0763
  480MOL0     C64683   1.150   2.615  -0.279  0.2598 -0.3728 -0.4081
  480MOL0     C64684   1.144   2.742  -0.324  0.1915 -1.0056 -0.6011
  480MOL0     C64685   1.053   2.803  -0.434  0.1443 -0.2274  0.0458
  480MOL0     C64686   1.080   2.951  -0.457  0.5849  0.0988 -0.0045
  480MOL0     C64687   0.959   3.014  -0.528 -0.1342  0.1080 -0.3281
  480MOL0     C64688   0.977   3.163  -0.552  0.3139  0.0525 -0.0534
  480MOL0     O64689   0.858   3.219  -0.602  0.0805 -0.6216  0.7364
  480MOL0     C64690   0.838   3.223  -0.737  0.7660  0.5426  0.2321
  480MOL0     C64691   0.713   3.280  -0.774 -0.0194  1.0765 -0.3578
  480MOL0     C64692   0.677   3.295  -0.903 -0.1010 -0.0054 -0.7193
  480MOL0     C64693   0.764   3.244  -1.007 -0.9119  0.0371 -1.0108
  480MOL0     C64694   0.727   3.279  -1.142  0.0788 -0.4241 -0.3177
  480MOL0     O64695   0.594   3.310  -1.176  0.3865 -0.6682 -0.0634
  480MOL0     C64696   0.589   3.335  -1.311 -0.2095 -0.2292 -0.0115
  480MOL0     C64697   0.560   3.460  -1.360  0.0062  0.7636  0.6198
  480MOL0     C64698   0.552   3.495  -1.494 -0.8208 -0.0931 -0.2022
  480MOL0     C64699   0.580   3.403  -1.589 -0.1151  0.7791  0.2798
  480MOL0     O64700   0.571   3.437  -1.726 -0.0119  0.5365 -0.1535
  480MOL0     C64701   0.581   3.345  -1.831  0.6235 -0.5090  0.0606
  480MOL0     C64702   0.543   3.438  -1.951  0.1050  0.2520 -0.7078
  480MOL0     C64703   0.555   3.349  -2.066  0.3346 -0.5391  0.5692
  480MOL0     C64704   0.535   3.437  -2.203  0.2160  0.0861  0.2506
  480MOL0     C64705   0.555   3.368  -2.342 -0.3818 -0.0246 -1.0196
  480MOL0     C64706   0.693   3.301  -2.347  0.1998  0.9676  0.0627
  480MOL0     C64707   0.723   3.272  -2.498 -0.1751 -0.9131 -0.6405
  480MOL0     C64708   0.866   3.222  -2.512 -0.5786  0.7492 -0.1228
  480MOL0    Cl64709   0.882   3.044  -2.458  0.0214  0.0558 -0.6064
  480MOL0     C64710   0.596   3.267  -1.545 -0.1724 -0.5152 -0.3298
  480MOL0     C64711   0.604   3.234  -1.406 -0.0404 -0.6311  0.3428
  480MOL0     O64712   0.819   3.277  -1.225  0.0642  0.3168 -0.1619
  480MOL0     C64713   0.877   3.168  -0.966  1.6059  0.5063 -0.1308
  480MOL0     C64714   0.913   3.161  -0.833 -0.2953 -0.5252 -0.1346
  480MOL0     N64715   1.253   2.812  -0.280 -0.0953 -0.1621  0.0893
  480MOL0     N64716   1.328   2.738  -0.205 -0.1153 -0.3884  0.0428
  480MOL0     C64717   1.510   1.714   0.471 -0.5090  0.3437  0.2599
  480MOL0     C64718   1.485   1.614   0.563  0.5247  0.5325  0.5884
  480MOL0     C64719   1.591   1.206   0.791 -0.6707 -0.0997  0.3674
  480MOL0     C64720   1.688   1.144   0.878  0.0483  0.0441 -0.2055
  480MOL0     C64721   1.659   1.039   0.960  0.8728  0.4524  0.2147
  480MOL0     C64722   1.528   0.974   0.957  1.3948 -0.3761 -0.1505
  480MOL0     O64723   1.496   0.873   1.043 -0.6098 -0.2933  0.2419
  480MOL0     C64724   1.591   0.831   1.138 -0.5862  0.5025  0.4010
  480MOL0     C64725   1.549   0.703   1.209  0.2532  0.7277  0.1003
  480MOL0     C64726   1.447   0.710   1.314  0.1388  0.0891  0.2783
  480MOL0     C64727   1.389   0.577   1.347  0.3867 -0.3682  0.8218
  480MOL0     C64728   1.494   0.488   1.394 -1.0518  0.4685 -0.2853
  480MOL0     C64729   1.595   0.424   1.424 -0.0334  0.2272 -0.7757
  480MOL0     C64730   1.432   1.028   0.865 -0.0087  0.1355 -0.1258
  480MOL0     C64731   1.463   1.145   0.787 -0.2557  0.2708  0.3231
  480MOL0     C64732   1.346   1.194   0.700 -0.3837 -0.5307  0.7423
  480MOL0     H64733   1.679   1.364   0.442 -0.1045 -0.0206 -0.4133
  480MOL0     H64734   1.694   1.519   0.250 -3.7673  0.1644 -1.2001
  480MOL0     H64735   1.463   1.870   0.190 -0.1156  2.0288 -2.0433
  480MOL0     H64736   1.544   1.941   0.329 -1.2653 -1.0036  0.0106
  480MOL0     H64737   1.666   1.907   0.059 -4.5362 -0.0658 -1.6480
  480MOL0     H64738   1.732   2.020   0.182  1.0386 -2.9143 -0.1749
  480MOL0     H64739   1.501   2.069   0.003 -2.0469  3.8501 -0.2347
  480MOL0     H64740   1.636   2.164   0.034 -0.2938  0.9399  2.0200
  480MOL0     H64741   1.430   2.137   0.249  1.0921  0.8491  2.9088
  480MOL0     H64742   1.562   2.254   0.232 -1.2770 -0.5224  0.4928
  480MOL0     H64743   1.315   2.268   0.054  0.7718  1.9635 -1.7949
  480MOL0     H64744   1.376   2.369   0.189  3.7654  1.5484  1.2648
  480MOL0     H64745   1.586   2.410   0.057  1.6975 -2.5018 -0.0269
  480MOL0     H64746   1.508   2.313  -0.073 -2.0800 -1.0184  0.1382
  480MOL0     H64747   1.496   2.572  -0.080  2.7050 -2.6735 -0.7506
  480MOL0     H64748   1.386   2.565   0.055  1.5927  0.2506  0.1238
  480MOL0     H64749   1.345   2.429  -0.217 -1.5237 -1.1972 -0.0681
  480MOL0     H64750   1.227   2.444  -0.095  1.7742 -0.2111  2.5843
  480MOL0     H64751   1.100   2.528  -0.321  0.9082 -1.9303  1.8535
  480MOL0     H64752   1.079   2.745  -0.523  2.2474  0.2446  0.2831
  480MOL0     H64753   0.949   2.780  -0.412 -0.2961  1.4868 -0.0765
  480MOL0     H64754   1.089   3.004  -0.362 -2.4372  0.8300 -0.0087
  480MOL0     H64755   1.166   2.973  -0.521 -1.3528  6.1085 -1.1534
  480MOL0     H64756   0.877   3.005  -0.456  1.0631  1.3088  1.2831
  480MOL0     H64757   0.950   2.942  -0.610  0.5762 -0.1448 -0.1912
  480MOL0     H64758   1.055   3.184  -0.626  2.9957 -0.9399  2.3248
  480MOL0     H64759   1.000   3.208  -0.455 -2.1732 -2.9690  2.1570
  480MOL0     H64760   0.651   3.333  -0.702  1.9227  3.2937 -0.1603
  480MOL0     H64761   0.601   3.370  -0.925  1.1672  1.7226  0.5072
  480MOL0     H64762   0.545   3.533  -1.281 -1.1153  0.0964  1.0376
  480MOL0     H64763   0.531   3.598  -1.521 -1.7920 -0.1922  0.1418
  480MOL0     H64764   0.676   3.297  -1.852  0.7473 -1.4333  2.3927
  480MOL0     H64765   0.502   3.276  -1.799  0.5465  0.6356  2.6204
  480MOL0     H64766   0.446   3.489  -1.948 -0.2866 -0.5047 -0.2198
  480MOL0     H64767   0.611   3.523  -1.957  0.1108  0.2137 -1.2520
  480MOL0     H64768   0.656   3.307  -2.064  0.6758  0.2229 -0.1436
  480MOL0     H64769   0.489   3.262  -2.065  0.2732 -0.5766 -1.5048
  480MOL0     H64770   0.612   3.515  -2.207  1.0811 -0.7136  0.7674
  480MOL0     H64771   0.436   3.483  -2.205  0.2069  0.1033  0.8245
  480MOL0     H64772   0.534   3.445  -2.417 -0.4402 -0.2692 -1.2542
  480MOL0     H64773   0.485   3.288  -2.368  0.1499  0.3046 -3.8399
  480MOL0     H64774   0.768   3.363  -2.298  0.2879  0.3937  0.6773
  480MOL0     H64775   0.691   3.210  -2.285 -2.2958  1.8495  1.4280
  480MOL0     H64776   0.716   3.367  -2.551 -0.1812  1.6886  3.5823
  480MOL0     H64777   0.658   3.194  -2.538 -0.3251 -1.0097 -0.2082
  480MOL0     H64778   0.897   3.239  -2.616  1.0568  3.6441  0.7132
  480MOL0     H64779   0.935   3.283  -2.452  2.6776 -0.7257 -2.0455
  480MOL0     H64780   0.595   3.188  -1.620 -0.9917 -0.2928 -0.5631
  480MOL0     H64781   0.624   3.132  -1.372  0.1538 -0.1519  1.7261
  480MOL0     H64782   0.940   3.115  -1.035  1.7169  0.0912  0.2877
  480MOL0     H64783   0.998   3.098  -0.808  0.4193  1.3015  2.5789
  480MOL0     H64784   1.462   1.810   0.488  1.9551  1.6483  0.3253
  480MOL0     H64785   1.415   1.621   0.646 -1.3881 -3.0326 -0.5293
  480MOL0     H64786   1.785   1.190   0.858  1.1679 -2.4639 -1.0688
  480MOL0     H64787   1.750   1.004   1.008  0.8057 -2.3151 -1.4420
  480MOL0     H64788   1.605   0.905   1.217  0.8113 -1.7970  2.4568
  480MOL0     H64789   1.687   0.818   1.087 -1.0152 -3.0729  0.2641
  480MOL0     H64790   1.639   0.659   1.254  0.4604  1.4301  0.3907
  480MOL0     H64791   1.521   0.635   1.129  0.6404  1.9571 -1.1216
  480MOL0     H64792   1.368   0.779   1.283  1.6814  0.5542 -3.1252
  480MOL0     H64793   1.493   0.753   1.404  3.5384 -2.5581 -0.0000
  480MOL0     H64794   1.317   0.593   1.427 -0.0915  0.2664  0.2726
  480MOL0     H64795   1.330   0.556   1.258 -0.8999 -0.4772  1.6742
  480MOL0     H64796   1.676   0.365   1.461  0.0638  1.5877  1.3718
  480MOL0     H64797   1.331   0.988   0.862 -0.7293  1.9083 -1.1986
  480MOL0     H64798   1.264   1.122   0.689  0.8190 -2.3124  2.5270
  480MOL0     H64799   1.311   1.290   0.739 -2.0927 -1.0969  0.6909
  480MOL0     H64800   1.387   1.210   0.600  2.5961 -3.4099  1.3206
  481MOL0     O64801   5.398  11.442   9.830 -0.7193 -0.3747 -0.4609
  481MOL0     C64802   5.425  11.488   9.720 -0.7291  0.1786 -0.0359
  481MOL0     O64803   5.408  11.429   9.595 -0.5601  0.9179  0.1148
  481MOL0     C64804   5.402  11.290   9.580  1.0074 -0.1022 -0.0316
  481MOL0     C64805   5.317  11.210   9.666 -0.0032  1.0078 -0.0038
  481MOL0     C64806   5.306  11.079   9.626  0.8618  0.2666  0.5710
  481MOL0     C64807   5.383  11.018   9.527  0.2003 -0.3345  0.2011
  481MOL0     O64808   5.362  10.892   9.495  0.1536 -0.1373  0.0074
  481MOL0     C64809   5.359  10.791   9.595 -0.1966 -0.1565 -0.1101
  481MOL0     C64810   5.466  10.693   9.527  1.0828 -0.9584 -0.3204
  481MOL0     C64811   5.475  10.549   9.600 -0.6010 -0.8677 -0.0603
  481MOL0     C64812   5.613  10.479   9.589  0.3954 -0.3004  0.0197
  481MOL0     C64813   5.589  10.327   9.582  0.6256  0.3193  0.1063
  481MOL0     C64814   5.722  10.265   9.561 -0.2048 -0.1025  0.1964
  481MOL0     C64815   5.838  10.315   9.663  0.2435 -0.8850 -0.4556
  481MOL0     C64816   5.965  10.237   9.693  0.7460  0.5199 -0.0004
  481MOL0     N64817   5.940  10.107   9.753 -0.6670 -0.2990 -0.1215
  481MOL0     C64818   5.917   9.992   9.689  0.0167 -0.0167  0.5340
  481MOL0     C64819   5.924   9.889   9.783  0.3662 -0.4702 -0.6818
  481MOL0     C64820   5.934   9.739   9.756  0.7456 -0.4761  0.6199
  481MOL0     C64821   6.075   9.701   9.756 -0.4652  0.7605 -0.3408
  481MOL0     C64822   6.138   9.682   9.895 -0.0648 -0.0440 -0.2382
  481MOL0     C64823   6.290   9.707   9.893  0.2770 -0.3101 -0.3731
  481MOL0     O64824   6.328   9.835   9.826  1.2412  0.7076 -0.6760
  481MOL0     C64825   6.384   9.927   9.916 -1.0894 -0.0460 -0.2494
  481MOL0     C64826   6.523   9.932   9.935  0.9881  0.9900  0.3661
  481MOL0     C64827   6.577  10.008  10.033 -0.4370 -0.1765 -0.5231
  481MOL0     C64828   6.497  10.079  10.120 -0.0120 -0.9136 -0.0470
  481MOL0     C64829   6.554  10.155  10.238  1.6256  0.0935 -0.1236
  481MOL0     O64830   6.456  10.211  10.313  0.1875 -0.8153  0.4464
  481MOL0     C64831   6.496  10.241  10.436  0.1082 -0.5309  0.6422
  481MOL0     C64832   6.498  10.147  10.538  0.0299  0.7860  0.8137
  481MOL0     C64833   6.531  10.188  10.669 -0.0560  0.0178 -0.6214
  481MOL0     C64834   6.557  10.325  10.702  1.0641  0.0883  0.3840
  481MOL0     O64835   6.565  10.372  10.836 -0.4301  0.7583  0.5349
  481MOL0     C64836   6.627  10.278  10.928  0.1351 -0.9361  0.2680
  481MOL0     C64837   6.708  10.349  11.038  0.2259  0.4318  0.1650
  481MOL0     C64838   6.714  10.269  11.169 -0.2360  0.0168 -0.0327
  481MOL0     C64839   6.785  10.331  11.291  0.2014 -0.4509 -0.2703
  481MOL0     C64840   6.808  10.224  11.392  0.4559  0.8913 -0.2812
  481MOL0     C64841   6.847  10.272  11.528 -0.0771 -0.2054 -0.3147
  481MOL0     C64842   6.727  10.328  11.595  0.7942 -0.3349 -0.1858
  481MOL0     C64843   6.738  10.350  11.747 -0.3308  0.5776  0.7940
  481MOL0    Cl64844   6.867  10.458  11.797  0.1148  0.1003 -0.1361
  481MOL0     C64845   6.555  10.412  10.592 -0.9990 -1.0181  0.0554
  481MOL0     C64846   6.529  10.378  10.462  1.0753  0.1834 -0.5345
  481MOL0     O64847   6.670  10.164  10.267  0.0476 -0.9354  0.5063
  481MOL0     C64848   6.356  10.076  10.103  0.1351 -0.5148 -0.6563
  481MOL0     C64849   6.302   9.997  10.002  0.8230 -0.8174 -1.1646
  481MOL0     N64850   5.935   9.958   9.903  0.0630  1.0490  0.0561
  481MOL0     N64851   5.951  10.080   9.882 -0.5671 -0.5889 -0.4745
  481MOL0     C64852   5.457  11.097   9.450 -0.4476 -0.4303 -0.0495
  481MOL0     C64853   5.468  11.239   9.464  0.4119  0.0889  0.0864
  481MOL0     C64854   5.490  11.621   9.704  0.9363  0.4038  0.3442
  481MOL0     C64855   5.566  11.651   9.593  0.6919 -0.5998  0.3594
  481MOL0     C64856   5.656  11.762   9.595 -0.0302  0.3577 -0.4886
  481MOL0     C64857   5.676  11.838   9.708 -0.7699 -0.2761  0.2889
  481MOL0     O64858   5.760  11.944   9.696 -0.0141  0.0557  0.4904
  481MOL0     C64859   5.768  12.040   9.807  0.2676  0.6212  0.4778
  481MOL0     C64860   5.853  12.160   9.772  0.1867  0.0564 -0.1582
  481MOL0     C64861   5.840  12.249   9.894  0.3401  0.0544 -0.1064
  481MOL0     C64862   5.931  12.381   9.884 -0.2194  0.1536 -0.3892
  481MOL0     C64863   5.913  12.478   9.776  0.0462  0.4776  0.1920
  481MOL0     C64864   5.879  12.540   9.680  0.5224 -0.8146  0.4070
  481MOL0     C64865   5.604  11.807   9.819 -0.1518 -0.1955 -0.4507
  481MOL0     C64866   5.506  11.712   9.813 -0.0944 -0.3296  0.4190
  481MOL0     C64867   5.416  11.711   9.934  0.3696 -0.0367 -0.5042
  481MOL0     H64868   5.257  11.253   9.745 -1.1750  0.6669 -0.6874
  481MOL0     H64869   5.240  11.013   9.681  0.3014  0.5522  0.2375
  481MOL0     H64870   5.403  10.820   9.691  2.1026  2.1385 -1.7146
  481MOL0     H64871   5.260  10.746   9.609  0.4437 -0.8160  3.6276
  481MOL0     H64872   5.566  10.735   9.531  1.4110 -1.7884  1.0636
  481MOL0     H64873   5.437  10.681   9.422  2.2610 -0.1778 -0.7450
  481MOL0     H64874   5.402  10.479   9.559 -1.8119  0.1876  0.2241
  481MOL0     H64875   5.467  10.558   9.709 -1.7565 -0.4077 -0.1716
  481MOL0     H64876   5.665  10.513   9.499  0.7336  3.2068  1.3770
  481MOL0     H64877   5.676  10.511   9.673 -0.0871 -3.6775  1.8559
  481MOL0     H64878   5.546  10.292   9.676 -1.4939  3.0875  0.2853
  481MOL0     H64879   5.518  10.296   9.504 -0.6208 -1.0427  1.7096
  481MOL0     H64880   5.714  10.156   9.561 -0.2620 -0.1180 -1.2332
  481MOL0     H64881   5.764  10.280   9.461  1.8600 -2.1587  0.6768
  481MOL0     H64882   5.792  10.331   9.761 -0.2352 -1.4564 -0.5823
  481MOL0     H64883   5.871  10.417   9.643  0.0624 -0.5037  1.0772
  481MOL0     H64884   6.024  10.213   9.604  1.0379  1.1912  0.0104
  481MOL0     H64885   6.033  10.287   9.762  2.5976 -4.0277  1.8964
  481MOL0     H64886   5.911   9.970   9.583 -1.3053 -0.5573  0.7023
  481MOL0     H64887   5.888   9.680   9.836  3.8963 -2.8083  0.8540
  481MOL0     H64888   5.883   9.722   9.661 -0.7065  0.4558  1.1865
  481MOL0     H64889   6.084   9.607   9.702  0.5149  0.6431  0.0112
  481MOL0     H64890   6.121   9.776   9.691 -0.9466  0.0809 -1.4722
  481MOL0     H64891   6.121   9.581   9.932 -1.1754  0.5114  0.8318
  481MOL0     H64892   6.082   9.742   9.968 -0.8772 -1.5846  0.4425
  481MOL0     H64893   6.349   9.630   9.843  0.9517 -0.3679  0.5006
  481MOL0     H64894   6.336   9.709   9.992  1.5461  0.2567 -0.9500
  481MOL0     H64895   6.585   9.863   9.878 -0.4341 -0.1462  0.1405
  481MOL0     H64896   6.683  10.011  10.060 -0.9636  0.8724  1.6386
  481MOL0     H64897   6.468  10.047  10.509 -1.7056  1.2657  0.8859
  481MOL0     H64898   6.517  10.109  10.743  1.1425 -0.0567 -0.4534
  481MOL0     H64899   6.551  10.224  10.986  2.6146 -3.4898  1.4126
  481MOL0     H64900   6.699  10.204  10.892  0.4884 -0.3916 -0.1510
  481MOL0     H64901   6.812  10.366  11.009 -0.2438 -0.7044 -2.5276
  481MOL0     H64902   6.667  10.445  11.068  1.6402  1.3846 -0.8324
  481MOL0     H64903   6.608  10.246  11.188 -0.3373  0.1023 -0.4750
  481MOL0     H64904   6.761  10.171  11.155 -0.7281 -0.3815  0.9524
  481MOL0     H64905   6.728  10.408  11.343  2.9191  0.2104  1.9754
  481MOL0     H64906   6.884  10.375  11.272 -0.6975  3.2778  2.4999
  481MOL0     H64907   6.888  10.167  11.343 -0.8349 -0.8677 -0.4530
  481MOL0     H64908   6.725  10.155  11.407  1.7959 -0.4998  1.1786
  481MOL0     H64909   6.880  10.188  11.590 -0.0990 -0.3701 -0.5238
  481MOL0     H64910   6.936  10.334  11.523  2.3042 -3.2922  0.3846
  481MOL0     H64911   6.645  10.259  11.572  1.3763 -1.2260  0.3416
  481MOL0     H64912   6.710  10.426  11.549  1.1593  0.2011  0.7979
  481MOL0     H64913   6.642  10.383  11.788 -2.4925 -3.4401 -0.4817
  481MOL0     H64914   6.758  10.251  11.788  3.9216  0.9097 -0.0499
  481MOL0     H64915   6.565  10.518  10.614  0.0175 -0.8216 -1.1929
  481MOL0     H64916   6.521  10.461  10.393 -0.4068  0.4565 -0.0666
  481MOL0     H64917   6.295  10.144  10.161  0.5919  0.3776 -1.2070
  481MOL0     H64918   6.195   9.984   9.989  0.6377 -0.2516 -0.3461
  481MOL0     H64919   5.508  11.040   9.372 -0.2094  0.7801 -0.8146
  481MOL0     H64920   5.523  11.308   9.401  0.1646  1.0255  0.8782
  481MOL0     H64921   5.585  11.586   9.508  1.1270 -0.7038  0.5357
  481MOL0     H64922   5.716  11.783   9.508  2.0016 -0.0707  0.7440
  481MOL0     H64923   5.808  12.000   9.901 -0.2179  1.8412  1.2188
  481MOL0     H64924   5.671  12.080   9.837  0.1642  0.8048 -0.0820
  481MOL0     H64925   5.816  12.212   9.683  0.7456  3.0215  1.2212
  481MOL0     H64926   5.956  12.131   9.751 -0.2744 -3.0819  1.3768
  481MOL0     H64927   5.883  12.191   9.976  1.1727  0.8242  0.0141
  481MOL0     H64928   5.740  12.281   9.924  0.3889  1.8527 -1.6168
  481MOL0     H64929   5.931  12.440   9.976  2.9007 -0.9105  0.3882
  481MOL0     H64930   6.032  12.342   9.884 -0.7607 -1.8372  4.0025
  481MOL0     H64931   5.844  12.583   9.588  0.9353 -3.2426 -0.9742
  481MOL0     H64932   5.630  11.864   9.907 -1.6811  0.4510 -0.3935
  481MOL0     H64933   5.316  11.680   9.905  1.0456  0.2835 -3.5442
  481MOL0     H64934   5.469  11.646  10.004  0.3786  2.1247  1.6574
  481MOL0     H64935   5.414  11.809   9.984  0.7737 -2.2229  4.2828
  482MOL0     O64936   3.124   7.664   7.814  0.4329  0.6236  0.1303
  482MOL0     C64937   3.157   7.729   7.917 -0.1028  0.3160 -0.1194
  482MOL0     O64938   3.150   7.866   7.925 -0.6494 -0.5530  0.1460
  482MOL0     C64939   3.066   7.934   7.835 -0.0869  0.3833  0.5464
  482MOL0     C64940   2.948   7.883   7.767 -0.6715  1.1172  0.0671
  482MOL0     C64941   2.856   7.969   7.698  0.0752  0.9557 -0.4381
  482MOL0     C64942   2.890   8.102   7.686 -0.7446  0.0785 -0.3774
  482MOL0     O64943   2.826   8.192   7.606 -0.0592 -0.6496 -0.1521
  482MOL0     C64944   2.691   8.155   7.552  0.1879 -0.4250 -0.3901
  482MOL0     C64945   2.664   8.255   7.438 -0.1358 -0.3887 -0.0826
  482MOL0     C64946   2.523   8.235   7.390  0.1048 -0.4441 -0.6141
  482MOL0     C64947   2.491   8.338   7.289 -0.3122  0.1041 -0.4668
  482MOL0     C64948   2.359   8.310   7.211 -0.5260 -0.1228 -0.1368
  482MOL0     C64949   2.235   8.293   7.297  0.0224  0.4895 -0.6533
  482MOL0     C64950   2.116   8.286   7.215  0.7414 -0.3066 -0.2557
  482MOL0     C64951   2.058   8.420   7.165  0.7574 -0.0415 -0.7353
  482MOL0     N64952   1.964   8.399   7.064 -0.3992 -0.6443 -0.1610
  482MOL0     C64953   1.830   8.377   7.086  0.3467 -0.5269  0.6139
  482MOL0     C64954   1.766   8.393   6.971 -0.5470 -0.5102 -0.7122
  482MOL0     C64955   1.627   8.368   6.919 -0.4301  0.5469  0.1602
  482MOL0     C64956   1.577   8.217   6.912  0.1820  1.0114  0.6806
  482MOL0     C64957   1.645   8.133   6.793 -0.2247 -0.0247  0.0842
  482MOL0     C64958   1.542   8.051   6.711  0.1969  0.3810 -0.7008
  482MOL0     O64959   1.607   7.956   6.631  0.4476 -0.7059  0.2271
  482MOL0     C64960   1.536   7.907   6.525 -0.0660 -0.2031 -0.4014
  482MOL0     C64961   1.442   7.813   6.554  0.1854  1.1422 -0.1305
  482MOL0     C64962   1.367   7.765   6.449 -0.1640 -0.2914 -0.0393
  482MOL0     C64963   1.405   7.795   6.321  0.0201 -0.1479  0.3316
  482MOL0     C64964   1.329   7.739   6.204 -0.5327 -1.1181 -1.3309
  482MOL0     O64965   1.366   7.788   6.081 -0.0635 -0.3220 -0.1888
  482MOL0     C64966   1.354   7.704   5.965 -0.4779 -0.3078 -0.5148
  482MOL0     C64967   1.338   7.560   5.977 -0.4766 -0.0113 -0.7698
  482MOL0     C64968   1.304   7.479   5.868  0.5334 -0.4693  0.7103
  482MOL0     C64969   1.298   7.538   5.740  0.0106  0.0245 -0.2102
  482MOL0     O64970   1.255   7.463   5.630  0.0185  0.0307  0.2571
  482MOL0     C64971   1.353   7.372   5.581  0.4524  0.3826 -0.6911
  482MOL0     C64972   1.284   7.297   5.455  0.2641 -0.0122 -0.2578
  482MOL0     C64973   1.382   7.196   5.392 -0.0413 -0.0557  0.4169
  482MOL0     C64974   1.333   7.124   5.271  0.5564  0.5512 -0.3492
  482MOL0     C64975   1.438   7.091   5.166  0.6289 -0.0984  0.4089
  482MOL0     C64976   1.511   7.208   5.092  0.1419 -0.2037  0.4820
  482MOL0     C64977   1.577   7.159   4.968 -0.1310  0.2175  0.2548
  482MOL0     C64978   1.495   7.129   4.845 -0.2712  0.2644  0.2555
  482MOL0    Cl64979   1.430   7.281   4.776 -0.1154 -0.4052  0.8074
  482MOL0     C64980   1.303   7.679   5.733  1.2568  0.8151  0.3811
  482MOL0     C64981   1.326   7.761   5.845 -0.5801  0.0170  0.3372
  482MOL0     O64982   1.227   7.676   6.235 -0.2880  0.0371  0.1711
  482MOL0     C64983   1.511   7.883   6.292  0.6744  0.0211 -0.2892
  482MOL0     C64984   1.574   7.942   6.397 -0.4843  0.5172 -0.6686
  482MOL0     N64985   1.865   8.413   6.874 -0.0323  0.0440 -0.3699
  482MOL0     N64986   1.983   8.420   6.932 -0.0496  0.4279 -0.2988
  482MOL0     C64987   3.003   8.158   7.751 -0.0801 -0.1372 -0.1551
  482MOL0     C64988   3.083   8.076   7.824  0.1533  0.3724  0.3713
  482MOL0     C64989   3.258   7.666   7.994  0.3721  0.3539 -0.7722
  482MOL0     C64990   3.391   7.703   7.997  0.4096 -0.0241 -0.1488
  482MOL0     C64991   3.493   7.625   8.059  0.3183 -0.1800 -0.7097
  482MOL0     C64992   3.464   7.503   8.116 -0.2642  0.3325 -0.2440
  482MOL0     O64993   3.573   7.432   8.173 -0.1552  0.1971 -0.2511
  482MOL0     C64994   3.550   7.302   8.218  0.3585 -0.9056 -0.1545
  482MOL0     C64995   3.693   7.242   8.241 -0.3370 -0.1138  0.4739
  482MOL0     C64996   3.683   7.118   8.334  0.7453 -0.6082  0.5092
  482MOL0     C64997   3.563   7.029   8.285 -0.2754  0.1747 -0.1398
  482MOL0     C64998   3.563   6.918   8.380 -0.9665  0.4609  0.3944
  482MOL0     C64999   3.543   6.822   8.446  1.0003  0.6064 -0.0222
  482MOL0     C65000   3.326   7.471   8.131  1.0654 -0.1097  0.2118
  482MOL0     C65001   3.222   7.549   8.075 -0.2105  0.1362 -0.2024
  482MOL0     C65002   3.079   7.491   8.099 -0.5413 -0.3551  1.0176
  482MOL0     H65003   2.920   7.778   7.767  0.2840  0.7585 -3.0954
  482MOL0     H65004   2.768   7.927   7.650 -1.9001  0.8060  3.0114
  482MOL0     H65005   2.689   8.051   7.518  2.5039 -1.2610  1.7853
  482MOL0     H65006   2.631   8.162   7.643 -2.5291 -0.2225 -2.0588
  482MOL0     H65007   2.734   8.243   7.355 -1.9882  1.0098 -1.9702
  482MOL0     H65008   2.671   8.356   7.480  0.1468  0.3910 -1.8901
  482MOL0     H65009   2.460   8.235   7.479  2.4153 -1.1000  1.0964
  482MOL0     H65010   2.504   8.137   7.347  1.6305 -1.5355  1.0842
  482MOL0     H65011   2.499   8.438   7.331 -3.1741 -0.0721  0.6803
  482MOL0     H65012   2.569   8.348   7.212 -2.6644  1.2519 -2.8893
  482MOL0     H65013   2.334   8.385   7.136 -2.3706 -1.8340 -1.3479
  482MOL0     H65014   2.368   8.215   7.157  1.6899 -2.0945  3.3193
  482MOL0     H65015   2.244   8.201   7.355 -0.5448  0.6450 -0.3149
  482MOL0     H65016   2.219   8.378   7.364 -0.7738 -0.3701  0.2755
  482MOL0     H65017   2.038   8.243   7.278 -0.9695  1.0634 -1.3399
  482MOL0     H65018   2.133   8.215   7.134 -0.8601  0.1727 -1.0572
  482MOL0     H65019   2.003   8.471   7.245  3.9403 -0.5936  2.0164
  482MOL0     H65020   2.141   8.479   7.126  0.9675  0.1891  0.0458
  482MOL0     H65021   1.792   8.344   7.183  1.9822 -1.8028  0.8684
  482MOL0     H65022   1.562   8.414   6.994 -4.2779 -0.1100 -2.4795
  482MOL0     H65023   1.610   8.415   6.821  2.1540 -2.1421 -1.7802
  482MOL0     H65024   1.595   8.165   7.006 -0.0402 -2.6748 -1.1130
  482MOL0     H65025   1.469   8.200   6.901  0.1131  1.3715  0.7753
  482MOL0     H65026   1.719   8.076   6.849 -0.6273  1.1691  1.9548
  482MOL0     H65027   1.694   8.194   6.717  0.8811 -1.3200 -0.2786
  482MOL0     H65028   1.489   8.112   6.637 -2.2860 -2.3695 -1.3721
  482MOL0     H65029   1.472   8.003   6.779  0.7304  1.3508  0.5718
  482MOL0     H65030   1.433   7.780   6.657 -0.5441  1.2455 -0.1549
  482MOL0     H65031   1.279   7.703   6.465  0.3530 -0.4050  2.9012
  482MOL0     H65032   1.356   7.509   6.071 -0.2523  0.4432 -0.5674
  482MOL0     H65033   1.286   7.372   5.871 -1.4963 -0.2100 -0.4831
  482MOL0     H65034   1.448   7.421   5.557  0.0926  0.4456 -2.0709
  482MOL0     H65035   1.375   7.292   5.652 -1.3382  0.9994  0.6310
  482MOL0     H65036   1.198   7.240   5.490  0.4966 -0.4686 -0.4238
  482MOL0     H65037   1.255   7.368   5.377  0.1892 -0.5931 -0.7613
  482MOL0     H65038   1.475   7.240   5.355 -0.5209  1.3965  0.9022
  482MOL0     H65039   1.406   7.122   5.469  0.5842 -0.4683 -0.1551
  482MOL0     H65040   1.254   7.174   5.214 -1.1585 -2.1344 -0.5254
  482MOL0     H65041   1.290   7.027   5.301 -0.9737  0.6255 -2.1469
  482MOL0     H65042   1.388   7.023   5.097  1.0515  2.3777 -2.5848
  482MOL0     H65043   1.522   7.040   5.215 -0.0324 -3.5938 -1.7372
  482MOL0     H65044   1.445   7.294   5.082 -0.0753 -0.3002  1.0591
  482MOL0     H65045   1.591   7.249   5.154  1.0271  1.1628 -1.4372
  482MOL0     H65046   1.629   7.063   4.982  0.7543  0.7138  0.4159
  482MOL0     H65047   1.654   7.231   4.942  0.0985  0.3310  1.2081
  482MOL0     H65048   1.551   7.074   4.769 -1.7079  0.4354 -0.9781
  482MOL0     H65049   1.408   7.064   4.856 -0.7233  0.1412 -3.0653
  482MOL0     H65050   1.284   7.730   5.639 -1.0776 -0.0140  0.3290
  482MOL0     H65051   1.313   7.868   5.835  0.7929  0.1101 -0.6589
  482MOL0     H65052   1.532   7.908   6.189  2.0205  3.1164  0.6310
  482MOL0     H65053   1.660   8.001   6.368  1.2448 -0.7900  1.4428
  482MOL0     H65054   3.027   8.262   7.734 -0.6960 -0.0458 -0.4894
  482MOL0     H65055   3.169   8.117   7.877 -0.5859 -0.9630  2.7236
  482MOL0     H65056   3.425   7.788   7.938  2.7250 -1.2246 -0.6637
  482MOL0     H65057   3.599   7.649   8.059  0.4092 -0.5625  0.1621
  482MOL0     H65058   3.499   7.254   8.134 -0.0660  2.0572 -1.6886
  482MOL0     H65059   3.484   7.300   8.305 -0.4694  1.7804 -0.6473
  482MOL0     H65060   3.758   7.313   8.292 -3.2793  0.4875  3.8067
  482MOL0     H65061   3.739   7.208   8.147 -1.9694  0.9876 -0.7853
  482MOL0     H65062   3.651   7.159   8.430 -0.9825  0.1818 -0.3549
  482MOL0     H65063   3.781   7.069   8.342  0.4606 -1.0769  1.2469
  482MOL0     H65064   3.465   7.078   8.298 -1.0154 -1.2582 -0.1403
  482MOL0     H65065   3.584   7.002   8.182 -2.3961 -1.4055 -0.2203
  482MOL0     H65066   3.528   6.739   8.511 -1.6873  1.1643  0.1552
  482MOL0     H65067   3.295   7.389   8.195 -2.9620 -0.3028 -1.7253
  482MOL0     H65068   3.087   7.422   8.184 -1.9177 -0.0359  1.4321
  482MOL0     H65069   3.006   7.568   8.127 -0.7495 -0.1808  0.0280
  482MOL0     H65070   3.044   7.442   8.008  0.2304 -0.7048  0.8964
  483MOL0     O65071   1.192   8.854   5.389 -0.2209  0.0611 -0.4662
  483MOL0     C65072   1.187   8.731   5.399  0.8034  0.2299  0.4953
  483MOL0     O65073   1.271   8.648   5.332 -0.3573 -0.2219  1.2888
  483MOL0     C65074   1.396   8.685   5.298 -0.7491 -0.1771  0.1559
  483MOL0     C65075   1.455   8.597   5.209  0.9497 -0.4724 -0.6905
  483MOL0     C65076   1.591   8.615   5.181 -0.0559  0.2016 -0.8358
  483MOL0     C65077   1.671   8.718   5.220  0.2350 -0.7368  0.0958
  483MOL0     O65078   1.806   8.703   5.191  0.4296 -1.0776 -0.6270
  483MOL0     C65079   1.872   8.821   5.143  0.1600  0.7683 -0.6389
  483MOL0     C65080   2.015   8.813   5.161 -0.7598 -0.1889 -0.5827
  483MOL0     C65081   2.082   8.717   5.061  0.0266  0.0419 -0.6359
  483MOL0     C65082   2.232   8.722   5.052  0.2944  0.2166 -0.3628
  483MOL0     C65083   2.302   8.622   4.957  0.6327  0.9075  0.0435
  483MOL0     C65084   2.455   8.640   4.960 -0.1176  0.0928  0.0172
  483MOL0     C65085   2.528   8.554   4.862  0.4418  0.5134 -0.4484
  483MOL0     C65086   2.529   8.411   4.905 -0.1169  0.2297  0.5453
  483MOL0     N65087   2.650   8.334   4.868  0.1845 -0.5758  0.0232
  483MOL0     C65088   2.782   8.349   4.908 -0.4712 -0.8947  0.2307
  483MOL0     C65089   2.854   8.284   4.819 -0.5882  0.0690 -0.3613
  483MOL0     C65090   3.003   8.263   4.834  0.9556 -0.2657  1.1427
  483MOL0     C65091   3.037   8.220   4.981 -0.0432  0.3693  0.4228
  483MOL0     C65092   3.171   8.161   4.999 -0.5969  0.0698  0.2687
  483MOL0     C65093   3.200   8.022   4.923  0.6131 -0.9147 -0.3863
  483MOL0     O65094   3.099   7.934   4.973  0.4537  1.0004 -0.0869
  483MOL0     C65095   3.125   7.850   5.085  0.2410  0.2569 -0.1595
  483MOL0     C65096   3.252   7.811   5.127  0.0234  0.1569  0.2029
  483MOL0     C65097   3.265   7.736   5.247  0.3559 -0.1573  0.0094
  483MOL0     C65098   3.156   7.684   5.311 -0.3235  0.0560 -0.2559
  483MOL0     C65099   3.160   7.607   5.442 -0.2403 -0.6912 -0.3429
  483MOL0     O65100   3.049   7.628   5.518  0.0289  0.1083 -0.0323
  483MOL0     C65101   3.016   7.591   5.644  0.0592  0.7647 -0.1890
  483MOL0     C65102   3.100   7.599   5.749 -0.6320  0.1952 -0.1561
  483MOL0     C65103   3.054   7.576   5.880 -0.2323 -0.3099 -0.1085
  483MOL0     C65104   2.919   7.545   5.909  0.1667  0.2711 -0.3946
  483MOL0     O65105   2.876   7.527   6.037  0.1036 -0.6560  0.4270
  483MOL0     C65106   2.926   7.412   6.096 -0.7299  0.0737  0.7387
  483MOL0     C65107   2.826   7.294   6.082 -0.3562 -0.8414 -0.5803
  483MOL0     C65108   2.702   7.318   6.160 -0.6094  0.4347 -0.3584
  483MOL0     C65109   2.596   7.212   6.150 -0.7601 -1.1793 -0.4072
  483MOL0     C65110   2.479   7.227   6.250 -0.5694 -0.6429 -0.7546
  483MOL0     C65111   2.338   7.193   6.182 -0.2760  0.1491 -0.3677
  483MOL0     C65112   2.343   7.061   6.102 -0.6747 -0.2548 -0.3333
  483MOL0     C65113   2.206   7.016   6.047 -1.5771  0.1118 -0.9030
  483MOL0    Cl65114   2.221   6.862   5.954  0.1170  0.2617 -0.7680
  483MOL0     C65115   2.832   7.528   5.789  0.1354 -0.1960 -0.1203
  483MOL0     C65116   2.876   7.552   5.663 -0.5533 -0.1508  0.2870
  483MOL0     O65117   3.262   7.554   5.476  0.2057 -0.2035  0.2103
  483MOL0     C65118   3.025   7.711   5.270 -0.2788 -0.3366  0.0335
  483MOL0     C65119   3.011   7.792   5.156 -0.0621 -0.7819 -0.1901
  483MOL0     N65120   2.778   8.215   4.735 -0.1732 -0.6254 -0.7697
  483MOL0     N65121   2.658   8.243   4.770  0.4772  0.3574  0.5447
  483MOL0     C65122   1.614   8.817   5.294 -0.6829 -0.0315 -0.2230
  483MOL0     C65123   1.483   8.797   5.341  0.0382  0.3373 -0.6666
  483MOL0     C65124   1.083   8.675   5.495  0.6624  0.7971 -0.0485
  483MOL0     C65125   1.017   8.765   5.588 -0.1698  0.7237 -0.2004
  483MOL0     C65126   0.934   8.722   5.685 -0.1828 -0.2459 -0.4875
  483MOL0     C65127   0.888   8.584   5.689  0.0399 -0.6422 -0.0870
  483MOL0     O65128   0.803   8.540   5.788 -0.4965 -0.2741  0.2182
  483MOL0     C65129   0.727   8.416   5.765  0.2403  0.3576  0.3708
  483MOL0     C65130   0.638   8.383   5.885  0.2990  0.0013 -0.2007
  483MOL0     C65131   0.544   8.266   5.875  0.6147  0.7529 -0.4696
  483MOL0     C65132   0.592   8.125   5.933 -0.1776 -0.0549 -0.2336
  483MOL0     C65133   0.715   8.066   5.871 -0.0975  0.1284  0.1697
  483MOL0     C65134   0.798   8.014   5.800  0.3567 -0.2354  0.4337
  483MOL0     C65135   0.941   8.501   5.587  0.0682  0.8831 -1.3186
  483MOL0     C65136   1.041   8.539   5.495 -0.0063 -0.5804 -0.7640
  483MOL0     C65137   1.096   8.433   5.393 -0.0908  0.9281 -0.5320
  483MOL0     H65138   1.391   8.512   5.185 -0.2550  1.0965 -3.4025
  483MOL0     H65139   1.650   8.538   5.133  0.2923  0.8888 -1.5352
  483MOL0     H65140   1.846   8.831   5.037 -0.6869 -0.3252 -0.5463
  483MOL0     H65141   1.834   8.911   5.193  1.9599  1.2484 -0.0574
  483MOL0     H65142   2.047   8.793   5.264 -1.8285  0.1698 -0.1653
  483MOL0     H65143   2.050   8.914   5.135 -1.5845  0.3271  0.2284
  483MOL0     H65144   2.050   8.750   4.962  0.0328 -0.6087 -0.8592
  483MOL0     H65145   2.045   8.616   5.080  0.7158 -0.0447  0.3344
  483MOL0     H65146   2.261   8.825   5.029 -1.7303  0.7762 -0.5685
  483MOL0     H65147   2.265   8.699   5.153  1.0273 -0.5144 -0.7567
  483MOL0     H65148   2.270   8.521   4.983 -1.6162  1.4843 -0.2368
  483MOL0     H65149   2.257   8.616   4.857 -1.7488 -0.3855  1.1020
  483MOL0     H65150   2.464   8.743   4.923 -0.6925  0.3354  0.5338
  483MOL0     H65151   2.494   8.631   5.063  1.3499 -0.3815 -0.5504
  483MOL0     H65152   2.631   8.590   4.850  1.7714 -1.8661  2.4460
  483MOL0     H65153   2.478   8.556   4.765 -0.4482 -0.9243 -0.0559
  483MOL0     H65154   2.504   8.394   5.010 -2.7346 -0.5344 -0.1381
  483MOL0     H65155   2.440   8.368   4.859 -0.7865  1.5173  0.6006
  483MOL0     H65156   2.812   8.406   4.995 -0.3411 -0.8429  0.1514
  483MOL0     H65157   3.017   8.174   4.772 -1.8423 -0.1606  0.2221
  483MOL0     H65158   3.043   8.353   4.785 -2.6068 -0.2771 -2.2685
  483MOL0     H65159   3.030   8.308   5.046  0.5364  1.0002 -0.3389
  483MOL0     H65160   2.970   8.143   5.019  2.7905 -1.0058  3.0223
  483MOL0     H65161   3.189   8.140   5.105  4.8733 -1.3550 -0.5923
  483MOL0     H65162   3.240   8.238   4.965  0.3743 -2.0310 -3.0552
  483MOL0     H65163   3.302   7.986   4.941  1.0740 -0.9048 -2.7070
  483MOL0     H65164   3.185   8.024   4.815  2.6145  3.5036 -0.7940
  483MOL0     H65165   3.341   7.857   5.085 -1.8317  1.8515 -2.1553
  483MOL0     H65166   3.362   7.708   5.288 -0.8417 -0.9674  2.4564
  483MOL0     H65167   3.204   7.622   5.727 -0.9378  1.5130 -0.2832
  483MOL0     H65168   3.123   7.576   5.964 -0.4074  0.1447  0.0418
  483MOL0     H65169   3.019   7.377   6.048 -0.3384 -0.7625  2.0490
  483MOL0     H65170   2.954   7.432   6.200 -0.2842 -2.5619  1.2178
  483MOL0     H65171   2.782   7.292   5.982  1.4766  0.1945 -1.4655
  483MOL0     H65172   2.875   7.197   6.091 -0.0867 -0.7193 -0.7007
  483MOL0     H65173   2.731   7.317   6.266 -0.5055 -1.4493 -0.3801
  483MOL0     H65174   2.660   7.418   6.140 -0.0567  0.8025  0.2694
  483MOL0     H65175   2.637   7.112   6.167  1.6384 -0.5885 -2.1437
  483MOL0     H65176   2.556   7.223   6.048 -0.5671 -0.0419 -0.3815
  483MOL0     H65177   2.478   7.328   6.293 -0.5936 -0.5275 -1.0200
  483MOL0     H65178   2.478   7.159   6.335 -2.8775  2.7708  2.2619
  483MOL0     H65179   2.274   7.175   6.268  2.3308  1.1201  1.9302
  483MOL0     H65180   2.295   7.280   6.132 -1.3838  1.1899  2.2003
  483MOL0     H65181   2.396   6.992   6.168  3.2804  1.8136 -1.0299
  483MOL0     H65182   2.414   7.073   6.020  0.7763 -0.8952  0.7938
  483MOL0     H65183   2.142   7.001   6.134 -0.9296 -0.4543 -0.5165
  483MOL0     H65184   2.165   7.101   5.992 -0.2808  0.2870 -1.6534
  483MOL0     H65185   2.732   7.497   5.817  0.5674 -0.3011  1.4444
  483MOL0     H65186   2.811   7.551   5.576 -1.5288  0.9511  0.9906
  483MOL0     H65187   2.944   7.656   5.317 -0.3865  0.4008  0.7500
  483MOL0     H65188   2.913   7.820   5.120 -0.4448 -3.7172 -1.6768
  483MOL0     H65189   1.655   8.916   5.309  1.2699 -0.5636 -1.6783
  483MOL0     H65190   1.437   8.863   5.413  0.1784 -0.2840  0.0117
  483MOL0     H65191   1.041   8.870   5.578 -0.8241  0.7004 -2.8125
  483MOL0     H65192   0.889   8.799   5.748  0.7336 -0.7486  0.8127
  483MOL0     H65193   0.793   8.330   5.753  0.2769  0.6480 -1.9725
  483MOL0     H65194   0.657   8.429   5.682 -3.5838  2.0890  3.5259
  483MOL0     H65195   0.582   8.475   5.901 -0.0457  0.1903 -2.1589
  483MOL0     H65196   0.695   8.363   5.976 -2.6427 -0.9360  1.5448
  483MOL0     H65197   0.529   8.242   5.769 -0.5024  1.5192 -0.5097
  483MOL0     H65198   0.448   8.292   5.920  1.0559 -2.1923  2.5839
  483MOL0     H65199   0.616   8.141   6.038  3.4798  1.9007 -1.2102
  483MOL0     H65200   0.514   8.049   5.924 -0.9114  0.7811 -1.3144
  483MOL0     H65201   0.879   7.981   5.738 -0.0387 -2.1394  0.8934
  483MOL0     H65202   0.913   8.396   5.590  3.1372 -0.0615 -1.7514
  483MOL0     H65203   1.033   8.344   5.392 -0.6951  1.1550 -5.3294
  483MOL0     H65204   1.087   8.481   5.295  1.8937  1.3211 -0.5717
  483MOL0     H65205   1.201   8.413   5.419  0.1714 -0.2663 -2.3814
  484MOL0     O65206   8.700   3.137  11.029  0.2072 -0.5932  0.5139
  484MOL0     C65207   8.727   3.215  11.124 -1.7893  0.2214 -0.4850
  484MOL0     O65208   8.846   3.201  11.212  0.7208 -0.3079  0.0190
  484MOL0     C65209   8.956   3.132  11.175 -0.3909 -0.3927 -0.0715
  484MOL0     C65210   9.022   3.073  11.280 -0.1148 -0.1234  0.3142
  484MOL0     C65211   9.124   2.992  11.252 -0.4733 -0.0668 -0.1899
  484MOL0     C65212   9.173   2.962  11.132  0.3569  0.9223  0.4460
  484MOL0     O65213   9.274   2.874  11.127  0.1841 -0.8259  0.0056
  484MOL0     C65214   9.370   2.888  11.019 -0.2348 -0.9487  0.2319
  484MOL0     C65215   9.468   2.783  11.042 -0.5251  0.6041  0.0643
  484MOL0     C65216   9.577   2.807  11.142 -0.2039  0.2376 -0.6667
  484MOL0     C65217   9.691   2.886  11.075 -0.6655 -0.4015 -0.0082
  484MOL0     C65218   9.803   2.920  11.178 -0.0780 -0.5149  0.0431
  484MOL0     C65219   9.923   3.006  11.122  0.6502 -0.2233 -0.4067
  484MOL0     C65220  10.024   2.929  11.044 -0.2194  0.0153  0.4710
  484MOL0     C65221  10.152   3.017  11.014 -0.2567  0.3146 -1.7966
  484MOL0     N65222  10.239   3.024  11.145  0.5052  0.2727 -0.4854
  484MOL0     C65223  10.245   3.139  11.223 -0.2208 -0.1445  0.1388
  484MOL0     C65224  10.284   3.096  11.345  0.2258  1.0777  0.1146
  484MOL0     C65225  10.304   3.174  11.472 -0.6698  0.0244  0.5178
  484MOL0     C65226  10.447   3.225  11.470  0.1192  0.8735  0.8962
  484MOL0     C65227  10.490   3.291  11.604 -0.5389 -0.5097  0.0912
  484MOL0     C65228  10.644   3.333  11.621 -0.1585 -0.5472 -0.3160
  484MOL0     O65229  10.702   3.221  11.689  0.1077 -0.3150  0.7961
  484MOL0     C65230  10.700   3.214  11.829  0.8998 -0.6976  0.0668
  484MOL0     C65231  10.711   3.082  11.888 -0.1326  0.3766  0.9503
  484MOL0     C65232  10.722   3.075  12.022  0.5295  1.1582  0.0331
  484MOL0     C65233  10.702   3.181  12.112 -0.6125 -0.3845  0.1804
  484MOL0     C65234  10.702   3.160  12.257 -0.4612 -0.0717  0.5489
  484MOL0     O65235  10.732   3.267  12.336  0.0944 -0.7599 -0.8874
  484MOL0     C65236  10.781   3.227  12.457  0.0164 -0.0074  0.6377
  484MOL0     C65237  10.706   3.216  12.577 -0.4082  0.5968  0.0858
  484MOL0     C65238  10.767   3.186  12.699 -0.9246 -0.8612 -1.0313
  484MOL0     C65239  10.906   3.154  12.696  0.2161  0.3627 -0.1552
  484MOL0     O65240  10.984   3.124  12.807 -0.6993 -0.2475 -0.3969
  484MOL0     C65241  10.977   3.232  12.901 -0.5987  0.2796 -0.2608
  484MOL0     C65242  11.056   3.206  13.029 -0.2830  0.1794 -0.5525
  484MOL0     C65243  11.215   3.215  13.001  0.7201 -0.1288 -0.0318
  484MOL0     C65244  11.296   3.320  13.100  0.2802 -0.7123  0.4297
  484MOL0     C65245  11.271   3.269  13.243  0.0960 -0.0461  0.7520
  484MOL0     C65246  11.378   3.345  13.333 -0.0006  0.1697  0.6904
  484MOL0     C65247  11.353   3.335  13.486 -0.0199 -0.1604 -0.5395
  484MOL0     C65248  11.222   3.403  13.542 -0.5677  0.6564 -0.2000
  484MOL0    Cl65249  11.232   3.582  13.520  0.1866  0.0106 -0.3862
  484MOL0     C65250  10.985   3.174  12.585  0.0216  0.8305  0.3368
  484MOL0     C65251  10.910   3.204  12.469 -0.9654 -0.6630  0.1496
  484MOL0     O65252  10.671   3.045  12.297  0.0290  0.2264  0.4908
  484MOL0     C65253  10.680   3.312  12.053 -1.2653  0.1920 -0.8720
  484MOL0     C65254  10.691   3.328  11.912  0.3686  0.3565 -1.4288
  484MOL0     N65255  10.313   2.963  11.342  0.5123 -0.5303  0.6480
  484MOL0     N65256  10.292   2.920  11.223 -0.8274 -0.1597 -0.1971
  484MOL0     C65257   9.112   3.030  11.020  0.1110  0.7248  0.4536
  484MOL0     C65258   9.003   3.118  11.046  0.1287  1.0691  0.3163
  484MOL0     C65259   8.626   3.306  11.176 -0.2429 -0.3753 -0.0497
  484MOL0     C65260   8.608   3.321  11.318 -0.1228  0.7712  0.1000
  484MOL0     C65261   8.517   3.412  11.372  0.1048  1.0838  0.8081
  484MOL0     C65262   8.430   3.483  11.283 -0.9870  0.1186 -0.1447
  484MOL0     O65263   8.330   3.568  11.330 -0.7182  0.1418  0.0985
  484MOL0     C65264   8.301   3.574  11.471  0.4942  0.4724 -0.8923
  484MOL0     C65265   8.167   3.648  11.475 -0.5377  0.0519 -0.8349
  484MOL0     C65266   8.198   3.797  11.438  0.3923  0.0238  0.4535
  484MOL0     C65267   8.129   3.837  11.310  0.9959 -0.6061 -1.0891
  484MOL0     C65268   8.128   3.988  11.303  0.1282  0.2423  0.0510
  484MOL0     C65269   8.114   4.110  11.310  0.8283  0.4475  1.3480
  484MOL0     C65270   8.433   3.466  11.145 -0.1203 -0.7597 -0.0826
  484MOL0     C65271   8.536   3.380  11.096  0.4933 -0.3401 -0.5572
  484MOL0     C65272   8.532   3.367  10.948  0.5541  0.7837  0.2273
  484MOL0     H65273   8.980   3.085  11.379  0.3208 -0.6472  0.5725
  484MOL0     H65274   9.173   2.948  11.339  1.1832 -2.7834 -2.3199
  484MOL0     H65275   9.315   2.877  10.925 -2.0216  1.6283  0.8841
  484MOL0     H65276   9.419   2.986  11.013 -0.8940 -0.6869 -2.3596
  484MOL0     H65277   9.506   2.745  10.947  0.3905  0.3815  0.5072
  484MOL0     H65278   9.413   2.693  11.071 -0.1487 -0.0516 -1.1846
  484MOL0     H65279   9.616   2.711  11.177  2.7892  1.7901  0.6583
  484MOL0     H65280   9.540   2.856  11.233  1.3984 -0.2250  0.2779
  484MOL0     H65281   9.741   2.833  10.994  1.6767  0.3483  0.8854
  484MOL0     H65282   9.655   2.981  11.035 -2.6702 -0.1055  2.2358
  484MOL0     H65283   9.758   2.982  11.256  1.4671  2.6082 -1.3875
  484MOL0     H65284   9.835   2.823  11.219  0.5735 -2.7542 -5.0591
  484MOL0     H65285   9.892   3.087  11.055  1.7442 -0.0935 -0.7833
  484MOL0     H65286   9.973   3.061  11.202 -0.5746  4.3596 -2.4292
  484MOL0     H65287   9.981   2.904  10.946  2.4115  1.8056 -1.2901
  484MOL0     H65288  10.043   2.830  11.085  1.5675 -0.7022 -1.8143
  484MOL0     H65289  10.210   2.971  10.934  1.9862  2.0843 -1.2701
  484MOL0     H65290  10.106   3.113  10.988 -0.7322  0.0021 -2.1289
  484MOL0     H65291  10.221   3.242  11.200  2.1920  0.9716  2.1837
  484MOL0     H65292  10.225   3.249  11.479  0.3470  1.0619  1.3065
  484MOL0     H65293  10.291   3.117  11.565  0.4048 -0.5920  0.2996
  484MOL0     H65294  10.515   3.141  11.452 -2.2461 -0.7531 -0.9906
  484MOL0     H65295  10.465   3.287  11.381  3.4381  0.3064  1.0398
  484MOL0     H65296  10.461   3.229  11.688  4.0505 -2.8350  0.2436
  484MOL0     H65297  10.428   3.380  11.620 -0.3550 -0.8066  2.8418
  484MOL0     H65298  10.646   3.425  11.680 -1.8211 -2.4929  3.0803
  484MOL0     H65299  10.687   3.360  11.524 -0.5536  2.0748  0.1649
  484MOL0     H65300  10.726   3.001  11.818  0.7496  1.2932  0.0521
  484MOL0     H65301  10.740   2.980  12.071  3.0862  1.5662  0.0258
  484MOL0     H65302  10.599   3.226  12.557 -1.1777 -3.2119  1.4663
  484MOL0     H65303  10.695   3.183  12.780  0.0528  0.0831 -0.0940
  484MOL0     H65304  11.006   3.331  12.862 -0.3519  0.0970 -0.5526
  484MOL0     H65305  10.876   3.251  12.939 -1.8034  1.4102 -3.6013
  484MOL0     H65306  11.025   3.276  13.108 -0.8019 -2.1390  1.3976
  484MOL0     H65307  11.036   3.103  13.060 -0.0774  0.4275  0.4528
  484MOL0     H65308  11.258   3.116  12.984  1.2742  0.4792 -2.6414
  484MOL0     H65309  11.230   3.255  12.900  0.5889 -0.1113 -0.0446
  484MOL0     H65310  11.252   3.419  13.086 -0.4408 -1.1359 -0.4317
  484MOL0     H65311  11.402   3.341  13.087 -0.0217  1.8163  1.4446
  484MOL0     H65312  11.302   3.164  13.249  2.4650  0.4155 -1.5016
  484MOL0     H65313  11.169   3.293  13.273 -0.9364  0.0004 -2.4651
  484MOL0     H65314  11.469   3.291  13.305  1.0522  1.3324  1.7769
  484MOL0     H65315  11.380   3.451  13.308 -1.1354  0.1492  0.4610
  484MOL0     H65316  11.430   3.394  13.535 -3.2229  1.4709  3.0527
  484MOL0     H65317  11.353   3.236  13.532 -2.5052  0.3751  0.8118
  484MOL0     H65318  11.134   3.375  13.483  0.1703  0.1163 -1.0748
  484MOL0     H65319  11.210   3.374  13.647  1.4089 -0.3850 -0.2150
  484MOL0     H65320  11.093   3.163  12.580 -0.1920 -3.1939  1.2132
  484MOL0     H65321  10.955   3.228  12.373 -0.8371  0.5126  0.4877
  484MOL0     H65322  10.666   3.399  12.117 -2.9945 -0.5146 -0.2145
  484MOL0     H65323  10.677   3.426  11.867 -2.1104  1.2595  1.0664
  484MOL0     H65324   9.147   3.021  10.918 -0.4795 -1.1178  0.3639
  484MOL0     H65325   8.943   3.165  10.969  2.4330 -0.1150 -2.3899
  484MOL0     H65326   8.678   3.273  11.385 -3.0993 -1.0758  2.0935
  484MOL0     H65327   8.506   3.410  11.480 -1.9396  1.0050  0.6475
  484MOL0     H65328   8.384   3.624  11.523  0.1453  1.1603 -0.9871
  484MOL0     H65329   8.273   3.471  11.495  0.2884  0.4381 -1.2721
  484MOL0     H65330   8.130   3.644  11.578  4.9846 -1.1952  1.4872
  484MOL0     H65331   8.106   3.596  11.401 -2.4465 -1.2190  1.4798
  484MOL0     H65332   8.304   3.817  11.424  0.6359 -2.3654 -1.9570
  484MOL0     H65333   8.158   3.854  11.522 -1.6322 -0.5460 -0.0430
  484MOL0     H65334   8.177   3.785  11.226 -0.5445 -3.2491 -0.4721
  484MOL0     H65335   8.024   3.808  11.308  0.7206  0.3668 -3.2431
  484MOL0     H65336   8.081   4.212  11.311  1.5483  0.7241 -0.0454
  484MOL0     H65337   8.352   3.513  11.091 -0.4390 -0.2739  0.7878
  484MOL0     H65338   8.535   3.264  10.910 -0.5468  1.3787 -1.5975
  484MOL0     H65339   8.455   3.410  10.884  0.6596 -2.5470 -2.4562
  484MOL0     H65340   8.629   3.403  10.911  1.3278  0.8116  2.1737
  485MOL0     O65341  11.400  10.112   1.687  0.1315 -0.7023  0.6623
  485MOL0     C65342  11.374  10.103   1.802  0.6112  0.0511 -0.6894
  485MOL0     O65343  11.316  10.196   1.880 -0.3211 -1.5379 -0.1417
  485MOL0     C65344  11.290  10.319   1.825 -0.3725  0.3639  0.2961
  485MOL0     C65345  11.381  10.424   1.854 -0.6183  0.6501  1.0953
  485MOL0     C65346  11.359  10.553   1.799 -0.2835  0.4212  1.4963
  485MOL0     C65347  11.254  10.571   1.705  0.0444  1.0002 -0.1007
  485MOL0     O65348  11.225  10.697   1.645 -0.2611  0.0295  0.3150
  485MOL0     C65349  11.258  10.824   1.711  0.2754  0.0037  0.0250
  485MOL0     C65350  11.178  10.947   1.661 -0.6918 -0.0252 -0.4754
  485MOL0     C65351  11.027  10.937   1.684 -0.8423  0.7683 -0.5363
  485MOL0     C65352  10.968  11.059   1.607  1.4886  0.5066  0.0696
  485MOL0     C65353  10.812  11.052   1.631  0.5252  0.1340  0.0125
  485MOL0     C65354  10.754  10.924   1.584  0.4546 -0.5091  0.3882
  485MOL0     C65355  10.609  10.922   1.589  0.2035 -0.2079 -0.7973
  485MOL0     C65356  10.547  10.824   1.491 -0.9550 -0.4374  0.5040
  485MOL0     N65357  10.406  10.828   1.495 -0.6920  0.4616 -0.1623
  485MOL0     C65358  10.336  10.768   1.599  0.0539 -0.4843  0.4065
  485MOL0     C65359  10.207  10.794   1.574  1.3068  0.1200 -0.1469
  485MOL0     C65360  10.077  10.746   1.637  0.5449  0.0818 -0.5563
  485MOL0     C65361   9.993  10.676   1.532  0.1654  1.0782  0.1817
  485MOL0     C65362   9.888  10.574   1.585  0.1095  0.2380 -0.2511
  485MOL0     C65363   9.971  10.447   1.632  0.4723 -0.2685 -0.5153
  485MOL0     O65364  10.023  10.393   1.508 -0.2735 -0.0386 -0.2091
  485MOL0     C65365  10.132  10.306   1.497 -0.5231 -0.9050  0.5464
  485MOL0     C65366  10.229  10.293   1.604  0.7651 -0.4157 -0.3487
  485MOL0     C65367  10.330  10.208   1.579 -0.2457 -1.0005 -0.2190
  485MOL0     C65368  10.334  10.122   1.466  0.0536  0.0476  0.1636
  485MOL0     C65369  10.448  10.035   1.447 -0.7420 -0.1653  1.2174
  485MOL0     O65370  10.553  10.050   1.539 -0.3530  0.7690 -0.0319
  485MOL0     C65371  10.665   9.979   1.519 -0.3885 -0.0106  0.0302
  485MOL0     C65372  10.779  10.054   1.509 -0.0079  1.0051  0.1511
  485MOL0     C65373  10.898   9.995   1.506 -0.3936  0.1725  0.6445
  485MOL0     C65374  10.909   9.850   1.491  0.7720  0.2484 -0.1135
  485MOL0     O65375  11.022   9.789   1.482 -0.7543  0.6747 -0.0320
  485MOL0     C65376  11.119   9.844   1.398 -0.3391 -0.4434  0.9670
  485MOL0     C65377  11.195   9.738   1.309 -0.1979 -0.4539 -0.3217
  485MOL0     C65378  11.102   9.678   1.207  0.0401  1.0757 -0.8695
  485MOL0     C65379  11.044   9.773   1.100 -0.0079 -0.7584  0.4001
  485MOL0     C65380  11.144   9.805   0.996 -0.4596  1.2093  0.5178
  485MOL0     C65381  11.091   9.882   0.885  0.2733 -0.1129  0.0417
  485MOL0     C65382  11.080  10.031   0.929 -0.6815 -0.1190 -0.1769
  485MOL0     C65383  10.980  10.099   0.848  0.1580  0.4905  0.0816
  485MOL0    Cl65384  10.962  10.267   0.898  0.3254  0.0770 -0.0066
  485MOL0     C65385  10.791   9.768   1.489 -0.7617 -0.5333 -0.2465
  485MOL0     C65386  10.662   9.834   1.498  0.4444 -1.1848 -0.1584
  485MOL0     O65387  10.466   9.980   1.343  0.0433 -0.0598 -0.5593
  485MOL0     C65388  10.230  10.123   1.371 -0.2972  0.8668  0.1402
  485MOL0     C65389  10.133  10.227   1.381  1.0746 -0.1941  0.2110
  485MOL0     N65390  10.203  10.887   1.472 -0.2380  0.3914  0.2949
  485MOL0     N65391  10.314  10.901   1.426 -0.8657  0.5049 -0.3837
  485MOL0     C65392  11.154  10.470   1.689 -1.0896  0.2895  0.0396
  485MOL0     C65393  11.179  10.342   1.753  0.2291 -0.7877 -0.2454
  485MOL0     C65394  11.397   9.963   1.874  0.4651  0.4012  0.0170
  485MOL0     C65395  11.375   9.965   2.018  0.5110 -0.4924  1.0794
  485MOL0     C65396  11.397   9.851   2.093  1.2260  0.0710 -0.5868
  485MOL0     C65397  11.418   9.727   2.034 -0.6321  0.4377 -0.2767
  485MOL0     O65398  11.424   9.616   2.115 -0.0318  0.5653  0.2063
  485MOL0     C65399  11.307   9.530   2.098 -0.2243  0.8245  0.8937
  485MOL0     C65400  11.258   9.489   2.231  0.1711  0.3266  0.6016
  485MOL0     C65401  11.357   9.433   2.340 -0.4874  0.0942 -0.0407
  485MOL0     C65402  11.428   9.311   2.295 -0.5829  0.5751 -0.9512
  485MOL0     C65403  11.539   9.281   2.381  0.9475 -0.5812 -0.2462
  485MOL0     C65404  11.633   9.239   2.450  0.3476 -0.2818 -0.6942
  485MOL0     C65405  11.443   9.734   1.902 -0.3780 -0.3713  0.4043
  485MOL0     C65406  11.440   9.846   1.817  0.2372 -0.4357  0.2382
  485MOL0     C65407  11.446   9.819   1.670 -0.0352 -0.4620 -0.0877
  485MOL0     H65408  11.470  10.403   1.912 -0.5379 -1.7582  0.1803
  485MOL0     H65409  11.421  10.634   1.836 -0.8546  1.7495 -0.3213
  485MOL0     H65410  11.222  10.801   1.812  1.4191 -0.3098  0.3824
  485MOL0     H65411  11.367  10.832   1.722  1.1091 -2.9169 -3.8596
  485MOL0     H65412  11.189  10.950   1.552 -0.3154  1.1900 -0.4187
  485MOL0     H65413  11.215  11.040   1.706  1.8046 -0.4497 -1.4733
  485MOL0     H65414  10.988  10.934   1.786 -0.6359 -1.6500 -0.4743
  485MOL0     H65415  10.993  10.844   1.637 -0.5853  1.2720 -1.7465
  485MOL0     H65416  11.000  11.160   1.636  2.4454  0.9509 -2.2512
  485MOL0     H65417  11.002  11.059   1.503 -0.1216  1.9059 -0.5185
  485MOL0     H65418  10.788  11.058   1.738 -0.2818 -1.1308 -0.0759
  485MOL0     H65419  10.757  11.134   1.583  2.2059  0.9629 -0.5747
  485MOL0     H65420  10.786  10.897   1.483  3.0575 -2.4740  1.5890
  485MOL0     H65421  10.776  10.847   1.659 -3.4988  0.5828  2.9849
  485MOL0     H65422  10.563  11.018   1.569 -0.5712 -0.2935  0.4568
  485MOL0     H65423  10.584  10.878   1.687  0.9691 -0.7396 -0.8207
  485MOL0     H65424  10.583  10.861   1.394  1.7319 -0.2862  1.4691
  485MOL0     H65425  10.581  10.723   1.514 -0.1569 -0.3875 -0.3748
  485MOL0     H65426  10.373  10.718   1.688 -0.5107 -0.9211  0.4000
  485MOL0     H65427  10.107  10.678   1.717  1.5058  2.1801  0.9635
  485MOL0     H65428  10.017  10.824   1.686 -0.3547 -0.8457 -0.1397
  485MOL0     H65429   9.943  10.761   1.486 -2.1939 -1.4036 -2.2066
  485MOL0     H65430  10.073  10.631   1.473  1.4206  2.0543  1.0714
  485MOL0     H65431   9.815  10.548   1.508 -0.8682 -2.9849  1.6275
  485MOL0     H65432   9.841  10.628   1.667  2.1130  0.2895  0.9372
  485MOL0     H65433   9.911  10.373   1.685  1.1101 -0.9697 -0.7563
  485MOL0     H65434  10.042  10.477   1.709 -0.0046  2.0094 -0.8984
  485MOL0     H65435  10.228  10.346   1.699  4.7001 -1.9864  0.7721
  485MOL0     H65436  10.415  10.188   1.642  0.7458  0.2394 -1.1107
  485MOL0     H65437  10.776  10.162   1.518  1.9455  1.0371  0.8559
  485MOL0     H65438  10.988  10.055   1.495 -0.5705 -0.0630 -4.3780
  485MOL0     H65439  11.079   9.926   1.338  0.3939 -0.3917  0.5372
  485MOL0     H65440  11.190   9.898   1.461  0.2147  2.6318 -1.9757
  485MOL0     H65441  11.279   9.787   1.260 -0.4400  0.2114 -0.0817
  485MOL0     H65442  11.239   9.659   1.370  2.3698 -1.0471 -2.7409
  485MOL0     H65443  11.161   9.609   1.147 -0.7703  0.4842 -1.0081
  485MOL0     H65444  11.023   9.620   1.256 -1.0058  3.3152  0.2260
  485MOL0     H65445  11.017   9.863   1.155 -1.8567 -1.6905  1.1251
  485MOL0     H65446  10.957   9.735   1.045 -0.5048  1.7467 -0.6829
  485MOL0     H65447  11.171   9.713   0.944 -0.5717  3.2871 -3.6493
  485MOL0     H65448  11.237   9.848   1.035 -2.3333  5.3554  1.0359
  485MOL0     H65449  11.159   9.873   0.800  0.1568 -1.2905  0.0619
  485MOL0     H65450  10.995   9.837   0.859 -2.1117  3.0588  2.5501
  485MOL0     H65451  11.180  10.075   0.923 -1.2251  1.1511 -0.3194
  485MOL0     H65452  11.040  10.031   1.031  0.4703 -0.1584  0.2808
  485MOL0     H65453  11.011  10.085   0.744 -1.5270 -2.5418 -0.1320
  485MOL0     H65454  10.882  10.050   0.845 -0.1835  1.1172  0.7215
  485MOL0     H65455  10.796   9.661   1.473 -0.7406 -1.3107  3.8902
  485MOL0     H65456  10.570   9.778   1.502 -0.7640  0.1538 -4.2650
  485MOL0     H65457  10.223  10.060   1.283 -4.2111 -2.0224  2.2054
  485MOL0     H65458  10.079  10.257   1.292  0.0653 -0.2480  0.7857
  485MOL0     H65459  11.065  10.491   1.631  0.2207  0.5641 -1.9948
  485MOL0     H65460  11.102  10.267   1.740 -2.8932  2.1637 -0.2104
  485MOL0     H65461  11.348  10.051   2.079  0.1535 -0.6947  1.2123
  485MOL0     H65462  11.404   9.860   2.200  2.6403  1.4651 -0.7630
  485MOL0     H65463  11.341   9.438   2.049 -0.5401 -0.2387  2.5937
  485MOL0     H65464  11.226   9.567   2.034  0.5094  0.7598 -0.0901
  485MOL0     H65465  11.186   9.411   2.205  0.7097  0.9311 -3.3403
  485MOL0     H65466  11.201   9.570   2.277 -1.9546 -0.8201  0.0851
  485MOL0     H65467  11.297   9.398   2.424  0.1955  1.8890  1.2721
  485MOL0     H65468  11.418   9.518   2.373 -1.3786  1.2491 -1.2505
  485MOL0     H65469  11.363   9.223   2.303 -0.7750  0.7537 -0.5557
  485MOL0     H65470  11.478   9.324   2.198  0.3261 -1.3013 -0.7853
  485MOL0     H65471  11.720   9.223   2.511 -0.5709 -0.3982  0.6335
  485MOL0     H65472  11.484   9.645   1.855  1.4732  1.2932 -1.3361
  485MOL0     H65473  11.371   9.876   1.614  2.0155  1.6673 -0.8315
  485MOL0     H65474  11.547   9.849   1.642 -0.1958  1.2411  1.0427
  485MOL0     H65475  11.431   9.714   1.643 -1.0986 -0.9011  1.9903
  486MOL0     O65476   2.892   6.897   7.950 -0.1479  0.1065 -0.0993
  486MOL0     C65477   2.886   7.011   7.990 -0.5156 -0.4281 -0.6675
  486MOL0     O65478   2.831   7.127   7.928 -0.2030  0.5010  0.1682
  486MOL0     C65479   2.743   7.108   7.819 -0.8633  0.3017 -0.1536
  486MOL0     C65480   2.713   7.219   7.744 -0.0619 -0.8415  0.7846
  486MOL0     C65481   2.627   7.205   7.637 -0.1548 -0.3131  0.0416
  486MOL0     C65482   2.575   7.081   7.595 -0.1569 -0.1020  0.1041
  486MOL0     O65483   2.493   7.087   7.486 -0.2169 -0.4530 -0.0288
  486MOL0     C65484   2.456   6.969   7.416 -1.3030 -0.2176 -0.0712
  486MOL0     C65485   2.386   6.990   7.275 -1.2878  0.6164 -0.3752
  486MOL0     C65486   2.280   7.093   7.272  0.0836  0.3333  0.3950
  486MOL0     C65487   2.197   7.106   7.142 -0.8473 -0.0803 -0.3417
  486MOL0     C65488   2.085   7.005   7.123  0.1288 -0.5008 -0.4198
  486MOL0     C65489   1.982   7.077   7.040  0.0322 -0.1449  0.0894
  486MOL0     C65490   1.877   6.965   6.989  0.6059 -0.0325  0.2022
  486MOL0     C65491   1.755   6.953   7.097  0.4340  0.0168 -0.1277
  486MOL0     N65492   1.689   6.822   7.102  0.5338  0.2439  0.0642
  486MOL0     C65493   1.591   6.789   7.010 -0.0246  0.5728 -0.1718
  486MOL0     C65494   1.546   6.671   7.051 -0.1022 -1.1162 -0.3525
  486MOL0     C65495   1.434   6.607   6.974 -0.3645 -0.2145 -0.2970
  486MOL0     C65496   1.437   6.624   6.814 -1.2925 -0.1582  0.1428
  486MOL0     C65497   1.566   6.559   6.757  0.0442  0.6220  0.5865
  486MOL0     C65498   1.577   6.570   6.600 -0.5099  0.1746 -0.4362
  486MOL0     O65499   1.617   6.687   6.547 -0.4200  0.0562 -0.0409
  486MOL0     C65500   1.730   6.757   6.582 -0.4614 -0.2066 -0.9865
  486MOL0     C65501   1.836   6.694   6.650  0.4988  0.5830  0.6028
  486MOL0     C65502   1.954   6.766   6.665  0.4281 -0.1443 -0.0125
  486MOL0     C65503   1.966   6.897   6.605 -0.5973 -0.3192 -0.4180
  486MOL0     C65504   2.090   6.968   6.629 -0.6490 -0.6951  0.6075
  486MOL0     O65505   2.198   6.889   6.659 -1.0071 -0.0973  0.4868
  486MOL0     C65506   2.313   6.953   6.694 -0.0752 -0.0638  0.0400
  486MOL0     C65507   2.390   7.013   6.591 -0.6729  0.1599  0.4015
  486MOL0     C65508   2.521   7.055   6.622 -0.4733 -0.4863 -0.2462
  486MOL0     C65509   2.573   7.040   6.753 -0.8386 -0.2508  0.3907
  486MOL0     O65510   2.696   7.089   6.794  0.1373  0.1765 -0.2544
  486MOL0     C65511   2.811   7.083   6.711  0.6018 -0.2031 -0.0523
  486MOL0     C65512   2.944   7.118   6.789  0.5636 -1.2347 -0.0963
  486MOL0     C65513   2.929   7.237   6.884  0.1683  0.1052 -0.7488
  486MOL0     C65514   3.065   7.270   6.948  0.6770 -0.4962 -0.4831
  486MOL0     C65515   3.059   7.406   7.023 -0.6993 -0.0394  0.5576
  486MOL0     C65516   3.189   7.442   7.081  0.2245  0.6093 -1.1533
  486MOL0     C65517   3.248   7.355   7.195 -0.1342 -0.1935  0.1732
  486MOL0     C65518   3.363   7.433   7.261  0.1929 -0.7202 -0.3262
  486MOL0    Cl65519   3.472   7.309   7.347 -0.0121 -0.0632  0.2767
  486MOL0     C65520   2.488   6.986   6.853 -0.0139 -0.1028 -0.0509
  486MOL0     C65521   2.359   6.940   6.825  0.8044  0.1033 -0.4650
  486MOL0     O65522   2.093   7.089   6.615  0.6335  0.4492  1.1451
  486MOL0     C65523   1.858   6.963   6.539  0.3889 -0.3103  0.3493
  486MOL0     C65524   1.745   6.889   6.531  0.0232  0.9164 -0.4673
  486MOL0     N65525   1.619   6.627   7.157 -0.2511  0.2421  0.5190
  486MOL0     N65526   1.701   6.714   7.193 -0.4079 -0.3028 -0.0187
  486MOL0     C65527   2.602   6.973   7.679  0.1662 -0.2967 -0.2532
  486MOL0     C65528   2.682   6.984   7.782  0.8845  0.1497 -0.2233
  486MOL0     C65529   2.933   7.033   8.123 -0.4519 -0.7705  0.6138
  486MOL0     C65530   3.039   7.123   8.137 -0.2995  0.2620 -1.2176
  486MOL0     C65531   3.079   7.151   8.271 -0.5694 -0.7438  0.0149
  486MOL0     C65532   3.042   7.075   8.377 -0.5907 -0.1502  0.5892
  486MOL0     O65533   3.126   7.076   8.486 -1.0373 -0.3758  1.1752
  486MOL0     C65534   3.118   6.969   8.574 -0.4565 -1.2358 -0.5513
  486MOL0     C65535   3.199   7.003   8.706 -0.3835 -0.5194  0.1758
  486MOL0     C65536   3.208   6.880   8.798  0.1618  0.6414  0.0308
  486MOL0     C65537   3.064   6.836   8.842 -0.1631 -0.5318 -0.1337
  486MOL0     C65538   3.018   6.712   8.776  0.0653 -0.6972  0.3192
  486MOL0     C65539   2.982   6.606   8.730  1.5553 -1.2887  0.3741
  486MOL0     C65540   2.941   6.985   8.354 -0.5594  0.6067 -0.8055
  486MOL0     C65541   2.879   6.963   8.233  1.0307  0.1174  0.0964
  486MOL0     C65542   2.745   6.884   8.217 -0.1811 -0.6889  0.9389
  486MOL0     H65543   2.761   7.314   7.765 -2.8224  0.6420  0.8688
  486MOL0     H65544   2.600   7.291   7.577  0.9432 -1.2157 -1.8654
  486MOL0     H65545   2.550   6.920   7.391 -0.0915  1.2421  1.4516
  486MOL0     H65546   2.394   6.905   7.480 -1.6487  1.0476  0.8981
  486MOL0     H65547   2.348   6.890   7.257  3.6339 -1.9286  1.5737
  486MOL0     H65548   2.469   7.013   7.207  2.8557 -1.4884  3.4666
  486MOL0     H65549   2.322   7.189   7.301  1.2868  0.5411 -1.8268
  486MOL0     H65550   2.212   7.071   7.356 -0.4464  1.8345  0.3915
  486MOL0     H65551   2.158   7.208   7.137  0.3193  0.3576 -1.1229
  486MOL0     H65552   2.266   7.100   7.057  1.3988  0.3710  1.3423
  486MOL0     H65553   2.126   6.912   7.081 -0.9556 -0.9700 -0.4885
  486MOL0     H65554   2.047   6.966   7.218 -0.0810 -0.0513 -0.3180
  486MOL0     H65555   1.941   7.160   7.099  0.9102 -2.1696  3.8532
  486MOL0     H65556   2.028   7.119   6.950 -0.5257 -0.1644 -0.2121
  486MOL0     H65557   1.935   6.872   6.981 -1.0368 -0.9807 -1.3458
  486MOL0     H65558   1.834   6.985   6.890 -0.6303  1.3524  0.9763
  486MOL0     H65559   1.789   6.977   7.198  0.3770 -1.0275  0.1508
  486MOL0     H65560   1.677   7.025   7.070  1.7065  1.5800  0.2096
  486MOL0     H65561   1.547   6.844   6.927 -1.6171  0.0464  0.2836
  486MOL0     H65562   1.447   6.502   7.004 -1.7248 -0.1314  0.6656
  486MOL0     H65563   1.340   6.646   7.012 -0.6988 -1.8246  0.6340
  486MOL0     H65564   1.354   6.563   6.777 -1.8759  1.0144 -0.5612
  486MOL0     H65565   1.424   6.728   6.780  0.2481  1.0555  2.8883
  486MOL0     H65566   1.581   6.454   6.782  3.8571  0.8352 -0.1965
  486MOL0     H65567   1.655   6.605   6.800  2.3590 -0.5813 -2.5868
  486MOL0     H65568   1.487   6.530   6.552 -1.4837  0.0556  1.4103
  486MOL0     H65569   1.652   6.492   6.586 -2.1477 -1.2757 -1.5072
  486MOL0     H65570   1.833   6.590   6.681 -1.1958  0.2654 -0.5362
  486MOL0     H65571   2.046   6.730   6.708 -0.7048 -1.3142  1.5607
  486MOL0     H65572   2.350   7.005   6.490 -0.5789  0.7544  0.3132
  486MOL0     H65573   2.582   7.096   6.541  0.2550 -0.7867  0.1409
  486MOL0     H65574   2.832   6.983   6.671  2.6470  0.4189 -0.6511
  486MOL0     H65575   2.789   7.155   6.632  0.6647 -0.5390 -0.3779
  486MOL0     H65576   2.972   7.031   6.850  0.0634 -0.2886  1.5363
  486MOL0     H65577   3.019   7.146   6.714  0.4812  1.1903  0.6643
  486MOL0     H65578   2.896   7.329   6.834  0.2400  0.0278 -0.9362
  486MOL0     H65579   2.857   7.218   6.964  1.2329 -0.5089  0.1048
  486MOL0     H65580   3.149   7.268   6.878  1.5543 -0.5430  0.5275
  486MOL0     H65581   3.087   7.187   7.016 -1.9204 -2.3971 -1.8101
  486MOL0     H65582   2.985   7.414   7.103 -0.2081  5.0197  0.8342
  486MOL0     H65583   3.025   7.479   6.948 -0.4097 -0.5034 -0.0393
  486MOL0     H65584   3.262   7.457   7.001  0.1029  2.7234 -0.9310
  486MOL0     H65585   3.175   7.542   7.124 -3.6699 -1.0811  2.2316
  486MOL0     H65586   3.283   7.257   7.160 -0.3694 -0.6577  1.2003
  486MOL0     H65587   3.174   7.343   7.275 -0.9740  2.5987 -0.0608
  486MOL0     H65588   3.423   7.490   7.190 -2.0577  4.2857  1.3660
  486MOL0     H65589   3.304   7.499   7.325 -1.5200 -3.8871  1.6705
  486MOL0     H65590   2.530   6.986   6.953 -0.4418  1.0144  0.1446
  486MOL0     H65591   2.301   6.881   6.895 -0.3108 -3.4445 -4.0043
  486MOL0     H65592   1.864   7.053   6.479 -1.4130  1.6909  2.9547
  486MOL0     H65593   1.658   6.923   6.475 -1.5529 -2.1595 -0.1348
  486MOL0     H65594   2.565   6.874   7.654 -3.8562  1.3240 -1.5015
  486MOL0     H65595   2.688   6.894   7.843  0.5925  2.0826  2.8984
  486MOL0     H65596   3.088   7.151   8.045  1.1987 -0.5539 -0.7083
  486MOL0     H65597   3.163   7.219   8.284 -0.9983  0.6245 -3.4002
  486MOL0     H65598   3.170   6.887   8.526 -2.0144 -2.3074 -0.4946
  486MOL0     H65599   3.012   6.953   8.598 -0.7366  2.2875  1.3490
  486MOL0     H65600   3.150   7.084   8.760 -0.6601 -1.2161  0.9996
  486MOL0     H65601   3.298   7.037   8.675 -0.8007  1.0201  0.4931
  486MOL0     H65602   3.263   6.902   8.890 -2.5192 -1.4062  2.3033
  486MOL0     H65603   3.257   6.795   8.749 -2.0632 -1.8153  1.7311
  486MOL0     H65604   3.070   6.831   8.951 -0.5614 -1.6396 -0.1505
  486MOL0     H65605   2.985   6.911   8.831  1.6163  1.6906  1.2755
  486MOL0     H65606   2.938   6.522   8.680 -0.3174  0.1684 -0.5682
  486MOL0     H65607   2.902   6.925   8.435  0.9921  0.2442 -0.2985
  486MOL0     H65608   2.679   6.889   8.304 -1.9853 -1.7355 -0.3105
  486MOL0     H65609   2.677   6.927   8.143 -0.8155 -2.4623  0.4337
  486MOL0     H65610   2.763   6.781   8.183 -0.0388  0.3173 -2.3094
  487MOL0     O65611   1.292   8.137   2.441 -0.0897 -0.0864 -1.1615
  487MOL0     C65612   1.306   8.260   2.439 -0.9995 -0.7089  0.9377
  487MOL0     O65613   1.424   8.319   2.399  1.0217  0.5252  0.8794
  487MOL0     C65614   1.525   8.234   2.356  0.0552 -0.0111  0.0675
  487MOL0     C65615   1.657   8.267   2.397 -0.3528 -0.2920 -0.3195
  487MOL0     C65616   1.761   8.190   2.373 -1.4996  0.3398  1.0615
  487MOL0     C65617   1.751   8.080   2.288  0.4321 -0.6070  0.6383
  487MOL0     O65618   1.857   8.005   2.250 -0.6435  0.9779 -0.3224
  487MOL0     C65619   1.991   8.055   2.244 -1.1263 -1.3292  0.0746
  487MOL0     C65620   2.075   7.927   2.232 -0.0014  0.6801 -0.2812
  487MOL0     C65621   2.229   7.966   2.204  0.1873  0.8702 -0.0497
  487MOL0     C65622   2.271   7.949   2.051  0.3485 -0.7164  1.0899
  487MOL0     C65623   2.247   8.081   1.961  1.2866  0.6120  0.5502
  487MOL0     C65624   2.356   8.186   1.988 -0.9953 -1.0760 -0.3281
  487MOL0     C65625   2.320   8.317   1.931 -0.3697  0.3224 -0.4874
  487MOL0     C65626   2.409   8.434   1.978  0.8526  0.7729 -0.4056
  487MOL0     N65627   2.378   8.555   1.911 -0.1975 -0.4755 -0.0263
  487MOL0     C65628   2.447   8.615   1.806  0.3917  0.3339 -0.1872
  487MOL0     C65629   2.378   8.728   1.782 -0.0431  0.3084 -0.3478
  487MOL0     C65630   2.410   8.824   1.679  0.3647 -0.3090  0.9175
  487MOL0     C65631   2.497   8.944   1.738 -0.5471 -0.6338  0.0915
  487MOL0     C65632   2.560   9.033   1.618 -0.0683 -0.4391 -0.9771
  487MOL0     C65633   2.648   8.956   1.521 -0.5394  0.0904  0.9094
  487MOL0     O65634   2.686   9.057   1.425  0.3279  0.0286  0.3885
  487MOL0     C65635   2.786   9.029   1.335 -0.1378 -0.1393  0.9383
  487MOL0     C65636   2.856   8.905   1.323 -0.4089 -0.2997  0.8919
  487MOL0     C65637   2.970   8.900   1.233 -0.7525  0.4046 -0.0903
  487MOL0     C65638   3.007   9.013   1.157 -0.7236 -0.1223 -0.2691
  487MOL0     C65639   3.124   9.023   1.071 -0.0787  0.2901 -0.7643
  487MOL0     O65640   3.147   9.132   0.995 -0.4724 -0.3795  0.1185
  487MOL0     C65641   3.270   9.161   0.942 -0.4904  0.1628 -0.1083
  487MOL0     C65642   3.260   9.206   0.809 -0.5016  0.0473 -0.0060
  487MOL0     C65643   3.376   9.227   0.726 -0.2840 -0.3252  0.3907
  487MOL0     C65644   3.501   9.223   0.796 -0.8689  0.5631  0.1018
  487MOL0     O65645   3.621   9.245   0.735 -0.1981  0.2536  0.0854
  487MOL0     C65646   3.628   9.346   0.632  0.1025  0.7104 -0.2344
  487MOL0     C65647   3.753   9.312   0.557 -0.7786  0.1488 -0.2234
  487MOL0     C65648   3.800   9.421   0.459  0.7960  0.1904 -1.2108
  487MOL0     C65649   3.710   9.434   0.336  0.1023 -0.4669  0.6728
  487MOL0     C65650   3.762   9.544   0.232 -0.7559  0.7027  0.2043
  487MOL0     C65651   3.720   9.495   0.087 -0.3115  0.4854  0.6736
  487MOL0     C65652   3.791   9.363   0.039  0.0885 -0.1543 -0.4487
  487MOL0     C65653   3.769   9.326  -0.116  0.2076 -0.4845 -0.7996
  487MOL0    Cl65654   3.597   9.341  -0.168 -0.0220  0.1100 -0.0638
  487MOL0     C65655   3.508   9.175   0.921  0.4248 -0.4129 -0.5191
  487MOL0     C65656   3.393   9.147   1.000  0.1438  0.3720  0.5083
  487MOL0     O65657   3.189   8.918   1.076 -0.1397  0.3032 -0.0127
  487MOL0     C65658   2.938   9.131   1.164  0.7555 -0.6587 -0.8479
  487MOL0     C65659   2.827   9.136   1.252 -0.5999 -0.0815  0.0274
  487MOL0     N65660   2.282   8.747   1.876  1.0215 -0.0841  0.7038
  487MOL0     N65661   2.288   8.640   1.963 -0.4365 -0.3970  0.0232
  487MOL0     C65662   1.630   8.053   2.225  1.0036 -0.2769  0.9766
  487MOL0     C65663   1.512   8.119   2.270  0.0724  0.2792  0.1772
  487MOL0     C65664   1.209   8.359   2.482 -0.0070 -0.3736  0.9571
  487MOL0     C65665   1.260   8.464   2.558  0.6402 -0.8300 -0.4766
  487MOL0     C65666   1.175   8.543   2.639  0.3335 -0.1982  0.0540
  487MOL0     C65667   1.036   8.539   2.618 -0.0141  0.2811  0.1231
  487MOL0     O65668   0.940   8.615   2.680 -0.7405  0.6058  1.0661
  487MOL0     C65669   0.981   8.739   2.726 -0.6118 -0.1070 -0.2208
  487MOL0     C65670   0.862   8.824   2.777  0.1979 -0.4534  0.0459
  487MOL0     C65671   0.791   8.899   2.662 -0.2356 -1.0681 -0.0815
  487MOL0     C65672   0.714   9.026   2.718  0.3723  0.0622  0.4990
  487MOL0     C65673   0.602   9.075   2.631 -0.5812  0.0076  0.2982
  487MOL0     C65674   0.526   9.120   2.544 -0.4833 -0.3165  0.2831
  487MOL0     C65675   0.996   8.443   2.539  0.5483 -1.2590  1.7708
  487MOL0     C65676   1.072   8.350   2.467 -0.7858  0.7242  0.5578
  487MOL0     C65677   1.009   8.247   2.374  0.0178  0.6303  0.2649
  487MOL0     H65678   1.673   8.355   2.459  2.7083 -0.6196 -0.4718
  487MOL0     H65679   1.855   8.204   2.426 -0.6746 -2.0506  0.3568
  487MOL0     H65680   2.002   8.128   2.163  0.9261  1.4829  2.6270
  487MOL0     H65681   2.017   8.111   2.335  2.5444 -2.1505 -0.3233
  487MOL0     H65682   2.032   7.856   2.162  0.1181 -0.4284  0.7363
  487MOL0     H65683   2.080   7.883   2.332  3.2308  1.1831 -0.0897
  487MOL0     H65684   2.290   7.891   2.254 -2.6665 -0.4211  1.7716
  487MOL0     H65685   2.260   8.061   2.247  2.3199  0.2678 -0.1487
  487MOL0     H65686   2.373   7.910   2.043  1.4696  1.9589  1.3569
  487MOL0     H65687   2.207   7.867   2.018  1.3755 -1.6267  1.2911
  487MOL0     H65688   2.255   8.055   1.855  0.2967  0.9410  0.3820
  487MOL0     H65689   2.148   8.124   1.982  0.9928 -0.7120  2.1253
  487MOL0     H65690   2.360   8.195   2.097 -0.1861  1.2434 -0.4944
  487MOL0     H65691   2.451   8.149   1.948  1.4892  1.1356  2.9617
  487MOL0     H65692   2.215   8.334   1.954 -0.2282 -1.3062  1.5930
  487MOL0     H65693   2.334   8.304   1.823  1.6435 -3.4007  0.0783
  487MOL0     H65694   2.402   8.447   2.086  1.6594  1.3374 -0.4123
  487MOL0     H65695   2.516   8.422   1.958  0.5933 -0.8576 -0.9738
  487MOL0     H65696   2.533   8.577   1.752  0.0790  1.9650 -1.9327
  487MOL0     H65697   2.467   8.768   1.604 -0.0123 -0.9005  1.0649
  487MOL0     H65698   2.326   8.870   1.628  1.1777  1.9077  1.4630
  487MOL0     H65699   2.438   9.013   1.799 -0.3688  0.1587 -0.6142
  487MOL0     H65700   2.574   8.905   1.804 -0.3426 -1.6883 -0.7422
  487MOL0     H65701   2.622   9.116   1.653  0.2145 -0.4107 -1.5290
  487MOL0     H65702   2.474   9.081   1.570  0.7744  1.6683 -0.5024
  487MOL0     H65703   2.582   8.886   1.469 -0.5737  0.0046  1.0658
  487MOL0     H65704   2.740   8.924   1.570  0.7737  2.2638 -0.0098
  487MOL0     H65705   2.858   8.832   1.404 -0.9166  0.7479  1.8689
  487MOL0     H65706   3.030   8.810   1.228 -0.5716  0.5738 -1.4421
  487MOL0     H65707   3.166   9.225   0.760 -0.7993 -0.5540  0.3226
  487MOL0     H65708   3.356   9.251   0.622 -0.7554 -0.6713  0.4008
  487MOL0     H65709   3.541   9.346   0.566 -1.4186 -2.6017  1.5360
  487MOL0     H65710   3.627   9.449   0.669 -3.3326  0.7035 -0.0323
  487MOL0     H65711   3.826   9.295   0.636 -0.4787  0.2934 -0.4679
  487MOL0     H65712   3.733   9.219   0.503 -1.5459 -0.2111  0.6397
  487MOL0     H65713   3.798   9.512   0.520 -1.8901 -1.8249  2.1302
  487MOL0     H65714   3.900   9.401   0.419  0.6619 -3.3350 -0.1378
  487MOL0     H65715   3.607   9.465   0.358  0.4680  1.0009  0.4223
  487MOL0     H65716   3.711   9.337   0.287  1.9258  1.2415 -3.1240
  487MOL0     H65717   3.871   9.552   0.242 -0.4669  1.7354 -2.8073
  487MOL0     H65718   3.728   9.648   0.238  2.5559  1.9928 -0.8123
  487MOL0     H65719   3.611   9.478   0.090 -0.4361  1.0821 -0.1027
  487MOL0     H65720   3.739   9.573   0.013  0.5039 -1.0520 -0.8263
  487MOL0     H65721   3.742   9.283   0.097 -0.4371 -1.2873 -2.3567
  487MOL0     H65722   3.896   9.378   0.065 -0.5482 -0.0439  2.3456
  487MOL0     H65723   3.835   9.392  -0.173 -0.0232 -2.3747 -3.4256
  487MOL0     H65724   3.819   9.232  -0.141  0.1639 -0.9025  0.6026
  487MOL0     H65725   3.604   9.167   0.970 -1.0360  0.0101  2.6856
  487MOL0     H65726   3.407   9.111   1.101  1.0634 -0.1304  0.2060
  487MOL0     H65727   2.963   9.223   1.113  0.2946  0.8845  1.5544
  487MOL0     H65728   2.787   9.237   1.263  1.0218  0.5330  0.6333
  487MOL0     H65729   1.615   7.976   2.149 -0.1374 -0.0980  0.9941
  487MOL0     H65730   1.422   8.076   2.227  0.6410 -0.9617  0.1983
  487MOL0     H65731   1.367   8.469   2.577  1.1499 -5.5504 -1.0188
  487MOL0     H65732   1.216   8.619   2.705 -0.7461  2.2371 -1.9340
  487MOL0     H65733   1.041   8.790   2.650  0.9347  1.0266  1.6488
  487MOL0     H65734   1.058   8.727   2.802  0.8220  2.5566 -1.1097
  487MOL0     H65735   0.901   8.894   2.851  1.8220 -1.6867  0.3989
  487MOL0     H65736   0.786   8.760   2.823  1.6357 -0.7583  2.0989
  487MOL0     H65737   0.725   8.829   2.610  2.1518 -3.9265  0.4844
  487MOL0     H65738   0.865   8.920   2.585  1.9148 -4.9912  0.6841
  487MOL0     H65739   0.682   8.989   2.815 -0.0566 -3.5031 -0.8547
  487MOL0     H65740   0.794   9.101   2.729 -0.0986  0.5351  0.7267
  487MOL0     H65741   0.474   9.156   2.458  0.3156  2.0980  0.7506
  487MOL0     H65742   0.889   8.427   2.530  0.5317 -0.2826 -0.2180
  487MOL0     H65743   0.951   8.171   2.426  0.9696 -0.8889 -0.8181
  487MOL0     H65744   0.941   8.309   2.315  1.6031  1.2414 -0.9865
  487MOL0     H65745   1.074   8.185   2.312  2.6777  1.5670  1.9494
  488MOL0     O65746   8.097   9.724   4.435 -0.1243 -0.3400  0.5499
  488MOL0     C65747   8.082   9.831   4.486 -0.2446  0.0592 -0.0344
  488MOL0     O65748   7.969   9.872   4.544 -0.0822  0.0316 -0.4791
  488MOL0     C65749   7.852   9.813   4.524 -0.2090 -0.4355  1.0044
  488MOL0     C65750   7.760   9.857   4.615 -0.4140 -0.2321 -0.2794
  488MOL0     C65751   7.632   9.804   4.615 -0.1646 -0.3563 -0.2859
  488MOL0     C65752   7.586   9.715   4.524  0.2449  0.4801  0.1607
  488MOL0     O65753   7.449   9.681   4.528 -0.5325 -0.1872 -0.6949
  488MOL0     C65754   7.409   9.562   4.461  0.0142 -0.9049  0.2848
  488MOL0     C65755   7.280   9.501   4.511 -0.9955 -0.6835  0.6432
  488MOL0     C65756   7.247   9.375   4.432  0.4326 -0.3721  0.2025
  488MOL0     C65757   7.110   9.324   4.476 -0.0342 -0.5116  1.0311
  488MOL0     C65758   7.111   9.167   4.465 -0.3700  0.2618  0.0986
  488MOL0     C65759   6.986   9.100   4.512 -0.0282 -0.1391  0.5816
  488MOL0     C65760   7.000   8.937   4.532  0.2101 -0.0273 -0.2788
  488MOL0     C65761   7.031   8.854   4.404 -0.2503  0.4494  0.1518
  488MOL0     N65762   6.919   8.861   4.302 -0.9971 -0.6037  0.2519
  488MOL0     C65763   6.790   8.806   4.321 -1.1326 -0.1422  0.4909
  488MOL0     C65764   6.726   8.827   4.204 -0.2520  0.6122  0.7553
  488MOL0     C65765   6.592   8.780   4.170 -0.1772  0.3858 -0.5088
  488MOL0     C65766   6.477   8.880   4.162 -0.5111  0.2638  0.4650
  488MOL0     C65767   6.404   8.903   4.292 -0.1382 -0.2131 -0.5939
  488MOL0     C65768   6.322   8.786   4.347 -0.9951  0.7949 -0.7007
  488MOL0     O65769   6.235   8.828   4.453 -0.0627 -0.0326  0.4152
  488MOL0     C65770   6.140   8.739   4.498  0.8074  0.3025  0.2831
  488MOL0     C65771   6.129   8.597   4.477  0.4475 -0.1763 -0.2040
  488MOL0     C65772   6.032   8.520   4.540  0.2587  0.8306  0.4445
  488MOL0     C65773   5.947   8.568   4.638  0.5573  0.8206 -0.8164
  488MOL0     C65774   5.870   8.493   4.739  0.9569  0.6540  0.2688
  488MOL0     O65775   5.804   8.560   4.845 -0.6269  0.2811 -0.3071
  488MOL0     C65776   5.731   8.477   4.929 -0.8392 -0.2414 -0.4093
  488MOL0     C65777   5.593   8.499   4.944  0.0324 -0.2551 -0.1927
  488MOL0     C65778   5.514   8.432   5.036 -0.4393  0.1928  0.1233
  488MOL0     C65779   5.569   8.318   5.100 -0.6587  0.3475 -0.4990
  488MOL0     O65780   5.502   8.234   5.179 -0.5021  0.2818  0.3782
  488MOL0     C65781   5.434   8.313   5.277  0.3510 -0.5081 -0.8709
  488MOL0     C65782   5.370   8.205   5.370 -0.6838  0.6422  0.1724
  488MOL0     C65783   5.311   8.249   5.506 -0.4983 -0.7859  0.0064
  488MOL0     C65784   5.303   8.143   5.625 -0.3974 -0.6945  0.5259
  488MOL0     C65785   5.170   8.150   5.711  0.5511 -0.7340  0.2425
  488MOL0     C65786   5.113   8.290   5.761  1.0057  0.6877  0.2442
  488MOL0     C65787   5.204   8.362   5.854  0.6530 -0.3615 -0.1717
  488MOL0     C65788   5.190   8.299   5.991 -0.6490 -0.2647  0.2236
  488MOL0    Cl65789   5.295   8.407   6.095 -0.1797 -0.3200  0.3252
  488MOL0     C65790   5.710   8.300   5.082  0.1859  0.1162  0.5888
  488MOL0     C65791   5.793   8.382   5.001  0.1234  0.5715 -0.6743
  488MOL0     O65792   5.876   8.369   4.726  0.1906 -0.0493  0.7831
  488MOL0     C65793   5.974   8.707   4.676  0.0771  0.6303 -0.1333
  488MOL0     C65794   6.064   8.790   4.602 -0.4332 -0.3245 -0.6476
  488MOL0     N65795   6.813   8.891   4.114 -1.0022  0.1247 -0.1548
  488MOL0     N65796   6.931   8.906   4.173 -0.0699 -1.0594 -0.2179
  488MOL0     C65797   7.683   9.665   4.438 -0.1430 -0.1201 -0.9367
  488MOL0     C65798   7.811   9.707   4.438  0.0297 -0.2210 -0.2971
  488MOL0     C65799   8.195   9.939   4.471 -0.2017  0.5942  1.0924
  488MOL0     C65800   8.164  10.079   4.458 -0.0329 -0.0392 -0.4402
  488MOL0     C65801   8.273  10.159   4.436  0.3733  0.1259  0.4362
  488MOL0     C65802   8.401  10.123   4.439 -0.2197  0.1480 -0.2439
  488MOL0     O65803   8.482  10.234   4.434 -0.2709 -0.2426 -0.8610
  488MOL0     C65804   8.627  10.227   4.458  0.2876  0.4365  0.2133
  488MOL0     C65805   8.696  10.351   4.516 -0.8129 -0.3166  0.3906
  488MOL0     C65806   8.791  10.340   4.634 -0.0833 -0.4259 -0.8188
  488MOL0     C65807   8.939  10.309   4.593 -0.0164 -0.9089 -0.5456
  488MOL0     C65808   9.029  10.297   4.712  0.6596  0.4298  0.5933
  488MOL0     C65809   9.119  10.296   4.798  0.6658  0.4235  0.0035
  488MOL0     C65810   8.435   9.986   4.438 -0.2449  0.4668  0.0235
  488MOL0     C65811   8.332   9.890   4.462 -1.1353 -0.5921 -0.2499
  488MOL0     C65812   8.377   9.749   4.489  0.7049  0.8165  0.4827
  488MOL0     H65813   7.787   9.943   4.676 -0.3998  1.2259 -2.2631
  488MOL0     H65814   7.547   9.846   4.668 -1.7182  0.5478 -3.2559
  488MOL0     H65815   7.395   9.598   4.359 -2.7120 -0.5505  0.7161
  488MOL0     H65816   7.490   9.489   4.471 -0.0122 -0.7314  2.0720
  488MOL0     H65817   7.206   9.581   4.508 -1.6323 -1.2759 -2.3397
  488MOL0     H65818   7.307   9.469   4.612 -1.1159  0.2529  0.9825
  488MOL0     H65819   7.330   9.304   4.431  1.4554  0.7455 -1.7639
  488MOL0     H65820   7.237   9.386   4.324  1.3425  0.6250  0.2017
  488MOL0     H65821   7.079   9.358   4.575  0.0831 -1.0329  1.2525
  488MOL0     H65822   7.046   9.370   4.400 -0.3647  0.4576  1.8836
  488MOL0     H65823   7.124   9.139   4.360  2.3968  2.9428 -0.4125
  488MOL0     H65824   7.206   9.143   4.513  0.5240  1.5879 -0.9286
  488MOL0     H65825   6.953   9.153   4.601 -0.0270  1.7495 -0.4844
  488MOL0     H65826   6.907   9.121   4.439 -0.2040  1.7782  1.2781
  488MOL0     H65827   6.910   8.901   4.584 -1.1948 -0.9219 -3.1237
  488MOL0     H65828   7.090   8.933   4.594 -1.0883  0.9324  1.7782
  488MOL0     H65829   7.129   8.880   4.361  2.0526 -3.1309  2.5945
  488MOL0     H65830   7.056   8.751   4.434  1.8050  0.5910 -0.8465
  488MOL0     H65831   6.756   8.759   4.413  2.3818 -2.4069  0.8559
  488MOL0     H65832   6.590   8.733   4.071 -3.7771 -3.6857  1.1725
  488MOL0     H65833   6.564   8.693   4.231  0.6946 -0.2432 -0.9789
  488MOL0     H65834   6.499   8.969   4.104  2.7807  0.1660  1.3497
  488MOL0     H65835   6.401   8.827   4.104  0.4642 -1.8837  1.0492
  488MOL0     H65836   6.340   8.990   4.280  0.4523  0.3037 -0.0847
  488MOL0     H65837   6.478   8.944   4.362  0.9008 -0.4938 -1.5011
  488MOL0     H65838   6.382   8.707   4.393 -0.6854  0.8997 -0.9219
  488MOL0     H65839   6.269   8.743   4.262 -1.6616 -0.8697  0.4808
  488MOL0     H65840   6.191   8.543   4.407  1.7229 -1.8624  2.0959
  488MOL0     H65841   6.037   8.413   4.522  2.5599  0.3469  3.2961
  488MOL0     H65842   5.558   8.583   4.884  3.2978  0.1692 -1.7169
  488MOL0     H65843   5.411   8.464   5.048 -0.8051  0.2447 -2.6542
  488MOL0     H65844   5.494   8.392   5.321 -2.7319  1.5831 -0.0688
  488MOL0     H65845   5.355   8.374   5.231 -0.4444  0.2729  1.4165
  488MOL0     H65846   5.302   8.144   5.310  0.4189  0.2981 -0.7557
  488MOL0     H65847   5.442   8.131   5.405 -1.1485  0.5595  0.9849
  488MOL0     H65848   5.370   8.333   5.544 -0.2933 -0.6577 -0.5974
  488MOL0     H65849   5.206   8.272   5.485 -0.8284 -0.8063  1.4867
  488MOL0     H65850   5.389   8.161   5.691 -0.3622 -0.8328  0.5193
  488MOL0     H65851   5.296   8.043   5.583  2.0205 -0.6546 -0.1102
  488MOL0     H65852   5.195   8.091   5.799  1.0254 -1.3008 -0.2563
  488MOL0     H65853   5.080   8.103   5.669  0.0948  0.2928  0.0276
  488MOL0     H65854   5.095   8.360   5.679 -3.9230 -0.1354  0.3407
  488MOL0     H65855   5.017   8.285   5.813  0.6520 -1.8358 -0.5306
  488MOL0     H65856   5.179   8.468   5.843 -0.5174 -0.8159 -2.8878
  488MOL0     H65857   5.307   8.342   5.824  1.3612 -0.1574  1.9577
  488MOL0     H65858   5.087   8.295   6.028 -0.4359 -2.2162  0.7056
  488MOL0     H65859   5.216   8.193   5.990 -0.6814 -0.2848 -1.4265
  488MOL0     H65860   5.747   8.217   5.142  1.3618  0.4779  0.3948
  488MOL0     H65861   5.894   8.352   4.975  0.6737  3.7233 -2.7707
  488MOL0     H65862   5.919   8.742   4.762 -0.0897 -2.7840  1.2778
  488MOL0     H65863   6.087   8.891   4.632 -0.5597  0.0159 -1.6503
  488MOL0     H65864   7.652   9.604   4.355  2.3552 -0.9502 -1.3489
  488MOL0     H65865   7.872   9.669   4.357  1.1992  0.3070  0.3051
  488MOL0     H65866   8.062  10.115   4.461  0.6073  1.8352  1.0622
  488MOL0     H65867   8.238  10.261   4.423  0.3851 -0.1500 -2.3958
  488MOL0     H65868   8.689  10.203   4.371 -2.4974  0.1642 -1.8355
  488MOL0     H65869   8.656  10.151   4.531 -0.2250  2.7480  2.9951
  488MOL0     H65870   8.619  10.411   4.566 -0.9058 -0.0266 -0.0903
  488MOL0     H65871   8.751  10.413   4.444  2.2296 -2.2647  0.8551
  488MOL0     H65872   8.754  10.266   4.705 -3.9787  1.1180 -0.9841
  488MOL0     H65873   8.793  10.433   4.693  2.6979 -0.5896 -0.4997
  488MOL0     H65874   8.950  10.219   4.532  0.5623 -0.5174 -1.0357
  488MOL0     H65875   8.976  10.388   4.526 -2.7899 -0.3645 -1.5471
  488MOL0     H65876   9.192  10.305   4.876 -0.2796  1.3360  0.8271
  488MOL0     H65877   8.539   9.963   4.458 -0.8585  1.2272  5.6933
  488MOL0     H65878   8.326   9.685   4.418 -1.5229 -0.7631  3.2870
  488MOL0     H65879   8.482   9.724   4.473  0.5448  1.4465 -1.7997
  488MOL0     H65880   8.358   9.708   4.589 -1.5960  0.9618  0.1667
  489MOL0     O65881   5.611   5.908  10.340 -0.5024 -0.5888  0.6624
  489MOL0     C65882   5.577   5.790  10.343  0.4180  0.0595  0.2775
  489MOL0     O65883   5.468   5.738  10.284  0.4329  0.1616 -1.2639
  489MOL0     C65884   5.363   5.820  10.251  0.6647 -0.5875  0.2084
  489MOL0     C65885   5.255   5.812  10.338  0.6310 -0.7072 -0.6771
  489MOL0     C65886   5.141   5.889  10.310 -0.0824 -0.5438 -0.1621
  489MOL0     C65887   5.124   5.972  10.196 -0.4267  0.1209  0.4426
  489MOL0     O65888   5.011   6.039  10.159  0.0488 -0.5484  0.0932
  489MOL0     C65889   4.893   5.999  10.235 -0.7790 -1.4978  0.7655
  489MOL0     C65890   4.774   6.086  10.183  0.4926 -0.3176 -0.7344
  489MOL0     C65891   4.787   6.246  10.189  0.0925 -0.5393 -0.1686
  489MOL0     C65892   4.768   6.297  10.332  1.1023  0.0598 -0.1563
  489MOL0     C65893   4.802   6.447  10.335  0.5611  0.8590  0.5605
  489MOL0     C65894   4.819   6.510  10.473  1.5102  0.3622  0.3480
  489MOL0     C65895   4.833   6.666  10.463 -0.0623  0.3535 -0.1254
  489MOL0     C65896   4.822   6.720  10.612  0.8066  0.4993  0.1380
  489MOL0     N65897   4.684   6.753  10.651  0.7488  0.5154  1.1603
  489MOL0     C65898   4.603   6.863  10.621 -0.2298 -0.3476  0.3101
  489MOL0     C65899   4.493   6.843  10.700 -0.0845 -0.7144 -0.7425
  489MOL0     C65900   4.371   6.936  10.711 -0.5757 -0.1006 -1.3985
  489MOL0     C65901   4.299   6.955  10.582  0.5287 -0.4888 -0.3901
  489MOL0     C65902   4.252   6.825  10.520  0.0657  0.5230  0.7969
  489MOL0     C65903   4.154   6.750  10.619  0.2407 -0.4045 -0.2592
  489MOL0     O65904   4.069   6.657  10.554  0.1634 -0.8783  0.4289
  489MOL0     C65905   3.985   6.581  10.634 -0.1152  1.1413 -1.0250
  489MOL0     C65906   3.937   6.614  10.761  0.1111  0.1933  0.3494
  489MOL0     C65907   3.845   6.523  10.817 -0.5166 -0.3956  0.6113
  489MOL0     C65908   3.794   6.405  10.761  0.1490 -0.2999  0.0999
  489MOL0     C65909   3.702   6.308  10.829 -0.0363 -1.1244 -0.3998
  489MOL0     O65910   3.679   6.193  10.769 -0.2723  0.8554 -0.1298
  489MOL0     C65911   3.567   6.116  10.780 -0.4561  0.5757  0.3982
  489MOL0     C65912   3.589   5.987  10.740  0.0471  0.9296 -0.2531
  489MOL0     C65913   3.490   5.888  10.744  0.3618 -0.2865  0.1826
  489MOL0     C65914   3.365   5.927  10.790 -0.6354 -0.3482 -0.9599
  489MOL0     O65915   3.257   5.843  10.798  0.4189 -0.0848 -0.6535
  489MOL0     C65916   3.285   5.723  10.862  0.3142 -0.2111  0.2058
  489MOL0     C65917   3.137   5.666  10.865  0.0722  0.1305  0.1517
  489MOL0     C65918   3.156   5.528  10.933  0.4574 -0.5803 -0.3138
  489MOL0     C65919   3.013   5.464  10.952  0.3309 -0.7959  0.8911
  489MOL0     C65920   3.024   5.346  11.041  0.2906  0.8691 -0.1691
  489MOL0     C65921   2.888   5.281  11.045 -0.2657  0.3968  0.0658
  489MOL0     C65922   2.897   5.155  11.137  0.1640  0.1590  0.3720
  489MOL0     C65923   2.972   5.031  11.076 -0.2357 -0.0765 -0.0638
  489MOL0    Cl65924   2.908   4.977  10.920  0.4089 -0.4502 -0.2584
  489MOL0     C65925   3.345   6.063  10.835 -0.7128  0.6775 -0.1154
  489MOL0     C65926   3.446   6.156  10.824  0.3934 -0.6096 -0.1593
  489MOL0     O65927   3.657   6.344  10.944  0.2400 -0.1219  0.8676
  489MOL0     C65928   3.847   6.378  10.634 -1.2880  0.1672  0.5952
  489MOL0     C65929   3.948   6.457  10.578 -0.3409 -0.6791  0.2893
  489MOL0     N65930   4.508   6.726  10.764  0.1259  0.3697 -0.2863
  489MOL0     N65931   4.621   6.676  10.741  0.8335 -0.0414  0.0447
  489MOL0     C65932   5.235   5.974  10.106  0.5455 -0.4129  0.2855
  489MOL0     C65933   5.348   5.899  10.126  0.2432  0.1245 -0.2207
  489MOL0     C65934   5.675   5.693  10.395  0.5537  0.1266  1.7728
  489MOL0     C65935   5.806   5.704  10.346 -0.7212  0.6770 -0.8393
  489MOL0     C65936   5.906   5.612  10.382 -0.3945  0.1648  0.2404
  489MOL0     C65937   5.879   5.511  10.470 -0.3729  0.3880 -0.1034
  489MOL0     O65938   5.970   5.426  10.524  0.1296  0.3007 -0.6651
  489MOL0     C65939   6.058   5.480  10.627  0.8477  0.2202 -0.3254
  489MOL0     C65940   5.977   5.514  10.760  0.8069  0.6435  0.5907
  489MOL0     C65941   6.058   5.604  10.845  0.2240  0.9428  1.2364
  489MOL0     C65942   6.180   5.534  10.891 -0.9859  0.2769 -0.5922
  489MOL0     C65943   6.225   5.574  11.022 -0.3334  0.1360  0.0950
  489MOL0     C65944   6.257   5.626  11.122 -1.2402 -0.7493  0.1765
  489MOL0     C65945   5.751   5.500  10.514  0.2480  1.0204  0.2158
  489MOL0     C65946   5.647   5.587  10.487  1.0451 -0.6111 -0.2300
  489MOL0     C65947   5.507   5.567  10.557  0.5555  0.5781  0.0796
  489MOL0     H65948   5.256   5.746  10.424  0.1620  0.4739  0.2615
  489MOL0     H65949   5.058   5.877  10.378 -0.1904 -0.8336 -0.3397
  489MOL0     H65950   4.883   5.891  10.223  0.4146 -1.4829 -0.6069
  489MOL0     H65951   4.910   6.026  10.340 -1.8363  1.8159  0.2225
  489MOL0     H65952   4.680   6.054  10.229  1.5587 -1.3663  0.8010
  489MOL0     H65953   4.764   6.054  10.079 -0.7978 -0.1979 -0.6573
  489MOL0     H65954   4.713   6.290  10.122  0.6802 -0.4945 -0.7935
  489MOL0     H65955   4.879   6.290  10.148 -1.8983  1.7654 -2.4704
  489MOL0     H65956   4.668   6.285  10.373  0.7982  1.3846 -0.4492
  489MOL0     H65957   4.840   6.244  10.395  1.5870 -0.4364 -1.0971
  489MOL0     H65958   4.886   6.465  10.267 -1.0122 -0.9176 -2.0164
  489MOL0     H65959   4.721   6.485  10.271 -2.3980 -4.1772  0.7756
  489MOL0     H65960   4.733   6.482  10.534  0.4886  0.7742 -0.8585
  489MOL0     H65961   4.910   6.467  10.517  0.2687 -1.8137  0.9518
  489MOL0     H65962   4.762   6.713  10.395  1.7340  1.7730 -1.0874
  489MOL0     H65963   4.931   6.676  10.415 -0.4839  0.4134 -0.9778
  489MOL0     H65964   4.871   6.651  10.681 -0.0797 -0.8140 -0.5154
  489MOL0     H65965   4.870   6.819  10.608  0.3901  0.7414  0.9027
  489MOL0     H65966   4.617   6.944  10.551 -0.7056 -1.2619 -0.8735
  489MOL0     H65967   4.303   6.898  10.788  0.6657  2.2649  1.0265
  489MOL0     H65968   4.411   7.024  10.762  1.9460 -2.3172  0.7466
  489MOL0     H65969   4.215   7.023  10.599 -0.5734 -1.3340 -2.2439
  489MOL0     H65970   4.365   6.995  10.505 -0.5777  2.2110 -0.0647
  489MOL0     H65971   4.331   6.753  10.495  0.7513  0.8176  2.0363
  489MOL0     H65972   4.195   6.853  10.431  1.0437 -0.5709 -0.2208
  489MOL0     H65973   4.094   6.829  10.668  0.6118 -0.8066  0.8856
  489MOL0     H65974   4.212   6.705  10.701 -0.3980 -0.9422 -0.0886
  489MOL0     H65975   3.966   6.711  10.801 -1.1358  1.6604 -2.0731
  489MOL0     H65976   3.806   6.549  10.914 -2.2286  0.0769 -0.1664
  489MOL0     H65977   3.688   5.945  10.726  0.5880  2.3205 -0.8531
  489MOL0     H65978   3.527   5.793  10.708  1.0789 -1.0044  2.6699
  489MOL0     H65979   3.348   5.661  10.798  1.3585  0.6605  0.3579
  489MOL0     H65980   3.311   5.748  10.965 -2.5279  3.6477  0.2414
  489MOL0     H65981   3.074   5.729  10.928  0.3860 -0.7096  1.3427
  489MOL0     H65982   3.093   5.652  10.766  1.7196  0.1845 -0.6292
  489MOL0     H65983   3.223   5.455  10.886  1.6369  0.7194 -0.7516
  489MOL0     H65984   3.201   5.557  11.028  1.5071 -0.1011 -0.9368
  489MOL0     H65985   2.961   5.446  10.857 -1.7249 -0.2195  1.8487
  489MOL0     H65986   2.942   5.526  11.007 -1.2310 -1.9755  0.2934
  489MOL0     H65987   3.061   5.372  11.141  0.8776 -2.1759  0.5168
  489MOL0     H65988   3.098   5.284  10.989 -0.9950 -0.1376 -0.8469
  489MOL0     H65989   2.820   5.351  11.095  2.0593  2.6777  0.2144
  489MOL0     H65990   2.858   5.262  10.941 -0.6838  0.0370  0.2485
  489MOL0     H65991   2.799   5.123  11.172  0.2494  2.9106  3.5356
  489MOL0     H65992   2.954   5.181  11.226  2.8791 -3.2732 -0.1230
  489MOL0     H65993   3.080   5.045  11.067 -0.0200 -1.8453 -0.5753
  489MOL0     H65994   2.972   4.951  11.151  1.1067  0.0055  0.0450
  489MOL0     H65995   3.247   6.084  10.876 -1.7814 -1.1680 -1.5305
  489MOL0     H65996   3.421   6.260  10.845  2.9257 -0.4201  2.4643
  489MOL0     H65997   3.804   6.305  10.567  1.0081 -0.9473  0.2230
  489MOL0     H65998   4.005   6.440  10.487 -1.4914 -2.1240 -0.2050
  489MOL0     H65999   5.233   6.051  10.031 -1.1626 -0.1664  0.5484
  489MOL0     H66000   5.429   5.932  10.063  2.5706 -0.6318  2.2093
  489MOL0     H66001   5.827   5.768  10.261  2.3317 -0.4641 -1.0909
  489MOL0     H66002   6.004   5.626  10.337 -0.0222 -5.3602 -1.3361
  489MOL0     H66003   6.114   5.567  10.593  1.9930 -0.7226 -0.9186
  489MOL0     H66004   6.123   5.393  10.639  0.1727 -0.2686 -0.1328
  489MOL0     H66005   5.954   5.417  10.806  3.4340 -1.1703 -1.5988
  489MOL0     H66006   5.888   5.570  10.730 -0.6730 -2.0199 -0.3861
  489MOL0     H66007   5.994   5.629  10.929 -1.5407 -1.3339  0.6673
  489MOL0     H66008   6.095   5.692  10.790  5.0535 -1.8225 -0.5186
  489MOL0     H66009   6.177   5.425  10.884  1.7707  0.1290 -0.5453
  489MOL0     H66010   6.256   5.554  10.815 -1.2794 -0.2154 -1.0204
  489MOL0     H66011   6.293   5.680  11.207  0.9704 -2.0496  0.1295
  489MOL0     H66012   5.734   5.411  10.573  4.8547 -1.8625 -2.2693
  489MOL0     H66013   5.501   5.463  10.589  0.4338 -0.1743 -2.1920
  489MOL0     H66014   5.485   5.643  10.633 -2.8948 -0.3210  0.1313
  489MOL0     H66015   5.431   5.589  10.481  1.4552  0.7707 -0.7913
  490MOL0     O66016   2.197   3.176   3.367 -0.0960  0.5040  0.5714
  490MOL0     C66017   2.172   3.062   3.399  0.7316 -0.5623 -0.3488
  490MOL0     O66018   2.125   2.966   3.317  0.3713  0.4813 -0.7796
  490MOL0     C66019   2.062   3.013   3.207 -0.2284  0.0454  0.2744
  490MOL0     C66020   2.119   3.017   3.091 -1.4496  0.6998 -0.2210
  490MOL0     C66021   2.065   3.072   2.981 -0.3196  0.3440 -0.6511
  490MOL0     C66022   1.937   3.133   2.981  1.1354 -0.3125  0.1862
  490MOL0     O66023   1.864   3.194   2.875 -0.3503 -0.2703 -0.2398
  490MOL0     C66024   1.934   3.193   2.742  0.0639  0.9615  0.5586
  490MOL0     C66025   2.037   3.302   2.720 -0.0721 -0.3355  0.8108
  490MOL0     C66026   2.114   3.268   2.585  0.3085  0.8470 -0.4357
  490MOL0     C66027   2.065   3.316   2.448  0.1797  1.5921 -0.5271
  490MOL0     C66028   2.075   3.466   2.434 -0.4200 -0.2588  0.0096
  490MOL0     C66029   2.101   3.511   2.292  0.4816 -0.3400 -0.4958
  490MOL0     C66030   2.128   3.666   2.280 -0.1418 -0.0993 -0.7318
  490MOL0     C66031   2.131   3.718   2.137 -0.3453 -0.3457 -0.1317
  490MOL0     N66032   2.265   3.696   2.073 -0.2121  0.1809  0.0496
  490MOL0     C66033   2.311   3.769   1.961 -0.8967 -0.1621  0.1598
  490MOL0     C66034   2.425   3.698   1.931 -0.6421 -0.1367 -0.5695
  490MOL0     C66035   2.523   3.729   1.825  0.9705  0.0711  0.2327
  490MOL0     C66036   2.508   3.612   1.723 -0.4479  0.2460 -0.1491
  490MOL0     C66037   2.606   3.628   1.605  0.0346  0.8000 -0.5167
  490MOL0     C66038   2.753   3.601   1.638 -0.4144 -0.0732  1.0632
  490MOL0     O66039   2.777   3.466   1.677 -0.0987 -0.4554 -0.4004
  490MOL0     C66040   2.887   3.414   1.615  0.5785 -0.0936 -0.6774
  490MOL0     C66041   2.874   3.368   1.485 -0.6507  0.6970 -0.5707
  490MOL0     C66042   2.992   3.328   1.419  0.4298 -0.1489  0.9785
  490MOL0     C66043   3.120   3.330   1.479 -0.1966 -0.3196  0.1713
  490MOL0     C66044   3.235   3.292   1.403  0.7336 -0.9949 -0.2754
  490MOL0     O66045   3.223   3.268   1.272 -0.1893 -0.1848  0.7775
  490MOL0     C66046   3.334   3.293   1.198  0.5624 -0.2673 -0.4716
  490MOL0     C66047   3.402   3.192   1.147 -0.2502  0.1264  0.4161
  490MOL0     C66048   3.506   3.212   1.057  0.5491 -0.3427 -0.4840
  490MOL0     C66049   3.538   3.341   1.017  0.0215  0.0142  0.3531
  490MOL0     O66050   3.632   3.349   0.910 -0.2046 -0.6140 -0.4595
  490MOL0     C66051   3.650   3.468   0.834  0.1747  0.0928 -0.2726
  490MOL0     C66052   3.746   3.446   0.722  0.3353 -0.1169 -0.4501
  490MOL0     C66053   3.891   3.431   0.780 -0.4668  1.1208 -0.0758
  490MOL0     C66054   3.923   3.281   0.797 -0.5985  0.2079 -0.4136
  490MOL0     C66055   4.071   3.268   0.827 -0.4597  0.4444  0.2731
  490MOL0     C66056   4.107   3.120   0.807 -0.5431  0.0361  0.1627
  490MOL0     C66057   4.260   3.098   0.830 -0.5817 -0.7504  0.0120
  490MOL0     C66058   4.293   2.953   0.799 -0.7296 -0.2730 -0.9696
  490MOL0    Cl66059   4.221   2.852   0.928 -0.2321  0.1446  0.4560
  490MOL0     C66060   3.488   3.447   1.096 -0.6384 -0.2736 -0.4687
  490MOL0     C66061   3.379   3.424   1.182 -0.0452 -0.3667  0.2591
  490MOL0     O66062   3.336   3.298   1.465 -0.2858  0.2264  0.2206
  490MOL0     C66063   3.121   3.352   1.619 -0.6212 -0.5442 -0.4856
  490MOL0     C66064   3.014   3.409   1.679  0.9927  0.0869 -0.1685
  490MOL0     N66065   2.456   3.605   2.024 -0.0226  0.1565  0.1721
  490MOL0     N66066   2.361   3.606   2.110  0.4283  0.0639 -0.6016
  490MOL0     C66067   1.865   3.110   3.098 -0.6722  0.3028  0.9816
  490MOL0     C66068   1.932   3.067   3.217 -0.1789 -0.3419  1.1665
  490MOL0     C66069   2.205   3.021   3.535 -0.0017 -0.6361 -0.5148
  490MOL0     C66070   2.305   2.921   3.551  1.1053 -0.8242  0.3929
  490MOL0     C66071   2.339   2.869   3.676  0.0339 -0.1913 -1.1879
  490MOL0     C66072   2.268   2.919   3.789  0.5311 -0.1170  0.2516
  490MOL0     O66073   2.302   2.868   3.912 -0.9348  0.4796  0.8383
  490MOL0     C66074   2.441   2.861   3.941 -1.0344  0.7456 -0.0257
  490MOL0     C66075   2.459   2.812   4.085 -0.5800 -0.0554 -0.5429
  490MOL0     C66076   2.411   2.931   4.170 -0.3840  0.1855  0.5622
  490MOL0     C66077   2.411   2.893   4.310 -0.1923 -0.3812 -0.4495
  490MOL0     C66078   2.548   2.885   4.363 -0.5357 -1.0229  0.2571
  490MOL0     C66079   2.654   2.867   4.429 -1.0744 -0.8261  1.6822
  490MOL0     C66080   2.190   3.028   3.764  0.0648 -0.1668  0.1119
  490MOL0     C66081   2.148   3.080   3.651 -0.1740 -0.1005  0.0050
  490MOL0     C66082   2.033   3.184   3.657  0.4965  0.8467  0.7887
  490MOL0     H66083   2.221   2.984   3.074 -1.6911 -0.1995  0.0186
  490MOL0     H66084   2.135   3.082   2.899  2.9731  0.1331  1.9376
  490MOL0     H66085   1.977   3.093   2.730 -0.1672  0.8815  0.3899
  490MOL0     H66086   1.855   3.201   2.667  0.7238  2.0952 -0.0322
  490MOL0     H66087   2.111   3.296   2.800  1.0595  1.5126 -0.0313
  490MOL0     H66088   1.986   3.400   2.720 -0.0013 -0.2378 -1.6652
  490MOL0     H66089   2.121   3.159   2.585  0.6862  0.8727 -0.2338
  490MOL0     H66090   2.215   3.302   2.606  0.1139  2.6015 -2.0255
  490MOL0     H66091   2.108   3.254   2.369 -3.4681 -0.0281 -1.4619
  490MOL0     H66092   1.963   3.280   2.432  1.7279 -3.4666 -0.8275
  490MOL0     H66093   1.977   3.508   2.460  0.3802  3.7180 -2.4849
  490MOL0     H66094   2.155   3.504   2.498  3.5919 -5.5573 -1.1790
  490MOL0     H66095   2.189   3.461   2.250  2.5188  1.2525  1.6340
  490MOL0     H66096   2.013   3.484   2.233 -1.7831 -1.3207  3.0000
  490MOL0     H66097   2.208   3.708   2.342 -1.5973  0.4311  0.8892
  490MOL0     H66098   2.038   3.713   2.323  0.0169  1.4027 -1.9651
  490MOL0     H66099   2.044   3.679   2.083 -2.1758  1.5371  1.3039
  490MOL0     H66100   2.109   3.825   2.136 -2.4887 -0.7331 -0.3554
  490MOL0     H66101   2.274   3.842   1.890  0.5491 -2.8836 -3.7759
  490MOL0     H66102   2.508   3.833   1.793  2.8406  0.6051  0.9718
  490MOL0     H66103   2.625   3.731   1.864  0.1467  0.8818  2.4763
  490MOL0     H66104   2.519   3.511   1.765 -0.5089 -0.7449 -2.4050
  490MOL0     H66105   2.410   3.611   1.675 -1.0426 -2.5754  0.9013
  490MOL0     H66106   2.587   3.728   1.565  2.2045  1.0563 -1.0091
  490MOL0     H66107   2.575   3.561   1.524 -0.2822  1.8534 -1.2922
  490MOL0     H66108   2.790   3.679   1.705 -2.1187  2.6538 -0.9114
  490MOL0     H66109   2.811   3.618   1.546 -2.2459  0.9221  0.0342
  490MOL0     H66110   2.788   3.351   1.422 -0.5566 -2.9305  0.0852
  490MOL0     H66111   2.986   3.318   1.311 -0.1878  1.1920  0.8766
  490MOL0     H66112   3.377   3.087   1.161 -0.6199 -0.3821 -3.1278
  490MOL0     H66113   3.541   3.128   0.998 -2.3668 -1.4821 -0.7866
  490MOL0     H66114   3.551   3.500   0.799 -1.5738 -1.2095  3.0250
  490MOL0     H66115   3.689   3.541   0.905  1.3595  0.0432 -0.8404
  490MOL0     H66116   3.706   3.368   0.657 -3.0439 -1.6885  3.0776
  490MOL0     H66117   3.757   3.539   0.667 -1.3011  0.9798  0.9624
  490MOL0     H66118   3.964   3.463   0.705  0.5546 -1.9484 -0.5227
  490MOL0     H66119   3.902   3.485   0.874  0.8464  0.4114  0.2050
  490MOL0     H66120   3.896   3.235   0.701  0.9809  1.4151 -1.4838
  490MOL0     H66121   3.859   3.242   0.876 -0.6397 -0.8779 -0.9643
  490MOL0     H66122   4.085   3.304   0.929  0.6051  0.4810  0.1248
  490MOL0     H66123   4.130   3.321   0.752 -0.6280 -0.6279 -0.6499
  490MOL0     H66124   4.055   3.059   0.882 -0.3189  0.8502  1.0155
  490MOL0     H66125   4.075   3.092   0.707 -0.9687  2.8375 -0.5816
  490MOL0     H66126   4.282   3.114   0.936 -0.2012 -2.5325  0.2265
  490MOL0     H66127   4.311   3.173   0.767 -0.2225 -0.8597  0.1709
  490MOL0     H66128   4.257   2.910   0.705  0.2628 -2.5679 -0.3673
  490MOL0     H66129   4.401   2.941   0.808 -0.5667  1.1870 -0.6709
  490MOL0     H66130   3.528   3.547   1.083 -2.8315  0.9008  1.1225
  490MOL0     H66131   3.328   3.507   1.230 -1.5959 -0.8446 -0.5048
  490MOL0     H66132   3.208   3.335   1.682 -0.6582 -5.9486 -1.4100
  490MOL0     H66133   3.027   3.451   1.779  1.8303 -0.2009 -0.1497
  490MOL0     H66134   1.767   3.156   3.111 -0.8572  1.5924 -3.4212
  490MOL0     H66135   1.875   3.062   3.309  0.3401 -1.3460  1.4497
  490MOL0     H66136   2.350   2.884   3.460 -2.1162 -2.1095 -0.8160
  490MOL0     H66137   2.408   2.785   3.675  1.2896  0.8111 -1.4542
  490MOL0     H66138   2.500   2.953   3.934  1.6116 -0.1901  5.1985
  490MOL0     H66139   2.491   2.786   3.878 -1.5286  0.6127 -0.2667
  490MOL0     H66140   2.565   2.794   4.101 -0.2181  2.2829  0.0752
  490MOL0     H66141   2.409   2.716   4.104  0.2029  0.1034  3.0440
  490MOL0     H66142   2.309   2.951   4.135 -0.2024 -0.7926 -0.5956
  490MOL0     H66143   2.473   3.019   4.150  2.4708 -1.9420 -0.5738
  490MOL0     H66144   2.350   2.969   4.359  0.2598 -0.1382 -0.2548
  490MOL0     H66145   2.355   2.799   4.315 -0.7118 -0.0461  3.4121
  490MOL0     H66146   2.746   2.840   4.478  0.7687  3.9797  1.4647
  490MOL0     H66147   2.156   3.082   3.852  0.2360  1.0467 -0.5332
  490MOL0     H66148   2.077   3.272   3.610 -2.2433  0.4473 -2.9358
  490MOL0     H66149   1.960   3.141   3.589  3.4395 -0.2660 -1.9163
  490MOL0     H66150   1.993   3.196   3.758 -0.2319 -1.4496  0.8206
  491MOL0     O66151   9.857   3.120   3.654  0.2811  1.0070  0.3169
  491MOL0     C66152   9.795   3.149   3.761  0.7274 -0.1261  0.1680
  491MOL0     O66153   9.765   3.067   3.867 -0.1103  0.6633  0.5490
  491MOL0     C66154   9.776   2.934   3.830  0.0992  0.5316  0.1247
  491MOL0     C66155   9.658   2.850   3.845 -0.8737  0.0019  0.1963
  491MOL0     C66156   9.678   2.712   3.826 -0.8040  0.1279 -0.5141
  491MOL0     C66157   9.794   2.652   3.801  0.8226  0.2616  0.2267
  491MOL0     O66158   9.794   2.516   3.791  0.0283 -0.5548  0.3310
  491MOL0     C66159   9.723   2.442   3.687 -0.7090 -0.1856  0.3142
  491MOL0     C66160   9.785   2.306   3.685  0.3165 -0.2203 -1.1215
  491MOL0     C66161   9.692   2.178   3.652  0.3281  0.4769 -0.6765
  491MOL0     C66162   9.615   2.200   3.523 -0.6983  0.0286  0.0280
  491MOL0     C66163   9.588   2.069   3.462  0.8156  0.2009  0.1587
  491MOL0     C66164   9.505   1.978   3.543 -0.8816  0.4502 -0.1865
  491MOL0     C66165   9.435   1.861   3.468  0.0879  0.2679 -0.4217
  491MOL0     C66166   9.537   1.755   3.417  0.6671  0.1449 -0.0958
  491MOL0     N66167   9.477   1.626   3.384 -0.5437  0.4039  0.8531
  491MOL0     C66168   9.406   1.598   3.268  0.3661 -0.2626  0.3507
  491MOL0     C66169   9.358   1.468   3.292  0.2547 -0.0296  0.0394
  491MOL0     C66170   9.261   1.406   3.195  0.0179  0.6558 -0.2663
  491MOL0     C66171   9.132   1.475   3.180  1.0593 -0.5885  0.4661
  491MOL0     C66172   9.038   1.372   3.102 -0.7261 -1.0698 -0.7432
  491MOL0     C66173   8.897   1.415   3.072  0.7070  0.2154  0.2102
  491MOL0     O66174   8.817   1.310   3.005 -0.1785 -0.5186 -1.1056
  491MOL0     C66175   8.737   1.219   3.065  0.0125  0.3556 -0.1245
  491MOL0     C66176   8.724   1.090   3.007 -0.0804  0.4253  0.6117
  491MOL0     C66177   8.642   1.000   3.070 -0.0924 -0.4560 -0.2737
  491MOL0     C66178   8.571   1.028   3.195 -0.4620 -0.8570  0.1222
  491MOL0     C66179   8.492   0.933   3.277  0.0473 -0.3174  0.0050
  491MOL0     O66180   8.451   0.970   3.412 -0.7399  0.2805  0.9593
  491MOL0     C66181   8.389   0.870   3.477 -1.0790 -0.4747  0.9699
  491MOL0     C66182   8.456   0.752   3.513  0.6260  0.2042  0.3449
  491MOL0     C66183   8.397   0.660   3.594 -0.1937 -0.7728 -0.3057
  491MOL0     C66184   8.260   0.679   3.641 -0.7310 -0.8220  0.2666
  491MOL0     O66185   8.188   0.587   3.710  0.2720 -0.8475 -0.3668
  491MOL0     C66186   8.235   0.463   3.729  1.5878 -0.7199 -0.1047
  491MOL0     C66187   8.127   0.389   3.811  0.1896 -0.1833 -0.4510
  491MOL0     C66188   8.186   0.268   3.871 -0.3401 -0.3302  0.2009
  491MOL0     C66189   8.109   0.142   3.852  1.1685 -0.0362 -0.0125
  491MOL0     C66190   8.194   0.016   3.894  0.6672 -0.5058  0.0090
  491MOL0     C66191   8.093  -0.106   3.872 -0.2215 -0.2843  0.2365
  491MOL0     C66192   7.984  -0.128   3.969  0.3951  0.6806 -0.4048
  491MOL0     C66193   7.888  -0.236   3.925  0.3962 -0.2192 -0.9499
  491MOL0    Cl66194   7.749  -0.155   3.846 -0.0533  0.0374  0.4887
  491MOL0     C66195   8.188   0.790   3.594  0.2200  0.3801 -0.0729
  491MOL0     C66196   8.255   0.887   3.520 -0.2722 -0.5139 -0.2347
  491MOL0     O66197   8.490   0.821   3.226 -0.0909  0.7072  0.4503
  491MOL0     C66198   8.589   1.153   3.250 -0.1148  0.0884 -0.6529
  491MOL0     C66199   8.673   1.245   3.191  0.4287  0.1158 -0.6516
  491MOL0     N66200   9.392   1.426   3.423 -0.3245  0.0231  0.1413
  491MOL0     N66201   9.465   1.519   3.478  0.0880  1.0363 -0.6697
  491MOL0     C66202   9.897   2.736   3.773 -0.5508 -0.4433  0.0534
  491MOL0     C66203   9.890   2.877   3.778 -0.8997 -0.0402 -0.4162
  491MOL0     C66204   9.763   3.288   3.782 -0.1088  0.5554 -1.1125
  491MOL0     C66205   9.812   3.346   3.892 -1.0379 -0.4826  0.3207
  491MOL0     C66206   9.781   3.487   3.918 -0.0294  0.0777  0.1927
  491MOL0     C66207   9.719   3.571   3.827 -0.3634 -0.5158  0.6912
  491MOL0     O66208   9.690   3.701   3.834  0.0235  0.7447 -0.1268
  491MOL0     C66209   9.796   3.780   3.886 -0.6271 -0.2712  0.5081
  491MOL0     C66210   9.746   3.929   3.868  0.3942 -0.2532 -0.5730
  491MOL0     C66211   9.840   4.041   3.905 -0.6636 -0.5422 -0.3654
  491MOL0     C66212   9.770   4.175   3.896  0.4183  0.4305  0.0128
  491MOL0     C66213   9.829   4.296   3.947 -0.3374  0.3305 -0.1157
  491MOL0     C66214   9.867   4.403   3.995  0.2421 -0.0918 -0.3457
  491MOL0     C66215   9.673   3.505   3.718 -0.5405  0.4132  0.4654
  491MOL0     C66216   9.703   3.372   3.688  0.2155 -0.5263  0.5590
  491MOL0     C66217   9.644   3.324   3.557  0.1617  0.7830 -0.6247
  491MOL0     H66218   9.559   2.880   3.876 -0.1913 -1.5178  4.5881
  491MOL0     H66219   9.586   2.654   3.830 -1.6519  1.2403 -2.5130
  491MOL0     H66220   9.615   2.442   3.701 -0.8721  2.2249 -0.6349
  491MOL0     H66221   9.729   2.485   3.587 -4.0471  0.1166  0.1348
  491MOL0     H66222   9.822   2.290   3.787 -1.6257  0.8666 -0.1908
  491MOL0     H66223   9.873   2.298   3.621 -0.1706 -0.6970 -1.7393
  491MOL0     H66224   9.614   2.169   3.728  2.1335  1.9468  1.4662
  491MOL0     H66225   9.753   2.088   3.642  2.4036  1.7954 -0.5495
  491MOL0     H66226   9.523   2.258   3.528 -1.6422 -1.3093 -1.0063
  491MOL0     H66227   9.692   2.248   3.461  0.4203 -1.4680  0.1929
  491MOL0     H66228   9.541   2.078   3.363  1.8250 -1.4895 -0.5255
  491MOL0     H66229   9.683   2.020   3.439  1.5909  1.9867 -0.6517
  491MOL0     H66230   9.549   1.933   3.632  2.1443  4.4308  0.5989
  491MOL0     H66231   9.427   2.042   3.585 -0.4383  0.2127  1.0354
  491MOL0     H66232   9.374   1.896   3.384 -1.4632 -2.6968 -0.6662
  491MOL0     H66233   9.356   1.821   3.533 -0.8306  0.6577 -1.2621
  491MOL0     H66234   9.606   1.789   3.340  3.0112 -2.8199  0.4985
  491MOL0     H66235   9.612   1.731   3.493  1.0285 -0.8930 -0.7604
  491MOL0     H66236   9.379   1.667   3.189 -2.0490 -0.3495  1.0135
  491MOL0     H66237   9.305   1.380   3.098 -1.2431 -2.6831 -0.0626
  491MOL0     H66238   9.246   1.307   3.239  0.2636 -0.3294 -2.2767
  491MOL0     H66239   9.079   1.511   3.268 -1.7003 -2.1978 -0.4184
  491MOL0     H66240   9.152   1.560   3.113  0.0748 -1.3981 -0.9053
  491MOL0     H66241   9.017   1.289   3.171  0.0443 -0.9944 -0.4005
  491MOL0     H66242   9.087   1.336   3.011 -1.8216  0.7105 -2.1004
  491MOL0     H66243   8.910   1.500   3.005  2.0513  2.9788  3.6179
  491MOL0     H66244   8.860   1.457   3.166 -1.4596  1.3622 -1.0777
  491MOL0     H66245   8.786   1.066   2.922 -0.4647 -0.2896  0.5347
  491MOL0     H66246   8.649   0.899   3.030  0.0655  0.6423 -3.2671
  491MOL0     H66247   8.560   0.751   3.483  0.9947 -1.2991  1.5768
  491MOL0     H66248   8.446   0.565   3.611  0.4477 -0.8725 -2.4457
  491MOL0     H66249   8.250   0.402   3.640 -0.6713 -1.6474  0.0625
  491MOL0     H66250   8.325   0.468   3.790  2.3142 -1.3251 -1.1088
  491MOL0     H66251   8.068   0.453   3.878 -2.0646 -1.1509 -1.3754
  491MOL0     H66252   8.039   0.370   3.748 -0.1528  0.7459 -0.2737
  491MOL0     H66253   8.287   0.260   3.832  0.3211  2.6929  1.0176
  491MOL0     H66254   8.186   0.293   3.978 -2.2098 -1.0070  0.4055
  491MOL0     H66255   8.092   0.142   3.744  3.8289 -0.7502 -0.5014
  491MOL0     H66256   8.009   0.152   3.896 -0.1409 -0.3396 -2.6774
  491MOL0     H66257   8.221   0.015   4.000  4.1328 -2.3368 -0.7573
  491MOL0     H66258   8.292   0.011   3.846 -0.0202  3.2938 -2.2849
  491MOL0     H66259   8.054  -0.112   3.770 -2.5339 -3.6020  1.1750
  491MOL0     H66260   8.159  -0.192   3.887  1.4808  0.3992 -2.5110
  491MOL0     H66261   7.927  -0.043   4.006  1.9133  2.0495 -1.0906
  491MOL0     H66262   8.045  -0.162   4.053 -2.5772  0.4584  1.8193
  491MOL0     H66263   7.940  -0.317   3.873 -0.1633 -2.2459  1.4188
  491MOL0     H66264   7.847  -0.280   4.017 -1.3601  1.2671 -0.9735
  491MOL0     H66265   8.084   0.789   3.623  0.1143 -2.5684 -0.2494
  491MOL0     H66266   8.209   0.984   3.500 -0.0384 -0.1726  0.8395
  491MOL0     H66267   8.546   1.176   3.346 -2.0889 -0.2629 -1.4005
  491MOL0     H66268   8.679   1.339   3.245  2.0955  0.7985 -1.9384
  491MOL0     H66269   9.993   2.696   3.742 -2.3512 -3.4877 -2.2223
  491MOL0     H66270   9.970   2.937   3.736 -1.3791  0.7844 -0.1727
  491MOL0     H66271   9.874   3.292   3.962 -0.1035  0.1944  0.0374
  491MOL0     H66272   9.828   3.541   4.001 -4.2594  0.6180  2.5075
  491MOL0     H66273   9.898   3.750   3.859  0.5114  1.4804  2.5369
  491MOL0     H66274   9.785   3.759   3.993 -1.9057 -1.9338  0.0874
  491MOL0     H66275   9.655   3.944   3.926 -0.6411 -3.6228 -1.0909
  491MOL0     H66276   9.722   3.944   3.763 -1.6593  1.6097  0.0926
  491MOL0     H66277   9.929   4.046   3.841  3.4891  0.0939  4.7215
  491MOL0     H66278   9.873   4.031   4.009 -1.9159 -5.7935 -0.2104
  491MOL0     H66279   9.749   4.200   3.792  0.8252 -1.6081 -0.5925
  491MOL0     H66280   9.673   4.162   3.945 -0.0559 -2.0854 -1.4249
  491MOL0     H66281   9.934   4.483   4.021  0.4761  0.4125 -2.3237
  491MOL0     H66282   9.620   3.568   3.647 -0.8352 -1.2999 -0.9025
  491MOL0     H66283   9.721   3.286   3.489  1.4920  3.4915 -0.7804
  491MOL0     H66284   9.571   3.248   3.584 -0.2843  1.3781 -0.1411
  491MOL0     H66285   9.579   3.398   3.508 -1.0128  0.9316  1.0901
  492MOL0     O66286   8.420   3.308   6.665 -0.3473 -0.5101 -0.3467
  492MOL0     C66287   8.449   3.365   6.559 -0.9151 -0.9075 -0.1922
  492MOL0     O66288   8.379   3.466   6.495 -0.2853  0.0926 -0.0025
  492MOL0     C66289   8.292   3.552   6.569 -0.3572  0.6785  0.0884
  492MOL0     C66290   8.149   3.523   6.579 -0.1965 -0.5578 -0.0884
  492MOL0     C66291   8.063   3.616   6.638 -0.1599 -0.2461  0.0621
  492MOL0     C66292   8.117   3.726   6.709 -0.7826 -0.7396 -0.1386
  492MOL0     O66293   8.028   3.792   6.791  0.0826  1.2447  0.4834
  492MOL0     C66294   8.067   3.932   6.833 -0.3900  0.0515  1.0042
  492MOL0     C66295   7.969   3.981   6.926  0.7558 -0.1350  0.0662
  492MOL0     C66296   7.978   4.118   6.981  0.2434 -0.8207 -0.0884
  492MOL0     C66297   8.004   4.216   6.867 -0.0335 -0.0467  0.2021
  492MOL0     C66298   8.006   4.358   6.913  0.5495 -1.0170  0.8289
  492MOL0     C66299   8.107   4.370   7.033 -0.1814 -0.3796  0.6463
  492MOL0     C66300   8.079   4.510   7.106  0.2676  0.9048  0.5455
  492MOL0     C66301   8.213   4.575   7.116  0.4368 -0.1006  0.6574
  492MOL0     N66302   8.318   4.516   7.196  0.3321 -0.1014 -0.5933
  492MOL0     C66303   8.314   4.522   7.332  0.8502 -0.1590  0.2645
  492MOL0     C66304   8.431   4.469   7.373 -0.6249  0.3385  0.0289
  492MOL0     C66305   8.468   4.439   7.516  0.0534  0.4869  0.5602
  492MOL0     C66306   8.381   4.338   7.584  0.2348  0.5576  0.9896
  492MOL0     C66307   8.309   4.384   7.717  1.1286 -0.0322  1.1605
  492MOL0     C66308   8.392   4.427   7.831  0.0394  0.3680 -0.3395
  492MOL0     O66309   8.307   4.415   7.943  0.3149 -0.1326  0.3386
  492MOL0     C66310   8.355   4.475   8.060  0.0959  0.8030  0.6412
  492MOL0     C66311   8.485   4.504   8.082 -0.1917  1.1023  0.1834
  492MOL0     C66312   8.543   4.545   8.203  0.4892  0.8034  0.6996
  492MOL0     C66313   8.447   4.541   8.317 -1.0773 -0.7160  0.3158
  492MOL0     C66314   8.493   4.589   8.448 -0.8202 -0.0342 -0.7025
  492MOL0     O66315   8.409   4.580   8.556  0.5068 -0.2981 -0.1796
  492MOL0     C66316   8.451   4.599   8.680  0.2160 -0.4919 -0.7314
  492MOL0     C66317   8.379   4.689   8.763 -0.1626 -0.0217 -0.3597
  492MOL0     C66318   8.422   4.697   8.891 -0.0649 -0.1037  0.0507
  492MOL0     C66319   8.508   4.614   8.956 -0.4584  1.6868  0.0956
  492MOL0     O66320   8.528   4.630   9.097 -0.6713 -0.2377  0.2660
  492MOL0     C66321   8.565   4.757   9.145 -0.0798 -0.5850 -0.4329
  492MOL0     C66322   8.516   4.788   9.287  0.0663 -0.5973  0.0629
  492MOL0     C66323   8.559   4.931   9.332  0.6204 -0.6211 -0.5172
  492MOL0     C66324   8.710   4.952   9.338  0.6726  0.0698 -0.4699
  492MOL0     C66325   8.731   5.092   9.403 -0.3552  0.8590 -0.3592
  492MOL0     C66326   8.879   5.124   9.427 -0.1320  1.4561 -0.3160
  492MOL0     C66327   8.969   5.143   9.299 -0.1464  0.4490 -0.3971
  492MOL0     C66328   9.121   5.140   9.322  0.1887 -0.0059 -0.0072
  492MOL0    Cl66329   9.145   5.208   9.486  0.0016  0.5859  0.1348
  492MOL0     C66330   8.563   4.515   8.879  0.5847  0.7477  0.8422
  492MOL0     C66331   8.539   4.510   8.743 -0.5836 -0.1450 -0.2857
  492MOL0     O66332   8.618   4.623   8.452  0.3184  0.0640  0.4443
  492MOL0     C66333   8.305   4.520   8.292 -0.3618 -0.6505  0.1319
  492MOL0     C66334   8.261   4.484   8.163 -0.5625 -0.2700  1.0089
  492MOL0     N66335   8.514   4.463   7.260  0.2056  0.6157 -0.0436
  492MOL0     N66336   8.444   4.491   7.160  0.7848  0.1221  0.2284
  492MOL0     C66337   8.265   3.755   6.698 -0.3370 -0.0121  0.4100
  492MOL0     C66338   8.348   3.664   6.626  0.2606  0.1261 -0.1096
  492MOL0     C66339   8.540   3.282   6.485 -0.2411  0.2856  0.0288
  492MOL0     C66340   8.535   3.310   6.346 -0.7329 -0.1254  0.2868
  492MOL0     C66341   8.619   3.249   6.250 -0.4667 -0.2835 -0.1455
  492MOL0     C66342   8.706   3.149   6.298  0.2673 -0.4919 -0.2291
  492MOL0     O66343   8.792   3.081   6.211  0.3869  1.1167 -0.1278
  492MOL0     C66344   8.889   3.175   6.144 -0.2539  0.5948 -0.0301
  492MOL0     C66345   8.987   3.101   6.053 -0.8126  0.0612  0.5601
  492MOL0     C66346   9.056   2.984   6.124  0.1585  0.5212  0.3046
  492MOL0     C66347   9.143   3.006   6.245 -0.2339 -0.4374  0.2783
  492MOL0     C66348   9.173   2.874   6.300  0.1409  1.1858 -0.6531
  492MOL0     C66349   9.202   2.765   6.343 -0.6042 -0.3295  0.8753
  492MOL0     C66350   8.705   3.117   6.436 -0.9458 -0.6253  0.0166
  492MOL0     C66351   8.614   3.170   6.529  0.3603 -0.5489 -0.1382
  492MOL0     C66352   8.610   3.107   6.669  0.0027  0.4523 -0.3719
  492MOL0     H66353   8.123   3.426   6.537  3.9569 -1.3078 -1.4872
  492MOL0     H66354   7.955   3.606   6.637 -0.5054  1.7872 -3.6241
  492MOL0     H66355   8.157   3.936   6.895 -1.5444 -1.9642  2.9334
  492MOL0     H66356   8.061   3.990   6.740  0.5214 -2.0158 -0.4422
  492MOL0     H66357   7.967   3.902   7.002  0.1218 -1.7889 -1.5831
  492MOL0     H66358   7.869   3.980   6.881 -0.3690  1.9784  2.2797
  492MOL0     H66359   8.060   4.103   7.052  0.6799 -1.6716 -0.7426
  492MOL0     H66360   7.898   4.148   7.048  1.2213  1.6931  0.0351
  492MOL0     H66361   8.097   4.188   6.817 -0.2141 -0.8519  0.2975
  492MOL0     H66362   7.930   4.218   6.786  0.6394 -1.7370 -0.5106
  492MOL0     H66363   8.008   4.427   6.828  0.7363 -1.1041  0.7620
  492MOL0     H66364   7.910   4.376   6.962  0.4759  0.4095  0.2018
  492MOL0     H66365   8.095   4.298   7.114  2.8907 -1.5140  0.2117
  492MOL0     H66366   8.210   4.354   7.000 -1.0926 -1.3239 -1.9944
  492MOL0     H66367   8.025   4.498   7.201 -0.3727 -1.5027 -0.0336
  492MOL0     H66368   8.029   4.581   7.040 -0.2448 -1.6706 -2.0380
  492MOL0     H66369   8.261   4.585   7.018  1.6685  1.1582  1.3433
  492MOL0     H66370   8.199   4.678   7.152 -0.3999  0.2712 -0.6845
  492MOL0     H66371   8.237   4.554   7.401  0.0917 -3.5129  1.1184
  492MOL0     H66372   8.574   4.417   7.534  1.0564  1.4199 -3.2109
  492MOL0     H66373   8.446   4.529   7.573  0.7357  0.9964  0.0323
  492MOL0     H66374   8.308   4.314   7.506  0.7093  1.8112  0.1143
  492MOL0     H66375   8.444   4.260   7.625 -2.2635 -1.5504  1.0769
  492MOL0     H66376   8.247   4.299   7.748  0.3832  0.2531  0.4768
  492MOL0     H66377   8.238   4.466   7.701 -0.3986 -1.5164  0.0640
  492MOL0     H66378   8.415   4.533   7.821 -4.0257  1.7025  1.9274
  492MOL0     H66379   8.474   4.355   7.845  0.7862  1.1523 -0.5727
  492MOL0     H66380   8.566   4.497   8.010  2.3690  1.5175  2.8294
  492MOL0     H66381   8.651   4.548   8.197  0.4358  3.7069 -0.8902
  492MOL0     H66382   8.296   4.752   8.735  0.3674  0.7306 -0.2719
  492MOL0     H66383   8.350   4.758   8.945 -2.0850 -1.8204 -0.5380
  492MOL0     H66384   8.674   4.764   9.145 -0.1782  2.6745  1.5052
  492MOL0     H66385   8.545   4.840   9.077 -0.5135  0.0945  0.4965
  492MOL0     H66386   8.406   4.791   9.286  0.0614  0.8390  1.0108
  492MOL0     H66387   8.561   4.720   9.360  2.2922  2.6537  1.9819
  492MOL0     H66388   8.522   5.010   9.267  1.0389 -0.0282 -0.0465
  492MOL0     H66389   8.505   4.941   9.427  1.4858 -0.0831 -0.0700
  492MOL0     H66390   8.739   4.951   9.232  1.4202  0.3710 -0.2739
  492MOL0     H66391   8.768   4.876   9.392  0.3881 -0.5756 -1.0605
  492MOL0     H66392   8.666   5.112   9.489  0.2681 -2.5655  1.0499
  492MOL0     H66393   8.696   5.170   9.334  1.5831  0.7613 -1.5141
  492MOL0     H66394   8.869   5.213   9.490 -2.2232  1.2468 -0.2787
  492MOL0     H66395   8.916   5.046   9.495 -0.0391  2.0747  0.3539
  492MOL0     H66396   8.933   5.238   9.259 -2.1258  0.0952  0.4174
  492MOL0     H66397   8.947   5.065   9.226  2.2047  0.5044 -1.2224
  492MOL0     H66398   9.148   5.034   9.318 -1.3239 -0.4589  0.7938
  492MOL0     H66399   9.185   5.195   9.252 -0.9442  2.2448  0.6477
  492MOL0     H66400   8.628   4.445   8.930 -0.1770  1.8649  3.5156
  492MOL0     H66401   8.588   4.437   8.680 -0.8868  0.8229 -1.6760
  492MOL0     H66402   8.241   4.532   8.378 -0.7185  0.9098 -0.3203
  492MOL0     H66403   8.160   4.473   8.124 -0.6125 -1.4401  1.4267
  492MOL0     H66404   8.308   3.835   6.758  4.0393 -2.6431  1.2400
  492MOL0     H66405   8.447   3.701   6.601 -0.6123  1.1737 -2.3544
  492MOL0     H66406   8.474   3.390   6.305  1.4466 -0.2701 -3.6677
  492MOL0     H66407   8.642   3.288   6.151  2.9229 -0.0452  0.6055
  492MOL0     H66408   8.950   3.224   6.221 -1.4659 -0.6008  1.7674
  492MOL0     H66409   8.841   3.255   6.087 -1.0230 -1.3062 -2.2113
  492MOL0     H66410   9.066   3.169   6.020 -2.6870  1.7174 -0.8242
  492MOL0     H66411   8.937   3.064   5.962 -1.7304 -0.3357  1.2131
  492MOL0     H66412   9.116   2.926   6.054 -4.1949 -2.9700 -1.0085
  492MOL0     H66413   8.972   2.918   6.148 -0.5890  1.1923 -0.4202
  492MOL0     H66414   9.233   3.063   6.219 -0.0982 -1.1288 -0.8061
  492MOL0     H66415   9.087   3.056   6.326 -2.9734 -2.5216 -0.1879
  492MOL0     H66416   9.239   2.665   6.351 -1.4310 -0.7614 -0.4350
  492MOL0     H66417   8.782   3.048   6.469 -1.2998  0.8073  4.4978
  492MOL0     H66418   8.620   3.189   6.741 -2.7237  0.2538  0.3498
  492MOL0     H66419   8.519   3.051   6.694 -0.0652  0.5704 -0.3517
  492MOL0     H66420   8.703   3.051   6.671  0.1612  0.2582 -4.5335
  493MOL0     O66421   9.570   6.496   4.893  0.5100 -0.4667 -0.6193
  493MOL0     C66422   9.461   6.452   4.845  0.2124 -1.0399  0.2458
  493MOL0     O66423   9.366   6.525   4.796  0.6145  0.1383  0.1981
  493MOL0     C66424   9.397   6.652   4.760 -0.1100 -0.0135  0.0487
  493MOL0     C66425   9.475   6.677   4.647  0.0086  0.0547 -0.2853
  493MOL0     C66426   9.517   6.804   4.612 -0.8931  0.0204  0.1237
  493MOL0     C66427   9.481   6.915   4.685  0.0821 -0.4967  0.1632
  493MOL0     O66428   9.527   7.043   4.664  0.1644 -0.2796  0.2907
  493MOL0     C66429   9.631   7.074   4.582 -0.4784 -0.3906 -0.7151
  493MOL0     C66430   9.645   7.234   4.579 -1.2390 -0.5128 -0.6950
  493MOL0     C66431   9.760   7.273   4.481  0.4354 -0.1075 -0.6876
  493MOL0     C66432   9.800   7.421   4.507  0.1218  0.0820 -0.2524
  493MOL0     C66433   9.896   7.473   4.405 -0.0974  0.5165  0.3410
  493MOL0     C66434   9.922   7.629   4.436 -0.4752  0.2838 -0.1933
  493MOL0     C66435   9.817   7.731   4.371  0.4599  0.0605  0.2326
  493MOL0     C66436   9.803   7.715   4.217 -0.2239  0.2977 -0.4040
  493MOL0     N66437   9.935   7.731   4.156  0.2253 -0.2538  0.2239
  493MOL0     C66438  10.024   7.624   4.114 -0.1849 -0.8315  0.3994
  493MOL0     C66439  10.125   7.691   4.043 -0.3219 -0.6195  0.5441
  493MOL0     C66440  10.240   7.623   3.961 -0.8004 -0.1327 -0.1077
  493MOL0     C66441  10.289   7.709   3.844 -0.5224 -0.1468  0.4665
  493MOL0     C66442  10.435   7.670   3.802  0.5990  0.3461 -0.2346
  493MOL0     C66443  10.499   7.738   3.686 -0.1145  0.1220 -0.2169
  493MOL0     O66444  10.479   7.878   3.714  0.4516  0.1018  0.3001
  493MOL0     C66445  10.589   7.966   3.707  0.0185  0.7864  0.4475
  493MOL0     C66446  10.560   8.102   3.743  0.1399  0.2972  0.3811
  493MOL0     C66447  10.667   8.191   3.772  0.3954  0.1061 -0.3580
  493MOL0     C66448  10.801   8.154   3.749 -0.9836  0.4290 -0.1458
  493MOL0     C66449  10.907   8.269   3.742 -0.2866  0.1922  0.3774
  493MOL0     O66450  11.045   8.234   3.717 -0.8170 -0.3332  1.1714
  493MOL0     C66451  11.137   8.329   3.726 -0.1628  0.1150  0.1214
  493MOL0     C66452  11.256   8.310   3.793 -0.5653  0.5607  0.7639
  493MOL0     C66453  11.366   8.397   3.788  0.6316 -1.1045 -0.5071
  493MOL0     C66454  11.362   8.507   3.709 -0.4541  0.5145  0.3995
  493MOL0     O66455  11.473   8.584   3.695  0.3748  0.1714 -0.0799
  493MOL0     C66456  11.462   8.718   3.750 -0.4775 -0.5495 -0.0702
  493MOL0     C66457  11.599   8.748   3.819 -0.4563 -0.2865 -0.9030
  493MOL0     C66458  11.598   8.874   3.912 -0.1805 -0.0173 -0.3630
  493MOL0     C66459  11.584   9.015   3.850  0.6287  0.6254 -0.2079
  493MOL0     C66460  11.616   9.125   3.942  0.6220 -0.4443 -0.0728
  493MOL0     C66461  11.767   9.175   3.945 -0.6800  0.6839  0.3046
  493MOL0     C66462  11.788   9.297   4.033  0.0290  0.0858  0.7296
  493MOL0     C66463  11.817   9.235   4.171  0.0042  0.1873 -0.2093
  493MOL0    Cl66464  11.835   9.370   4.294  0.2172  0.0327  0.1439
  493MOL0     C66465  11.246   8.534   3.629  0.8026  0.2956  0.6111
  493MOL0     C66466  11.134   8.450   3.638 -0.3909  0.3487 -0.4653
  493MOL0     O66467  10.879   8.382   3.778  0.9456 -0.0288 -0.2391
  493MOL0     C66468  10.829   8.020   3.693  0.1751 -0.6929 -0.6553
  493MOL0     C66469  10.714   7.929   3.670  0.1081  0.5506  0.4697
  493MOL0     N66470  10.100   7.827   4.058  0.3219 -0.3882  0.2420
  493MOL0     N66471   9.999   7.854   4.134  0.4705  0.4384 -0.0469
  493MOL0     C66472   9.397   6.889   4.798 -0.5396 -0.6895  0.6098
  493MOL0     C66473   9.375   6.756   4.840  0.1924 -0.7695 -0.1893
  493MOL0     C66474   9.428   6.318   4.888  0.6163  0.3891  0.0571
  493MOL0     C66475   9.309   6.301   4.953  1.1361 -0.3455 -0.1649
  493MOL0     C66476   9.272   6.173   5.004  1.0917 -0.1078 -0.7228
  493MOL0     C66477   9.360   6.067   4.997  0.2671  0.3196 -0.3330
  493MOL0     O66478   9.332   5.946   5.045 -0.3626  0.0578  0.5971
  493MOL0     C66479   9.200   5.893   5.033  0.2910 -0.3720  0.3065
  493MOL0     C66480   9.132   5.862   5.161 -0.2016 -0.3554  0.8231
  493MOL0     C66481   8.983   5.824   5.123  0.2201  0.0571 -0.4146
  493MOL0     C66482   8.910   5.766   5.252  1.1445  0.3043  0.1422
  493MOL0     C66483   8.762   5.745   5.215 -0.2462 -0.7257 -0.2956
  493MOL0     C66484   8.650   5.735   5.190 -0.1974  0.7653 -0.0334
  493MOL0     C66485   9.479   6.080   4.928 -0.2132  0.0004  0.0023
  493MOL0     C66486   9.519   6.204   4.881 -0.8681 -0.6313 -0.0037
  493MOL0     C66487   9.659   6.216   4.811  0.2091 -0.0587 -0.3094
  493MOL0     H66488   9.512   6.597   4.585  0.4640  1.6892 -2.2409
  493MOL0     H66489   9.579   6.810   4.523 -3.9335  0.8957 -2.1193
  493MOL0     H66490   9.720   7.024   4.622 -0.3828 -1.0285 -1.7210
  493MOL0     H66491   9.611   7.047   4.478  2.8123 -2.0587 -1.0449
  493MOL0     H66492   9.683   7.256   4.679 -0.6640  2.5529 -1.4815
  493MOL0     H66493   9.548   7.280   4.558 -0.5310  1.5319  0.2672
  493MOL0     H66494   9.741   7.241   4.378 -0.9482 -4.5642  0.7128
  493MOL0     H66495   9.843   7.204   4.501  0.8792  0.4775 -0.4793
  493MOL0     H66496   9.708   7.479   4.518  1.2910  2.0142 -0.3156
  493MOL0     H66497   9.843   7.421   4.607  1.1583  0.8326 -0.6829
  493MOL0     H66498   9.993   7.426   4.416 -0.5882 -0.6789 -0.2995
  493MOL0     H66499   9.858   7.482   4.303 -0.1920 -0.4289  0.2869
  493MOL0     H66500   9.923   7.639   4.545 -0.0669 -1.3470 -0.0226
  493MOL0     H66501  10.023   7.653   4.402  0.3141 -1.1190  1.0607
  493MOL0     H66502   9.851   7.831   4.396  1.2199 -0.6302  2.1334
  493MOL0     H66503   9.723   7.702   4.419 -0.2094 -2.2335 -2.1899
  493MOL0     H66504   9.759   7.618   4.194 -0.0965 -0.1462  1.0746
  493MOL0     H66505   9.740   7.797   4.182  1.3184  2.9346  2.4951
  493MOL0     H66506  10.000   7.519   4.127  0.2733 -1.5630 -3.4448
  493MOL0     H66507  10.316   7.607   4.038  0.3149 -0.2043 -1.1830
  493MOL0     H66508  10.210   7.523   3.928  2.9650 -1.4259 -0.0970
  493MOL0     H66509  10.219   7.692   3.761  0.7285 -0.4684 -0.5511
  493MOL0     H66510  10.288   7.815   3.872 -0.9165  0.4231 -1.5651
  493MOL0     H66511  10.426   7.563   3.781 -1.0117  0.6931 -1.4694
  493MOL0     H66512  10.501   7.683   3.889  1.9443 -1.0333 -0.9875
  493MOL0     H66513  10.454   7.704   3.592 -0.7911 -0.5859  0.3522
  493MOL0     H66514  10.596   7.688   3.682 -0.3476 -0.4240  0.6075
  493MOL0     H66515  10.456   8.131   3.752 -0.2429 -0.5448 -1.1121
  493MOL0     H66516  10.654   8.295   3.803  0.9374  0.3477 -0.9053
  493MOL0     H66517  11.246   8.227   3.864  0.2793  0.6126  0.9508
  493MOL0     H66518  11.464   8.385   3.834 -1.0269  0.6182  3.9933
  493MOL0     H66519  11.446   8.789   3.668 -0.0320  0.2386  0.5131
  493MOL0     H66520  11.379   8.717   3.820 -1.1676 -1.2870 -0.8679
  493MOL0     H66521  11.633   8.655   3.865  1.1013  0.9265  0.5198
  493MOL0     H66522  11.676   8.763   3.743  0.2512  0.1805 -0.1188
  493MOL0     H66523  11.521   8.869   3.989 -0.9318 -1.2974 -1.1763
  493MOL0     H66524  11.698   8.880   3.956  0.2696  1.3783 -1.4700
  493MOL0     H66525  11.478   9.023   3.822 -0.0928 -3.8761  0.3872
  493MOL0     H66526  11.639   9.029   3.756 -2.5717  1.6787 -2.0715
  493MOL0     H66527  11.580   9.115   4.045 -2.6932  0.7188 -1.0000
  493MOL0     H66528  11.565   9.214   3.904  0.6030 -1.2607 -2.0609
  493MOL0     H66529  11.825   9.089   3.979 -1.0333  1.4066  2.9179
  493MOL0     H66530  11.804   9.193   3.844 -0.9587  0.5293  0.1733
  493MOL0     H66531  11.703   9.365   4.027 -0.3003 -0.4199 -0.8860
  493MOL0     H66532  11.880   9.337   3.990  1.4749 -1.9526  1.7509
  493MOL0     H66533  11.731   9.173   4.197 -1.3749  0.5369 -3.4533
  493MOL0     H66534  11.906   9.172   4.171  0.2259  0.4810 -0.8648
  493MOL0     H66535  11.232   8.613   3.556  0.9679 -0.0203  0.2362
  493MOL0     H66536  11.040   8.468   3.588 -2.1252 -2.8829  1.2871
  493MOL0     H66537  10.929   7.995   3.660  0.2368 -1.4505  0.0516
  493MOL0     H66538  10.749   7.830   3.644  1.4714  1.0177  0.4663
  493MOL0     H66539   9.355   6.979   4.841 -0.3402  0.2946 -1.1399
  493MOL0     H66540   9.339   6.742   4.942 -0.6111 -1.0238 -0.5030
  493MOL0     H66541   9.245   6.387   4.972 -0.1165 -1.0018 -1.2327
  493MOL0     H66542   9.179   6.156   5.058  1.7857 -1.2236  0.1713
  493MOL0     H66543   9.223   5.806   4.969  2.0709 -1.7006  2.6117
  493MOL0     H66544   9.140   5.963   4.974  1.7319  1.7715  1.2977
  493MOL0     H66545   9.128   5.947   5.230  0.2370 -0.6380  1.2015
  493MOL0     H66546   9.187   5.783   5.213 -1.4840 -0.4998  2.0025
  493MOL0     H66547   8.992   5.746   5.047  0.4334 -2.6047  2.1408
  493MOL0     H66548   8.932   5.912   5.084  0.1714  1.1909  1.9778
  493MOL0     H66549   8.959   5.676   5.292 -1.5726 -0.8956  0.9630
  493MOL0     H66550   8.913   5.839   5.333 -0.2750 -0.7673  1.2205
  493MOL0     H66551   8.546   5.712   5.178 -0.0575  0.0554  0.0471
  493MOL0     H66552   9.542   5.992   4.915  0.7078  0.5739  0.4911
  493MOL0     H66553   9.679   6.142   4.732  2.9848 -1.9653  1.9290
  493MOL0     H66554   9.674   6.310   4.756  1.9808 -0.9359 -1.4574
  493MOL0     H66555   9.740   6.226   4.884 -1.3165  2.6844  1.1521
  494MOL0     O66556   8.898   3.172   2.393  0.2405 -0.4519  0.5344
  494MOL0     C66557   8.778   3.145   2.408 -0.5879  0.3145 -0.2187
  494MOL0     O66558   8.677   3.135   2.304  0.5612 -0.5114  0.0689
  494MOL0     C66559   8.705   3.133   2.168  0.1141 -0.4645  0.1615
  494MOL0     C66560   8.800   3.211   2.096  0.2295 -0.0729 -0.0465
  494MOL0     C66561   8.820   3.192   1.954  1.0243 -0.9750 -0.4163
  494MOL0     C66562   8.747   3.095   1.884  0.6103 -0.3283 -0.5273
  494MOL0     O66563   8.773   3.099   1.749 -0.1147 -0.1686  0.5769
  494MOL0     C66564   8.777   2.971   1.674  0.2854 -0.7526  0.6197
  494MOL0     C66565   8.869   2.964   1.549 -0.2903 -0.3095  0.2272
  494MOL0     C66566   8.825   3.056   1.440  0.1066  0.6203  0.2812
  494MOL0     C66567   8.690   3.020   1.381 -0.6452  0.6498 -0.6669
  494MOL0     C66568   8.669   3.057   1.236  0.9914 -0.6422  0.1652
  494MOL0     C66569   8.662   3.206   1.210 -0.2813 -0.1842  0.8516
  494MOL0     C66570   8.611   3.244   1.068  0.4549 -1.0858  0.3991
  494MOL0     C66571   8.713   3.223   0.959 -0.0180 -0.2889  1.3728
  494MOL0     N66572   8.714   3.326   0.847  0.3336 -0.8223  1.0896
  494MOL0     C66573   8.829   3.406   0.824 -0.1548 -0.8368 -0.7943
  494MOL0     C66574   8.787   3.504   0.740 -0.2403 -0.0853 -1.2476
  494MOL0     C66575   8.881   3.610   0.689  0.1917  0.4473 -0.3264
  494MOL0     C66576   8.804   3.731   0.624  0.8272  0.4644 -0.2948
  494MOL0     C66577   8.749   3.698   0.478  0.7268  0.1443 -0.1418
  494MOL0     C66578   8.684   3.811   0.407 -0.3704  0.3030  0.4120
  494MOL0     O66579   8.579   3.855   0.491  0.2693  0.2647 -0.6719
  494MOL0     C66580   8.466   3.923   0.448  0.4749  1.2303  0.2408
  494MOL0     C66581   8.435   3.934   0.317  0.2220  0.5506  0.4211
  494MOL0     C66582   8.309   3.977   0.275  0.1700  0.4191 -0.4063
  494MOL0     C66583   8.223   4.041   0.369 -0.0324 -0.0350  0.5282
  494MOL0     C66584   8.104   4.116   0.315  0.1305  0.4106 -0.7242
  494MOL0     O66585   8.105   4.129   0.174  0.4366  0.5641 -0.0657
  494MOL0     C66586   7.992   4.180   0.118 -0.6823 -0.4782 -0.4166
  494MOL0     C66587   7.980   4.323   0.128 -0.1334  0.2119 -0.3643
  494MOL0     C66588   7.860   4.379   0.064 -1.0577  0.8789  0.5112
  494MOL0     C66589   7.771   4.298  -0.001 -0.0554 -0.0310 -0.3349
  494MOL0     O66590   7.672   4.371  -0.056  0.3488 -0.1136 -0.3314
  494MOL0     C66591   7.540   4.318  -0.044  0.8154 -0.3783  0.5279
  494MOL0     C66592   7.489   4.275  -0.181  0.2661 -0.4402  0.1397
  494MOL0     C66593   7.467   4.389  -0.288  0.7225  0.1133 -0.0949
  494MOL0     C66594   7.357   4.364  -0.397 -0.0863  0.1256  0.4245
  494MOL0     C66595   7.403   4.280  -0.517 -0.3832  0.2350 -0.5091
  494MOL0     C66596   7.503   4.341  -0.601 -0.5097 -0.1149  0.4667
  494MOL0     C66597   7.570   4.243  -0.684 -0.2200  0.1326 -0.3643
  494MOL0     C66598   7.679   4.321  -0.761 -0.7738 -1.1784  0.0658
  494MOL0    Cl66599   7.602   4.441  -0.876  0.3780  0.0810 -0.0300
  494MOL0     C66600   7.778   4.159  -0.002 -0.2520  0.7292 -0.6100
  494MOL0     C66601   7.891   4.102   0.062 -0.2285  0.3145 -0.0509
  494MOL0     O66602   8.027   4.164   0.399  0.0979 -0.4387  0.2875
  494MOL0     C66603   8.257   4.043   0.502  0.4439  0.4418  0.6166
  494MOL0     C66604   8.370   3.967   0.536 -0.3018  0.2681 -0.4178
  494MOL0     N66605   8.647   3.490   0.716  0.0928 -0.0863  0.0505
  494MOL0     N66606   8.603   3.387   0.780 -1.3237  0.7571  0.6569
  494MOL0     C66607   8.661   3.013   1.951  0.7127 -0.4899  0.0755
  494MOL0     C66608   8.630   3.029   2.089 -0.1813  0.4772  0.7058
  494MOL0     C66609   8.719   3.115   2.538  0.6955 -0.5030  0.3291
  494MOL0     C66610   8.621   3.020   2.548 -0.5695 -0.2651  0.2173
  494MOL0     C66611   8.564   2.970   2.658 -0.1526 -0.0509  0.0597
  494MOL0     C66612   8.602   3.022   2.782 -0.2458  0.1842  0.3229
  494MOL0     O66613   8.544   2.978   2.891  0.3521 -0.2363 -0.2829
  494MOL0     C66614   8.587   3.015   3.018 -0.2119  0.8036  0.0792
  494MOL0     C66615   8.709   2.927   3.058  0.7069  0.5110  0.3957
  494MOL0     C66616   8.675   2.781   3.064  0.9464  0.2038  0.5672
  494MOL0     C66617   8.560   2.743   3.165  0.8193  0.0442  0.8677
  494MOL0     C66618   8.554   2.815   3.290  0.1094 -0.5036 -0.9215
  494MOL0     C66619   8.566   2.869   3.399 -0.1168 -0.5713 -0.4594
  494MOL0     C66620   8.709   3.119   2.777 -0.4932  0.1092  0.1092
  494MOL0     C66621   8.766   3.167   2.658  1.1607  0.0781  0.6378
  494MOL0     C66622   8.876   3.273   2.660  0.9622  0.1738 -0.3203
  494MOL0     H66623   8.851   3.289   2.152 -0.1457 -1.1632  1.8740
  494MOL0     H66624   8.900   3.246   1.904 -0.1335  0.2394 -1.0391
  494MOL0     H66625   8.824   2.903   1.745  0.7806  1.1444  2.1958
  494MOL0     H66626   8.672   2.939   1.668 -1.3205  3.8656 -0.1635
  494MOL0     H66627   8.883   2.865   1.505  0.6182  0.6320 -1.7441
  494MOL0     H66628   8.962   3.002   1.594 -1.0169 -0.1005  1.5983
  494MOL0     H66629   8.899   3.057   1.360 -0.5038 -1.4334 -0.3728
  494MOL0     H66630   8.813   3.161   1.466 -1.0929  1.0346 -1.8099
  494MOL0     H66631   8.671   2.913   1.388  1.1543  0.4170  1.6521
  494MOL0     H66632   8.614   3.074   1.439 -1.7785 -1.0124 -0.5518
  494MOL0     H66633   8.757   3.016   1.184  0.1516 -2.6063  0.1933
  494MOL0     H66634   8.580   3.007   1.197  1.2212 -0.5086 -0.5612
  494MOL0     H66635   8.602   3.253   1.290 -0.5199 -0.8087  1.0435
  494MOL0     H66636   8.763   3.241   1.231 -0.4384 -0.2403  1.7549
  494MOL0     H66637   8.570   3.346   1.065  2.3397 -0.2965  0.3502
  494MOL0     H66638   8.525   3.185   1.034 -0.8332  0.5442  0.7081
  494MOL0     H66639   8.809   3.201   1.008 -0.0969 -1.4370  1.0519
  494MOL0     H66640   8.680   3.127   0.917 -0.0511  0.5258 -0.5575
  494MOL0     H66641   8.934   3.384   0.845  0.9868  1.0112 -3.9569
  494MOL0     H66642   8.959   3.649   0.755  0.7869  1.4410 -1.5755
  494MOL0     H66643   8.932   3.551   0.612  1.0315  0.9573 -0.1721
  494MOL0     H66644   8.716   3.741   0.688  0.1847  2.8118 -1.4505
  494MOL0     H66645   8.876   3.813   0.626  1.0548  0.2586  0.3189
  494MOL0     H66646   8.675   3.618   0.489 -1.2572  2.0793  1.2024
  494MOL0     H66647   8.818   3.661   0.401  0.3603 -0.2096 -0.3012
  494MOL0     H66648   8.638   3.782   0.312 -3.1794  1.8904  1.1689
  494MOL0     H66649   8.752   3.891   0.374 -1.1585  0.4857 -0.8366
  494MOL0     H66650   8.498   3.896   0.237 -2.3150  0.7714 -1.8252
  494MOL0     H66651   8.282   3.969   0.170 -1.5115 -4.3236  0.1519
  494MOL0     H66652   8.054   4.379   0.186 -0.2643  2.1995 -2.0014
  494MOL0     H66653   7.851   4.487   0.064 -1.9870  0.9882  4.8694
  494MOL0     H66654   7.522   4.232   0.020  1.2410 -1.2400 -0.4738
  494MOL0     H66655   7.482   4.403  -0.007  0.3621 -0.4489  0.0023
  494MOL0     H66656   7.563   4.208  -0.225 -1.4094 -1.8654 -0.6124
  494MOL0     H66657   7.392   4.228  -0.165 -0.5666  1.3037  0.5350
  494MOL0     H66658   7.436   4.476  -0.231 -0.6762 -0.5541  0.2164
  494MOL0     H66659   7.562   4.420  -0.331 -0.6655  0.9741 -2.7611
  494MOL0     H66660   7.318   4.459  -0.433  0.2215 -0.4536 -1.5478
  494MOL0     H66661   7.268   4.314  -0.356  0.0815  0.4505  1.2000
  494MOL0     H66662   7.321   4.256  -0.586 -0.0665 -0.2836 -0.7042
  494MOL0     H66663   7.450   4.187  -0.483  2.0367  0.5314 -2.7121
  494MOL0     H66664   7.446   4.410  -0.665 -1.8987 -4.9257 -4.1652
  494MOL0     H66665   7.571   4.397  -0.535 -2.3255 -0.3319  2.6463
  494MOL0     H66666   7.494   4.188  -0.740 -2.6694 -1.0854  3.7569
  494MOL0     H66667   7.613   4.164  -0.622 -2.4306 -0.5890  0.3212
  494MOL0     H66668   7.743   4.371  -0.687 -0.3772  3.5367 -3.0267
  494MOL0     H66669   7.748   4.250  -0.808  0.9003  1.2533 -1.3815
  494MOL0     H66670   7.707   4.088  -0.043  2.6434 -4.7634  2.7875
  494MOL0     H66671   7.899   3.993   0.064  1.8548  0.3933 -0.8715
  494MOL0     H66672   8.186   4.089   0.570 -1.0377  0.0428 -0.6191
  494MOL0     H66673   8.393   3.948   0.640  2.7107 -1.6409 -1.3054
  494MOL0     H66674   8.599   2.943   1.896  2.7183  1.3487 -5.1620
  494MOL0     H66675   8.566   2.959   2.143  0.2671  0.1299  0.7922
  494MOL0     H66676   8.594   2.968   2.456  0.4444 -1.4668  0.5710
  494MOL0     H66677   8.488   2.893   2.651  1.6822 -1.8163 -2.4048
  494MOL0     H66678   8.504   2.992   3.086  0.7971  0.5671  1.2897
  494MOL0     H66679   8.618   3.120   3.021 -2.2701  1.4821 -1.1091
  494MOL0     H66680   8.739   2.953   3.160  0.9261  0.1143  0.4349
  494MOL0     H66681   8.788   2.957   2.989 -0.5978  3.2395 -0.0709
  494MOL0     H66682   8.764   2.734   3.106 -1.0401 -3.3257  1.3235
  494MOL0     H66683   8.653   2.736   2.967  0.6329 -1.4216  1.3506
  494MOL0     H66684   8.468   2.767   3.111  1.6072  0.6632 -0.2382
  494MOL0     H66685   8.566   2.637   3.192  0.6704 -0.0908  0.3776
  494MOL0     H66686   8.585   2.914   3.494 -0.8341  1.2378 -1.1205
  494MOL0     H66687   8.744   3.171   2.866  1.4686  0.2984 -0.7186
  494MOL0     H66688   8.857   3.349   2.584  0.3448  0.4360  0.0903
  494MOL0     H66689   8.882   3.318   2.759 -2.6729  1.1604 -0.3922
  494MOL0     H66690   8.972   3.226   2.638  2.4414  1.2826  3.0548
  495MOL0     O66691   4.611   4.327   6.277 -0.3811 -0.6890  0.0099
  495MOL0     C66692   4.562   4.295   6.391 -0.8216 -0.6889  0.1679
  495MOL0     O66693   4.466   4.196   6.406 -0.8012  0.3802  0.0292
  495MOL0     C66694   4.447   4.095   6.307  0.3699 -1.0007 -0.3026
  495MOL0     C66695   4.566   4.043   6.256  0.3066  0.4632  0.1140
  495MOL0     C66696   4.567   3.928   6.179  0.9898  0.7219 -0.7023
  495MOL0     C66697   4.442   3.873   6.135  0.6965  0.1650 -0.2326
  495MOL0     O66698   4.451   3.765   6.048 -0.0765  0.3918 -0.5358
  495MOL0     C66699   4.346   3.666   6.061 -0.0139 -0.0255 -1.0163
  495MOL0     C66700   4.386   3.550   5.964  0.1978 -0.3046  0.9678
  495MOL0     C66701   4.282   3.543   5.840 -0.6001 -1.1446 -1.3548
  495MOL0     C66702   4.343   3.429   5.751  0.5218 -0.2934  0.0051
  495MOL0     C66703   4.220   3.382   5.662 -0.5736 -1.0475 -0.3090
  495MOL0     C66704   4.108   3.310   5.738 -0.9648  0.3516 -0.6328
  495MOL0     C66705   4.024   3.242   5.624 -0.3596 -0.0284  0.0353
  495MOL0     C66706   4.068   3.097   5.571 -0.0838  0.8542  1.2252
  495MOL0     N66707   3.980   3.051   5.463 -0.8089 -0.1643  0.2194
  495MOL0     C66708   3.993   3.047   5.328  0.5802  0.5344 -0.2037
  495MOL0     C66709   3.876   2.994   5.289 -0.1701  0.5624 -1.2629
  495MOL0     C66710   3.825   2.965   5.145  1.0874  0.7436 -0.5646
  495MOL0     C66711   3.855   2.816   5.111 -0.1440  0.5757 -0.3032
  495MOL0     C66712   3.747   2.725   5.159  0.2398  0.6102 -0.9582
  495MOL0     C66713   3.756   2.600   5.072  0.5463  0.2363  0.7191
  495MOL0     O66714   3.693   2.492   5.152  0.0205 -0.5286 -0.4468
  495MOL0     C66715   3.645   2.381   5.083 -0.2074 -1.2007  0.1242
  495MOL0     C66716   3.564   2.295   5.154  0.0330  0.4156  0.0027
  495MOL0     C66717   3.513   2.174   5.091 -1.1221  1.4937  0.7332
  495MOL0     C66718   3.544   2.146   4.958 -0.1556  0.3289 -0.3300
  495MOL0     C66719   3.496   2.020   4.904  0.1426  0.4355  0.2552
  495MOL0     O66720   3.412   1.939   4.984  0.3937  0.8804  0.3627
  495MOL0     C66721   3.336   1.844   4.928  0.1461 -0.2523 -0.0038
  495MOL0     C66722   3.381   1.752   4.822 -0.0835  0.5159  0.0204
  495MOL0     C66723   3.294   1.656   4.779 -0.4770  0.8052 -0.5896
  495MOL0     C66724   3.163   1.643   4.820 -0.1275  0.0184 -0.2580
  495MOL0     O66725   3.081   1.556   4.755  0.4064 -0.2405  0.3585
  495MOL0     C66726   3.106   1.413   4.757  0.3365 -1.2683 -0.0091
  495MOL0     C66727   2.965   1.360   4.706  0.0215 -0.9012  0.8025
  495MOL0     C66728   2.948   1.213   4.717  0.2447  0.6149  0.5000
  495MOL0     C66729   2.819   1.153   4.665 -0.5211 -0.2735 -0.7955
  495MOL0     C66730   2.848   1.121   4.524 -1.2862 -0.4580  0.1163
  495MOL0     C66731   2.717   1.097   4.447  0.7656  0.5994  0.2532
  495MOL0     C66732   2.640   0.989   4.522  0.3392  0.5575 -0.5326
  495MOL0     C66733   2.526   0.926   4.438  0.0175 -0.1103 -0.5154
  495MOL0    Cl66734   2.385   0.917   4.530  0.2603  0.4794  0.4084
  495MOL0     C66735   3.122   1.736   4.911  0.3338 -0.6610 -1.0605
  495MOL0     C66736   3.209   1.840   4.965  0.5297 -0.1796 -0.3903
  495MOL0     O66737   3.512   2.005   4.781  0.4505  0.4707 -1.1354
  495MOL0     C66738   3.612   2.240   4.883 -0.6957  0.1034 -0.1862
  495MOL0     C66739   3.665   2.363   4.944 -0.2930  0.0026  0.1965
  495MOL0     N66740   3.796   2.958   5.396  0.2293  0.9974  0.1527
  495MOL0     N66741   3.870   2.986   5.494  0.2171 -0.7114  0.6373
  495MOL0     C66742   4.329   3.936   6.182  0.7588  0.5049  0.2022
  495MOL0     C66743   4.321   4.042   6.275  0.1528 -0.7047 -0.0673
  495MOL0     C66744   4.577   4.395   6.491  0.4334  0.6948 -0.6149
  495MOL0     C66745   4.701   4.419   6.540  0.3258  0.0894 -0.0462
  495MOL0     C66746   4.724   4.529   6.625 -0.8122  0.3330 -0.4883
  495MOL0     C66747   4.618   4.604   6.668  0.0155  1.0360 -0.6297
  495MOL0     O66748   4.657   4.681   6.768 -0.3560  0.1829 -0.1706
  495MOL0     C66749   4.578   4.800   6.800 -0.2965  0.5546  0.7640
  495MOL0     C66750   4.563   4.892   6.679 -0.9170  0.0315 -0.2583
  495MOL0     C66751   4.463   5.020   6.700  0.2642  0.3359 -0.1279
  495MOL0     C66752   4.449   5.111   6.572  1.4698  0.9885  0.7458
  495MOL0     C66753   4.565   5.199   6.558 -0.0621 -0.2421 -0.4824
  495MOL0     C66754   4.658   5.273   6.543 -0.2005 -0.4306  0.6160
  495MOL0     C66755   4.490   4.581   6.625 -0.3374 -0.2074 -0.6341
  495MOL0     C66756   4.470   4.466   6.547 -0.0751 -0.0107  0.2650
  495MOL0     C66757   4.329   4.432   6.505  0.9533  0.4449 -0.7568
  495MOL0     H66758   4.658   4.061   6.309 -0.9254  0.9262  2.2205
  495MOL0     H66759   4.662   3.877   6.175 -0.6820 -2.7069 -0.3497
  495MOL0     H66760   4.341   3.624   6.162  2.3720 -1.2904 -1.3519
  495MOL0     H66761   4.251   3.705   6.025  0.7500  1.6527 -1.3151
  495MOL0     H66762   4.379   3.454   6.016 -2.8316 -1.2745 -0.9529
  495MOL0     H66763   4.486   3.568   5.924 -0.6811  0.5461 -1.0170
  495MOL0     H66764   4.278   3.636   5.783 -0.3433 -0.1214  0.2363
  495MOL0     H66765   4.187   3.519   5.888  0.7746 -0.8990  1.7198
  495MOL0     H66766   4.423   3.472   5.691 -0.6057  1.4309 -0.3375
  495MOL0     H66767   4.387   3.348   5.810  1.3316  0.4630  0.4703
  495MOL0     H66768   4.187   3.462   5.595  0.6035  0.9800  1.4093
  495MOL0     H66769   4.267   3.314   5.589  0.0233 -0.2874 -0.6436
  495MOL0     H66770   4.151   3.236   5.806  1.3655  0.9444 -1.3700
  495MOL0     H66771   4.047   3.385   5.789  0.4289  0.9055  0.2721
  495MOL0     H66772   4.001   3.300   5.534 -0.0218 -1.2023 -0.8277
  495MOL0     H66773   3.920   3.234   5.657 -0.2751  3.0846  1.3998
  495MOL0     H66774   4.173   3.103   5.541  0.1150 -0.8382  1.4594
  495MOL0     H66775   4.064   3.023   5.652 -0.9093 -0.0412  0.3988
  495MOL0     H66776   4.077   3.086   5.271 -0.8653  1.7228 -1.5932
  495MOL0     H66777   3.719   2.986   5.129  1.2837  1.4720 -0.9894
  495MOL0     H66778   3.868   3.029   5.066 -1.2859  2.9784 -0.1832
  495MOL0     H66779   3.852   2.812   5.001 -2.9863  0.2005 -0.2817
  495MOL0     H66780   3.953   2.785   5.149  0.0447  0.4516 -0.8760
  495MOL0     H66781   3.647   2.768   5.149  0.7604  3.2609  2.9735
  495MOL0     H66782   3.782   2.702   5.260  1.1775 -2.2353 -1.8259
  495MOL0     H66783   3.857   2.573   5.039  0.4159  2.0001 -1.3746
  495MOL0     H66784   3.700   2.621   4.980  0.6770 -1.9736  0.0783
  495MOL0     H66785   3.554   2.299   5.262  0.4467  2.2055  0.0041
  495MOL0     H66786   3.457   2.099   5.147 -0.3343  0.4903  0.2107
  495MOL0     H66787   3.488   1.760   4.804  0.3670  2.9375  2.8638
  495MOL0     H66788   3.328   1.600   4.693 -1.8446  1.9430 -1.9289
  495MOL0     H66789   3.197   1.387   4.702  0.9904 -0.2872  0.5848
  495MOL0     H66790   3.129   1.375   4.857 -0.1352 -1.9107 -0.1372
  495MOL0     H66791   2.875   1.408   4.747  0.2725  0.3294  0.0035
  495MOL0     H66792   2.964   1.393   4.601 -0.1176 -0.3996  0.9549
  495MOL0     H66793   3.042   1.162   4.696 -0.0716  1.1247 -2.6329
  495MOL0     H66794   2.934   1.198   4.825  1.6415  0.6476  0.7058
  495MOL0     H66795   2.729   1.211   4.685  1.6536  2.7931  1.0124
  495MOL0     H66796   2.813   1.057   4.718 -0.4889  0.3192  0.3022
  495MOL0     H66797   2.915   1.037   4.505 -2.5645 -1.4523 -0.1520
  495MOL0     H66798   2.884   1.207   4.466 -5.4422 -0.2159 -2.5833
  495MOL0     H66799   2.666   1.193   4.438  0.2606  0.1150 -3.3918
  495MOL0     H66800   2.720   1.059   4.345 -0.3469  1.8622 -0.2791
  495MOL0     H66801   2.605   1.034   4.615  0.6930  5.0334 -2.3573
  495MOL0     H66802   2.706   0.906   4.548 -0.5962  0.3252  1.2724
  495MOL0     H66803   2.495   0.982   4.350  0.1544 -0.8918 -1.0814
  495MOL0     H66804   2.548   0.819   4.424 -0.6542 -0.8958  3.1941
  495MOL0     H66805   3.018   1.731   4.942  0.6470  1.5606  0.5451
  495MOL0     H66806   3.170   1.918   5.029 -1.3243  1.1289 -2.9134
  495MOL0     H66807   3.621   2.231   4.775  1.9667 -0.4070  0.0272
  495MOL0     H66808   3.705   2.433   4.872 -3.4727  0.6698 -1.1220
  495MOL0     H66809   4.228   3.908   6.152  0.9998  1.4047 -1.5485
  495MOL0     H66810   4.231   4.095   6.306 -0.5795 -1.3800 -0.9903
  495MOL0     H66811   4.782   4.355   6.504 -0.6128 -1.5577  0.6669
  495MOL0     H66812   4.825   4.544   6.661 -0.3281  2.1374 -2.4479
  495MOL0     H66813   4.642   4.857   6.868 -0.7210  3.0064 -0.7641
  495MOL0     H66814   4.484   4.787   6.853 -0.4578 -1.2937  0.0765
  495MOL0     H66815   4.522   4.835   6.596 -3.3158  3.2499 -1.4960
  495MOL0     H66816   4.662   4.934   6.658 -1.3695  1.2208 -0.0907
  495MOL0     H66817   4.498   5.084   6.781  0.5968  3.8258 -2.7937
  495MOL0     H66818   4.364   4.986   6.732  1.9142 -2.0591  3.0119
  495MOL0     H66819   4.431   5.058   6.478  0.1399  5.2573 -1.6779
  495MOL0     H66820   4.362   5.177   6.567 -0.6729 -1.7440 -2.8398
  495MOL0     H66821   4.742   5.340   6.535 -1.1568  0.7630  0.2340
  495MOL0     H66822   4.401   4.634   6.657 -1.8474 -2.9526  0.0409
  495MOL0     H66823   4.295   4.336   6.544  2.4239  0.7476  1.4509
  495MOL0     H66824   4.259   4.506   6.546 -3.1997 -0.7626 -4.7792
  495MOL0     H66825   4.321   4.436   6.396 -2.5293 -3.5052 -0.8874
  496MOL0     O66826   2.637   5.890   9.093  0.5149 -0.1055 -0.1371
  496MOL0     C66827   2.552   5.837   9.019  0.2255 -0.6820  0.0926
  496MOL0     O66828   2.567   5.818   8.886  0.2232 -0.3286  0.4836
  496MOL0     C66829   2.670   5.881   8.821 -0.1938 -0.6656  0.3363
  496MOL0     C66830   2.638   5.977   8.730  0.2471 -0.2276 -1.0434
  496MOL0     C66831   2.731   6.019   8.628 -0.1380 -0.1303 -0.0676
  496MOL0     C66832   2.863   5.977   8.631  0.1880  0.1177  0.4874
  496MOL0     O66833   2.946   6.039   8.542  0.5365  0.4056  0.4136
  496MOL0     C66834   3.064   5.982   8.494 -0.7825 -0.0838  1.3251
  496MOL0     C66835   3.086   6.020   8.345  0.2031 -0.1695 -0.3923
  496MOL0     C66836   3.069   6.167   8.312 -0.3631  0.0436  0.2817
  496MOL0     C66837   3.114   6.275   8.410  0.6218 -0.0349 -0.7709
  496MOL0     C66838   3.268   6.275   8.432  0.4202  0.1577  0.1628
  496MOL0     C66839   3.295   6.385   8.527 -0.0437 -0.1154 -0.1268
  496MOL0     C66840   3.444   6.377   8.582  0.5705 -0.0667  0.1457
  496MOL0     C66841   3.451   6.476   8.709 -0.0860  0.2839 -0.1385
  496MOL0     N66842   3.583   6.451   8.770 -0.1308  0.7097  0.7702
  496MOL0     C66843   3.605   6.347   8.856  0.2342 -0.4017 -0.3201
  496MOL0     C66844   3.731   6.361   8.892  0.1307 -0.0789 -0.2604
  496MOL0     C66845   3.783   6.304   9.017 -0.2494 -0.5314 -0.0626
  496MOL0     C66846   3.809   6.156   8.999  0.4867 -0.8945  0.3809
  496MOL0     C66847   3.921   6.103   9.094 -0.1851  0.2522  0.8816
  496MOL0     C66848   3.939   5.952   9.078  0.2361 -0.5224  0.1076
  496MOL0     O66849   3.824   5.896   9.145 -0.4687  0.2448 -0.3192
  496MOL0     C66850   3.846   5.829   9.267  0.9129 -0.1285  0.4366
  496MOL0     C66851   3.789   5.707   9.280 -0.3912 -0.2877  0.9917
  496MOL0     C66852   3.784   5.636   9.393  0.4672  0.6517  0.2911
  496MOL0     C66853   3.845   5.685   9.509  0.3073  0.0898  1.6561
  496MOL0     C66854   3.852   5.605   9.631 -0.3815  0.1893  0.0734
  496MOL0     O66855   3.775   5.489   9.615 -0.0949 -0.5663  0.3422
  496MOL0     C66856   3.764   5.400   9.724 -0.2207 -0.1884  0.4401
  496MOL0     C66857   3.873   5.355   9.806  0.7876 -0.1262  0.1815
  496MOL0     C66858   3.854   5.269   9.917 -0.9800 -0.3539 -0.7123
  496MOL0     C66859   3.725   5.212   9.936 -0.2430 -0.3712 -0.3007
  496MOL0     O66860   3.715   5.115  10.037 -0.0012 -0.2969 -0.1843
  496MOL0     C66861   3.589   5.058  10.058 -0.5073 -0.3745  0.5983
  496MOL0     C66862   3.603   4.942  10.156  0.2628  0.5537  0.2894
  496MOL0     C66863   3.481   4.855  10.167  0.3651 -1.1085  0.4375
  496MOL0     C66864   3.489   4.741  10.275  0.2612 -0.9055  0.3519
  496MOL0     C66865   3.393   4.622  10.247 -0.2171 -0.7705 -0.1589
  496MOL0     C66866   3.404   4.508  10.355  0.2012  0.3355 -0.1945
  496MOL0     C66867   3.354   4.563  10.484 -0.4515  0.4280  0.2124
  496MOL0     C66868   3.339   4.446  10.592 -0.6756  0.3973  0.5775
  496MOL0    Cl66869   3.504   4.382  10.644  0.5617  0.6452  0.4671
  496MOL0     C66870   3.617   5.261   9.854  0.2090 -0.6413 -0.3836
  496MOL0     C66871   3.637   5.348   9.751 -0.0747  0.4779 -0.0360
  496MOL0     O66872   3.901   5.646   9.738  0.1797 -0.4096  0.2832
  496MOL0     C66873   3.909   5.810   9.498 -0.7214 -0.3414  1.3424
  496MOL0     C66874   3.898   5.892   9.382 -0.3024 -1.1722  0.5303
  496MOL0     N66875   3.788   6.464   8.818  1.1958  0.9843 -0.0103
  496MOL0     N66876   3.700   6.523   8.746  0.0586  0.6661  0.7153
  496MOL0     C66877   2.900   5.888   8.734  0.0242  0.3110 -0.2649
  496MOL0     C66878   2.803   5.835   8.822  0.2171 -0.4432 -1.4401
  496MOL0     C66879   2.413   5.807   9.077 -0.2698  0.0206  0.4247
  496MOL0     C66880   2.384   5.855   9.205  0.4505 -0.6621  0.8414
  496MOL0     C66881   2.260   5.835   9.270 -1.1437 -0.8278 -0.6269
  496MOL0     C66882   2.178   5.736   9.221  0.0662 -0.1129 -0.4867
  496MOL0     O66883   2.057   5.726   9.299 -0.5810  0.2780 -0.2505
  496MOL0     C66884   1.939   5.662   9.237  0.1153  0.1976 -0.1588
  496MOL0     C66885   1.877   5.742   9.128 -0.0170 -0.9413  0.6079
  496MOL0     C66886   1.763   5.669   9.064 -0.7979  0.5271 -0.8381
  496MOL0     C66887   1.671   5.754   8.985 -0.4679  0.2963 -0.3441
  496MOL0     C66888   1.599   5.843   9.071  0.2295  0.0346 -0.3726
  496MOL0     C66889   1.539   5.928   9.135 -0.2645  0.0367  0.5976
  496MOL0     C66890   2.207   5.679   9.097  0.3277  0.4455 -0.5587
  496MOL0     C66891   2.326   5.713   9.019 -0.6502 -1.7519  0.1043
  496MOL0     C66892   2.353   5.644   8.893  0.0849 -0.4281  0.6542
  496MOL0     H66893   2.536   6.013   8.717  0.0111 -0.1985  0.5843
  496MOL0     H66894   2.702   6.088   8.550  0.7764 -1.0315 -1.2508
  496MOL0     H66895   3.143   6.027   8.556  0.7481  0.1088 -0.6690
  496MOL0     H66896   3.071   5.874   8.508 -0.7232 -0.4070 -0.9067
  496MOL0     H66897   3.007   5.960   8.298  0.0487 -0.3984  0.1513
  496MOL0     H66898   3.173   5.969   8.303 -1.5741 -3.3951 -0.5154
  496MOL0     H66899   2.961   6.183   8.301 -0.3867  1.0010  1.6213
  496MOL0     H66900   3.125   6.182   8.220 -2.0005  0.7475 -0.6424
  496MOL0     H66901   3.077   6.372   8.376 -0.5375  0.0183  0.5780
  496MOL0     H66902   3.065   6.256   8.506  0.1105  1.8988 -0.6075
  496MOL0     H66903   3.297   6.174   8.463  2.0526 -0.3885 -2.7366
  496MOL0     H66904   3.321   6.287   8.336 -2.1396 -2.1687 -1.7128
  496MOL0     H66905   3.290   6.476   8.466 -4.1671 -0.2458 -0.2694
  496MOL0     H66906   3.231   6.405   8.613 -1.3719  1.4710 -1.4261
  496MOL0     H66907   3.523   6.418   8.519  0.4176 -1.0541 -0.7124
  496MOL0     H66908   3.469   6.277   8.618  0.6205  0.7382  2.5602
  496MOL0     H66909   3.459   6.576   8.665  1.8703 -0.4283 -1.5258
  496MOL0     H66910   3.383   6.456   8.792  0.3853  1.0084  0.4282
  496MOL0     H66911   3.539   6.264   8.879 -2.4051  1.5442 -0.3539
  496MOL0     H66912   3.879   6.355   9.034 -1.9472  2.3579  1.6717
  496MOL0     H66913   3.717   6.323   9.102  0.8038 -0.4910  0.7791
  496MOL0     H66914   3.716   6.109   9.031  0.1444  0.9703  2.4098
  496MOL0     H66915   3.832   6.138   8.893 -0.4002  1.2822 -0.2357
  496MOL0     H66916   3.892   6.131   9.196  2.8596  3.2647  1.0899
  496MOL0     H66917   4.012   6.156   9.065  0.1644 -1.7759 -2.2542
  496MOL0     H66918   4.032   5.923   9.126  2.0629 -1.3536 -3.6399
  496MOL0     H66919   3.960   5.925   8.975  0.6416 -0.3636  0.1460
  496MOL0     H66920   3.740   5.663   9.194 -0.6019  1.5733  0.1193
  496MOL0     H66921   3.731   5.542   9.403 -1.6855  1.7380 -0.0713
  496MOL0     H66922   3.974   5.393   9.793  0.2423  1.3140 -0.0671
  496MOL0     H66923   3.936   5.241   9.981 -0.9585  0.2428 -0.4750
  496MOL0     H66924   3.515   5.128  10.097  1.6311  1.1988  2.0281
  496MOL0     H66925   3.542   5.025   9.964 -0.2704  0.7930  0.0538
  496MOL0     H66926   3.680   4.873  10.122 -0.4420  0.3151 -0.8749
  496MOL0     H66927   3.621   4.975  10.259 -0.1660  0.8267  0.2763
  496MOL0     H66928   3.395   4.916  10.196  0.0591 -0.4941 -1.5963
  496MOL0     H66929   3.461   4.817  10.066 -2.9026  3.9992 -1.2713
  496MOL0     H66930   3.476   4.788  10.373  0.3045  1.6744 -0.7908
  496MOL0     H66931   3.590   4.704  10.289 -0.0923 -1.4024  1.7132
  496MOL0     H66932   3.414   4.585  10.146  2.6895  0.0899  0.0489
  496MOL0     H66933   3.295   4.672  10.247  0.5033  0.7193  0.8249
  496MOL0     H66934   3.354   4.415  10.330  1.8506 -0.8343  0.6637
  496MOL0     H66935   3.509   4.487  10.375 -0.1729  0.2460  2.0238
  496MOL0     H66936   3.257   4.611  10.472 -0.4818  0.3364  0.0963
  496MOL0     H66937   3.422   4.636  10.529  0.2576 -1.1917  1.9299
  496MOL0     H66938   3.295   4.484  10.686 -0.5816  0.6073  0.5372
  496MOL0     H66939   3.290   4.360  10.547  0.6560 -0.0438 -0.0667
  496MOL0     H66940   3.512   5.245   9.876  0.4043 -1.2682  0.1267
  496MOL0     H66941   3.545   5.379   9.703 -2.2986 -0.9268  2.9734
  496MOL0     H66942   3.954   5.849   9.589  0.3856 -0.8921  1.0425
  496MOL0     H66943   3.936   5.994   9.376 -1.9810 -0.5674 -0.6376
  496MOL0     H66944   3.001   5.852   8.749 -0.5553 -0.3662  2.6432
  496MOL0     H66945   2.824   5.761   8.898  0.5700 -0.9358 -2.0085
  496MOL0     H66946   2.461   5.912   9.256  1.6152 -1.4128 -0.0559
  496MOL0     H66947   2.237   5.893   9.358 -1.9237 -1.0596 -0.6693
  496MOL0     H66948   1.864   5.635   9.312 -0.3757 -1.3045 -1.1333
  496MOL0     H66949   1.967   5.567   9.191 -2.5452  0.1501 -1.9084
  496MOL0     H66950   1.958   5.752   9.055  1.1810 -5.9146  0.8983
  496MOL0     H66951   1.852   5.841   9.168  2.6998 -0.5162  1.4618
  496MOL0     H66952   1.689   5.617   9.125 -2.1144  2.0302 -1.0783
  496MOL0     H66953   1.806   5.592   8.999 -1.8844  1.1459 -2.3498
  496MOL0     H66954   1.718   5.812   8.906  0.6630  2.7965  2.0030
  496MOL0     H66955   1.585   5.694   8.954 -1.0861  0.1974  1.4106
  496MOL0     H66956   1.487   6.005   9.188  0.4117  0.3539  0.8148
  496MOL0     H66957   2.133   5.613   9.052 -2.1905 -0.5828  4.3741
  496MOL0     H66958   2.273   5.570   8.881 -1.9096  1.3793  2.1326
  496MOL0     H66959   2.338   5.704   8.803 -3.5658  0.2304  1.5209
  496MOL0     H66960   2.452   5.597   8.891 -1.0926 -3.2196 -2.2940
  497MOL0     O66961  10.803   5.696   1.968 -0.0247 -0.7861  0.4303
  497MOL0     C66962  10.851   5.717   2.077  1.1660  0.2310  0.4737
  497MOL0     O66963  10.854   5.826   2.142 -0.0404 -0.2611 -0.6081
  497MOL0     C66964  10.778   5.932   2.099  0.4198  0.6242  0.0906
  497MOL0     C66965  10.787   5.985   1.966 -0.4934  0.2519 -0.3829
  497MOL0     C66966  10.710   6.092   1.917 -0.0948 -0.8594 -0.1207
  497MOL0     C66967  10.648   6.166   2.021  1.2087  0.2041  0.3135
  497MOL0     O66968  10.588   6.279   1.992  0.7809 -0.1357 -0.2444
  497MOL0     C66969  10.673   6.386   1.931 -0.1754 -0.3549 -0.0755
  497MOL0     C66970  10.625   6.518   1.981  0.8620  0.8107 -0.5149
  497MOL0     C66971  10.724   6.641   1.960 -0.0784 -0.1685  0.1521
  497MOL0     C66972  10.861   6.609   2.002  1.1032 -0.6786  0.4649
  497MOL0     C66973  10.961   6.726   2.002  0.7287  1.0150  0.0943
  497MOL0     C66974  10.948   6.816   1.875 -0.3883  0.0563 -0.5140
  497MOL0     C66975  11.092   6.842   1.811  0.1504 -0.3341 -0.5667
  497MOL0     C66976  11.070   6.948   1.702 -0.8691  0.5414  0.9142
  497MOL0     N66977  11.196   6.951   1.620  0.0123  0.3168 -0.4864
  497MOL0     C66978  11.223   6.891   1.503  0.8056  0.3815 -0.0254
  497MOL0     C66979  11.358   6.911   1.479  1.0139 -0.6708 -1.2821
  497MOL0     C66980  11.433   6.866   1.355  0.3493  0.4247 -0.1198
  497MOL0     C66981  11.347   6.889   1.229  0.5263 -0.3164 -1.1126
  497MOL0     C66982  11.428   6.849   1.095 -0.6555 -0.4427  0.0034
  497MOL0     C66983  11.396   6.947   0.979 -0.4779  0.1458  0.0669
  497MOL0     O66984  11.426   6.902   0.847 -0.0202 -0.0779  0.0380
  497MOL0     C66985  11.347   6.798   0.797 -0.6696 -0.0464 -0.1723
  497MOL0     C66986  11.391   6.746   0.683 -0.2386  1.1221  0.5291
  497MOL0     C66987  11.321   6.640   0.614 -0.1513 -0.5452 -0.7307
  497MOL0     C66988  11.206   6.583   0.674  0.3293 -0.6192 -0.0091
  497MOL0     C66989  11.126   6.478   0.603 -0.2144  0.1513 -0.0718
  497MOL0     O66990  11.012   6.421   0.665  0.5439  0.1043 -0.3051
  497MOL0     C66991  10.953   6.317   0.607  0.7559 -0.3519  0.1919
  497MOL0     C66992  11.026   6.200   0.587  0.0517  0.4541 -1.5997
  497MOL0     C66993  10.976   6.090   0.512 -0.5915 -0.3883 -0.0908
  497MOL0     C66994  10.842   6.092   0.457 -0.0537  0.3548 -0.5857
  497MOL0     O66995  10.787   5.989   0.394  0.0746  0.6058  0.1083
  497MOL0     C66996  10.870   5.897   0.308 -1.7132  0.0812  0.1102
  497MOL0     C66997  10.803   5.753   0.304  0.0839 -0.3643 -0.9022
  497MOL0     C66998  10.899   5.644   0.265  0.9586  0.7508  0.5096
  497MOL0     C66999  10.827   5.506   0.270  0.0222  0.0089  0.0881
  497MOL0     C67000  10.926   5.394   0.239 -0.2545  0.5274  0.2194
  497MOL0     C67001  10.869   5.252   0.267 -0.8024  0.6925  0.0857
  497MOL0     C67002  10.872   5.216   0.417  1.0527 -0.1207 -0.2284
  497MOL0     C67003  10.794   5.080   0.442  0.2463  0.2009  0.2288
  497MOL0    Cl67004  10.884   4.946   0.378 -0.0620  0.1434 -0.2110
  497MOL0     C67005  10.773   6.214   0.474 -0.7006 -0.4406  0.8854
  497MOL0     C67006  10.827   6.320   0.547  0.7280  0.0048  0.1085
  497MOL0     O67007  11.156   6.463   0.484  0.7798  0.0737 -0.4750
  497MOL0     C67008  11.160   6.642   0.796 -0.2523  0.4003  0.0089
  497MOL0     C67009  11.226   6.750   0.852 -0.0509 -0.7390  0.3697
  497MOL0     N67010  11.400   6.988   1.583  0.4348 -0.6490 -0.0199
  497MOL0     N67011  11.310   7.005   1.666 -0.0409  0.0057 -0.2214
  497MOL0     C67012  10.648   6.125   2.156 -0.0286 -0.8478  0.0206
  497MOL0     C67013  10.698   6.004   2.192 -0.7330  0.2117  0.0564
  497MOL0     C67014  10.929   5.611   2.146  0.0689 -0.2053  0.7964
  497MOL0     C67015  10.861   5.486   2.150  1.0648 -0.1113 -0.6481
  497MOL0     C67016  10.931   5.383   2.229 -0.0064 -0.7983  1.1992
  497MOL0     C67017  11.058   5.399   2.290  0.1916 -0.3612 -0.6064
  497MOL0     O67018  11.143   5.300   2.342  0.5220 -1.1907  1.2339
  497MOL0     C67019  11.101   5.165   2.339  0.3201 -0.4552 -0.2627
  497MOL0     C67020  11.148   5.105   2.209 -0.4659 -0.3983 -1.0450
  497MOL0     C67021  11.104   4.965   2.199  0.0379  0.3916 -0.2469
  497MOL0     C67022  10.965   4.956   2.151  0.6812 -0.0492 -0.5091
  497MOL0     C67023  10.922   4.809   2.145 -0.3492 -1.1291  0.1752
  497MOL0     C67024  10.871   4.705   2.130  0.0359  0.4467  0.1220
  497MOL0     C67025  11.118   5.524   2.277 -0.1594  1.0726  0.2812
  497MOL0     C67026  11.062   5.620   2.194  0.2184  1.0812 -0.1317
  497MOL0     C67027  11.154   5.732   2.146 -0.1460 -0.5262  0.7803
  497MOL0     H67028  10.845   5.939   1.886  0.1534 -1.6909  1.1338
  497MOL0     H67029  10.711   6.129   1.815  1.4103  0.7340  0.4167
  497MOL0     H67030  10.775   6.389   1.970 -0.5778  2.5706  1.0140
  497MOL0     H67031  10.667   6.392   1.822 -1.0082  0.6728  0.0056
  497MOL0     H67032  10.621   6.502   2.090  2.6885 -2.7097 -0.8203
  497MOL0     H67033  10.528   6.542   1.936 -0.4480  1.5473  2.4207
  497MOL0     H67034  10.684   6.730   2.009  1.4229  0.7338 -0.1903
  497MOL0     H67035  10.709   6.676   1.858 -0.5277 -0.7341  0.0190
  497MOL0     H67036  10.856   6.566   2.102 -0.7604 -0.6492  0.4067
  497MOL0     H67037  10.900   6.538   1.929 -1.6558 -0.7220 -1.0928
  497MOL0     H67038  10.945   6.792   2.087 -0.3262  0.7574  0.1170
  497MOL0     H67039  11.064   6.692   2.010  0.4200 -0.0894 -0.4327
  497MOL0     H67040  10.888   6.774   1.794 -1.5141  0.5188  0.0544
  497MOL0     H67041  10.909   6.914   1.905 -0.8390 -0.3467  0.2296
  497MOL0     H67042  11.144   6.753   1.775 -2.3912 -1.9202 -0.5895
  497MOL0     H67043  11.156   6.885   1.889  2.7387 -0.7279 -2.3286
  497MOL0     H67044  10.991   6.930   1.629 -0.5610 -2.9590  1.2858
  497MOL0     H67045  11.064   7.041   1.761  1.6318  1.1300  0.3685
  497MOL0     H67046  11.161   6.835   1.434  1.5304 -0.1382 -0.2637
  497MOL0     H67047  11.529   6.916   1.346 -0.9845  2.7695 -3.0425
  497MOL0     H67048  11.440   6.758   1.368 -1.3991  0.5789  3.2072
  497MOL0     H67049  11.254   6.831   1.238  1.2906 -1.4201 -0.0200
  497MOL0     H67050  11.329   6.997   1.235 -0.7464 -0.5695  3.2180
  497MOL0     H67051  11.400   6.747   1.065  2.8098 -1.8024  0.8719
  497MOL0     H67052  11.536   6.848   1.113 -0.3068  1.6496 -1.6777
  497MOL0     H67053  11.462   7.033   0.994 -0.2924 -0.4706  3.5671
  497MOL0     H67054  11.296   6.990   0.992 -1.7312 -2.8217  0.9911
  497MOL0     H67055  11.484   6.786   0.645  1.7289  0.0189  3.8202
  497MOL0     H67056  11.345   6.613   0.512  1.6211  0.1268 -0.5203
  497MOL0     H67057  11.125   6.183   0.629  1.1309  3.1078 -2.7820
  497MOL0     H67058  11.043   6.006   0.495 -1.9691 -1.4493 -0.4902
  497MOL0     H67059  10.880   5.934   0.206  0.1219 -0.8674 -0.0948
  497MOL0     H67060  10.975   5.891   0.337 -1.0154  0.0593 -2.2379
  497MOL0     H67061  10.779   5.732   0.409 -0.3868  3.5455 -0.0957
  497MOL0     H67062  10.703   5.741   0.261 -0.3985 -4.9835  0.8792
  497MOL0     H67063  10.925   5.661   0.160  4.1515  0.7369  1.2044
  497MOL0     H67064  10.992   5.655   0.321 -0.3810  0.6798  2.8474
  497MOL0     H67065  10.737   5.496   0.209 -0.6739 -2.4675  1.3872
  497MOL0     H67066  10.792   5.498   0.373 -0.1135 -0.9836 -0.0198
  497MOL0     H67067  11.023   5.415   0.285  0.6956  0.1989 -1.5623
  497MOL0     H67068  10.940   5.394   0.131  2.2820 -3.1330  0.3389
  497MOL0     H67069  10.769   5.248   0.222  0.4536 -1.0562 -2.8835
  497MOL0     H67070  10.934   5.186   0.209  0.4192  2.1860 -0.3205
  497MOL0     H67071  10.825   5.293   0.478  0.8124 -2.5822  2.9422
  497MOL0     H67072  10.976   5.213   0.452  0.7770 -3.3202  0.5899
  497MOL0     H67073  10.779   5.070   0.550  4.0578  2.4570  1.1375
  497MOL0     H67074  10.700   5.087   0.386  1.8299 -0.5353 -2.7600
  497MOL0     H67075  10.680   6.224   0.418 -0.7667  0.0681  1.0831
  497MOL0     H67076  10.776   6.414   0.529  0.3050 -0.6257 -2.3670
  497MOL0     H67077  11.073   6.598   0.843 -0.5905  0.8377 -0.2006
  497MOL0     H67078  11.190   6.807   0.937  5.1385  1.1636  1.6364
  497MOL0     H67079  10.597   6.178   2.236 -3.5535 -2.6796 -0.7938
  497MOL0     H67080  10.688   5.953   2.288 -0.1435 -1.1904 -0.5943
  497MOL0     H67081  10.763   5.468   2.108  0.4875  0.5809  0.3503
  497MOL0     H67082  10.881   5.286   2.232 -0.4207 -0.5659  2.0375
  497MOL0     H67083  10.993   5.165   2.354  0.4539 -1.4620  0.9039
  497MOL0     H67084  11.148   5.119   2.427  1.4256 -1.3525 -1.2718
  497MOL0     H67085  11.257   5.102   2.214 -0.4598  0.3843 -0.5077
  497MOL0     H67086  11.120   5.167   2.123  0.1850  0.0026 -0.9710
  497MOL0     H67087  11.134   4.910   2.289  3.5026  1.4320 -0.6159
  497MOL0     H67088  11.171   4.914   2.130 -0.4177 -2.0775  1.0036
  497MOL0     H67089  10.887   5.003   2.212  2.3794 -1.1509  2.7218
  497MOL0     H67090  10.959   5.004   2.052 -0.7524  3.9444  1.2840
  497MOL0     H67091  10.820   4.616   2.101 -0.3924  0.8897 -0.5100
  497MOL0     H67092  11.213   5.539   2.328 -0.3947 -0.3209  1.1612
  497MOL0     H67093  11.173   5.703   2.043  0.9118  2.4960  0.0435
  497MOL0     H67094  11.113   5.833   2.154 -2.8751 -1.2100 -2.2609
  497MOL0     H67095  11.243   5.738   2.210 -0.8625 -0.8016  1.8373
  498MOL0     O67096   7.808   3.572   7.630 -0.6507  0.7977 -0.0008
  498MOL0     C67097   7.709   3.497   7.634 -0.2134 -0.7027 -0.1949
  498MOL0     O67098   7.665   3.411   7.531 -0.4050 -0.4411 -0.4559
  498MOL0     C67099   7.760   3.333   7.476  1.4443 -0.4519 -0.2769
  498MOL0     C67100   7.705   3.264   7.373  0.1357  0.4551  0.2265
  498MOL0     C67101   7.777   3.169   7.303  0.6613  0.6231  0.1091
  498MOL0     C67102   7.920   3.151   7.327  0.2626 -0.4879  0.6150
  498MOL0     O67103   8.006   3.073   7.259 -0.1571  0.7804  0.7369
  498MOL0     C67104   7.961   2.998   7.144 -0.1462  0.8352  0.5589
  498MOL0     C67105   7.908   2.861   7.193  0.3925 -0.6723  0.2085
  498MOL0     C67106   7.825   2.790   7.084  0.2150  0.4178  0.1666
  498MOL0     C67107   7.678   2.835   7.074 -0.1568 -0.9834 -0.8256
  498MOL0     C67108   7.609   2.776   6.946 -0.8214  0.3104 -0.0241
  498MOL0     C67109   7.457   2.793   6.945 -0.3133  0.1329 -0.3245
  498MOL0     C67110   7.419   2.936   6.900 -0.4891  0.0860  1.5284
  498MOL0     C67111   7.270   2.963   6.932  0.6627  0.5851 -0.8178
  498MOL0     N67112   7.271   3.038   7.054 -0.5339 -0.2528  1.1140
  498MOL0     C67113   7.311   2.993   7.178  0.4592 -0.1258 -0.3243
  498MOL0     C67114   7.285   3.099   7.260 -0.2261 -1.0517  0.0559
  498MOL0     C67115   7.319   3.085   7.409 -0.0346  0.6715  0.8527
  498MOL0     C67116   7.307   3.208   7.497  0.3306 -1.2140 -0.3370
  498MOL0     C67117   7.289   3.174   7.638 -0.4423 -0.3100 -0.6083
  498MOL0     C67118   7.423   3.128   7.703 -0.8006 -0.7278  0.2578
  498MOL0     O67119   7.414   3.132   7.841 -0.1447  0.4651  0.4003
  498MOL0     C67120   7.528   3.143   7.917 -0.7016 -0.2115  0.1516
  498MOL0     C67121   7.513   3.167   8.057 -0.6688  0.2965  0.6618
  498MOL0     C67122   7.629   3.192   8.135 -0.0967  0.1801  0.7932
  498MOL0     C67123   7.757   3.196   8.072 -0.0632 -0.3584 -0.7298
  498MOL0     C67124   7.877   3.220   8.159 -0.6530 -0.7233  0.0319
  498MOL0     O67125   7.997   3.202   8.107  0.5604  0.1902  0.0542
  498MOL0     C67126   8.116   3.224   8.173 -1.0795  0.3813 -0.2707
  498MOL0     C67127   8.167   3.354   8.204  1.1323 -0.5362  0.3127
  498MOL0     C67128   8.292   3.362   8.278  0.2072 -0.5347  0.0082
  498MOL0     C67129   8.353   3.242   8.318  0.1303 -1.2270 -0.9036
  498MOL0     O67130   8.481   3.258   8.382 -0.7502 -0.5518  0.2150
  498MOL0     C67131   8.478   3.321   8.516  0.6052  0.3782 -0.8529
  498MOL0     C67132   8.556   3.445   8.511 -0.4301  0.9226  0.9900
  498MOL0     C67133   8.537   3.520   8.640  0.7947  0.3560  0.0252
  498MOL0     C67134   8.644   3.622   8.684 -0.1030 -0.1465 -0.3082
  498MOL0     C67135   8.774   3.553   8.714  0.1366 -1.2582  0.4528
  498MOL0     C67136   8.896   3.653   8.714  0.5081 -0.7337  0.7253
  498MOL0     C67137   9.035   3.598   8.694 -0.3730 -0.8579 -0.8762
  498MOL0     C67138   9.057   3.455   8.738  0.8997 -0.4327 -0.1134
  498MOL0    Cl67139   9.232   3.404   8.712 -0.1131 -0.2003  0.0067
  498MOL0     C67140   8.296   3.114   8.291 -0.3663 -0.4866  0.4130
  498MOL0     C67141   8.177   3.103   8.219 -0.6030 -0.6715  0.2370
  498MOL0     O67142   7.862   3.253   8.273  0.6786  0.1814 -0.4084
  498MOL0     C67143   7.777   3.175   7.939 -0.5744 -0.0920  0.6634
  498MOL0     C67144   7.667   3.148   7.866  0.5233 -0.2433  0.1977
  498MOL0     N67145   7.217   3.197   7.189  0.7151 -0.3067 -0.2076
  498MOL0     N67146   7.220   3.161   7.064 -0.5363  0.4557 -0.0753
  498MOL0     C67147   7.973   3.234   7.426 -0.3637 -0.0215 -0.3737
  498MOL0     C67148   7.891   3.315   7.505  0.3329 -0.6950 -0.2619
  498MOL0     C67149   7.614   3.520   7.741 -1.1249  0.5195 -0.1433
  498MOL0     C67150   7.478   3.509   7.707  0.0502  0.4742  0.1675
  498MOL0     C67151   7.381   3.536   7.798  0.4040 -0.3817 -0.3816
  498MOL0     C67152   7.410   3.566   7.929 -0.9427  0.2395 -0.2871
  498MOL0     O67153   7.320   3.579   8.035 -0.8801 -0.5035  0.4849
  498MOL0     C67154   7.184   3.520   8.009  0.1473  0.1975  0.6999
  498MOL0     C67155   7.118   3.501   8.139 -0.1498  0.2440  0.3931
  498MOL0     C67156   6.970   3.467   8.130  0.3556  1.1540  0.1131
  498MOL0     C67157   6.953   3.313   8.127 -0.0324 -1.3355  0.4090
  498MOL0     C67158   6.991   3.244   8.247  0.0200 -0.4200  0.4317
  498MOL0     C67159   7.040   3.178   8.339  0.5566  0.3071  0.0984
  498MOL0     C67160   7.549   3.568   7.964  0.3065 -0.8796  1.1593
  498MOL0     C67161   7.654   3.546   7.875 -0.6329 -0.0840 -0.2094
  498MOL0     C67162   7.793   3.561   7.920  0.0914 -0.4636  0.3999
  498MOL0     H67163   7.615   3.295   7.320  1.2961  1.5551 -1.1788
  498MOL0     H67164   7.735   3.121   7.215 -0.3759  0.9883  0.3873
  498MOL0     H67165   7.883   3.048   7.086  2.6225  1.0436 -3.4001
  498MOL0     H67166   8.046   2.973   7.081  0.9331 -0.3428  2.3771
  498MOL0     H67167   7.846   2.885   7.280  0.3288  1.5568 -0.4022
  498MOL0     H67168   7.995   2.799   7.220 -0.1078 -2.9912 -2.9861
  498MOL0     H67169   7.823   2.681   7.090 -2.2768  0.1368 -3.2164
  498MOL0     H67170   7.871   2.804   6.986  0.4249 -0.3944  0.1449
  498MOL0     H67171   7.627   2.784   7.156 -1.2920 -1.5729 -1.8703
  498MOL0     H67172   7.668   2.943   7.063  0.9455 -0.9912 -2.1668
  498MOL0     H67173   7.654   2.814   6.854  1.2859 -0.9506  0.4111
  498MOL0     H67174   7.639   2.671   6.937 -2.1075 -0.1840  1.1493
  498MOL0     H67175   7.415   2.713   6.884 -2.5793 -0.2177  1.5178
  498MOL0     H67176   7.412   2.772   7.043 -2.1491 -1.0489 -1.3593
  498MOL0     H67177   7.425   2.946   6.791  1.2593 -1.3389  1.4523
  498MOL0     H67178   7.484   3.012   6.944  1.8882 -1.5394  0.9889
  498MOL0     H67179   7.239   3.032   6.852 -1.1623  1.4276  0.5400
  498MOL0     H67180   7.217   2.868   6.940  1.3100  0.0733 -2.3709
  498MOL0     H67181   7.359   2.901   7.207  2.9233  0.8676 -0.9671
  498MOL0     H67182   7.262   3.003   7.453 -0.0013  0.2243  0.0738
  498MOL0     H67183   7.425   3.058   7.403  0.3466  2.1301  0.4190
  498MOL0     H67184   7.392   3.275   7.477 -1.6637  1.4315 -0.4609
  498MOL0     H67185   7.221   3.258   7.452  2.0801  0.2275 -2.2997
  498MOL0     H67186   7.217   3.092   7.648  0.5727 -1.5915 -3.0249
  498MOL0     H67187   7.260   3.263   7.694 -0.8987 -0.3528 -0.7703
  498MOL0     H67188   7.496   3.200   7.663 -2.3333  1.4744  1.2543
  498MOL0     H67189   7.459   3.027   7.681  0.8632 -0.4501  1.4781
  498MOL0     H67190   7.413   3.153   8.097 -0.9901 -1.5672 -0.6594
  498MOL0     H67191   7.609   3.200   8.241 -0.2757  0.7402  0.7209
  498MOL0     H67192   8.103   3.438   8.179  1.6100  0.6607  2.8617
  498MOL0     H67193   8.336   3.457   8.309 -2.4008  0.0184  2.3753
  498MOL0     H67194   8.376   3.343   8.547  0.9284  1.2589 -0.3775
  498MOL0     H67195   8.511   3.247   8.590  0.5144  1.9840  0.8799
  498MOL0     H67196   8.656   3.419   8.474 -0.5381 -0.3548  1.5466
  498MOL0     H67197   8.514   3.494   8.422  1.8724 -2.1823 -2.0816
  498MOL0     H67198   8.441   3.572   8.634 -0.7006 -2.3514 -0.9095
  498MOL0     H67199   8.528   3.450   8.723  0.2770 -0.2156 -0.5107
  498MOL0     H67200   8.613   3.671   8.776 -0.0520 -1.4778  0.4467
  498MOL0     H67201   8.648   3.695   8.603  0.7524 -0.7270 -0.8029
  498MOL0     H67202   8.798   3.468   8.650  0.8830 -1.6724  1.2605
  498MOL0     H67203   8.772   3.510   8.815 -1.3644  3.5407  2.8150
  498MOL0     H67204   8.871   3.729   8.638 -3.5280  2.5386  4.7264
  498MOL0     H67205   8.884   3.720   8.799 -0.4882  2.3588 -1.6481
  498MOL0     H67206   9.098   3.670   8.748 -1.9311 -1.1569  1.5339
  498MOL0     H67207   9.052   3.596   8.586 -1.5048  1.1011 -1.1380
  498MOL0     H67208   9.031   3.446   8.844  2.7981  0.5455  0.4801
  498MOL0     H67209   9.001   3.387   8.673  1.0673 -0.1547 -0.5527
  498MOL0     H67210   8.370   3.040   8.319  0.8995 -1.5967 -4.8368
  498MOL0     H67211   8.124   3.014   8.188 -1.9762  0.7474 -1.7357
  498MOL0     H67212   7.876   3.187   7.896 -0.1997 -0.4414  1.4101
  498MOL0     H67213   7.672   3.147   7.757  0.9379  2.3772  0.1432
  498MOL0     H67214   8.075   3.235   7.462 -1.2791 -0.1994  2.4433
  498MOL0     H67215   7.946   3.375   7.577 -0.3272  0.5640 -0.7784
  498MOL0     H67216   7.444   3.466   7.612  2.7056 -1.7504  0.0976
  498MOL0     H67217   7.279   3.531   7.762 -0.0900 -0.4359  0.9429
  498MOL0     H67218   7.193   3.425   7.957 -0.0738  0.2730  0.5219
  498MOL0     H67219   7.129   3.594   7.951 -1.3898 -0.2459  1.5372
  498MOL0     H67220   7.116   3.588   8.205 -3.4470 -0.7680  1.8033
  498MOL0     H67221   7.186   3.423   8.177  2.0966  2.2277  0.6758
  498MOL0     H67222   6.932   3.507   8.036 -0.7908  0.3280  0.2118
  498MOL0     H67223   6.913   3.514   8.211 -0.4763 -1.2995  1.0296
  498MOL0     H67224   6.851   3.294   8.094  0.0970 -0.5076 -0.5091
  498MOL0     H67225   7.024   3.281   8.050  0.0435  2.2448 -1.2452
  498MOL0     H67226   7.102   3.126   8.409  0.9589  1.2865  0.4867
  498MOL0     H67227   7.576   3.575   8.068 -1.9139  0.2228  1.7152
  498MOL0     H67228   7.809   3.576   8.028 -1.5101 -1.2137  0.7634
  498MOL0     H67229   7.845   3.468   7.898  0.9845 -0.5369  2.5356
  498MOL0     H67230   7.843   3.639   7.863  0.0226 -0.9122 -0.2755
  499MOL0     O67231   4.942   9.986   1.862 -0.2518 -0.6286  0.0530
  499MOL0     C67232   5.064   9.996   1.848  0.5856 -0.0244 -0.0584
  499MOL0     O67233   5.123  10.053   1.744 -0.2840  0.6059 -0.2704
  499MOL0     C67234   5.047  10.122   1.655  0.3096  0.5132  0.2099
  499MOL0     C67235   4.966  10.231   1.689 -0.0101 -0.0671  0.3194
  499MOL0     C67236   4.883  10.281   1.592 -0.7119 -0.5042 -0.2104
  499MOL0     C67237   4.881  10.238   1.456  0.1792  0.8055  0.1382
  499MOL0     O67238   4.797  10.300   1.370 -0.1578  0.6257 -0.6449
  499MOL0     C67239   4.752  10.236   1.251 -0.7821  0.5262 -0.1353
  499MOL0     C67240   4.666  10.333   1.175 -0.4981  0.1248 -0.0761
  499MOL0     C67241   4.576  10.256   1.081 -0.7059  0.2543  0.2599
  499MOL0     C67242   4.465  10.332   1.031  0.3178  0.0300  0.5790
  499MOL0     C67243   4.364  10.233   0.964  0.4637  0.1669  0.4439
  499MOL0     C67244   4.250  10.298   0.904  0.2713 -0.4186  0.4596
  499MOL0     C67245   4.128  10.340   0.993  0.6165 -0.8567 -1.0949
  499MOL0     C67246   4.050  10.225   1.041  0.3520  0.0258 -0.0036
  499MOL0     N67247   3.917  10.267   1.082 -0.0850  0.2090  0.1385
  499MOL0     C67248   3.865  10.252   1.205 -0.1359  0.6524  0.5115
  499MOL0     C67249   3.739  10.282   1.181  1.0383 -0.2996  0.3065
  499MOL0     C67250   3.633  10.291   1.291  0.4758  0.2060 -0.4039
  499MOL0     C67251   3.594  10.146   1.321  0.0083  0.6502 -0.2140
  499MOL0     C67252   3.546  10.052   1.206  1.0472 -0.3352  0.1627
  499MOL0     C67253   3.412  10.110   1.158 -0.2339 -0.2286  1.0206
  499MOL0     O67254   3.343  10.044   1.058  0.2101 -0.2623  0.3047
  499MOL0     C67255   3.232   9.985   1.118  0.6748  0.6006 -0.1283
  499MOL0     C67256   3.237   9.866   1.186  0.3403 -0.2487  0.1123
  499MOL0     C67257   3.128   9.810   1.247  0.6579 -0.6198 -0.8436
  499MOL0     C67258   2.995   9.858   1.241  0.6468 -0.0938  0.2422
  499MOL0     C67259   2.886   9.801   1.317 -0.8313 -0.2064  0.5083
  499MOL0     O67260   2.915   9.709   1.416  0.4467 -0.0808  0.4178
  499MOL0     C67261   2.818   9.634   1.473 -0.3791 -0.3021  0.0468
  499MOL0     C67262   2.810   9.502   1.424  0.0145 -0.3970 -0.1505
  499MOL0     C67263   2.704   9.421   1.469 -0.0946  0.3259  0.1172
  499MOL0     C67264   2.599   9.468   1.557  0.0068 -0.6729 -0.8552
  499MOL0     O67265   2.510   9.376   1.601  0.8755 -0.3280  0.0005
  499MOL0     C67266   2.392   9.426   1.673 -0.9544 -0.1828 -0.6017
  499MOL0     C67267   2.317   9.304   1.692  0.0102  0.3889 -0.4111
  499MOL0     C67268   2.258   9.260   1.548 -0.1623  0.0427  0.2517
  499MOL0     C67269   2.144   9.146   1.550  0.3823 -0.5241  0.2467
  499MOL0     C67270   2.090   9.106   1.416 -0.0833  0.0128  1.6278
  499MOL0     C67271   2.184   9.075   1.301 -1.3609 -0.3265  0.2293
  499MOL0     C67272   2.313   9.009   1.345 -0.5788  0.6752  1.1353
  499MOL0     C67273   2.317   8.856   1.287 -0.4541 -0.3148 -0.0674
  499MOL0    Cl67274   2.350   8.854   1.107  0.3512  0.2230  0.1829
  499MOL0     C67275   2.625   9.596   1.610 -0.8803 -0.6533 -0.4313
  499MOL0     C67276   2.728   9.680   1.568 -0.6411  0.7647 -0.0538
  499MOL0     O67277   2.779   9.846   1.290  0.1650  0.6494 -0.5244
  499MOL0     C67278   2.993   9.975   1.167 -0.1792 -0.4846 -0.0310
  499MOL0     C67279   3.104  10.030   1.101 -0.4263 -0.1681 -0.2897
  499MOL0     N67280   3.721  10.330   1.050  0.3612 -0.3341  0.1237
  499MOL0     N67281   3.829  10.326   0.995  0.2626 -0.5409  0.1799
  499MOL0     C67282   4.972  10.135   1.416  0.0126  0.4758 -0.0143
  499MOL0     C67283   5.051  10.073   1.516 -0.8371  0.1144 -1.1474
  499MOL0     C67284   5.149   9.930   1.962  0.3466  0.0077 -0.2422
  499MOL0     C67285   5.283   9.953   1.952  1.0388 -0.2255  0.2718
  499MOL0     C67286   5.378   9.882   2.018 -0.5688 -0.2645 -0.3316
  499MOL0     C67287   5.334   9.816   2.132  0.5923 -0.6576  0.0371
  499MOL0     O67288   5.427   9.746   2.211 -0.0372 -0.3465 -0.1235
  499MOL0     C67289   5.450   9.816   2.333  0.1254  0.6921 -1.3215
  499MOL0     C67290   5.408   9.740   2.460 -0.0446  0.2635 -0.4535
  499MOL0     C67291   5.499   9.625   2.492 -0.0201  0.1988 -0.8250
  499MOL0     C67292   5.436   9.550   2.614  0.4832 -0.6530  0.7858
  499MOL0     C67293   5.486   9.420   2.655 -0.0615  0.1320  0.2521
  499MOL0     C67294   5.532   9.322   2.695  0.0207  0.3247  0.7795
  499MOL0     C67295   5.197   9.819   2.170  0.5442  0.9069 -0.1408
  499MOL0     C67296   5.098   9.865   2.079  0.2157  0.7518 -0.2421
  499MOL0     C67297   4.948   9.822   2.110  0.0466  0.2742 -0.3335
  499MOL0     H67298   4.950  10.258   1.793 -1.7378  1.3441 -0.2735
  499MOL0     H67299   4.819  10.363   1.622 -0.2002 -0.7958  1.7760
  499MOL0     H67300   4.836  10.217   1.184  0.9893 -1.5993  2.4408
  499MOL0     H67301   4.698  10.144   1.276  0.4632  0.3964  2.3710
  499MOL0     H67302   4.728  10.401   1.116 -0.7642  1.0342  0.6651
  499MOL0     H67303   4.600  10.380   1.249 -2.0594 -2.1161  0.0744
  499MOL0     H67304   4.535  10.165   1.126 -1.1374 -0.0500 -0.7156
  499MOL0     H67305   4.634  10.221   0.995  1.9978  1.2181  1.5643
  499MOL0     H67306   4.424  10.380   1.120 -1.4651  1.0121 -0.6977
  499MOL0     H67307   4.494  10.413   0.964  1.8835  2.1784  3.6300
  499MOL0     H67308   4.426  10.183   0.889  2.9042  1.1273  1.7007
  499MOL0     H67309   4.328  10.158   1.035  1.0532 -1.0915 -0.5464
  499MOL0     H67310   4.282  10.390   0.853 -2.3450 -0.1840 -0.9041
  499MOL0     H67311   4.228  10.224   0.827  0.5579  1.1221 -1.1884
  499MOL0     H67312   4.070  10.400   0.922  3.5172  3.6368 -0.0973
  499MOL0     H67313   4.161  10.414   1.066 -0.1540 -1.3463 -0.2288
  499MOL0     H67314   4.046  10.159   0.954  0.3912  1.5664 -1.2203
  499MOL0     H67315   4.105  10.174   1.121  0.4722  0.9557  0.5256
  499MOL0     H67316   3.915  10.219   1.296 -1.8286 -0.0212  1.2544
  499MOL0     H67317   3.658  10.343   1.384  2.6347 -1.7049  0.1787
  499MOL0     H67318   3.554  10.351   1.245  0.7350  0.2193 -0.8290
  499MOL0     H67319   3.683  10.092   1.355 -0.2827 -0.1509 -0.6802
  499MOL0     H67320   3.527  10.164   1.405  0.7509  0.4783  0.4369
  499MOL0     H67321   3.543   9.950   1.245  0.0480  0.5686  2.6664
  499MOL0     H67322   3.624  10.057   1.130  0.9625 -0.0155  0.0988
  499MOL0     H67323   3.434  10.208   1.116  0.3520  0.0311  1.8918
  499MOL0     H67324   3.348  10.137   1.242  0.0811  3.6088  0.2378
  499MOL0     H67325   3.331   9.817   1.209 -0.5660 -1.2263  2.0340
  499MOL0     H67326   3.142   9.732   1.321 -0.6253 -0.8481 -0.8179
  499MOL0     H67327   2.864   9.472   1.335  0.1154  1.4660 -0.7492
  499MOL0     H67328   2.688   9.319   1.433  2.4817 -0.5804  1.3197
  499MOL0     H67329   2.413   9.472   1.770 -0.8060  0.9549 -1.1607
  499MOL0     H67330   2.327   9.493   1.618  0.7262  1.2151 -0.9822
  499MOL0     H67331   2.379   9.220   1.723 -0.4271  0.9982  2.3676
  499MOL0     H67332   2.242   9.346   1.759  1.7132  1.3850  0.9698
  499MOL0     H67333   2.212   9.349   1.505 -0.0194 -1.5664 -3.6045
  499MOL0     H67334   2.338   9.233   1.478  0.0431  1.4076 -0.0787
  499MOL0     H67335   2.062   9.186   1.610  0.9655  1.2145 -0.0727
  499MOL0     H67336   2.193   9.061   1.598  2.1195 -0.7500 -1.7792
  499MOL0     H67337   2.024   9.181   1.372  1.9106 -1.1828 -4.2237
  499MOL0     H67338   2.035   9.011   1.422 -0.9209  0.2278 -1.2679
  499MOL0     H67339   2.129   9.011   1.231  0.2059 -0.9163 -0.5061
  499MOL0     H67340   2.210   9.172   1.258 -2.8385  0.7028  1.5443
  499MOL0     H67341   2.334   8.997   1.452 -1.3863 -1.3040  1.1125
  499MOL0     H67342   2.393   9.058   1.289 -1.7869 -0.2611 -1.5645
  499MOL0     H67343   2.402   8.803   1.330 -0.8170  0.2238  1.3832
  499MOL0     H67344   2.221   8.817   1.322 -1.8922  0.9989 -2.2439
  499MOL0     H67345   2.569   9.644   1.690  0.9322 -1.8893  1.6873
  499MOL0     H67346   2.750   9.774   1.617  2.2725  0.1911 -0.0896
  499MOL0     H67347   2.912  10.046   1.180 -1.0370 -1.1833 -1.3422
  499MOL0     H67348   3.108  10.132   1.062  0.5119  0.8154  2.1600
  499MOL0     H67349   4.975  10.091   1.317 -1.3212 -1.5899  0.7943
  499MOL0     H67350   5.106   9.980   1.507 -3.2761 -2.2778  4.2037
  499MOL0     H67351   5.330  10.003   1.868  0.7926 -0.6477 -0.1234
  499MOL0     H67352   5.484   9.898   2.002 -0.2351 -1.6775  0.3382
  499MOL0     H67353   5.388   9.905   2.344 -2.1512 -0.8895 -0.3063
  499MOL0     H67354   5.556   9.841   2.339  0.2086  0.0976  2.9073
  499MOL0     H67355   5.302   9.715   2.448 -0.4976  3.2386 -4.8323
  499MOL0     H67356   5.408   9.810   2.544 -2.8926 -0.4696  0.2711
  499MOL0     H67357   5.602   9.658   2.510 -0.0821  0.7102 -1.3754
  499MOL0     H67358   5.503   9.558   2.406  0.4734  1.4030 -1.7706
  499MOL0     H67359   5.434   9.612   2.704  1.1207  0.0219  0.3456
  499MOL0     H67360   5.331   9.544   2.583  0.6646 -1.2099  0.2434
  499MOL0     H67361   5.575   9.230   2.729 -1.1148 -0.4992  0.0756
  499MOL0     H67362   5.168   9.783   2.268  0.6465  0.7484 -0.1686
  499MOL0     H67363   4.927   9.742   2.038 -2.4723  0.8720 -0.3277
  499MOL0     H67364   4.944   9.775   2.209 -1.7962 -0.7018 -0.8384
  499MOL0     H67365   4.873   9.901   2.103  2.3776  2.5974 -0.6273
  500MOL0     O67366   0.263   8.363   3.986 -0.1005 -0.6385  0.9155
  500MOL0     C67367   0.294   8.493   3.990 -0.5888  1.1057  0.4084
  500MOL0     O67368   0.369   8.557   3.894 -0.5328 -0.9619  0.3749
  500MOL0     C67369   0.409   8.506   3.771 -0.8457 -0.4794 -0.3632
  500MOL0     C67370   0.311   8.446   3.692 -0.2364  0.6088  0.6650
  500MOL0     C67371   0.331   8.414   3.557  0.7125 -0.1347  0.5687
  500MOL0     C67372   0.462   8.433   3.493  0.4341 -0.2406  0.1000
  500MOL0     O67373   0.502   8.374   3.380  0.2909 -0.0033  0.2832
  500MOL0     C67374   0.402   8.341   3.284  0.9541  0.0690  0.2670
  500MOL0     C67375   0.478   8.284   3.166 -0.6556  1.3030 -0.7198
  500MOL0     C67376   0.497   8.131   3.153 -0.4246  1.1434  0.1291
  500MOL0     C67377   0.366   8.063   3.110  0.8719 -0.4912 -0.0024
  500MOL0     C67378   0.382   7.914   3.079 -0.2928  0.3757 -0.1055
  500MOL0     C67379   0.256   7.831   3.039 -0.1727  0.2727  0.7925
  500MOL0     C67380   0.298   7.693   3.035  0.7737  0.1002  0.3259
  500MOL0     C67381   0.337   7.634   3.174  0.1530  0.1759  0.0776
  500MOL0     N67382   0.389   7.503   3.144  0.1266 -0.0305 -0.5736
  500MOL0     C67383   0.345   7.379   3.180 -0.4381 -0.8098 -0.2014
  500MOL0     C67384   0.437   7.296   3.140 -0.6771  0.1570  0.7442
  500MOL0     C67385   0.435   7.142   3.165  0.5058 -0.0771  0.6285
  500MOL0     C67386   0.451   7.070   3.023 -0.1614 -0.1567 -0.1581
  500MOL0     C67387   0.361   6.950   3.000 -0.0169  0.1578  1.1409
  500MOL0     C67388   0.395   6.867   2.874  0.1411 -0.1451  0.1309
  500MOL0     O67389   0.497   6.774   2.907 -0.5908  0.8342  0.1563
  500MOL0     C67390   0.559   6.707   2.805  0.1235 -0.0467 -0.2530
  500MOL0     C67391   0.644   6.607   2.847  0.2278  0.1439  0.1751
  500MOL0     C67392   0.699   6.512   2.757  0.7803 -0.5222 -0.3046
  500MOL0     C67393   0.680   6.535   2.616 -0.2550 -0.0450 -0.1097
  500MOL0     C67394   0.753   6.450   2.517  1.1575 -0.1577  0.7675
  500MOL0     O67395   0.759   6.327   2.557 -0.8327  0.4341  0.3939
  500MOL0     C67396   0.851   6.236   2.514  0.0847  0.5656  0.4143
  500MOL0     C67397   0.817   6.105   2.561 -0.0903  0.4353  0.2322
  500MOL0     C67398   0.899   5.992   2.550  0.3343  0.0271 -0.2404
  500MOL0     C67399   1.027   6.010   2.491  0.7627  0.9176 -0.9554
  500MOL0     O67400   1.119   5.914   2.462 -0.0917  0.2193  0.6596
  500MOL0     C67401   1.128   5.789   2.536 -0.3200 -0.7749 -0.5658
  500MOL0     C67402   1.174   5.668   2.447 -0.5956 -0.0241 -0.7859
  500MOL0     C67403   1.329   5.646   2.479 -0.3511 -0.5663 -0.1589
  500MOL0     C67404   1.375   5.536   2.381 -0.5497 -0.4596  0.0692
  500MOL0     C67405   1.522   5.534   2.359 -0.8532  0.7909  0.1259
  500MOL0     C67406   1.585   5.430   2.268 -0.2898 -0.4537 -0.1787
  500MOL0     C67407   1.731   5.471   2.242 -0.4019 -0.7397  0.2782
  500MOL0     C67408   1.790   5.407   2.117 -0.4343  0.4424 -1.2270
  500MOL0    Cl67409   1.726   5.470   1.969 -0.3089 -0.0291 -0.0055
  500MOL0     C67410   1.054   6.135   2.437  0.4430  1.0189 -0.3658
  500MOL0     C67411   0.976   6.250   2.451 -0.1452  0.0203  0.2715
  500MOL0     O67412   0.787   6.500   2.414  0.5669  0.4395 -0.5659
  500MOL0     C67413   0.604   6.636   2.575  0.7083 -0.7475 -1.0153
  500MOL0     C67414   0.534   6.721   2.661 -0.3627  0.1768 -0.3387
  500MOL0     N67415   0.535   7.365   3.070  0.0072 -0.0746 -0.4183
  500MOL0     N67416   0.505   7.487   3.077 -0.4453  0.2265  0.0977
  500MOL0     C67417   0.563   8.491   3.571 -0.1131  0.6965 -0.9281
  500MOL0     C67418   0.532   8.531   3.709  0.1230 -0.2100  0.4207
  500MOL0     C67419   0.270   8.575   4.106 -0.0244  0.3461  0.0437
  500MOL0     C67420   0.373   8.657   4.149  0.5968  0.3055 -0.6346
  500MOL0     C67421   0.359   8.746   4.256  0.0379  0.7443 -0.7436
  500MOL0     C67422   0.238   8.749   4.323 -0.9078 -1.0669 -0.0490
  500MOL0     O67423   0.221   8.847   4.416 -0.5255 -0.7621 -0.3651
  500MOL0     C67424   0.094   8.915   4.432 -0.2769 -0.1994 -0.3251
  500MOL0     C67425   0.115   9.029   4.537 -0.1476  0.2277 -0.0510
  500MOL0     C67426   0.230   9.133   4.502 -0.3334 -0.5578 -1.1313
  500MOL0     C67427   0.245   9.234   4.625  0.6815 -0.3737 -0.1816
  500MOL0     C67428   0.292   9.157   4.744  0.1601  0.1961 -0.1258
  500MOL0     C67429   0.340   9.100   4.842  0.9552  0.3952 -0.2667
  500MOL0     C67430   0.135   8.658   4.283  0.4805 -0.2739 -0.2010
  500MOL0     C67431   0.145   8.581   4.169  0.0666  0.8752 -0.1649
  500MOL0     C67432   0.024   8.501   4.117  0.3268  0.4006 -0.1591
  500MOL0     H67433   0.217   8.417   3.738 -1.3420  0.0499 -1.7708
  500MOL0     H67434   0.246   8.371   3.503  0.8961 -0.3884  0.4782
  500MOL0     H67435   0.345   8.252   3.313  0.0333  0.1491 -1.1939
  500MOL0     H67436   0.332   8.423   3.265 -0.7381 -1.8377 -2.4244
  500MOL0     H67437   0.582   8.317   3.171  0.1699 -0.7918 -2.2371
  500MOL0     H67438   0.438   8.320   3.071 -0.6666  2.1664 -0.4003
  500MOL0     H67439   0.538   8.077   3.239  0.6870 -0.1857 -1.1776
  500MOL0     H67440   0.569   8.116   3.072  0.7537  1.9771  0.9849
  500MOL0     H67441   0.291   8.078   3.188  1.2904  0.1145  0.2852
  500MOL0     H67442   0.314   8.110   3.025  0.6486 -0.8455 -0.0635
  500MOL0     H67443   0.456   7.905   3.000  0.0835  1.2300  0.1390
  500MOL0     H67444   0.429   7.881   3.173  1.4667  0.0069 -1.0758
  500MOL0     H67445   0.179   7.847   3.115 -2.7333 -0.1737 -1.5974
  500MOL0     H67446   0.229   7.855   2.936  1.7845  2.6298  0.7092
  500MOL0     H67447   0.373   7.682   2.956 -0.5712  0.6350 -1.1063
  500MOL0     H67448   0.215   7.627   3.008 -2.2364  2.3975  3.1424
  500MOL0     H67449   0.424   7.681   3.221  1.4239 -1.7548 -0.2464
  500MOL0     H67450   0.247   7.640   3.236 -1.5197  1.0264 -2.2634
  500MOL0     H67451   0.263   7.341   3.241  0.2520 -2.6517 -0.3376
  500MOL0     H67452   0.505   7.092   3.232  0.5854 -1.1257 -0.2041
  500MOL0     H67453   0.337   7.119   3.208  0.9367 -0.4267  1.4396
  500MOL0     H67454   0.424   7.134   2.938 -0.6613 -2.4327 -1.8129
  500MOL0     H67455   0.558   7.051   3.013  0.0641  0.7142  0.5295
  500MOL0     H67456   0.259   6.988   2.991  0.0976  0.2290  0.0521
  500MOL0     H67457   0.362   6.885   3.088  0.9446  1.9240  2.5151
  500MOL0     H67458   0.424   6.914   2.780 -0.4948 -0.8307 -0.4200
  500MOL0     H67459   0.300   6.814   2.862 -0.8797  0.7132  3.4674
  500MOL0     H67460   0.664   6.599   2.954  0.0677 -1.1776  0.1128
  500MOL0     H67461   0.768   6.438   2.797  0.2458 -1.0438 -0.3306
  500MOL0     H67462   0.715   6.084   2.593  0.4906 -0.0346  1.8940
  500MOL0     H67463   0.871   5.888   2.564 -2.7302  0.1504 -3.8803
  500MOL0     H67464   1.204   5.793   2.616  0.7028 -3.3289 -1.3132
  500MOL0     H67465   1.037   5.765   2.591  1.2090 -2.5276  1.4085
  500MOL0     H67466   1.125   5.576   2.482  0.2857  0.7383  2.9182
  500MOL0     H67467   1.140   5.674   2.343 -1.3163  1.6364 -0.4784
  500MOL0     H67468   1.374   5.745   2.472 -4.2565  1.3205 -1.5002
  500MOL0     H67469   1.347   5.603   2.578  0.4074 -1.2576 -0.5759
  500MOL0     H67470   1.328   5.547   2.284  1.4633 -0.8306 -1.0136
  500MOL0     H67471   1.345   5.440   2.424 -1.4925 -0.7143 -1.1153
  500MOL0     H67472   1.571   5.528   2.456 -1.4996 -1.2990  0.3839
  500MOL0     H67473   1.547   5.631   2.316 -2.0006  0.3288 -1.7346
  500MOL0     H67474   1.581   5.327   2.304 -0.9437 -0.7024 -0.9340
  500MOL0     H67475   1.536   5.441   2.171 -1.1632  3.3617  0.5491
  500MOL0     H67476   1.794   5.441   2.326 -1.0390 -1.2346  0.5964
  500MOL0     H67477   1.726   5.580   2.244 -0.6925 -0.7586  0.8124
  500MOL0     H67478   1.896   5.434   2.126 -0.6408  0.8559  0.2627
  500MOL0     H67479   1.783   5.297   2.119  1.3302  0.2277 -3.2635
  500MOL0     H67480   1.137   6.158   2.371  1.6753 -0.3698  0.6442
  500MOL0     H67481   1.002   6.346   2.410  0.9106 -0.5910 -0.5498
  500MOL0     H67482   0.581   6.641   2.469 -0.2891 -0.9251 -0.8168
  500MOL0     H67483   0.451   6.781   2.625 -0.2581  0.7675  0.3848
  500MOL0     H67484   0.659   8.510   3.525 -0.1852  1.3680 -0.8140
  500MOL0     H67485   0.613   8.575   3.766  0.6713 -0.0066 -0.4875
  500MOL0     H67486   0.470   8.643   4.102  1.4030 -0.8908  1.2766
  500MOL0     H67487   0.453   8.782   4.297  0.7760 -3.3289  1.6319
  500MOL0     H67488   0.022   8.838   4.462  2.3223 -1.7560  2.4776
  500MOL0     H67489   0.068   8.962   4.337 -4.5983  1.4317  1.3774
  500MOL0     H67490   0.124   8.973   4.631  0.7779  0.1109 -0.2015
  500MOL0     H67491   0.029   9.096   4.545  0.6882  1.3262 -0.1593
  500MOL0     H67492   0.221   9.189   4.408  1.1150  0.2388 -0.8227
  500MOL0     H67493   0.321   9.076   4.482 -2.2325 -3.4910 -1.9855
  500MOL0     H67494   0.301   9.327   4.615 -2.4357  1.5735 -0.6749
  500MOL0     H67495   0.149   9.280   4.650 -0.3130 -2.1086 -0.6082
  500MOL0     H67496   0.385   9.058   4.929  0.0312  0.6072  0.3335
  500MOL0     H67497   0.041   8.664   4.338 -0.0319  2.8997 -1.2366
  500MOL0     H67498   0.046   8.394   4.111 -0.4121  0.3103 -1.9152
  500MOL0     H67499  -0.065   8.515   4.179 -0.1293 -0.7852 -0.5021
  500MOL0     H67500  -0.003   8.529   4.015 -0.6505 -1.3150 -0.4145
  501MOL0     O67501   5.530   4.482   1.432 -0.5072 -0.1926  0.2128
  501MOL0     C67502   5.465   4.548   1.350  0.8972  0.0248 -0.9241
  501MOL0     O67503   5.327   4.518   1.312  0.0766 -0.4284 -0.2721
  501MOL0     C67504   5.246   4.420   1.357 -0.1141  1.4015  0.2896
  501MOL0     C67505   5.284   4.299   1.428 -0.2152  0.3913 -0.3535
  501MOL0     C67506   5.181   4.202   1.451 -0.9058  0.1152 -0.7084
  501MOL0     C67507   5.047   4.230   1.444  0.2382  1.0579  0.9582
  501MOL0     O67508   4.960   4.135   1.486  0.1174  0.3992  0.1116
  501MOL0     C67509   4.820   4.160   1.486  0.2023  0.0251 -0.6267
  501MOL0     C67510   4.741   4.041   1.525 -0.0081  0.5050  0.0305
  501MOL0     C67511   4.720   3.998   1.671 -1.1256 -0.8253  0.5849
  501MOL0     C67512   4.659   4.106   1.755 -0.9347  0.0020  0.1149
  501MOL0     C67513   4.666   4.055   1.902  0.1149 -0.0938 -0.0686
  501MOL0     C67514   4.597   4.156   1.995  0.5408 -0.0381  0.0275
  501MOL0     C67515   4.617   4.122   2.141 -0.2531  0.1808  0.5661
  501MOL0     C67516   4.567   4.230   2.227  0.4276  0.8940 -0.7555
  501MOL0     N67517   4.578   4.191   2.369  0.6598 -0.4015  0.1285
  501MOL0     C67518   4.675   4.249   2.453 -0.1919  1.5225  0.5058
  501MOL0     C67519   4.688   4.158   2.555  0.0274  0.0781 -0.3352
  501MOL0     C67520   4.783   4.149   2.668  0.2242  0.3041 -0.2632
  501MOL0     C67521   4.717   4.183   2.805  0.5580 -0.0787 -0.1479
  501MOL0     C67522   4.813   4.182   2.932 -0.6342 -0.2886 -0.0327
  501MOL0     C67523   4.880   4.045   2.964  0.6852 -0.0511  0.0418
  501MOL0     O67524   4.781   3.939   2.982 -0.2929  0.0924 -0.8285
  501MOL0     C67525   4.735   3.915   3.109  0.8139 -0.4671 -0.0930
  501MOL0     C67526   4.833   3.895   3.211 -0.0246 -0.7017 -0.7677
  501MOL0     C67527   4.780   3.865   3.333 -0.2470  0.1643 -0.4853
  501MOL0     C67528   4.638   3.868   3.368  0.9973 -1.2279 -0.9350
  501MOL0     C67529   4.593   3.857   3.514  0.4756 -0.0333 -0.6027
  501MOL0     O67530   4.460   3.892   3.535 -0.1559 -0.6408  0.2761
  501MOL0     C67531   4.436   3.954   3.660 -0.1737  0.5080 -0.9297
  501MOL0     C67532   4.302   3.920   3.709 -0.0560  0.4947 -0.1891
  501MOL0     C67533   4.248   3.982   3.822  0.2002  0.0006  0.6257
  501MOL0     C67534   4.329   4.081   3.890 -0.4602 -0.1004 -0.0572
  501MOL0     O67535   4.277   4.138   4.000 -0.0725 -0.0134  0.0401
  501MOL0     C67536   4.153   4.216   3.988  0.9560 -0.7589 -0.1659
  501MOL0     C67537   4.131   4.298   4.117  0.0838  1.3675 -0.4027
  501MOL0     C67538   4.151   4.214   4.256  0.3831  0.2661  0.8922
  501MOL0     C67539   4.021   4.128   4.283  0.4463  0.1332 -0.9750
  501MOL0     C67540   3.942   4.218   4.388  0.2292  0.1989  0.6431
  501MOL0     C67541   3.966   4.193   4.540 -0.0706  0.8067 -0.2108
  501MOL0     C67542   3.905   4.065   4.596 -0.1442  0.2021  0.0492
  501MOL0     C67543   3.993   3.991   4.693 -0.5817 -0.2304  0.2272
  501MOL0    Cl67544   3.919   3.886   4.813 -0.0853  0.2420 -0.0972
  501MOL0     C67545   4.463   4.111   3.850  0.3176 -0.1617 -0.4987
  501MOL0     C67546   4.520   4.043   3.734 -0.0780  0.2503  0.1959
  501MOL0     O67547   4.676   3.820   3.595  0.2228  0.8123 -0.2029
  501MOL0     C67548   4.557   3.909   3.269  0.0540  0.5625 -0.3866
  501MOL0     C67549   4.592   3.925   3.137 -0.9902 -0.3960 -0.6350
  501MOL0     N67550   4.580   4.064   2.544  0.1598 -0.1685 -0.5869
  501MOL0     N67551   4.520   4.078   2.428 -0.0803  0.4188  0.4077
  501MOL0     C67552   5.015   4.343   1.371  0.9166 -0.6327 -0.3497
  501MOL0     C67553   5.119   4.419   1.313 -0.6561 -0.2525 -0.0753
  501MOL0     C67554   5.520   4.671   1.293 -0.4934 -0.4224  0.6165
  501MOL0     C67555   5.448   4.720   1.189  0.0593 -0.3530 -0.8848
  501MOL0     C67556   5.502   4.829   1.123 -0.2659  0.2816  0.0098
  501MOL0     C67557   5.619   4.888   1.161  0.2012 -0.2677 -0.2374
  501MOL0     O67558   5.659   4.997   1.092 -0.3361 -0.1220 -0.0903
  501MOL0     C67559   5.683   5.117   1.169  0.0538  0.0253 -0.2624
  501MOL0     C67560   5.805   5.190   1.119 -0.3916 -0.2882  0.0449
  501MOL0     C67561   5.828   5.328   1.183 -0.5957 -0.6507 -0.2999
  501MOL0     C67562   5.947   5.398   1.105 -0.5024 -0.7513  0.7911
  501MOL0     C67563   6.080   5.332   1.125  0.4863 -0.6016 -0.1721
  501MOL0     C67564   6.178   5.265   1.145 -0.8176  0.0724 -0.6609
  501MOL0     C67565   5.688   4.835   1.272 -0.5478  0.0968 -1.0406
  501MOL0     C67566   5.650   4.717   1.331  0.1928  1.0195 -0.2715
  501MOL0     C67567   5.738   4.648   1.441 -0.3544  0.6695  0.8787
  501MOL0     H67568   5.385   4.271   1.454  0.2729  0.3243 -2.1861
  501MOL0     H67569   5.213   4.108   1.494 -0.1112  0.2001 -1.0902
  501MOL0     H67570   4.786   4.255   1.527 -0.2472 -0.3148 -0.1940
  501MOL0     H67571   4.794   4.168   1.380 -0.9652  1.0033 -0.2894
  501MOL0     H67572   4.798   3.957   1.485  0.7979  0.4475  1.2628
  501MOL0     H67573   4.643   4.059   1.478  0.4676  2.7584 -0.2391
  501MOL0     H67574   4.817   3.965   1.709 -0.6679 -0.6389 -0.3783
  501MOL0     H67575   4.655   3.910   1.674  0.3410 -1.9871 -0.4109
  501MOL0     H67576   4.713   4.201   1.748  0.8158 -0.9927 -0.5232
  501MOL0     H67577   4.559   4.132   1.719 -1.2700 -1.1495  0.1804
  501MOL0     H67578   4.607   3.963   1.908 -1.1924  0.5180 -2.3481
  501MOL0     H67579   4.764   4.037   1.947 -0.8609  0.9521  2.6934
  501MOL0     H67580   4.639   4.252   1.963  2.2144 -1.0201 -0.9100
  501MOL0     H67581   4.491   4.155   1.967  0.1670 -1.4504  1.3366
  501MOL0     H67582   4.723   4.114   2.168 -0.0160 -0.1627 -0.4425
  501MOL0     H67583   4.565   4.027   2.156  1.5338 -1.0935 -0.8781
  501MOL0     H67584   4.630   4.319   2.218  2.1845  0.1775  2.7379
  501MOL0     H67585   4.465   4.262   2.205 -0.2731 -1.1681 -0.7180
  501MOL0     H67586   4.737   4.336   2.435  1.5055  0.1343 -0.7170
  501MOL0     H67587   4.834   4.053   2.677  0.4243  0.5293  1.1455
  501MOL0     H67588   4.854   4.231   2.651 -1.0293  1.9320  1.9201
  501MOL0     H67589   4.666   4.279   2.796 -2.0545 -1.5463 -3.5633
  501MOL0     H67590   4.631   4.125   2.837 -2.6987  3.5306 -1.5725
  501MOL0     H67591   4.748   4.208   3.016 -0.3645 -4.3450  1.6774
  501MOL0     H67592   4.901   4.243   2.911  0.7456 -1.9439  0.6478
  501MOL0     H67593   4.949   4.040   3.048 -1.2231 -2.8526  1.6108
  501MOL0     H67594   4.939   4.027   2.874 -0.4086  2.9560 -1.4440
  501MOL0     H67595   4.940   3.882   3.199 -0.1936 -1.2079 -1.8512
  501MOL0     H67596   4.853   3.844   3.411 -2.3207 -0.5599  1.4050
  501MOL0     H67597   4.250   3.841   3.654  1.4712 -2.9957  2.9297
  501MOL0     H67598   4.156   3.941   3.864 -0.3471 -2.3303 -2.4909
  501MOL0     H67599   4.156   4.281   3.900  2.4520 -0.5833 -0.0066
  501MOL0     H67600   4.065   4.151   3.987 -2.6773  3.6730  0.7115
  501MOL0     H67601   4.207   4.377   4.118  0.0593  1.4285 -1.6738
  501MOL0     H67602   4.036   4.351   4.110 -0.9222 -0.5406 -3.3110
  501MOL0     H67603   4.238   4.148   4.261  1.3080  1.1061 -2.0431
  501MOL0     H67604   4.172   4.288   4.335  3.1426 -0.3483  0.8243
  501MOL0     H67605   4.048   4.035   4.333  1.4303  1.7992  1.8548
  501MOL0     H67606   3.947   4.111   4.205 -0.4922  1.5704 -0.4449
  501MOL0     H67607   3.836   4.203   4.362 -0.5471  3.0825  1.7927
  501MOL0     H67608   3.964   4.324   4.369 -0.2772  0.3162  0.6968
  501MOL0     H67609   4.074   4.191   4.559 -0.5757  0.0431  3.2555
  501MOL0     H67610   3.933   4.282   4.593 -1.3152 -0.1009  0.6042
  501MOL0     H67611   3.877   3.994   4.518 -0.6229  1.6973 -1.1814
  501MOL0     H67612   3.806   4.086   4.638  0.8626 -0.5129  3.0344
  501MOL0     H67613   4.058   3.934   4.627  1.8747  1.2453  1.2566
  501MOL0     H67614   4.052   4.069   4.741 -1.5369  0.7670 -0.1686
  501MOL0     H67615   4.526   4.176   3.909  1.0128 -0.5598 -0.7950
  501MOL0     H67616   4.621   4.059   3.699 -0.2819 -0.1510 -0.6021
  501MOL0     H67617   4.456   3.942   3.293  0.9314  1.8137  1.9253
  501MOL0     H67618   4.521   3.962   3.063 -1.6103 -0.5958 -0.1440
  501MOL0     H67619   4.915   4.352   1.331  1.8379 -0.6152 -2.8290
  501MOL0     H67620   5.090   4.504   1.251  1.1323 -0.2123 -0.9185
  501MOL0     H67621   5.359   4.671   1.152 -0.8090 -0.7889  1.5702
  501MOL0     H67622   5.446   4.866   1.038  3.4624 -1.2601 -3.4311
  501MOL0     H67623   5.698   5.105   1.277  1.4443  0.7348 -0.3615
  501MOL0     H67624   5.599   5.184   1.148  0.2448 -0.2217 -1.9598
  501MOL0     H67625   5.787   5.198   1.012  1.2724 -1.1948 -0.3353
  501MOL0     H67626   5.897   5.137   1.146 -1.7239 -1.3470  3.0048
  501MOL0     H67627   5.852   5.333   1.289  2.0145  2.9895 -0.8562
  501MOL0     H67628   5.741   5.394   1.171 -0.3932  0.1517  2.1079
  501MOL0     H67629   5.913   5.395   1.001 -2.2792  2.6379  1.1554
  501MOL0     H67630   5.963   5.501   1.137  1.4587 -0.9160  0.4241
  501MOL0     H67631   6.265   5.205   1.166  0.9836  3.2892  2.0727
  501MOL0     H67632   5.780   4.879   1.310 -1.8336  1.1411  1.0150
  501MOL0     H67633   5.678   4.630   1.530 -0.3989 -1.7377  0.4206
  501MOL0     H67634   5.757   4.547   1.405 -2.6775  1.0429 -1.7618
  501MOL0     H67635   5.832   4.696   1.472  1.1534 -2.1318  0.9859
  502MOL0     O67636   1.753   3.300   7.013  0.5264 -0.1428  0.3954
  502MOL0     C67637   1.816   3.409   7.010  0.4249  0.2647 -0.5869
  502MOL0     O67638   1.784   3.517   6.931  0.5313  0.0624 -0.4421
  502MOL0     C67639   1.710   3.526   6.818  0.3794  0.0756  0.1354
  502MOL0     C67640   1.655   3.645   6.779  0.6868 -0.2029 -0.2039
  502MOL0     C67641   1.586   3.662   6.653 -0.3083 -0.1279 -0.2961
  502MOL0     C67642   1.589   3.560   6.556  0.5234 -0.4177 -0.7737
  502MOL0     O67643   1.511   3.575   6.445 -1.1697 -0.4260  0.2688
  502MOL0     C67644   1.446   3.441   6.408  0.3669 -0.0120 -0.3945
  502MOL0     C67645   1.321   3.462   6.318  0.3020 -0.5253 -0.1318
  502MOL0     C67646   1.356   3.514   6.181  0.5259 -0.4426 -0.2448
  502MOL0     C67647   1.259   3.461   6.080 -0.3097 -0.1821  0.1443
  502MOL0     C67648   1.118   3.511   6.100  0.4525 -0.3200  0.1388
  502MOL0     C67649   1.032   3.466   5.990  0.0192 -1.0170  0.3195
  502MOL0     C67650   0.886   3.527   6.003  0.8323 -0.1812 -0.2768
  502MOL0     C67651   0.787   3.479   5.899  0.1037 -0.2970 -0.0180
  502MOL0     N67652   0.653   3.522   5.939  0.0824 -0.1057 -0.1606
  502MOL0     C67653   0.615   3.654   5.937 -0.6281 -0.8830 -0.2015
  502MOL0     C67654   0.483   3.658   5.934  0.6328 -0.3111  0.3752
  502MOL0     C67655   0.382   3.770   5.907  0.2002 -0.4457 -1.1975
  502MOL0     C67656   0.420   3.894   5.984 -0.8614  0.5575  0.6203
  502MOL0     C67657   0.315   4.002   5.993  1.2485 -0.0412 -0.6565
  502MOL0     C67658   0.351   4.134   6.042 -0.1556 -1.2547 -1.1713
  502MOL0     O67659   0.238   4.215   6.022 -0.3275 -0.2562 -0.1505
  502MOL0     C67660   0.229   4.327   6.095 -0.0286 -0.8253  0.0765
  502MOL0     C67661   0.275   4.446   6.035 -0.2416 -0.5270 -0.4268
  502MOL0     C67662   0.266   4.565   6.107  0.4378  0.4913 -0.4906
  502MOL0     C67663   0.212   4.571   6.234 -0.0574  0.3561 -0.5210
  502MOL0     C67664   0.173   4.699   6.297  1.1490  0.4179  0.8763
  502MOL0     O67665   0.077   4.685   6.398 -0.6378  0.1872  0.1757
  502MOL0     C67666   0.017   4.796   6.462 -0.6681 -0.5998 -1.5556
  502MOL0     C67667   0.046   4.819   6.599  0.0796  0.3479  0.0110
  502MOL0     C67668  -0.021   4.924   6.670 -0.4112 -0.4987  0.4193
  502MOL0     C67669  -0.117   5.004   6.597 -0.1523 -0.2113 -0.7777
  502MOL0     O67670  -0.193   5.097   6.662 -0.1281  1.0420 -0.6881
  502MOL0     C67671  -0.121   5.204   6.726  0.2923 -0.2788 -0.5062
  502MOL0     C67672  -0.068   5.304   6.622 -0.8883  0.0970 -0.1474
  502MOL0     C67673   0.006   5.416   6.691 -0.8163  0.1375 -0.5580
  502MOL0     C67674   0.035   5.517   6.584  0.4736  0.7781  0.0540
  502MOL0     C67675   0.095   5.644   6.638  1.2693 -0.4466 -0.1962
  502MOL0     C67676   0.235   5.629   6.712 -0.5574  0.5083 -0.3901
  502MOL0     C67677   0.306   5.764   6.709 -0.4553 -0.9247  0.0358
  502MOL0     C67678   0.449   5.751   6.762  0.0611  0.3549  0.4292
  502MOL0    Cl67679   0.548   5.907   6.750 -0.1312  0.1444  0.4922
  502MOL0     C67680  -0.154   4.973   6.467  0.7107 -0.1026 -0.3509
  502MOL0     C67681  -0.078   4.875   6.394  0.7470 -0.3762 -0.1936
  502MOL0     O67682   0.241   4.793   6.264 -0.2262  0.8292 -1.0841
  502MOL0     C67683   0.173   4.452   6.295 -0.3790 -0.4252  0.0427
  502MOL0     C67684   0.187   4.335   6.224  0.3879  0.5773 -1.2736
  502MOL0     N67685   0.443   3.526   5.962 -0.7377  0.7550  0.8579
  502MOL0     N67686   0.543   3.447   5.957 -0.2415  0.9442  0.0511
  502MOL0     C67687   1.662   3.438   6.599  0.0547 -0.6723 -0.1928
  502MOL0     C67688   1.714   3.424   6.724  0.2269 -0.1405 -0.3331
  502MOL0     C67689   1.901   3.418   7.128 -0.2112  0.0803 -0.1339
  502MOL0     C67690   1.977   3.305   7.165 -0.4300  0.2719  0.3706
  502MOL0     C67691   2.061   3.313   7.280 -0.3986 -0.1120 -1.1178
  502MOL0     C67692   2.073   3.419   7.364  0.1484 -1.0695 -0.0886
  502MOL0     O67693   2.139   3.425   7.490 -0.2392  0.1832  0.2796
  502MOL0     C67694   2.118   3.318   7.577  0.1940  0.4955 -0.0005
  502MOL0     C67695   2.195   3.360   7.707  0.2694  0.2200  0.9255
  502MOL0     C67696   2.202   3.233   7.789 -0.1515 -0.1889 -0.2118
  502MOL0     C67697   2.300   3.254   7.911  0.7289  0.0417 -0.1424
  502MOL0     C67698   2.425   3.324   7.886  0.5761  0.2431  0.2497
  502MOL0     C67699   2.525   3.387   7.856 -0.4598  0.1611  0.1335
  502MOL0     C67700   1.988   3.522   7.322  1.3040 -0.0679 -0.1371
  502MOL0     C67701   1.898   3.532   7.213 -0.3540 -0.3723  0.3698
  502MOL0     C67702   1.807   3.659   7.192  0.8863  0.7041  0.0162
  502MOL0     H67703   1.663   3.726   6.851 -3.2840  0.7944 -0.6453
  502MOL0     H67704   1.531   3.751   6.626  1.6552  1.6025  1.0150
  502MOL0     H67705   1.516   3.373   6.359 -0.5414 -1.1035 -0.2006
  502MOL0     H67706   1.411   3.392   6.499 -1.2687  1.4611 -0.1636
  502MOL0     H67707   1.254   3.531   6.370  2.0368 -0.0152  1.5275
  502MOL0     H67708   1.276   3.363   6.312  3.5358 -2.0654 -0.9942
  502MOL0     H67709   1.460   3.489   6.157 -0.3118 -4.3329 -0.5261
  502MOL0     H67710   1.352   3.623   6.180  0.5250 -0.4435 -0.6458
  502MOL0     H67711   1.297   3.485   5.981 -1.3169 -2.3901 -0.8454
  502MOL0     H67712   1.260   3.351   6.081 -2.3193 -0.2404  0.8930
  502MOL0     H67713   1.065   3.488   6.193  1.2614 -0.6263  0.5268
  502MOL0     H67714   1.121   3.619   6.082  0.9666 -0.3842 -0.1740
  502MOL0     H67715   1.071   3.506   5.896 -1.9550 -0.0547 -0.1468
  502MOL0     H67716   1.032   3.357   5.981  0.8374 -0.9769 -0.2872
  502MOL0     H67717   0.894   3.634   5.981  0.8890 -0.0339  0.4394
  502MOL0     H67718   0.846   3.520   6.104 -2.4097  1.9654 -1.2564
  502MOL0     H67719   0.826   3.508   5.801  1.8786 -0.6120  0.5449
  502MOL0     H67720   0.785   3.371   5.885  0.4837 -0.1033 -1.7199
  502MOL0     H67721   0.675   3.741   5.914 -0.6848 -1.2116 -1.7389
  502MOL0     H67722   0.376   3.794   5.801 -1.0789 -1.5216 -1.3910
  502MOL0     H67723   0.281   3.741   5.936 -1.5001  2.2436 -3.9063
  502MOL0     H67724   0.461   3.861   6.080  0.3234 -1.1485 -0.4156
  502MOL0     H67725   0.495   3.941   5.919 -0.4696 -3.0991 -1.8848
  502MOL0     H67726   0.223   3.969   6.041  0.2854  1.0200 -1.6888
  502MOL0     H67727   0.286   4.014   5.888  2.1660 -2.1076 -1.1921
  502MOL0     H67728   0.438   4.183   5.997 -0.1882  2.5366  2.3486
  502MOL0     H67729   0.388   4.133   6.144 -2.9609  2.7437  0.1635
  502MOL0     H67730   0.319   4.460   5.937  0.3684  1.0882  0.0464
  502MOL0     H67731   0.288   4.651   6.045 -0.4649  0.7595 -0.4585
  502MOL0     H67732   0.096   4.742   6.657 -2.5479  0.2626  2.4015
  502MOL0     H67733   0.007   4.946   6.772 -1.4005  1.2845  0.3403
  502MOL0     H67734  -0.186   5.248   6.803 -1.9874 -2.9779 -0.6775
  502MOL0     H67735  -0.037   5.163   6.784 -1.1515  0.0474  1.9794
  502MOL0     H67736  -0.010   5.268   6.537  2.0902  2.0806  0.8831
  502MOL0     H67737  -0.159   5.348   6.581 -1.0382 -0.0624  0.0090
  502MOL0     H67738  -0.045   5.468   6.773  1.7104 -0.7717  1.7371
  502MOL0     H67739   0.102   5.381   6.727 -1.2912 -2.7068 -1.7882
  502MOL0     H67740  -0.049   5.564   6.533 -0.3477 -0.7225 -0.0135
  502MOL0     H67741   0.108   5.471   6.516 -0.7838  0.9430 -1.4722
  502MOL0     H67742   0.025   5.699   6.701  0.6119  0.2578 -1.5105
  502MOL0     H67743   0.115   5.709   6.552  1.6245 -0.0666  0.1663
  502MOL0     H67744   0.211   5.595   6.814 -0.7540  0.8500 -0.3203
  502MOL0     H67745   0.295   5.557   6.655 -0.3938 -0.0143  0.4189
  502MOL0     H67746   0.239   5.827   6.768 -1.7772 -1.2879 -1.0089
  502MOL0     H67747   0.319   5.803   6.608  3.6525  0.2828  0.8658
  502MOL0     H67748   0.435   5.705   6.860 -0.7119 -1.9884 -0.7132
  502MOL0     H67749   0.503   5.675   6.704 -0.5245 -1.1662  1.8146
  502MOL0     H67750  -0.235   5.028   6.421  0.4174  0.5807  0.9259
  502MOL0     H67751  -0.104   4.840   6.295  1.1848 -1.3016  0.0116
  502MOL0     H67752   0.129   4.440   6.393 -1.7760  0.8925 -0.4003
  502MOL0     H67753   0.158   4.242   6.273  1.1117 -0.4181 -2.6797
  502MOL0     H67754   1.665   3.356   6.528  0.2999  0.4374 -1.5166
  502MOL0     H67755   1.760   3.330   6.755 -0.6241  0.2035  2.2434
  502MOL0     H67756   1.972   3.218   7.100  0.3574 -1.4268  2.4462
  502MOL0     H67757   2.115   3.226   7.314 -2.7668 -0.9072  0.8691
  502MOL0     H67758   2.165   3.232   7.529 -0.9341 -0.4064  0.4840
  502MOL0     H67759   2.015   3.283   7.587  0.9671 -1.8887  0.3881
  502MOL0     H67760   2.133   3.433   7.760 -1.7791 -2.0464  1.8627
  502MOL0     H67761   2.291   3.401   7.675  0.2062 -1.9604 -2.4929
  502MOL0     H67762   2.256   3.159   7.730  0.8543 -1.0241  1.6881
  502MOL0     H67763   2.107   3.194   7.827  0.4471  0.4226  2.0450
  502MOL0     H67764   2.252   3.323   7.981 -3.7489 -0.7722 -2.0218
  502MOL0     H67765   2.316   3.156   7.956  0.4879  0.2958  0.5076
  502MOL0     H67766   2.600   3.448   7.811 -0.4915 -1.8240 -2.9505
  502MOL0     H67767   1.989   3.604   7.392 -0.5932 -0.8285  0.8528
  502MOL0     H67768   1.847   3.733   7.261  1.3382 -0.2765  0.8425
  502MOL0     H67769   1.827   3.698   7.092  1.2077  0.7328  0.0900
  502MOL0     H67770   1.702   3.661   7.224  1.5822 -0.6835  2.7194
  503MOL0     O67771   0.846   4.094   1.231  0.3132 -0.6624 -0.7131
  503MOL0     C67772   0.869   3.982   1.225  0.0295  0.7071 -0.3539
  503MOL0     O67773   0.981   3.926   1.170 -0.2120 -0.4260  0.3604
  503MOL0     C67774   1.095   4.004   1.117 -0.1352  0.4059  0.1843
  503MOL0     C67775   1.200   3.940   1.045  0.1908 -1.5020 -0.3072
  503MOL0     C67776   1.314   4.011   0.985 -0.2292  0.4369  0.4175
  503MOL0     C67777   1.325   4.149   1.003  0.7656 -0.0266  0.1870
  503MOL0     O67778   1.424   4.230   0.954  0.8957 -0.0679  0.1527
  503MOL0     C67779   1.526   4.254   1.048  0.7511  0.5113  0.1435
  503MOL0     C67780   1.635   4.316   0.970 -0.7449 -0.1719  0.2882
  503MOL0     C67781   1.783   4.296   1.040  0.6801  0.0977  0.3270
  503MOL0     C67782   1.773   4.335   1.187 -0.5155 -1.1239 -0.3477
  503MOL0     C67783   1.913   4.312   1.244  0.0548 -1.1915  0.4856
  503MOL0     C67784   1.901   4.314   1.391  0.6776  0.3710 -0.5485
  503MOL0     C67785   2.029   4.278   1.455 -0.6292  0.2635  0.4950
  503MOL0     C67786   2.057   4.129   1.472 -0.4380  0.0837 -0.5533
  503MOL0     N67787   2.170   4.083   1.554  0.4596 -0.6499  0.1479
  503MOL0     C67788   2.267   4.170   1.602 -0.3157  0.1793 -0.0141
  503MOL0     C67789   2.355   4.092   1.672 -0.6774  0.4596 -0.0185
  503MOL0     C67790   2.496   4.145   1.723  0.8337 -0.3224  0.2950
  503MOL0     C67791   2.613   4.108   1.634  0.1727  0.5418  0.3441
  503MOL0     C67792   2.753   4.150   1.689  0.8090 -0.8462 -0.9379
  503MOL0     C67793   2.836   4.033   1.733 -0.5167  0.3096 -0.4489
  503MOL0     O67794   2.909   3.978   1.621  0.5668 -0.2355  0.0934
  503MOL0     C67795   3.013   3.893   1.645 -0.1895  0.1816  0.9360
  503MOL0     C67796   3.050   3.842   1.769 -0.5032 -0.1559  0.2049
  503MOL0     C67797   3.147   3.754   1.780 -1.1664 -0.1223 -0.5286
  503MOL0     C67798   3.209   3.702   1.663  0.1840  0.6545 -0.1835
  503MOL0     C67799   3.323   3.611   1.692  0.3796  0.8084 -0.5475
  503MOL0     O67800   3.417   3.606   1.598 -0.4741 -0.0304  0.0270
  503MOL0     C67801   3.532   3.530   1.607 -0.5669  0.1280 -0.0539
  503MOL0     C67802   3.544   3.409   1.678 -0.6251  0.8010  0.2045
  503MOL0     C67803   3.665   3.349   1.688 -0.7239  0.2174 -0.7458
  503MOL0     C67804   3.784   3.397   1.626  0.5019 -0.0773  0.1232
  503MOL0     O67805   3.901   3.334   1.632 -0.3030 -0.1591 -0.2544
  503MOL0     C67806   3.892   3.194   1.680  1.3389  0.0531  0.6356
  503MOL0     C67807   4.014   3.112   1.644  0.5494 -0.7445  0.7252
  503MOL0     C67808   4.086   3.049   1.763  0.0605  0.3553  0.5085
  503MOL0     C67809   4.179   2.947   1.706 -0.6483 -0.3550  0.6983
  503MOL0     C67810   4.254   2.892   1.829  0.1786  0.7084  0.0731
  503MOL0     C67811   4.337   2.765   1.796 -0.1841 -0.5341  0.4181
  503MOL0     C67812   4.411   2.716   1.931  0.3730  0.2474 -0.4613
  503MOL0     C67813   4.471   2.572   1.911  0.2577 -0.1315  0.6407
  503MOL0    Cl67814   4.564   2.559   1.746  0.2931  0.4502  0.4060
  503MOL0     C67815   3.769   3.519   1.558 -0.8109  0.1275  0.3162
  503MOL0     C67816   3.643   3.574   1.548  0.5474  0.1459  0.3308
  503MOL0     O67817   3.329   3.556   1.805 -0.4260  0.0274  0.6575
  503MOL0     C67818   3.172   3.733   1.536 -0.2748 -0.2142  0.1975
  503MOL0     C67819   3.068   3.836   1.527  0.4758  0.5369 -0.2602
  503MOL0     N67820   2.294   3.976   1.700 -0.6456 -0.3866  0.9742
  503MOL0     N67821   2.191   3.965   1.620 -0.4848  0.1745  0.4217
  503MOL0     C67822   1.220   4.206   1.081 -0.1858  0.1064 -0.1159
  503MOL0     C67823   1.115   4.136   1.141  0.7448 -0.9992  0.2582
  503MOL0     C67824   0.771   3.893   1.290 -0.4492  0.6987 -1.1031
  503MOL0     C67825   0.793   3.753   1.291 -0.4888  0.1019  0.0974
  503MOL0     C67826   0.699   3.665   1.343 -0.2182 -0.1877  1.0779
  503MOL0     C67827   0.589   3.711   1.420  0.0402  0.5370 -0.2463
  503MOL0     O67828   0.513   3.617   1.481  0.5904 -0.0978  0.0439
  503MOL0     C67829   0.415   3.658   1.578  0.1622  0.3084  0.5051
  503MOL0     C67830   0.339   3.536   1.637  0.5787  1.1907  0.6710
  503MOL0     C67831   0.197   3.578   1.673  0.1937  0.5176  0.2644
  503MOL0     C67832   0.095   3.584   1.553  0.0141 -0.4617  0.1407
  503MOL0     C67833  -0.031   3.656   1.588  0.0942 -0.3686 -0.5557
  503MOL0     C67834  -0.140   3.715   1.597 -0.4189 -0.5996  0.5521
  503MOL0     C67835   0.573   3.849   1.434 -0.4256  0.2387  1.2035
  503MOL0     C67836   0.655   3.939   1.366 -0.2838  0.4494  0.2860
  503MOL0     C67837   0.615   4.081   1.386 -0.2703 -0.8926 -0.9963
  503MOL0     H67838   1.172   3.835   1.039 -0.6315 -1.6761  3.7501
  503MOL0     H67839   1.396   3.956   0.940 -0.0137 -0.2718  1.6181
  503MOL0     H67840   1.487   4.323   1.124 -1.9231 -2.3703  1.5873
  503MOL0     H67841   1.559   4.164   1.100 -3.5736 -2.0686 -1.1340
  503MOL0     H67842   1.618   4.423   0.960  2.7724  0.4713 -0.2185
  503MOL0     H67843   1.628   4.262   0.875 -0.5516  1.4261 -0.6732
  503MOL0     H67844   1.856   4.360   0.989  0.0197 -0.3907 -1.2893
  503MOL0     H67845   1.816   4.193   1.022 -0.3046 -0.2310  0.3720
  503MOL0     H67846   1.745   4.438   1.209  0.0939 -1.0217 -0.0390
  503MOL0     H67847   1.698   4.269   1.232 -0.9657 -1.7097 -1.8793
  503MOL0     H67848   1.961   4.223   1.203 -2.6431 -2.8578  0.7334
  503MOL0     H67849   1.982   4.389   1.207 -0.0635 -1.8104 -1.1162
  503MOL0     H67850   1.875   4.414   1.426 -0.6233 -0.2686  0.4088
  503MOL0     H67851   1.818   4.251   1.424  0.8740 -0.2884 -1.2738
  503MOL0     H67852   2.008   4.320   1.554 -2.1039  1.8975 -0.4607
  503MOL0     H67853   2.117   4.325   1.410  0.1213 -2.3996 -0.9998
  503MOL0     H67854   1.972   4.093   1.530  1.3200  2.5494  4.0161
  503MOL0     H67855   2.069   4.075   1.377  0.6536 -2.4039  0.9166
  503MOL0     H67856   2.273   4.273   1.570 -1.1514  0.7605  1.5995
  503MOL0     H67857   2.498   4.254   1.736  0.0853 -0.6362  4.4907
  503MOL0     H67858   2.516   4.101   1.820  2.1948 -0.8784 -0.2221
  503MOL0     H67859   2.612   4.000   1.614  0.7131  0.6000 -0.0089
  503MOL0     H67860   2.597   4.158   1.538  0.8774  1.2211  0.5735
  503MOL0     H67861   2.735   4.213   1.777 -2.5169 -3.6773  0.6189
  503MOL0     H67862   2.797   4.217   1.614  1.7643  0.6918  0.8882
  503MOL0     H67863   2.772   3.959   1.781  0.9862  0.9279  2.8050
  503MOL0     H67864   2.909   4.057   1.811  0.9746 -1.8887 -1.0849
  503MOL0     H67865   2.991   3.868   1.856 -3.1601  0.7439 -1.7383
  503MOL0     H67866   3.179   3.724   1.880  0.1942 -2.5850 -1.6265
  503MOL0     H67867   3.453   3.362   1.713 -1.0713  1.2657 -0.2955
  503MOL0     H67868   3.662   3.256   1.743 -1.5781  0.1602 -0.8673
  503MOL0     H67869   3.899   3.199   1.789  0.9622  5.1649  0.6977
  503MOL0     H67870   3.803   3.144   1.641  1.6239  0.1863 -0.2095
  503MOL0     H67871   3.991   3.049   1.557 -0.3106  1.2961 -0.5999
  503MOL0     H67872   4.081   3.191   1.608 -1.9480  1.4170  0.5721
  503MOL0     H67873   4.136   3.125   1.824 -1.3810 -0.4978  2.8614
  503MOL0     H67874   4.012   3.006   1.831 -2.2241  2.2067 -0.6581
  503MOL0     H67875   4.241   2.998   1.632 -1.8038  3.2112  1.9843
  503MOL0     H67876   4.128   2.873   1.644 -0.8909 -0.4797  1.0390
  503MOL0     H67877   4.178   2.870   1.904  0.5819  2.2536  0.9896
  503MOL0     H67878   4.322   2.967   1.871 -0.1183  0.1114  1.6927
  503MOL0     H67879   4.277   2.687   1.748 -0.1267  0.1544 -0.8028
  503MOL0     H67880   4.411   2.811   1.731  2.6310  1.2025  4.4075
  503MOL0     H67881   4.345   2.710   2.018  2.7119 -0.6804  1.3583
  503MOL0     H67882   4.491   2.781   1.966  1.5450 -1.4357  0.1345
  503MOL0     H67883   4.537   2.539   1.991  1.2707  3.4461  1.4644
  503MOL0     H67884   4.387   2.502   1.907  2.6628 -3.1644 -0.6736
  503MOL0     H67885   3.857   3.550   1.504 -1.0881  1.9261  0.8167
  503MOL0     H67886   3.641   3.665   1.489  3.6634 -1.8610 -3.3485
  503MOL0     H67887   3.209   3.680   1.448  1.0700 -1.8149  1.6578
  503MOL0     H67888   3.034   3.867   1.429 -1.1623 -0.6404 -0.1107
  503MOL0     H67889   1.242   4.308   1.109 -3.2053  0.6398  0.6244
  503MOL0     H67890   1.039   4.194   1.192  1.2385 -1.7494  1.9204
  503MOL0     H67891   0.880   3.721   1.233 -0.2037  2.2267 -0.7504
  503MOL0     H67892   0.707   3.557   1.334  0.7422  0.0271 -1.3588
  503MOL0     H67893   0.354   3.731   1.524  1.8709 -0.7362 -3.1812
  503MOL0     H67894   0.457   3.708   1.665  1.7006  0.3875 -0.2543
  503MOL0     H67895   0.381   3.494   1.729 -2.3262 -0.5434  1.3225
  503MOL0     H67896   0.335   3.452   1.567 -0.1539 -2.4592  4.6676
  503MOL0     H67897   0.186   3.678   1.717 -4.3655  1.1079 -1.6723
  503MOL0     H67898   0.155   3.505   1.743  1.5964 -1.1145 -0.5152
  503MOL0     H67899   0.137   3.627   1.461 -3.2225  2.4805 -0.1302
  503MOL0     H67900   0.067   3.480   1.530  1.3413 -1.0471  1.0351
  503MOL0     H67901  -0.242   3.746   1.607 -1.0432 -3.0418  2.7743
  503MOL0     H67902   0.499   3.883   1.506 -3.7559 -2.3705 -0.6882
  503MOL0     H67903   0.589   4.135   1.294 -0.1418  0.0013 -0.5244
  503MOL0     H67904   0.535   4.096   1.458 -0.0790 -2.6364 -0.3825
  503MOL0     H67905   0.707   4.124   1.427 -1.8160  0.3886  1.3457
  504MOL0     O67906   3.376   0.981   7.182 -0.7074  0.4340 -0.8032
  504MOL0     C67907   3.318   0.951   7.076  1.2500 -0.4315 -0.3800
  504MOL0     O67908   3.197   0.882   7.062  0.0789  0.3793  1.0773
  504MOL0     C67909   3.139   0.823   7.175  0.7414 -0.5700  0.0503
  504MOL0     C67910   3.114   0.902   7.288  0.0746 -0.7430 -1.2005
  504MOL0     C67911   3.057   0.853   7.405  0.2936  0.3024 -0.2569
  504MOL0     C67912   3.011   0.723   7.399  0.1151 -0.6793 -0.9525
  504MOL0     O67913   2.947   0.663   7.510 -0.7365 -0.0951 -0.3257
  504MOL0     C67914   3.029   0.674   7.632  0.5546  0.3337  0.0203
  504MOL0     C67915   2.938   0.616   7.743  0.3649  0.8612 -0.6915
  504MOL0     C67916   2.933   0.461   7.726  0.0675  1.3021  0.0007
  504MOL0     C67917   2.962   0.392   7.870  0.7729 -0.2912  0.3396
  504MOL0     C67918   3.112   0.404   7.924  0.0942 -0.2995  1.0992
  504MOL0     C67919   3.216   0.344   7.829  0.0296 -0.1898 -0.1126
  504MOL0     C67920   3.201   0.194   7.789 -0.7100  0.1990  0.2003
  504MOL0     C67921   3.129   0.171   7.653  0.9305  0.4336  0.0657
  504MOL0     N67922   3.184   0.234   7.536  0.6198  0.0713  0.2954
  504MOL0     C67923   3.301   0.196   7.469 -0.1690  0.2640 -0.6132
  504MOL0     C67924   3.286   0.234   7.339 -0.9356 -0.0274  0.5966
  504MOL0     C67925   3.393   0.209   7.237 -1.1912 -0.5730  0.3256
  504MOL0     C67926   3.345   0.236   7.096  0.9084 -0.1339  0.2639
  504MOL0     C67927   3.256   0.125   7.044  0.3879 -0.0171 -0.1698
  504MOL0     C67928   3.103   0.125   7.094 -0.7518 -0.2567  0.9686
  504MOL0     O67929   3.051   0.258   7.059  0.9146  0.6840  0.7263
  504MOL0     C67930   3.014   0.271   6.935 -0.4720 -0.6616  0.3431
  504MOL0     C67931   3.067   0.367   6.850 -0.7469 -0.4504 -0.9573
  504MOL0     C67932   3.007   0.384   6.726  0.1409 -0.8954  0.2298
  504MOL0     C67933   2.898   0.311   6.678 -1.1749  1.1588 -0.4369
  504MOL0     C67934   2.839   0.336   6.545  0.1279  1.2437  0.6494
  504MOL0     O67935   2.905   0.421   6.457  0.1281  0.4863 -0.3899
  504MOL0     C67936   2.833   0.443   6.339  0.8424 -1.1182 -0.0269
  504MOL0     C67937   2.759   0.562   6.319 -1.0502  0.0630 -0.2965
  504MOL0     C67938   2.719   0.596   6.190 -0.1202  1.5536  1.0298
  504MOL0     C67939   2.748   0.509   6.082 -0.8372  0.4946  0.2234
  504MOL0     O67940   2.692   0.551   5.960 -0.3158  0.5489 -0.3333
  504MOL0     C67941   2.701   0.464   5.848 -0.1799 -0.0823  0.3529
  504MOL0     C67942   2.576   0.378   5.830  0.1076  0.0016 -0.2698
  504MOL0     C67943   2.463   0.396   5.940 -0.2864  0.0277 -0.4431
  504MOL0     C67944   2.360   0.286   5.918 -0.3776 -0.5109  0.3616
  504MOL0     C67945   2.254   0.272   6.031 -0.0595 -0.0750  0.0346
  504MOL0     C67946   2.314   0.238   6.169 -0.6084 -0.0034 -0.1508
  504MOL0     C67947   2.206   0.190   6.269 -0.1034  0.6314  1.0277
  504MOL0     C67948   2.082   0.280   6.298  0.2574  0.6933 -0.0566
  504MOL0    Cl67949   2.056   0.290   6.473  0.1576 -0.1767 -0.1420
  504MOL0     C67950   2.808   0.380   6.109  0.2985 -0.0496  0.1055
  504MOL0     C67951   2.853   0.353   6.242 -0.1976  1.1483 -0.4248
  504MOL0     O67952   2.727   0.281   6.519 -0.1425 -0.0059 -0.9495
  504MOL0     C67953   2.852   0.209   6.759  0.3367 -0.3824  0.5499
  504MOL0     C67954   2.907   0.185   6.889 -0.1015 -0.6759  0.7895
  504MOL0     N67955   3.175   0.311   7.343 -0.2839 -0.6490 -0.7955
  504MOL0     N67956   3.116   0.314   7.459 -0.0777 -0.7827 -0.5017
  504MOL0     C67957   3.035   0.642   7.291  0.1132 -0.2096 -0.9725
  504MOL0     C67958   3.103   0.691   7.182 -0.2939  0.5892  0.1884
  504MOL0     C67959   3.376   0.987   6.940  0.1133  0.1057  0.1878
  504MOL0     C67960   3.376   0.889   6.840 -0.3539  0.0874 -0.0051
  504MOL0     C67961   3.467   0.913   6.734  0.1653  1.2433 -0.0842
  504MOL0     C67962   3.549   1.023   6.726 -1.2497  1.0808  0.1293
  504MOL0     O67963   3.638   1.032   6.619 -0.0419  0.0433  0.2189
  504MOL0     C67964   3.678   1.162   6.572  0.6628 -0.1111 -0.1237
  504MOL0     C67965   3.780   1.139   6.461  0.4649  0.1408 -0.4567
  504MOL0     C67966   3.913   1.081   6.525  1.2009 -0.7546 -0.1359
  504MOL0     C67967   3.991   0.988   6.432  0.5746 -0.6195  0.0471
  504MOL0     C67968   4.076   1.073   6.340 -0.2635 -0.0610  0.1539
  504MOL0     C67969   4.146   1.133   6.264 -0.6013  0.3090 -1.1986
  504MOL0     C67970   3.528   1.124   6.817 -0.0920 -0.8648 -0.4955
  504MOL0     C67971   3.442   1.115   6.922  0.7961  0.6375  0.2588
  504MOL0     C67972   3.424   1.234   7.016 -0.5196 -0.8309  0.4480
  504MOL0     H67973   3.151   1.004   7.297 -0.6736 -0.6045  0.6622
  504MOL0     H67974   3.038   0.916   7.491 -1.8564  1.6603 -1.6235
  504MOL0     H67975   3.129   0.630   7.637 -0.1851 -1.3942  0.5938
  504MOL0     H67976   3.046   0.780   7.649  1.5439  0.5050 -1.7809
  504MOL0     H67977   2.845   0.672   7.730  1.4865  2.8839 -0.4128
  504MOL0     H67978   2.986   0.641   7.838  0.8484  1.6023 -1.1157
  504MOL0     H67979   3.001   0.422   7.650 -2.9339 -1.9218 -1.3221
  504MOL0     H67980   2.827   0.441   7.707 -0.2343  3.0669 -0.3055
  504MOL0     H67981   2.894   0.437   7.943  0.8307 -2.7214  2.0232
  504MOL0     H67982   2.939   0.286   7.863  0.2559 -0.0887 -2.1888
  504MOL0     H67983   3.146   0.503   7.953 -1.0907 -0.0959  1.8869
  504MOL0     H67984   3.112   0.352   8.021 -1.7165  2.2175  2.5736
  504MOL0     H67985   3.227   0.396   7.733 -0.6426 -1.0505 -0.6668
  504MOL0     H67986   3.313   0.343   7.881 -0.8538 -2.8151  1.7288
  504MOL0     H67987   3.144   0.136   7.861 -0.6127 -1.1229 -0.7525
  504MOL0     H67988   3.303   0.157   7.778 -1.4681 -1.5772 -1.3896
  504MOL0     H67989   3.118   0.065   7.631  1.1205  0.3711  0.2638
  504MOL0     H67990   3.030   0.215   7.667  0.6453  0.1715 -1.0459
  504MOL0     H67991   3.377   0.131   7.511 -0.6694  0.3760  0.4972
  504MOL0     H67992   3.482   0.266   7.266  1.0286 -3.5696 -0.2049
  504MOL0     H67993   3.418   0.103   7.235 -1.3135 -0.6039  0.4435
  504MOL0     H67994   3.291   0.332   7.096 -0.3342 -0.8010 -1.3163
  504MOL0     H67995   3.432   0.263   7.035 -0.2611  1.5179 -0.7475
  504MOL0     H67996   3.293   0.025   7.067 -1.9254 -0.7395  0.6362
  504MOL0     H67997   3.249   0.132   6.935 -0.9778 -0.7636 -0.1535
  504MOL0     H67998   3.083   0.103   7.199  1.2529 -1.3870  1.1660
  504MOL0     H67999   3.051   0.041   7.046 -2.9378  1.6010 -0.1452
  504MOL0     H68000   3.133   0.444   6.888 -0.6711 -1.8597  1.9773
  504MOL0     H68001   3.050   0.470   6.675  2.1152 -0.7178  2.0382
  504MOL0     H68002   2.739   0.632   6.400  0.2633 -1.1854  1.1607
  504MOL0     H68003   2.656   0.682   6.169 -0.4934  1.0251 -0.0926
  504MOL0     H68004   2.697   0.528   5.760  0.0492 -2.1457 -1.2391
  504MOL0     H68005   2.794   0.406   5.849  0.5739  1.0809 -0.1662
  504MOL0     H68006   2.532   0.393   5.731  1.9798  0.5577 -1.0735
  504MOL0     H68007   2.607   0.274   5.841  1.6591  0.4894  0.1895
  504MOL0     H68008   2.507   0.382   6.040  4.4730 -0.4125 -2.3364
  504MOL0     H68009   2.410   0.491   5.930 -0.5174  0.2819  2.4180
  504MOL0     H68010   2.414   0.191   5.919  0.5873 -0.0044  2.1449
  504MOL0     H68011   2.306   0.305   5.825 -2.5022  4.8693  2.2505
  504MOL0     H68012   2.169   0.208   6.005 -0.9910  0.9144  0.5717
  504MOL0     H68013   2.211   0.371   6.044 -2.0359 -1.0369  1.3319
  504MOL0     H68014   2.374   0.147   6.158 -0.8271 -0.7503  3.6545
  504MOL0     H68015   2.375   0.319   6.210 -3.1296  0.4826  2.9934
  504MOL0     H68016   2.256   0.174   6.365 -3.6125 -1.0076  2.8060
  504MOL0     H68017   2.170   0.091   6.241  1.7102 -1.0641  4.0866
  504MOL0     H68018   2.100   0.380   6.259  1.1175 -0.6149 -3.2720
  504MOL0     H68019   1.997   0.238   6.244  1.4152 -0.1061 -1.3218
  504MOL0     H68020   2.814   0.302   6.034 -0.4732 -0.0574  0.0499
  504MOL0     H68021   2.904   0.263   6.275  0.3387  0.6691 -2.4373
  504MOL0     H68022   2.763   0.162   6.719  1.1619 -0.2222 -1.6502
  504MOL0     H68023   2.867   0.116   6.963  1.8621 -1.5405  1.0907
  504MOL0     H68024   3.005   0.538   7.301 -1.2351 -0.3896 -5.1163
  504MOL0     H68025   3.121   0.624   7.099 -2.5556 -1.5566  1.3028
  504MOL0     H68026   3.305   0.808   6.858  0.0748  0.4697  4.5239
  504MOL0     H68027   3.478   0.835   6.660  1.4748  1.7052 -0.4150
  504MOL0     H68028   3.723   1.232   6.643 -0.8927 -2.0727  3.0410
  504MOL0     H68029   3.596   1.216   6.523  1.0424 -0.7052 -1.4550
  504MOL0     H68030   3.803   1.225   6.398 -1.7050  0.2504 -1.2081
  504MOL0     H68031   3.740   1.073   6.383  0.5926  2.7548 -2.9115
  504MOL0     H68032   3.883   1.017   6.609  0.8702  0.4454  0.6735
  504MOL0     H68033   3.969   1.169   6.558 -0.9795  0.7324 -0.2066
  504MOL0     H68034   4.067   0.932   6.487  1.0785 -0.1553 -0.1723
  504MOL0     H68035   3.913   0.921   6.393 -1.9928  2.3519 -0.2458
  504MOL0     H68036   4.212   1.183   6.195 -2.7486  4.7595 -0.4130
  504MOL0     H68037   3.577   1.220   6.802 -0.7091 -0.5506 -0.5454
  504MOL0     H68038   3.484   1.234   7.107  0.3194  3.9185  0.1101
  504MOL0     H68039   3.433   1.327   6.959  1.7454 -2.2217 -1.6957
  504MOL0     H68040   3.320   1.217   7.046 -0.5807 -0.5646  0.3884
  505MOL0     O68041   7.702   2.169   2.360 -0.4444 -0.5957 -0.0495
  505MOL0     C68042   7.726   2.102   2.258  0.6727  0.2959 -0.5681
  505MOL0     O68043   7.849   2.067   2.229 -0.1783  0.8910 -0.1142
  505MOL0     C68044   7.876   1.934   2.189  0.4831 -0.9005  0.1669
  505MOL0     C68045   7.795   1.820   2.206 -0.4884 -0.1794  0.3117
  505MOL0     C68046   7.843   1.693   2.153  0.2353 -0.4048 -0.0222
  505MOL0     C68047   7.962   1.686   2.087  0.3239 -1.1235  0.1890
  505MOL0     O68048   8.009   1.562   2.043 -0.0654  0.1436 -0.2826
  505MOL0     C68049   8.033   1.540   1.899 -0.3175  0.9601  0.1483
  505MOL0     C68050   8.141   1.451   1.859 -1.3900  0.5602 -0.4240
  505MOL0     C68051   8.278   1.505   1.879 -1.2873 -0.5943 -0.6357
  505MOL0     C68052   8.314   1.519   2.028  0.1169  1.0365 -0.5033
  505MOL0     C68053   8.460   1.559   2.035 -0.2553 -1.1075 -0.0492
  505MOL0     C68054   8.526   1.529   2.162 -0.2212  0.2823 -0.2061
  505MOL0     C68055   8.680   1.545   2.165 -1.0391 -0.7977 -0.2111
  505MOL0     C68056   8.749   1.618   2.281  0.5779 -0.5215 -1.2052
  505MOL0     N68057   8.697   1.582   2.418  0.3601  0.0880  0.7940
  505MOL0     C68058   8.668   1.457   2.472  1.0958 -0.4904 -0.9062
  505MOL0     C68059   8.621   1.489   2.595  0.6586 -0.3799  0.1607
  505MOL0     C68060   8.544   1.393   2.685  0.5673 -0.5712 -0.6214
  505MOL0     C68061   8.572   1.248   2.681  0.3176  0.2322 -0.0485
  505MOL0     C68062   8.433   1.170   2.715 -0.8501 -0.2273 -0.5271
  505MOL0     C68063   8.423   1.026   2.677  0.4631 -0.5361  0.3744
  505MOL0     O68064   8.548   0.965   2.697 -0.0508  0.1007 -1.2959
  505MOL0     C68065   8.536   0.831   2.700  0.0052 -0.3901 -0.1048
  505MOL0     C68066   8.435   0.755   2.638  0.0215  0.5424  0.2084
  505MOL0     C68067   8.450   0.619   2.619 -0.9516  0.2632 -0.9317
  505MOL0     C68068   8.571   0.540   2.651  0.0792  0.5692 -1.0800
  505MOL0     C68069   8.589   0.399   2.630  0.3344 -0.3368  0.7371
  505MOL0     O68070   8.473   0.322   2.622 -0.1778 -0.0554 -0.2174
  505MOL0     C68071   8.460   0.185   2.612  0.7112 -0.9823  0.2505
  505MOL0     C68072   8.566   0.093   2.620 -0.4998  1.1241 -0.6020
  505MOL0     C68073   8.544  -0.038   2.590 -0.6800  0.0180  0.1696
  505MOL0     C68074   8.422  -0.091   2.554  0.4503 -0.2325  0.3737
  505MOL0     O68075   8.413  -0.227   2.524  0.0802 -0.3913 -0.2130
  505MOL0     C68076   8.314  -0.272   2.428 -0.2664 -0.0552 -0.0936
  505MOL0     C68077   8.285  -0.415   2.467  0.0954 -0.1463  0.7011
  505MOL0     C68078   8.158  -0.479   2.403  0.7792 -0.3329  0.4676
  505MOL0     C68079   8.153  -0.494   2.252 -0.2756 -0.2697  0.4437
  505MOL0     C68080   8.059  -0.601   2.200  0.6122 -0.3712 -0.0242
  505MOL0     C68081   7.990  -0.579   2.066 -0.3613 -0.2610  0.3270
  505MOL0     C68082   7.890  -0.690   2.023  0.4946 -0.5774 -0.1554
  505MOL0     C68083   7.925  -0.836   2.058 -0.5618 -0.8193  0.4753
  505MOL0    Cl68084   7.767  -0.924   2.027  0.0310  0.4399 -0.5456
  505MOL0     C68085   8.312   0.003   2.548  0.6732  0.0575  0.0453
  505MOL0     C68086   8.333   0.134   2.564 -0.4345  0.8552 -0.3760
  505MOL0     O68087   8.705   0.367   2.605 -0.1430  0.5365  0.1253
  505MOL0     C68088   8.665   0.614   2.729 -0.1128 -0.3627 -0.0877
  505MOL0     C68089   8.641   0.750   2.761  0.2856 -0.2614  0.4913
  505MOL0     N68090   8.623   1.624   2.612 -0.7971  0.3151 -0.3539
  505MOL0     N68091   8.678   1.686   2.503  0.4375  0.1090 -0.6673
  505MOL0     C68092   8.038   1.804   2.076  0.0208 -0.3244  0.2433
  505MOL0     C68093   7.994   1.931   2.127 -1.5041  0.0733  0.3636
  505MOL0     C68094   7.615   2.051   2.165 -0.4659 -0.3761 -0.2320
  505MOL0     C68095   7.634   2.053   2.027  0.7219 -1.0662  0.4470
  505MOL0     C68096   7.522   2.029   1.944  0.4645  0.7121 -0.2589
  505MOL0     C68097   7.390   2.002   1.994 -0.5948 -0.5101  0.0262
  505MOL0     O68098   7.279   1.984   1.909  0.0191 -0.2657 -0.4787
  505MOL0     C68099   7.217   1.860   1.923 -0.2763  0.4646  0.0419
  505MOL0     C68100   7.292   1.726   1.851  0.4104  0.4843  0.2743
  505MOL0     C68101   7.214   1.596   1.870 -1.0985  0.7950  0.1414
  505MOL0     C68102   7.080   1.583   1.780  0.4172  0.0079  0.0219
  505MOL0     C68103   7.112   1.602   1.636 -0.4399 -0.4444  0.8248
  505MOL0     C68104   7.144   1.608   1.520 -0.1575 -0.4263 -0.0090
  505MOL0     C68105   7.367   2.024   2.122  0.3113  0.3361 -1.0077
  505MOL0     C68106   7.475   2.052   2.207  0.2756  0.8904  0.7653
  505MOL0     C68107   7.450   2.047   2.349 -0.2261 -0.8030  0.2990
  505MOL0     H68108   7.701   1.827   2.258 -1.2728 -1.8998 -0.7993
  505MOL0     H68109   7.783   1.602   2.158 -2.3133  1.2001  0.8892
  505MOL0     H68110   7.942   1.496   1.855  0.2504 -1.7465  1.4731
  505MOL0     H68111   8.050   1.638   1.853 -1.3840  2.2496  2.3480
  505MOL0     H68112   8.137   1.441   1.750  1.2150  1.1384 -0.6521
  505MOL0     H68113   8.130   1.359   1.917  0.8297  0.8702  0.6354
  505MOL0     H68114   8.274   1.610   1.850 -1.7309 -0.7471 -1.1718
  505MOL0     H68115   8.346   1.448   1.816  1.4614  2.1247 -0.3515
  505MOL0     H68116   8.268   1.599   2.087  4.6360  1.5088  2.9112
  505MOL0     H68117   8.290   1.427   2.082  0.7356  0.7017 -0.7933
  505MOL0     H68118   8.514   1.499   1.961  2.7106 -2.5447  2.9763
  505MOL0     H68119   8.477   1.664   2.009 -0.0206 -1.4236 -1.1989
  505MOL0     H68120   8.490   1.584   2.249 -0.7304 -4.5692  3.0559
  505MOL0     H68121   8.500   1.425   2.186 -3.0494  1.1559  0.8702
  505MOL0     H68122   8.713   1.594   2.074  2.5121 -1.1037  0.7594
  505MOL0     H68123   8.725   1.446   2.152  0.9967 -0.1606  1.3897
  505MOL0     H68124   8.856   1.592   2.282  0.7193 -0.0758 -2.7741
  505MOL0     H68125   8.736   1.725   2.261  1.8451 -0.6409 -2.8799
  505MOL0     H68126   8.665   1.366   2.413 -0.5470 -0.0582 -1.5543
  505MOL0     H68127   8.561   1.421   2.789  3.8024  0.2398 -1.2518
  505MOL0     H68128   8.442   1.425   2.664  0.9052  2.3444  1.5651
  505MOL0     H68129   8.600   1.223   2.578 -2.4723 -1.7966 -0.4301
  505MOL0     H68130   8.655   1.218   2.747  1.6145 -0.8363 -2.0335
  505MOL0     H68131   8.349   1.218   2.665 -1.6901 -1.8525 -0.7318
  505MOL0     H68132   8.422   1.169   2.824 -1.5423 -0.0597 -0.5921
  505MOL0     H68133   8.395   1.019   2.571 -1.3015  2.4558  0.5261
  505MOL0     H68134   8.336   0.987   2.730 -1.5409  0.7347 -1.7449
  505MOL0     H68135   8.350   0.796   2.585  2.0452  0.5842 -3.3566
  505MOL0     H68136   8.371   0.563   2.568 -0.5366 -2.3119  1.0505
  505MOL0     H68137   8.664   0.123   2.656 -1.6866  0.8421  3.3057
  505MOL0     H68138   8.623  -0.112   2.598  1.8881  2.5441 -0.1531
  505MOL0     H68139   8.223  -0.212   2.440  0.4087  0.5428  2.7792
  505MOL0     H68140   8.350  -0.269   2.325  1.1466  0.5701  0.3959
  505MOL0     H68141   8.364  -0.487   2.443 -0.6462 -0.9713  0.6749
  505MOL0     H68142   8.259  -0.413   2.573  0.2829 -1.8478  0.8053
  505MOL0     H68143   8.144  -0.576   2.453  1.1008 -0.7473 -0.2211
  505MOL0     H68144   8.074  -0.419   2.436 -0.6882 -1.8019 -0.4382
  505MOL0     H68145   8.255  -0.509   2.214  0.8025 -0.0233  3.0483
  505MOL0     H68146   8.115  -0.396   2.223 -0.6419  0.2487  2.5188
  505MOL0     H68147   7.983  -0.618   2.277  0.9102  0.1895  0.4002
  505MOL0     H68148   8.121  -0.691   2.201 -2.7938 -2.9679  2.2583
  505MOL0     H68149   7.933  -0.486   2.070  0.5355  0.2377  2.2574
  505MOL0     H68150   8.059  -0.559   1.983 -0.1413 -0.8199  0.3716
  505MOL0     H68151   7.883  -0.689   1.913  0.5491 -1.2725 -0.1720
  505MOL0     H68152   7.790  -0.669   2.062  0.5386 -0.8544  0.1119
  505MOL0     H68153   8.003  -0.871   1.989 -0.3908  4.0011 -2.2085
  505MOL0     H68154   7.954  -0.843   2.163 -0.2317 -2.3858  0.2953
  505MOL0     H68155   8.213  -0.041   2.538  1.6479 -1.8069 -2.6736
  505MOL0     H68156   8.240   0.190   2.553 -1.9506 -1.3793  0.3848
  505MOL0     H68157   8.752   0.562   2.767  1.6015  2.7284  0.5762
  505MOL0     H68158   8.714   0.800   2.824 -0.6392  2.2322 -0.3197
  505MOL0     H68159   8.133   1.800   2.024  1.0624  2.1439  1.7717
  505MOL0     H68160   8.059   2.017   2.112  0.1797 -1.1834  0.1120
  505MOL0     H68161   7.734   2.051   1.984  1.8150 -0.7552  2.8390
  505MOL0     H68162   7.527   2.031   1.836 -0.3700  1.0965 -0.2974
  505MOL0     H68163   7.109   1.869   1.905  0.3112  2.0211 -3.6012
  505MOL0     H68164   7.214   1.845   2.031  0.6115 -1.7007 -0.1957
  505MOL0     H68165   7.392   1.709   1.892 -0.3840 -0.8201  1.7928
  505MOL0     H68166   7.298   1.752   1.745  2.6249  1.9795  0.7173
  505MOL0     H68167   7.199   1.594   1.978  0.8825 -0.9481  0.4543
  505MOL0     H68168   7.284   1.517   1.842  0.6560  2.6723 -1.0525
  505MOL0     H68169   7.043   1.484   1.804  0.9168 -0.2926 -0.4127
  505MOL0     H68170   7.008   1.649   1.828  1.3148 -0.7885  2.6565
  505MOL0     H68171   7.174   1.631   1.420 -0.0774  0.5034  0.2149
  505MOL0     H68172   7.267   2.041   2.159 -0.4470 -0.3196 -2.6276
  505MOL0     H68173   7.452   2.149   2.388  2.6461 -0.7992  0.3706
  505MOL0     H68174   7.346   2.013   2.361 -1.1933  0.3700 -3.3998
  505MOL0     H68175   7.522   1.982   2.400  0.4449 -0.8839 -0.7367
  506MOL0     O68176   5.924   4.072   8.975  0.7053  0.3381  0.3664
  506MOL0     C68177   5.970   4.020   8.874  0.1855 -1.0456  0.8352
  506MOL0     O68178   5.898   3.980   8.762 -0.6161  1.1504 -0.0642
  506MOL0     C68179   5.766   4.008   8.745  0.6923 -0.1853 -0.9102
  506MOL0     C68180   5.687   4.118   8.804 -0.6518  0.6640  0.3874
  506MOL0     C68181   5.552   4.133   8.773  0.3779 -1.0708  0.6478
  506MOL0     C68182   5.484   4.038   8.696  1.0338  1.7742  0.3211
  506MOL0     O68183   5.345   4.058   8.687 -0.0910  0.3100 -0.1265
  506MOL0     C68184   5.274   3.998   8.576 -0.7075 -0.2384  0.6494
  506MOL0     C68185   5.125   4.010   8.624 -0.4184 -0.3627  0.7696
  506MOL0     C68186   5.036   3.946   8.509  0.1504  0.8415 -0.8603
  506MOL0     C68187   4.884   3.920   8.553  0.1170 -0.5471  0.2147
  506MOL0     C68188   4.801   3.897   8.418 -1.1584  0.2761 -0.0327
  506MOL0     C68189   4.655   3.933   8.436 -0.6118 -1.1663 -0.7622
  506MOL0     C68190   4.582   3.874   8.312  0.5363 -0.4274  0.2678
  506MOL0     C68191   4.434   3.899   8.316  0.1866 -1.8252  0.7578
  506MOL0     N68192   4.348   3.797   8.388 -0.5589 -0.8622 -0.1556
  506MOL0     C68193   4.221   3.763   8.361  0.0250 -0.5456 -0.6388
  506MOL0     C68194   4.193   3.657   8.448  0.2930  0.4920  0.6928
  506MOL0     C68195   4.050   3.592   8.452 -1.8230  0.0983 -0.6138
  506MOL0     C68196   3.948   3.687   8.506  0.9546  0.0757 -0.5128
  506MOL0     C68197   3.944   3.724   8.656 -0.6453  1.3320  0.1207
  506MOL0     C68198   4.078   3.764   8.717  0.2708  0.2797  0.0321
  506MOL0     O68199   4.036   3.835   8.829  0.6544  0.1634 -0.6519
  506MOL0     C68200   4.130   3.880   8.925 -1.0351 -0.3876 -0.1481
  506MOL0     C68201   4.095   3.975   9.012  0.3803 -0.0346  0.1674
  506MOL0     C68202   4.193   4.016   9.106  0.2747  0.5588 -0.4744
  506MOL0     C68203   4.322   3.956   9.122  0.0758  0.0226 -0.3797
  506MOL0     C68204   4.409   4.006   9.226  0.3896  0.4705  0.6016
  506MOL0     O68205   4.547   3.964   9.229  0.0297  0.4226 -0.4932
  506MOL0     C68206   4.631   4.014   9.326 -0.0733  0.0025 -0.3365
  506MOL0     C68207   4.754   4.068   9.301 -0.0561 -0.0227 -0.6058
  506MOL0     C68208   4.833   4.114   9.407  0.3010 -1.0961 -0.2492
  506MOL0     C68209   4.783   4.110   9.538  0.9947  0.7265  0.3995
  506MOL0     O68210   4.875   4.148   9.634  0.3401  0.1452  0.8605
  506MOL0     C68211   4.855   4.118   9.769  0.2952  0.1762 -0.1632
  506MOL0     C68212   4.970   4.174   9.849 -0.0769 -0.2080  0.8949
  506MOL0     C68213   4.986   4.324   9.821 -0.6690 -0.0836  0.1086
  506MOL0     C68214   5.125   4.380   9.867 -0.6159 -0.1895  0.8197
  506MOL0     C68215   5.102   4.531   9.913 -0.3869  0.1120 -0.3142
  506MOL0     C68216   5.063   4.639   9.800  0.2198  0.5758 -0.2922
  506MOL0     C68217   5.010   4.766   9.855 -0.0017 -0.7246  0.2504
  506MOL0     C68218   5.141   4.855   9.878  0.1577  0.6212  0.1488
  506MOL0    Cl68219   5.100   5.022   9.932 -0.4461  0.2831  0.4178
  506MOL0     C68220   4.657   4.058   9.562 -0.2013 -0.3706 -0.3732
  506MOL0     C68221   4.582   4.000   9.459 -0.2905 -1.0015  0.5385
  506MOL0     O68222   4.361   4.088   9.299 -0.2113  0.4900 -0.7825
  506MOL0     C68223   4.358   3.869   9.025 -1.1232 -0.0152 -0.8855
  506MOL0     C68224   4.265   3.830   8.926  0.3132  0.4748  0.1056
  506MOL0     N68225   4.307   3.638   8.519  0.4560  0.3978 -0.2998
  506MOL0     N68226   4.400   3.717   8.486  0.1890 -0.0938  0.7317
  506MOL0     C68227   5.555   3.930   8.636  0.5778  0.7508 -0.5383
  506MOL0     C68228   5.699   3.918   8.663  0.0400  0.4841 -0.4920
  506MOL0     C68229   6.115   3.987   8.885 -0.8159  0.5168  0.5105
  506MOL0     C68230   6.194   4.031   9.000 -0.5504 -0.4426  0.2674
  506MOL0     C68231   6.325   3.982   9.022  0.9561  0.0739  0.3806
  506MOL0     C68232   6.384   3.885   8.945  0.4791 -1.0232  0.3224
  506MOL0     O68233   6.513   3.843   8.956  0.6130  0.0194 -0.4027
  506MOL0     C68234   6.552   3.803   9.091  0.3563  0.5471 -0.6087
  506MOL0     C68235   6.625   3.915   9.176  0.1008  0.6532 -0.2773
  506MOL0     C68236   6.769   3.942   9.108 -0.0693 -0.2739  0.1741
  506MOL0     C68237   6.833   4.075   9.147 -0.3800 -0.3396  0.6038
  506MOL0     C68238   6.856   4.078   9.290 -0.1648 -0.7451  0.7137
  506MOL0     C68239   6.876   4.072   9.412 -0.3492 -0.7843  0.8300
  506MOL0     C68240   6.317   3.858   8.828 -0.8696 -0.3076  0.2862
  506MOL0     C68241   6.187   3.897   8.792  0.4362  0.0346 -0.4620
  506MOL0     C68242   6.137   3.842   8.661 -0.8547  0.5078 -0.8200
  506MOL0     H68243   5.734   4.189   8.871  0.2915  0.1714  0.2637
  506MOL0     H68244   5.505   4.223   8.809  3.2850  2.3888 -3.2017
  506MOL0     H68245   5.294   4.041   8.478 -2.1018 -1.0124 -0.0024
  506MOL0     H68246   5.291   3.890   8.583  3.3580  0.3039  1.6031
  506MOL0     H68247   5.091   4.112   8.645 -3.7646 -1.3932  0.8178
  506MOL0     H68248   5.115   3.951   8.716 -2.3095 -0.3500  0.5996
  506MOL0     H68249   5.086   3.849   8.503 -0.3836  0.5499 -0.7387
  506MOL0     H68250   5.037   4.002   8.415 -0.3271  0.8882 -0.8429
  506MOL0     H68251   4.874   3.834   8.619  4.2558 -0.0902  1.7584
  506MOL0     H68252   4.849   4.010   8.604  1.1155 -1.2788  2.3111
  506MOL0     H68253   4.843   3.951   8.333 -0.8810 -0.0942 -0.1356
  506MOL0     H68254   4.814   3.793   8.387 -2.0009  0.5996 -1.5838
  506MOL0     H68255   4.628   3.898   8.536 -0.1697 -0.1453 -0.2802
  506MOL0     H68256   4.642   4.041   8.437  6.8638  0.2681  1.9376
  506MOL0     H68257   4.581   3.764   8.312 -1.5904 -0.4654  1.1527
  506MOL0     H68258   4.623   3.919   8.222 -0.1172 -1.7760 -0.7362
  506MOL0     H68259   4.423   4.005   8.339 -0.7472 -1.7201 -0.1198
  506MOL0     H68260   4.391   3.899   8.216 -1.9735  0.3856  1.5819
  506MOL0     H68261   4.154   3.804   8.286 -0.7544  2.6426  1.6156
  506MOL0     H68262   4.026   3.559   8.351 -1.6574 -5.2195  0.8099
  506MOL0     H68263   4.045   3.495   8.501 -3.6466  0.7536  0.6266
  506MOL0     H68264   3.954   3.779   8.447 -1.8262  0.9026  0.3018
  506MOL0     H68265   3.848   3.648   8.481  0.9884  0.1263 -0.7293
  506MOL0     H68266   3.914   3.637   8.715  2.2832 -0.2698 -0.5554
  506MOL0     H68267   3.878   3.811   8.663 -0.1641  1.5721  2.7326
  506MOL0     H68268   4.140   3.814   8.642 -1.2923 -2.4778 -3.4009
  506MOL0     H68269   4.143   3.679   8.739  2.6810  1.9741 -0.0862
  506MOL0     H68270   3.988   3.995   9.018  0.1736 -0.5489 -1.3911
  506MOL0     H68271   4.168   4.092   9.180  0.0619  0.4768 -0.4629
  506MOL0     H68272   4.794   4.078   9.200  1.6928  0.3241  0.0941
  506MOL0     H68273   4.933   4.142   9.375 -0.2289 -0.1235 -1.1179
  506MOL0     H68274   4.764   4.161   9.811  0.7022 -0.3266  1.3079
  506MOL0     H68275   4.845   4.010   9.784 -0.2199  0.0078 -1.5586
  506MOL0     H68276   4.960   4.151   9.956  0.8254  1.0406  1.2636
  506MOL0     H68277   5.056   4.118   9.810 -1.0871 -1.8290  0.9042
  506MOL0     H68278   4.968   4.351   9.717 -2.4128 -3.8179 -0.7169
  506MOL0     H68279   4.911   4.369   9.887 -1.9574 -1.0288 -0.6624
  506MOL0     H68280   5.196   4.382   9.784 -0.4233  1.7772  0.9860
  506MOL0     H68281   5.170   4.327   9.952  1.7945 -0.1431 -0.3333
  506MOL0     H68282   5.202   4.550   9.952  1.0876  0.3086 -3.7984
  506MOL0     H68283   5.035   4.537   9.999  2.3281 -0.2107  1.9284
  506MOL0     H68284   5.151   4.660   9.739 -0.9450  1.6805 -1.6914
  506MOL0     H68285   4.981   4.593   9.744  1.3966 -1.1481 -0.6700
  506MOL0     H68286   4.962   4.756   9.953 -1.6993  4.0510  0.1703
  506MOL0     H68287   4.934   4.821   9.798 -0.1889  1.1098  2.1274
  506MOL0     H68288   5.205   4.803   9.950 -2.5621 -0.0340  2.2859
  506MOL0     H68289   5.198   4.857   9.785 -0.0727 -1.5103 -0.0977
  506MOL0     H68290   4.611   4.062   9.660 -0.0005 -1.6336 -0.2125
  506MOL0     H68291   4.483   3.961   9.478 -0.5517  0.0060  1.3706
  506MOL0     H68292   4.463   3.846   9.018 -0.9760 -0.7114  2.2381
  506MOL0     H68293   4.290   3.752   8.855 -1.8518  0.7685 -1.0886
  506MOL0     H68294   5.502   3.858   8.575  2.6601 -0.3021 -1.1984
  506MOL0     H68295   5.761   3.837   8.626  0.9806 -0.4840  2.8766
  506MOL0     H68296   6.147   4.076   9.087 -1.0580 -2.4049  1.0693
  506MOL0     H68297   6.360   4.018   9.119  0.1352  0.1195  0.6692
  506MOL0     H68298   6.608   3.711   9.077 -0.3655 -0.2678  1.4020
  506MOL0     H68299   6.467   3.773   9.153 -0.0067 -0.0892 -1.3947
  506MOL0     H68300   6.633   3.873   9.276 -1.9620  0.2401 -0.2387
  506MOL0     H68301   6.585   4.016   9.179  0.9479  1.0647  4.3064
  506MOL0     H68302   6.759   3.955   9.000 -1.8476  2.2084  0.5371
  506MOL0     H68303   6.837   3.863   9.141  2.0840  2.2897  2.3862
  506MOL0     H68304   6.928   4.091   9.095  1.4342  0.2574  3.8268
  506MOL0     H68305   6.761   4.156   9.129  0.8200  0.5145 -0.5692
  506MOL0     H68306   6.892   4.063   9.518 -1.4816  1.2281  1.2280
  506MOL0     H68307   6.379   3.796   8.764  0.1263 -1.5943  2.3857
  506MOL0     H68308   6.102   3.930   8.607 -3.6848  1.3397  2.0423
  506MOL0     H68309   6.216   3.794   8.602 -0.4631 -1.1586  0.9290
  506MOL0     H68310   6.054   3.774   8.684 -0.1065 -0.1617  0.0194
  507MOL0     O68311   2.844  10.874   4.610 -0.6093  0.0161 -0.0987
  507MOL0     C68312   2.817  10.928   4.717  0.6321  0.3535  0.4276
  507MOL0     O68313   2.794  11.058   4.736 -0.5182 -1.1545  0.6547
  507MOL0     C68314   2.815  11.134   4.615 -0.7150 -0.2994 -1.1098
  507MOL0     C68315   2.723  11.157   4.516  0.2177  0.0414  0.1611
  507MOL0     C68316   2.763  11.224   4.403  0.7871 -0.6912  0.7354
  507MOL0     C68317   2.887  11.279   4.383 -1.0252  0.1826 -0.4376
  507MOL0     O68318   2.926  11.365   4.278  0.6886  0.3612 -0.1503
  507MOL0     C68319   2.829  11.403   4.175 -0.9763 -0.6460 -0.8592
  507MOL0     C68320   2.892  11.492   4.061 -0.7482 -0.4341  0.0677
  507MOL0     C68321   2.996  11.423   3.962 -0.1182  0.6598  0.4844
  507MOL0     C68322   3.015  11.505   3.834 -0.3086  0.6170 -0.2948
  507MOL0     C68323   3.078  11.434   3.720  0.4947 -0.5251  0.0998
  507MOL0     C68324   3.223  11.388   3.747 -0.0960 -0.2402 -0.1427
  507MOL0     C68325   3.272  11.300   3.631 -0.3337  0.5028  0.2204
  507MOL0     C68326   3.309  11.383   3.500  0.1899 -0.9802  0.0681
  507MOL0     N68327   3.206  11.420   3.395  0.2129  0.3872 -0.0596
  507MOL0     C68328   3.104  11.347   3.345 -0.0155  0.2187 -0.2848
  507MOL0     C68329   3.018  11.431   3.280 -0.0129 -0.1469 -0.7926
  507MOL0     C68330   2.880  11.424   3.214  0.8725 -0.3237  0.7395
  507MOL0     C68331   2.755  11.433   3.297 -0.6716  0.7384 -0.5258
  507MOL0     C68332   2.741  11.553   3.398 -0.3588  0.8504 -0.1952
  507MOL0     C68333   2.825  11.538   3.527  1.2411 -0.9287  0.1671
  507MOL0     O68334   2.798  11.645   3.623  0.0033  0.1503 -1.1882
  507MOL0     C68335   2.813  11.778   3.577  0.2994  0.0087 -0.0674
  507MOL0     C68336   2.711  11.861   3.595  1.1146 -0.0792  1.1825
  507MOL0     C68337   2.717  11.994   3.550 -0.8375 -0.1951 -0.2904
  507MOL0     C68338   2.843  12.035   3.479 -0.0924 -0.8196 -0.0364
  507MOL0     C68339   2.859  12.182   3.438 -0.0482  0.0265 -0.2514
  507MOL0     O68340   2.748  12.270   3.444  0.1475  0.4116 -0.9291
  507MOL0     C68341   2.772  12.404   3.410 -0.5523 -0.3435 -0.6094
  507MOL0     C68342   2.687  12.478   3.319 -0.7442 -0.3086  1.3743
  507MOL0     C68343   2.730  12.608   3.282  0.0583 -0.0709  0.9167
  507MOL0     C68344   2.835  12.674   3.343 -0.6115 -0.7874  0.6019
  507MOL0     O68345   2.884  12.803   3.308 -0.1147  0.3403 -0.3411
  507MOL0     C68346   2.780  12.898   3.332 -0.5320 -0.3360 -0.3829
  507MOL0     C68347   2.855  13.032   3.351 -0.1327 -0.4192  0.2889
  507MOL0     C68348   2.963  13.071   3.242  0.6883  0.4793 -0.1955
  507MOL0     C68349   3.004  13.212   3.246  0.2724 -0.1766 -1.1079
  507MOL0     C68350   3.118  13.249   3.135 -0.0431  0.3100  0.7303
  507MOL0     C68351   3.046  13.329   3.034 -0.5077 -0.2776  0.1967
  507MOL0     C68352   3.150  13.375   2.928  0.1911  0.0488 -1.0922
  507MOL0     C68353   3.079  13.415   2.805 -0.7511  0.7892 -0.4336
  507MOL0    Cl68354   2.964  13.556   2.823 -0.1294 -0.3731 -0.2672
  507MOL0     C68355   2.896  12.604   3.447 -0.3204 -0.6839  0.1338
  507MOL0     C68356   2.858  12.477   3.489  0.2304  0.1362  0.8085
  507MOL0     O68357   2.971  12.208   3.402 -0.1464  0.1463 -0.1102
  507MOL0     C68358   2.946  11.946   3.466  0.1764 -0.7778  0.4217
  507MOL0     C68359   2.938  11.819   3.519  0.5832  0.3299  0.7033
  507MOL0     N68360   3.077  11.554   3.289  0.1784 -1.0356 -1.5435
  507MOL0     N68361   3.186  11.548   3.356 -0.3221  0.1200 -1.1919
  507MOL0     C68362   2.979  11.258   4.484  0.0820 -0.8088 -0.0246
  507MOL0     C68363   2.948  11.189   4.602 -0.6160  0.0872  0.0110
  507MOL0     C68364   2.807  10.832   4.826  0.1203 -0.6814 -0.6979
  507MOL0     C68365   2.912  10.736   4.851  0.9128 -0.1337  0.9171
  507MOL0     C68366   2.890  10.646   4.958 -0.6621  0.0780 -0.7686
  507MOL0     C68367   2.780  10.653   5.038 -0.0226  0.7484  0.6937
  507MOL0     O68368   2.766  10.552   5.132  0.2937  0.1527  0.0567
  507MOL0     C68369   2.793  10.585   5.270  0.1409 -0.2720 -0.1176
  507MOL0     C68370   2.728  10.476   5.347  0.3285  0.3804  1.2733
  507MOL0     C68371   2.695  10.519   5.494  0.1662  1.0843  0.4228
  507MOL0     C68372   2.622  10.400   5.552 -0.0377  0.0102  0.5374
  507MOL0     C68373   2.699  10.280   5.562  0.0122  0.0212 -0.4792
  507MOL0     C68374   2.768  10.175   5.582  0.8776 -0.3261 -0.6149
  507MOL0     C68375   2.680  10.748   5.011  0.3959  0.3758  0.1400
  507MOL0     C68376   2.684  10.836   4.904  0.0765  0.5810  0.1461
  507MOL0     C68377   2.566  10.931   4.873  0.5876 -0.6895 -0.3677
  507MOL0     H68378   2.621  11.126   4.533  0.2476 -0.3642 -0.3744
  507MOL0     H68379   2.683  11.227   4.329 -1.7152  4.3219  3.1186
  507MOL0     H68380   2.798  11.319   4.113  3.8091 -4.7381  1.4822
  507MOL0     H68381   2.736  11.442   4.218 -1.7371 -3.6106  0.4653
  507MOL0     H68382   2.940  11.583   4.097  1.5330 -0.2910 -2.9435
  507MOL0     H68383   2.810  11.515   3.993  0.7190  1.6841 -1.0784
  507MOL0     H68384   2.956  11.322   3.943  0.2081  0.4354  0.9505
  507MOL0     H68385   3.094  11.410   4.008 -0.1756  0.9623  0.6943
  507MOL0     H68386   2.916  11.533   3.796  0.4613  1.8763 -1.4897
  507MOL0     H68387   3.073  11.595   3.858 -0.9812  0.9468  0.1135
  507MOL0     H68388   3.025  11.338   3.710 -2.0126  0.8607 -0.9180
  507MOL0     H68389   3.071  11.498   3.631  0.5483 -1.3902 -0.5439
  507MOL0     H68390   3.289  11.472   3.774 -1.7250  0.0288  3.6102
  507MOL0     H68391   3.224  11.331   3.841 -2.0269  1.3538  0.9299
  507MOL0     H68392   3.195  11.227   3.602  1.0063 -0.5386 -0.8420
  507MOL0     H68393   3.354  11.235   3.663 -0.2538 -0.8440 -2.4868
  507MOL0     H68394   3.340  11.476   3.547 -4.1951  1.7584 -1.7811
  507MOL0     H68395   3.393  11.334   3.450  0.6541  2.1209 -2.4906
  507MOL0     H68396   3.071  11.246   3.365  1.6918 -0.2301  0.4232
  507MOL0     H68397   2.879  11.507   3.143  3.5938 -0.7884  0.0265
  507MOL0     H68398   2.883  11.330   3.159  3.0026 -0.0499  0.2734
  507MOL0     H68399   2.666  11.432   3.233  0.1950  2.8289 -1.8760
  507MOL0     H68400   2.751  11.339   3.353  0.8235 -1.0737 -3.2474
  507MOL0     H68401   2.636  11.552   3.430 -0.3310  0.2426 -0.0997
  507MOL0     H68402   2.756  11.649   3.349  1.5482  0.6931 -0.0143
  507MOL0     H68403   2.927  11.553   3.491  0.4454 -0.9835 -2.3107
  507MOL0     H68404   2.816  11.446   3.585 -2.2100  0.3585  1.9962
  507MOL0     H68405   2.617  11.824   3.635  0.2709  1.3595  0.6394
  507MOL0     H68406   2.626  12.051   3.564 -1.8994 -1.9011  0.1135
  507MOL0     H68407   2.605  12.447   3.255  0.7778 -1.5386 -0.0579
  507MOL0     H68408   2.682  12.655   3.197 -0.3952  1.9387  2.2151
  507MOL0     H68409   2.725  12.885   3.239 -1.4105  0.6709 -0.0301
  507MOL0     H68410   2.719  12.880   3.421 -0.3860  0.2889 -0.1505
  507MOL0     H68411   2.769  13.099   3.346 -0.5594 -0.7843  1.9362
  507MOL0     H68412   2.910  13.049   3.444 -0.8304  0.8789  0.4906
  507MOL0     H68413   3.039  12.997   3.267 -0.5612 -0.8933 -0.3301
  507MOL0     H68414   2.903  13.047   3.153  1.3499  0.7359 -0.7129
  507MOL0     H68415   3.060  13.228   3.339 -0.6528 -1.1207 -0.3640
  507MOL0     H68416   2.911  13.269   3.246 -1.7698 -2.8102  4.2765
  507MOL0     H68417   3.162  13.153   3.109  1.2999  1.5721 -1.9638
  507MOL0     H68418   3.203  13.307   3.171  0.4820 -1.1954  2.0264
  507MOL0     H68419   2.969  13.257   3.003  2.8886 -3.4847 -1.4638
  507MOL0     H68420   3.004  13.419   3.079 -0.1303  0.5454 -1.0311
  507MOL0     H68421   3.221  13.294   2.910 -3.6085 -3.8704 -0.0748
  507MOL0     H68422   3.204  13.463   2.962 -0.3465 -0.5824  1.6233
  507MOL0     H68423   3.154  13.434   2.727  0.0543 -0.4992 -0.0135
  507MOL0     H68424   3.026  13.327   2.770  1.8054 -1.6702  1.4451
  507MOL0     H68425   2.964  12.664   3.505 -0.9644 -0.5784  0.7944
  507MOL0     H68426   2.909  12.419   3.565  0.8345  1.2519  1.2613
  507MOL0     H68427   3.038  11.977   3.418 -0.7254  0.3145 -0.6571
  507MOL0     H68428   3.028  11.758   3.521 -0.9972 -2.2395 -0.2701
  507MOL0     H68429   3.073  11.311   4.476 -1.0065  0.9802 -2.0661
  507MOL0     H68430   3.030  11.179   4.673 -1.0222 -0.4981  0.4147
  507MOL0     H68431   3.001  10.724   4.790  0.7814  1.9613  0.2265
  507MOL0     H68432   2.965  10.571   4.979  1.5909  2.7168  1.2345
  507MOL0     H68433   2.740  10.676   5.299 -2.6312 -1.5313 -0.8766
  507MOL0     H68434   2.898  10.586   5.300 -0.7045  0.1001  3.1585
  507MOL0     H68435   2.800  10.394   5.343  1.9416  1.7840 -1.0072
  507MOL0     H68436   2.637  10.443   5.298  1.9317 -0.4394 -1.3391
  507MOL0     H68437   2.629  10.607   5.498  0.6948  1.4693  0.6808
  507MOL0     H68438   2.787  10.543   5.548  1.3183  1.3044 -1.5227
  507MOL0     H68439   2.603  10.421   5.657  0.6248  3.0212  0.1482
  507MOL0     H68440   2.527  10.383   5.499  0.1162  0.9613 -0.0680
  507MOL0     H68441   2.822  10.086   5.607  1.3117  0.2534  0.6400
  507MOL0     H68442   2.596  10.765   5.077  1.1177  1.8212  0.7321
  507MOL0     H68443   2.555  10.961   4.769  0.1038 -0.7054 -0.3237
  507MOL0     H68444   2.469  10.905   4.918  1.8127 -0.5946  2.6115
  507MOL0     H68445   2.577  11.020   4.935 -1.8420 -1.2538  0.9955
  508MOL0     O68446   7.684   5.996   9.052 -0.3782  0.9077 -0.6616
  508MOL0     C68447   7.570   5.966   9.086  0.6760  0.5128 -0.3313
  508MOL0     O68448   7.474   5.908   9.004  0.7651  0.3104 -0.1382
  508MOL0     C68449   7.506   5.903   8.866  1.0053 -0.3050 -1.2088
  508MOL0     C68450   7.563   5.790   8.806  0.5627 -0.0683  0.4138
  508MOL0     C68451   7.594   5.784   8.672  0.4286  0.4734  0.1587
  508MOL0     C68452   7.564   5.893   8.585 -0.4908  0.0124 -0.7652
  508MOL0     O68453   7.604   5.894   8.457 -0.7898  0.7634  0.0277
  508MOL0     C68454   7.743   5.894   8.411 -1.3421  0.5259  0.3549
  508MOL0     C68455   7.796   6.035   8.415  0.6183  0.4531 -0.3356
  508MOL0     C68456   7.744   6.100   8.284  0.6419 -0.4622 -0.0215
  508MOL0     C68457   7.850   6.202   8.227 -0.4717 -0.3281  0.1739
  508MOL0     C68458   7.976   6.135   8.151 -0.3029 -1.0033 -0.0731
  508MOL0     C68459   8.087   6.247   8.113 -0.2712 -0.6661  0.4959
  508MOL0     C68460   8.194   6.181   8.030 -0.8234  0.4547  0.5153
  508MOL0     C68461   8.333   6.216   8.092 -0.0188 -0.1250  0.1212
  508MOL0     N68462   8.372   6.117   8.195 -0.4129 -0.5587  0.7369
  508MOL0     C68463   8.415   5.990   8.182  0.2517 -0.2365  0.0797
  508MOL0     C68464   8.500   5.960   8.282  0.7750 -0.5346  0.4940
  508MOL0     C68465   8.548   5.824   8.324  0.5108  0.1731 -0.6110
  508MOL0     C68466   8.450   5.712   8.279  0.2399  0.1793 -0.2424
  508MOL0     C68467   8.303   5.722   8.341 -0.4756 -0.8038  0.3028
  508MOL0     C68468   8.297   5.710   8.496 -0.2438 -1.0326  0.3068
  508MOL0     O68469   8.337   5.581   8.543  0.4506  0.4667  0.1541
  508MOL0     C68470   8.249   5.470   8.540 -0.4071 -0.1946  0.7696
  508MOL0     C68471   8.129   5.466   8.472  0.1001  0.3075 -0.3558
  508MOL0     C68472   8.056   5.348   8.456  0.5864 -0.5779 -0.3220
  508MOL0     C68473   8.092   5.233   8.522  0.2869  0.7702 -0.0556
  508MOL0     C68474   7.999   5.119   8.529  1.2427 -0.7949 -0.2192
  508MOL0     O68475   8.055   5.014   8.592  1.2022  0.5263  0.6029
  508MOL0     C68476   7.985   4.892   8.579 -0.8943  0.3351 -1.5483
  508MOL0     C68477   7.893   4.845   8.484 -0.1235  0.4986 -0.7085
  508MOL0     C68478   7.836   4.720   8.490  0.1851 -0.0911  0.4261
  508MOL0     C68479   7.879   4.625   8.571 -0.5297  0.3861 -1.3218
  508MOL0     O68480   7.824   4.499   8.569  0.1298  0.3166 -0.3586
  508MOL0     C68481   7.929   4.403   8.563  0.9901 -0.0785  0.2003
  508MOL0     C68482   7.872   4.264   8.526  0.4445  0.3439 -0.1320
  508MOL0     C68483   7.740   4.232   8.599 -0.2234  0.6964 -0.3184
  508MOL0     C68484   7.676   4.103   8.569 -0.6350 -0.5731 -1.1183
  508MOL0     C68485   7.531   4.102   8.638 -0.6615  0.4259 -0.1923
  508MOL0     C68486   7.457   3.970   8.617 -0.4710 -0.7695  0.2705
  508MOL0     C68487   7.524   3.848   8.690 -1.5066  0.8285 -0.2175
  508MOL0     C68488   7.442   3.721   8.664  0.3702  0.1812  0.1818
  508MOL0    Cl68489   7.513   3.575   8.742 -0.2468 -0.2233 -0.5255
  508MOL0     C68490   7.976   4.658   8.665 -0.3155 -0.5373 -0.3990
  508MOL0     C68491   8.019   4.793   8.676 -0.3102  0.4132 -0.3061
  508MOL0     O68492   7.881   5.133   8.494  0.1137  1.0175 -0.0070
  508MOL0     C68493   8.211   5.231   8.593 -0.7859  0.2690  0.5023
  508MOL0     C68494   8.290   5.346   8.597  0.6692 -0.0648 -0.0694
  508MOL0     N68495   8.512   6.072   8.356 -0.0406 -0.0338  1.0693
  508MOL0     N68496   8.437   6.165   8.300 -0.5272  1.0097 -0.4618
  508MOL0     C68497   7.506   6.005   8.645 -0.2426 -0.2738 -0.7713
  508MOL0     C68498   7.477   6.014   8.778  0.3108 -0.1063  0.0556
  508MOL0     C68499   7.528   5.970   9.223 -0.2473 -1.2724  0.5850
  508MOL0     C68500   7.489   6.102   9.266 -0.1347 -0.3803  0.5188
  508MOL0     C68501   7.437   6.123   9.393 -0.5773 -0.1551 -0.4924
  508MOL0     C68502   7.407   6.010   9.475  0.1473 -0.8129  0.0344
  508MOL0     O68503   7.370   6.009   9.603 -0.4147 -0.2591 -0.3184
  508MOL0     C68504   7.254   6.097   9.639  0.1399  0.0124 -0.4807
  508MOL0     C68505   7.302   6.197   9.745  0.2058 -0.2197 -0.1653
  508MOL0     C68506   7.358   6.129   9.868 -1.0818  0.3765 -0.2217
  508MOL0     C68507   7.243   6.125   9.961  0.4821 -0.4693 -0.4027
  508MOL0     C68508   7.239   6.246  10.049 -0.0098 -0.0409 -0.9550
  508MOL0     C68509   7.232   6.350  10.109 -0.3097  0.1694 -0.2128
  508MOL0     C68510   7.436   5.885   9.433  0.6079  0.9500 -0.0509
  508MOL0     C68511   7.502   5.863   9.307  0.8467  0.0021 -1.0495
  508MOL0     C68512   7.548   5.728   9.260  0.1967 -0.5954 -0.3997
  508MOL0     H68513   7.569   5.701   8.868 -0.2168 -1.6288 -1.6536
  508MOL0     H68514   7.643   5.696   8.631 -2.8151 -1.6152  0.3296
  508MOL0     H68515   7.802   5.831   8.477 -0.0348 -0.7051 -1.8526
  508MOL0     H68516   7.751   5.848   8.312 -3.1313 -2.2323  1.4012
  508MOL0     H68517   7.905   6.033   8.408  0.5586 -1.6158 -1.3784
  508MOL0     H68518   7.766   6.096   8.501  3.2734  0.8288  0.4089
  508MOL0     H68519   7.647   6.146   8.306 -0.5722 -2.2270 -1.3527
  508MOL0     H68520   7.726   6.022   8.209  1.1647 -1.0431  0.4458
  508MOL0     H68521   7.797   6.270   8.160  0.9157  0.5902 -0.0501
  508MOL0     H68522   7.887   6.259   8.313 -1.1044 -1.4159  1.1883
  508MOL0     H68523   8.015   6.054   8.214  2.6911 -0.1920 -0.7006
  508MOL0     H68524   7.937   6.094   8.058 -4.1823  0.7555  0.6049
  508MOL0     H68525   8.036   6.329   8.061  0.2586  0.7917  2.1977
  508MOL0     H68526   8.129   6.288   8.205  1.3036 -0.7767 -0.1383
  508MOL0     H68527   8.195   6.223   7.929  0.6080 -0.8775 -0.0801
  508MOL0     H68528   8.181   6.072   8.034 -0.0339  0.3631  0.7601
  508MOL0     H68529   8.402   6.217   8.007 -1.7687  0.4149 -1.3568
  508MOL0     H68530   8.331   6.318   8.132 -0.2237 -0.4500  0.9485
  508MOL0     H68531   8.382   5.919   8.107  2.7572  0.0547 -1.4459
  508MOL0     H68532   8.646   5.793   8.288  1.2984  1.5146  0.3137
  508MOL0     H68533   8.558   5.836   8.432 -1.6814  0.4166 -0.3858
  508MOL0     H68534   8.435   5.709   8.171 -4.1053 -0.3756  0.1748
  508MOL0     H68535   8.486   5.613   8.305  0.9862  0.2763 -0.8751
  508MOL0     H68536   8.244   5.644   8.292 -1.3479  1.0569 -1.7628
  508MOL0     H68537   8.259   5.817   8.307 -0.0066  0.0521  1.9732
  508MOL0     H68538   8.205   5.744   8.544 -0.6461 -1.7383  0.0325
  508MOL0     H68539   8.365   5.790   8.528 -2.9006  2.7277 -2.6004
  508MOL0     H68540   8.086   5.557   8.431 -2.6463 -1.0965 -0.8051
  508MOL0     H68541   7.967   5.342   8.393  1.2851 -2.6194 -1.1816
  508MOL0     H68542   7.860   4.911   8.404  0.2757  2.7094  0.8484
  508MOL0     H68543   7.760   4.689   8.419 -1.4366 -0.1157  2.0954
  508MOL0     H68544   8.006   4.440   8.495  0.2252  1.2665  0.0480
  508MOL0     H68545   7.973   4.392   8.663 -0.5443  0.7010  1.0031
  508MOL0     H68546   7.856   4.253   8.418 -0.7336 -1.0991  0.1508
  508MOL0     H68547   7.948   4.193   8.559 -0.2394 -0.6476 -0.6415
  508MOL0     H68548   7.764   4.227   8.705 -0.2459 -2.0343 -0.3545
  508MOL0     H68549   7.671   4.316   8.585  0.1355  1.0895  0.2475
  508MOL0     H68550   7.738   4.020   8.604  3.2632  1.7149 -2.0320
  508MOL0     H68551   7.670   4.095   8.460 -0.1208 -1.4340 -1.0919
  508MOL0     H68552   7.476   4.185   8.594  0.2197  0.7565 -0.6996
  508MOL0     H68553   7.539   4.121   8.746 -0.5006  2.5430 -0.5484
  508MOL0     H68554   7.351   3.984   8.644 -0.3755  0.7685 -0.0854
  508MOL0     H68555   7.448   3.951   8.509 -2.5565  1.5470 -0.0665
  508MOL0     H68556   7.560   3.859   8.793  0.6926  0.4824 -0.8913
  508MOL0     H68557   7.616   3.831   8.633 -1.3800  0.9271 -0.0422
  508MOL0     H68558   7.346   3.738   8.715  0.8476  0.7125  0.9124
  508MOL0     H68559   7.415   3.698   8.561 -1.7717  0.8185  0.5524
  508MOL0     H68560   8.018   4.599   8.746  1.7765 -0.4954 -1.3998
  508MOL0     H68561   8.088   4.815   8.758 -1.5533 -0.7346  1.1182
  508MOL0     H68562   8.253   5.142   8.638  2.3976  0.8862 -0.9101
  508MOL0     H68563   8.387   5.350   8.646  0.3393 -0.5102  0.6438
  508MOL0     H68564   7.480   6.091   8.584  2.4346  0.3933 -1.1258
  508MOL0     H68565   7.442   6.109   8.818  0.7301 -0.5465  1.5061
  508MOL0     H68566   7.514   6.180   9.196 -0.3046 -0.3826  0.4547
  508MOL0     H68567   7.433   6.214   9.451  2.1778 -2.3588  3.7007
  508MOL0     H68568   7.177   6.032   9.681 -0.6635  0.2670 -1.5220
  508MOL0     H68569   7.231   6.152   9.547  2.2510 -0.8529 -1.6009
  508MOL0     H68570   7.220   6.264   9.773  1.3289  0.4996  1.6361
  508MOL0     H68571   7.387   6.245   9.698  2.4790 -0.5065  3.2668
  508MOL0     H68572   7.437   6.192   9.912 -0.0746  0.6060 -2.2270
  508MOL0     H68573   7.399   6.030   9.847  1.6228  1.4659 -0.5426
  508MOL0     H68574   7.148   6.099   9.913  1.0853 -1.5402 -1.0518
  508MOL0     H68575   7.263   6.039  10.025  1.7367 -1.4428 -2.0170
  508MOL0     H68576   7.230   6.445  10.158 -1.9477 -1.1013  2.4054
  508MOL0     H68577   7.417   5.800   9.498  2.1033 -0.7087 -1.6615
  508MOL0     H68578   7.633   5.734   9.191 -0.7531  1.8236 -1.4840
  508MOL0     H68579   7.570   5.662   9.344 -0.2973  2.3354  2.2038
  508MOL0     H68580   7.466   5.692   9.196  3.4556 -2.0379 -4.1646
  509MOL0     O68581   1.944  10.910   1.092  0.5467 -0.4863 -0.7684
  509MOL0     C68582   1.821  10.904   1.067 -0.1377  0.0443 -0.2025
  509MOL0     O68583   1.760  10.848   0.961  0.3407  0.2926  0.6939
  509MOL0     C68584   1.835  10.814   0.851  0.7464 -0.2097  0.1244
  509MOL0     C68585   1.820  10.895   0.735  0.2133  0.1033  0.0919
  509MOL0     C68586   1.893  10.865   0.624 -0.4079 -0.3971 -0.3924
  509MOL0     C68587   1.979  10.758   0.622 -0.2273 -0.4120 -0.6950
  509MOL0     O68588   2.048  10.719   0.513 -0.6185  0.0519  0.6666
  509MOL0     C68589   2.093  10.809   0.411  0.3560  0.4943  0.5891
  509MOL0     C68590   2.235  10.857   0.424  0.2332  0.2025  0.5144
  509MOL0     C68591   2.267  10.914   0.564 -0.3586  0.4849 -0.9079
  509MOL0     C68592   2.232  11.053   0.585 -0.2756  0.5921  0.6491
  509MOL0     C68593   2.241  11.095   0.731 -0.0662  0.2332  0.6236
  509MOL0     C68594   2.385  11.117   0.780 -0.1648 -0.0732 -0.6270
  509MOL0     C68595   2.429  11.001   0.876  0.4650 -0.5972  0.5768
  509MOL0     C68596   2.579  11.004   0.894  0.4864  0.5126  0.4336
  509MOL0     N68597   2.662  10.983   0.771 -0.8814 -0.3760  1.1288
  509MOL0     C68598   2.758  11.068   0.727 -0.6506 -0.2871 -0.0983
  509MOL0     C68599   2.790  11.013   0.600  0.8754  0.4213 -0.4865
  509MOL0     C68600   2.894  11.059   0.511 -0.2258  0.8074  0.1455
  509MOL0     C68601   2.980  11.171   0.580  0.2169 -0.4221  0.3479
  509MOL0     C68602   3.082  11.249   0.491  0.4870  1.0998  0.3104
  509MOL0     C68603   3.160  11.359   0.566 -0.4632  0.2930 -0.7342
  509MOL0     O68604   3.243  11.308   0.682 -0.2574 -0.2983 -0.7173
  509MOL0     C68605   3.360  11.244   0.664 -1.3055  1.1641  0.1162
  509MOL0     C68606   3.448  11.230   0.547 -0.5328 -0.0014 -0.3479
  509MOL0     C68607   3.577  11.177   0.562 -0.6594 -0.0868  0.6569
  509MOL0     C68608   3.621  11.128   0.683  1.1041 -0.7945 -0.2269
  509MOL0     C68609   3.744  11.067   0.712  0.2871 -0.3264 -0.1950
  509MOL0     O68610   3.767  11.002   0.826  0.0886 -0.4469 -0.0303
  509MOL0     C68611   3.874  10.923   0.847  0.4418  0.3029 -0.7227
  509MOL0     C68612   4.002  10.973   0.853 -0.6038  0.2084  0.0302
  509MOL0     C68613   4.109  10.891   0.874  0.9105  0.0972  0.2730
  509MOL0     C68614   4.088  10.761   0.891 -0.6341 -0.1044  0.2292
  509MOL0     O68615   4.184  10.662   0.914  0.1372 -0.7349  0.3678
  509MOL0     C68616   4.314  10.706   0.952  0.6343  0.5318  0.6555
  509MOL0     C68617   4.317  10.764   1.095 -0.6458  0.5607 -0.0394
  509MOL0     C68618   4.462  10.796   1.138 -0.4281  0.2620  0.4004
  509MOL0     C68619   4.490  10.721   1.269  0.8944 -0.0794 -0.1348
  509MOL0     C68620   4.638  10.720   1.295  0.6935 -0.0973  0.3174
  509MOL0     C68621   4.665  10.644   1.432 -0.2076 -0.4797  1.1634
  509MOL0     C68622   4.796  10.672   1.488 -0.9405  0.0106  0.6968
  509MOL0     C68623   4.915  10.614   1.408 -0.4470  0.1315  0.1067
  509MOL0    Cl68624   4.958  10.696   1.261  0.2174  0.1119  0.5002
  509MOL0     C68625   3.955  10.709   0.901 -0.2366 -0.3251  0.1779
  509MOL0     C68626   3.854  10.795   0.871  0.2458  0.5099 -0.4003
  509MOL0     O68627   3.831  11.087   0.627  0.3472  0.7843  1.1995
  509MOL0     C68628   3.531  11.136   0.793  0.0112 -0.1653  0.6088
  509MOL0     C68629   3.398  11.195   0.790 -1.3731  0.8262  0.1870
  509MOL0     N68630   2.692  10.915   0.567 -0.3736 -0.1752  0.4534
  509MOL0     N68631   2.631  10.885   0.676 -0.8793 -0.1707 -0.1700
  509MOL0     C68632   2.003  10.687   0.736 -0.0253  0.6772  0.5998
  509MOL0     C68633   1.929  10.705   0.849  1.2381 -0.5100 -1.0515
  509MOL0     C68634   1.725  10.925   1.177 -0.0874  0.1479 -0.1292
  509MOL0     C68635   1.592  10.877   1.159  0.6202  0.2795  0.0482
  509MOL0     C68636   1.494  10.892   1.254 -0.2438  0.4525 -0.0359
  509MOL0     C68637   1.528  10.945   1.379  0.5222 -0.0671 -0.2653
  509MOL0     O68638   1.424  10.948   1.468 -0.3331 -0.1338 -0.2024
  509MOL0     C68639   1.438  10.906   1.602  0.4744 -0.1641 -0.9827
  509MOL0     C68640   1.462  10.756   1.620 -0.4553  0.2155  0.5511
  509MOL0     C68641   1.401  10.701   1.744  0.0522  0.2234 -2.0161
  509MOL0     C68642   1.472  10.743   1.881  0.2408  0.3118 -0.2992
  509MOL0     C68643   1.417  10.694   2.010  0.1268  0.2376 -0.3092
  509MOL0     C68644   1.351  10.671   2.104  0.4027  1.3016  0.0954
  509MOL0     C68645   1.654  10.996   1.394  0.5022 -0.7302  0.5449
  509MOL0     C68646   1.761  10.992   1.296  1.1193 -0.4448  0.1696
  509MOL0     C68647   1.886  11.038   1.352 -0.5676  0.2562 -1.0906
  509MOL0     H68648   1.762  10.986   0.720  1.8716  0.9000 -1.8668
  509MOL0     H68649   1.867  10.917   0.532 -1.3560 -0.1145  0.0176
  509MOL0     H68650   2.083  10.758   0.314  2.1063  0.3527  0.4588
  509MOL0     H68651   2.023  10.892   0.401 -2.1567 -1.6515 -0.9731
  509MOL0     H68652   2.243  10.929   0.342 -1.3228 -0.9122 -0.6558
  509MOL0     H68653   2.304  10.777   0.394  0.0261  0.2402 -0.0762
  509MOL0     H68654   2.375  10.911   0.582 -0.8288  0.3341  2.6836
  509MOL0     H68655   2.214  10.862   0.645  0.7140  1.7566  0.6569
  509MOL0     H68656   2.295  11.112   0.518 -2.7005  0.2706 -2.0988
  509MOL0     H68657   2.127  11.065   0.557 -0.4656 -1.7327  0.1359
  509MOL0     H68658   2.185  11.188   0.737 -0.4835 -0.1184  2.9089
  509MOL0     H68659   2.181  11.030   0.794 -0.0358 -0.9717 -0.5478
  509MOL0     H68660   2.458  11.118   0.699  1.8057 -2.4816  0.9736
  509MOL0     H68661   2.388  11.219   0.820  2.4787 -1.0348  1.9739
  509MOL0     H68662   2.405  10.902   0.835 -3.7312  0.5800 -0.2421
  509MOL0     H68663   2.368  11.009   0.967 -0.7373  1.5782 -0.3490
  509MOL0     H68664   2.612  11.089   0.954  1.3180 -0.2304  1.0551
  509MOL0     H68665   2.604  10.910   0.945 -1.2491  0.1615  0.7001
  509MOL0     H68666   2.800  11.148   0.788  0.5603 -1.9608  1.3636
  509MOL0     H68667   2.953  10.976   0.473 -0.0353  1.2907 -0.6424
  509MOL0     H68668   2.848  11.103   0.422  0.6747 -2.0512 -1.8760
  509MOL0     H68669   2.906  11.242   0.617  2.0960  0.9199  1.7549
  509MOL0     H68670   3.020  11.131   0.674  0.5475 -1.9948 -0.4293
  509MOL0     H68671   3.035  11.301   0.407 -0.5269  0.0709  0.2311
  509MOL0     H68672   3.159  11.186   0.446  2.7608  4.1411 -0.3620
  509MOL0     H68673   3.095  11.439   0.603  3.3488  3.6729 -0.6803
  509MOL0     H68674   3.223  11.424   0.505 -0.5562  3.7247  2.4393
  509MOL0     H68675   3.423  11.289   0.459  0.2720  1.2185  0.2098
  509MOL0     H68676   3.628  11.176   0.466 -0.8590  0.3031  0.5435
  509MOL0     H68677   4.029  11.077   0.846  2.0430 -0.3771  0.5151
  509MOL0     H68678   4.207  10.936   0.880  0.4831  0.8511  3.6721
  509MOL0     H68679   4.377  10.619   0.930 -0.7726 -0.7524  1.4380
  509MOL0     H68680   4.342  10.783   0.880  3.0988 -0.5029  0.4115
  509MOL0     H68681   4.246  10.847   1.094 -2.0322 -0.5877  0.3732
  509MOL0     H68682   4.284  10.683   1.160  1.7797 -1.0124 -0.6506
  509MOL0     H68683   4.534  10.781   1.058 -2.1298 -0.5678 -1.0520
  509MOL0     H68684   4.460  10.903   1.160  0.3200  0.0490  1.6217
  509MOL0     H68685   4.456  10.617   1.259 -0.2462  0.4612 -2.6227
  509MOL0     H68686   4.442  10.768   1.355  1.6015 -0.6304  0.5809
  509MOL0     H68687   4.686  10.817   1.311  0.3053  0.5025 -1.7735
  509MOL0     H68688   4.699  10.686   1.210  3.6308 -1.1101  2.6304
  509MOL0     H68689   4.584  10.672   1.500 -1.6661 -0.7393 -0.3813
  509MOL0     H68690   4.638  10.538   1.421  0.7246 -0.4477 -3.0800
  509MOL0     H68691   4.803  10.632   1.590  2.4591 -1.1838  0.1098
  509MOL0     H68692   4.812  10.779   1.499  0.3632  0.2579 -2.5416
  509MOL0     H68693   5.008  10.619   1.466  1.0853  0.3313 -2.2368
  509MOL0     H68694   4.897  10.509   1.384  3.2705 -1.1228  2.1126
  509MOL0     H68695   3.944  10.604   0.929  0.6662 -0.2911  0.6894
  509MOL0     H68696   3.750  10.765   0.886  0.7035 -0.0536  2.1360
  509MOL0     H68697   3.570  11.105   0.890 -0.2456 -3.4359 -0.2200
  509MOL0     H68698   3.334  11.207   0.876 -0.5027 -1.1447  1.1788
  509MOL0     H68699   2.071  10.602   0.740 -1.5106 -0.5357  4.4117
  509MOL0     H68700   1.940  10.645   0.938 -0.3061  2.9318  1.6769
  509MOL0     H68701   1.560  10.821   1.071  3.2409 -1.4524  0.0930
  509MOL0     H68702   1.393  10.864   1.227 -0.6949  1.0943  0.9302
  509MOL0     H68703   1.346  10.924   1.659  0.5329 -2.9931  0.1767
  509MOL0     H68704   1.517  10.958   1.658  2.3635 -1.0837 -2.6661
  509MOL0     H68705   1.565  10.717   1.622  0.0047  1.3721  3.1183
  509MOL0     H68706   1.424  10.708   1.529  0.7695  0.1204  0.0654
  509MOL0     H68707   1.415  10.593   1.733  1.5034  0.3848 -2.0197
  509MOL0     H68708   1.296  10.730   1.751  0.3177  0.8181  2.2229
  509MOL0     H68709   1.577  10.716   1.870  0.2625  0.7381 -1.2443
  509MOL0     H68710   1.460  10.851   1.892  2.3646  0.5525 -0.0291
  509MOL0     H68711   1.306  10.658   2.200  3.0904 -2.4101  1.0288
  509MOL0     H68712   1.657  11.036   1.495 -1.9371 -1.8899  1.1620
  509MOL0     H68713   1.891  11.044   1.461 -1.9050 -1.8783 -0.8502
  509MOL0     H68714   1.966  10.970   1.321 -0.6571  0.5039 -1.9049
  509MOL0     H68715   1.915  11.135   1.310 -0.6029  0.1375 -1.3900
  510MOL0     O68716   5.838   1.567   6.452 -0.0875  0.1144 -0.1090
  510MOL0     C68717   5.734   1.522   6.412  0.6325 -0.2859  0.0849
  510MOL0     O68718   5.617   1.543   6.486  0.4093  0.4838 -0.1667
  510MOL0     C68719   5.623   1.540   6.627 -0.1733 -0.0071  0.1780
  510MOL0     C68720   5.687   1.447   6.696 -0.0483  0.3472  0.2497
  510MOL0     C68721   5.676   1.426   6.826  0.5068  0.9742 -1.5557
  510MOL0     C68722   5.596   1.515   6.902  0.3965  0.1990 -0.1603
  510MOL0     O68723   5.570   1.496   7.032 -0.2109  0.6977 -0.2013
  510MOL0     C68724   5.634   1.389   7.104  0.0709 -0.6241  0.2091
  510MOL0     C68725   5.609   1.423   7.249 -0.3058 -0.6047 -0.1207
  510MOL0     C68726   5.683   1.346   7.357 -0.3733  0.8239  0.2172
  510MOL0     C68727   5.838   1.346   7.336  0.3536 -0.8215 -0.1388
  510MOL0     C68728   5.900   1.234   7.430  0.2605 -0.3199 -0.5368
  510MOL0     C68729   5.893   1.256   7.583  0.4850  0.5198 -0.4561
  510MOL0     C68730   5.889   1.117   7.644  0.0037  0.2068  0.4433
  510MOL0     C68731   5.903   1.128   7.795  0.4582  0.6670  0.1633
  510MOL0     N68732   5.884   1.003   7.870 -0.1312 -0.7633 -0.1246
  510MOL0     C68733   5.963   0.895   7.862  0.1921 -0.1431 -0.0365
  510MOL0     C68734   5.897   0.800   7.936 -0.6127  0.5383  0.0914
  510MOL0     C68735   5.930   0.655   7.951 -0.3080 -0.8703 -0.0415
  510MOL0     C68736   5.992   0.620   8.081 -0.5523  0.1151  0.3878
  510MOL0     C68737   5.998   0.465   8.101 -0.4825 -0.6015 -0.4652
  510MOL0     C68738   6.014   0.435   8.248 -0.0114  0.2221  0.2463
  510MOL0     O68739   6.030   0.296   8.265  0.9820 -0.0228 -0.2958
  510MOL0     C68740   6.005   0.235   8.387  1.1897 -0.1974 -0.3866
  510MOL0     C68741   5.982   0.315   8.502  0.2989 -0.1700 -0.6808
  510MOL0     C68742   5.978   0.253   8.635 -0.1938 -0.4619  0.3239
  510MOL0     C68743   5.982   0.115   8.654  0.4559  0.9252 -0.0554
  510MOL0     C68744   5.976   0.050   8.795 -0.7856 -0.1395  0.1619
  510MOL0     O68745   5.950   0.135   8.898  0.2113 -0.2505  0.2495
  510MOL0     C68746   5.961   0.082   9.026 -0.0239  0.3226  0.7579
  510MOL0     C68747   5.878   0.148   9.117  0.5264  0.7289 -0.0134
  510MOL0     C68748   5.883   0.118   9.254  0.3825  0.7378 -0.1559
  510MOL0     C68749   5.962   0.019   9.307  0.2120  0.8135  0.3952
  510MOL0     O68750   5.966  -0.013   9.437  0.4728 -0.3788 -0.0342
  510MOL0     C68751   5.835  -0.035   9.488  0.1246 -0.6694  0.1965
  510MOL0     C68752   5.844  -0.129   9.604  0.1155  0.1541 -0.5071
  510MOL0     C68753   5.884  -0.275   9.568  0.3157 -0.7509  0.2205
  510MOL0     C68754   5.873  -0.354   9.699  0.7014 -0.2915  0.4528
  510MOL0     C68755   5.889  -0.501   9.682 -0.3936  1.2243 -0.0448
  510MOL0     C68756   5.848  -0.573   9.811  0.2923  0.1244  0.6267
  510MOL0     C68757   5.857  -0.732   9.805 -0.6677 -0.8627 -0.0129
  510MOL0     C68758   5.815  -0.788   9.938 -0.6330 -0.8434 -0.1878
  510MOL0    Cl68759   5.636  -0.793   9.934  0.0554 -0.1687  0.1711
  510MOL0     C68760   6.043  -0.055   9.220  1.0757 -0.0557  0.5355
  510MOL0     C68761   6.049  -0.020   9.083  0.2634  0.0517  0.4931
  510MOL0     O68762   5.987  -0.072   8.804 -0.9576  0.0684  0.6122
  510MOL0     C68763   6.007   0.042   8.535 -0.0671  0.2254 -0.2826
  510MOL0     C68764   6.019   0.100   8.412  0.3096 -0.8454  0.6694
  510MOL0     N68765   5.796   0.852   7.999  0.1517  0.5094  0.2410
  510MOL0     N68766   5.782   0.971   7.949  1.0583  0.0761 -0.2870
  510MOL0     C68767   5.538   1.628   6.834  0.0366 -0.2807  0.9172
  510MOL0     C68768   5.556   1.641   6.701  0.4007 -0.3335 -0.1854
  510MOL0     C68769   5.717   1.475   6.278  0.3245  0.1522  0.1479
  510MOL0     C68770   5.582   1.452   6.235 -0.4848 -0.5285 -0.0850
  510MOL0     C68771   5.557   1.407   6.108 -0.4081 -0.2364  0.1108
  510MOL0     C68772   5.667   1.375   6.021 -0.6923 -0.0207  0.3093
  510MOL0     O68773   5.628   1.338   5.895  0.4555  0.2954 -0.4096
  510MOL0     C68774   5.721   1.263   5.810 -0.5110 -0.4467 -0.4873
  510MOL0     C68775   5.808   1.357   5.721 -0.7342  0.2029  0.4708
  510MOL0     C68776   5.912   1.273   5.642  1.3448  0.4245 -0.6287
  510MOL0     C68777   5.995   1.346   5.541 -0.5913  0.5822  0.3303
  510MOL0     C68778   5.916   1.380   5.421 -0.5827 -0.3376 -0.4407
  510MOL0     C68779   5.826   1.409   5.346  0.9933 -0.5592  0.7981
  510MOL0     C68780   5.797   1.406   6.062 -0.0538  0.2781 -1.2320
  510MOL0     C68781   5.822   1.463   6.189  0.2194 -0.9741  0.7596
  510MOL0     C68782   5.969   1.478   6.226  0.6971  0.8157 -0.0160
  510MOL0     H68783   5.761   1.384   6.647  1.6056  2.0263  0.4531
  510MOL0     H68784   5.714   1.332   6.866 -2.5229  0.6261  0.8861
  510MOL0     H68785   5.573   1.302   7.080 -3.6421  1.2825  1.9153
  510MOL0     H68786   5.739   1.369   7.080  0.2352  0.5207 -0.0714
  510MOL0     H68787   5.505   1.421   7.281  0.8701 -0.6786  4.4103
  510MOL0     H68788   5.645   1.523   7.272  0.9892 -1.6763  3.0560
  510MOL0     H68789   5.657   1.240   7.358  1.3380  0.3234 -1.5221
  510MOL0     H68790   5.658   1.387   7.455 -0.5021 -2.9223  1.9507
  510MOL0     H68791   5.881   1.318   7.239 -0.7043  0.6842 -1.0911
  510MOL0     H68792   5.879   1.445   7.354 -1.7726  0.1177 -0.1160
  510MOL0     H68793   5.851   1.139   7.409 -3.9255  1.7831 -1.3124
  510MOL0     H68794   6.005   1.220   7.404  1.0026  1.0449  1.5108
  510MOL0     H68795   5.977   1.318   7.615  1.3059 -0.9183  0.2683
  510MOL0     H68796   5.801   1.310   7.609  0.1540  0.7121 -1.9328
  510MOL0     H68797   5.971   1.052   7.612  1.3516  3.1354 -2.6167
  510MOL0     H68798   5.806   1.061   7.601  1.0392 -2.6682  1.9618
  510MOL0     H68799   6.008   1.160   7.802  0.4972  2.0621 -3.8808
  510MOL0     H68800   5.833   1.205   7.828  3.1252  3.3193  0.0866
  510MOL0     H68801   6.046   0.895   7.793 -1.0621  0.0635 -1.6073
  510MOL0     H68802   5.838   0.596   7.941  1.2533 -3.4410 -0.2482
  510MOL0     H68803   5.987   0.636   7.859  1.6905  2.0609  0.4527
  510MOL0     H68804   6.088   0.670   8.100  0.5487 -1.4956 -0.5957
  510MOL0     H68805   5.918   0.660   8.150 -1.8457  0.2775 -1.0483
  510MOL0     H68806   6.082   0.424   8.043 -0.7252 -1.8860  0.0754
  510MOL0     H68807   5.910   0.417   8.058 -1.6101 -0.3737  1.4914
  510MOL0     H68808   5.920   0.466   8.295  0.4749 -0.5721  1.8086
  510MOL0     H68809   6.098   0.485   8.296 -0.3365 -1.6961  3.0749
  510MOL0     H68810   5.967   0.422   8.489 -3.6103 -0.2118  2.0577
  510MOL0     H68811   5.963   0.324   8.716 -3.1330 -0.9407  0.3051
  510MOL0     H68812   5.820   0.229   9.075 -0.4794  0.4381  0.7694
  510MOL0     H68813   5.818   0.168   9.325 -0.3230 -0.4844  0.0970
  510MOL0     H68814   5.804   0.066   9.518  1.4701  0.8141 -2.9051
  510MOL0     H68815   5.762  -0.074   9.416 -3.0366  0.9623  2.2558
  510MOL0     H68816   5.913  -0.095   9.682 -3.0710  1.0641  2.1235
  510MOL0     H68817   5.746  -0.123   9.651  0.1344 -0.2375 -0.4168
  510MOL0     H68818   5.832  -0.316   9.481  1.0972  2.9958 -2.2750
  510MOL0     H68819   5.988  -0.285   9.534  0.2492  2.0924 -1.1176
  510MOL0     H68820   5.771  -0.332   9.732  1.3123  3.2832  0.4252
  510MOL0     H68821   5.927  -0.313   9.785 -0.6547  0.3089  1.0568
  510MOL0     H68822   5.987  -0.522   9.641  0.8507  2.8316  1.8973
  510MOL0     H68823   5.819  -0.521   9.600 -0.2416  2.1558 -0.4200
  510MOL0     H68824   5.912  -0.541   9.894 -1.2166 -1.0410  2.3538
  510MOL0     H68825   5.748  -0.537   9.838  0.5205  0.3896  1.1450
  510MOL0     H68826   5.965  -0.742   9.790 -0.8463 -0.9779 -1.3445
  510MOL0     H68827   5.806  -0.768   9.715  0.4901 -2.6306 -0.0070
  510MOL0     H68828   5.838  -0.894   9.952 -2.8719 -1.7924 -2.7080
  510MOL0     H68829   5.838  -0.717  10.018 -0.0467 -0.8943 -0.3102
  510MOL0     H68830   6.109  -0.136   9.252  0.2546 -0.6647  0.7093
  510MOL0     H68831   6.110  -0.076   9.012 -1.6746  1.1895 -2.2924
  510MOL0     H68832   6.010  -0.066   8.544 -1.2693  0.2064  0.0983
  510MOL0     H68833   6.051   0.034   8.332  2.0860 -0.1260  0.7564
  510MOL0     H68834   5.492   1.713   6.884  1.1986  0.2334  1.1530
  510MOL0     H68835   5.504   1.728   6.660 -0.5934 -1.0397 -0.4642
  510MOL0     H68836   5.494   1.482   6.291 -1.2033 -1.5265 -0.6670
  510MOL0     H68837   5.451   1.399   6.085 -1.8521  3.2034  4.2547
  510MOL0     H68838   5.669   1.195   5.742  0.8917 -1.1513 -0.9034
  510MOL0     H68839   5.794   1.200   5.862  0.5513  0.6489 -0.6043
  510MOL0     H68840   5.851   1.441   5.777 -2.2829  1.9574 -0.8343
  510MOL0     H68841   5.745   1.406   5.647 -0.4656  0.8594  0.6599
  510MOL0     H68842   5.865   1.189   5.590  1.8295  0.9248 -1.8988
  510MOL0     H68843   5.974   1.236   5.726  1.1313  3.8213  1.1893
  510MOL0     H68844   6.030   1.441   5.582  1.8652 -0.1280  0.0383
  510MOL0     H68845   6.078   1.285   5.505 -1.5078 -0.1688 -0.5897
  510MOL0     H68846   5.750   1.441   5.278  2.8581 -1.0595 -1.7073
  510MOL0     H68847   5.880   1.374   5.999  0.6456  1.8251 -1.1302
  510MOL0     H68848   6.002   1.431   6.318  1.0347  2.5576  0.8031
  510MOL0     H68849   6.035   1.452   6.143 -0.0586  0.2695 -0.4634
  510MOL0     H68850   5.988   1.584   6.245 -0.8199  0.9432  1.0302
  511MOL0     O68851   7.603   2.407   8.030 -0.2766  0.2644 -0.1386
  511MOL0     C68852   7.565   2.295   8.068  0.3083  0.3324  0.6333
  511MOL0     O68853   7.433   2.253   8.084  0.4491 -0.1043 -0.4369
  511MOL0     C68854   7.322   2.331   8.092  0.3894  0.0276  0.0397
  511MOL0     C68855   7.203   2.271   8.048  0.2764 -0.0640 -1.0811
  511MOL0     C68856   7.079   2.322   8.088  0.1023  0.1125 -0.7813
  511MOL0     C68857   7.070   2.432   8.170 -0.1736  0.1150 -1.4868
  511MOL0     O68858   6.952   2.486   8.223  0.2068  0.1818 -0.0021
  511MOL0     C68859   6.829   2.392   8.204  0.6545 -0.6159  0.4045
  511MOL0     C68860   6.714   2.448   8.292 -0.3817 -0.7144  0.2458
  511MOL0     C68861   6.685   2.601   8.265  1.2639 -0.6046 -0.0972
  511MOL0     C68862   6.535   2.632   8.273  0.2306  0.3257  0.5155
  511MOL0     C68863   6.490   2.779   8.236 -0.0346  0.3805 -0.1389
  511MOL0     C68864   6.564   2.891   8.312 -0.7173  0.2737 -0.1131
  511MOL0     C68865   6.517   3.037   8.292  0.7039 -0.9007 -0.0681
  511MOL0     C68866   6.565   3.097   8.160 -0.4420 -0.2079  1.4007
  511MOL0     N68867   6.506   3.235   8.143  0.4290  0.6313  0.9043
  511MOL0     C68868   6.579   3.350   8.185  0.7631 -0.3019  0.4140
  511MOL0     C68869   6.498   3.453   8.149 -0.1376 -0.4700 -0.0485
  511MOL0     C68870   6.529   3.606   8.143  0.2703 -0.2949  0.1093
  511MOL0     C68871   6.608   3.643   8.017  0.5028 -0.5137 -0.2328
  511MOL0     C68872   6.664   3.797   8.014  0.2112 -0.2274 -1.0298
  511MOL0     C68873   6.766   3.821   7.907  0.5222  0.5608 -1.0348
  511MOL0     O68874   6.691   3.818   7.784  0.2782 -0.3860 -0.1264
  511MOL0     C68875   6.762   3.852   7.674 -0.5927  0.6436  0.2396
  511MOL0     C68876   6.683   3.848   7.553  1.0877 -0.2002 -0.2790
  511MOL0     C68877   6.744   3.884   7.436 -0.0175 -0.4801  0.5566
  511MOL0     C68878   6.887   3.920   7.428  0.2051 -0.6831 -0.1403
  511MOL0     C68879   6.953   3.957   7.295 -0.3020 -1.1205  0.3187
  511MOL0     O68880   6.884   3.942   7.188  0.3353 -0.4212  0.2664
  511MOL0     C68881   6.931   4.006   7.067 -0.1757 -0.0450 -0.4635
  511MOL0     C68882   6.931   3.946   6.937  0.0684  0.3656  0.1666
  511MOL0     C68883   6.958   4.011   6.819 -0.6378 -0.6529  0.3074
  511MOL0     C68884   7.009   4.141   6.819 -0.3544  0.2046  1.1017
  511MOL0     O68885   7.048   4.187   6.701  0.9184 -0.2931  0.3564
  511MOL0     C68886   7.107   4.323   6.693  0.3636 -0.4130  0.5527
  511MOL0     C68887   7.121   4.365   6.548 -0.0753  0.4251 -0.9170
  511MOL0     C68888   7.223   4.475   6.537 -0.6293  0.3346  0.2696
  511MOL0     C68889   7.181   4.622   6.560  0.7832 -0.6471  0.0178
  511MOL0     C68890   7.314   4.703   6.551  0.1232 -0.3296 -0.7652
  511MOL0     C68891   7.302   4.842   6.609 -0.0815  0.9959 -0.3473
  511MOL0     C68892   7.421   4.919   6.584  0.3112  0.3702  0.1582
  511MOL0     C68893   7.446   5.027   6.683 -0.1801  0.0978  0.2011
  511MOL0    Cl68894   7.504   4.951   6.838 -0.3833 -0.0489  0.3465
  511MOL0     C68895   7.001   4.208   6.943 -1.8922 -0.5230 -0.0854
  511MOL0     C68896   6.978   4.140   7.066  0.0132  0.1108 -0.0499
  511MOL0     O68897   7.074   3.986   7.299 -0.1368 -1.1357 -0.8815
  511MOL0     C68898   6.962   3.911   7.553  0.0058 -0.9349  0.7846
  511MOL0     C68899   6.903   3.870   7.669 -0.7562 -0.2812 -0.6458
  511MOL0     N68900   6.382   3.397   8.098  0.2769 -0.2424 -0.2625
  511MOL0     N68901   6.382   3.271   8.097  0.5714 -0.9298  0.1337
  511MOL0     C68902   7.185   2.508   8.201  0.2566 -0.2000 -0.2209
  511MOL0     C68903   7.316   2.454   8.159  0.1436  0.1866  0.5075
  511MOL0     C68904   7.665   2.185   8.102  0.6695 -1.5569 -0.5669
  511MOL0     C68905   7.624   2.058   8.062 -0.3369 -0.3065 -0.2812
  511MOL0     C68906   7.700   1.944   8.079 -0.6320 -0.5160  0.5763
  511MOL0     C68907   7.821   1.953   8.156  0.4909 -0.4277 -0.4564
  511MOL0     O68908   7.903   1.847   8.183  0.5182  0.9127 -0.2342
  511MOL0     C68909   8.033   1.871   8.225  0.8100  0.8722 -0.4298
  511MOL0     C68910   8.117   1.748   8.216  0.4239  0.3470  0.3910
  511MOL0     C68911   8.102   1.676   8.077 -0.3150  1.0705  0.0878
  511MOL0     C68912   8.144   1.748   7.951 -0.4512 -0.2058  0.4699
  511MOL0     C68913   8.291   1.785   7.973  0.2828  0.0539  0.8314
  511MOL0     C68914   8.411   1.792   7.988  0.2646  0.4282  0.1544
  511MOL0     C68915   7.847   2.079   8.217  0.0294  0.4911  0.6738
  511MOL0     C68916   7.781   2.196   8.182 -0.9989  0.4820  0.5762
  511MOL0     C68917   7.824   2.323   8.242 -0.8897  0.1538  0.1308
  511MOL0     H68918   7.197   2.171   8.007 -1.2138 -1.0737  1.3658
  511MOL0     H68919   6.995   2.280   8.035  0.9843 -1.4594 -1.0034
  511MOL0     H68920   6.784   2.392   8.104  1.2466 -2.6505  0.0730
  511MOL0     H68921   6.861   2.292   8.234  3.9506  0.4695  0.9331
  511MOL0     H68922   6.743   2.446   8.398 -3.3469  0.5409  1.1861
  511MOL0     H68923   6.621   2.392   8.278 -1.6595  1.3526  0.0610
  511MOL0     H68924   6.712   2.621   8.161 -1.3566 -5.4940 -2.0811
  511MOL0     H68925   6.732   2.667   8.338 -2.7519 -0.2569  2.5389
  511MOL0     H68926   6.499   2.555   8.204 -0.2010 -0.5466  1.6590
  511MOL0     H68927   6.503   2.615   8.377 -2.3271 -0.3301 -0.3111
  511MOL0     H68928   6.501   2.781   8.128 -2.0102 -0.5832 -0.4068
  511MOL0     H68929   6.381   2.775   8.251 -0.9154  2.7291 -4.3559
  511MOL0     H68930   6.559   2.874   8.420 -0.4056  4.2802  0.7217
  511MOL0     H68931   6.664   2.883   8.268 -2.2145 -0.4200 -3.7088
  511MOL0     H68932   6.555   3.097   8.376  0.4452 -1.7368  0.6642
  511MOL0     H68933   6.408   3.034   8.297  0.7567 -1.2149  2.1840
  511MOL0     H68934   6.672   3.091   8.136 -0.9761  1.7265 -2.1971
  511MOL0     H68935   6.522   3.030   8.084 -2.5315 -2.0526  4.0408
  511MOL0     H68936   6.672   3.354   8.240  2.2730  0.0896 -2.0215
  511MOL0     H68937   6.437   3.664   8.132 -0.1183 -1.0205 -0.6776
  511MOL0     H68938   6.573   3.640   8.237  1.0059 -0.9430  0.0117
  511MOL0     H68939   6.692   3.575   8.005  2.8941  2.1445  0.3660
  511MOL0     H68940   6.546   3.630   7.928  3.1415  0.1384 -2.2996
  511MOL0     H68941   6.707   3.826   8.111  0.4840  3.5764 -2.1311
  511MOL0     H68942   6.579   3.865   8.005  1.6841  2.5037  2.8698
  511MOL0     H68943   6.848   3.749   7.909 -1.8717 -2.3300 -0.6032
  511MOL0     H68944   6.791   3.925   7.932 -4.5444  1.1158  3.7211
  511MOL0     H68945   6.576   3.831   7.560  0.5670  1.3807 -3.0124
  511MOL0     H68946   6.687   3.882   7.344  0.5570  0.1624  0.1801
  511MOL0     H68947   6.899   3.842   6.936  1.0047  0.0695 -0.9960
  511MOL0     H68948   6.957   3.959   6.724 -1.1130  1.8452 -1.1644
  511MOL0     H68949   7.036   4.392   6.739  0.3075  0.5645 -0.9193
  511MOL0     H68950   7.200   4.325   6.752  0.7906 -0.8639 -0.0811
  511MOL0     H68951   7.147   4.275   6.491 -1.1477 -0.6560  0.2315
  511MOL0     H68952   7.024   4.392   6.506 -0.3135 -0.3070 -0.8655
  511MOL0     H68953   7.302   4.460   6.612 -2.0142  2.1808  2.2053
  511MOL0     H68954   7.268   4.467   6.437 -1.8268 -0.1152 -0.2460
  511MOL0     H68955   7.145   4.631   6.663  0.9057 -0.4158  0.0403
  511MOL0     H68956   7.108   4.651   6.484  0.3858 -0.5477  0.4319
  511MOL0     H68957   7.341   4.688   6.446 -1.8572  1.2737 -1.5801
  511MOL0     H68958   7.394   4.654   6.607  1.9492  2.0152 -1.1552
  511MOL0     H68959   7.220   4.882   6.548 -0.2922  2.4434  0.8223
  511MOL0     H68960   7.286   4.831   6.716  0.5240 -1.3291 -0.4413
  511MOL0     H68961   7.405   4.963   6.485 -1.0716  1.2416  0.7205
  511MOL0     H68962   7.511   4.859   6.576  0.2491  0.3220 -0.1837
  511MOL0     H68963   7.525   5.094   6.648 -0.5634  1.6538  2.0937
  511MOL0     H68964   7.353   5.083   6.697 -1.1281 -0.5810 -2.8031
  511MOL0     H68965   7.032   4.312   6.938 -1.5414 -0.3127  3.5619
  511MOL0     H68966   6.988   4.209   7.149  2.2892  2.8129 -2.3626
  511MOL0     H68967   7.067   3.936   7.543 -0.2522 -0.3477 -0.6314
  511MOL0     H68968   6.972   3.863   7.752  0.6337  2.5750 -1.4482
  511MOL0     H68969   7.184   2.602   8.255  0.4534 -0.1165 -0.3601
  511MOL0     H68970   7.407   2.508   8.180 -1.0252  1.4076  2.8117
  511MOL0     H68971   7.537   2.038   8.000  0.2251  0.1076 -1.2201
  511MOL0     H68972   7.662   1.847   8.050 -1.1673 -0.7563  1.9771
  511MOL0     H68973   8.025   1.898   8.330 -1.2027 -0.0910 -0.2951
  511MOL0     H68974   8.080   1.949   8.165 -0.5131  0.7119 -1.7231
  511MOL0     H68975   8.099   1.678   8.297  1.1074  0.6658  0.8236
  511MOL0     H68976   8.221   1.780   8.224 -0.4684  3.4041  1.3193
  511MOL0     H68977   7.996   1.650   8.066 -0.5270  2.5701 -2.0854
  511MOL0     H68978   8.159   1.583   8.087 -0.8591  0.8866  1.7857
  511MOL0     H68979   8.153   1.677   7.867  0.4376 -1.3058  1.4583
  511MOL0     H68980   8.079   1.828   7.916  0.1800 -0.0357 -0.3579
  511MOL0     H68981   8.517   1.788   8.000  0.3204 -0.1060 -0.4463
  511MOL0     H68982   7.934   2.089   8.280 -0.8562  1.8336  1.7593
  511MOL0     H68983   7.780   2.409   8.191 -1.9348  0.5139  1.5865
  511MOL0     H68984   7.769   2.332   8.336  0.3980  3.2724  0.7028
  511MOL0     H68985   7.928   2.343   8.268 -0.8624 -0.4149  0.4908
  512MOL0     O68986   1.068   9.645   1.210  0.3631  1.2500 -1.0480
  512MOL0     C68987   1.130   9.742   1.170 -0.1258  0.4883  0.4013
  512MOL0     O68988   1.172   9.843   1.244 -0.1854  0.0190 -0.0788
  512MOL0     C68989   1.164   9.848   1.383 -0.0298 -0.6982  0.5233
  512MOL0     C68990   1.131   9.976   1.440 -0.1547 -0.2668  0.4620
  512MOL0     C68991   1.129   9.991   1.579 -1.7665  0.2197  0.9516
  512MOL0     C68992   1.142   9.879   1.663 -0.0512  1.5529  1.2060
  512MOL0     O68993   1.122   9.908   1.798 -1.1573  0.3829  1.3334
  512MOL0     C68994   1.094   9.801   1.887  0.3944 -0.1119  0.0774
  512MOL0     C68995   1.222   9.738   1.946 -0.2794 -0.0994  0.2553
  512MOL0     C68996   1.198   9.619   2.035 -0.1364  0.0555  0.2017
  512MOL0     C68997   1.122   9.666   2.166 -0.3999 -0.8140 -0.3475
  512MOL0     C68998   1.127   9.583   2.292 -0.0142 -0.4745  0.3601
  512MOL0     C68999   1.266   9.574   2.347  0.2904 -0.1023 -0.0160
  512MOL0     C69000   1.268   9.484   2.469  0.2691 -0.5996  0.1579
  512MOL0     C69001   1.191   9.549   2.586  0.1511  0.5721  0.8166
  512MOL0     N69002   1.248   9.679   2.622  0.6041 -0.0009 -0.4028
  512MOL0     C69003   1.371   9.693   2.670  0.1034  0.1793 -0.6421
  512MOL0     C69004   1.381   9.824   2.671 -0.6526  0.7863 -0.2868
  512MOL0     C69005   1.494   9.913   2.733  0.3099 -0.0036 -0.0031
  512MOL0     C69006   1.634   9.878   2.680  0.1026 -0.3501  0.1447
  512MOL0     C69007   1.650   9.905   2.532  0.8027 -0.5092  0.3852
  512MOL0     C69008   1.793   9.883   2.470 -0.9826  0.2709  0.5622
  512MOL0     O69009   1.835   9.742   2.476 -0.4415 -0.7456  0.5128
  512MOL0     C69010   1.766   9.632   2.437  0.3018 -0.9419 -0.1858
  512MOL0     C69011   1.663   9.647   2.339  0.2533 -0.1271 -0.6478
  512MOL0     C69012   1.587   9.544   2.294 -0.0762  0.3490 -0.1113
  512MOL0     C69013   1.608   9.407   2.357 -0.5333 -0.5436 -0.1988
  512MOL0     C69014   1.538   9.289   2.309 -0.2574 -0.9004 -1.6084
  512MOL0     O69015   1.455   9.311   2.206 -0.3865 -0.5994 -0.2828
  512MOL0     C69016   1.398   9.207   2.129  0.1960  0.1597  0.2408
  512MOL0     C69017   1.284   9.240   2.054 -0.1791  0.4611  0.0400
  512MOL0     C69018   1.235   9.149   1.959  1.1228  1.1640 -0.3728
  512MOL0     C69019   1.297   9.021   1.950  0.5147 -0.9899 -0.0028
  512MOL0     O69020   1.253   8.918   1.868 -0.5306  0.1730  0.3882
  512MOL0     C69021   1.222   8.941   1.726  0.3800  0.8943 -0.3255
  512MOL0     C69022   1.121   8.843   1.693  0.9670 -0.2737  0.4127
  512MOL0     C69023   0.980   8.886   1.749 -0.7570  0.7112 -0.0601
  512MOL0     C69024   0.912   8.770   1.822  0.0206  0.5527  0.4449
  512MOL0     C69025   0.758   8.771   1.834 -0.2486  0.0173 -0.9450
  512MOL0     C69026   0.719   8.875   1.940  0.5085 -0.5087  0.0677
  512MOL0     C69027   0.574   8.856   1.994 -0.8066 -0.5476  0.5628
  512MOL0     C69028   0.546   8.947   2.103 -0.4352 -0.3507  0.1606
  512MOL0    Cl69029   0.373   8.957   2.133  0.1810 -0.2624 -0.0164
  512MOL0     C69030   1.409   8.993   2.026  0.6092  0.0842  0.4300
  512MOL0     C69031   1.466   9.092   2.107  0.3815  0.9066 -0.3833
  512MOL0     O69032   1.551   9.187   2.372 -0.3629  0.5072  0.7973
  512MOL0     C69033   1.712   9.396   2.460  0.1191  0.0209  0.1128
  512MOL0     C69034   1.780   9.515   2.504  0.3273  0.6624 -0.5570
  512MOL0     N69035   1.288   9.888   2.607 -0.0631 -0.3065 -0.0438
  512MOL0     N69036   1.203   9.798   2.570  0.3674  0.5187 -0.5855
  512MOL0     C69037   1.177   9.751   1.603  0.1311 -0.2944 -0.0344
  512MOL0     C69038   1.187   9.739   1.467 -0.8992  0.3775 -0.3427
  512MOL0     C69039   1.141   9.746   1.019 -0.8319  0.6136 -0.4878
  512MOL0     C69040   1.135   9.625   0.957  0.1185  0.5444  0.5357
  512MOL0     C69041   1.154   9.615   0.815  0.0444 -0.0398 -0.4589
  512MOL0     C69042   1.192   9.724   0.745 -0.4152 -0.3806  0.3481
  512MOL0     O69043   1.216   9.722   0.611 -0.3540 -0.6774  0.6178
  512MOL0     C69044   1.339   9.673   0.565 -0.8276  0.0489 -0.1924
  512MOL0     C69045   1.441   9.790   0.552  1.2570  0.6276  0.1142
  512MOL0     C69046   1.588   9.757   0.596  0.5763 -0.3465  0.3927
  512MOL0     C69047   1.641   9.624   0.540 -0.5899  0.9079  1.0328
  512MOL0     C69048   1.679   9.631   0.394 -0.6134  0.0361  0.0350
  512MOL0     C69049   1.701   9.641   0.273  0.0946  0.3973  0.1922
  512MOL0     C69050   1.204   9.851   0.800 -0.0223  0.7001 -0.2069
  512MOL0     C69051   1.173   9.861   0.941  0.0844  0.0801  0.1636
  512MOL0     C69052   1.203   9.997   0.990  0.4875 -0.2642 -0.0821
  512MOL0     H69053   1.110  10.068   1.386 -0.9657  0.6526  2.2635
  512MOL0     H69054   1.106  10.086   1.627  0.1071  1.1829  0.0486
  512MOL0     H69055   1.038   9.851   1.967  0.3925  0.9606 -0.5656
  512MOL0     H69056   1.036   9.716   1.850  1.6609 -0.5472 -1.0063
  512MOL0     H69057   1.275   9.822   1.992  1.5072 -0.6255 -0.7487
  512MOL0     H69058   1.280   9.688   1.868 -2.4282 -0.4737 -1.2026
  512MOL0     H69059   1.294   9.569   2.050 -0.4190 -0.5644 -0.0628
  512MOL0     H69060   1.146   9.538   1.984  1.3590 -0.5663 -0.3881
  512MOL0     H69061   1.139   9.773   2.182 -1.1116 -1.0288  2.3058
  512MOL0     H69062   1.016   9.654   2.141 -0.4873 -1.0534  0.1266
  512MOL0     H69063   1.050   9.626   2.357 -1.0779  1.8789 -2.2654
  512MOL0     H69064   1.102   9.479   2.270  1.8467 -0.8624 -0.1354
  512MOL0     H69065   1.321   9.523   2.267  1.1902  1.0200 -0.1464
  512MOL0     H69066   1.312   9.667   2.381  1.5211 -1.5300  2.5350
  512MOL0     H69067   1.373   9.469   2.494  0.2226 -0.2566  0.5539
  512MOL0     H69068   1.217   9.388   2.454  1.8584 -2.2891  4.2513
  512MOL0     H69069   1.085   9.566   2.565  1.1105  3.4191 -2.6170
  512MOL0     H69070   1.187   9.481   2.672 -1.9656 -0.8501 -0.3178
  512MOL0     H69071   1.437   9.619   2.714  1.9418  1.8572 -0.4340
  512MOL0     H69072   1.476  10.019   2.711 -1.1245 -0.5298 -1.6002
  512MOL0     H69073   1.496   9.899   2.841  0.3664 -1.0310 -0.1263
  512MOL0     H69074   1.716   9.934   2.726 -0.1978 -0.8994  1.4077
  512MOL0     H69075   1.648   9.774   2.708 -2.5695  0.1748  4.4191
  512MOL0     H69076   1.634  10.010   2.503 -0.8976 -1.4287 -2.4571
  512MOL0     H69077   1.578   9.837   2.485  1.4162 -2.6661  2.4022
  512MOL0     H69078   1.864   9.941   2.529 -0.7569 -0.4971  1.0592
  512MOL0     H69079   1.803   9.925   2.369 -0.6007  3.6129  1.8768
  512MOL0     H69080   1.648   9.739   2.283 -0.0536 -2.2407 -4.3891
  512MOL0     H69081   1.525   9.562   2.207  0.6999  6.2399  0.2025
  512MOL0     H69082   1.241   9.338   2.070  1.5221  1.2136  0.2006
  512MOL0     H69083   1.149   9.160   1.893  1.4804  0.0209 -1.0488
  512MOL0     H69084   1.184   9.044   1.719  0.4498  1.2943  3.3078
  512MOL0     H69085   1.305   8.933   1.655  0.2823  0.5115 -0.3953
  512MOL0     H69086   1.119   8.836   1.584  2.8383  1.1157  0.2248
  512MOL0     H69087   1.156   8.749   1.739  1.5306  1.3891  3.7122
  512MOL0     H69088   0.991   8.971   1.818  0.6859 -0.2941  0.9987
  512MOL0     H69089   0.926   8.926   1.662  0.2373  0.8541 -0.6303
  512MOL0     H69090   0.950   8.765   1.924  2.3286 -0.3676 -0.3983
  512MOL0     H69091   0.934   8.673   1.775  1.7071  1.5319 -0.9071
  512MOL0     H69092   0.725   8.674   1.870  1.7830 -0.3178  0.1613
  512MOL0     H69093   0.705   8.796   1.742 -3.7584 -1.5202  0.4849
  512MOL0     H69094   0.788   8.877   2.025 -0.9133  2.5309  1.2828
  512MOL0     H69095   0.728   8.971   1.889 -0.2512  0.1081  1.0553
  512MOL0     H69096   0.579   8.752   2.027  0.6032 -0.4937  0.5855
  512MOL0     H69097   0.517   8.882   1.904  0.5639  1.9040  0.3099
  512MOL0     H69098   0.602   8.906   2.188  1.1626  2.8428  0.8119
  512MOL0     H69099   0.583   9.050   2.093 -2.2158  0.2519 -0.6240
  512MOL0     H69100   1.471   8.905   2.011  0.3248  0.2313 -1.9879
  512MOL0     H69101   1.560   9.069   2.155  1.7220  0.8822 -2.8704
  512MOL0     H69102   1.737   9.308   2.519  0.0611 -0.4271 -0.5222
  512MOL0     H69103   1.850   9.516   2.587 -0.1681 -0.5740 -0.0903
  512MOL0     H69104   1.193   9.664   1.666 -1.3887  1.9169  3.7802
  512MOL0     H69105   1.214   9.642   1.427 -0.5038 -0.2313  1.3230
  512MOL0     H69106   1.129   9.535   1.017  0.8096  1.1102  1.4908
  512MOL0     H69107   1.154   9.522   0.759  4.7332  0.3108 -1.4810
  512MOL0     H69108   1.333   9.610   0.476 -0.3920 -2.4737  1.4419
  512MOL0     H69109   1.383   9.619   0.650 -0.1788  0.8981  0.0180
  512MOL0     H69110   1.406   9.871   0.616  1.1285 -0.3672  1.3501
  512MOL0     H69111   1.453   9.823   0.448  1.7738 -1.1784 -0.4361
  512MOL0     H69112   1.587   9.760   0.705  5.3635 -3.7639  0.7982
  512MOL0     H69113   1.633   9.849   0.559  0.6752 -1.1584 -1.6788
  512MOL0     H69114   1.730   9.589   0.592  0.6119 -3.1438 -3.0652
  512MOL0     H69115   1.580   9.533   0.547 -0.5443  0.8620  0.8578
  512MOL0     H69116   1.728   9.663   0.172  2.6856  1.7211  1.0628
  512MOL0     H69117   1.238   9.940   0.747 -0.2907 -0.5002 -2.5628
  512MOL0     H69118   1.167  10.021   1.090  0.1992  1.3335 -0.5396
  512MOL0     H69119   1.312  10.004   0.982  0.4800 -0.8169 -0.8242
  512MOL0     H69120   1.178  10.079   0.922  0.4605  0.4834  0.8092
  513MOL0     O69121   7.665   0.872   3.127  0.3387 -0.5668 -0.1483
  513MOL0     C69122   7.743   0.801   3.073 -0.4628  0.0835 -0.3520
  513MOL0     O69123   7.880   0.813   3.079  0.2516  0.4304 -0.7563
  513MOL0     C69124   7.935   0.927   3.127 -0.7791  0.0067  0.4658
  513MOL0     C69125   7.884   1.050   3.100  0.6989 -0.9776  0.9788
  513MOL0     C69126   7.949   1.169   3.130 -0.0143  0.4294 -0.4051
  513MOL0     C69127   8.075   1.163   3.180 -0.4434 -0.2014 -0.5169
  513MOL0     O69128   8.140   1.281   3.199  0.2891 -0.9242 -0.2180
  513MOL0     C69129   8.273   1.275   3.237 -0.4835 -0.0968 -1.3132
  513MOL0     C69130   8.332   1.417   3.247  0.3572  0.3259  0.9108
  513MOL0     C69131   8.288   1.501   3.363  0.5631 -0.5363  0.1039
  513MOL0     C69132   8.135   1.538   3.381 -0.7543  0.0819 -0.3110
  513MOL0     C69133   8.101   1.593   3.519  0.1609  0.3151  0.5983
  513MOL0     C69134   8.164   1.727   3.559 -0.1410 -0.0292 -0.3672
  513MOL0     C69135   8.099   1.775   3.702 -0.1717 -0.6476  0.0846
  513MOL0     C69136   8.156   1.922   3.736 -0.6131 -0.1611  1.1472
  513MOL0     N69137   8.301   1.928   3.759 -0.6118 -1.3370 -0.7355
  513MOL0     C69138   8.396   1.959   3.662 -0.6411  0.2027 -0.3727
  513MOL0     C69139   8.519   1.917   3.710 -0.4369  0.8064 -0.6471
  513MOL0     C69140   8.641   1.937   3.636  0.2714  0.1438 -0.3417
  513MOL0     C69141   8.676   1.799   3.562  0.3011 -0.0337 -0.1005
  513MOL0     C69142   8.607   1.772   3.431 -0.4995  0.1259  0.0224
  513MOL0     C69143   8.666   1.649   3.366 -0.1085 -0.6983  0.7057
  513MOL0     O69144   8.636   1.647   3.224  0.9433  0.3741 -0.0951
  513MOL0     C69145   8.705   1.710   3.129 -0.6281 -0.8789  0.9184
  513MOL0     C69146   8.821   1.783   3.161  0.0162 -1.4569 -0.1035
  513MOL0     C69147   8.886   1.863   3.060  0.2393  0.0747  0.5473
  513MOL0     C69148   8.831   1.869   2.928 -0.9092 -0.5003 -0.2028
  513MOL0     C69149   8.905   1.953   2.820 -0.0004 -0.4430  0.0331
  513MOL0     O69150   8.847   1.982   2.705 -0.1023 -0.3732 -0.3919
  513MOL0     C69151   8.908   2.059   2.614  1.0135 -0.1215  0.0110
  513MOL0     C69152   8.849   2.185   2.601 -0.5132  0.2358  0.1793
  513MOL0     C69153   8.922   2.277   2.527  0.1588  0.1869  0.4932
  513MOL0     C69154   9.039   2.249   2.461  0.1805 -0.5902  0.1602
  513MOL0     O69155   9.090   2.360   2.405 -0.5633 -0.1849 -0.3575
  513MOL0     C69156   9.237   2.367   2.421 -0.2621  0.6163  0.0946
  513MOL0     C69157   9.290   2.495   2.372 -0.1296 -0.1681  0.6201
  513MOL0     C69158   9.433   2.519   2.431  0.1761  0.1421  0.3209
  513MOL0     C69159   9.516   2.638   2.372  0.0676 -0.3085 -0.0300
  513MOL0     C69160   9.558   2.615   2.231  0.7342  0.2126 -0.3469
  513MOL0     C69161   9.621   2.738   2.171  1.0666 -0.8867  0.5296
  513MOL0     C69162   9.672   2.715   2.026 -0.7550 -0.0777 -0.4107
  513MOL0     C69163   9.769   2.824   1.976  0.7775 -0.3751  0.4016
  513MOL0    Cl69164   9.924   2.802   2.044 -0.4418  0.5744 -0.2242
  513MOL0     C69165   9.090   2.119   2.460  0.0044  0.4205 -0.5253
  513MOL0     C69166   9.029   2.022   2.552  0.4315 -0.1067 -0.4253
  513MOL0     O69167   9.007   2.013   2.864  0.3318  0.5268 -0.0487
  513MOL0     C69168   8.726   1.789   2.891 -0.7269  0.1021 -0.0278
  513MOL0     C69169   8.655   1.719   2.996  0.3913 -0.1660 -0.1343
  513MOL0     N69170   8.497   1.847   3.828 -0.9047  0.1045  0.8647
  513MOL0     N69171   8.370   1.853   3.851  0.1560  0.0509 -0.3241
  513MOL0     C69172   8.126   1.035   3.212 -0.6839 -0.3033  0.8079
  513MOL0     C69173   8.050   0.920   3.193  0.0113 -1.4062 -0.2093
  513MOL0     C69174   7.690   0.672   3.005  0.1424  1.1300 -0.8334
  513MOL0     C69175   7.792   0.577   2.969  0.3253  0.7265  0.9634
  513MOL0     C69176   7.754   0.448   2.937  0.0715  0.5071  0.8313
  513MOL0     C69177   7.623   0.405   2.916 -0.9525 -0.8715  0.3646
  513MOL0     O69178   7.598   0.279   2.879  0.4995  0.3619 -0.1183
  513MOL0     C69179   7.473   0.214   2.896  0.4409  0.4312 -0.0209
  513MOL0     C69180   7.468   0.079   2.841 -0.5307  1.1212  1.0146
  513MOL0     C69181   7.542  -0.024   2.921 -0.6030 -0.1568 -0.1192
  513MOL0     C69182   7.690   0.018   2.937  0.0121  0.0653 -0.8922
  513MOL0     C69183   7.770  -0.103   2.986  0.7119 -0.4347  0.8537
  513MOL0     C69184   7.822  -0.202   3.031  0.6214  0.0057 -0.7235
  513MOL0     C69185   7.523   0.505   2.944  0.3202 -1.0578  0.5675
  513MOL0     C69186   7.552   0.630   2.998 -0.4523 -0.4262  0.6102
  513MOL0     C69187   7.433   0.718   3.034 -0.5695  0.4796  0.9146
  513MOL0     H69188   7.797   1.056   3.035  1.9572 -0.9838 -0.7853
  513MOL0     H69189   7.899   1.264   3.117 -3.6062 -1.4395 -1.5062
  513MOL0     H69190   8.292   1.231   3.335  0.3778  3.4070  0.2501
  513MOL0     H69191   8.340   1.224   3.168  1.2182 -0.9186  0.8552
  513MOL0     H69192   8.337   1.469   3.150  2.2741 -0.1751  0.6898
  513MOL0     H69193   8.440   1.400   3.256  0.5178 -0.9769 -2.1153
  513MOL0     H69194   8.353   1.589   3.371  2.5749 -2.0600  1.6687
  513MOL0     H69195   8.324   1.458   3.457 -0.0107  1.4014  1.2615
  513MOL0     H69196   8.112   1.614   3.307 -4.2440 -0.8304 -0.3211
  513MOL0     H69197   8.074   1.448   3.369  0.0511 -1.0710  3.0389
  513MOL0     H69198   7.993   1.610   3.519  0.0325 -0.0225 -2.2473
  513MOL0     H69199   8.126   1.517   3.593 -1.1214 -1.9389 -1.1584
  513MOL0     H69200   8.271   1.709   3.568 -0.1364  0.9297  2.1925
  513MOL0     H69201   8.151   1.803   3.480 -3.5038  0.4762  0.5227
  513MOL0     H69202   8.127   1.711   3.786  0.0256 -2.3686 -1.2284
  513MOL0     H69203   7.991   1.781   3.687 -0.0307  2.4938 -0.3348
  513MOL0     H69204   8.129   1.984   3.650  1.1638  1.0318  1.3843
  513MOL0     H69205   8.110   1.955   3.829 -1.7973 -0.4977  0.6993
  513MOL0     H69206   8.382   1.992   3.560  3.5625  2.2733 -0.4930
  513MOL0     H69207   8.637   2.009   3.554  0.1564 -2.7817 -3.1143
  513MOL0     H69208   8.725   1.970   3.698  0.3651 -0.3295 -0.2080
  513MOL0     H69209   8.777   1.801   3.520  0.7453  0.1817  0.9513
  513MOL0     H69210   8.686   1.717   3.634 -1.4734 -1.0271 -0.9284
  513MOL0     H69211   8.620   1.858   3.364  0.8445  0.2811  0.4639
  513MOL0     H69212   8.501   1.745   3.440 -0.8863  1.5710  0.0097
  513MOL0     H69213   8.615   1.564   3.413 -1.2769 -1.2360 -1.4245
  513MOL0     H69214   8.772   1.644   3.394 -0.0549 -1.2794  0.4170
  513MOL0     H69215   8.863   1.770   3.261 -1.3015 -0.9945  0.5408
  513MOL0     H69216   8.987   1.897   3.078  1.8408 -3.2325 -1.2389
  513MOL0     H69217   8.756   2.206   2.653 -0.4694  0.1281  0.3012
  513MOL0     H69218   8.881   2.377   2.525  1.3076  0.6846 -1.7427
  513MOL0     H69219   9.261   2.358   2.528  1.8890  0.9608 -0.3090
  513MOL0     H69220   9.280   2.285   2.362 -2.6504  1.1764 -2.6315
  513MOL0     H69221   9.298   2.477   2.264  2.0270  0.0100  0.7114
  513MOL0     H69222   9.231   2.586   2.385  1.1536  0.9155 -0.6810
  513MOL0     H69223   9.407   2.544   2.534  2.6812 -0.4601  1.1566
  513MOL0     H69224   9.483   2.422   2.425 -0.4152 -0.7376  5.3575
  513MOL0     H69225   9.602   2.659   2.436 -0.1312  3.4468 -0.7649
  513MOL0     H69226   9.463   2.734   2.379 -4.1986 -2.4929  1.0680
  513MOL0     H69227   9.469   2.583   2.176  1.2135 -2.8944  0.5238
  513MOL0     H69228   9.634   2.537   2.231  1.1985  0.5394 -3.4752
  513MOL0     H69229   9.539   2.810   2.172 -0.3229 -2.4247  1.3775
  513MOL0     H69230   9.698   2.785   2.232  1.2087 -0.7271  0.2336
  513MOL0     H69231   9.581   2.708   1.965 -1.3812 -1.4838  0.6229
  513MOL0     H69232   9.733   2.624   2.027 -1.2601 -0.5033  3.2774
  513MOL0     H69233   9.785   2.821   1.867  0.7753 -0.5651  0.4061
  513MOL0     H69234   9.728   2.923   2.001 -2.8899 -2.3948  3.2261
  513MOL0     H69235   9.172   2.082   2.400 -1.2363  0.3305 -2.2478
  513MOL0     H69236   9.066   1.920   2.560 -0.8713 -0.5124  0.8844
  513MOL0     H69237   8.687   1.784   2.790 -0.5690  2.0528 -0.2172
  513MOL0     H69238   8.564   1.666   2.969 -1.3241  1.1042  2.7066
  513MOL0     H69239   8.229   1.023   3.246 -1.2278 -0.3804  2.5234
  513MOL0     H69240   8.095   0.822   3.210 -1.9153 -1.9558  2.1994
  513MOL0     H69241   7.895   0.610   2.966  1.2234 -1.8847  0.9655
  513MOL0     H69242   7.832   0.377   2.909  1.4158  2.4647 -0.6086
  513MOL0     H69243   7.390   0.265   2.845  0.0158  0.4788  0.6940
  513MOL0     H69244   7.433   0.210   2.998 -0.5998  0.7002 -0.4076
  513MOL0     H69245   7.510   0.075   2.740  1.9241 -3.1459  1.9738
  513MOL0     H69246   7.361   0.056   2.835 -0.8432  1.8994  2.6660
  513MOL0     H69247   7.537  -0.128   2.886  0.2809 -0.6201  1.0600
  513MOL0     H69248   7.508  -0.022   3.025  0.6882  0.3892  0.3256
  513MOL0     H69249   7.730   0.050   2.841  1.5977 -1.0254 -0.6389
  513MOL0     H69250   7.698   0.095   3.014 -0.3116  0.8943 -1.6782
  513MOL0     H69251   7.870  -0.285   3.079  0.8082  1.7638  2.4003
  513MOL0     H69252   7.416   0.497   2.928  0.5726  1.1507 -3.7472
  513MOL0     H69253   7.343   0.660   3.010 -0.4307  0.3592  0.6811
  513MOL0     H69254   7.434   0.742   3.141 -1.2077  1.9200  0.6179
  513MOL0     H69255   7.443   0.813   2.981  0.5120 -0.7570 -1.2260
  514MOL0     O69256   4.763   5.637  10.440 -0.1430  0.0371  0.0984
  514MOL0     C69257   4.849   5.591  10.518  0.1122 -0.2730 -0.2459
  514MOL0     O69258   4.855   5.456  10.545 -0.3564 -0.6095 -0.5346
  514MOL0     C69259   4.779   5.371  10.473  0.2748 -0.2345  0.3054
  514MOL0     C69260   4.689   5.286  10.536  0.1311 -0.3588 -0.1611
  514MOL0     C69261   4.627   5.193  10.457  0.2155  0.3610  0.4261
  514MOL0     C69262   4.662   5.159  10.324 -0.2645  0.6034  0.6731
  514MOL0     O69263   4.602   5.054  10.258  0.1979  0.8439  0.4911
  514MOL0     C69264   4.666   5.012  10.133  0.3172 -0.3431 -0.5922
  514MOL0     C69265   4.591   4.891  10.088  0.1002 -0.9876 -0.4082
  514MOL0     C69266   4.578   4.873   9.927  0.2020  0.0067 -0.6489
  514MOL0     C69267   4.535   4.728   9.891  0.1775  0.6391 -0.2928
  514MOL0     C69268   4.463   4.704   9.759  0.2874  0.4395  0.0326
  514MOL0     C69269   4.437   4.562   9.709 -0.7260 -0.7612 -0.0365
  514MOL0     C69270   4.566   4.468   9.690 -0.1022 -0.2827  1.5177
  514MOL0     C69271   4.655   4.505   9.576 -0.0066 -0.1143 -0.2742
  514MOL0     N69272   4.586   4.503   9.449  0.7093  0.2386  0.5188
  514MOL0     C69273   4.519   4.397   9.383 -0.3355  0.2270 -0.4119
  514MOL0     C69274   4.466   4.457   9.274  0.0789 -0.9709  0.1162
  514MOL0     C69275   4.384   4.398   9.156 -0.7345  0.4408  0.3330
  514MOL0     C69276   4.478   4.315   9.059  0.4053  0.6078  0.9746
  514MOL0     C69277   4.396   4.257   8.940  0.2727 -0.5335 -0.0473
  514MOL0     C69278   4.315   4.360   8.855  0.0257 -1.1163  1.1234
  514MOL0     O69279   4.364   4.368   8.722  0.0154 -0.3266 -0.1629
  514MOL0     C69280   4.316   4.283   8.624  0.7708 -0.7245  0.0169
  514MOL0     C69281   4.329   4.339   8.498 -0.7191 -0.1815 -0.4404
  514MOL0     C69282   4.250   4.278   8.389  0.5608 -0.6092  0.0991
  514MOL0     C69283   4.177   4.165   8.409 -0.2143  0.0145 -0.0057
  514MOL0     C69284   4.090   4.116   8.300 -1.2585 -0.0933  0.0123
  514MOL0     O69285   4.095   4.184   8.183 -0.5179  0.1360 -0.0660
  514MOL0     C69286   4.005   4.141   8.087  0.2302  0.4714  0.2527
  514MOL0     C69287   4.043   4.053   7.987 -0.4949  0.1220 -0.1742
  514MOL0     C69288   3.955   4.029   7.886 -0.3972 -0.4546 -1.3893
  514MOL0     C69289   3.821   4.077   7.892 -0.8726  0.0332 -0.7899
  514MOL0     O69290   3.725   4.040   7.809 -0.0040  0.2423  0.5447
  514MOL0     C69291   3.759   3.985   7.689  0.1199 -0.5260  0.2891
  514MOL0     C69292   3.636   3.986   7.596 -0.3558  0.0283  0.0902
  514MOL0     C69293   3.690   3.927   7.463 -0.6257  0.3554 -0.1275
  514MOL0     C69294   3.582   3.863   7.380 -0.2284  0.2703  1.6171
  514MOL0     C69295   3.512   3.752   7.456 -0.2491  0.8155 -0.0072
  514MOL0     C69296   3.413   3.663   7.369 -0.0278 -0.1479 -0.3613
  514MOL0     C69297   3.502   3.552   7.294 -0.7245 -0.3676  0.0155
  514MOL0     C69298   3.411   3.443   7.225 -0.0992 -0.2080  0.4909
  514MOL0    Cl69299   3.340   3.335   7.349  0.1443  0.1508 -0.0402
  514MOL0     C69300   3.777   4.151   8.000 -0.3851  0.7441 -0.0031
  514MOL0     C69301   3.875   4.185   8.093  0.3215 -0.1715 -0.5687
  514MOL0     O69302   4.021   4.017   8.324 -0.1110 -0.3721 -0.2993
  514MOL0     C69303   4.164   4.111   8.537  0.0646  0.0379 -0.2975
  514MOL0     C69304   4.225   4.173   8.648 -0.0489 -0.7125 -0.2093
  514MOL0     N69305   4.506   4.588   9.265  0.3117 -0.2060  0.5174
  514MOL0     N69306   4.567   4.615   9.376  0.0032  0.2777  0.2948
  514MOL0     C69307   4.760   5.242  10.265  0.8196  0.3899  0.0212
  514MOL0     C69308   4.819   5.348  10.337  0.1835  0.0955 -0.7703
  514MOL0     C69309   4.956   5.678  10.581  0.8034  0.0709  0.3021
  514MOL0     C69310   4.934   5.814  10.598 -0.1294  0.5959 -0.3630
  514MOL0     C69311   5.019   5.887  10.683  1.3241 -0.2548 -0.3696
  514MOL0     C69312   5.138   5.829  10.727 -0.2365 -0.3789 -0.5864
  514MOL0     O69313   5.221   5.914  10.803  0.4060 -0.6557  0.3820
  514MOL0     C69314   5.353   5.886  10.860  0.0884  0.9923 -0.2626
  514MOL0     C69315   5.419   6.009  10.926  0.7242  0.1586 -0.5339
  514MOL0     C69316   5.432   6.120  10.818 -0.4396 -0.8452  0.6240
  514MOL0     C69317   5.494   6.251  10.871 -0.0285 -0.0233  0.1603
  514MOL0     C69318   5.521   6.362  10.775 -0.6309 -0.1238  0.7056
  514MOL0     C69319   5.543   6.437  10.679  0.6190 -0.1853  0.0440
  514MOL0     C69320   5.173   5.701  10.690 -0.3155  0.0873 -0.8662
  514MOL0     C69321   5.086   5.628  10.619  0.6846  0.4644 -0.0634
  514MOL0     C69322   5.121   5.483  10.588 -1.0323 -0.1759  0.5987
  514MOL0     H69323   4.656   5.297  10.638 -0.7949  3.4958 -0.7219
  514MOL0     H69324   4.544   5.145  10.508  1.7469  0.7326  3.4727
  514MOL0     H69325   4.662   5.085  10.052  0.2684  0.4945  0.1444
  514MOL0     H69326   4.772   4.989  10.146  0.1300  0.5345  4.8205
  514MOL0     H69327   4.499   4.887  10.147 -0.7777  0.1089 -1.6511
  514MOL0     H69328   4.659   4.809  10.115  0.7677 -0.3149  0.0114
  514MOL0     H69329   4.669   4.889   9.868 -0.6746 -0.3579 -2.1617
  514MOL0     H69330   4.504   4.942   9.883  1.0616  0.5316 -1.2893
  514MOL0     H69331   4.611   4.652   9.910 -0.4817  0.3245  1.3079
  514MOL0     H69332   4.458   4.696   9.962  1.7176 -0.8556  0.7907
  514MOL0     H69333   4.366   4.755   9.752  0.4026  0.4236 -3.1263
  514MOL0     H69334   4.517   4.745   9.673  0.8892  0.6327  0.4951
  514MOL0     H69335   4.375   4.504   9.778  0.5420 -0.1982  1.6603
  514MOL0     H69336   4.385   4.577   9.614 -1.0025 -0.4343  0.1669
  514MOL0     H69337   4.540   4.364   9.668 -1.0952  0.5193 -1.5768
  514MOL0     H69338   4.613   4.464   9.788 -1.4633 -0.8889  2.1649
  514MOL0     H69339   4.700   4.604   9.585  0.7604 -0.4100 -0.7556
  514MOL0     H69340   4.738   4.434   9.572 -1.3000 -1.7159  0.1201
  514MOL0     H69341   4.511   4.299   9.429  0.6739  0.8679  1.2376
  514MOL0     H69342   4.296   4.351   9.201  0.1277 -0.9733  0.6060
  514MOL0     H69343   4.334   4.486   9.116  0.4613  1.7806  1.6827
  514MOL0     H69344   4.555   4.385   9.025 -2.3971  2.6257 -1.8089
  514MOL0     H69345   4.524   4.233   9.115  0.7850  1.0407  1.3099
  514MOL0     H69346   4.330   4.177   8.975  2.1576 -2.7309 -1.2179
  514MOL0     H69347   4.465   4.202   8.875 -0.1492 -2.0565  0.7522
  514MOL0     H69348   4.314   4.454   8.911 -0.9823 -1.2944  1.4116
  514MOL0     H69349   4.208   4.339   8.851 -0.2645  0.3908 -1.3174
  514MOL0     H69350   4.394   4.423   8.477  0.5257 -1.3964 -1.6417
  514MOL0     H69351   4.248   4.318   8.288  0.9521 -1.7657 -0.3814
  514MOL0     H69352   4.147   4.021   7.977 -0.2662  0.8628 -0.2123
  514MOL0     H69353   3.988   3.971   7.801  0.3481 -2.4668  0.1952
  514MOL0     H69354   3.839   4.044   7.643 -2.4071  1.2987 -2.0725
  514MOL0     H69355   3.794   3.884   7.712 -0.3939 -0.3483  1.9984
  514MOL0     H69356   3.563   3.921   7.646 -0.5773 -0.7469 -1.2113
  514MOL0     H69357   3.598   4.087   7.579  2.5387  1.1722 -0.1188
  514MOL0     H69358   3.750   4.002   7.411 -1.5434 -0.3265 -2.3123
  514MOL0     H69359   3.757   3.841   7.475 -2.9895 -1.6658 -0.5174
  514MOL0     H69360   3.618   3.824   7.284 -1.3991  1.6274  0.5776
  514MOL0     H69361   3.505   3.935   7.351 -0.3720 -0.1484  0.9396
  514MOL0     H69362   3.449   3.794   7.534  2.9180  2.9597  1.6165
  514MOL0     H69363   3.588   3.694   7.509 -0.9651 -1.9066 -1.7702
  514MOL0     H69364   3.362   3.607   7.448  0.5385  2.0520  1.6655
  514MOL0     H69365   3.341   3.723   7.313 -0.4995  2.1399  2.4640
  514MOL0     H69366   3.564   3.502   7.368 -1.3783  1.2589  1.7339
  514MOL0     H69367   3.560   3.603   7.216  1.2158  0.2527  1.7797
  514MOL0     H69368   3.335   3.488   7.161  0.6160 -4.4973 -3.9838
  514MOL0     H69369   3.479   3.396   7.153  0.3400  1.2909 -0.1090
  514MOL0     H69370   3.675   4.180   8.021  0.0650  0.7670  2.5344
  514MOL0     H69371   3.848   4.256   8.171  1.0109 -0.9503  0.3975
  514MOL0     H69372   4.093   4.032   8.561 -2.1599  1.8795 -0.5075
  514MOL0     H69373   4.190   4.132   8.742  0.0901  1.7368  0.9914
  514MOL0     H69374   4.802   5.218  10.168  1.9263  0.4826  0.4549
  514MOL0     H69375   4.893   5.417  10.297  0.6006 -0.2135 -0.5532
  514MOL0     H69376   4.833   5.854  10.586 -0.1699  0.1398 -1.7667
  514MOL0     H69377   5.000   5.989  10.714  0.5868 -0.3380 -0.5272
  514MOL0     H69378   5.430   5.840  10.797  3.0696  1.0493  3.0636
  514MOL0     H69379   5.327   5.810  10.934 -0.2516 -1.9739 -3.1692
  514MOL0     H69380   5.512   5.994  10.982 -1.9645 -0.4571  4.2936
  514MOL0     H69381   5.343   6.030  11.003 -0.9315 -3.8696 -0.8406
  514MOL0     H69382   5.326   6.134  10.796 -0.4652 -0.4416  0.9769
  514MOL0     H69383   5.485   6.074  10.734 -1.5965 -0.2183 -0.4826
  514MOL0     H69384   5.434   6.299  10.949  0.3749 -1.5850  1.4839
  514MOL0     H69385   5.588   6.237  10.925  0.4960  1.3826 -0.3448
  514MOL0     H69386   5.572   6.494  10.592 -0.4854  1.3902  0.6662
  514MOL0     H69387   5.272   5.664  10.716 -0.2777 -0.2114 -1.4227
  514MOL0     H69388   5.072   5.408  10.652  0.1791 -0.3883  1.2951
  514MOL0     H69389   5.094   5.464  10.484 -1.6276  1.1798  0.4764
  514MOL0     H69390   5.229   5.467  10.587 -0.9059 -0.3768 -3.7769
  515MOL0     O69391   7.221   6.215   2.093 -0.0524  0.2149 -0.3479
  515MOL0     C69392   7.129   6.287   2.055  0.1855  0.6086 -0.5777
  515MOL0     O69393   7.007   6.293   2.118 -0.0631  0.2980 -0.2062
  515MOL0     C69394   6.974   6.181   2.198  0.5934  0.0416 -0.6907
  515MOL0     C69395   6.893   6.201   2.312  0.3246  0.6865  0.0880
  515MOL0     C69396   6.861   6.087   2.400  1.1169 -0.5001  0.5559
  515MOL0     C69397   6.905   5.959   2.375 -0.0962 -0.2229 -0.1361
  515MOL0     O69398   6.888   5.846   2.453  0.5607  0.1320  0.6035
  515MOL0     C69399   6.762   5.836   2.524 -0.2172  0.7067  0.7541
  515MOL0     C69400   6.742   5.693   2.548 -0.3268  0.3201  0.2009
  515MOL0     C69401   6.681   5.624   2.424  1.0491  0.1244 -0.1554
  515MOL0     C69402   6.612   5.483   2.451  0.1258 -0.1130  0.1571
  515MOL0     C69403   6.505   5.446   2.345  0.8481  0.4335  0.8782
  515MOL0     C69404   6.366   5.517   2.352 -0.2170 -0.3371 -0.1892
  515MOL0     C69405   6.298   5.528   2.214 -0.6519  0.3136  0.6206
  515MOL0     C69406   6.167   5.601   2.213 -0.3109  0.5038 -0.7938
  515MOL0     N69407   6.115   5.622   2.081 -0.4947  0.1589 -0.0053
  515MOL0     C69408   6.076   5.522   1.996  0.8136  1.0243 -0.2856
  515MOL0     C69409   6.047   5.582   1.878 -0.7984  0.0891 -0.1863
  515MOL0     C69410   6.028   5.499   1.758  0.5353  0.1091 -0.2363
  515MOL0     C69411   6.153   5.510   1.659  0.5472  1.1757 -0.0276
  515MOL0     C69412   6.109   5.544   1.517  0.7156 -0.2683 -0.4308
  515MOL0     C69413   6.226   5.584   1.425  0.3010  0.8759  0.4350
  515MOL0     O69414   6.292   5.459   1.411 -0.2893 -0.3118  0.7869
  515MOL0     C69415   6.407   5.460   1.328  0.2500  0.3654 -0.8145
  515MOL0     C69416   6.498   5.359   1.352  0.3973  0.2309  0.3105
  515MOL0     C69417   6.627   5.355   1.285 -0.7916 -0.0652 -0.3458
  515MOL0     C69418   6.662   5.453   1.190 -0.3506 -0.5016 -0.0290
  515MOL0     C69419   6.802   5.467   1.135  0.4005  0.0618  0.3294
  515MOL0     O69420   6.896   5.368   1.177 -0.5935  0.0592  0.0554
  515MOL0     C69421   7.030   5.380   1.137  0.0193  0.5273  0.3289
  515MOL0     C69422   7.110   5.490   1.171 -0.4522  0.9149  0.1892
  515MOL0     C69423   7.246   5.499   1.143 -0.2247 -0.3563 -0.2865
  515MOL0     C69424   7.309   5.385   1.088  0.1012  0.4090  1.0749
  515MOL0     O69425   7.445   5.392   1.066  1.0869  0.2512 -0.4062
  515MOL0     C69426   7.514   5.279   1.010  0.7826  0.2156 -0.0605
  515MOL0     C69427   7.667   5.312   0.986  0.9049  0.6204  0.0740
  515MOL0     C69428   7.694   5.424   0.888  0.1899  0.4514  0.0063
  515MOL0     C69429   7.840   5.407   0.841 -0.2697 -0.5267  0.5098
  515MOL0     C69430   7.950   5.398   0.945  0.0507  0.3593  0.7478
  515MOL0     C69431   8.083   5.428   0.882 -0.4345 -0.1321  0.7674
  515MOL0     C69432   8.190   5.375   0.980  0.5294 -0.6914 -0.4864
  515MOL0     C69433   8.298   5.278   0.917  0.3516  0.1941 -0.1512
  515MOL0    Cl69434   8.217   5.129   0.839 -0.1465 -0.1359  0.3660
  515MOL0     C69435   7.232   5.271   1.055 -0.1845 -0.3764  1.0129
  515MOL0     C69436   7.090   5.268   1.066 -0.3222 -0.2338 -0.6428
  515MOL0     O69437   6.830   5.561   1.061 -0.1581  1.0813 -0.2290
  515MOL0     C69438   6.560   5.543   1.154  0.4160 -0.0717 -0.3466
  515MOL0     C69439   6.435   5.541   1.212 -0.5572 -0.0918  0.4334
  515MOL0     N69440   6.054   5.718   1.898 -0.0576 -0.3841 -0.7230
  515MOL0     N69441   6.090   5.741   2.025  0.4648 -0.4699  1.5359
  515MOL0     C69442   6.975   5.936   2.254  0.7096 -0.2681 -1.5801
  515MOL0     C69443   7.003   6.048   2.172 -0.1070 -0.1784 -0.2368
  515MOL0     C69444   7.165   6.397   1.966 -0.4538  0.0781 -0.3060
  515MOL0     C69445   7.267   6.368   1.868 -1.2269 -0.8071 -0.9707
  515MOL0     C69446   7.293   6.465   1.772 -0.9172 -0.2435 -0.2875
  515MOL0     C69447   7.238   6.594   1.777  0.2029 -0.7692  0.0938
  515MOL0     O69448   7.296   6.690   1.689  0.0875  0.3493 -0.2409
  515MOL0     C69449   7.268   6.832   1.722  0.6022 -0.6878 -0.0030
  515MOL0     C69450   7.148   6.878   1.644  0.1284 -0.1780 -0.7504
  515MOL0     C69451   7.172   6.845   1.493  0.0521  0.4951 -0.1939
  515MOL0     C69452   7.055   6.876   1.393 -0.6720  0.4449 -0.2468
  515MOL0     C69453   6.920   6.831   1.431  0.7172 -0.4927 -0.3771
  515MOL0     C69454   6.802   6.805   1.448  0.8277  0.8383  0.0366
  515MOL0     C69455   7.132   6.609   1.865 -1.2216 -1.0770  0.0784
  515MOL0     C69456   7.097   6.517   1.961  0.4228 -0.0158 -0.2408
  515MOL0     C69457   6.994   6.554   2.065 -0.7120  0.8321  0.4540
  515MOL0     H69458   6.858   6.298   2.343 -0.7195  0.4724 -0.3697
  515MOL0     H69459   6.803   6.107   2.490  3.1168 -1.2118  2.0901
  515MOL0     H69460   6.769   5.901   2.611  0.5627  1.2864  0.2654
  515MOL0     H69461   6.680   5.874   2.462  1.1528  0.4940 -1.2598
  515MOL0     H69462   6.682   5.669   2.637 -0.9944  2.1604  0.2867
  515MOL0     H69463   6.835   5.643   2.575  0.4439  1.2531 -0.6377
  515MOL0     H69464   6.761   5.606   2.351 -0.2460 -0.6176 -1.4316
  515MOL0     H69465   6.614   5.679   2.358  3.9716  0.5109 -3.0424
  515MOL0     H69466   6.698   5.416   2.454 -1.9199 -2.8800  0.5099
  515MOL0     H69467   6.567   5.482   2.550 -1.4941  0.8995 -0.5341
  515MOL0     H69468   6.552   5.473   2.250 -0.6818 -1.9239 -0.6603
  515MOL0     H69469   6.472   5.342   2.336 -1.4134  1.2042 -0.5874
  515MOL0     H69470   6.300   5.460   2.419 -0.1670 -3.9063 -2.8712
  515MOL0     H69471   6.375   5.614   2.402 -2.6613 -1.0273  1.8078
  515MOL0     H69472   6.284   5.427   2.175 -2.2121  0.9894 -0.6998
  515MOL0     H69473   6.370   5.590   2.158 -0.4757 -0.5749 -0.1629
  515MOL0     H69474   6.100   5.544   2.277 -0.7452 -1.7927 -3.1097
  515MOL0     H69475   6.181   5.699   2.258 -0.4035  0.2262 -0.1499
  515MOL0     H69476   6.078   5.416   2.020  1.2593  0.3907 -2.8748
  515MOL0     H69477   6.002   5.394   1.777  3.7548 -0.8657 -0.5566
  515MOL0     H69478   5.936   5.534   1.709 -1.4128 -2.1186  1.5266
  515MOL0     H69479   6.221   5.586   1.698 -0.5848  1.4347  1.5596
  515MOL0     H69480   6.202   5.414   1.644 -2.5663 -0.5264 -0.2054
  515MOL0     H69481   6.048   5.635   1.521  0.2635 -0.3069 -3.5021
  515MOL0     H69482   6.047   5.467   1.471  0.8290  0.0856 -1.2118
  515MOL0     H69483   6.281   5.671   1.461 -1.0493  2.3296 -0.8263
  515MOL0     H69484   6.184   5.618   1.329  0.5653 -0.7853 -0.3085
  515MOL0     H69485   6.475   5.288   1.430 -1.8679  0.4407 -0.1007
  515MOL0     H69486   6.691   5.269   1.299 -2.8186 -1.5104  0.6333
  515MOL0     H69487   7.058   5.569   1.225  2.2995  2.6355  0.5058
  515MOL0     H69488   7.296   5.592   1.164  2.9508 -2.1521  0.8225
  515MOL0     H69489   7.514   5.183   1.062  1.4799  0.4502  0.3911
  515MOL0     H69490   7.462   5.255   0.917 -1.2411  1.2141  0.7406
  515MOL0     H69491   7.708   5.339   1.084 -0.7641 -0.2656  1.0450
  515MOL0     H69492   7.712   5.225   0.938 -2.6085 -2.6162  2.1405
  515MOL0     H69493   7.620   5.412   0.809  0.5307 -4.1759  0.1371
  515MOL0     H69494   7.688   5.520   0.941  2.2698  0.8020 -0.2991
  515MOL0     H69495   7.850   5.501   0.785  0.3408  0.4174  2.1194
  515MOL0     H69496   7.827   5.321   0.775  0.5673  1.2948 -2.1967
  515MOL0     H69497   7.953   5.297   0.988 -0.6834  0.0520  0.1189
  515MOL0     H69498   7.928   5.469   1.024 -0.2921  1.9317 -0.7046
  515MOL0     H69499   8.089   5.380   0.784 -0.0838 -0.2157  0.8281
  515MOL0     H69500   8.077   5.534   0.858 -1.1602 -0.4623 -0.6350
  515MOL0     H69501   8.144   5.335   1.071  0.7303  2.0977  0.9367
  515MOL0     H69502   8.227   5.463   1.033 -2.4366 -0.3928  1.3366
  515MOL0     H69503   8.363   5.321   0.841 -1.5596 -1.6113 -3.0196
  515MOL0     H69504   8.345   5.235   1.006 -2.7987 -0.5371  1.3120
  515MOL0     H69505   7.289   5.183   1.024 -0.4742 -1.2157  2.7211
  515MOL0     H69506   7.041   5.177   1.032 -0.3506 -0.4516 -0.0183
  515MOL0     H69507   6.584   5.609   1.072  2.7630 -2.9200 -2.1862
  515MOL0     H69508   6.364   5.608   1.165 -0.8481 -2.6274 -3.1011
  515MOL0     H69509   7.003   5.835   2.227  0.1925 -0.4215 -1.5591
  515MOL0     H69510   7.054   6.022   2.080  0.3468  1.5234 -0.4922
  515MOL0     H69511   7.323   6.276   1.864  2.8185  1.2603  1.2803
  515MOL0     H69512   7.368   6.433   1.700  0.4741  1.5180  0.3166
  515MOL0     H69513   7.360   6.887   1.701 -1.1593  1.1223 -4.0568
  515MOL0     H69514   7.244   6.850   1.828 -2.6901  0.6920 -0.8649
  515MOL0     H69515   7.126   6.983   1.662  0.7975 -0.4162  1.8806
  515MOL0     H69516   7.060   6.822   1.677  1.7898 -2.8244 -0.4921
  515MOL0     H69517   7.187   6.736   1.486  1.8867  0.6406  0.6583
  515MOL0     H69518   7.270   6.883   1.463  0.9412 -0.5760  1.1976
  515MOL0     H69519   7.062   6.980   1.361  1.4656  0.9825  1.7246
  515MOL0     H69520   7.081   6.832   1.297 -1.3974  0.7381 -0.5847
  515MOL0     H69521   6.707   6.756   1.447  2.5447 -2.9461 -2.5051
  515MOL0     H69522   7.074   6.700   1.877 -4.1969 -2.5276 -2.2026
  515MOL0     H69523   7.044   6.549   2.163  1.7249  2.1049 -0.6359
  515MOL0     H69524   6.973   6.661   2.060 -1.1927  0.7831  1.1970
  515MOL0     H69525   6.902   6.496   2.055  0.9056 -1.8608  0.1387
  516MOL0     O69526   0.725   5.711   3.921  0.0650 -0.6127 -0.1626
  516MOL0     C69527   0.793   5.721   4.026  0.1728  0.5169 -0.0767
  516MOL0     O69528   0.837   5.839   4.085 -0.5820  0.2704  0.8004
  516MOL0     C69529   0.811   5.951   4.019  0.6198  0.1511 -0.4909
  516MOL0     C69530   0.691   6.022   4.050 -0.3109 -0.4619 -0.3735
  516MOL0     C69531   0.669   6.150   3.986  0.6189  0.7422  0.7911
  516MOL0     C69532   0.771   6.209   3.902  0.4804  0.1053  0.8562
  516MOL0     O69533   0.757   6.320   3.836  0.8542 -0.7337  0.7181
  516MOL0     C69534   0.836   6.354   3.726  0.1688  0.3636  0.3524
  516MOL0     C69535   0.770   6.483   3.671  0.2648 -0.1472 -0.4190
  516MOL0     C69536   0.617   6.469   3.615  0.1099  0.1526 -0.6153
  516MOL0     C69537   0.556   6.596   3.561  0.2102  0.5084  0.4050
  516MOL0     C69538   0.408   6.576   3.551  0.7953 -0.4353  0.1098
  516MOL0     C69539   0.351   6.685   3.447 -0.1904  0.4693 -0.5269
  516MOL0     C69540   0.390   6.828   3.472 -0.0743 -0.3521 -0.1845
  516MOL0     C69541   0.316   6.896   3.593  0.3262 -0.7135 -0.0930
  516MOL0     N69542   0.317   7.039   3.601 -0.1104 -0.4895 -0.1490
  516MOL0     C69543   0.410   7.112   3.673  1.1769  0.6305  0.9864
  516MOL0     C69544   0.399   7.238   3.613  0.9017  0.5554 -0.0790
  516MOL0     C69545   0.473   7.358   3.649 -0.3995  0.3422  0.8499
  516MOL0     C69546   0.548   7.420   3.533  0.6200  0.6992  0.1105
  516MOL0     C69547   0.640   7.313   3.469  0.4978  0.0260 -0.3351
  516MOL0     C69548   0.777   7.317   3.534  0.8346 -0.0853  0.6136
  516MOL0     O69549   0.777   7.220   3.637  0.1412  1.4143 -0.7102
  516MOL0     C69550   0.897   7.196   3.706 -0.3048 -0.1084  0.2620
  516MOL0     C69551   1.009   7.247   3.653  0.1509 -0.4437  0.2213
  516MOL0     C69552   1.130   7.214   3.704  0.2629 -0.2675 -0.9023
  516MOL0     C69553   1.139   7.125   3.815 -0.6536 -0.0622 -0.7463
  516MOL0     C69554   1.272   7.092   3.870  0.2430 -0.6708  0.1701
  516MOL0     O69555   1.377   7.114   3.784 -0.4174  0.0287  0.0794
  516MOL0     C69556   1.503   7.111   3.826  0.0476 -0.5508 -0.4937
  516MOL0     C69557   1.556   7.089   3.956 -0.4511  0.3659  0.8891
  516MOL0     C69558   1.693   7.078   3.980 -0.4323 -0.2516  0.1221
  516MOL0     C69559   1.786   7.090   3.877  0.3242  0.6863 -0.2851
  516MOL0     O69560   1.921   7.078   3.895  0.0652 -1.2302 -0.4542
  516MOL0     C69561   1.979   7.027   4.024 -0.0764  0.5361  0.4796
  516MOL0     C69562   2.128   7.021   4.019  0.6620 -0.1021 -0.1570
  516MOL0     C69563   2.195   7.148   3.992 -0.1584 -0.2877 -0.2639
  516MOL0     C69564   2.345   7.143   3.996 -0.3540 -0.0878 -0.4192
  516MOL0     C69565   2.415   7.096   4.118 -0.4180 -0.0089 -1.4338
  516MOL0     C69566   2.410   7.176   4.252  0.2083 -0.4065 -0.1436
  516MOL0     C69567   2.465   7.128   4.384 -0.6507  0.8512  0.0509
  516MOL0     C69568   2.395   6.993   4.430 -0.5198  0.2837 -0.2527
  516MOL0    Cl69569   2.448   6.928   4.588 -0.3998 -0.1636 -0.1792
  516MOL0     C69570   1.742   7.092   3.749 -0.6230 -0.7983  1.1100
  516MOL0     C69571   1.605   7.115   3.721  0.5362  0.2228  0.1886
  516MOL0     O69572   1.281   7.046   3.984  0.3344 -0.4259  1.4422
  516MOL0     C69573   1.019   7.082   3.882 -0.4560  0.3004  0.1557
  516MOL0     C69574   0.897   7.110   3.819  0.8419 -0.1569 -0.2128
  516MOL0     N69575   0.303   7.239   3.515 -0.4973  0.2216 -1.2343
  516MOL0     N69576   0.274   7.116   3.500  0.4317  0.1547 -0.3387
  516MOL0     C69577   0.892   6.133   3.885  0.8548 -0.6729  1.5569
  516MOL0     C69578   0.908   6.009   3.940  0.5341 -0.2785  0.6197
  516MOL0     C69579   0.820   5.597   4.098  0.3375  0.1302 -0.2358
  516MOL0     C69580   0.934   5.591   4.177  0.5850 -0.5292 -0.4121
  516MOL0     C69581   0.960   5.479   4.259 -0.1255  0.1539  0.4610
  516MOL0     C69582   0.879   5.365   4.246 -0.2662  1.7215 -1.1990
  516MOL0     O69583   0.904   5.246   4.308 -0.0388 -0.4706  0.5510
  516MOL0     C69584   0.991   5.256   4.417 -0.0101  0.5601 -0.7643
  516MOL0     C69585   1.007   5.121   4.484 -0.3391  0.3301  0.7567
  516MOL0     C69586   0.882   5.073   4.556  0.0907  0.0092  0.2863
  516MOL0     C69587   0.895   4.918   4.589  0.7631 -0.4791 -0.0322
  516MOL0     C69588   0.986   4.890   4.702 -0.4858  0.0361 -0.6675
  516MOL0     C69589   1.059   4.870   4.797 -0.1927 -0.2769 -0.9379
  516MOL0     C69590   0.762   5.375   4.162 -0.2444 -0.0965 -0.8632
  516MOL0     C69591   0.733   5.482   4.084  0.1977  0.6280  0.9662
  516MOL0     C69592   0.613   5.466   3.985 -0.5135  0.0635  0.2303
  516MOL0     H69593   0.621   5.977   4.120  2.9455 -3.4605  1.2759
  516MOL0     H69594   0.574   6.198   4.006 -1.0250 -2.0622  0.2707
  516MOL0     H69595   0.935   6.380   3.764  0.6973 -2.6646  1.3142
  516MOL0     H69596   0.839   6.276   3.649 -1.5154 -0.4148  1.0183
  516MOL0     H69597   0.819   6.528   3.584 -0.2628  1.2938  0.0019
  516MOL0     H69598   0.778   6.553   3.754 -1.0758  0.2319 -0.5908
  516MOL0     H69599   0.555   6.434   3.698  1.6480 -1.8556 -0.2024
  516MOL0     H69600   0.619   6.387   3.542  0.5724 -1.4869  1.1295
  516MOL0     H69601   0.578   6.682   3.626  2.8086 -1.6972  2.6929
  516MOL0     H69602   0.609   6.622   3.469 -0.1042 -0.2014  0.0195
  516MOL0     H69603   0.383   6.474   3.521  1.0943 -1.1812  2.2086
  516MOL0     H69604   0.369   6.595   3.652  2.2125 -0.1252  0.6285
  516MOL0     H69605   0.405   6.660   3.355  0.3089  1.2556 -0.4559
  516MOL0     H69606   0.243   6.672   3.437 -0.0271 -1.5941 -0.1222
  516MOL0     H69607   0.374   6.886   3.380  3.3929 -0.2903 -0.9151
  516MOL0     H69608   0.497   6.837   3.496 -0.6388  0.7824  2.1657
  516MOL0     H69609   0.213   6.860   3.599 -0.0112  0.4329  1.6879
  516MOL0     H69610   0.361   6.840   3.675 -1.2242 -1.3973  0.3343
  516MOL0     H69611   0.482   7.069   3.742  0.9098  1.3610  1.7320
  516MOL0     H69612   0.400   7.431   3.685  0.4337 -0.3024  4.2353
  516MOL0     H69613   0.554   7.343   3.721  1.1514  1.5018 -0.5585
  516MOL0     H69614   0.474   7.456   3.460  1.4233  1.1374 -0.5047
  516MOL0     H69615   0.604   7.502   3.579 -0.1272  0.5671  1.2844
  516MOL0     H69616   0.650   7.338   3.363  0.2397  0.0458 -0.3566
  516MOL0     H69617   0.590   7.217   3.479  0.0227  0.4672  2.0916
  516MOL0     H69618   0.813   7.417   3.560  0.9404  0.0326  0.0267
  516MOL0     H69619   0.833   7.283   3.447 -0.9104  0.0836 -0.6368
  516MOL0     H69620   1.011   7.308   3.563  0.8680 -0.6207  0.1111
  516MOL0     H69621   1.220   7.252   3.657 -0.4269 -1.0659 -2.9729
  516MOL0     H69622   1.491   7.076   4.043  1.9849 -5.3773  2.3670
  516MOL0     H69623   1.742   7.084   4.077  0.3970  0.4444 -0.3231
  516MOL0     H69624   1.974   7.097   4.108  1.3588  1.1931  0.0563
  516MOL0     H69625   1.934   6.929   4.043  2.9218 -1.4989 -1.9163
  516MOL0     H69626   2.162   6.966   4.107 -1.5943 -1.8665 -0.2991
  516MOL0     H69627   2.154   6.963   3.930  0.4313 -0.5755  0.0813
  516MOL0     H69628   2.176   7.182   3.890  0.6954 -1.0160 -0.6840
  516MOL0     H69629   2.153   7.225   4.056  0.9537 -1.2234  1.6641
  516MOL0     H69630   2.387   7.241   3.972  1.4988 -1.2703 -2.3962
  516MOL0     H69631   2.387   7.078   3.918  0.4768  0.6943 -0.6412
  516MOL0     H69632   2.521   7.091   4.091  0.6102 -3.7090  2.2539
  516MOL0     H69633   2.394   6.991   4.140  0.9391 -0.3637 -1.7636
  516MOL0     H69634   2.463   7.268   4.224  1.6892 -1.8902 -2.5333
  516MOL0     H69635   2.310   7.205   4.286 -0.6328 -2.3568 -0.8429
  516MOL0     H69636   2.464   7.202   4.464  1.2538 -0.1445  1.0722
  516MOL0     H69637   2.568   7.097   4.363  0.5162  3.6688  1.1573
  516MOL0     H69638   2.289   7.020   4.430  0.1464  3.2531  0.8080
  516MOL0     H69639   2.414   6.908   4.364 -0.0125 -0.1902  0.4872
  516MOL0     H69640   1.810   7.087   3.664 -1.0543 -4.0983  0.8440
  516MOL0     H69641   1.569   7.136   3.620  1.6979  1.1035 -0.0616
  516MOL0     H69642   1.031   7.008   3.961 -0.1619 -1.0850 -1.1410
  516MOL0     H69643   0.801   7.075   3.855  0.3860  2.3006  1.2209
  516MOL0     H69644   0.970   6.159   3.814 -1.3440 -1.7016 -1.4383
  516MOL0     H69645   0.989   5.946   3.904 -0.9255 -0.9635 -1.6657
  516MOL0     H69646   1.012   5.667   4.173 -0.3452  0.3987 -2.8357
  516MOL0     H69647   1.055   5.486   4.312  0.1037 -2.0283  0.4139
  516MOL0     H69648   0.960   5.332   4.490  2.7532  0.7415  0.3450
  516MOL0     H69649   1.092   5.284   4.388 -0.4013  1.3927 -1.3728
  516MOL0     H69650   1.085   5.121   4.561 -1.7291  0.0684  2.2262
  516MOL0     H69651   1.035   5.050   4.406  0.3177  1.6539 -0.2517
  516MOL0     H69652   0.796   5.070   4.488 -0.4720 -0.7062  1.0012
  516MOL0     H69653   0.863   5.140   4.641  0.8986 -1.5762  1.7917
  516MOL0     H69654   0.790   4.889   4.598  0.5220 -0.7349 -2.7341
  516MOL0     H69655   0.951   4.878   4.503  1.2116  1.5861 -0.7563
  516MOL0     H69656   1.131   4.849   4.874 -1.6087 -0.0742  0.4907
  516MOL0     H69657   0.692   5.293   4.145 -0.8577  0.6388 -2.0141
  516MOL0     H69658   0.644   5.473   3.881 -0.1443  0.4825  0.3634
  516MOL0     H69659   0.573   5.366   4.005  1.2234 -0.6830  0.1831
  516MOL0     H69660   0.536   5.539   4.012  1.5391  1.6810  2.0862
  517MOL0     O69661   7.539   3.339   0.419  0.6883 -0.6147  0.3135
  517MOL0     C69662   7.475   3.439   0.383  0.5491 -0.6552 -0.9494
  517MOL0     O69663   7.509   3.525   0.287 -0.5722 -0.6603 -0.0896
  517MOL0     C69664   7.595   3.487   0.183  0.0899 -0.9212  0.4850
  517MOL0     C69665   7.730   3.442   0.207 -0.3982  0.1834 -1.1873
  517MOL0     C69666   7.809   3.417   0.097 -0.7677  0.1910  0.6300
  517MOL0     C69667   7.766   3.431  -0.031  0.1191  0.1910  0.1532
  517MOL0     O69668   7.857   3.402  -0.120 -0.1156  0.5954  0.3217
  517MOL0     C69669   7.838   3.420  -0.260  0.2348 -0.2232  0.0751
  517MOL0     C69670   7.959   3.362  -0.337  0.5482 -0.2941  0.2517
  517MOL0     C69671   7.977   3.408  -0.479  0.2447  0.1752  0.6714
  517MOL0     C69672   8.035   3.550  -0.480 -0.1084  0.2325  0.4414
  517MOL0     C69673   8.120   3.582  -0.607 -0.7984  0.2894  0.1165
  517MOL0     C69674   8.030   3.574  -0.734  0.5507 -0.6060 -0.3060
  517MOL0     C69675   8.110   3.585  -0.862  0.9792  0.4357 -0.2965
  517MOL0     C69676   8.057   3.541  -0.997  0.3761  1.3693 -0.3834
  517MOL0     N69677   8.146   3.558  -1.114  0.9375  0.5698 -0.4768
  517MOL0     C69678   8.278   3.539  -1.103 -0.6517  0.3095  0.6948
  517MOL0     C69679   8.323   3.593  -1.225  0.0233  2.0235 -0.7253
  517MOL0     C69680   8.470   3.604  -1.259  0.7883  0.3114 -0.0907
  517MOL0     C69681   8.563   3.682  -1.167  0.1253 -1.1185 -0.0691
  517MOL0     C69682   8.706   3.699  -1.233  0.6331 -0.1647  0.1319
  517MOL0     C69683   8.791   3.570  -1.239 -0.9373  0.6115  0.4902
  517MOL0     O69684   8.919   3.604  -1.288 -0.6133  0.5736 -0.2178
  517MOL0     C69685   9.015   3.502  -1.290  0.6211  0.1142  0.7776
  517MOL0     C69686   9.145   3.550  -1.289 -0.2709  0.5157 -0.3292
  517MOL0     C69687   9.246   3.459  -1.288  0.9861  0.7319  0.3422
  517MOL0     C69688   9.226   3.320  -1.292  1.3354  0.4458 -0.2158
  517MOL0     C69689   9.337   3.228  -1.272  0.6425  0.3684 -0.3793
  517MOL0     O69690   9.448   3.262  -1.216  0.4732  0.0818 -0.4532
  517MOL0     C69691   9.568   3.207  -1.254  0.9461 -0.7896  0.6905
  517MOL0     C69692   9.616   3.200  -1.383  0.1322  0.1621 -0.6829
  517MOL0     C69693   9.739   3.140  -1.415 -0.1834 -0.3340  0.1048
  517MOL0     C69694   9.828   3.101  -1.317 -0.0947  0.0511  0.6271
  517MOL0     O69695   9.950   3.038  -1.359  0.3651  0.0580  0.6150
  517MOL0     C69696  10.020   2.953  -1.258  0.4671  0.4343  0.2005
  517MOL0     C69697  10.165   2.924  -1.295 -1.1957  0.4325  0.0028
  517MOL0     C69698  10.240   3.055  -1.326 -0.3684  0.4648  0.0258
  517MOL0     C69699  10.388   3.013  -1.343 -0.7224  0.4874  0.4909
  517MOL0     C69700  10.480   3.126  -1.301 -0.8800 -0.0803  0.3836
  517MOL0     C69701  10.618   3.098  -1.245  0.8316  0.9099 -0.2608
  517MOL0     C69702  10.684   3.203  -1.164 -0.0662  0.1018  0.2298
  517MOL0     C69703  10.824   3.161  -1.122  0.2176 -0.0908 -0.4858
  517MOL0    Cl69704  10.893   3.287  -1.022 -0.4063 -0.1215 -0.0536
  517MOL0     C69705   9.780   3.112  -1.187 -0.2590 -0.4631  0.4344
  517MOL0     C69706   9.653   3.160  -1.151  0.1957 -0.6188 -0.3572
  517MOL0     O69707   9.319   3.119  -1.319 -0.5778 -0.0104  0.1932
  517MOL0     C69708   9.087   3.273  -1.303 -0.4399 -0.1380 -0.7466
  517MOL0     C69709   8.979   3.368  -1.304  1.1886  0.1634 -0.4627
  517MOL0     N69710   8.218   3.621  -1.308  0.6121 -0.1161  0.1413
  517MOL0     N69711   8.115   3.611  -1.231 -0.0232  0.8965 -0.9074
  517MOL0     C69712   7.619   3.455  -0.048 -0.0560  0.1622  0.6365
  517MOL0     C69713   7.541   3.497   0.056  0.9185 -0.0348 -0.7733
  517MOL0     C69714   7.368   3.486   0.484 -0.5578 -0.7522 -0.1242
  517MOL0     C69715   7.301   3.391   0.553  0.5628  0.7604  0.1415
  517MOL0     C69716   7.194   3.424   0.638 -0.2073 -0.3450  0.6079
  517MOL0     C69717   7.145   3.556   0.643  0.4525 -0.1783  0.8392
  517MOL0     O69718   7.031   3.587   0.714  0.5628  0.0797  0.0994
  517MOL0     C69719   6.941   3.477   0.757 -0.4265 -1.4932  1.1297
  517MOL0     C69720   6.802   3.525   0.786 -0.4414 -0.5409 -0.1857
  517MOL0     C69721   6.728   3.590   0.665 -0.2889 -0.5026  0.2889
  517MOL0     C69722   6.628   3.697   0.696  0.0799 -0.0423  0.1966
  517MOL0     C69723   6.506   3.634   0.738  0.4466  0.7190  1.0141
  517MOL0     C69724   6.406   3.574   0.779  0.0350 -0.3887  0.4628
  517MOL0     C69725   7.210   3.652   0.570  0.3369 -0.0702  0.1193
  517MOL0     C69726   7.317   3.628   0.484  0.4984  0.2643  0.1234
  517MOL0     C69727   7.378   3.743   0.414 -0.1850 -0.5282 -0.1335
  517MOL0     H69728   7.769   3.437   0.308  1.3228 -0.9838 -1.8607
  517MOL0     H69729   7.911   3.387   0.118 -0.7250  0.9964  1.6113
  517MOL0     H69730   7.739   3.384  -0.287  1.4190 -2.6230 -1.5303
  517MOL0     H69731   7.829   3.526  -0.285  0.3893 -0.4633 -1.0421
  517MOL0     H69732   7.940   3.254  -0.335 -1.0773 -0.0494 -0.2805
  517MOL0     H69733   8.052   3.375  -0.282  0.3570  0.8518  0.3320
  517MOL0     H69734   7.887   3.392  -0.540  0.9159 -1.7123  0.1190
  517MOL0     H69735   8.040   3.347  -0.544 -0.1668  2.8827 -2.5612
  517MOL0     H69736   7.953   3.622  -0.472 -4.0921 -3.7017 -0.5689
  517MOL0     H69737   8.109   3.550  -0.399 -0.1943 -2.8846  0.6365
  517MOL0     H69738   8.166   3.680  -0.593  0.5056 -0.3435  0.4433
  517MOL0     H69739   8.203   3.511  -0.613  0.1571  1.2493  1.4756
  517MOL0     H69740   7.975   3.481  -0.747  1.6771 -1.0159 -2.6504
  517MOL0     H69741   7.952   3.651  -0.732  1.4973  0.6896 -4.2955
  517MOL0     H69742   8.204   3.533  -0.846  1.0891  0.6667 -0.1868
  517MOL0     H69743   8.127   3.693  -0.873  1.6523  0.5844  1.7515
  517MOL0     H69744   8.033   3.434  -1.000 -1.4289  1.5838  2.3413
  517MOL0     H69745   7.964   3.595  -1.016 -1.1532 -0.4225  1.4969
  517MOL0     H69746   8.332   3.497  -1.019  1.1125  0.6950 -0.1961
  517MOL0     H69747   8.516   3.507  -1.283 -0.7367  0.0645 -2.3546
  517MOL0     H69748   8.470   3.653  -1.357  0.1560 -0.0990 -0.3029
  517MOL0     H69749   8.523   3.784  -1.162  1.7557 -0.4315 -0.5053
  517MOL0     H69750   8.580   3.643  -1.066  1.6474 -2.9203 -0.9589
  517MOL0     H69751   8.748   3.768  -1.159 -2.0873  2.3885 -0.4998
  517MOL0     H69752   8.701   3.746  -1.331 -0.6743 -0.6469 -0.0589
  517MOL0     H69753   8.738   3.503  -1.306 -1.5625  0.1356  1.4414
  517MOL0     H69754   8.805   3.515  -1.145  3.4971  1.2500  0.4472
  517MOL0     H69755   9.166   3.655  -1.273 -2.1462  1.3960 -2.8781
  517MOL0     H69756   9.344   3.503  -1.273  0.1841  1.7976  3.1462
  517MOL0     H69757   9.550   3.225  -1.465  0.1552 -1.2668 -1.1574
  517MOL0     H69758   9.750   3.132  -1.523 -3.3403  0.1324 -0.3464
  517MOL0     H69759  10.027   3.006  -1.163 -2.9838 -1.0708  1.4460
  517MOL0     H69760   9.954   2.868  -1.238  0.3844  0.7035  1.0993
  517MOL0     H69761  10.212   2.879  -1.206  1.3983  0.8308 -1.0799
  517MOL0     H69762  10.186   2.851  -1.373  1.9040  0.5390  0.5803
  517MOL0     H69763  10.203   3.105  -1.416  0.1816  0.1715 -0.3634
  517MOL0     H69764  10.232   3.133  -1.249  0.2265  0.4300  0.1244
  517MOL0     H69765  10.400   2.973  -1.444 -1.0083 -0.1511  0.6999
  517MOL0     H69766  10.397   2.923  -1.281 -0.9578 -0.6913 -1.1299
  517MOL0     H69767  10.420   3.192  -1.237 -2.1888  1.6096 -2.3941
  517MOL0     H69768  10.498   3.184  -1.392  2.6454 -0.5697  0.6174
  517MOL0     H69769  10.590   3.014  -1.181  3.1358  1.0929  1.1099
  517MOL0     H69770  10.678   3.055  -1.325  0.1255 -0.5345 -0.0485
  517MOL0     H69771  10.616   3.237  -1.085 -0.5000  1.5937 -0.7453
  517MOL0     H69772  10.689   3.287  -1.234 -0.5495 -0.3827 -0.3960
  517MOL0     H69773  10.816   3.068  -1.066 -0.4491 -0.1911 -0.7340
  517MOL0     H69774  10.895   3.145  -1.204 -1.5109 -3.1830 -1.5624
  517MOL0     H69775   9.838   3.074  -1.104 -2.6639 -0.8445  2.0639
  517MOL0     H69776   9.626   3.171  -1.047  1.7302  0.0995 -0.0003
  517MOL0     H69777   9.073   3.165  -1.308  0.6788 -0.2821 -0.9559
  517MOL0     H69778   8.877   3.331  -1.304  0.3154  2.4350 -0.6370
  517MOL0     H69779   7.579   3.439  -0.147 -1.3486  0.8177  1.0363
  517MOL0     H69780   7.442   3.535   0.033  0.2607  0.1504  2.0139
  517MOL0     H69781   7.322   3.285   0.546 -1.3297  0.3006  0.8503
  517MOL0     H69782   7.141   3.341   0.685 -0.7837 -1.3838 -1.7077
  517MOL0     H69783   6.978   3.436   0.852  0.1708 -2.0949  0.6538
  517MOL0     H69784   6.942   3.400   0.679  1.8811  0.3519 -0.8267
  517MOL0     H69785   6.811   3.586   0.877  1.6624  0.7800 -1.1941
  517MOL0     H69786   6.749   3.432   0.810  1.9853 -1.9322  0.1914
  517MOL0     H69787   6.671   3.521   0.602 -2.8693  1.2236  0.6029
  517MOL0     H69788   6.803   3.633   0.598 -1.1700 -2.5062 -2.1347
  517MOL0     H69789   6.666   3.766   0.773 -0.4043  0.2167  0.2023
  517MOL0     H69790   6.606   3.761   0.611 -1.5066 -1.9844 -0.9223
  517MOL0     H69791   6.312   3.534   0.812  0.8355 -1.2326  1.8310
  517MOL0     H69792   7.156   3.747   0.574 -0.0493 -0.2195 -1.1043
  517MOL0     H69793   7.339   3.755   0.313  4.0602 -0.7607 -2.0030
  517MOL0     H69794   7.365   3.828   0.482  2.7472  0.0680 -0.1689
  517MOL0     H69795   7.487   3.737   0.400 -0.0496 -2.5120  1.3311
  518MOL0     O69796   8.859  10.679  11.342  0.2077  0.4446  0.6916
  518MOL0     C69797   8.893  10.609  11.443 -0.1736  0.2313  0.7412
  518MOL0     O69798   8.857  10.628  11.569  0.5849  0.2465 -0.5361
  518MOL0     C69799   8.791  10.739  11.603  0.5339 -0.2197 -0.0813
  518MOL0     C69800   8.855  10.831  11.694 -0.2825  0.9053 -0.1866
  518MOL0     C69801   8.805  10.952  11.720  0.3208  0.0717 -0.9230
  518MOL0     C69802   8.672  10.988  11.672  0.0175  0.3853  0.2225
  518MOL0     O69803   8.618  11.108  11.709  0.1328  0.1661 -0.4425
  518MOL0     C69804   8.579  11.189  11.588 -0.9890 -0.3720 -0.5056
  518MOL0     C69805   8.601  11.341  11.606 -0.0909  0.0044 -0.9309
  518MOL0     C69806   8.749  11.376  11.646 -0.2916 -0.8025  0.3238
  518MOL0     C69807   8.776  11.415  11.786  0.6453 -0.4160 -0.8516
  518MOL0     C69808   8.930  11.412  11.811 -0.0361  0.0099  0.6217
  518MOL0     C69809   8.959  11.453  11.958  0.0345  0.8546 -0.4951
  518MOL0     C69810   9.107  11.445  11.983 -1.1012  0.0808  0.7215
  518MOL0     C69811   9.145  11.486  12.121  0.5024  0.2706 -0.6531
  518MOL0     N69812   9.282  11.445  12.159  0.9830  0.6937  0.5389
  518MOL0     C69813   9.375  11.412  12.070 -0.7857  1.1654 -0.3386
  518MOL0     C69814   9.488  11.376  12.147  0.3203 -0.1767 -0.4709
  518MOL0     C69815   9.626  11.355  12.087  0.3421  0.1668  0.1520
  518MOL0     C69816   9.645  11.230  11.989 -0.2904 -0.1393  0.1921
  518MOL0     C69817   9.776  11.245  11.898  0.6930  0.4055 -0.0761
  518MOL0     C69818   9.793  11.120  11.810 -0.5626 -0.2881 -0.7792
  518MOL0     O69819   9.746  11.167  11.691 -0.3512  0.0528 -0.0436
  518MOL0     C69820   9.781  11.089  11.581  0.0804  0.5677 -0.5260
  518MOL0     C69821   9.816  11.151  11.464 -0.0528  0.9529  0.5614
  518MOL0     C69822   9.860  11.080  11.351  0.3502  0.3724 -0.2071
  518MOL0     C69823   9.854  10.942  11.343 -0.4899  0.1015 -0.3209
  518MOL0     C69824   9.908  10.875  11.222 -0.6725  1.0616  0.7660
  518MOL0     O69825   9.985  10.955  11.140  0.5732  0.9253 -0.0866
  518MOL0     C69826  10.026  10.897  11.024 -0.3365  0.2770  0.0628
  518MOL0     C69827   9.929  10.856  10.927 -0.3151 -1.0668 -0.0724
  518MOL0     C69828   9.966  10.801  10.799 -0.3602  1.1344  0.1032
  518MOL0     C69829  10.106  10.790  10.771 -0.0694 -0.5785 -0.2745
  518MOL0     O69830  10.160  10.732  10.658 -0.6637  0.5191  0.1643
  518MOL0     C69831  10.190  10.826  10.555  0.4380  0.5548  0.8304
  518MOL0     C69832  10.280  10.770  10.442  0.4752 -0.2777  0.5226
  518MOL0     C69833  10.426  10.753  10.477  0.0165  0.2778 -0.4476
  518MOL0     C69834  10.511  10.884  10.501 -0.2608 -0.5788 -0.6327
  518MOL0     C69835  10.672  10.853  10.515  0.4658 -0.2315  0.2788
  518MOL0     C69836  10.756  10.977  10.522  1.0650  0.4360  0.9621
  518MOL0     C69837  10.785  11.047  10.386  0.7537  0.4069 -0.1384
  518MOL0     C69838  10.883  11.156  10.417 -0.0041 -0.4444 -0.6520
  518MOL0    Cl69839  10.839  11.302  10.521  0.3647 -0.3184  0.1651
  518MOL0     C69840  10.200  10.837  10.857  0.0808 -0.5614 -0.0820
  518MOL0     C69841  10.158  10.880  10.987  0.0619 -0.8736  0.9991
  518MOL0     O69842   9.894  10.750  11.212 -0.7278  0.2611  0.5910
  518MOL0     C69843   9.820  10.880  11.467 -0.1465  0.0174  0.7533
  518MOL0     C69844   9.782  10.948  11.572  0.0024  0.4331 -1.2854
  518MOL0     N69845   9.454  11.405  12.279 -0.7164  0.5113 -0.2191
  518MOL0     N69846   9.332  11.443  12.284  0.3111  0.2945  1.2897
  518MOL0     C69847   8.602  10.894  11.604 -0.3088 -0.4278 -0.6011
  518MOL0     C69848   8.663  10.778  11.562 -1.1118  0.2548  0.3020
  518MOL0     C69849   8.950  10.474  11.410 -0.1802 -0.7770  1.2371
  518MOL0     C69850   9.039  10.409  11.503  0.1778 -0.0953  0.5617
  518MOL0     C69851   9.082  10.283  11.471  0.3712  0.6879  0.1159
  518MOL0     C69852   9.056  10.214  11.356  0.6284 -0.1296 -0.4936
  518MOL0     O69853   9.100  10.089  11.335 -0.7108  0.6355  0.0831
  518MOL0     C69854   9.238  10.076  11.289 -0.6226 -0.2591 -0.4286
  518MOL0     C69855   9.249  10.048  11.144  0.0251  0.2635  0.8334
  518MOL0     C69856   9.187   9.905  11.107 -0.6364  0.3800 -0.6245
  518MOL0     C69857   9.283   9.794  11.146  0.3892  0.1224 -0.5338
  518MOL0     C69858   9.420   9.815  11.102  0.6625  0.2358 -0.2308
  518MOL0     C69859   9.534   9.811  11.068  0.5746 -0.2242  0.3582
  518MOL0     C69860   8.976  10.274  11.256  0.4660 -0.3267 -0.0395
  518MOL0     C69861   8.913  10.399  11.284  0.3140  0.4678 -0.0479
  518MOL0     C69862   8.812  10.449  11.183 -0.6623  0.6637 -0.0182
  518MOL0     H69863   8.951  10.805  11.737  1.2255  2.1071 -2.6381
  518MOL0     H69864   8.865  11.032  11.763 -0.0200  0.6976 -1.5774
  518MOL0     H69865   8.622  11.164  11.490 -2.0776 -0.7032 -0.9248
  518MOL0     H69866   8.472  11.171  11.570 -1.3203 -0.5801  1.4957
  518MOL0     H69867   8.525  11.382  11.673 -0.3191 -0.4206 -0.9249
  518MOL0     H69868   8.591  11.390  11.508  0.2335 -1.5343 -1.7672
  518MOL0     H69869   8.797  11.455  11.588  2.2942 -1.5109  1.3932
  518MOL0     H69870   8.811  11.288  11.631  0.9197 -0.5917  3.3865
  518MOL0     H69871   8.741  11.516  11.807  3.8359  0.0533  4.0059
  518MOL0     H69872   8.729  11.338  11.847  3.2061 -2.9133 -1.7866
  518MOL0     H69873   8.977  11.314  11.801  0.5483  0.2224  1.2184
  518MOL0     H69874   8.987  11.485  11.752 -1.0173  0.4451  0.1832
  518MOL0     H69875   8.925  11.555  11.975 -1.0714  0.3584  0.4382
  518MOL0     H69876   8.902  11.396  12.033  2.1516  1.5327  1.7376
  518MOL0     H69877   9.161  11.503  11.908  1.7819 -2.1042  0.9169
  518MOL0     H69878   9.130  11.338  11.974  0.0164  0.4248 -0.8729
  518MOL0     H69879   9.121  11.593  12.127 -1.5296 -0.1371 -1.1380
  518MOL0     H69880   9.083  11.441  12.199 -0.8331  2.8590 -0.1055
  518MOL0     H69881   9.368  11.427  11.963 -2.0041  2.3812 -0.1208
  518MOL0     H69882   9.658  11.447  12.037 -0.7751 -0.1384 -1.2072
  518MOL0     H69883   9.701  11.344  12.166  0.8441 -1.2444 -0.4774
  518MOL0     H69884   9.658  11.144  12.055  3.1931 -0.7762 -1.0856
  518MOL0     H69885   9.551  11.228  11.933 -0.3181  3.6930 -0.1261
  518MOL0     H69886   9.861  11.247  11.967  0.6271  0.1004  0.0199
  518MOL0     H69887   9.776  11.338  11.841  2.5237 -0.0845 -0.9680
  518MOL0     H69888   9.733  11.039  11.850 -0.1206  0.4815  1.5707
  518MOL0     H69889   9.889  11.067  11.820 -1.2658 -1.2966  1.1427
  518MOL0     H69890   9.818  11.259  11.475 -1.8952  1.1106 -0.3232
  518MOL0     H69891   9.894  11.142  11.269 -0.1827  1.7373  0.5658
  518MOL0     H69892   9.826  10.885  10.948  0.5501  1.6587  0.7072
  518MOL0     H69893   9.897  10.753  10.730 -0.0247 -0.7625  1.0033
  518MOL0     H69894  10.092  10.851  10.513  0.1007  0.7807  1.7441
  518MOL0     H69895  10.217  10.922  10.599 -1.7775  2.1022 -0.9026
  518MOL0     H69896  10.231  10.677  10.411  3.6437 -1.7477 -0.4409
  518MOL0     H69897  10.273  10.837  10.355 -0.7304 -1.7739 -0.5838
  518MOL0     H69898  10.431  10.691  10.567 -4.4418  1.2581  0.7595
  518MOL0     H69899  10.482  10.704  10.397  0.2995  1.6727 -1.1287
  518MOL0     H69900  10.474  10.938  10.589 -1.1710 -1.2471 -0.5886
  518MOL0     H69901  10.495  10.943  10.410  0.9667 -0.5341 -0.8292
  518MOL0     H69902  10.718  10.783  10.444 -2.3214 -2.5838  0.6016
  518MOL0     H69903  10.690  10.809  10.614 -0.6401  5.2296  3.3148
  518MOL0     H69904  10.703  11.047  10.588 -1.5843  1.1140 -1.6303
  518MOL0     H69905  10.850  10.943  10.566  1.2478  2.2562  2.0741
  518MOL0     H69906  10.688  11.087  10.354  0.4658  0.6311  0.9811
  518MOL0     H69907  10.821  10.975  10.312  0.9911  0.1402  0.2347
  518MOL0     H69908  10.969  11.109  10.465 -0.8645 -1.4951 -0.0953
  518MOL0     H69909  10.926  11.191  10.322 -0.2957 -2.2393 -1.4955
  518MOL0     H69910  10.305  10.834  10.828 -0.5757 -2.7922 -2.6316
  518MOL0     H69911  10.237  10.913  11.055  1.0065  2.8248 -1.5947
  518MOL0     H69912   9.821  10.771  11.473 -2.8638 -0.1233  0.0353
  518MOL0     H69913   9.754  10.905  11.668  0.8282  0.9545 -0.7953
  518MOL0     H69914   8.503  10.924  11.573  0.1551  2.0364  0.1082
  518MOL0     H69915   8.607  10.703  11.506 -0.9303  0.6573 -0.4300
  518MOL0     H69916   9.075  10.459  11.592 -0.9924  1.6121  0.1195
  518MOL0     H69917   9.167  10.252  11.532  1.5198  1.1372 -1.1940
  518MOL0     H69918   9.286   9.988  11.334  1.7223  0.9164 -0.4815
  518MOL0     H69919   9.302  10.161  11.313  4.7867 -3.0604 -3.2467
  518MOL0     H69920   9.354  10.059  11.112 -0.0304  1.1953  0.9442
  518MOL0     H69921   9.186  10.131  11.111 -2.5338 -1.9578 -0.1898
  518MOL0     H69922   9.158   9.912  11.001 -2.2364  2.6267 -0.1167
  518MOL0     H69923   9.091   9.896  11.158 -1.2124  1.9970 -1.3373
  518MOL0     H69924   9.296   9.779  11.254  3.6483  0.0923 -0.8295
  518MOL0     H69925   9.249   9.697  11.110 -0.2336 -0.1973  0.8460
  518MOL0     H69926   9.631   9.803  11.025  0.5904 -1.2580  0.5692
  518MOL0     H69927   8.946  10.212  11.172 -1.4894 -1.4299  1.3646
  518MOL0     H69928   8.721  10.473  11.238 -0.4010 -0.2441  0.8570
  518MOL0     H69929   8.860  10.528  11.125 -0.4400  1.0023  0.6098
  518MOL0     H69930   8.789  10.373  11.108 -0.9213 -2.0870  2.6511
  519MOL0     O69931   0.663  10.046   4.725 -0.4941 -0.3671  0.1149
  519MOL0     C69932   0.602   9.966   4.653  0.4532  0.1558 -0.1947
  519MOL0     O69933   0.542   9.999   4.533  0.3560  0.6817 -0.0786
  519MOL0     C69934   0.531  10.125   4.479 -0.7110 -0.6207  0.1001
  519MOL0     C69935   0.617  10.236   4.500 -0.9799 -0.5120 -0.6288
  519MOL0     C69936   0.612  10.365   4.447 -0.0685 -0.1403  0.1193
  519MOL0     C69937   0.516  10.391   4.351  0.0016 -0.4382 -0.1889
  519MOL0     O69938   0.497  10.507   4.290 -0.3319 -0.1876  0.2482
  519MOL0     C69939   0.616  10.552   4.229 -0.6765  0.1320  0.7182
  519MOL0     C69940   0.585  10.667   4.121 -0.5760 -0.3312  0.0310
  519MOL0     C69941   0.550  10.603   3.981 -0.4390  0.0508 -0.0313
  519MOL0     C69942   0.622  10.668   3.868 -0.9344 -0.0329 -0.2860
  519MOL0     C69943   0.766  10.611   3.858 -0.3608 -0.3855 -0.2425
  519MOL0     C69944   0.829  10.693   3.743  0.6400 -0.2431 -0.5006
  519MOL0     C69945   0.969  10.652   3.716  0.3360  0.8114  0.1707
  519MOL0     C69946   1.072  10.685   3.822 -0.4902 -0.0181 -0.0890
  519MOL0     N69947   1.201  10.605   3.801 -0.2089 -0.6365  0.3961
  519MOL0     C69948   1.237  10.569   3.672  0.1673 -0.0494 -0.7356
  519MOL0     C69949   1.322  10.471   3.686 -0.2848  0.0169  0.0188
  519MOL0     C69950   1.391  10.426   3.565  0.3128  0.7637  0.4997
  519MOL0     C69951   1.435  10.283   3.584  1.0723 -0.3415  0.1564
  519MOL0     C69952   1.468  10.220   3.453 -0.4410 -0.3320  0.8996
  519MOL0     C69953   1.496  10.073   3.472 -0.3465  0.1117  0.1226
  519MOL0     O69954   1.618  10.056   3.547  0.0120  0.4429  0.0558
  519MOL0     C69955   1.736   9.995   3.506  0.6558 -0.0857  0.8863
  519MOL0     C69956   1.836   9.970   3.600  0.4177 -0.0377 -0.4835
  519MOL0     C69957   1.953   9.905   3.563 -0.0806  0.0353 -0.9833
  519MOL0     C69958   1.983   9.871   3.428 -0.6554  0.9729 -0.9285
  519MOL0     C69959   2.120   9.820   3.395 -0.5728 -0.3816 -0.0154
  519MOL0     O69960   2.187   9.773   3.498  0.3578  0.2816 -0.8014
  519MOL0     C69961   2.296   9.689   3.478 -0.0515 -0.6311 -0.8426
  519MOL0     C69962   2.420   9.733   3.429  0.0484 -0.0692  0.3850
  519MOL0     C69963   2.527   9.650   3.424  0.7337  0.5883 -0.8071
  519MOL0     C69964   2.515   9.516   3.461 -0.5869 -0.0894  0.1417
  519MOL0     O69965   2.622   9.427   3.423  0.4894 -0.3185 -0.1765
  519MOL0     C69966   2.757   9.472   3.433 -0.4891  0.5874 -0.0170
  519MOL0     C69967   2.845   9.344   3.454 -0.1539  0.5440  0.0017
  519MOL0     C69968   2.840   9.313   3.605  0.2323  0.3743 -0.3945
  519MOL0     C69969   2.921   9.187   3.625 -0.9067  0.4935 -0.4825
  519MOL0     C69970   2.911   9.160   3.782  0.7394  0.1338  0.1063
  519MOL0     C69971   2.992   9.046   3.814  0.2461  0.6633 -0.0883
  519MOL0     C69972   2.988   9.023   3.965 -0.2308 -0.1336 -0.1923
  519MOL0     C69973   3.129   9.023   4.032  0.3521  0.4747  0.1169
  519MOL0    Cl69974   3.236   8.908   3.962  0.1536  0.3890  0.0121
  519MOL0     C69975   2.396   9.476   3.514  0.7421  0.2490 -0.3281
  519MOL0     C69976   2.290   9.562   3.520 -0.1046  0.3868 -1.0423
  519MOL0     O69977   2.155   9.826   3.279 -0.3296  1.4600 -0.5987
  519MOL0     C69978   1.889   9.900   3.330  0.0827 -0.4486 -0.0251
  519MOL0     C69979   1.767   9.970   3.366 -0.9663 -1.1756  0.0409
  519MOL0     N69980   1.343  10.440   3.821  0.4978  0.4664  0.2299
  519MOL0     N69981   1.259  10.519   3.891 -0.5758 -0.0815  0.0389
  519MOL0     C69982   0.412  10.296   4.341 -0.3100  0.4352  0.8607
  519MOL0     C69983   0.427  10.166   4.394  0.0256 -0.4324 -0.0791
  519MOL0     C69984   0.613   9.822   4.685  0.8030 -0.2810 -0.2180
  519MOL0     C69985   0.542   9.724   4.616 -0.1904 -0.3145 -0.2421
  519MOL0     C69986   0.524   9.589   4.655  0.0511 -0.7375 -0.6482
  519MOL0     C69987   0.602   9.549   4.766 -0.1231 -0.0988  0.5794
  519MOL0     O69988   0.587   9.416   4.797 -0.0205  0.2150  0.8194
  519MOL0     C69989   0.713   9.340   4.812 -0.8061 -0.2955 -0.5479
  519MOL0     C69990   0.740   9.255   4.682 -0.0529 -0.3612  0.1318
  519MOL0     C69991   0.640   9.140   4.660  0.7658 -0.1891 -0.6414
  519MOL0     C69992   0.701   9.035   4.565 -0.2135  0.7567 -0.4867
  519MOL0     C69993   0.737   9.106   4.437 -0.5952  1.0363 -0.1603
  519MOL0     C69994   0.795   9.146   4.334  0.1488 -0.8571 -1.1046
  519MOL0     C69995   0.669   9.644   4.844 -0.1194  0.2209 -0.2164
  519MOL0     C69996   0.681   9.776   4.808 -0.0392 -0.0057  0.9919
  519MOL0     C69997   0.788   9.854   4.889 -1.2070 -0.9389 -0.4151
  519MOL0     H69998   0.702  10.228   4.568 -1.4906  0.2737  0.1380
  519MOL0     H69999   0.688  10.438   4.474 -1.0246  1.0167 -0.1966
  519MOL0     H70000   0.677  10.609   4.300 -0.3884  5.0101 -2.8848
  519MOL0     H70001   0.674  10.467   4.193  1.9894  1.1584  2.2736
  519MOL0     H70002   0.679  10.721   4.108  0.9712 -3.1843 -1.6750
  519MOL0     H70003   0.518  10.749   4.151 -2.1100 -1.6745  0.4549
  519MOL0     H70004   0.443  10.592   3.960 -0.6748 -3.2222  2.2199
  519MOL0     H70005   0.583  10.499   3.976 -1.5311 -0.3172  0.1436
  519MOL0     H70006   0.561  10.667   3.777  0.6016 -0.2566 -1.3589
  519MOL0     H70007   0.634  10.774   3.891 -1.8005  0.6400 -2.5963
  519MOL0     H70008   0.817  10.635   3.952  1.0958 -1.8898 -0.6031
  519MOL0     H70009   0.769  10.504   3.836 -1.4301 -1.0323  2.3245
  519MOL0     H70010   0.767  10.673   3.655  2.5883  1.8413 -2.4805
  519MOL0     H70011   0.824  10.799   3.770  0.4666 -0.8950  2.3787
  519MOL0     H70012   0.991  10.675   3.611  2.1875 -1.5205 -0.0471
  519MOL0     H70013   0.961  10.543   3.709 -0.7830  0.8308  0.9156
  519MOL0     H70014   1.096  10.791   3.808  2.1192 -0.3959  0.9406
  519MOL0     H70015   1.045  10.692   3.928  3.3194  0.6043  0.9855
  519MOL0     H70016   1.205  10.617   3.580  0.5238 -0.2164 -0.9507
  519MOL0     H70017   1.331  10.440   3.475  0.7240  3.7633  0.5667
  519MOL0     H70018   1.483  10.484   3.546  0.7216 -0.6094 -2.2090
  519MOL0     H70019   1.534  10.287   3.630  2.1795  1.3014 -2.1481
  519MOL0     H70020   1.359  10.226   3.637 -2.0187  0.1346 -3.3555
  519MOL0     H70021   1.549  10.280   3.411 -1.0911  0.1565  0.3156
  519MOL0     H70022   1.394  10.234   3.374  2.8887  3.3288 -1.9728
  519MOL0     H70023   1.509  10.017   3.379  0.1641  0.5811 -0.0974
  519MOL0     H70024   1.423  10.021   3.533  2.8722 -1.8600  2.6412
  519MOL0     H70025   1.817  10.008   3.700 -0.0357  3.0913 -1.6527
  519MOL0     H70026   2.016   9.882   3.649  0.1121 -0.6237 -1.2901
  519MOL0     H70027   2.428   9.835   3.394  1.0706 -0.1559  0.3351
  519MOL0     H70028   2.621   9.688   3.386 -0.2941 -0.0769 -4.4151
  519MOL0     H70029   2.794   9.525   3.344 -1.3302 -0.4817 -1.0287
  519MOL0     H70030   2.777   9.535   3.520  0.8174 -0.0778  0.1833
  519MOL0     H70031   2.796   9.260   3.404  1.8141 -0.2846 -0.6379
  519MOL0     H70032   2.944   9.357   3.409  0.6709 -1.3684  1.1654
  519MOL0     H70033   2.888   9.400   3.650  1.5927 -0.0656 -0.9439
  519MOL0     H70034   2.739   9.311   3.649  1.6055  0.1605  3.0763
  519MOL0     H70035   3.022   9.206   3.588  0.6865 -1.3492  2.5017
  519MOL0     H70036   2.883   9.097   3.577 -0.8864 -0.2303  0.8164
  519MOL0     H70037   2.806   9.145   3.808  0.2903  4.2145  1.3163
  519MOL0     H70038   2.959   9.240   3.839 -1.6605  1.3753  0.5200
  519MOL0     H70039   2.952   8.954   3.770  2.3650  0.3452 -1.5220
  519MOL0     H70040   3.086   9.059   3.760 -0.8908  1.6868 -1.9174
  519MOL0     H70041   2.935   8.929   3.978 -3.9447  1.8771  0.5503
  519MOL0     H70042   2.940   9.106   4.017  0.9970 -0.9340  2.3516
  519MOL0     H70043   3.164   9.125   4.012 -2.0811  1.0508 -1.5553
  519MOL0     H70044   3.119   9.015   4.140 -0.4572 -0.6195 -0.0268
  519MOL0     H70045   2.367   9.376   3.547 -1.3492  1.0096  0.3295
  519MOL0     H70046   2.195   9.537   3.568  2.0116 -1.3168  2.7510
  519MOL0     H70047   1.920   9.877   3.228 -0.4489  1.9430 -0.7736
  519MOL0     H70048   1.695   9.994   3.287 -0.7385  2.9265  0.8559
  519MOL0     H70049   0.326  10.326   4.281  1.5279  0.1056 -2.1513
  519MOL0     H70050   0.344  10.099   4.378 -1.0381  0.3443  1.8719
  519MOL0     H70051   0.484   9.760   4.532  0.3508 -0.8723 -0.8679
  519MOL0     H70052   0.457   9.515   4.614 -0.3682 -2.7376  3.1575
  519MOL0     H70053   0.705   9.281   4.904 -1.3821 -1.3115 -1.2282
  519MOL0     H70054   0.797   9.406   4.836 -0.6109 -0.9565  0.6240
  519MOL0     H70055   0.837   9.204   4.678  0.0180 -0.1765 -0.5768
  519MOL0     H70056   0.734   9.319   4.594 -0.4318 -1.5569 -0.7260
  519MOL0     H70057   0.547   9.187   4.626  1.1615  0.3071 -1.0623
  519MOL0     H70058   0.615   9.090   4.754 -3.3494 -0.3988 -1.6684
  519MOL0     H70059   0.791   8.992   4.610 -0.5313  1.3141  0.7027
  519MOL0     H70060   0.639   8.950   4.533  0.7949 -0.5821  0.9950
  519MOL0     H70061   0.843   9.185   4.247  1.3529 -1.0032 -0.5163
  519MOL0     H70062   0.728   9.604   4.925 -0.2478  2.2588  0.9738
  519MOL0     H70063   0.856   9.796   4.951 -0.7477 -0.2920 -0.2978
  519MOL0     H70064   0.844   9.924   4.826 -0.1052 -3.4658 -2.3799
  519MOL0     H70065   0.737   9.925   4.956  1.8797  3.0381 -1.8339
  520MOL0     O70066   0.712   9.188   1.894 -0.3371  0.0291  0.5797
  520MOL0     C70067   0.794   9.264   1.837  0.3421 -0.0481 -0.2513
  520MOL0     O70068   0.865   9.361   1.897  0.6846 -1.2523  0.0412
  520MOL0     C70069   0.836   9.393   2.026  0.2797  0.7553 -0.0671
  520MOL0     C70070   0.795   9.520   2.064  0.4780 -0.1169  0.0888
  520MOL0     C70071   0.764   9.550   2.202 -1.6561  0.1283 -0.5531
  520MOL0     C70072   0.801   9.448   2.297  1.4382 -1.1597  0.1238
  520MOL0     O70073   0.808   9.507   2.421  0.1094 -0.2352 -0.0906
  520MOL0     C70074   0.728   9.442   2.531 -0.7393  0.1258  1.3717
  520MOL0     C70075   0.734   9.528   2.650 -0.1543  0.5524 -0.6525
  520MOL0     C70076   0.736   9.453   2.785 -0.2921  0.1758  0.2302
  520MOL0     C70077   0.740   9.546   2.909 -0.0431  0.1110 -0.3140
  520MOL0     C70078   0.750   9.470   3.030  0.0389 -0.3114  0.5447
  520MOL0     C70079   0.653   9.352   3.070  0.1234  0.2141 -0.2702
  520MOL0     C70080   0.694   9.295   3.210 -0.3363 -0.2650  0.3151
  520MOL0     C70081   0.572   9.251   3.290 -0.0460  0.3509  0.0563
  520MOL0     N70082   0.498   9.150   3.209  0.5321 -0.5058 -0.3680
  520MOL0     C70083   0.555   9.038   3.160  0.1731 -0.1162  0.5195
  520MOL0     C70084   0.459   9.003   3.066  0.2492 -0.2209 -0.5704
  520MOL0     C70085   0.456   8.892   2.964 -0.2320  0.8247 -0.8132
  520MOL0     C70086   0.334   8.802   2.968  0.1093  0.1541  0.1372
  520MOL0     C70087   0.342   8.695   2.860 -0.6489  0.7904 -0.5151
  520MOL0     C70088   0.262   8.578   2.921  0.9013  0.1093  0.0432
  520MOL0     O70089   0.258   8.460   2.832 -0.5904 -0.6769 -0.5360
  520MOL0     C70090   0.144   8.378   2.824 -0.1364  0.7657  0.8371
  520MOL0     C70091   0.008   8.407   2.863 -0.4162 -0.0033  0.4650
  520MOL0     C70092  -0.095   8.315   2.850 -0.1298  0.5450 -0.4878
  520MOL0     C70093  -0.071   8.189   2.790 -0.3974  0.7374  0.1773
  520MOL0     C70094  -0.179   8.096   2.789 -0.0192  0.1616 -0.1263
  520MOL0     O70095  -0.308   8.141   2.814  0.3978 -0.1893 -0.4117
  520MOL0     C70096  -0.422   8.076   2.777 -0.0958  0.1637 -0.8841
  520MOL0     C70097  -0.433   7.960   2.703  0.5138  0.2554 -0.7184
  520MOL0     C70098  -0.554   7.906   2.670 -0.9790 -0.0183  0.7997
  520MOL0     C70099  -0.670   7.964   2.720  0.0403  0.3370 -0.1902
  520MOL0     O70100  -0.797   7.908   2.698 -0.0867  0.2196 -0.9383
  520MOL0     C70101  -0.808   7.771   2.653 -0.7025  0.5955  0.5394
  520MOL0     C70102  -0.948   7.709   2.665 -0.6751  0.2604 -0.0651
  520MOL0     C70103  -1.054   7.823   2.652 -0.1391 -0.6509  0.6199
  520MOL0     C70104  -1.192   7.772   2.595 -0.0336 -0.1599 -0.0227
  520MOL0     C70105  -1.297   7.783   2.708  0.4629 -0.2476  0.9479
  520MOL0     C70106  -1.450   7.756   2.670  0.8333  0.1030 -0.2465
  520MOL0     C70107  -1.526   7.763   2.812 -0.2691 -0.5024 -0.1620
  520MOL0     C70108  -1.675   7.763   2.790 -0.1127 -0.3729  0.4085
  520MOL0    Cl70109  -1.752   7.739   2.944  0.5023 -0.1166 -0.3317
  520MOL0     C70110  -0.658   8.084   2.799  0.5910 -0.1518 -0.4265
  520MOL0     C70111  -0.538   8.145   2.821  0.0633  0.6924  0.0070
  520MOL0     O70112  -0.132   7.982   2.757  0.3139  0.0690  0.0865
  520MOL0     C70113   0.062   8.164   2.742  1.2623 -0.2611  0.0018
  520MOL0     C70114   0.163   8.261   2.749 -0.5089 -0.2861 -0.4240
  520MOL0     N70115   0.357   9.089   3.070  1.0716 -0.2376  0.0105
  520MOL0     N70116   0.381   9.187   3.147 -0.3085  0.1540 -0.0976
  520MOL0     C70117   0.831   9.316   2.264  0.6380 -0.7688  1.5297
  520MOL0     C70118   0.852   9.290   2.123  0.6651 -0.5701 -1.4735
  520MOL0     C70119   0.820   9.235   1.693  0.2219 -0.2226 -0.3456
  520MOL0     C70120   0.757   9.126   1.634  0.5993  0.5379 -0.1408
  520MOL0     C70121   0.753   9.099   1.501  0.4269  0.4726 -1.1669
  520MOL0     C70122   0.830   9.185   1.409  0.1113 -0.2852 -0.4466
  520MOL0     O70123   0.839   9.168   1.279  0.0497 -0.2620 -0.0811
  520MOL0     C70124   0.832   9.030   1.228  0.0830  0.7623  0.9120
  520MOL0     C70125   0.894   9.020   1.089  0.3698 -0.2841  0.1287
  520MOL0     C70126   0.861   9.134   0.992 -0.0214 -0.1659 -0.3450
  520MOL0     C70127   0.931   9.279   1.005 -0.1424 -0.1568  0.7347
  520MOL0     C70128   0.892   9.359   0.879 -0.1756  0.5218 -0.7758
  520MOL0     C70129   0.861   9.420   0.776 -0.4919  0.0151  0.4845
  520MOL0     C70130   0.885   9.305   1.458  0.9054 -0.4929  0.0082
  520MOL0     C70131   0.875   9.339   1.598  0.1785 -0.6452  0.8063
  520MOL0     C70132   0.934   9.474   1.624  0.4592 -0.8797 -0.2155
  520MOL0     H70133   0.793   9.601   1.992  0.1860  0.4160  0.6788
  520MOL0     H70134   0.749   9.652   2.235 -0.2084 -0.3584  1.8491
  520MOL0     H70135   0.624   9.432   2.501  0.2387  1.7227 -3.5214
  520MOL0     H70136   0.770   9.346   2.564 -1.5289 -0.3144  1.1128
  520MOL0     H70137   0.659   9.606   2.636 -0.7631 -0.3018 -2.4101
  520MOL0     H70138   0.825   9.587   2.644  0.6311 -0.4656  0.6278
  520MOL0     H70139   0.826   9.393   2.771  0.0434  0.1830  2.1367
  520MOL0     H70140   0.649   9.392   2.809 -1.3094  2.3453  2.5638
  520MOL0     H70141   0.822   9.617   2.895 -0.6868  0.4378 -3.2369
  520MOL0     H70142   0.651   9.610   2.915 -0.6884 -0.4437 -2.7341
  520MOL0     H70143   0.853   9.434   3.041  1.0274  2.0605 -0.2616
  520MOL0     H70144   0.737   9.548   3.105  2.1473  1.1354 -0.4962
  520MOL0     H70145   0.549   9.385   3.070 -0.6991 -2.0472  1.8294
  520MOL0     H70146   0.666   9.263   3.007  0.6432 -1.5090  2.1116
  520MOL0     H70147   0.745   9.369   3.273 -1.5330  0.1026  0.8701
  520MOL0     H70148   0.767   9.217   3.184  0.2539  1.4160 -3.9346
  520MOL0     H70149   0.602   9.217   3.389  2.4176 -0.2699 -0.8440
  520MOL0     H70150   0.505   9.336   3.309  0.2611  1.6837 -3.8644
  520MOL0     H70151   0.656   9.000   3.167  2.0511  4.1246 -0.5460
  520MOL0     H70152   0.457   8.928   2.861  1.0010  0.6557 -0.8784
  520MOL0     H70153   0.549   8.836   2.981  0.8035  2.5687 -0.4696
  520MOL0     H70154   0.345   8.754   3.066 -1.4966 -0.6797 -0.0478
  520MOL0     H70155   0.245   8.864   2.954  0.8013  0.8349 -1.4783
  520MOL0     H70156   0.445   8.658   2.864 -0.2222  2.0109  1.0961
  520MOL0     H70157   0.319   8.734   2.760 -1.0652  2.9370  0.3459
  520MOL0     H70158   0.160   8.611   2.942  2.0628  2.2624  3.1502
  520MOL0     H70159   0.314   8.553   3.015  0.4226  1.3402  0.6538
  520MOL0     H70160  -0.009   8.492   2.929 -1.2207  0.8998 -0.8418
  520MOL0     H70161  -0.192   8.343   2.891 -0.6045 -1.7494  0.1026
  520MOL0     H70162  -0.338   7.929   2.660  1.5530  3.8005 -1.3119
  520MOL0     H70163  -0.547   7.819   2.605  0.1823  1.2772 -0.8605
  520MOL0     H70164  -0.773   7.763   2.550 -2.7539  1.6454 -0.2780
  520MOL0     H70165  -0.747   7.705   2.716 -0.6323 -1.1893 -1.3003
  520MOL0     H70166  -0.963   7.634   2.587 -0.8610  1.5014 -1.2806
  520MOL0     H70167  -0.953   7.673   2.768 -0.5295 -0.6632 -0.3724
  520MOL0     H70168  -1.071   7.871   2.749 -0.8673  1.6109 -0.5452
  520MOL0     H70169  -1.031   7.898   2.575 -1.2585 -0.4935  0.4272
  520MOL0     H70170  -1.166   7.668   2.572  0.0394  0.2544 -2.0680
  520MOL0     H70171  -1.221   7.828   2.505 -0.3588 -1.4514 -0.7531
  520MOL0     H70172  -1.287   7.889   2.732 -1.9920  0.8750 -2.3028
  520MOL0     H70173  -1.250   7.716   2.781  4.0312  1.5905  0.5418
  520MOL0     H70174  -1.492   7.822   2.594  1.3805  0.2794 -0.4041
  520MOL0     H70175  -1.451   7.656   2.626  3.8946  0.9764 -2.6703
  520MOL0     H70176  -1.514   7.858   2.864  0.6990 -0.1630 -0.9839
  520MOL0     H70177  -1.482   7.690   2.881  1.7401  0.1820 -0.6550
  520MOL0     H70178  -1.702   7.861   2.750  2.1275  0.0991 -0.1037
  520MOL0     H70179  -1.713   7.699   2.710 -1.0504  0.5693  0.0763
  520MOL0     H70180  -0.742   8.135   2.844 -1.1539 -1.3592 -2.1506
  520MOL0     H70181  -0.540   8.228   2.890 -0.1594  0.8801 -0.2258
  520MOL0     H70182   0.091   8.069   2.697 -2.3956 -1.0238 -1.0469
  520MOL0     H70183   0.268   8.245   2.724 -0.8822 -1.6701 -1.2363
  520MOL0     H70184   0.848   9.233   2.332 -1.8897 -0.7639  2.2641
  520MOL0     H70185   0.889   9.191   2.102  1.7184  0.0272 -2.5413
  520MOL0     H70186   0.696   9.059   1.695  1.6520 -0.9695 -0.6709
  520MOL0     H70187   0.700   9.013   1.459  2.0266 -1.5984  0.8124
  520MOL0     H70188   0.731   8.989   1.236  0.6535 -1.4446 -1.5969
  520MOL0     H70189   0.890   8.978   1.305 -2.0844 -0.9705  1.4739
  520MOL0     H70190   0.851   8.930   1.044  0.8478 -1.4580  1.9176
  520MOL0     H70191   0.998   8.993   1.105  0.3350 -2.5287 -2.6230
  520MOL0     H70192   0.754   9.155   1.001 -0.1263 -0.0598 -1.5847
  520MOL0     H70193   0.886   9.100   0.891  1.7068  0.8654 -0.2976
  520MOL0     H70194   0.885   9.338   1.085  0.7991  0.9909  0.4594
  520MOL0     H70195   1.040   9.277   1.014  0.5901 -2.9624 -4.6543
  520MOL0     H70196   0.831   9.455   0.679 -0.0788 -1.5354 -0.2309
  520MOL0     H70197   0.939   9.370   1.390  1.3987  0.7590  1.5318
  520MOL0     H70198   1.042   9.455   1.622  0.2454 -2.3219  0.4938
  520MOL0     H70199   0.911   9.549   1.548  0.7449  0.6809  1.1714
  520MOL0     H70200   0.904   9.512   1.722  1.0858 -4.4390  1.5124
  521MOL0     O70201  10.124  11.452   8.255  1.0563 -0.1094 -0.1266
  521MOL0     C70202  10.067  11.488   8.363 -0.3655 -0.8790 -0.4230
  521MOL0     O70203  10.132  11.560   8.460  1.1342 -0.5264 -0.5484
  521MOL0     C70204  10.275  11.568   8.448  0.4052  0.6773 -0.3127
  521MOL0     C70205  10.357  11.491   8.515 -0.2101 -0.0906 -0.2339
  521MOL0     C70206  10.499  11.501   8.492  0.5187 -0.1803  0.2455
  521MOL0     C70207  10.543  11.602   8.404  0.9173 -0.3128 -0.2242
  521MOL0     O70208  10.683  11.614   8.379 -0.3241  0.9353  0.0371
  521MOL0     C70209  10.743  11.737   8.394 -0.0034 -0.5456  0.3526
  521MOL0     C70210  10.891  11.724   8.393  0.3603 -0.5518  0.8675
  521MOL0     C70211  10.956  11.686   8.257  0.6106 -0.2948  0.3128
  521MOL0     C70212  11.101  11.726   8.250 -0.0449  0.1201  0.3684
  521MOL0     C70213  11.161  11.696   8.107 -0.2874 -0.0379  0.3446
  521MOL0     C70214  11.305  11.757   8.108 -0.6676  0.2204 -0.0163
  521MOL0     C70215  11.390  11.680   8.010  0.0143  0.1279  1.0860
  521MOL0     C70216  11.338  11.663   7.868 -0.1538 -0.4583 -0.1474
  521MOL0     N70217  11.455  11.639   7.781  0.1168 -0.3441 -0.5740
  521MOL0     C70218  11.527  11.739   7.724 -1.0897 -0.7480  0.1973
  521MOL0     C70219  11.630  11.680   7.652  0.0166  0.2848 -0.0236
  521MOL0     C70220  11.736  11.753   7.571 -0.1491 -0.7353 -0.8262
  521MOL0     C70221  11.704  11.898   7.531  0.0226  0.0077 -0.2737
  521MOL0     C70222  11.827  11.963   7.464 -0.5891 -0.1355  0.4146
  521MOL0     C70223  11.823  11.952   7.312 -0.3382 -0.2127  0.6375
  521MOL0     O70224  11.873  12.074   7.254 -0.1359  0.0226 -0.0563
  521MOL0     C70225  11.899  12.071   7.115 -0.5218  0.1407  0.2554
  521MOL0     C70226  12.013  12.146   7.070  0.4498 -0.6810 -0.0908
  521MOL0     C70227  12.059  12.129   6.939 -0.2685 -0.4785  0.5991
  521MOL0     C70228  11.995  12.046   6.850 -0.0444  0.3996 -0.0988
  521MOL0     C70229  12.045  12.027   6.711 -0.0331  0.2050 -0.8861
  521MOL0     O70230  11.961  11.981   6.621 -0.0076 -0.5705  0.5006
  521MOL0     C70231  12.005  11.974   6.489 -1.3523 -0.2687 -0.0388
  521MOL0     C70232  12.071  11.859   6.443  0.2228 -1.2863  0.9912
  521MOL0     C70233  12.124  11.868   6.312 -0.2899 -0.4530  0.4940
  521MOL0     C70234  12.104  11.982   6.233  0.5440 -0.2027  0.5148
  521MOL0     O70235  12.159  11.988   6.112 -0.0572  0.4587  0.6370
  521MOL0     C70236  12.267  12.080   6.079  0.1789  0.1684 -1.7077
  521MOL0     C70237  12.296  12.096   5.932 -0.1186  0.3028 -0.4541
  521MOL0     C70238  12.196  12.192   5.861 -0.0773  0.1656 -0.8371
  521MOL0     C70239  12.198  12.343   5.906  0.4685  1.3739 -0.3837
  521MOL0     C70240  12.247  12.436   5.801 -0.5866  0.1657  0.3860
  521MOL0     C70241  12.247  12.579   5.867 -0.1382  0.0950  0.2666
  521MOL0     C70242  12.332  12.680   5.787  0.6502  0.3904  0.1198
  521MOL0     C70243  12.273  12.812   5.815 -0.6350 -0.2901  0.6043
  521MOL0    Cl70244  12.404  12.919   5.843 -0.1113 -0.0563  0.3897
  521MOL0     C70245  12.050  12.093   6.289  0.0460 -0.0910 -0.6976
  521MOL0     C70246  12.002  12.095   6.415 -0.0187  0.4053 -0.6600
  521MOL0     O70247  12.162  12.071   6.691  0.2144  1.0099  0.7396
  521MOL0     C70248  11.882  11.966   6.896 -0.0624  0.2762 -1.4440
  521MOL0     C70249  11.835  11.986   7.023 -0.1561  0.0867 -0.0486
  521MOL0     N70250  11.624  11.542   7.667  0.2465  0.3362 -0.6643
  521MOL0     N70251  11.520  11.519   7.759  0.3586  0.1145  0.0566
  521MOL0     C70252  10.455  11.691   8.352  0.6382 -0.6387 -0.3664
  521MOL0     C70253  10.320  11.683   8.379  0.0253 -0.5615  0.9171
  521MOL0     C70254   9.921  11.447   8.381 -0.3135 -0.9243 -0.0077
  521MOL0     C70255   9.894  11.329   8.442  0.1115 -0.3167 -0.3857
  521MOL0     C70256   9.758  11.294   8.461 -0.3952  0.0137  0.0703
  521MOL0     C70257   9.654  11.368   8.405  0.2207 -0.3616  0.0172
  521MOL0     O70258   9.526  11.315   8.424 -0.3937  0.2707  0.0534
  521MOL0     C70259   9.410  11.362   8.346 -0.3514  0.9382  0.4699
  521MOL0     C70260   9.273  11.346   8.421  0.5022  0.0072 -0.2649
  521MOL0     C70261   9.187  11.241   8.347  0.2317  0.4491 -0.4320
  521MOL0     C70262   9.052  11.213   8.423  0.1684  0.1740 -0.3083
  521MOL0     C70263   8.977  11.092   8.373  0.0208 -1.3899  0.0530
  521MOL0     C70264   8.909  11.016   8.311  0.9377  0.1682  0.4467
  521MOL0     C70265   9.678  11.499   8.350 -0.0702  0.6949 -0.0569
  521MOL0     C70266   9.820  11.539   8.334  1.0738 -0.1996 -0.5420
  521MOL0     C70267   9.861  11.664   8.256  0.0562  0.1337 -0.9473
  521MOL0     H70268  10.323  11.409   8.577  0.6229 -0.0853  0.2473
  521MOL0     H70269  10.576  11.436   8.534 -0.8101 -3.7058 -2.2208
  521MOL0     H70270  10.696  11.788   8.309 -1.7557  0.6195  1.9521
  521MOL0     H70271  10.708  11.781   8.487  1.4302 -2.8446  2.0824
  521MOL0     H70272  10.919  11.650   8.469 -0.7146 -2.2403 -0.3264
  521MOL0     H70273  10.930  11.821   8.428  0.7252 -0.2327 -0.3869
  521MOL0     H70274  10.909  11.750   8.182 -2.2637 -1.8658  0.6447
  521MOL0     H70275  10.941  11.581   8.231  1.3431  0.6253 -4.8429
  521MOL0     H70276  11.114  11.834   8.262 -1.3711  0.4011 -0.4870
  521MOL0     H70277  11.157  11.674   8.328 -2.3379  1.7696  3.3061
  521MOL0     H70278  11.164  11.587   8.095  1.4289 -0.0250  0.4677
  521MOL0     H70279  11.102  11.743   8.027  1.9294  0.2196 -1.2319
  521MOL0     H70280  11.299  11.862   8.077  1.6813  1.0615  2.0657
  521MOL0     H70281  11.355  11.755   8.205  0.2493 -0.6298 -0.4879
  521MOL0     H70282  11.408  11.573   8.029 -1.5483  0.1311  2.9147
  521MOL0     H70283  11.491  11.721   8.003  0.2760 -0.6513  0.0995
  521MOL0     H70284  11.284  11.568   7.862  0.3388 -0.7306 -5.3567
  521MOL0     H70285  11.278  11.742   7.822 -0.3540 -1.1340 -1.0930
  521MOL0     H70286  11.504  11.845   7.734  0.8704 -0.4175  1.6430
  521MOL0     H70287  11.824  11.758   7.635 -1.0421  1.5105  0.3372
  521MOL0     H70288  11.770  11.699   7.481  0.6508 -0.3947 -0.7413
  521MOL0     H70289  11.610  11.906   7.475 -1.1143  0.8722  1.6532
  521MOL0     H70290  11.687  11.957   7.622  0.5665  0.5735 -0.5321
  521MOL0     H70291  11.921  11.936   7.513  2.0406  1.0774 -3.4683
  521MOL0     H70292  11.826  12.067   7.497  2.5862 -0.7381  2.8683
  521MOL0     H70293  11.718  11.930   7.287  0.3966 -0.5749 -2.5841
  521MOL0     H70294  11.879  11.866   7.276  0.8261  0.6215  0.4073
  521MOL0     H70295  12.061  12.211   7.142  0.0662 -1.3432  0.7888
  521MOL0     H70296  12.145  12.194   6.927 -0.7423  0.6033  2.7293
  521MOL0     H70297  12.088  11.766   6.497  1.5533 -1.2267  0.7112
  521MOL0     H70298  12.179  11.783   6.272  1.0286 -0.7294  2.6978
  521MOL0     H70299  12.244  12.176   6.126  1.1178 -1.3763  2.2722
  521MOL0     H70300  12.354  12.045   6.136 -0.8258  0.5834  0.1512
  521MOL0     H70301  12.398  12.133   5.917  1.2285 -2.9308 -0.1635
  521MOL0     H70302  12.303  11.995   5.889  2.2964 -1.0508  2.7120
  521MOL0     H70303  12.209  12.184   5.753  1.5208  2.2402 -0.8675
  521MOL0     H70304  12.096  12.155   5.887 -0.6784  0.6251 -2.3757
  521MOL0     H70305  12.259  12.344   5.996  1.3741  2.4753 -0.9835
  521MOL0     H70306  12.099  12.376   5.939  0.5808  1.9042 -0.5679
  521MOL0     H70307  12.179  12.446   5.717 -1.0503 -2.2742  0.4222
  521MOL0     H70308  12.345  12.402   5.765 -0.5375 -1.2509  1.7646
  521MOL0     H70309  12.141  12.607   5.872  0.1211  2.1654 -2.9493
  521MOL0     H70310  12.285  12.572   5.970 -0.0724 -0.6045  0.1975
  521MOL0     H70311  12.308  12.658   5.683  1.3149 -2.3154  0.4667
  521MOL0     H70312  12.439  12.664   5.804  0.3795 -2.0021 -0.0037
  521MOL0     H70313  12.228  12.843   5.720  4.2290  0.2406 -1.8267
  521MOL0     H70314  12.209  12.807   5.904 -0.2425  0.3564  0.9303
  521MOL0     H70315  12.046  12.189   6.238 -0.6990  0.6000  0.5992
  521MOL0     H70316  11.981  12.189   6.464  2.0988  1.1500 -1.0887
  521MOL0     H70317  11.839  11.900   6.822 -0.5683  0.1637 -1.0516
  521MOL0     H70318  11.748  11.927   7.052 -0.0695 -0.5025 -0.9483
  521MOL0     H70319  10.498  11.775   8.299 -2.0068 -1.1700 -3.6647
  521MOL0     H70320  10.254  11.760   8.342  2.5375  1.6340  0.7059
  521MOL0     H70321   9.964  11.267   8.497 -1.1395  1.8834  4.2366
  521MOL0     H70322   9.719  11.206   8.513 -0.4078 -0.1953 -0.2904
  521MOL0     H70323   9.400  11.296   8.260 -0.4864 -0.0499  1.2228
  521MOL0     H70324   9.413  11.466   8.314  2.3800  1.2596  1.5433
  521MOL0     H70325   9.218  11.441   8.423  0.2341 -0.1564  1.2964
  521MOL0     H70326   9.283  11.312   8.524  1.9768 -2.1229 -1.0285
  521MOL0     H70327   9.247  11.150   8.350 -2.5910 -1.4937  2.1707
  521MOL0     H70328   9.167  11.273   8.244 -0.2712 -0.1153 -0.5108
  521MOL0     H70329   9.080  11.214   8.529  0.3718  0.6096 -0.3622
  521MOL0     H70330   8.990  11.301   8.405  1.0134  0.2807 -3.2813
  521MOL0     H70331   8.868  10.942   8.245  4.2561 -0.3410 -1.2645
  521MOL0     H70332   9.601  11.569   8.321 -1.8630 -1.0371  0.3470
  521MOL0     H70333   9.775  11.723   8.223  0.8091  0.9234 -1.5560
  521MOL0     H70334   9.927  11.740   8.300 -2.7831  3.7576 -2.4393
  521MOL0     H70335   9.914  11.615   8.174 -1.2170 -1.9711 -0.5813
  522MOL0     O70336  10.796   3.035   2.326 -0.1548 -0.1509 -0.5952
  522MOL0     C70337  10.701   2.965   2.294 -0.2899  1.1564 -0.0371
  522MOL0     O70338  10.670   2.931   2.168  0.0237 -0.0391  0.1978
  522MOL0     C70339  10.556   2.866   2.128  0.1277  0.4049 -0.0903
  522MOL0     C70340  10.567   2.729   2.134 -0.3770  0.6245  0.8228
  522MOL0     C70341  10.464   2.650   2.092 -0.7585 -0.5708 -0.5852
  522MOL0     C70342  10.352   2.709   2.025  0.5194  0.7777 -0.8011
  522MOL0     O70343  10.246   2.634   1.977  0.5957  0.3764  0.4478
  522MOL0     C70344  10.222   2.499   2.014 -0.2158 -0.2092  0.5999
  522MOL0     C70345  10.079   2.490   2.050  0.2365 -0.5546  0.4738
  522MOL0     C70346  10.026   2.344   2.058 -0.4789 -0.5045  0.0692
  522MOL0     C70347   9.904   2.332   2.137  0.0836 -0.2597  0.0188
  522MOL0     C70348   9.830   2.205   2.121  0.1040 -0.3110 -0.5903
  522MOL0     C70349   9.709   2.209   2.202  1.3307  0.5174 -0.7532
  522MOL0     C70350   9.634   2.073   2.190 -0.3198 -0.0232  0.3860
  522MOL0     C70351   9.492   2.075   2.258  0.3723  1.0661 -0.4320
  522MOL0     N70352   9.490   2.049   2.406 -0.3015 -0.1180  0.8079
  522MOL0     C70353   9.550   2.120   2.503 -0.1266 -0.2643 -0.5815
  522MOL0     C70354   9.504   2.063   2.617 -0.4681 -0.0995 -0.0417
  522MOL0     C70355   9.536   2.098   2.754  0.6171 -0.2005  0.4032
  522MOL0     C70356   9.459   2.217   2.813  0.4129 -0.8647 -0.1440
  522MOL0     C70357   9.307   2.194   2.837  0.4347 -0.2553  0.1544
  522MOL0     C70358   9.271   2.328   2.903 -0.7883 -0.7127 -0.0423
  522MOL0     O70359   9.318   2.327   3.040  0.0811  0.8935  0.1306
  522MOL0     C70360   9.226   2.263   3.127  0.1350 -0.0261 -0.2688
  522MOL0     C70361   9.275   2.259   3.268  0.2158  0.0494  0.9161
  522MOL0     C70362   9.200   2.194   3.364 -0.5841  0.5902 -0.5437
  522MOL0     C70363   9.085   2.114   3.341 -0.3127  0.2454 -0.6931
  522MOL0     C70364   9.025   2.019   3.432  0.6233  0.3002 -1.0100
  522MOL0     O70365   9.110   1.969   3.521 -0.2927 -0.0100  0.0965
  522MOL0     C70366   9.056   1.851   3.580 -0.5340  0.5600 -0.3916
  522MOL0     C70367   9.064   1.725   3.509  0.3926  0.9770 -0.5410
  522MOL0     C70368   9.017   1.611   3.572 -0.0736  0.9152  1.0592
  522MOL0     C70369   8.966   1.621   3.699 -0.2794  0.7172 -0.3656
  522MOL0     O70370   8.931   1.501   3.763 -0.2010  0.0067 -0.5926
  522MOL0     C70371   9.039   1.444   3.845  0.5377  0.6559 -0.0761
  522MOL0     C70372   9.038   1.295   3.828  0.4707  0.7026  0.2387
  522MOL0     C70373   9.113   1.258   3.700  0.4763  0.2351  0.6297
  522MOL0     C70374   9.165   1.121   3.707  0.4747  0.0847 -0.6705
  522MOL0     C70375   9.216   1.058   3.579  0.6100 -0.8320  0.3712
  522MOL0     C70376   9.366   1.083   3.552  0.6035  0.4359  0.9817
  522MOL0     C70377   9.418   1.003   3.439 -0.2918 -0.2172  0.2536
  522MOL0     C70378   9.559   1.031   3.387  0.0910 -0.5083 -0.0247
  522MOL0    Cl70379   9.681   1.020   3.518  0.1864  0.2814  0.0764
  522MOL0     C70380   8.962   1.743   3.773  1.0220 -0.1349  0.7442
  522MOL0     C70381   9.003   1.863   3.709  0.0724  0.5928 -0.4459
  522MOL0     O70382   8.904   1.983   3.416  1.1681 -0.1580  0.6609
  522MOL0     C70383   9.034   2.133   3.212 -0.6498  0.0301 -0.1786
  522MOL0     C70384   9.106   2.197   3.106 -1.0562  0.6316 -0.9024
  522MOL0     N70385   9.427   1.955   2.577 -0.3873  0.4415 -0.3469
  522MOL0     N70386   9.414   1.954   2.449 -0.8968  0.1810  1.2282
  522MOL0     C70387  10.344   2.836   2.013  0.3047 -0.2927 -0.5652
  522MOL0     C70388  10.448   2.921   2.063 -0.2552  0.1739 -0.3870
  522MOL0     C70389  10.609   2.920   2.399 -0.5783  0.3107 -1.1185
  522MOL0     C70390  10.481   2.971   2.424  0.5490 -0.6426 -0.0582
  522MOL0     C70391  10.396   2.918   2.528 -0.4569  0.5974 -0.8633
  522MOL0     C70392  10.441   2.817   2.614 -0.2628  0.7636 -0.5424
  522MOL0     O70393  10.342   2.762   2.696  0.6985  0.0350  0.1597
  522MOL0     C70394  10.388   2.658   2.787  1.7070 -0.2572 -0.1759
  522MOL0     C70395  10.275   2.563   2.845 -1.4404 -0.3240  0.2755
  522MOL0     C70396  10.158   2.639   2.918 -0.4695 -0.0328  0.3325
  522MOL0     C70397  10.068   2.531   2.983 -0.1638  0.0497  0.2728
  522MOL0     C70398   9.989   2.467   2.881  0.7602 -0.5402  0.4311
  522MOL0     C70399   9.906   2.429   2.800  0.2681  0.2531 -0.5898
  522MOL0     C70400  10.573   2.777   2.598  0.3882 -0.5527 -0.1581
  522MOL0     C70401  10.660   2.831   2.495 -0.8993  0.7938 -0.3661
  522MOL0     C70402  10.800   2.769   2.478  1.2298 -0.7281 -0.0061
  522MOL0     H70403  10.667   2.692   2.150 -0.3013 -0.7662 -2.2057
  522MOL0     H70404  10.469   2.541   2.100 -1.4164 -0.4632  2.8903
  522MOL0     H70405  10.244   2.433   1.929 -0.7966  0.0380  0.2496
  522MOL0     H70406  10.282   2.470   2.101  0.2642  0.7121  0.5817
  522MOL0     H70407  10.026   2.555   1.980  1.5672  2.2616  1.9250
  522MOL0     H70408  10.079   2.531   2.151  2.1879  2.3969 -0.6025
  522MOL0     H70409  10.102   2.276   2.099 -0.5320 -0.3996  0.3424
  522MOL0     H70410  10.015   2.310   1.955  0.8201 -1.1705  0.1204
  522MOL0     H70411   9.929   2.354   2.241  0.5695  1.9594 -0.5186
  522MOL0     H70412   9.846   2.418   2.102 -1.8275 -1.0962  0.9622
  522MOL0     H70413   9.803   2.185   2.017 -1.8632 -2.2591  0.2198
  522MOL0     H70414   9.896   2.129   2.163 -0.1320  0.4711  1.2684
  522MOL0     H70415   9.734   2.229   2.307  1.1831  0.9850 -0.8066
  522MOL0     H70416   9.648   2.289   2.158 -1.6536 -2.7967 -3.2070
  522MOL0     H70417   9.696   1.995   2.236  0.9612  1.8513  2.0488
  522MOL0     H70418   9.629   2.050   2.084  3.4386  0.6952 -0.0846
  522MOL0     H70419   9.448   2.173   2.239  1.2599  1.2911 -1.4067
  522MOL0     H70420   9.428   1.997   2.217  2.5093 -0.3667 -1.2458
  522MOL0     H70421   9.617   2.206   2.511 -0.7317  0.3795 -2.0215
  522MOL0     H70422   9.513   2.012   2.818  2.3394 -0.5336  0.6336
  522MOL0     H70423   9.641   2.126   2.770 -0.0732  1.5613  2.2642
  522MOL0     H70424   9.521   2.251   2.896  1.2012  0.9537 -1.4172
  522MOL0     H70425   9.469   2.294   2.736  3.8429 -3.1036 -2.2350
  522MOL0     H70426   9.277   2.109   2.897 -1.0725  2.7259  4.0487
  522MOL0     H70427   9.242   2.183   2.749  0.6766 -2.3957  0.2110
  522MOL0     H70428   9.164   2.349   2.906 -0.6985 -0.0539 -1.1364
  522MOL0     H70429   9.310   2.418   2.855 -0.6407 -1.6316 -1.7320
  522MOL0     H70430   9.362   2.318   3.295  1.3312 -1.6784  1.2187
  522MOL0     H70431   9.240   2.201   3.465 -0.2689  1.6576 -0.7288
  522MOL0     H70432   9.104   1.718   3.409 -1.0581  2.4561 -1.2773
  522MOL0     H70433   9.024   1.518   3.517  1.1960  3.4492 -3.5338
  522MOL0     H70434   9.137   1.485   3.819  1.1710 -1.6523 -1.7177
  522MOL0     H70435   9.014   1.448   3.951 -0.3647 -0.2608 -0.2405
  522MOL0     H70436   9.104   1.251   3.903  2.7272 -0.8469 -2.4830
  522MOL0     H70437   8.947   1.233   3.828  2.4970 -2.5241 -1.5240
  522MOL0     H70438   9.044   1.284   3.619 -2.3753  1.0080  3.1391
  522MOL0     H70439   9.195   1.330   3.691 -0.4795  1.3415  0.3834
  522MOL0     H70440   9.072   1.065   3.724 -1.9920  3.4138 -1.8369
  522MOL0     H70441   9.235   1.118   3.790  3.9887  0.6280 -3.4056
  522MOL0     H70442   9.158   1.106   3.499  0.4369 -2.3883 -0.4755
  522MOL0     H70443   9.188   0.953   3.588 -0.9107 -0.2311  4.0049
  522MOL0     H70444   9.388   1.188   3.529  1.9968 -0.1530 -0.6362
  522MOL0     H70445   9.424   1.038   3.634 -0.9242 -3.4127  0.1580
  522MOL0     H70446   9.343   1.016   3.361 -1.5923 -2.5635  1.0207
  522MOL0     H70447   9.420   0.899   3.471  3.4946 -1.4737 -3.1742
  522MOL0     H70448   9.574   0.961   3.304 -0.9925  1.2046 -1.7565
  522MOL0     H70449   9.558   1.132   3.345 -0.2435 -0.2824  0.5138
  522MOL0     H70450   8.921   1.723   3.871 -0.7036 -3.2830 -0.4712
  522MOL0     H70451   9.017   1.958   3.760  1.9754 -0.6364  1.5071
  522MOL0     H70452   8.948   2.071   3.188  2.0069 -2.9629 -3.0033
  522MOL0     H70453   9.060   2.193   3.008 -0.3995 -0.9505 -1.1668
  522MOL0     H70454  10.248   2.867   1.974 -2.8516 -2.0120  4.7279
  522MOL0     H70455  10.444   3.030   2.060 -3.7960  0.2148  1.0860
  522MOL0     H70456  10.449   3.055   2.363 -2.5593 -3.0345 -2.0484
  522MOL0     H70457  10.294   2.950   2.548 -1.0296 -1.6330  0.0663
  522MOL0     H70458  10.435   2.706   2.874 -0.3983 -1.2984  1.6298
  522MOL0     H70459  10.452   2.591   2.729 -0.5214 -4.3911  1.6942
  522MOL0     H70460  10.318   2.488   2.912  3.0948  1.1956 -0.6047
  522MOL0     H70461  10.228   2.511   2.760 -2.7121  1.1564  0.0284
  522MOL0     H70462  10.103   2.707   2.852 -0.5036  0.3966  0.8054
  522MOL0     H70463  10.207   2.702   2.993 -0.5330 -0.2115  0.5263
  522MOL0     H70464  10.132   2.458   3.033 -1.0351 -1.2625 -0.4578
  522MOL0     H70465  10.004   2.576   3.059 -2.4398 -2.1085 -0.2028
  522MOL0     H70466   9.829   2.405   2.730  0.2968  1.2681 -0.9889
  522MOL0     H70467  10.618   2.703   2.664 -2.1939 -0.9990  1.2349
  522MOL0     H70468  10.821   2.769   2.371 -1.3046 -0.9407 -0.5519
  522MOL0     H70469  10.873   2.839   2.522  1.2405 -1.0416  0.4862
  522MOL0     H70470  10.800   2.666   2.516 -2.9313 -0.5267  0.9560
  523MOL0     O70471   4.667   5.506   5.510 -0.3351  0.0280 -0.1480
  523MOL0     C70472   4.622   5.528   5.397  0.0368  0.3820  0.0724
  523MOL0     O70473   4.689   5.494   5.281  0.1810  0.0622 -0.5217
  523MOL0     C70474   4.816   5.443   5.278  0.1992 -0.0043  0.2071
  523MOL0     C70475   4.834   5.322   5.217 -0.2310  0.7895  0.4110
  523MOL0     C70476   4.963   5.267   5.201 -0.5467 -0.8516 -0.4624
  523MOL0     C70477   5.068   5.325   5.269 -1.0303  0.8695  0.0333
  523MOL0     O70478   5.191   5.265   5.249  0.2244 -0.1392  0.4717
  523MOL0     C70479   5.306   5.348   5.226  1.5684 -0.1710  0.1155
  523MOL0     C70480   5.431   5.262   5.205 -0.3973 -0.4953  0.5077
  523MOL0     C70481   5.456   5.228   5.048  0.2746 -0.2499  0.3817
  523MOL0     C70482   5.382   5.097   5.010 -0.1559  1.3125  0.2610
  523MOL0     C70483   5.354   5.072   4.856 -1.2185  0.2749 -0.2829
  523MOL0     C70484   5.254   5.166   4.792 -0.0558  0.2600 -0.3329
  523MOL0     C70485   5.237   5.133   4.635  0.0998  0.1709  0.3144
  523MOL0     C70486   5.132   5.022   4.611  0.0717 -0.8391  0.7592
  523MOL0     N70487   5.100   5.012   4.472  1.3467 -0.4570  0.4296
  523MOL0     C70488   5.192   4.969   4.377  0.8913  0.0341  0.3140
  523MOL0     C70489   5.126   5.009   4.256 -0.7350 -0.1039  0.2176
  523MOL0     C70490   5.190   4.996   4.115  0.5133 -0.2601  1.0409
  523MOL0     C70491   5.339   4.988   4.096 -0.3324 -0.4052 -0.6427
  523MOL0     C70492   5.376   4.989   3.941  1.1430 -0.9838 -0.0627
  523MOL0     C70493   5.352   4.852   3.874  0.7491  0.6764  0.2550
  523MOL0     O70494   5.439   4.755   3.938  0.4852 -0.2539 -0.1934
  523MOL0     C70495   5.521   4.688   3.851 -0.2243  0.7626  0.3009
  523MOL0     C70496   5.617   4.758   3.781 -0.2467 -0.2169 -0.0704
  523MOL0     C70497   5.703   4.691   3.693  1.1130 -0.3026 -0.0751
  523MOL0     C70498   5.687   4.559   3.666 -0.1012  0.6988 -0.0955
  523MOL0     C70499   5.768   4.502   3.560 -0.6994 -0.9739 -0.2282
  523MOL0     O70500   5.773   4.367   3.576 -0.2352 -0.7110 -0.6969
  523MOL0     C70501   5.846   4.273   3.508  0.5991  0.0021 -0.1487
  523MOL0     C70502   5.837   4.144   3.562  0.9298 -0.1724  0.1643
  523MOL0     C70503   5.884   4.027   3.491 -0.0144  0.3231 -0.0254
  523MOL0     C70504   5.953   4.048   3.374  0.4465 -0.1550 -0.3066
  523MOL0     O70505   5.991   3.929   3.309 -0.1115  0.2375 -0.2940
  523MOL0     C70506   5.988   3.937   3.167  1.5161  0.3851  0.3258
  523MOL0     C70507   6.016   3.795   3.123  0.8650  0.5452 -0.1404
  523MOL0     C70508   6.042   3.803   2.970 -0.1253 -0.2586  0.6136
  523MOL0     C70509   6.113   3.669   2.918 -0.4022 -0.8636 -0.0035
  523MOL0     C70510   6.103   3.647   2.764  0.2684 -0.0075  0.7226
  523MOL0     C70511   6.179   3.507   2.735  0.3752 -1.2217 -0.7033
  523MOL0     C70512   6.178   3.458   2.583  0.1169  1.1271  0.3789
  523MOL0     C70513   6.208   3.307   2.572 -0.5083 -0.0189  0.3798
  523MOL0    Cl70514   6.220   3.263   2.391 -0.1764 -0.1725 -0.2754
  523MOL0     C70515   5.979   4.182   3.331 -0.0674  0.8544 -0.2176
  523MOL0     C70516   5.918   4.294   3.397  0.9940 -0.3387 -0.1147
  523MOL0     O70517   5.813   4.570   3.468 -0.3731 -1.0289 -0.5461
  523MOL0     C70518   5.590   4.480   3.744 -0.2134 -1.1645  0.1497
  523MOL0     C70519   5.505   4.550   3.827  0.6823  0.2598 -0.2440
  523MOL0     N70520   5.012   5.082   4.289  0.2700  0.2396  0.7478
  523MOL0     N70521   4.994   5.066   4.419  0.1366 -0.2849 -0.7348
  523MOL0     C70522   5.054   5.447   5.335  0.4081  0.2283 -0.2427
  523MOL0     C70523   4.925   5.499   5.343 -0.2660 -0.2019  0.7328
  523MOL0     C70524   4.488   5.575   5.376 -0.0983  0.2091 -0.9911
  523MOL0     C70525   4.380   5.482   5.375  0.0676 -0.4428  0.9135
  523MOL0     C70526   4.249   5.521   5.351  1.3355 -0.1033 -0.0749
  523MOL0     C70527   4.221   5.658   5.330  0.7810  0.3689 -0.4658
  523MOL0     O70528   4.102   5.721   5.292  0.1713  0.1653 -0.1880
  523MOL0     C70529   3.979   5.662   5.322 -0.1544  1.0240 -1.2342
  523MOL0     C70530   3.953   5.647   5.470 -0.4825 -0.0027  0.8418
  523MOL0     C70531   3.952   5.780   5.536  0.5962  0.6901 -0.5019
  523MOL0     C70532   3.906   5.772   5.688 -0.3282  0.0769 -0.6992
  523MOL0     C70533   3.896   5.909   5.745  1.0501  0.5656  1.0717
  523MOL0     C70534   3.894   6.015   5.807 -0.6645 -0.3113  0.9608
  523MOL0     C70535   4.323   5.744   5.338 -0.9855 -0.1445 -0.2676
  523MOL0     C70536   4.462   5.707   5.351 -0.6231 -0.2391 -0.0771
  523MOL0     C70537   4.571   5.823   5.340  0.7543  1.0463 -0.7499
  523MOL0     H70538   4.756   5.272   5.160  0.6601  0.1129 -0.2672
  523MOL0     H70539   4.955   5.169   5.154 -0.4649 -2.2807  2.2544
  523MOL0     H70540   5.288   5.406   5.135 -1.5096 -0.6200  0.3260
  523MOL0     H70541   5.314   5.415   5.312 -5.4582  1.9036 -0.2083
  523MOL0     H70542   5.446   5.174   5.269  2.7091 -0.0929  0.4926
  523MOL0     H70543   5.511   5.333   5.229  0.2406 -1.2125  0.5746
  523MOL0     H70544   5.562   5.219   5.024 -0.6539 -2.9353 -3.7305
  523MOL0     H70545   5.431   5.313   4.984  3.7507  0.6423  0.0191
  523MOL0     H70546   5.443   5.011   5.040 -0.2326  1.6835  1.4943
  523MOL0     H70547   5.286   5.105   5.062  0.3371  0.7123  1.2871
  523MOL0     H70548   5.446   5.093   4.801  0.3818 -0.5872  1.9372
  523MOL0     H70549   5.325   4.967   4.851  2.4172 -0.9672  1.1379
  523MOL0     H70550   5.159   5.165   4.847 -1.6269 -0.8998 -2.8650
  523MOL0     H70551   5.289   5.268   4.802  2.6106 -0.6096 -0.1589
  523MOL0     H70552   5.334   5.107   4.591  0.1218 -3.0781  1.9797
  523MOL0     H70553   5.199   5.225   4.591 -0.1234  0.3784  0.9312
  523MOL0     H70554   5.158   4.921   4.644  0.4430 -1.3964 -1.1312
  523MOL0     H70555   5.047   5.062   4.668  0.5966  1.1114  0.2656
  523MOL0     H70556   5.284   4.912   4.389 -1.0234 -3.7117 -1.1381
  523MOL0     H70557   5.156   4.904   4.065  0.7450  1.2686 -2.1966
  523MOL0     H70558   5.147   5.084   4.067 -0.9664  0.2034  3.0674
  523MOL0     H70559   5.382   5.080   4.136  0.2483 -1.7063  1.8883
  523MOL0     H70560   5.384   4.897   4.137  0.5553 -1.3048 -3.3898
  523MOL0     H70561   5.483   5.008   3.933  1.1563  0.8707  2.8937
  523MOL0     H70562   5.327   5.075   3.896  2.1043  0.3956  1.4414
  523MOL0     H70563   5.371   4.864   3.767  2.3340 -1.7247  0.1830
  523MOL0     H70564   5.248   4.824   3.892  0.5425  2.2463  1.8435
  523MOL0     H70565   5.635   4.864   3.795 -0.9132 -0.1212  0.1232
  523MOL0     H70566   5.779   4.755   3.649  0.7966 -0.2365 -0.5322
  523MOL0     H70567   5.791   4.125   3.659  1.2191  0.1831  0.3743
  523MOL0     H70568   5.867   3.926   3.528  2.4949 -0.1423  0.0225
  523MOL0     H70569   5.893   3.969   3.125  0.2837 -2.0762  1.0658
  523MOL0     H70570   6.068   4.005   3.137  0.1181  1.9125 -0.0727
  523MOL0     H70571   6.111   3.760   3.163  1.0113 -0.5568 -1.3993
  523MOL0     H70572   5.934   3.726   3.146 -1.1504  1.5521 -3.5903
  523MOL0     H70573   5.939   3.811   2.934 -1.1096 -3.4221  2.3153
  523MOL0     H70574   6.098   3.888   2.930 -1.1244 -0.0874 -0.4981
  523MOL0     H70575   6.080   3.582   2.974  1.5606  0.6411  3.8602
  523MOL0     H70576   6.217   3.674   2.952 -0.6327  0.3465  0.5827
  523MOL0     H70577   6.149   3.730   2.710 -4.9481  1.0756 -2.7367
  523MOL0     H70578   5.997   3.643   2.741  0.7147 -4.5968 -1.7463
  523MOL0     H70579   6.278   3.511   2.780 -1.3361 -0.0682  3.3938
  523MOL0     H70580   6.127   3.432   2.794 -2.7570 -0.4191 -2.2291
  523MOL0     H70581   6.257   3.502   2.521  4.3291 -2.2709  2.7950
  523MOL0     H70582   6.082   3.473   2.532  0.0977  0.8985  0.3463
  523MOL0     H70583   6.305   3.302   2.623  0.1262 -4.7067 -0.8163
  523MOL0     H70584   6.139   3.244   2.628 -1.4596  2.2675  1.9149
  523MOL0     H70585   6.042   4.200   3.244  2.1677  2.3470  1.5905
  523MOL0     H70586   5.931   4.392   3.353  2.1063 -0.4165  0.0230
  523MOL0     H70587   5.578   4.372   3.735  0.9461 -1.6045  2.9437
  523MOL0     H70588   5.412   4.511   3.868  1.8540 -2.0171  0.4126
  523MOL0     H70589   5.135   5.500   5.383 -0.7894  1.5691  0.3636
  523MOL0     H70590   4.913   5.588   5.404  0.7597 -0.3060  1.1032
  523MOL0     H70591   4.402   5.377   5.392 -0.8287 -0.6457  0.8944
  523MOL0     H70592   4.164   5.453   5.348  1.4445 -0.2613  0.2789
  523MOL0     H70593   3.982   5.563   5.276  2.4806  2.7645 -5.3993
  523MOL0     H70594   3.907   5.725   5.269 -0.3033 -0.3728 -2.7678
  523MOL0     H70595   4.018   5.568   5.509  0.3532  0.6118  0.7197
  523MOL0     H70596   3.854   5.606   5.492  0.2862 -2.0200  0.6910
  523MOL0     H70597   3.887   5.849   5.482 -0.9035 -1.0259 -1.0310
  523MOL0     H70598   4.055   5.813   5.528  1.5707 -0.6593  3.7490
  523MOL0     H70599   3.815   5.715   5.705 -0.2484  0.1601  0.0871
  523MOL0     H70600   3.985   5.723   5.747  0.8588  1.2493 -1.2405
  523MOL0     H70601   3.902   6.108   5.860 -0.6601 -0.7318  1.7001
  523MOL0     H70602   4.305   5.850   5.320 -1.3376 -0.1019  0.3094
  523MOL0     H70603   4.673   5.796   5.369  0.0508 -1.5808 -0.4158
  523MOL0     H70604   4.571   5.857   5.236 -1.3146 -2.1363 -1.9437
  523MOL0     H70605   4.537   5.907   5.401  2.9150  1.1242  0.4492
  524MOL0     O70606   9.437   0.072   4.260 -0.0629  0.0812 -0.3107
  524MOL0     C70607   9.431   0.049   4.139 -0.0640 -0.0905  0.3712
  524MOL0     O70608   9.472   0.134   4.041  0.6430 -0.1615 -0.1262
  524MOL0     C70609   9.528   0.253   4.077 -1.2216  0.4163  0.2664
  524MOL0     C70610   9.470   0.377   4.050 -0.0359 -0.0750 -0.0606
  524MOL0     C70611   9.544   0.490   4.085 -0.9173 -0.1373 -0.1912
  524MOL0     C70612   9.678   0.479   4.135  0.3482 -0.1034  1.7360
  524MOL0     O70613   9.759   0.580   4.174  0.6578  0.4390  0.3914
  524MOL0     C70614   9.761   0.702   4.091  0.3933  1.0687  0.1356
  524MOL0     C70615   9.881   0.778   4.125 -0.0063 -0.4128 -0.0984
  524MOL0     C70616   9.885   0.902   4.038  0.0418 -0.2994  0.5607
  524MOL0     C70617   9.772   1.003   4.076 -0.9221 -0.2716  0.3848
  524MOL0     C70618   9.774   1.128   3.990 -0.4504  0.7454  0.1344
  524MOL0     C70619   9.885   1.221   4.022 -0.1191 -0.6518 -1.0452
  524MOL0     C70620   9.842   1.366   3.989 -0.0211  0.3075  0.2726
  524MOL0     C70621   9.935   1.434   3.897 -0.0704  0.1217 -0.7707
  524MOL0     N70622   9.916   1.410   3.751 -0.2136  0.3949  1.7185
  524MOL0     C70623   9.873   1.500   3.658  0.9008 -0.8777 -0.2142
  524MOL0     C70624   9.901   1.461   3.532 -0.2229  0.6430 -0.3627
  524MOL0     C70625   9.894   1.548   3.404  0.5638 -0.5371 -0.4625
  524MOL0     C70626   9.880   1.476   3.273 -0.0812  0.2402 -0.1456
  524MOL0     C70627   9.771   1.377   3.267  0.0523 -0.4057 -0.5394
  524MOL0     C70628   9.798   1.273   3.157 -0.3660  0.0778 -0.4056
  524MOL0     O70629   9.772   1.336   3.033 -0.6711  0.4366 -0.4436
  524MOL0     C70630   9.829   1.279   2.918 -0.8596  0.7088  0.0438
  524MOL0     C70631   9.881   1.151   2.917  0.1690 -0.3723 -0.1463
  524MOL0     C70632   9.918   1.087   2.801 -0.2424 -0.0444 -0.3624
  524MOL0     C70633   9.918   1.154   2.679  1.2051  0.1954  1.0167
  524MOL0     C70634   9.953   1.080   2.550 -0.1039  0.4370  0.1162
  524MOL0     O70635   9.983   0.951   2.570 -0.3316 -0.4966 -0.3496
  524MOL0     C70636   9.997   0.878   2.457 -0.0041 -1.3066  0.1028
  524MOL0     C70637  10.107   0.909   2.376 -0.3896 -1.2967 -0.0373
  524MOL0     C70638  10.145   0.817   2.281  0.1914 -0.1374  0.2761
  524MOL0     C70639  10.089   0.697   2.262  0.8406  0.2255 -0.6809
  524MOL0     O70640  10.128   0.615   2.162  0.0077  0.1603 -0.8820
  524MOL0     C70641  10.266   0.588   2.139 -0.5951  0.8040  0.0250
  524MOL0     C70642  10.274   0.472   2.027 -0.7905 -0.3255  0.3262
  524MOL0     C70643  10.229   0.329   2.074  1.0598 -0.6662  0.0656
  524MOL0     C70644  10.279   0.211   1.984 -0.0019  0.3271  0.4399
  524MOL0     C70645  10.218   0.083   2.021  0.0087 -0.0413  0.1696
  524MOL0     C70646  10.239   0.036   2.170  0.2286  1.3144 -0.4299
  524MOL0     C70647  10.384   0.038   2.212  0.0348 -0.4571  1.3878
  524MOL0     C70648  10.403  -0.000   2.350 -0.7542  0.4365  0.2032
  524MOL0    Cl70649  10.387  -0.176   2.374 -0.5297  0.0685 -0.2916
  524MOL0     C70650   9.973   0.662   2.334 -0.2166 -0.9392 -0.9887
  524MOL0     C70651   9.933   0.754   2.437  0.6623 -0.1156  0.3169
  524MOL0     O70652   9.959   1.142   2.440  0.2699 -0.0663 -0.4690
  524MOL0     C70653   9.874   1.284   2.677  0.6271  0.6022  0.2130
  524MOL0     C70654   9.825   1.347   2.796  0.6725  0.6186  0.5792
  524MOL0     N70655   9.971   1.335   3.557 -0.1631 -0.0814 -0.2231
  524MOL0     N70656   9.977   1.310   3.682  0.4762  0.2960  0.5636
  524MOL0     C70657   9.729   0.353   4.158  0.1766  0.6453  0.1993
  524MOL0     C70658   9.660   0.242   4.121  0.7566  0.0747  0.8999
  524MOL0     C70659   9.388  -0.084   4.093  0.6903  0.8865 -0.8127
  524MOL0     C70660   9.302  -0.093   3.975 -0.2917 -0.1967  0.4581
  524MOL0     C70661   9.270  -0.212   3.917  0.6859  0.0227  0.0164
  524MOL0     C70662   9.300  -0.332   3.982  0.3881  0.8936  0.4017
  524MOL0     O70663   9.272  -0.460   3.932 -0.7412  0.8537 -0.1529
  524MOL0     C70664   9.225  -0.467   3.797 -0.4140 -0.3106 -1.0334
  524MOL0     C70665   9.214  -0.601   3.733 -0.2762 -0.7412 -0.4309
  524MOL0     C70666   9.355  -0.656   3.703 -0.5442  0.2261 -0.4490
  524MOL0     C70667   9.343  -0.806   3.664  0.1150 -0.5302  0.5978
  524MOL0     C70668   9.469  -0.880   3.668 -0.3546 -0.9612  0.0167
  524MOL0     C70669   9.566  -0.949   3.656  0.1857  0.0418  0.5414
  524MOL0     C70670   9.377  -0.323   4.101 -0.6782  0.0446  0.5122
  524MOL0     C70671   9.418  -0.210   4.162  0.0287 -0.3070 -0.5638
  524MOL0     C70672   9.514  -0.213   4.280 -0.0603  0.0290 -0.0778
  524MOL0     H70673   9.376   0.379   3.997  1.0015  1.2806 -1.9865
  524MOL0     H70674   9.498   0.587   4.068 -1.3463  0.9001  5.1775
  524MOL0     H70675   9.763   0.666   3.988  0.2625  3.4570 -0.7742
  524MOL0     H70676   9.663   0.746   4.112 -1.1360 -1.1461 -1.8236
  524MOL0     H70677   9.965   0.713   4.096 -0.9344 -2.8051  2.1339
  524MOL0     H70678   9.887   0.805   4.231  0.2622  1.6080 -0.5830
  524MOL0     H70679   9.867   0.882   3.932  0.2618 -1.7758  0.7811
  524MOL0     H70680   9.984   0.948   4.040  0.4847 -1.0315 -1.3935
  524MOL0     H70681   9.676   0.953   4.067 -0.2938 -1.5203  0.4471
  524MOL0     H70682   9.774   1.030   4.182 -1.1638  0.1506  0.2852
  524MOL0     H70683   9.774   1.104   3.883  1.0192  2.4334 -0.2932
  524MOL0     H70684   9.677   1.175   4.009 -0.9364  0.3107 -1.1249
  524MOL0     H70685   9.912   1.212   4.127 -1.7628 -2.6404 -0.7390
  524MOL0     H70686   9.970   1.194   3.959  0.0680 -2.9677  0.1221
  524MOL0     H70687   9.841   1.422   4.084 -0.0341 -0.0840  0.5056
  524MOL0     H70688   9.742   1.376   3.947  0.6806  0.3495 -1.4513
  524MOL0     H70689   9.913   1.540   3.911 -0.9356  0.6174 -4.7536
  524MOL0     H70690  10.042   1.423   3.917  0.4541  0.5835 -3.1105
  524MOL0     H70691   9.832   1.600   3.673  0.5871 -0.6872 -2.0740
  524MOL0     H70692   9.808   1.615   3.414  0.3513 -0.8078 -0.4702
  524MOL0     H70693   9.984   1.609   3.396  0.6108 -0.1983  1.8465
  524MOL0     H70694   9.861   1.548   3.193  1.4380  0.3280 -0.4614
  524MOL0     H70695   9.978   1.431   3.254  0.1128  0.6836 -0.2145
  524MOL0     H70696   9.683   1.437   3.243  1.3317  1.2631 -1.3306
  524MOL0     H70697   9.754   1.334   3.366 -0.7482  1.6163  0.2416
  524MOL0     H70698   9.736   1.183   3.167  0.2905 -0.4804 -1.1924
  524MOL0     H70699   9.895   1.221   3.162 -0.6887 -0.5676 -0.7436
  524MOL0     H70700   9.890   1.095   3.010  0.9220  0.0312  0.0357
  524MOL0     H70701   9.947   0.982   2.808 -2.9441 -0.7294  2.9699
  524MOL0     H70702  10.172   0.996   2.381  0.2061 -1.5996 -1.8141
  524MOL0     H70703  10.231   0.839   2.219 -0.9996 -0.5673 -1.6186
  524MOL0     H70704  10.322   0.672   2.098 -0.7158  1.0503  0.3592
  524MOL0     H70705  10.320   0.551   2.227  1.4681  3.9623  0.2347
  524MOL0     H70706  10.209   0.499   1.944  0.7906 -2.1603 -1.6221
  524MOL0     H70707  10.378   0.451   2.001 -0.9924 -0.6686 -0.2200
  524MOL0     H70708  10.266   0.312   2.176 -0.5606 -0.8314  0.6637
  524MOL0     H70709  10.120   0.330   2.080  0.8975  1.2988 -1.8381
  524MOL0     H70710  10.389   0.207   1.981  0.1258  1.0097  2.6469
  524MOL0     H70711  10.247   0.225   1.881  2.8610 -2.0088 -0.9102
  524MOL0     H70712  10.257   0.010   1.950 -1.4873  0.0740 -0.8112
  524MOL0     H70713  10.112   0.095   2.001  0.4520  3.0331 -0.7739
  524MOL0     H70714  10.169   0.099   2.226 -2.8645 -0.3690 -2.0828
  524MOL0     H70715  10.225  -0.072   2.186  2.4697  1.0149 -0.2082
  524MOL0     H70716  10.438   0.131   2.193 -3.0812  0.9410 -1.4130
  524MOL0     H70717  10.441  -0.035   2.153 -3.0021 -2.1468  0.3641
  524MOL0     H70718  10.502   0.031   2.385 -0.7417  1.0653 -0.3765
  524MOL0     H70719  10.335   0.055   2.415 -2.2512  0.1445 -1.0408
  524MOL0     H70720   9.917   0.570   2.322  0.4687 -1.6167  0.6939
  524MOL0     H70721   9.850   0.729   2.502 -0.0992  0.7884 -0.2787
  524MOL0     H70722   9.851   1.339   2.586 -1.6920  0.4994  0.6759
  524MOL0     H70723   9.772   1.442   2.791 -1.2255 -0.3755  0.6440
  524MOL0     H70724   9.821   0.335   4.213 -0.4447 -0.1259  1.0127
  524MOL0     H70725   9.713   0.148   4.135 -0.1627 -0.6028 -0.0550
  524MOL0     H70726   9.257  -0.007   3.926 -1.1964 -1.4834 -1.0358
  524MOL0     H70727   9.216  -0.204   3.823  2.2671 -3.5195 -1.3750
  524MOL0     H70728   9.287  -0.412   3.725 -0.8270 -1.6137 -2.4470
  524MOL0     H70729   9.128  -0.415   3.793 -0.7556 -0.8560 -0.0419
  524MOL0     H70730   9.162  -0.582   3.639 -0.8467 -1.9802 -0.3780
  524MOL0     H70731   9.151  -0.661   3.799  1.6804  1.7324  4.1742
  524MOL0     H70732   9.417  -0.631   3.789  1.1185 -2.0889 -0.8813
  524MOL0     H70733   9.380  -0.596   3.615  0.7258 -1.7782 -1.5303
  524MOL0     H70734   9.261  -0.848   3.723 -2.0011  1.7828 -0.4951
  524MOL0     H70735   9.315  -0.814   3.559  0.1312  2.2118  0.2921
  524MOL0     H70736   9.643  -1.024   3.651 -0.7594 -0.9602  0.5717
  524MOL0     H70737   9.394  -0.418   4.152 -0.4634 -0.0930  0.1921
  524MOL0     H70738   9.557  -0.312   4.299  2.5462  0.9052 -1.0196
  524MOL0     H70739   9.600  -0.148   4.262 -0.5872  1.3974  1.9850
  524MOL0     H70740   9.466  -0.170   4.369 -1.4957 -0.9043 -0.3611
  525MOL0     O70741   1.097   5.095   8.234 -0.9953  0.2548 -0.5071
  525MOL0     C70742   1.126   5.157   8.133  0.4389  0.4241  0.9286
  525MOL0     O70743   1.041   5.155   8.022 -1.0808  0.2139  0.2651
  525MOL0     C70744   0.917   5.093   8.010  0.5362 -0.2278  0.1741
  525MOL0     C70745   0.855   5.013   8.109  0.4052  0.2473  0.0748
  525MOL0     C70746   0.725   4.973   8.086 -0.5775 -0.2052 -0.4266
  525MOL0     C70747   0.643   5.019   7.980 -0.1684 -0.0175  0.5397
  525MOL0     O70748   0.510   4.999   7.945 -0.4532 -0.2517 -0.2374
  525MOL0     C70749   0.425   4.903   8.003  0.1461  0.1724  0.6441
  525MOL0     C70750   0.285   4.953   8.003 -0.0913 -0.1714  1.0299
  525MOL0     C70751   0.193   4.870   8.079 -0.6160  1.1304  0.0178
  525MOL0     C70752   0.046   4.901   8.070 -0.0578 -0.1273  0.4061
  525MOL0     C70753  -0.027   4.778   8.103  0.5642 -0.4084 -0.1543
  525MOL0     C70754  -0.174   4.811   8.111  0.8148 -0.0960  0.2822
  525MOL0     C70755  -0.268   4.696   8.128  0.1648 -0.5046 -0.1635
  525MOL0     C70756  -0.316   4.648   7.997 -0.9394  0.3660  0.3140
  525MOL0     N70757  -0.219   4.577   7.913  0.2346 -0.1442  0.8087
  525MOL0     C70758  -0.155   4.450   7.932 -0.3356 -0.2116 -0.3199
  525MOL0     C70759  -0.059   4.439   7.837 -0.0652 -0.1033 -0.8942
  525MOL0     C70760   0.050   4.348   7.834 -0.8827  0.7414 -0.0528
  525MOL0     C70761   0.030   4.231   7.931  1.0074 -0.3221  0.1361
  525MOL0     C70762   0.119   4.116   7.899 -0.9447 -0.0593  0.0676
  525MOL0     C70763   0.270   4.169   7.878  0.7675  0.1127  0.0706
  525MOL0     O70764   0.313   4.250   7.986 -0.2521 -0.1671 -0.5845
  525MOL0     C70765   0.435   4.311   7.973 -0.0537  1.4173 -0.9875
  525MOL0     C70766   0.544   4.261   7.886 -0.0938  0.1553  0.0071
  525MOL0     C70767   0.668   4.339   7.870  1.2078 -0.2682  0.0236
  525MOL0     C70768   0.674   4.464   7.930  0.2785  1.2789  0.7290
  525MOL0     C70769   0.798   4.536   7.935  0.2521  0.0689  0.1574
  525MOL0     O70770   0.791   4.667   7.971  0.0128 -0.7101 -0.5814
  525MOL0     C70771   0.919   4.722   7.976 -0.6288  0.5283 -0.6375
  525MOL0     C70772   0.963   4.804   7.869 -0.2155  0.4446  0.9675
  525MOL0     C70773   1.093   4.850   7.861  1.0046 -0.3442 -1.0062
  525MOL0     C70774   1.177   4.826   7.969  0.2162 -0.1799  0.5792
  525MOL0     O70775   1.309   4.863   7.939  0.3326 -0.1100 -0.3724
  525MOL0     C70776   1.403   4.853   8.050  0.2569  0.0766 -0.4006
  525MOL0     C70777   1.540   4.889   7.994  0.1532  0.2059  0.0882
  525MOL0     C70778   1.547   5.027   7.952  0.5129 -0.0423  0.1187
  525MOL0     C70779   1.686   5.058   7.887  0.0137 -0.2276  0.6980
  525MOL0     C70780   1.812   5.044   7.979 -0.1330 -1.0020  1.1857
  525MOL0     C70781   1.936   5.066   7.887 -0.0678 -0.2847  0.5865
  525MOL0     C70782   2.073   5.022   7.944 -1.1296 -0.2750  0.0011
  525MOL0     C70783   2.181   5.014   7.838 -0.5677 -0.1180  0.3755
  525MOL0    Cl70784   2.234   5.182   7.796 -0.1618 -0.4111  0.0683
  525MOL0     C70785   1.131   4.760   8.079  0.0516  0.1939 -0.2410
  525MOL0     C70786   1.009   4.701   8.080  1.0325 -0.3522 -0.4918
  525MOL0     O70787   0.905   4.474   7.908 -0.6755  0.3230 -0.3992
  525MOL0     C70788   0.568   4.514   8.003  1.0415  0.1106  0.1729
  525MOL0     C70789   0.455   4.437   8.031  0.7228 -0.1944  0.0194
  525MOL0     N70790  -0.067   4.553   7.749 -1.0042  0.1425  0.5511
  525MOL0     N70791  -0.151   4.643   7.809 -0.3899  0.2558 -0.1835
  525MOL0     C70792   0.707   5.101   7.881  0.9976  0.4464  0.7019
  525MOL0     C70793   0.841   5.120   7.891 -0.2030 -0.0338  0.9472
  525MOL0     C70794   1.245   5.239   8.101  0.2456  0.3488 -0.2730
  525MOL0     C70795   1.269   5.276   7.969  0.1491  1.5949  0.4595
  525MOL0     C70796   1.391   5.329   7.930  0.4068  0.5078 -0.0664
  525MOL0     C70797   1.493   5.359   8.021 -0.8134 -0.3321  0.2075
  525MOL0     O70798   1.617   5.390   7.977 -0.0526 -0.8792  0.1148
  525MOL0     C70799   1.614   5.501   7.882 -0.0423 -1.1796 -0.1366
  525MOL0     C70800   1.749   5.514   7.809  0.7637  1.0458 -0.1707
  525MOL0     C70801   1.765   5.465   7.666  0.9033 -0.6333  1.0293
  525MOL0     C70802   1.712   5.556   7.554 -0.3420 -0.3377 -0.5195
  525MOL0     C70803   1.570   5.552   7.550  0.2418 -0.1567  0.4753
  525MOL0     C70804   1.445   5.554   7.535  0.4381 -1.5516 -0.3282
  525MOL0     C70805   1.460   5.336   8.151 -0.2521  0.4590 -0.0329
  525MOL0     C70806   1.340   5.271   8.200  0.5534  0.0524  0.5555
  525MOL0     C70807   1.326   5.238   8.347 -0.7412 -0.0204 -0.0486
  525MOL0     H70808   0.896   4.977   8.203  1.9716 -3.1290 -1.7570
  525MOL0     H70809   0.675   4.913   8.161 -1.8906  2.7306  1.2198
  525MOL0     H70810   0.432   4.806   7.952 -2.9538  0.1769  0.0290
  525MOL0     H70811   0.459   4.883   8.105  2.9020  1.0808 -0.0194
  525MOL0     H70812   0.249   4.954   7.899 -5.1816  0.0240  2.5027
  525MOL0     H70813   0.271   5.054   8.043  2.6594  0.1156  1.4732
  525MOL0     H70814   0.215   4.880   8.186  4.1126  0.6308 -0.6725
  525MOL0     H70815   0.217   4.771   8.040 -1.8140  0.3291  1.2152
  525MOL0     H70816   0.015   4.991   8.124  1.1469  0.9928 -0.7049
  525MOL0     H70817   0.025   4.926   7.965 -0.6512 -0.8626  0.3369
  525MOL0     H70818  -0.021   4.697   8.029  1.6377 -0.9653  0.5044
  525MOL0     H70819   0.010   4.735   8.197 -2.4127 -1.1018  0.8180
  525MOL0     H70820  -0.189   4.872   8.201 -1.0694  1.7289 -1.1553
  525MOL0     H70821  -0.208   4.886   8.038  1.4537  3.0618  2.9852
  525MOL0     H70822  -0.356   4.732   8.181  0.8575  0.2367  0.5114
  525MOL0     H70823  -0.233   4.621   8.200  3.1646  1.1005  0.2253
  525MOL0     H70824  -0.399   4.579   8.014 -1.0615  0.3200 -0.4662
  525MOL0     H70825  -0.352   4.735   7.940  2.6621  0.7814 -1.5826
  525MOL0     H70826  -0.173   4.382   8.015  2.7256 -1.3632 -0.4740
  525MOL0     H70827   0.066   4.309   7.733  0.3570 -2.0567  1.1281
  525MOL0     H70828   0.141   4.402   7.859  0.4272 -0.3771 -2.1194
  525MOL0     H70829   0.050   4.264   8.033  2.8768  0.9497 -0.5913
  525MOL0     H70830  -0.073   4.196   7.919  0.1570  2.5354 -2.2964
  525MOL0     H70831   0.078   4.057   7.816 -2.2338  2.8324 -1.5045
  525MOL0     H70832   0.127   4.041   7.979  1.4664 -0.8082 -0.7762
  525MOL0     H70833   0.262   4.225   7.784 -3.2383  0.4517  0.4290
  525MOL0     H70834   0.325   4.075   7.878 -2.4604 -1.9753 -1.7023
  525MOL0     H70835   0.530   4.160   7.849 -0.4002  0.3329 -0.3693
  525MOL0     H70836   0.753   4.295   7.819 -0.5676 -4.3204  0.1388
  525MOL0     H70837   0.899   4.818   7.782  1.2068 -1.3678 -0.4665
  525MOL0     H70838   1.138   4.899   7.775  1.5770 -2.5945 -2.0420
  525MOL0     H70839   1.364   4.921   8.126  0.2118 -1.6902  1.2477
  525MOL0     H70840   1.413   4.755   8.097  1.3470 -1.0303 -2.7819
  525MOL0     H70841   1.620   4.867   8.065  3.2770  2.2136 -2.4829
  525MOL0     H70842   1.548   4.823   7.907 -0.4884 -2.9525  2.2463
  525MOL0     H70843   1.468   5.059   7.883 -0.8132 -0.7487  1.2518
  525MOL0     H70844   1.542   5.096   8.037  0.8274  2.9911 -2.1673
  525MOL0     H70845   1.664   5.162   7.861  0.3777 -0.0395  1.1261
  525MOL0     H70846   1.700   5.003   7.794 -0.9643 -1.5522  1.3033
  525MOL0     H70847   1.815   4.949   8.031 -0.6931 -2.0775 -0.6430
  525MOL0     H70848   1.789   5.132   8.040 -5.6060  1.0160 -2.9713
  525MOL0     H70849   1.915   5.006   7.798  1.9961  1.1038 -0.9400
  525MOL0     H70850   1.930   5.169   7.851  0.3439 -0.4596 -0.0033
  525MOL0     H70851   2.069   4.917   7.975 -0.2209 -1.3325 -3.0433
  525MOL0     H70852   2.110   5.085   8.025  1.1155 -0.4280 -0.8263
  525MOL0     H70853   2.275   4.972   7.876  0.2095 -0.2918 -1.6472
  525MOL0     H70854   2.165   4.962   7.743  1.5909  1.6628 -1.0454
  525MOL0     H70855   1.211   4.718   8.139  2.7072  1.2481 -2.8624
  525MOL0     H70856   0.983   4.634   8.161 -2.6914 -0.0145 -1.2454
  525MOL0     H70857   0.570   4.611   8.053 -1.9472  0.5403 -0.3258
  525MOL0     H70858   0.379   4.450   8.107  1.2060 -2.6278  1.0284
  525MOL0     H70859   0.655   5.129   7.790  2.2692 -1.3701 -0.6431
  525MOL0     H70860   0.898   5.167   7.811 -0.2040 -1.4239  0.0969
  525MOL0     H70861   1.210   5.234   7.888  0.7588 -0.1024  0.8562
  525MOL0     H70862   1.413   5.348   7.825  2.0344  3.2262  0.6853
  525MOL0     H70863   1.599   5.592   7.941 -0.9341 -1.7337  0.5174
  525MOL0     H70864   1.538   5.490   7.804  0.7259  1.3071 -1.3379
  525MOL0     H70865   1.823   5.461   7.870 -1.2473 -2.4675 -0.5195
  525MOL0     H70866   1.788   5.616   7.816  3.7175  0.2053 -2.3347
  525MOL0     H70867   1.720   5.366   7.650 -0.7594  0.5883 -3.6399
  525MOL0     H70868   1.873   5.451   7.651  0.9095 -2.3221  2.3561
  525MOL0     H70869   1.740   5.662   7.561  2.1923 -0.7958 -2.4574
  525MOL0     H70870   1.742   5.519   7.456 -0.3533  1.8965 -1.4401
  525MOL0     H70871   1.339   5.562   7.525  0.7291  3.0282 -1.7315
  525MOL0     H70872   1.539   5.355   8.224  0.2956  0.7301 -0.6877
  525MOL0     H70873   1.229   5.273   8.384 -0.6682  0.7379 -0.5552
  525MOL0     H70874   1.329   5.129   8.353 -1.6736 -0.0150  0.8592
  525MOL0     H70875   1.409   5.277   8.408 -0.3050  1.5665 -1.5829
  526MOL0     O70876  10.964   0.226   6.059 -0.0070 -0.2035  0.2995
  526MOL0     C70877  11.058   0.143   6.059  0.0147 -0.0674 -0.3553
  526MOL0     O70878  11.149   0.124   5.956  0.0270  0.1695 -0.8247
  526MOL0     C70879  11.138   0.203   5.843  0.5513 -0.5954 -0.3101
  526MOL0     C70880  11.184   0.335   5.837  0.3396 -0.1206  0.3871
  526MOL0     C70881  11.155   0.421   5.720 -0.1739  0.1172  0.1536
  526MOL0     C70882  11.070   0.374   5.616  0.4430  0.1316 -0.5135
  526MOL0     O70883  11.012   0.457   5.519 -1.2841 -0.2278 -0.0028
  526MOL0     C70884  11.072   0.435   5.386  0.2736 -0.4338 -1.1824
  526MOL0     C70885  11.073   0.565   5.310 -0.5791 -0.5191 -0.4630
  526MOL0     C70886  10.945   0.639   5.294 -0.1363 -1.0269  0.4832
  526MOL0     C70887  10.962   0.792   5.261 -0.1533  0.7596 -0.4395
  526MOL0     C70888  10.827   0.868   5.270  0.8072  0.4483  0.8900
  526MOL0     C70889  10.726   0.818   5.169  0.0476 -0.8596  0.8491
  526MOL0     C70890  10.785   0.819   5.026  0.3003  0.2739 -0.2288
  526MOL0     C70891  10.687   0.767   4.922  0.2488  0.6326 -0.0190
  526MOL0     N70892  10.655   0.626   4.956 -0.2712 -0.1262 -0.2227
  526MOL0     C70893  10.743   0.523   4.938 -0.6641 -0.3846 -0.9263
  526MOL0     C70894  10.702   0.424   5.019  0.2400 -0.3414  0.0496
  526MOL0     C70895  10.794   0.309   5.045  0.5725  0.0042  0.1968
  526MOL0     C70896  10.712   0.193   5.115 -0.3910  1.2564  0.0028
  526MOL0     C70897  10.697   0.212   5.265  0.1189  0.7775 -0.7891
  526MOL0     C70898  10.583   0.120   5.322 -0.0031  0.1590 -0.0824
  526MOL0     O70899  10.553   0.168   5.448  0.3627 -0.2352 -1.0592
  526MOL0     C70900  10.443   0.116   5.509  1.0027 -0.3560  0.2623
  526MOL0     C70901  10.386  -0.013   5.478  0.0728  0.5330 -0.1946
  526MOL0     C70902  10.263  -0.055   5.538 -0.0987 -0.2748  0.1410
  526MOL0     C70903  10.194   0.027   5.635 -0.5888 -1.2572  0.4182
  526MOL0     C70904  10.068  -0.021   5.703 -0.3206  0.8464  0.2614
  526MOL0     O70905  10.004  -0.122   5.632 -0.3127 -0.0720 -0.1046
  526MOL0     C70906   9.922  -0.220   5.684  0.5912 -1.5211  0.6934
  526MOL0     C70907   9.870  -0.305   5.591  0.5170 -0.1136  0.0721
  526MOL0     C70908   9.780  -0.402   5.634  0.4704  0.1279 -0.1062
  526MOL0     C70909   9.719  -0.402   5.767  0.9067 -0.0769  0.7428
  526MOL0     O70910   9.626  -0.496   5.813  0.3563 -0.4212  0.1705
  526MOL0     C70911   9.522  -0.513   5.716  0.0143  0.2376 -0.0686
  526MOL0     C70912   9.392  -0.519   5.788 -0.4315 -1.0747  0.2537
  526MOL0     C70913   9.386  -0.634   5.879  0.2637 -0.0488 -1.0178
  526MOL0     C70914   9.244  -0.654   5.937 -0.1706 -0.8153  1.2598
  526MOL0     C70915   9.129  -0.634   5.839  0.0153 -0.0106  0.3458
  526MOL0     C70916   8.982  -0.658   5.884 -0.0197 -0.4238  1.0239
  526MOL0     C70917   8.967  -0.795   5.953  1.0851 -0.3915 -0.4401
  526MOL0     C70918   8.837  -0.866   5.912  0.6856 -0.2271  0.5482
  526MOL0    Cl70919   8.707  -0.768   5.963 -0.3437 -0.1311 -0.2968
  526MOL0     C70920   9.764  -0.311   5.850  0.2787 -0.5448 -0.0728
  526MOL0     C70921   9.867  -0.220   5.811 -0.9716 -0.1695  1.0057
  526MOL0     O70922  10.055   0.012   5.825 -0.0242 -0.2944  0.8440
  526MOL0     C70923  10.247   0.156   5.661 -0.3904 -0.8112  0.2376
  526MOL0     C70924  10.376   0.194   5.603  0.2033 -0.3079 -0.2587
  526MOL0     N70925  10.588   0.459   5.086  0.5182 -0.0244 -0.0759
  526MOL0     N70926  10.558   0.578   5.046  0.5358  0.3906  0.0978
  526MOL0     C70927  11.030   0.241   5.631  0.8692 -1.1120 -0.1000
  526MOL0     C70928  11.070   0.152   5.731  0.4678 -0.1361 -0.4635
  526MOL0     C70929  11.068   0.060   6.182 -0.0442 -0.8247 -0.0111
  526MOL0     C70930  11.130   0.116   6.297  0.7113 -0.6259  0.1082
  526MOL0     C70931  11.155   0.043   6.414 -0.5610 -0.3248 -0.7066
  526MOL0     C70932  11.116  -0.090   6.415  0.3837  0.5913  0.1691
  526MOL0     O70933  11.140  -0.159   6.529  0.1204  0.8993 -0.2463
  526MOL0     C70934  11.105  -0.299   6.543 -0.1208  0.1799 -0.0492
  526MOL0     C70935  11.100  -0.322   6.696  0.9635 -0.5636  0.0955
  526MOL0     C70936  11.077  -0.460   6.734  0.2998 -0.7383 -0.4944
  526MOL0     C70937  11.100  -0.492   6.888  0.5323 -0.1665  0.0650
  526MOL0     C70938  11.236  -0.464   6.933 -0.3527 -0.0569 -0.0015
  526MOL0     C70939  11.348  -0.446   6.966 -0.0170 -0.3700  1.0196
  526MOL0     C70940  11.064  -0.157   6.300  0.6055 -0.7833  0.1537
  526MOL0     C70941  11.032  -0.081   6.182 -0.1584  0.9119 -0.0290
  526MOL0     C70942  10.985  -0.168   6.069 -0.8148 -0.0932 -0.4391
  526MOL0     H70943  11.244   0.375   5.919  0.1325 -1.1539  1.0672
  526MOL0     H70944  11.188   0.524   5.716  0.1526  0.1045  1.9366
  526MOL0     H70945  11.170   0.390   5.401  0.7586  0.7830 -0.5765
  526MOL0     H70946  11.005   0.366   5.334 -0.3638  0.2310 -1.2689
  526MOL0     H70947  11.109   0.553   5.207  2.7208 -1.1669  0.6588
  526MOL0     H70948  11.148   0.622   5.365 -1.0870  0.2120 -0.5060
  526MOL0     H70949  10.886   0.644   5.386 -2.0750  0.3604 -0.7728
  526MOL0     H70950  10.875   0.585   5.229 -1.0928  0.1395  0.5153
  526MOL0     H70951  11.016   0.844   5.341 -0.2455  1.1437 -0.6267
  526MOL0     H70952  11.015   0.804   5.167 -1.7486 -1.2695 -1.6702
  526MOL0     H70953  10.794   0.870   5.374  0.8390  0.6372  0.8965
  526MOL0     H70954  10.844   0.973   5.244 -2.6120  0.1742 -3.6133
  526MOL0     H70955  10.693   0.720   5.203 -1.0496 -2.4001 -3.7928
  526MOL0     H70956  10.639   0.885   5.173 -2.5020 -3.7323 -1.2128
  526MOL0     H70957  10.869   0.749   5.025  0.2620  0.2271 -0.0753
  526MOL0     H70958  10.817   0.923   5.015 -1.4738  1.3225  3.0675
  526MOL0     H70959  10.598   0.831   4.931  1.7473  3.0187 -1.2229
  526MOL0     H70960  10.722   0.778   4.819  0.5449  1.3802  0.1504
  526MOL0     H70961  10.823   0.511   4.866 -2.3573  0.9571 -3.1743
  526MOL0     H70962  10.836   0.262   4.956 -0.3028 -2.1906  0.8507
  526MOL0     H70963  10.877   0.340   5.109 -1.0649  0.3793  2.2661
  526MOL0     H70964  10.613   0.183   5.069  0.2668 -2.4613 -0.9938
  526MOL0     H70965  10.773   0.103   5.100 -0.7509  0.7712  1.2648
  526MOL0     H70966  10.660   0.311   5.293  0.1663  0.2758  1.2182
  526MOL0     H70967  10.794   0.194   5.312 -0.3542  1.2840  0.4168
  526MOL0     H70968  10.615   0.015   5.327 -0.3128 -0.0030 -1.2590
  526MOL0     H70969  10.492   0.124   5.262 -0.7653  1.1890  1.0970
  526MOL0     H70970  10.434  -0.095   5.426  0.4064  0.0644  0.8217
  526MOL0     H70971  10.216  -0.150   5.514  1.7855 -2.0173  2.7897
  526MOL0     H70972   9.897  -0.312   5.486 -0.5464  1.6237 -0.3645
  526MOL0     H70973   9.738  -0.481   5.573 -1.6626  1.5695 -0.6075
  526MOL0     H70974   9.519  -0.420   5.658  1.2549  1.2665  1.4402
  526MOL0     H70975   9.540  -0.601   5.653 -0.3700  0.8152 -0.9989
  526MOL0     H70976   9.368  -0.420   5.830  0.5225 -0.3168 -0.9171
  526MOL0     H70977   9.320  -0.533   5.707  0.3611  0.5654 -0.7861
  526MOL0     H70978   9.434  -0.722   5.835  0.9830  1.2174 -2.8701
  526MOL0     H70979   9.442  -0.611   5.970 -1.9700 -1.6236  0.8871
  526MOL0     H70980   9.231  -0.575   6.011  0.8977  0.5252  0.0700
  526MOL0     H70981   9.238  -0.748   5.992 -3.8579 -3.4014 -2.8665
  526MOL0     H70982   9.157  -0.701   5.758  2.2194  0.1410  0.9048
  526MOL0     H70983   9.143  -0.530   5.807 -0.8637  0.3664  1.1292
  526MOL0     H70984   8.959  -0.576   5.954 -1.2917 -1.3299  1.7284
  526MOL0     H70985   8.914  -0.641   5.800  1.0052  1.1470  0.4572
  526MOL0     H70986   8.972  -0.771   6.059 -1.5523  1.2999 -0.6124
  526MOL0     H70987   9.046  -0.868   5.930 -0.8791 -2.2004 -1.7522
  526MOL0     H70988   8.833  -0.863   5.802  2.6040 -3.6929  0.2561
  526MOL0     H70989   8.819  -0.968   5.946  0.8071 -0.0844  1.0385
  526MOL0     H70990   9.727  -0.317   5.952 -1.1513 -1.7203 -0.6352
  526MOL0     H70991   9.912  -0.163   5.892  2.3419 -1.1057 -0.0062
  526MOL0     H70992  10.203   0.229   5.729 -0.8485  1.0112 -1.8811
  526MOL0     H70993  10.408   0.295   5.626  1.5861 -1.3031  2.6774
  526MOL0     H70994  10.970   0.206   5.548 -2.3767  0.1548  1.5456
  526MOL0     H70995  11.031   0.052   5.744  0.8829 -0.1266  1.1459
  526MOL0     H70996  11.164   0.219   6.304  2.7824 -1.3577  3.1631
  526MOL0     H70997  11.180   0.094   6.507 -0.1273 -0.7705 -0.5750
  526MOL0     H70998  11.180  -0.358   6.491 -1.1607  0.5360 -2.0737
  526MOL0     H70999  11.005  -0.317   6.502 -0.7049  1.3540  0.7849
  526MOL0     H71000  11.021  -0.261   6.741  2.6676  1.5076  0.4270
  526MOL0     H71001  11.195  -0.289   6.738  0.5481  2.3316 -0.9764
  526MOL0     H71002  11.133  -0.536   6.678 -0.9415 -0.4812 -2.1428
  526MOL0     H71003  10.972  -0.483   6.715  0.5367 -0.3187 -2.4974
  526MOL0     H71004  11.026  -0.432   6.942  1.9675  3.4906 -1.7130
  526MOL0     H71005  11.074  -0.598   6.901 -0.5270  0.0754 -0.0012
  526MOL0     H71006  11.434  -0.402   7.013 -0.7173  0.9730  1.1123
  526MOL0     H71007  11.037  -0.262   6.297 -0.5526 -0.5354  1.1618
  526MOL0     H71008  10.876  -0.174   6.081 -0.8385  0.2586 -0.4513
  526MOL0     H71009  11.012  -0.119   5.975  3.0485 -0.6971  0.2136
  526MOL0     H71010  11.024  -0.270   6.066  1.9883  0.9244 -2.1305
  527MOL0     O71011   3.831   1.951   2.104 -0.5223 -0.3890  0.5245
  527MOL0     C71012   3.770   1.996   2.199  0.2534 -0.2458  0.1076
  527MOL0     O71013   3.743   1.937   2.317 -0.1313 -0.3373 -0.1288
  527MOL0     C71014   3.763   1.806   2.324 -0.2273  0.2539 -0.1540
  527MOL0     C71015   3.859   1.761   2.419  0.1681  0.4242 -0.4371
  527MOL0     C71016   3.904   1.635   2.426 -0.8724  0.6010  0.0393
  527MOL0     C71017   3.854   1.538   2.330 -0.1894 -0.3929 -0.7672
  527MOL0     O71018   3.881   1.402   2.331 -0.1137 -0.3921  0.5644
  527MOL0     C71019   3.989   1.340   2.390 -0.3146  0.8713  0.2017
  527MOL0     C71020   3.984   1.190   2.396  0.4700  0.2009 -0.3226
  527MOL0     C71021   4.086   1.132   2.494 -0.3723 -0.2642 -0.0613
  527MOL0     C71022   4.091   0.983   2.497 -0.7906 -0.2739 -0.8853
  527MOL0     C71023   4.219   0.940   2.573 -0.1791 -0.1605 -0.0706
  527MOL0     C71024   4.240   0.784   2.562 -0.4385 -1.2124 -0.3807
  527MOL0     C71025   4.123   0.719   2.634 -0.5478 -0.1188  0.2285
  527MOL0     C71026   4.156   0.563   2.637  0.1246  0.3717 -0.3577
  527MOL0     N71027   4.256   0.533   2.731  0.2578  0.4548  0.1072
  527MOL0     C71028   4.232   0.491   2.853  0.3529 -0.2452  0.2498
  527MOL0     C71029   4.342   0.473   2.912  0.6636  0.9432 -0.2625
  527MOL0     C71030   4.368   0.421   3.047 -0.1015  0.1666 -0.8640
  527MOL0     C71031   4.501   0.398   3.102  0.6211  0.6860  0.2081
  527MOL0     C71032   4.513   0.270   3.183  1.0192 -0.3795 -0.8020
  527MOL0     C71033   4.657   0.264   3.242  0.2708  0.4650  0.1027
  527MOL0     O71034   4.759   0.247   3.134 -0.7396  0.1790 -1.4037
  527MOL0     C71035   4.888   0.216   3.179 -0.4108 -0.6480  0.7353
  527MOL0     C71036   4.931   0.243   3.309 -0.0651  0.6348 -0.5689
  527MOL0     C71037   5.064   0.205   3.347 -0.3534  0.1541 -0.0918
  527MOL0     C71038   5.145   0.138   3.255  0.1563  0.0259 -0.7017
  527MOL0     C71039   5.284   0.092   3.297  0.2705 -0.7677 -0.2969
  527MOL0     O71040   5.315   0.072   3.422 -0.2887 -0.5195 -0.8081
  527MOL0     C71041   5.440   0.116   3.468  0.9486  0.3186 -0.3082
  527MOL0     C71042   5.544   0.029   3.478  0.0440  0.0043  0.8150
  527MOL0     C71043   5.667   0.070   3.542 -0.0347 -0.2259 -0.2726
  527MOL0     C71044   5.688   0.207   3.562  0.0283 -0.2438  0.0882
  527MOL0     O71045   5.806   0.263   3.599 -0.1952 -0.5856  0.2589
  527MOL0     C71046   5.892   0.188   3.684 -0.0722  0.3057 -0.1331
  527MOL0     C71047   6.029   0.169   3.618 -0.3958 -0.6030  0.7056
  527MOL0     C71048   6.102   0.304   3.580 -0.1767  0.1895  0.1107
  527MOL0     C71049   6.217   0.274   3.484  0.3868 -0.4035 -0.8150
  527MOL0     C71050   6.293   0.395   3.424  0.6563  0.5642  0.1814
  527MOL0     C71051   6.342   0.496   3.530  0.8636 -0.1403  0.2500
  527MOL0     C71052   6.446   0.589   3.471  0.3964  0.5964 -0.2741
  527MOL0     C71053   6.380   0.697   3.394 -0.7091  0.0116  0.3743
  527MOL0    Cl71054   6.516   0.819   3.348 -0.4172  0.4625 -0.4308
  527MOL0     C71055   5.577   0.297   3.566  0.8311 -1.0816  0.3829
  527MOL0     C71056   5.451   0.245   3.515 -0.1945  0.9536  0.4285
  527MOL0     O71057   5.362   0.087   3.205 -0.0300  0.0520  0.1346
  527MOL0     C71058   5.102   0.121   3.118 -1.2876 -0.6372 -0.3350
  527MOL0     C71059   4.975   0.160   3.083 -0.1845  0.0588  0.0517
  527MOL0     N71060   4.436   0.511   2.819 -0.4853 -0.0079  0.0777
  527MOL0     N71061   4.386   0.539   2.709 -0.8162 -0.6299  0.1093
  527MOL0     C71062   3.753   1.578   2.238  0.3329 -0.5063 -0.2997
  527MOL0     C71063   3.711   1.711   2.234 -0.2697  0.5991  0.3850
  527MOL0     C71064   3.724   2.138   2.195  0.6854  0.5221 -0.5422
  527MOL0     C71065   3.712   2.206   2.323  0.7028 -0.3881  0.6592
  527MOL0     C71066   3.659   2.331   2.326 -0.0224 -0.3974 -0.1087
  527MOL0     C71067   3.626   2.407   2.208  0.1114  1.0941 -0.5307
  527MOL0     O71068   3.562   2.525   2.217  0.1630 -0.7198  0.2181
  527MOL0     C71069   3.642   2.623   2.274 -0.7532 -0.0582 -0.9202
  527MOL0     C71070   3.578   2.748   2.254  0.9171 -1.0781  0.3208
  527MOL0     C71071   3.660   2.869   2.316 -0.4156  0.2408 -0.0903
  527MOL0     C71072   3.603   2.913   2.446  0.8817 -0.3069 -0.2899
  527MOL0     C71073   3.469   2.971   2.447  0.6277 -0.5646  0.0803
  527MOL0     C71074   3.352   3.003   2.447  0.3820 -0.0636  0.0334
  527MOL0     C71075   3.645   2.346   2.087 -0.7382  0.1375  0.1903
  527MOL0     C71076   3.695   2.214   2.079 -0.0281  0.4180 -1.0003
  527MOL0     C71077   3.711   2.160   1.944  0.8489 -0.0511 -0.5237
  527MOL0     H71078   3.897   1.824   2.498 -1.1619 -0.9147  1.3383
  527MOL0     H71079   3.968   1.591   2.501  2.2997  1.0599 -2.1979
  527MOL0     H71080   4.080   1.371   2.340 -1.0075  1.9186 -0.4298
  527MOL0     H71081   3.988   1.384   2.490  1.2681  0.3794  0.4516
  527MOL0     H71082   4.002   1.148   2.296 -3.8694  2.0129 -2.1374
  527MOL0     H71083   3.879   1.168   2.418  0.8874 -2.3633 -0.5450
  527MOL0     H71084   4.057   1.172   2.591 -1.8044  1.4410 -1.1312
  527MOL0     H71085   4.182   1.168   2.455  0.5022 -1.2071  1.1414
  527MOL0     H71086   3.999   0.949   2.545 -0.2982 -1.2146 -0.5822
  527MOL0     H71087   4.092   0.943   2.395 -2.4261  0.1316 -1.0849
  527MOL0     H71088   4.299   0.984   2.514 -1.5061  0.2700 -1.5970
  527MOL0     H71089   4.224   0.974   2.677 -0.4047  1.6401 -0.6265
  527MOL0     H71090   4.258   0.759   2.457  0.8387  2.0335 -1.0520
  527MOL0     H71091   4.336   0.762   2.610  0.2419 -0.8789 -1.5382
  527MOL0     H71092   4.032   0.743   2.577  0.4068  3.2867 -0.0936
  527MOL0     H71093   4.114   0.759   2.735 -1.1056  1.1656 -0.3005
  527MOL0     H71094   4.066   0.502   2.653 -1.9747  3.3016 -0.0983
  527MOL0     H71095   4.189   0.538   2.536 -1.4323  0.8376 -1.0119
  527MOL0     H71096   4.132   0.463   2.882 -0.4723 -0.7870 -2.7740
  527MOL0     H71097   4.323   0.502   3.105  0.8186  0.7505 -0.9474
  527MOL0     H71098   4.316   0.329   3.075 -0.2509  1.3771  3.6426
  527MOL0     H71099   4.563   0.385   3.012 -2.3181  2.2390 -2.2240
  527MOL0     H71100   4.530   0.471   3.178  1.4217 -1.2163  1.8137
  527MOL0     H71101   4.495   0.186   3.116  1.1179 -0.6886 -0.4415
  527MOL0     H71102   4.442   0.266   3.266  0.2441 -1.6616 -1.5110
  527MOL0     H71103   4.662   0.168   3.295  0.3997 -1.5947 -3.3751
  527MOL0     H71104   4.673   0.357   3.298  1.5177 -0.4493  1.3394
  527MOL0     H71105   4.849   0.288   3.362 -0.4572 -0.2033 -0.4437
  527MOL0     H71106   5.089   0.227   3.451 -3.7500 -1.1107  1.1357
  527MOL0     H71107   5.533  -0.079   3.466  1.9764 -0.0651 -1.1237
  527MOL0     H71108   5.745  -0.006   3.535  0.0940 -0.1451  0.2198
  527MOL0     H71109   5.905   0.258   3.768  3.0863 -0.5481  0.2138
  527MOL0     H71110   5.835   0.105   3.726 -0.5183  1.0675  0.8116
  527MOL0     H71111   6.094   0.114   3.688  1.0406 -0.3151 -0.3447
  527MOL0     H71112   6.003   0.112   3.529 -0.3204 -0.0308  0.3161
  527MOL0     H71113   6.031   0.378   3.541 -0.7183 -0.3328  0.0884
  527MOL0     H71114   6.144   0.352   3.669  1.0280  1.4246 -1.0742
  527MOL0     H71115   6.165   0.234   3.397 -3.2439  0.3971  0.7726
  527MOL0     H71116   6.283   0.202   3.534 -1.2138 -1.6398 -0.3836
  527MOL0     H71117   6.226   0.434   3.346  0.1115 -1.7538 -0.6009
  527MOL0     H71118   6.380   0.356   3.371  0.1721  0.0207 -0.2342
  527MOL0     H71119   6.257   0.547   3.577  0.4118 -0.2551 -0.4344
  527MOL0     H71120   6.396   0.443   3.610 -0.2640 -2.4409 -0.4226
  527MOL0     H71121   6.523   0.539   3.412  0.2977 -0.2275  0.2737
  527MOL0     H71122   6.490   0.631   3.562 -0.2702 -1.8376  1.2882
  527MOL0     H71123   6.332   0.662   3.303 -0.9706 -1.1084  0.9188
  527MOL0     H71124   6.299   0.742   3.452 -1.9548 -3.5456  1.6315
  527MOL0     H71125   5.587   0.402   3.590 -2.5676 -0.9707  1.7091
  527MOL0     H71126   5.374   0.319   3.500 -0.2461  0.9946  0.8689
  527MOL0     H71127   5.164   0.086   3.036 -2.4299  0.1575 -1.5841
  527MOL0     H71128   4.943   0.148   2.979 -1.8321 -1.0844  0.6433
  527MOL0     H71129   3.698   1.516   2.168 -3.4095  2.4714 -0.3475
  527MOL0     H71130   3.642   1.744   2.157  0.9697 -1.0305 -1.5002
  527MOL0     H71131   3.724   2.146   2.413 -1.4679 -3.7985 -1.0953
  527MOL0     H71132   3.634   2.367   2.425 -0.6615 -0.6691 -0.1624
  527MOL0     H71133   3.747   2.628   2.245 -1.5009  1.2552 -3.7620
  527MOL0     H71134   3.643   2.599   2.381 -0.2419 -0.9126 -1.1134
  527MOL0     H71135   3.473   2.752   2.286  0.9657  2.6772  0.4433
  527MOL0     H71136   3.564   2.761   2.146  0.3133  1.9289  0.6615
  527MOL0     H71137   3.643   2.952   2.247 -1.2969  0.3643  0.2538
  527MOL0     H71138   3.766   2.846   2.307 -0.5895  0.3053 -3.1964
  527MOL0     H71139   3.596   2.836   2.523  1.2344 -1.2754 -1.1926
  527MOL0     H71140   3.668   2.993   2.483  2.0910 -0.6408 -1.5729
  527MOL0     H71141   3.252   3.040   2.438  1.1081  2.1617  0.6164
  527MOL0     H71142   3.606   2.395   1.998 -3.3077 -1.1983  0.4931
  527MOL0     H71143   3.818   2.143   1.929  0.9790  0.3694 -0.0953
  527MOL0     H71144   3.657   2.065   1.947  1.2736 -0.4574  5.3963
  527MOL0     H71145   3.672   2.224   1.865  2.7972 -1.5977 -2.8722
  528MOL0     O71146   7.757   2.390   3.132  0.4449 -0.6775  0.0266
  528MOL0     C71147   7.783   2.490   3.207 -0.3171  0.0051  1.1278
  528MOL0     O71148   7.910   2.532   3.230  0.4965  0.4272 -0.4243
  528MOL0     C71149   8.010   2.525   3.142  0.0567  0.4299 -0.0327
  528MOL0     C71150   8.003   2.553   3.009  0.5689  0.3465  0.8918
  528MOL0     C71151   8.102   2.535   2.925 -0.7409 -0.2874  0.1358
  528MOL0     C71152   8.230   2.491   2.961  0.3025  0.8435 -0.0609
  528MOL0     O71153   8.341   2.476   2.876 -0.1835  0.2757 -0.2220
  528MOL0     C71154   8.334   2.527   2.744 -0.0188  0.1549  0.2672
  528MOL0     C71155   8.476   2.548   2.704 -0.3148 -0.1264  1.0212
  528MOL0     C71156   8.506   2.605   2.563  0.8389  0.9338 -1.5738
  528MOL0     C71157   8.654   2.586   2.527  0.2780  0.9619  0.1049
  528MOL0     C71158   8.710   2.660   2.410 -0.1845 -0.2125  0.1673
  528MOL0     C71159   8.853   2.596   2.365  0.6569  0.2724 -0.1255
  528MOL0     C71160   8.930   2.679   2.252  0.4966  0.2934 -0.3442
  528MOL0     C71161   8.862   2.665   2.114  0.8327 -0.3993 -0.7409
  528MOL0     N71162   8.968   2.713   2.024  0.3329  0.0890 -0.8222
  528MOL0     C71163   8.989   2.832   1.977  0.5993 -0.0258  0.0555
  528MOL0     C71164   9.090   2.826   1.883 -0.0849  0.5063  0.1985
  528MOL0     C71165   9.166   2.930   1.807  0.8169  0.2782 -0.3892
  528MOL0     C71166   9.113   3.081   1.835  0.0373  1.0037 -0.4055
  528MOL0     C71167   9.201   3.174   1.782 -0.3604 -0.5469  0.2330
  528MOL0     C71168   9.172   3.328   1.778  0.1500 -0.0601  0.4730
  528MOL0     O71169   9.119   3.384   1.905  0.1483 -0.1808  0.2618
  528MOL0     C71170   9.207   3.412   2.003  0.1996 -0.3969  0.8228
  528MOL0     C71171   9.203   3.344   2.119 -0.4933 -0.3004  0.0246
  528MOL0     C71172   9.290   3.371   2.230 -0.4334 -0.0589 -0.5091
  528MOL0     C71173   9.391   3.465   2.219 -0.3248  0.4868 -0.0177
  528MOL0     C71174   9.490   3.488   2.332 -0.4415  0.0552  0.3708
  528MOL0     O71175   9.605   3.551   2.296 -0.1501  0.0242 -0.7457
  528MOL0     C71176   9.695   3.569   2.403 -1.1478 -0.1425  0.4429
  528MOL0     C71177   9.699   3.691   2.466  0.3829 -0.7384 -0.1188
  528MOL0     C71178   9.802   3.710   2.560  1.2113 -0.2042 -0.7296
  528MOL0     C71179   9.897   3.617   2.586 -0.8920  0.8350 -0.6329
  528MOL0     O71180  10.010   3.633   2.668 -1.1439 -0.5134 -0.2269
  528MOL0     C71181  10.040   3.755   2.735 -0.4597  0.4197 -0.0712
  528MOL0     C71182  10.189   3.769   2.755 -0.2790 -0.2506  0.1375
  528MOL0     C71183  10.260   3.647   2.800  0.0584 -0.6878 -0.0934
  528MOL0     C71184  10.407   3.665   2.804  0.4069  0.0006  0.4415
  528MOL0     C71185  10.486   3.554   2.874  0.1429  1.2985 -0.2016
  528MOL0     C71186  10.626   3.588   2.880 -0.4626 -0.2332 -0.1437
  528MOL0     C71187  10.696   3.525   3.003  0.3617 -0.0397 -0.3536
  528MOL0     C71188  10.648   3.379   3.032 -0.4273 -0.9876 -0.1406
  528MOL0    Cl71189  10.711   3.329   3.186  0.1611  0.1325  0.3272
  528MOL0     C71190   9.888   3.487   2.527  0.8467  0.0709  0.0814
  528MOL0     C71191   9.790   3.470   2.434  0.3916  1.2076 -0.2334
  528MOL0     O71192   9.464   3.432   2.439 -0.2413 -0.1850  0.7643
  528MOL0     C71193   9.393   3.534   2.098 -0.7021 -0.1736  0.2903
  528MOL0     C71194   9.310   3.510   1.986 -0.0730 -0.6240 -0.2167
  528MOL0     N71195   9.116   2.696   1.871 -0.5592  0.0966  0.6987
  528MOL0     N71196   9.047   2.620   1.954 -0.4135 -1.0906  1.2744
  528MOL0     C71197   8.252   2.465   3.098 -0.2533  0.2363 -0.7748
  528MOL0     C71198   8.139   2.484   3.188  0.6481  0.3363 -0.9109
  528MOL0     C71199   7.686   2.569   3.280  0.2685 -0.5467 -0.3003
  528MOL0     C71200   7.639   2.693   3.233 -0.0447 -0.2238  0.1174
  528MOL0     C71201   7.540   2.772   3.293 -0.3432 -0.2419  0.5432
  528MOL0     C71202   7.491   2.728   3.413 -0.3401  0.6330 -1.0692
  528MOL0     O71203   7.405   2.805   3.479  0.3026 -0.1927 -0.6704
  528MOL0     C71204   7.300   2.733   3.539  0.4535  0.6655  0.3866
  528MOL0     C71205   7.176   2.829   3.551  0.1012 -0.4119 -0.5703
  528MOL0     C71206   7.044   2.769   3.612 -0.6380 -0.5196 -0.2797
  528MOL0     C71207   6.964   2.709   3.500  0.4370  1.0642  1.0414
  528MOL0     C71208   6.902   2.806   3.413 -0.3749  0.2660  0.3233
  528MOL0     C71209   6.855   2.880   3.323 -0.3267  0.0350 -0.5885
  528MOL0     C71210   7.533   2.595   3.459 -0.4721  0.0933 -0.6543
  528MOL0     C71211   7.633   2.520   3.396 -0.1193  0.3655  1.5087
  528MOL0     C71212   7.666   2.384   3.452  0.5894  0.0409 -0.6445
  528MOL0     H71213   7.907   2.583   2.968 -0.4306 -2.6380  0.8225
  528MOL0     H71214   8.080   2.563   2.823  1.1207  0.6242 -0.0522
  528MOL0     H71215   8.288   2.453   2.678 -2.0294 -1.8141  3.6320
  528MOL0     H71216   8.280   2.623   2.739  1.5576  1.0831  0.3125
  528MOL0     H71217   8.539   2.460   2.717 -0.0384  0.0275  0.7468
  528MOL0     H71218   8.526   2.618   2.772 -0.3582  1.9874 -0.9990
  528MOL0     H71219   8.470   2.708   2.563 -3.6164 -0.2939  1.5821
  528MOL0     H71220   8.449   2.550   2.488  0.2822  0.7953 -1.0588
  528MOL0     H71221   8.713   2.623   2.611  1.1406 -1.5696  0.7016
  528MOL0     H71222   8.666   2.479   2.509  1.9702  0.6460  2.5870
  528MOL0     H71223   8.638   2.665   2.329  0.0001  1.1401  0.0548
  528MOL0     H71224   8.733   2.766   2.429 -2.7999  0.1286  1.8713
  528MOL0     H71225   8.926   2.593   2.446 -0.1711 -3.7149  0.6674
  528MOL0     H71226   8.837   2.491   2.338  0.0188  0.4040 -0.2690
  528MOL0     H71227   9.032   2.641   2.243  0.7754  1.1575 -1.0405
  528MOL0     H71228   8.941   2.786   2.274  1.9975  0.2133 -0.5864
  528MOL0     H71229   8.837   2.561   2.088 -2.2022  0.3110 -1.0246
  528MOL0     H71230   8.776   2.729   2.092  1.8439  0.2919 -3.0572
  528MOL0     H71231   8.934   2.922   2.001  0.9293  0.1677  0.0945
  528MOL0     H71232   9.268   2.916   1.846  1.0414 -1.0312 -1.4015
  528MOL0     H71233   9.172   2.909   1.700  2.3510 -0.2415 -0.2281
  528MOL0     H71234   9.016   3.101   1.788  0.1564  4.2384  0.4540
  528MOL0     H71235   9.098   3.096   1.943 -0.1486  0.5961 -0.3744
  528MOL0     H71236   9.220   3.153   1.676 -0.0789  0.3639  0.0924
  528MOL0     H71237   9.297   3.160   1.834  0.4090 -1.1519 -1.2775
  528MOL0     H71238   9.101   3.355   1.700  0.1728  0.9477  0.7919
  528MOL0     H71239   9.265   3.380   1.755  0.1006 -0.6564 -1.2024
  528MOL0     H71240   9.133   3.261   2.131  0.9984 -1.8343 -1.2864
  528MOL0     H71241   9.276   3.312   2.320 -0.3374  0.9071  0.1540
  528MOL0     H71242   9.627   3.769   2.445  1.0167  0.1909  1.0549
  528MOL0     H71243   9.805   3.807   2.609  2.0698  1.4036 -3.7292
  528MOL0     H71244  10.021   3.843   2.673 -1.2959 -0.0652 -0.5269
  528MOL0     H71245   9.981   3.772   2.826  0.4025  1.3854  0.3221
  528MOL0     H71246  10.236   3.804   2.663  0.3991  2.0481  1.2731
  528MOL0     H71247  10.216   3.847   2.827 -0.4974 -2.0800  2.3120
  528MOL0     H71248  10.237   3.630   2.906  2.5305  0.8129  0.7660
  528MOL0     H71249  10.229   3.560   2.742  0.5351 -2.1691  1.7686
  528MOL0     H71250  10.437   3.756   2.858  3.0864  0.0665 -0.9750
  528MOL0     H71251  10.438   3.672   2.699  0.3626 -2.5188  0.1999
  528MOL0     H71252  10.472   3.454   2.832 -1.3030  0.3087  2.3347
  528MOL0     H71253  10.441   3.554   2.974 -1.5086 -0.8136 -0.8500
  528MOL0     H71254  10.666   3.548   2.786 -0.9662 -3.7016  0.9665
  528MOL0     H71255  10.649   3.695   2.881 -1.0681 -0.0934 -0.5760
  528MOL0     H71256  10.676   3.587   3.090 -2.0208 -4.1676  2.4102
  528MOL0     H71257  10.805   3.525   3.010  0.3527 -0.9341 -0.1294
  528MOL0     H71258  10.541   3.385   3.054  0.0768  0.1954  2.3972
  528MOL0     H71259  10.686   3.319   2.949 -1.0798  0.6042 -1.6510
  528MOL0     H71260   9.949   3.410   2.572 -1.7923 -1.0985  1.9484
  528MOL0     H71261   9.793   3.375   2.383  3.5344  0.7069  0.7280
  528MOL0     H71262   9.461   3.619   2.087  1.8700 -2.0663  0.5757
  528MOL0     H71263   9.330   3.568   1.897 -1.5900 -1.4762 -1.1361
  528MOL0     H71264   8.349   2.442   3.141 -2.0727 -0.9355  3.1842
  528MOL0     H71265   8.144   2.479   3.296  2.0698 -2.3544 -1.0179
  528MOL0     H71266   7.684   2.729   3.141 -0.9787  0.1497 -0.2026
  528MOL0     H71267   7.507   2.863   3.244  1.1627 -0.2045 -0.4866
  528MOL0     H71268   7.327   2.690   3.636 -0.8031 -0.1080  0.4152
  528MOL0     H71269   7.269   2.641   3.490 -0.3033  2.1081 -2.0057
  528MOL0     H71270   7.157   2.876   3.454  1.7673  0.2213 -0.6100
  528MOL0     H71271   7.218   2.903   3.618  1.9018 -2.3466  0.5784
  528MOL0     H71272   6.990   2.849   3.664  1.1241  0.6649 -0.1699
  528MOL0     H71273   7.065   2.693   3.688 -0.4680 -0.0403  0.1607
  528MOL0     H71274   7.034   2.650   3.441  0.3191  1.0596  0.9064
  528MOL0     H71275   6.892   2.634   3.533 -0.1504 -0.5282 -3.2601
  528MOL0     H71276   6.845   2.940   3.235  4.9921  1.2052 -0.7266
  528MOL0     H71277   7.489   2.550   3.547 -1.4645  0.3790 -0.9922
  528MOL0     H71278   7.667   2.311   3.370 -3.0112 -2.8929  1.6083
  528MOL0     H71279   7.767   2.372   3.492  0.7323  0.5986 -0.8317
  528MOL0     H71280   7.582   2.369   3.520  1.6609 -0.7860  0.5306
  529MOL0     O71281   6.125   8.718   1.489  0.0921 -0.2388  0.1879
  529MOL0     C71282   6.199   8.815   1.470 -0.4225 -0.2883 -0.3317
  529MOL0     O71283   6.328   8.821   1.499 -0.7502  0.4121 -0.2152
  529MOL0     C71284   6.394   8.716   1.563 -0.6296 -0.0576 -0.0551
  529MOL0     C71285   6.388   8.573   1.525 -0.8348 -0.8091 -0.1076
  529MOL0     C71286   6.461   8.481   1.598  0.3871 -0.4558  0.2053
  529MOL0     C71287   6.538   8.523   1.709 -0.4097 -0.0892  0.8516
  529MOL0     O71288   6.613   8.428   1.764  0.0003 -0.9667 -0.1950
  529MOL0     C71289   6.736   8.457   1.830  0.0378  0.2907 -1.7537
  529MOL0     C71290   6.842   8.518   1.727  0.5926  0.1245 -0.3775
  529MOL0     C71291   6.973   8.553   1.799  0.8516 -0.3274  0.4256
  529MOL0     C71292   7.088   8.577   1.712  0.8571 -0.9175  0.3459
  529MOL0     C71293   7.215   8.616   1.802 -0.7725  0.3854  0.2759
  529MOL0     C71294   7.340   8.647   1.728 -0.2468  0.4187  0.3431
  529MOL0     C71295   7.457   8.682   1.826 -0.7307  0.0813 -0.0772
  529MOL0     C71296   7.541   8.565   1.844  0.2914 -0.2104 -0.0034
  529MOL0     N71297   7.676   8.597   1.907  0.8270 -0.3585  0.3372
  529MOL0     C71298   7.762   8.691   1.866 -0.6963  0.6279  0.0844
  529MOL0     C71299   7.858   8.703   1.960 -0.1107  0.3918 -0.3110
  529MOL0     C71300   7.975   8.794   1.957  0.5768 -0.3761  0.2450
  529MOL0     C71301   8.105   8.737   2.003 -0.1643  0.1408  0.9307
  529MOL0     C71302   8.126   8.707   2.159  1.2776 -0.0426  0.6697
  529MOL0     C71303   8.226   8.596   2.184 -0.5343 -0.2989 -0.0484
  529MOL0     O71304   8.220   8.570   2.324 -0.2726  0.6974 -0.7930
  529MOL0     C71305   8.320   8.497   2.391 -0.3544 -0.4715  1.2262
  529MOL0     C71306   8.432   8.439   2.330  1.1547  0.0401  0.0025
  529MOL0     C71307   8.518   8.360   2.404  0.0501  0.6415 -0.9097
  529MOL0     C71308   8.505   8.348   2.552  0.6852  1.1546 -0.7166
  529MOL0     C71309   8.602   8.288   2.632  0.5950  0.2906  0.0873
  529MOL0     O71310   8.586   8.286   2.766  0.3403  0.1801  0.3523
  529MOL0     C71311   8.685   8.243   2.848 -0.2167 -0.4922  1.0127
  529MOL0     C71312   8.828   8.263   2.823 -0.1984  0.5572 -0.8279
  529MOL0     C71313   8.915   8.195   2.917  0.8221  0.4062  0.5959
  529MOL0     C71314   8.871   8.116   3.024 -0.5034 -0.6464 -0.2917
  529MOL0     O71315   8.959   8.044   3.106  0.5072 -0.2456 -0.8358
  529MOL0     C71316   9.081   8.019   3.039  0.1005 -0.2704 -0.6003
  529MOL0     C71317   9.164   7.901   3.100  1.1282 -0.0489  0.0417
  529MOL0     C71318   9.073   7.778   3.128  0.0858  0.1611 -0.3999
  529MOL0     C71319   9.030   7.712   2.999  0.5864  0.9869  0.0812
  529MOL0     C71320   8.893   7.625   3.025 -0.4793 -0.9890 -0.2868
  529MOL0     C71321   8.773   7.700   3.094 -0.1943 -0.2443 -0.4903
  529MOL0     C71322   8.643   7.602   3.083  0.5660  0.7254  0.1199
  529MOL0     C71323   8.518   7.669   3.146 -0.0467 -0.7177  0.0244
  529MOL0    Cl71324   8.511   7.841   3.103 -0.0488  0.0771  0.6732
  529MOL0     C71325   8.733   8.116   3.056  0.2006 -0.1850  0.6024
  529MOL0     C71326   8.643   8.172   2.962 -0.5424  1.3022 -0.1776
  529MOL0     O71327   8.693   8.234   2.565 -0.4976  1.2612 -0.0910
  529MOL0     C71328   8.392   8.395   2.604  0.4858 -1.3171 -0.0930
  529MOL0     C71329   8.305   8.482   2.524  0.0136  0.6515  0.2648
  529MOL0     N71330   7.839   8.612   2.055  0.5785  0.1861 -0.8836
  529MOL0     N71331   7.724   8.552   2.023  0.2157  0.2759  0.5572
  529MOL0     C71332   6.537   8.658   1.748 -0.0021 -0.1991 -0.3374
  529MOL0     C71333   6.469   8.751   1.675 -1.3118 -0.5475  0.0335
  529MOL0     C71334   6.151   8.934   1.414  0.4235  0.5155 -0.2753
  529MOL0     C71335   6.186   9.059   1.469  0.4161 -0.3783 -0.9807
  529MOL0     C71336   6.132   9.177   1.424 -0.8766 -0.5267  0.5385
  529MOL0     C71337   6.048   9.177   1.307 -1.7234 -0.0393  0.4221
  529MOL0     O71338   5.987   9.287   1.263  0.1263 -0.1993  0.5608
  529MOL0     C71339   6.002   9.416   1.329 -0.6804 -0.8220  0.5482
  529MOL0     C71340   5.897   9.512   1.262 -0.3143 -0.9444 -0.3463
  529MOL0     C71341   5.936   9.659   1.295  0.4683 -0.4066 -0.8689
  529MOL0     C71342   5.823   9.758   1.283 -0.0422 -0.4490  0.2237
  529MOL0     C71343   5.786   9.774   1.142  0.8046  0.4365  0.1726
  529MOL0     C71344   5.755   9.794   1.023  0.3843  0.8119  0.2950
  529MOL0     C71345   6.030   9.048   1.243  0.0782  0.2552  0.2425
  529MOL0     C71346   6.077   8.938   1.296 -0.2487  0.2813  0.1787
  529MOL0     C71347   6.041   8.804   1.227  0.3944 -1.2108 -0.6739
  529MOL0     H71348   6.326   8.541   1.441 -0.4616  0.6865 -0.9992
  529MOL0     H71349   6.466   8.382   1.555 -2.9225 -1.3922  1.6077
  529MOL0     H71350   6.717   8.522   1.916  1.0386 -2.5949  0.8212
  529MOL0     H71351   6.783   8.375   1.886  2.5262  2.3324 -0.6256
  529MOL0     H71352   6.796   8.607   1.683  0.9260 -0.0088 -1.0156
  529MOL0     H71353   6.864   8.441   1.652  1.1873 -1.8553  1.7344
  529MOL0     H71354   6.997   8.463   1.857  0.8585 -0.5385  0.0967
  529MOL0     H71355   6.971   8.627   1.880  2.5637  0.7128 -0.4403
  529MOL0     H71356   7.106   8.481   1.663 -0.9780 -0.3362 -1.5804
  529MOL0     H71357   7.060   8.655   1.641  0.6798 -2.0674 -0.8794
  529MOL0     H71358   7.196   8.706   1.861  0.1651  1.5544 -1.1354
  529MOL0     H71359   7.240   8.530   1.865  0.6867 -2.1835 -3.4876
  529MOL0     H71360   7.357   8.567   1.656 -2.6096 -0.0275  0.1903
  529MOL0     H71361   7.321   8.734   1.664  0.2494 -0.3212 -0.8453
  529MOL0     H71362   7.429   8.705   1.929  0.8398  0.7616  0.2189
  529MOL0     H71363   7.519   8.764   1.789 -0.4343 -0.7054 -1.4111
  529MOL0     H71364   7.490   8.486   1.900  1.7247 -0.5379  0.8908
  529MOL0     H71365   7.551   8.510   1.750  3.5557 -1.7050  1.0804
  529MOL0     H71366   7.743   8.757   1.782  2.0210  2.3459  0.6723
  529MOL0     H71367   7.985   8.814   1.850 -0.7357 -2.4537 -0.3317
  529MOL0     H71368   7.950   8.885   2.013 -2.8190 -0.3815 -1.0354
  529MOL0     H71369   8.103   8.644   1.946 -2.7022  1.4178 -1.2821
  529MOL0     H71370   8.184   8.796   1.957 -0.6973 -2.1427 -3.4700
  529MOL0     H71371   8.031   8.678   2.203 -0.1145 -1.2171 -2.7751
  529MOL0     H71372   8.156   8.804   2.200 -1.5365  2.2506 -2.2129
  529MOL0     H71373   8.327   8.622   2.149  1.2170  0.0294  4.5779
  529MOL0     H71374   8.199   8.505   2.130  2.2013 -1.3479  0.2115
  529MOL0     H71375   8.447   8.448   2.222  1.0402  1.6915  0.0955
  529MOL0     H71376   8.596   8.305   2.352  0.6578  0.2441  0.3654
  529MOL0     H71377   8.861   8.321   2.737  1.4171 -1.5143 -1.7056
  529MOL0     H71378   9.023   8.207   2.909  0.5100  2.9948 -0.7828
  529MOL0     H71379   9.057   7.991   2.936  0.7026  2.4083 -1.5302
  529MOL0     H71380   9.142   8.109   3.034 -2.0019  1.2491 -0.2796
  529MOL0     H71381   9.246   7.877   3.032  3.0134  1.8536  1.5163
  529MOL0     H71382   9.207   7.921   3.198  1.1411  0.7211 -0.1183
  529MOL0     H71383   9.142   7.704   3.169  1.8186  2.1458  0.4754
  529MOL0     H71384   8.988   7.805   3.192 -0.7996 -0.6699 -1.1739
  529MOL0     H71385   9.112   7.653   2.958 -0.6198  0.7086 -2.1164
  529MOL0     H71386   8.992   7.789   2.931 -2.4430 -0.5158 -0.1045
  529MOL0     H71387   8.920   7.533   3.079 -1.9166 -1.3022 -0.0457
  529MOL0     H71388   8.867   7.582   2.928  0.6751 -0.5677 -0.7904
  529MOL0     H71389   8.778   7.728   3.199 -1.6535 -1.8719  0.0820
  529MOL0     H71390   8.750   7.791   3.038  3.6645 -0.0747 -2.0803
  529MOL0     H71391   8.655   7.508   3.137 -0.4198  0.1154 -0.6719
  529MOL0     H71392   8.634   7.572   2.978  2.6331 -1.9505  0.6042
  529MOL0     H71393   8.425   7.625   3.109 -1.3313  2.2173 -0.6089
  529MOL0     H71394   8.523   7.649   3.253 -0.3546 -0.1104  0.1579
  529MOL0     H71395   8.694   8.073   3.148 -1.6144 -0.7384 -0.3879
  529MOL0     H71396   8.536   8.175   2.983 -0.3911  0.9982  0.6490
  529MOL0     H71397   8.364   8.381   2.708 -2.9122 -1.5513 -0.9185
  529MOL0     H71398   8.215   8.530   2.563  0.1459  1.0586  0.0658
  529MOL0     H71399   6.584   8.683   1.843  0.0808 -1.7123  0.0577
  529MOL0     H71400   6.472   8.858   1.693  4.5953  0.1320 -2.7638
  529MOL0     H71401   6.262   9.064   1.547  0.6775  1.1750 -1.3076
  529MOL0     H71402   6.156   9.276   1.463 -1.0800  0.0556 -0.7642
  529MOL0     H71403   6.105   9.449   1.314 -0.2358 -0.6511  3.4201
  529MOL0     H71404   5.990   9.419   1.438 -0.7047 -0.4416  0.5367
  529MOL0     H71405   5.802   9.490   1.311  0.0408 -0.9903  0.3292
  529MOL0     H71406   5.882   9.498   1.154  1.1523  0.4456 -0.7721
  529MOL0     H71407   6.021   9.693   1.237 -0.3285 -0.0900 -1.8818
  529MOL0     H71408   5.964   9.664   1.401 -0.7367 -0.2812 -0.5344
  529MOL0     H71409   5.744   9.721   1.349  0.9838  0.8524  2.2882
  529MOL0     H71410   5.853   9.855   1.324  2.2111 -0.6722 -0.7212
  529MOL0     H71411   5.730   9.817   0.921  0.7494  0.4413  0.1206
  529MOL0     H71412   5.954   9.038   1.166  0.4179 -3.0540  0.1852
  529MOL0     H71413   5.968   8.758   1.294  1.4842  0.2276  1.6295
  529MOL0     H71414   6.006   8.818   1.124  3.7183  0.3211 -1.7652
  529MOL0     H71415   6.128   8.738   1.218  0.9912 -0.7172  1.1002
  530MOL0     O71416   4.347  10.048   8.253 -0.2124 -0.3228  0.4498
  530MOL0     C71417   4.372  10.120   8.351  0.0021 -0.2931 -1.1511
  530MOL0     O71418   4.295  10.125   8.464 -0.3751 -0.1526  0.7244
  530MOL0     C71419   4.183  10.046   8.484 -0.7238 -0.0590  0.8321
  530MOL0     C71420   4.200   9.913   8.509  0.3221  0.1913 -0.2360
  530MOL0     C71421   4.092   9.835   8.548  0.2511  0.2047  0.1202
  530MOL0     C71422   3.962   9.883   8.547  0.9508 -0.1712  0.1785
  530MOL0     O71423   3.849   9.811   8.564 -0.3635  0.5082 -0.4903
  530MOL0     C71424   3.816   9.758   8.432 -0.5338  0.1707 -0.8086
  530MOL0     C71425   3.667   9.698   8.451  0.3950  0.7016  0.2286
  530MOL0     C71426   3.561   9.804   8.471 -0.9964  0.4556 -0.0064
  530MOL0     C71427   3.554   9.910   8.359  0.1291  0.4153  0.5344
  530MOL0     C71428   3.419   9.990   8.345 -0.1291 -0.6197  0.6882
  530MOL0     C71429   3.306   9.900   8.293  0.0346  0.3016  0.5220
  530MOL0     C71430   3.190   9.983   8.260  1.2433 -0.3149 -0.2987
  530MOL0     C71431   3.193  10.028   8.107  0.5005 -0.1102 -0.2331
  530MOL0     N71432   3.127   9.916   8.028  0.3813  0.7885  0.2956
  530MOL0     C71433   2.993   9.883   8.036  0.1366  0.5353 -0.0614
  530MOL0     C71434   2.979   9.796   7.937 -0.5907 -0.3985  0.2352
  530MOL0     C71435   2.853   9.720   7.904 -0.4715 -0.2610  0.0209
  530MOL0     C71436   2.869   9.568   7.898  0.4730 -0.1664  0.0803
  530MOL0     C71437   2.732   9.511   7.863 -0.2308  0.2923  0.7286
  530MOL0     C71438   2.630   9.530   7.977 -0.0045 -0.0251  0.2013
  530MOL0     O71439   2.577   9.653   8.020  0.2500  0.0045  0.1421
  530MOL0     C71440   2.487   9.733   7.943 -0.4233 -0.0602 -1.3401
  530MOL0     C71441   2.423   9.841   8.014  0.2665 -0.2515  0.3541
  530MOL0     C71442   2.342   9.934   7.936 -0.1623 -0.1357 -0.2940
  530MOL0     C71443   2.335   9.916   7.797 -0.6654  0.7535  0.3893
  530MOL0     C71444   2.264  10.015   7.722  1.0820  0.2316 -0.2942
  530MOL0     O71445   2.219  10.136   7.787  0.2413  0.2195  0.0027
  530MOL0     C71446   2.132  10.223   7.734 -0.4908 -0.3349  0.9600
  530MOL0     C71447   2.037  10.294   7.810  0.3617  1.1703 -0.3788
  530MOL0     C71448   1.962  10.396   7.762  1.2978  0.2509  1.1211
  530MOL0     C71449   1.999  10.461   7.638 -0.0196 -0.3758 -0.9289
  530MOL0     O71450   1.933  10.578   7.604  0.6822 -0.2998  0.1951
  530MOL0     C71451   1.962  10.631   7.476  0.2200 -0.2627 -0.3046
  530MOL0     C71452   1.935  10.541   7.347  0.4737  0.3446 -0.8006
  530MOL0     C71453   1.787  10.520   7.338  0.5943 -0.3542  0.0926
  530MOL0     C71454   1.711  10.635   7.278  1.0045 -0.4714 -0.2645
  530MOL0     C71455   1.572  10.583   7.231 -0.0603  0.2386  0.3622
  530MOL0     C71456   1.570  10.507   7.091 -0.2814  0.1045  0.3028
  530MOL0     C71457   1.433  10.495   7.041  0.6497  0.6685 -0.6990
  530MOL0     C71458   1.429  10.460   6.890 -0.1036 -0.4660  0.3962
  530MOL0    Cl71459   1.522  10.313   6.850 -0.0632 -0.1616  0.1282
  530MOL0     C71460   2.105  10.398   7.569 -0.8405 -0.0392  0.6498
  530MOL0     C71461   2.165  10.279   7.609  0.7817  0.0050 -0.3827
  530MOL0     O71462   2.254  10.000   7.602  0.4314 -0.8880 -0.5863
  530MOL0     C71463   2.388   9.801   7.740  1.1068 -0.0241  0.3429
  530MOL0     C71464   2.458   9.707   7.812  0.1126  0.5509 -0.0445
  530MOL0     N71465   3.101   9.782   7.863  0.4751  0.1137  0.5946
  530MOL0     N71466   3.188   9.860   7.927  0.4273 -0.5615 -0.2870
  530MOL0     C71467   3.941  10.012   8.508 -0.0931  0.2370 -0.5422
  530MOL0     C71468   4.049  10.097   8.480 -0.1677 -0.2239  0.3346
  530MOL0     C71469   4.484  10.221   8.335  0.1057  0.2943  0.1108
  530MOL0     C71470   4.554  10.255   8.447  0.5946 -0.2169 -0.3257
  530MOL0     C71471   4.643  10.357   8.453 -0.1669 -0.1580  0.2347
  530MOL0     C71472   4.686  10.420   8.337  0.0502 -0.8408  0.5223
  530MOL0     O71473   4.789  10.520   8.332  0.4176  0.5032  0.0777
  530MOL0     C71474   4.884  10.511   8.437 -0.7298 -0.5316  0.8012
  530MOL0     C71475   5.023  10.501   8.363 -0.7007  0.0789 -0.6182
  530MOL0     C71476   5.134  10.500   8.475  0.1526  0.1927 -0.5040
  530MOL0     C71477   5.170  10.625   8.557  0.2666 -0.3442  0.3955
  530MOL0     C71478   5.248  10.714   8.477  0.0382  0.6421 -0.3578
  530MOL0     C71479   5.305  10.785   8.405 -0.5680 -0.1895 -0.3504
  530MOL0     C71480   4.614  10.382   8.219  0.7997  0.4326 -0.0267
  530MOL0     C71481   4.522  10.277   8.211  0.0854 -0.0595 -0.1254
  530MOL0     C71482   4.470  10.232   8.074  0.4265  0.0651 -0.1203
  530MOL0     H71483   4.301   9.875   8.519  0.5218  0.8219  0.1445
  530MOL0     H71484   4.098   9.731   8.580  2.6515  0.1957 -0.1956
  530MOL0     H71485   3.810   9.837   8.357  1.5493  0.4241 -0.7604
  530MOL0     H71486   3.886   9.683   8.395  3.8739  2.2079  2.5077
  530MOL0     H71487   3.680   9.625   8.531  1.8216 -2.1919 -2.4401
  530MOL0     H71488   3.649   9.634   8.364  1.6059  0.5851  0.0379
  530MOL0     H71489   3.569   9.858   8.566 -0.9920 -1.0820  0.8899
  530MOL0     H71490   3.467   9.750   8.482 -0.8183  0.1222 -0.1248
  530MOL0     H71491   3.630   9.986   8.380  0.7672 -0.6870  2.4026
  530MOL0     H71492   3.567   9.856   8.265 -0.6789  0.7381  0.2232
  530MOL0     H71493   3.387  10.037   8.438 -1.0392 -0.5356  0.3451
  530MOL0     H71494   3.429  10.074   8.275  1.4619 -0.9971  0.4292
  530MOL0     H71495   3.341   9.844   8.206 -0.6703 -0.4093  0.6870
  530MOL0     H71496   3.284   9.834   8.378 -1.1397 -0.4264 -0.3354
  530MOL0     H71497   3.191  10.077   8.316  0.7399 -0.6896  0.3440
  530MOL0     H71498   3.101   9.922   8.279  0.7191  0.8155  1.0459
  530MOL0     H71499   3.138  10.122   8.098 -2.4316 -1.7269 -0.2225
  530MOL0     H71500   3.292  10.051   8.066  0.8898 -2.5437 -0.8061
  530MOL0     H71501   2.913   9.922   8.098 -0.5589  3.6462 -2.6294
  530MOL0     H71502   2.777   9.751   7.976 -0.7288 -2.7904  0.9318
  530MOL0     H71503   2.816   9.757   7.808  3.5781 -0.3154 -1.7441
  530MOL0     H71504   2.934   9.536   7.816  1.2375  6.2266 -2.3967
  530MOL0     H71505   2.909   9.517   7.986  0.4732  0.8868  0.7007
  530MOL0     H71506   2.756   9.407   7.841  2.6992  1.4393 -2.3843
  530MOL0     H71507   2.699   9.571   7.778 -0.1197  0.8678  1.0859
  530MOL0     H71508   2.665   9.493   8.074  0.0151 -0.2745  0.0987
  530MOL0     H71509   2.544   9.468   7.954  1.1689 -1.3528 -0.7754
  530MOL0     H71510   2.460   9.839   8.116 -1.9832  0.1054  1.2282
  530MOL0     H71511   2.312  10.022   7.991 -1.1928  0.2609 -1.4251
  530MOL0     H71512   2.036  10.277   7.917  3.4283  3.6578  0.2029
  530MOL0     H71513   1.885  10.443   7.823 -1.8042 -0.8183 -1.6847
  530MOL0     H71514   1.896  10.718   7.481  0.5266 -0.1118  2.1158
  530MOL0     H71515   2.062  10.675   7.464 -0.3763  1.8522  1.7088
  530MOL0     H71516   1.959  10.593   7.254 -1.2589  0.9112 -0.9836
  530MOL0     H71517   1.991  10.448   7.351  0.2125  0.1904 -0.6540
  530MOL0     H71518   1.773  10.438   7.267 -1.1511  0.0696 -0.1003
  530MOL0     H71519   1.738  10.482   7.428  1.5546  1.7889  1.6075
  530MOL0     H71520   1.769  10.678   7.196 -0.6133  0.9015 -0.7392
  530MOL0     H71521   1.696  10.712   7.354 -0.2702 -0.4944 -0.4600
  530MOL0     H71522   1.515  10.676   7.216  1.2013  1.0026  0.2196
  530MOL0     H71523   1.539  10.510   7.305  0.8756  0.5978  1.1418
  530MOL0     H71524   1.639  10.546   7.016  0.4721 -2.1041 -0.2178
  530MOL0     H71525   1.617  10.411   7.115 -2.1767 -0.5504  1.6620
  530MOL0     H71526   1.378  10.590   7.042 -0.5840  0.0272  1.6789
  530MOL0     H71527   1.371  10.419   7.088 -2.9709  2.6917 -1.8388
  530MOL0     H71528   1.332  10.448   6.842  0.1013 -1.6395  0.2583
  530MOL0     H71529   1.479  10.544   6.841 -1.3896 -0.7734 -1.5155
  530MOL0     H71530   2.152  10.433   7.479  1.5339 -3.6143  0.3103
  530MOL0     H71531   2.237  10.230   7.544 -0.5959 -0.7298 -1.4189
  530MOL0     H71532   2.375   9.769   7.637 -0.3313 -0.8470  0.7482
  530MOL0     H71533   2.497   9.614   7.771 -0.1470 -1.1449  3.2302
  530MOL0     H71534   3.840  10.052   8.508 -0.7005 -1.2036 -1.2956
  530MOL0     H71535   4.030  10.199   8.448  1.4952 -0.4058 -1.4110
  530MOL0     H71536   4.534  10.207   8.543 -2.6442  1.3604 -0.0844
  530MOL0     H71537   4.679  10.404   8.544  2.3806  0.0380 -0.7821
  530MOL0     H71538   4.880  10.427   8.508  2.0693 -0.1863  1.4865
  530MOL0     H71539   4.873  10.600   8.499 -0.8908 -0.9030  1.3164
  530MOL0     H71540   5.040  10.576   8.285  1.2018 -0.9695 -1.2757
  530MOL0     H71541   5.022  10.407   8.308  1.3220  1.1801 -2.6944
  530MOL0     H71542   5.224  10.461   8.426 -0.0612 -0.0136 -0.7308
  530MOL0     H71543   5.092  10.427   8.544  0.5053 -1.2811 -1.7974
  530MOL0     H71544   5.078  10.670   8.594  1.4002  2.0537  0.4982
  530MOL0     H71545   5.226  10.592   8.645  0.0009  0.6908  0.9641
  530MOL0     H71546   5.354  10.864   8.353  1.0643  0.0837  1.5003
  530MOL0     H71547   4.628  10.443   8.131 -3.4339 -0.9819 -1.9437
  530MOL0     H71548   4.484  10.313   8.002  2.7605 -1.1900 -1.1710
  530MOL0     H71549   4.519  10.140   8.041 -0.5270 -0.5238  0.0556
  530MOL0     H71550   4.361  10.230   8.073  0.3335  0.7074 -3.6091
  531MOL0     O71551   4.213   1.644   0.475  0.3952 -0.3471 -0.1373
  531MOL0     C71552   4.267   1.751   0.434  0.2010  0.6323 -0.2618
  531MOL0     O71553   4.382   1.749   0.366  0.9341  0.3874  0.2270
  531MOL0     C71554   4.437   1.625   0.350  0.3949 -0.3789 -0.1832
  531MOL0     C71555   4.538   1.590   0.439 -1.0710  0.0454  0.1203
  531MOL0     C71556   4.607   1.468   0.412  0.6254  0.4520 -0.7868
  531MOL0     C71557   4.582   1.397   0.295  0.6607  0.4594  0.0203
  531MOL0     O71558   4.645   1.277   0.274 -0.2514  0.3821 -1.3319
  531MOL0     C71559   4.560   1.159   0.281 -0.3346  0.3408 -0.4255
  531MOL0     C71560   4.650   1.040   0.295 -0.4814  0.1651 -0.4214
  531MOL0     C71561   4.724   1.026   0.430  0.1795 -0.6278  0.0777
  531MOL0     C71562   4.803   0.897   0.423 -0.2531  1.2215  0.2416
  531MOL0     C71563   4.919   0.901   0.527  1.2764 -0.0368 -1.0171
  531MOL0     C71564   5.053   0.878   0.463 -0.2425 -0.3346  0.1791
  531MOL0     C71565   5.100   0.990   0.371  0.8997  0.2667  0.3448
  531MOL0     C71566   5.245   0.999   0.340  0.9453  0.4377 -0.3115
  531MOL0     N71567   5.301   0.867   0.311  0.3789  0.6388  0.5715
  531MOL0     C71568   5.377   0.801   0.393 -0.6507 -1.1581 -0.6278
  531MOL0     C71569   5.430   0.713   0.305 -0.7107  0.2529  0.4989
  531MOL0     C71570   5.546   0.625   0.341 -0.4910 -0.0258 -0.6472
  531MOL0     C71571   5.517   0.480   0.297 -0.5572  0.2650  0.2372
  531MOL0     C71572   5.637   0.385   0.337 -0.9379  0.2586  0.3712
  531MOL0     C71573   5.624   0.345   0.479 -0.1448  0.1758 -0.0926
  531MOL0     O71574   5.503   0.265   0.491 -0.1881  0.2219 -0.5623
  531MOL0     C71575   5.504   0.166   0.586  0.1604 -0.5757 -0.4151
  531MOL0     C71576   5.611   0.139   0.677  0.8601  0.1546 -0.0567
  531MOL0     C71577   5.596   0.034   0.777 -0.1802 -0.0729 -0.6604
  531MOL0     C71578   5.486  -0.048   0.778 -0.1555  0.2468  0.2905
  531MOL0     C71579   5.478  -0.157   0.884 -0.2793  0.4406  0.0624
  531MOL0     O71580   5.376  -0.249   0.856  0.3984  0.2921 -0.3542
  531MOL0     C71581   5.359  -0.364   0.924 -0.1446  0.4160 -0.4201
  531MOL0     C71582   5.469  -0.440   0.953  0.4666  0.0725  0.4724
  531MOL0     C71583   5.457  -0.566   1.015 -0.7643 -0.2572  0.3406
  531MOL0     C71584   5.331  -0.613   1.062 -0.1627 -0.2561  1.1439
  531MOL0     O71585   5.312  -0.730   1.128 -0.0377 -0.0701 -0.3201
  531MOL0     C71586   5.387  -0.736   1.251 -0.6664 -0.4712  0.5281
  531MOL0     C71587   5.299  -0.773   1.360 -0.2363  0.4000 -0.5442
  531MOL0     C71588   5.364  -0.792   1.501  0.5805 -0.8735 -0.3678
  531MOL0     C71589   5.440  -0.929   1.500  0.4695 -0.6142  0.9037
  531MOL0     C71590   5.445  -1.005   1.634 -1.0073 -0.4481  1.1406
  531MOL0     C71591   5.311  -1.041   1.693 -0.7304 -0.1569  0.7270
  531MOL0     C71592   5.323  -1.146   1.801 -0.3870  0.9755 -0.1153
  531MOL0     C71593   5.430  -1.109   1.906  0.7887 -0.6790 -1.0668
  531MOL0    Cl71594   5.416  -1.220   2.039  0.1727  0.6215  0.6978
  531MOL0     C71595   5.215  -0.540   1.022 -0.3326  0.9034  0.6981
  531MOL0     C71596   5.227  -0.417   0.946 -0.2497 -0.3684 -0.6132
  531MOL0     O71597   5.549  -0.151   0.979 -0.4486  0.6665  0.0711
  531MOL0     C71598   5.385  -0.017   0.684 -0.2874 -0.2051 -0.2284
  531MOL0     C71599   5.393   0.083   0.592 -0.1370 -0.4638 -1.2858
  531MOL0     N71600   5.368   0.706   0.184 -0.0615 -0.8292  0.7035
  531MOL0     N71601   5.288   0.813   0.186 -0.5996  0.2536 -0.2382
  531MOL0     C71602   4.481   1.441   0.202 -0.1172 -0.5071 -0.2960
  531MOL0     C71603   4.412   1.552   0.228 -0.8653 -0.3675  1.0770
  531MOL0     C71604   4.197   1.887   0.447 -0.0750  0.8136 -0.9722
  531MOL0     C71605   4.261   1.996   0.382 -0.1969 -0.5661 -1.1096
  531MOL0     C71606   4.202   2.124   0.390 -0.3275  0.7682  0.5521
  531MOL0     C71607   4.076   2.125   0.444  0.5183 -0.0513 -0.6463
  531MOL0     O71608   4.002   2.237   0.440 -0.3542 -0.0512  0.3681
  531MOL0     C71609   4.063   2.355   0.369  0.3246  0.8608  0.0785
  531MOL0     C71610   3.975   2.479   0.354 -0.0116 -0.4948 -0.4949
  531MOL0     C71611   3.864   2.452   0.249  0.7078  0.6106  0.0575
  531MOL0     C71612   3.729   2.514   0.296  0.2943 -0.1263 -0.7072
  531MOL0     C71613   3.678   2.454   0.420  0.3943 -0.2823  0.5823
  531MOL0     C71614   3.683   2.409   0.532 -0.2576  0.1572 -0.3543
  531MOL0     C71615   4.010   2.020   0.497  0.0250  0.6907 -0.3446
  531MOL0     C71616   4.074   1.903   0.519 -0.4942  0.0914 -0.2125
  531MOL0     C71617   4.015   1.813   0.625 -0.1661  0.3922  0.3426
  531MOL0     H71618   4.555   1.659   0.522 -1.0736  1.3167 -0.9127
  531MOL0     H71619   4.685   1.425   0.474 -0.2391 -1.0934 -0.7092
  531MOL0     H71620   4.495   1.162   0.368  0.2799 -4.5996  0.4638
  531MOL0     H71621   4.502   1.153   0.188 -2.6837 -3.0465  1.0771
  531MOL0     H71622   4.722   1.031   0.214 -1.4390 -1.0669 -1.1729
  531MOL0     H71623   4.585   0.953   0.284  0.3882 -0.3237 -1.9143
  531MOL0     H71624   4.650   1.028   0.511 -1.1433  1.3370 -1.0878
  531MOL0     H71625   4.793   1.111   0.434  3.0863 -2.5037 -3.7074
  531MOL0     H71626   4.735   0.811   0.428 -1.2726  1.4816 -4.5950
  531MOL0     H71627   4.842   0.882   0.322 -0.2199 -0.4336  0.4630
  531MOL0     H71628   4.906   0.990   0.589 -0.5332 -1.6058  1.0121
  531MOL0     H71629   4.907   0.817   0.597  0.0283  1.1811  0.3121
  531MOL0     H71630   5.133   0.874   0.537  0.4510 -0.5668 -0.5697
  531MOL0     H71631   5.051   0.782   0.410 -1.3813 -0.5536  0.5789
  531MOL0     H71632   5.067   1.085   0.413  0.4196 -0.1788  0.9842
  531MOL0     H71633   5.038   0.980   0.282  0.9619  1.3668  0.1617
  531MOL0     H71634   5.246   1.051   0.244 -0.0366 -3.0136 -2.3862
  531MOL0     H71635   5.296   1.055   0.419  2.1487  1.7628 -1.9692
  531MOL0     H71636   5.421   0.827   0.489 -1.8941  1.3640 -0.6417
  531MOL0     H71637   5.633   0.661   0.286  0.2037  0.3157  0.6349
  531MOL0     H71638   5.572   0.625   0.447 -0.9034 -0.9256 -0.5370
  531MOL0     H71639   5.423   0.442   0.339 -1.2397  0.4589 -1.0675
  531MOL0     H71640   5.497   0.484   0.190  0.5503 -1.0300 -0.0473
  531MOL0     H71641   5.734   0.430   0.312  0.4688 -3.1759 -0.9403
  531MOL0     H71642   5.623   0.295   0.276 -0.3946  1.4956 -1.6916
  531MOL0     H71643   5.621   0.429   0.548 -1.3783 -0.0348  0.1220
  531MOL0     H71644   5.711   0.284   0.507 -0.6991  0.9309  3.7234
  531MOL0     H71645   5.708   0.187   0.676  0.7864  0.4519  2.3578
  531MOL0     H71646   5.678   0.029   0.849  0.9464  0.4270 -1.8645
  531MOL0     H71647   5.573  -0.412   0.941  0.7078 -1.1971 -0.5909
  531MOL0     H71648   5.543  -0.630   1.033  1.5472  2.6056  0.3335
  531MOL0     H71649   5.461  -0.817   1.250  0.1583  0.2362 -1.4499
  531MOL0     H71650   5.430  -0.637   1.273 -0.1782  0.2423 -3.0385
  531MOL0     H71651   5.234  -0.685   1.363 -0.1464  0.4457  0.2522
  531MOL0     H71652   5.240  -0.860   1.329 -0.7698  1.2512 -2.0563
  531MOL0     H71653   5.436  -0.710   1.500 -1.6987  1.2511  0.2574
  531MOL0     H71654   5.296  -0.781   1.586  3.2683 -1.0848  1.9746
  531MOL0     H71655   5.543  -0.912   1.467  0.1418  0.6268  0.4458
  531MOL0     H71656   5.390  -1.004   1.438  0.4235 -1.4187  1.8856
  531MOL0     H71657   5.500  -0.948   1.710  1.1397 -0.2494 -0.4548
  531MOL0     H71658   5.513  -1.089   1.617  0.3464  0.6188  1.0620
  531MOL0     H71659   5.286  -0.943   1.737  4.1720  1.2990  0.8550
  531MOL0     H71660   5.239  -1.075   1.618  0.7007 -2.1471  0.1784
  531MOL0     H71661   5.361  -1.234   1.749  3.2305  3.8141 -2.7470
  531MOL0     H71662   5.226  -1.153   1.852 -0.0495 -0.6164  0.3801
  531MOL0     H71663   5.529  -1.105   1.860  0.3715 -0.3352 -1.9652
  531MOL0     H71664   5.408  -1.010   1.947 -3.5889 -1.3718 -1.1922
  531MOL0     H71665   5.121  -0.587   1.052  0.5062 -0.8856  0.6494
  531MOL0     H71666   5.143  -0.351   0.925  1.7341  2.4436 -0.3924
  531MOL0     H71667   5.300  -0.084   0.680  1.4373 -2.4524 -1.1543
  531MOL0     H71668   5.310   0.111   0.527  1.6645  0.1331 -3.4559
  531MOL0     H71669   4.472   1.387   0.108 -1.0336 -0.2644 -0.3629
  531MOL0     H71670   4.341   1.586   0.154 -1.1530 -0.4720  1.2996
  531MOL0     H71671   4.360   1.981   0.339 -0.0070  3.4467 -2.5046
  531MOL0     H71672   4.260   2.204   0.347 -0.9835  0.1370 -1.6396
  531MOL0     H71673   4.088   2.328   0.266 -2.7313  0.2812 -0.6162
  531MOL0     H71674   4.157   2.388   0.415  0.9411 -0.2523 -0.3467
  531MOL0     H71675   4.041   2.560   0.321  1.2075 -0.9287  0.8400
  531MOL0     H71676   3.941   2.499   0.456 -0.2047  0.7695 -0.7920
  531MOL0     H71677   3.861   2.345   0.229  0.1921  0.6131  0.1036
  531MOL0     H71678   3.903   2.490   0.154  0.3501  0.4430 -0.1596
  531MOL0     H71679   3.741   2.621   0.320 -1.4358  0.0536 -0.5673
  531MOL0     H71680   3.665   2.513   0.208  2.9785  2.0921 -2.8847
  531MOL0     H71681   3.700   2.368   0.630  0.7620  0.6056 -0.3263
  531MOL0     H71682   3.909   2.028   0.535  1.0676  2.9898  2.2562
  531MOL0     H71683   4.087   1.742   0.667  0.6299  2.5043  2.8492
  531MOL0     H71684   3.974   1.860   0.714  1.8554 -0.6309  1.8906
  531MOL0     H71685   3.941   1.747   0.578  1.2024 -0.1234 -1.2046
  532MOL0     O71686   2.566   0.460   0.053  0.1221  0.9813  0.1892
  532MOL0     C71687   2.553   0.495   0.169  0.3591  1.0612  0.2378
  532MOL0     O71688   2.469   0.596   0.211 -0.0709 -0.5253  0.4559
  532MOL0     C71689   2.425   0.682   0.122  0.5442 -0.2763  0.6984
  532MOL0     C71690   2.291   0.661   0.075 -0.2154  0.3919 -0.5685
  532MOL0     C71691   2.235   0.748  -0.020  0.2467  0.6447 -0.3073
  532MOL0     C71692   2.313   0.851  -0.074 -0.3519  0.3750 -0.2263
  532MOL0     O71693   2.285   0.932  -0.186 -0.3522 -0.5121  0.3589
  532MOL0     C71694   2.143   0.960  -0.215 -0.0265  0.0799 -0.3791
  532MOL0     C71695   2.121   1.102  -0.159 -0.1743  0.1736  0.2151
  532MOL0     C71696   2.191   1.202  -0.259 -0.5850  0.0866  1.2887
  532MOL0     C71697   2.222   1.337  -0.200 -0.2193 -0.0884 -0.0145
  532MOL0     C71698   2.304   1.414  -0.300 -0.5193  1.3040 -0.2206
  532MOL0     C71699   2.367   1.537  -0.253  0.6844 -0.3936 -0.2068
  532MOL0     C71700   2.272   1.647  -0.206  0.3422  0.0878 -0.5941
  532MOL0     C71701   2.352   1.754  -0.117 -0.5631 -0.9118  0.4505
  532MOL0     N71702   2.255   1.858  -0.074  0.5219  0.4721  0.1542
  532MOL0     C71703   2.246   1.993  -0.111 -0.1882  0.7352  0.1339
  532MOL0     C71704   2.135   2.039  -0.046 -0.7815  0.5656  0.9494
  532MOL0     C71705   2.079   2.181  -0.049 -0.5595 -0.2376 -0.7591
  532MOL0     C71706   2.084   2.249   0.090 -0.0519  0.3826  0.2133
  532MOL0     C71707   1.963   2.221   0.174  0.1620  0.7125  0.6836
  532MOL0     C71708   1.973   2.286   0.322 -0.1575 -1.0719  0.8054
  532MOL0     O71709   1.983   2.431   0.308 -1.0136  0.1565  0.0941
  532MOL0     C71710   1.879   2.521   0.281  0.0696  0.1548 -1.4109
  532MOL0     C71711   1.746   2.492   0.317 -0.1586  0.0348  0.4786
  532MOL0     C71712   1.644   2.586   0.289  0.0539 -0.5054 -0.1846
  532MOL0     C71713   1.666   2.701   0.205 -1.0426 -0.7014 -0.8915
  532MOL0     C71714   1.558   2.788   0.155  0.2126  0.6236 -0.4478
  532MOL0     O71715   1.588   2.876   0.065  0.1513 -0.4398 -0.1217
  532MOL0     C71716   1.540   3.007   0.074 -0.0857  0.4779 -0.0096
  532MOL0     C71717   1.548   3.070   0.192  0.0305 -0.7095 -1.1358
  532MOL0     C71718   1.523   3.209   0.196 -0.2296  0.0984 -0.2742
  532MOL0     C71719   1.470   3.275   0.085  0.1417  0.5946  0.3290
  532MOL0     O71720   1.431   3.404   0.098 -0.1518  0.5329  0.3314
  532MOL0     C71721   1.414   3.488  -0.017  1.1705  0.7641 -0.7613
  532MOL0     C71722   1.558   3.512  -0.082  0.1692  1.0239  0.3194
  532MOL0     C71723   1.559   3.631  -0.186 -0.0909  1.3865 -0.4085
  532MOL0     C71724   1.581   3.578  -0.330  0.1089  0.6461  0.0350
  532MOL0     C71725   1.446   3.504  -0.390 -0.7380 -0.5862 -0.0383
  532MOL0     C71726   1.475   3.481  -0.538  0.1534  2.0177  0.3915
  532MOL0     C71727   1.342   3.414  -0.595  0.0232  0.5269 -0.2054
  532MOL0     C71728   1.343   3.395  -0.754 -0.2078 -0.1611  0.4060
  532MOL0    Cl71729   1.178   3.353  -0.825  0.2803  0.2678 -0.0702
  532MOL0     C71730   1.454   3.201  -0.034  0.3812  1.1555 -0.4017
  532MOL0     C71731   1.500   3.068  -0.041  0.7296 -0.8773  0.3282
  532MOL0     O71732   1.445   2.771   0.201 -0.2974 -0.6245 -0.0775
  532MOL0     C71733   1.799   2.736   0.193  0.8658  0.9760 -0.0441
  532MOL0     C71734   1.909   2.644   0.228  0.0972 -0.0479 -0.1812
  532MOL0     N71735   2.077   1.927   0.008  0.1613 -0.5506 -0.7534
  532MOL0     N71736   2.153   1.825   0.001 -0.1663 -0.6947 -0.6903
  532MOL0     C71737   2.448   0.867  -0.034  0.4039 -0.2513 -0.1697
  532MOL0     C71738   2.505   0.781   0.065  0.2542 -0.8240  0.5002
  532MOL0     C71739   2.632   0.421   0.281  0.4384 -0.6402 -0.0007
  532MOL0     C71740   2.585   0.447   0.414  0.3180 -0.0057  0.1162
  532MOL0     C71741   2.631   0.375   0.520 -0.3891  0.8087  0.5738
  532MOL0     C71742   2.725   0.272   0.510 -0.6871  1.0063 -0.0643
  532MOL0     O71743   2.770   0.184   0.613 -0.0006 -0.8798  0.4342
  532MOL0     C71744   2.710   0.196   0.744 -0.6904  0.1885  0.2108
  532MOL0     C71745   2.753   0.075   0.822  0.1203 -0.3637  0.3572
  532MOL0     C71746   2.651   0.050   0.936 -0.3971  0.0740  0.2773
  532MOL0     C71747   2.718  -0.063   1.020 -0.3553 -0.0105 -1.1925
  532MOL0     C71748   2.631  -0.085   1.141 -0.4736  0.6490 -0.2391
  532MOL0     C71749   2.565  -0.096   1.244  0.2357 -0.3006  0.0654
  532MOL0     C71750   2.773   0.249   0.382 -0.0252  0.9122  0.2551
  532MOL0     C71751   2.719   0.311   0.270 -0.6558 -0.0246 -0.2837
  532MOL0     C71752   2.787   0.269   0.136 -0.0144 -0.4897 -0.6979
  532MOL0     H71753   2.227   0.590   0.126  0.7810 -0.5721 -0.6149
  532MOL0     H71754   2.131   0.721  -0.033  0.8271 -2.5320  0.8054
  532MOL0     H71755   2.116   0.964  -0.321  1.4237  0.6478 -0.7453
  532MOL0     H71756   2.073   0.891  -0.165 -0.3882 -1.1658 -2.4784
  532MOL0     H71757   2.164   1.105  -0.058 -2.3289  0.2302  1.1800
  532MOL0     H71758   2.016   1.132  -0.162  0.3915  2.7944 -4.6184
  532MOL0     H71759   2.131   1.222  -0.348  0.0406  0.9032  1.0414
  532MOL0     H71760   2.284   1.160  -0.296 -0.5848 -2.1531  3.5212
  532MOL0     H71761   2.127   1.388  -0.180 -1.0136 -2.3024  2.3563
  532MOL0     H71762   2.282   1.338  -0.108 -0.3190  1.0143  0.0619
  532MOL0     H71763   2.386   1.357  -0.344  0.0555  3.5322 -2.2331
  532MOL0     H71764   2.239   1.437  -0.384  0.8631  0.3170 -1.6202
  532MOL0     H71765   2.423   1.494  -0.169 -4.1792 -1.5961  2.7826
  532MOL0     H71766   2.440   1.571  -0.327  1.0986 -0.7347  0.0380
  532MOL0     H71767   2.191   1.604  -0.146  1.0706  0.1913  0.4907
  532MOL0     H71768   2.218   1.693  -0.289 -3.3187 -0.7375  1.0958
  532MOL0     H71769   2.396   1.711  -0.027  3.0426  2.1859  0.4404
  532MOL0     H71770   2.419   1.796  -0.193  0.0403 -0.9783  0.9400
  532MOL0     H71771   2.325   2.049  -0.159 -0.8070  2.0830  0.6551
  532MOL0     H71772   2.142   2.238  -0.118 -1.8939  0.5249 -1.3893
  532MOL0     H71773   1.977   2.183  -0.087  0.2517  2.0418 -3.1581
  532MOL0     H71774   2.180   2.213   0.130  1.4480  2.3931 -1.3498
  532MOL0     H71775   2.101   2.353   0.062  0.4668  0.4865  0.8737
  532MOL0     H71776   1.928   2.119   0.189  0.0930  0.5822 -0.3181
  532MOL0     H71777   1.882   2.272   0.121  0.2103  1.7729  1.5819
  532MOL0     H71778   2.065   2.260   0.376  2.8018  1.9754 -2.2769
  532MOL0     H71779   1.880   2.262   0.376 -0.4591 -3.5387 -0.6820
  532MOL0     H71780   1.725   2.402   0.374  1.4389  1.1244  2.9470
  532MOL0     H71781   1.544   2.566   0.327  0.6328  2.8751  3.8369
  532MOL0     H71782   1.575   3.009   0.279 -0.4177 -1.6088 -1.6080
  532MOL0     H71783   1.545   3.263   0.288 -0.7270 -1.6724  0.9408
  532MOL0     H71784   1.339   3.449  -0.087  0.6076  1.7058 -0.7120
  532MOL0     H71785   1.376   3.584   0.020  3.1573  0.6395  1.9044
  532MOL0     H71786   1.624   3.531   0.004  0.8734 -0.8235  0.2357
  532MOL0     H71787   1.601   3.421  -0.123  0.7594  1.6863 -0.5544
  532MOL0     H71788   1.468   3.690  -0.175 -2.5286 -2.0506 -0.5103
  532MOL0     H71789   1.651   3.689  -0.172  0.4012  1.0251 -1.9337
  532MOL0     H71790   1.654   3.496  -0.333  0.6032  1.1265 -2.2977
  532MOL0     H71791   1.624   3.655  -0.394  3.8942 -1.0477  0.2390
  532MOL0     H71792   1.367   3.579  -0.383  1.4914  2.4329 -3.5777
  532MOL0     H71793   1.424   3.410  -0.338 -3.2130  0.0760  0.2114
  532MOL0     H71794   1.506   3.573  -0.589  2.3004  1.0479 -0.1890
  532MOL0     H71795   1.559   3.414  -0.557 -2.1677 -0.2654 -2.8174
  532MOL0     H71796   1.254   3.473  -0.571  1.6690  2.3404  1.6935
  532MOL0     H71797   1.327   3.316  -0.549 -0.7456  1.4719  1.6763
  532MOL0     H71798   1.378   3.480  -0.813 -2.0681 -0.5666 -1.3898
  532MOL0     H71799   1.413   3.319  -0.791  0.3888  0.8687 -0.6202
  532MOL0     H71800   1.416   3.246  -0.125 -1.0494 -2.1788 -1.6358
  532MOL0     H71801   1.489   2.995  -0.121 -0.9035 -2.3185  1.7781
  532MOL0     H71802   1.831   2.818   0.129  0.8713 -1.3486 -3.2292
  532MOL0     H71803   2.008   2.662   0.186  0.6021  1.2099  1.4706
  532MOL0     H71804   2.501   0.953  -0.072 -2.4889  1.1680 -1.3195
  532MOL0     H71805   2.607   0.783   0.104  0.4112 -0.2333  0.0686
  532MOL0     H71806   2.512   0.519   0.451  0.6934  0.7491 -0.5777
  532MOL0     H71807   2.585   0.395   0.616 -0.2621  1.6819  0.4671
  532MOL0     H71808   2.602   0.209   0.750 -0.7065 -0.6153  2.0880
  532MOL0     H71809   2.761   0.283   0.786  2.0611  0.0149 -2.3491
  532MOL0     H71810   2.852   0.093   0.864 -0.7169 -1.0439  2.8646
  532MOL0     H71811   2.754  -0.002   0.745 -1.9734  2.1580 -2.4371
  532MOL0     H71812   2.560   0.013   0.888  1.3559 -2.9496 -0.9925
  532MOL0     H71813   2.647   0.140   0.998 -0.4330  2.1019 -2.4435
  532MOL0     H71814   2.732  -0.156   0.964  0.5493 -0.2753 -0.5475
  532MOL0     H71815   2.817  -0.033   1.055 -1.0141  2.8396 -1.5586
  532MOL0     H71816   2.500  -0.100   1.329  0.2081 -0.5732  0.0338
  532MOL0     H71817   2.842   0.166   0.366 -1.2452  0.0809 -0.9670
  532MOL0     H71818   2.861   0.188   0.138  1.3547  0.4591 -4.2878
  532MOL0     H71819   2.717   0.231   0.060 -1.8917 -2.8446  2.0150
  532MOL0     H71820   2.839   0.355   0.093 -1.6549 -0.2441 -2.3011
  533MOL0     O71821   4.633   8.971   9.849 -0.7090 -0.2830  0.1779
  533MOL0     C71822   4.736   9.035   9.884  0.0466  2.0165 -0.4826
  533MOL0     O71823   4.851   8.969   9.925  0.0296  0.1778 -0.2924
  533MOL0     C71824   4.858   8.842   9.937  0.0204  0.1280 -0.0747
  533MOL0     C71825   4.944   8.773  10.026  0.1819  0.1564 -0.2082
  533MOL0     C71826   4.963   8.630  10.029 -0.1329  0.7433  0.5665
  533MOL0     C71827   4.939   8.558   9.911  0.0814 -0.5521  0.1052
  533MOL0     O71828   4.980   8.428   9.888  0.1172  0.1404 -0.6885
  533MOL0     C71829   5.123   8.402   9.906  0.0321  0.8648  0.2495
  533MOL0     C71830   5.162   8.292  10.006 -0.0122 -0.5700  0.3325
  533MOL0     C71831   5.282   8.332  10.091  0.3270 -0.8147  0.5698
  533MOL0     C71832   5.332   8.205  10.161  0.2130  0.5808  0.5375
  533MOL0     C71833   5.449   8.218  10.241  0.3424  0.0071 -0.8270
  533MOL0     C71834   5.509   8.074  10.274 -0.2265  0.1297  0.7645
  533MOL0     C71835   5.427   7.978  10.350  0.4331  0.5333  0.3763
  533MOL0     C71836   5.495   7.846  10.390  0.3088 -0.4839 -0.1631
  533MOL0     N71837   5.593   7.862  10.500 -0.0352  0.4589  0.2844
  533MOL0     C71838   5.572   7.887  10.636 -0.0696  0.6214  0.9049
  533MOL0     C71839   5.690   7.871  10.700  0.2419 -0.0243 -0.2352
  533MOL0     C71840   5.698   7.869  10.854 -0.8359  0.3773 -0.8907
  533MOL0     C71841   5.800   7.766  10.911 -0.0500 -0.1824  0.2493
  533MOL0     C71842   5.753   7.622  10.882  0.1221  0.5995 -0.0704
  533MOL0     C71843   5.612   7.582  10.931 -0.1405  0.2757 -0.0931
  533MOL0     O71844   5.563   7.636  11.050  0.6231 -0.9030 -0.5859
  533MOL0     C71845   5.465   7.561  11.123  0.3877 -1.2624  0.3059
  533MOL0     C71846   5.478   7.429  11.163  0.0139 -0.2493  0.0056
  533MOL0     C71847   5.379   7.367  11.247 -0.0247  0.5202 -0.1149
  533MOL0     C71848   5.265   7.435  11.279 -0.9949 -0.1344 -0.2265
  533MOL0     C71849   5.160   7.384  11.354 -0.3938  0.4845  0.5904
  533MOL0     O71850   5.133   7.446  11.465 -0.0467 -0.9586  0.1601
  533MOL0     C71851   5.024   7.409  11.541  0.0772 -0.9023  0.4159
  533MOL0     C71852   5.052   7.340  11.654 -0.5867 -0.0344 -0.1114
  533MOL0     C71853   4.962   7.334  11.755  0.1247 -0.0834  0.5426
  533MOL0     C71854   4.833   7.386  11.742  0.2946 -0.8457  0.2294
  533MOL0     O71855   4.746   7.376  11.842 -0.1348 -0.4806 -0.0090
  533MOL0     C71856   4.713   7.493  11.918  0.7964  0.2527  0.5008
  533MOL0     C71857   4.655   7.475  12.054  0.1375  0.4762  0.1115
  533MOL0     C71858   4.743   7.403  12.147 -0.5892 -0.3709 -0.0293
  533MOL0     C71859   4.802   7.486  12.256 -0.4682  0.1611 -0.2260
  533MOL0     C71860   4.880   7.411  12.359 -0.5056  0.8139 -0.1778
  533MOL0     C71861   4.812   7.301  12.438 -0.8564 -0.0670  0.2368
  533MOL0     C71862   4.673   7.341  12.504 -1.0312 -0.0883  0.5626
  533MOL0     C71863   4.649   7.251  12.633 -0.1861 -0.1715  0.7010
  533MOL0    Cl71864   4.744   7.303  12.768 -0.0431  0.1356 -0.2666
  533MOL0     C71865   4.807   7.453  11.616 -0.2033 -0.1500  0.2950
  533MOL0     C71866   4.904   7.471  11.512  0.6566  0.2441 -0.9859
  533MOL0     O71867   5.119   7.271  11.320 -0.5170  0.0968 -0.4820
  533MOL0     C71868   5.265   7.574  11.257 -0.3135  0.4276 -0.4443
  533MOL0     C71869   5.361   7.646  11.181  0.0353  0.1787  0.2204
  533MOL0     N71870   5.775   7.816  10.608  0.1143  0.1363  0.0161
  533MOL0     N71871   5.725   7.815  10.493  0.0973 -0.3395  0.4817
  533MOL0     C71872   4.865   8.617   9.818 -0.2980  0.0320 -0.1933
  533MOL0     C71873   4.826   8.755   9.832 -0.2696  0.1457  0.2024
  533MOL0     C71874   4.744   9.190   9.895  0.1556  0.4849  1.2992
  533MOL0     C71875   4.872   9.248   9.880 -0.1265  0.7873 -0.6311
  533MOL0     C71876   4.882   9.384   9.888  0.6159  0.5163 -0.1694
  533MOL0     C71877   4.774   9.464   9.936 -0.1912  0.7708 -0.2473
  533MOL0     O71878   4.801   9.601   9.954  0.3537 -0.5429 -0.4470
  533MOL0     C71879   4.702   9.681   9.885 -1.0375  0.1691  0.6694
  533MOL0     C71880   4.741   9.827   9.901  1.2553 -0.2644  0.2000
  533MOL0     C71881   4.875   9.846   9.849 -0.7078  0.4764 -0.0113
  533MOL0     C71882   4.914   9.992   9.849  0.8292  0.5945 -0.3710
  533MOL0     C71883   5.046  10.029   9.804 -0.2777 -0.0697 -0.5690
  533MOL0     C71884   5.154  10.066   9.752  0.6365 -0.1649  0.1601
  533MOL0     C71885   4.649   9.407   9.936 -0.1306  1.3233  1.0103
  533MOL0     C71886   4.634   9.268   9.908  0.2695  0.1476 -0.3952
  533MOL0     C71887   4.488   9.214   9.900 -0.1548 -0.4688 -0.2651
  533MOL0     H71888   4.994   8.834  10.101 -1.3086 -1.2684  2.0802
  533MOL0     H71889   5.004   8.589  10.121  1.7643 -0.0016 -0.5417
  533MOL0     H71890   5.148   8.370   9.804 -0.9826 -4.3497  1.3563
  533MOL0     H71891   5.171   8.498   9.927 -3.5643  2.5804  1.3727
  533MOL0     H71892   5.188   8.202   9.949  0.0990 -1.1090  1.2133
  533MOL0     H71893   5.084   8.278  10.081 -1.2272 -1.0513 -0.9883
  533MOL0     H71894   5.254   8.407  10.165 -1.5814 -0.3265 -0.5827
  533MOL0     H71895   5.350   8.372  10.015 -3.2078  0.5719 -2.1226
  533MOL0     H71896   5.254   8.156  10.220  0.6878  0.5498  1.1516
  533MOL0     H71897   5.366   8.133  10.086  0.9502  0.9252  0.5241
  533MOL0     H71898   5.528   8.274  10.190 -2.5765  4.9744 -0.5805
  533MOL0     H71899   5.434   8.271  10.335 -0.6093 -1.9020  0.1555
  533MOL0     H71900   5.550   8.029  10.183 -0.5611 -1.2652  1.2803
  533MOL0     H71901   5.594   8.090  10.341  0.6586  1.7297 -0.6648
  533MOL0     H71902   5.333   7.948  10.302  0.4534 -1.0020  1.2127
  533MOL0     H71903   5.394   8.034  10.438 -1.8368  0.6235 -0.4611
  533MOL0     H71904   5.415   7.774  10.409  1.8542 -2.4124 -0.6358
  533MOL0     H71905   5.542   7.809  10.299 -0.4451  1.7766 -1.5488
  533MOL0     H71906   5.476   7.922  10.674 -0.4265  2.3427 -1.3048
  533MOL0     H71907   5.737   7.969  10.878 -1.4711  0.4005  0.0771
  533MOL0     H71908   5.599   7.843  10.891  1.1490 -0.7717  4.5398
  533MOL0     H71909   5.900   7.777  10.868  1.0355  0.0620  2.6159
  533MOL0     H71910   5.819   7.793  11.016  1.1735  3.2046 -0.7341
  533MOL0     H71911   5.819   7.552  10.934  0.6768  1.8657  0.9696
  533MOL0     H71912   5.755   7.605  10.774  0.9312  3.3009 -0.5372
  533MOL0     H71913   5.601   7.473  10.924 -0.1747  0.2749 -0.0266
  533MOL0     H71914   5.547   7.628  10.857  0.8246  0.6348 -0.7386
  533MOL0     H71915   5.565   7.373  11.132 -0.6800 -1.7076  0.5925
  533MOL0     H71916   5.388   7.265  11.283  2.1888  0.9423  0.6908
  533MOL0     H71917   5.155   7.308  11.668 -0.5196 -0.7114 -1.8646
  533MOL0     H71918   5.000   7.292  11.848  2.1159 -1.2230 -0.7027
  533MOL0     H71919   4.801   7.557  11.920  1.0748  0.1217 -2.4438
  533MOL0     H71920   4.637   7.547  11.862  0.3772  0.0184  0.8421
  533MOL0     H71921   4.636   7.577  12.088 -0.6082  2.1917 -4.7174
  533MOL0     H71922   4.556   7.432  12.038  1.0387 -1.1836 -1.4112
  533MOL0     H71923   4.680   7.323  12.187 -1.9928  0.5626 -0.2913
  533MOL0     H71924   4.827   7.354  12.097 -0.2451 -1.0880  1.2024
  533MOL0     H71925   4.734   7.551  12.311  1.9584  0.9043  2.1274
  533MOL0     H71926   4.874   7.555  12.211  1.8381 -0.0653  2.8083
  533MOL0     H71927   4.924   7.484  12.428  2.1955 -2.0918  1.4218
  533MOL0     H71928   4.970   7.364  12.319 -0.7008  0.0697  0.2502
  533MOL0     H71929   4.806   7.210  12.377 -0.1627  0.5788 -0.8220
  533MOL0     H71930   4.880   7.281  12.521  0.0047 -0.8218 -0.6389
  533MOL0     H71931   4.603   7.327  12.421  1.3411  2.2371 -2.0398
  533MOL0     H71932   4.682   7.447  12.530  0.4609  0.3792 -1.6377
  533MOL0     H71933   4.548   7.282  12.657 -0.8663  1.8066 -3.6796
  533MOL0     H71934   4.652   7.144  12.608  3.4888  0.0415 -0.4180
  533MOL0     H71935   4.713   7.499  11.585  0.2865  2.0895  1.8821
  533MOL0     H71936   4.885   7.536  11.427  0.7123  3.9468  1.5956
  533MOL0     H71937   5.185   7.627  11.307 -1.1801 -0.1589 -1.1861
  533MOL0     H71938   5.358   7.754  11.176 -1.7031  0.2360  1.5230
  533MOL0     H71939   4.827   8.563   9.732 -0.2892  2.2817 -1.7057
  533MOL0     H71940   4.786   8.789   9.737  0.4197  3.3836  0.9342
  533MOL0     H71941   4.961   9.187   9.873 -0.9526 -0.5031 -0.1708
  533MOL0     H71942   4.978   9.429   9.866 -0.7000  2.6184 -2.0844
  533MOL0     H71943   4.600   9.669   9.924 -1.7320 -2.5836 -1.6728
  533MOL0     H71944   4.696   9.649   9.781 -1.5233  1.9571  0.1169
  533MOL0     H71945   4.728   9.872  10.000 -2.2043  3.4289 -1.6651
  533MOL0     H71946   4.676   9.878   9.830  2.6995  1.9797  0.3905
  533MOL0     H71947   4.901   9.805   9.751  2.3384 -0.8579  1.2440
  533MOL0     H71948   4.938   9.798   9.925  2.4885  1.8887 -1.5888
  533MOL0     H71949   4.841  10.050   9.792 -2.1582 -1.2493  1.2858
  533MOL0     H71950   4.904  10.037   9.948 -3.3271  1.1913 -0.8705
  533MOL0     H71951   5.239  10.118   9.714 -1.4190  1.8321 -2.0495
  533MOL0     H71952   4.563   9.473   9.942  0.0372  1.5966  0.4671
  533MOL0     H71953   4.453   9.186   9.800 -2.4318  2.3447 -0.3663
  533MOL0     H71954   4.484   9.126   9.964 -0.3880 -1.6574 -1.8584
  533MOL0     H71955   4.415   9.286   9.938 -1.2326  0.3971 -3.6348
  534MOL0     O71956   6.614   7.795   2.421  0.7046  0.2404  0.0866
  534MOL0     C71957   6.509   7.771   2.369  0.5399 -0.2578 -0.5219
  534MOL0     O71958   6.417   7.858   2.328 -0.2722 -0.0343  0.3461
  534MOL0     C71959   6.436   7.993   2.350  0.3922  0.0477  0.5955
  534MOL0     C71960   6.523   8.068   2.270  1.0894  0.1537  1.2808
  534MOL0     C71961   6.520   8.205   2.290  0.2185 -0.5339  0.5820
  534MOL0     C71962   6.441   8.256   2.391  0.9182 -0.7907 -0.2909
  534MOL0     O71963   6.430   8.393   2.398  0.0467  0.5042 -0.2135
  534MOL0     C71964   6.420   8.457   2.528  0.0000 -0.1332 -0.4158
  534MOL0     C71965   6.515   8.583   2.517  0.0058  0.8996  0.1575
  534MOL0     C71966   6.476   8.683   2.398  0.1217  0.4684 -0.5534
  534MOL0     C71967   6.347   8.754   2.423 -0.4195  0.0022 -0.5356
  534MOL0     C71968   6.378   8.900   2.477  0.3501 -0.2898 -0.2144
  534MOL0     C71969   6.246   8.972   2.520  0.4608  0.6055 -0.1169
  534MOL0     C71970   6.154   9.013   2.399  0.6516  0.3056  0.2815
  534MOL0     C71971   6.055   9.128   2.444  0.3297  0.4682  0.9245
  534MOL0     N71972   5.973   9.098   2.562  0.0930  0.4863  0.3821
  534MOL0     C71973   5.887   8.999   2.589  0.0586  0.2335 -0.3215
  534MOL0     C71974   5.834   9.044   2.705  0.8435 -0.7146  0.6120
  534MOL0     C71975   5.743   8.960   2.791  0.0585  0.7337 -0.9839
  534MOL0     C71976   5.717   9.025   2.926  0.2816 -0.0365 -0.1089
  534MOL0     C71977   5.586   8.978   2.986  0.3682 -1.1020  0.3592
  534MOL0     C71978   5.565   8.828   2.998  1.2299 -0.1059  0.4335
  534MOL0     O71979   5.679   8.754   3.019  0.3770  0.2601  0.9808
  534MOL0     C71980   5.662   8.609   3.034 -0.8882 -0.6879 -0.2914
  534MOL0     C71981   5.579   8.534   2.951 -0.2071  0.4548  1.4590
  534MOL0     C71982   5.576   8.391   2.966 -0.0601  0.4333  0.9861
  534MOL0     C71983   5.648   8.333   3.074  0.7524  0.1993 -0.3622
  534MOL0     C71984   5.644   8.187   3.113 -0.4194  1.0233  0.6457
  534MOL0     O71985   5.696   8.149   3.233 -0.0528  0.4582 -0.3157
  534MOL0     C71986   5.673   8.028   3.296 -0.7100  0.3126  0.8437
  534MOL0     C71987   5.752   8.006   3.408 -0.3702  1.4629  0.1567
  534MOL0     C71988   5.720   7.911   3.503 -0.4842 -0.1193 -0.3822
  534MOL0     C71989   5.625   7.816   3.480  0.3777  0.0018  0.0088
  534MOL0     O71990   5.560   7.742   3.573 -0.4794 -0.0835  0.0525
  534MOL0     C71991   5.629   7.703   3.697 -0.2247  0.2821  0.5820
  534MOL0     C71992   5.558   7.602   3.791 -0.1628  1.2889 -0.3845
  534MOL0     C71993   5.563   7.466   3.727  0.4514 -0.0316 -0.7413
  534MOL0     C71994   5.677   7.384   3.776 -0.4054 -0.4490  0.4589
  534MOL0     C71995   5.688   7.250   3.703 -0.1288 -0.0418  0.1900
  534MOL0     C71996   5.833   7.184   3.723  0.1277  0.3806  0.0093
  534MOL0     C71997   5.854   7.132   3.869 -0.3362  0.4290  0.5770
  534MOL0     C71998   5.908   6.996   3.875  0.5430  0.0638 -0.5863
  534MOL0    Cl71999   6.070   6.998   3.808 -0.0555 -0.0501  0.5867
  534MOL0     C72000   5.552   7.835   3.367 -0.4541  0.2637 -0.6777
  534MOL0     C72001   5.578   7.932   3.273  1.1259  0.0495 -0.2367
  534MOL0     O72002   5.596   8.106   3.025  0.0251 -0.2995 -1.1340
  534MOL0     C72003   5.719   8.413   3.169  0.2503  0.1880  0.1248
  534MOL0     C72004   5.734   8.545   3.136 -1.0626 -0.3515  0.9052
  534MOL0     N72005   5.878   9.172   2.726 -0.4303  0.2319  0.3238
  534MOL0     N72006   5.967   9.207   2.647 -0.2678 -0.5826 -0.0623
  534MOL0     C72007   6.370   8.180   2.480 -0.1791  1.1950 -0.1298
  534MOL0     C72008   6.367   8.041   2.464 -0.4375 -0.2698  0.9125
  534MOL0     C72009   6.502   7.629   2.323 -0.5153 -0.6623  0.3936
  534MOL0     C72010   6.491   7.603   2.185  0.8389 -0.2702 -0.1017
  534MOL0     C72011   6.480   7.470   2.144 -0.3553 -0.2291  0.6709
  534MOL0     C72012   6.488   7.362   2.228  0.3996  0.4248  0.7514
  534MOL0     O72013   6.494   7.236   2.181 -0.0681  0.7642  0.1830
  534MOL0     C72014   6.537   7.135   2.280  1.5731  0.5623 -0.2749
  534MOL0     C72015   6.548   6.996   2.216 -0.5187 -0.6667 -0.5056
  534MOL0     C72016   6.420   6.950   2.145 -0.3879 -0.1386  0.4729
  534MOL0     C72017   6.397   7.014   2.006  0.6829 -0.3768  0.1144
  534MOL0     C72018   6.320   6.923   1.921  0.1070  0.8576  0.3468
  534MOL0     C72019   6.256   6.852   1.848 -0.4424 -0.6612  1.1821
  534MOL0     C72020   6.479   7.390   2.366  0.2992 -0.8317  0.2903
  534MOL0     C72021   6.489   7.522   2.413  1.2187 -0.4626  0.0149
  534MOL0     C72022   6.495   7.536   2.564 -0.7693  0.1278  0.4842
  534MOL0     H72023   6.576   8.012   2.194  0.5361  1.3026  0.0123
  534MOL0     H72024   6.571   8.281   2.231 -0.4677  2.2784  3.3431
  534MOL0     H72025   6.318   8.495   2.544 -0.7863 -2.1624 -0.3127
  534MOL0     H72026   6.447   8.396   2.614 -1.1620  2.6524  2.0865
  534MOL0     H72027   6.612   8.538   2.497  0.7428  3.1162 -1.6683
  534MOL0     H72028   6.524   8.636   2.612 -0.5985 -1.6388  1.7231
  534MOL0     H72029   6.461   8.619   2.310  0.5768  0.6539 -0.7661
  534MOL0     H72030   6.555   8.753   2.369 -1.3112  1.0207 -3.5030
  534MOL0     H72031   6.299   8.750   2.325 -1.6705  1.2458 -0.0129
  534MOL0     H72032   6.275   8.706   2.491 -2.7660  3.8273 -0.0542
  534MOL0     H72033   6.457   8.898   2.552 -1.5014 -0.7850  1.8356
  534MOL0     H72034   6.412   8.950   2.386  1.1834  0.3982  0.4584
  534MOL0     H72035   6.200   8.900   2.589  1.9621 -1.9249 -1.6208
  534MOL0     H72036   6.275   9.063   2.574 -2.5439  2.1654 -0.8545
  534MOL0     H72037   6.101   8.923   2.370  2.7169 -0.9528  0.2004
  534MOL0     H72038   6.212   9.053   2.315 -1.2803  3.1349  0.1675
  534MOL0     H72039   6.102   9.223   2.470 -2.9792  2.0938  1.6042
  534MOL0     H72040   5.982   9.155   2.367 -0.5371 -1.4241  1.0224
  534MOL0     H72041   5.874   8.896   2.557  0.6176 -0.7703  2.3826
  534MOL0     H72042   5.649   8.953   2.736 -0.3785  0.4525 -0.2093
  534MOL0     H72043   5.779   8.857   2.794  1.0895  1.0623 -1.5402
  534MOL0     H72044   5.799   8.997   2.993  0.3722 -1.1805 -0.6889
  534MOL0     H72045   5.711   9.135   2.925 -1.1012  0.0293  2.6454
  534MOL0     H72046   5.501   9.025   2.936  3.6808  3.2671 -1.8855
  534MOL0     H72047   5.582   9.017   3.089 -1.9109 -1.0648  0.3220
  534MOL0     H72048   5.513   8.796   2.908 -0.2575  1.4281  0.6971
  534MOL0     H72049   5.495   8.819   3.081 -0.4871  0.8680 -0.8683
  534MOL0     H72050   5.517   8.585   2.878  0.3573 -1.5710 -0.5246
  534MOL0     H72051   5.539   8.328   2.886  1.8478  1.1976 -0.5759
  534MOL0     H72052   5.829   8.082   3.423 -0.6567  1.3863  2.3305
  534MOL0     H72053   5.765   7.922   3.601 -0.9323 -2.0733  0.0956
  534MOL0     H72054   5.715   7.641   3.667 -0.3372 -0.1772  1.1967
  534MOL0     H72055   5.672   7.785   3.755 -0.0472 -0.8755  2.1637
  534MOL0     H72056   5.605   7.607   3.890 -0.3682  3.4955 -0.3617
  534MOL0     H72057   5.451   7.618   3.809  0.1513  0.3846  3.2065
  534MOL0     H72058   5.470   7.412   3.749  0.2241  0.5223 -0.3091
  534MOL0     H72059   5.569   7.478   3.618  1.1661 -0.0221 -0.7012
  534MOL0     H72060   5.687   7.361   3.883  2.8359 -3.1548 -0.2493
  534MOL0     H72061   5.770   7.436   3.751  0.1273 -1.6220 -0.0894
  534MOL0     H72062   5.672   7.266   3.596 -2.5278 -0.6620  0.4068
  534MOL0     H72063   5.605   7.187   3.736 -0.9063  2.2580  3.0563
  534MOL0     H72064   5.848   7.105   3.649 -0.6364  1.1576 -0.9911
  534MOL0     H72065   5.916   7.251   3.698 -1.1085  0.8780 -3.3142
  534MOL0     H72066   5.764   7.121   3.930  0.3842 -2.4082  1.3252
  534MOL0     H72067   5.916   7.206   3.920  1.4609 -0.0985 -0.7420
  534MOL0     H72068   5.908   6.959   3.978  0.3738  1.0393 -0.2217
  534MOL0     H72069   5.860   6.927   3.806  1.0175  0.3561 -1.2158
  534MOL0     H72070   5.463   7.775   3.348  1.0226 -2.4482  0.3991
  534MOL0     H72071   5.500   7.953   3.200 -0.3209 -2.0258  0.6452
  534MOL0     H72072   5.771   8.358   3.247  1.5035 -0.5470 -1.1882
  534MOL0     H72073   5.803   8.606   3.194  0.6040 -0.6351 -0.7080
  534MOL0     H72074   6.319   8.232   2.561 -0.2886  0.6328  0.1668
  534MOL0     H72075   6.319   7.961   2.519  2.9341 -1.7785  1.8955
  534MOL0     H72076   6.479   7.685   2.115 -0.1605  0.2472  0.6416
  534MOL0     H72077   6.474   7.464   2.035 -2.2957  3.7157  0.3829
  534MOL0     H72078   6.457   7.117   2.353  0.3327 -2.3564 -2.1783
  534MOL0     H72079   6.631   7.147   2.334  0.4899 -2.6636  2.7579
  534MOL0     H72080   6.576   6.925   2.294 -0.1286  3.4153  3.4710
  534MOL0     H72081   6.635   7.014   2.151 -0.3067  0.9324  0.1922
  534MOL0     H72082   6.331   6.956   2.208 -0.1796 -3.6871  1.2904
  534MOL0     H72083   6.422   6.845   2.118 -2.5205 -0.1706  0.3452
  534MOL0     H72084   6.342   7.108   2.002 -0.0165 -0.7659  0.5061
  534MOL0     H72085   6.497   7.035   1.966 -0.1942 -1.8328 -3.1161
  534MOL0     H72086   6.202   6.792   1.777 -1.1441  1.9319 -0.6145
  534MOL0     H72087   6.485   7.316   2.446  0.8403 -0.1615  0.8785
  534MOL0     H72088   6.404   7.576   2.609 -1.2572  0.9550 -1.1630
  534MOL0     H72089   6.531   7.444   2.611  0.9857  0.4511 -0.1586
  534MOL0     H72090   6.577   7.608   2.571 -1.2919  1.1947 -2.8039
  535MOL0     O72091   5.564   6.432   8.378  0.1593  0.5341  0.2556
  535MOL0     C72092   5.659   6.406   8.307  0.2521  1.4443 -0.0817
  535MOL0     O72093   5.760   6.325   8.349  0.8974  0.1559 -0.1479
  535MOL0     C72094   5.745   6.218   8.431 -0.0027 -0.7106  0.0074
  535MOL0     C72095   5.625   6.171   8.482  0.0114 -0.1918  0.2029
  535MOL0     C72096   5.624   6.057   8.558  0.5396  0.3223 -0.5866
  535MOL0     C72097   5.739   5.983   8.585 -0.3855 -0.1790  0.5905
  535MOL0     O72098   5.724   5.881   8.678 -0.2996  0.2555  0.0081
  535MOL0     C72099   5.827   5.780   8.696  0.6541 -0.3329  0.2005
  535MOL0     C72100   5.932   5.825   8.808  0.7956 -0.7764  0.3367
  535MOL0     C72101   5.859   5.829   8.935  0.0921  0.5948 -1.1608
  535MOL0     C72102   5.958   5.829   9.060 -0.3005  0.4415 -0.4470
  535MOL0     C72103   6.039   5.953   9.060  0.5069  0.2139 -0.0586
  535MOL0     C72104   5.960   6.093   9.070 -0.1892 -0.2210 -0.4685
  535MOL0     C72105   5.877   6.095   9.202 -0.9716 -0.1259  0.6418
  535MOL0     C72106   5.908   6.235   9.263  0.0995  0.2689 -0.6750
  535MOL0     N72107   5.841   6.264   9.382 -0.4887 -0.7485 -0.8555
  535MOL0     C72108   5.878   6.237   9.516  1.3599  0.2582 -0.5050
  535MOL0     C72109   5.783   6.304   9.595  0.1717  0.4029  0.6815
  535MOL0     C72110   5.788   6.304   9.745  0.1852  0.2463 -0.8822
  535MOL0     C72111   5.708   6.191   9.804 -0.0534  0.9018 -0.0574
  535MOL0     C72112   5.736   6.039   9.753 -0.0260  1.0518 -0.2206
  535MOL0     C72113   5.648   5.936   9.834 -0.0596 -0.1009  0.0355
  535MOL0     O72114   5.730   5.823   9.815  0.2365 -0.3446 -0.1221
  535MOL0     C72115   5.698   5.723   9.896  0.3080 -0.1657 -0.9166
  535MOL0     C72116   5.572   5.689   9.946 -0.4487  0.7475  0.2532
  535MOL0     C72117   5.548   5.571  10.024 -0.6355 -0.6733  0.1667
  535MOL0     C72118   5.651   5.489  10.048 -0.5362 -0.1367  1.0585
  535MOL0     C72119   5.652   5.378  10.140  0.6000  1.1704 -0.0501
  535MOL0     O72120   5.762   5.335  10.214  0.3309 -1.1434 -0.6509
  535MOL0     C72121   5.795   5.202  10.237  0.0122  0.7150  1.2254
  535MOL0     C72122   5.910   5.188  10.314  1.0874 -0.3138 -0.8549
  535MOL0     C72123   5.959   5.058  10.347 -0.2499 -0.4729  0.0896
  535MOL0     C72124   5.893   4.954  10.283  0.3665  0.4684 -0.4580
  535MOL0     O72125   5.938   4.833  10.337 -0.0258  0.2852  0.3908
  535MOL0     C72126   5.841   4.748  10.411  0.1381 -0.8227 -1.2859
  535MOL0     C72127   5.910   4.725  10.543 -0.2728  0.8686 -0.0404
  535MOL0     C72128   5.816   4.661  10.655 -0.8263 -0.0064  0.6167
  535MOL0     C72129   5.865   4.520  10.679 -0.9083  0.1256 -0.4288
  535MOL0     C72130   5.783   4.448  10.780 -0.8956  0.6751 -0.1279
  535MOL0     C72131   5.820   4.297  10.797  0.2633  0.8575 -0.6384
  535MOL0     C72132   5.710   4.220  10.883  0.8483  0.5921  0.5345
  535MOL0     C72133   5.751   4.073  10.926 -0.6655 -0.6483  0.5399
  535MOL0    Cl72134   5.889   4.100  11.032 -0.1198 -0.2465 -0.0907
  535MOL0     C72135   5.792   4.955  10.199  0.2333 -0.5366 -0.0550
  535MOL0     C72136   5.741   5.089  10.175  1.0633  0.9714 -0.7864
  535MOL0     O72137   5.539   5.320  10.148  0.4898 -0.1211  0.2937
  535MOL0     C72138   5.776   5.536  10.001 -0.4064 -0.6262 -0.0926
  535MOL0     C72139   5.806   5.648   9.923  0.7361 -0.1500 -0.4487
  535MOL0     N72140   5.701   6.375   9.512  0.9001  0.1384 -0.2377
  535MOL0     N72141   5.733   6.349   9.389  0.2618  0.3487  0.3944
  535MOL0     C72142   5.860   6.032   8.522  0.0119  0.7755 -0.0174
  535MOL0     C72143   5.862   6.147   8.443  0.2658  0.1804 -0.4120
  535MOL0     C72144   5.663   6.454   8.169  0.1743  0.5449 -0.1381
  535MOL0     C72145   5.794   6.465   8.111 -0.0649 -1.0783 -0.2834
  535MOL0     C72146   5.802   6.533   7.988 -0.2342  0.2750  0.2134
  535MOL0     C72147   5.699   6.572   7.915 -0.1138  0.1284  0.0457
  535MOL0     O72148   5.693   6.621   7.786 -0.7884 -0.4885  0.1782
  535MOL0     C72149   5.803   6.573   7.694  0.4135 -0.3300 -0.9991
  535MOL0     C72150   5.792   6.590   7.540 -0.1339 -0.3460 -0.2843
  535MOL0     C72151   5.896   6.508   7.460  0.7216 -0.0750 -0.3134
  535MOL0     C72152   6.043   6.539   7.491  0.2082 -0.0267 -0.0294
  535MOL0     C72153   6.082   6.675   7.476 -0.3526 -0.3955  0.4595
  535MOL0     C72154   6.089   6.793   7.476  1.1074 -0.6538 -0.8404
  535MOL0     C72155   5.575   6.528   7.959  0.1395  0.2460 -1.1012
  535MOL0     C72156   5.552   6.477   8.085  0.8548  0.1294  1.2299
  535MOL0     C72157   5.419   6.429   8.125 -0.6579 -0.5147  0.0038
  535MOL0     H72158   5.527   6.218   8.481 -0.9501 -2.1150 -0.6181
  535MOL0     H72159   5.532   6.019   8.602 -0.5346  0.9949 -2.1407
  535MOL0     H72160   5.791   5.678   8.716  3.2878 -2.0869 -2.9382
  535MOL0     H72161   5.891   5.765   8.608  1.5852 -0.0137  0.8175
  535MOL0     H72162   5.968   5.922   8.773 -2.4016 -0.0023 -1.2835
  535MOL0     H72163   6.000   5.739   8.815  0.6276 -1.1791 -2.0988
  535MOL0     H72164   5.796   5.741   8.952  0.9786  0.1845  0.1379
  535MOL0     H72165   5.787   5.911   8.935 -0.6563 -0.0374 -0.3463
  535MOL0     H72166   5.901   5.825   9.153 -0.9642  0.2618 -0.8566
  535MOL0     H72167   6.025   5.742   9.058 -0.3995  0.3556 -0.0208
  535MOL0     H72168   6.114   5.949   9.140 -0.2012  0.3045  0.6243
  535MOL0     H72169   6.090   5.957   8.964 -2.0899  0.3236 -1.5051
  535MOL0     H72170   6.034   6.173   9.072  0.0010 -0.3953 -0.4754
  535MOL0     H72171   5.897   6.130   8.988 -1.5608  2.7054  1.6876
  535MOL0     H72172   5.898   6.014   9.272 -1.8708 -1.1404 -0.2242
  535MOL0     H72173   5.776   6.098   9.161 -0.1255  0.4941 -1.5876
  535MOL0     H72174   6.014   6.235   9.291 -0.3565 -3.5790  2.0174
  535MOL0     H72175   5.890   6.312   9.189 -4.9890 -0.0377 -0.1151
  535MOL0     H72176   5.949   6.166   9.558 -1.8265 -3.1126 -0.3709
  535MOL0     H72177   5.886   6.332   9.785 -0.0583  1.6152 -1.1938
  535MOL0     H72178   5.729   6.392   9.771  1.3700  0.2638  2.1609
  535MOL0     H72179   5.731   6.180   9.910 -0.0831 -0.2734 -0.1585
  535MOL0     H72180   5.599   6.204   9.804 -0.4997 -2.0182  0.1080
  535MOL0     H72181   5.841   6.014   9.737  0.7395  2.6861  1.7503
  535MOL0     H72182   5.691   6.040   9.653  3.3638  2.5381 -1.9031
  535MOL0     H72183   5.554   5.922   9.780  0.9830  1.9250 -2.5196
  535MOL0     H72184   5.626   5.963   9.938  3.5230  3.6356  0.0730
  535MOL0     H72185   5.483   5.748   9.927 -2.3590 -2.6753 -2.6542
  535MOL0     H72186   5.452   5.531  10.056 -0.3776  0.0928  2.0458
  535MOL0     H72187   5.964   5.272  10.355  2.1706 -0.9730 -0.8777
  535MOL0     H72188   6.030   5.047  10.429  0.0702 -4.0616 -0.4909
  535MOL0     H72189   5.746   4.802  10.423  0.5151 -0.4717  0.4211
  535MOL0     H72190   5.818   4.657  10.356  2.6694 -0.9092 -2.3240
  535MOL0     H72191   5.995   4.661  10.519 -2.8727 -1.8952 -2.8804
  535MOL0     H72192   5.944   4.820  10.586 -2.0217  1.4554  0.1098
  535MOL0     H72193   5.805   4.731  10.738 -2.4121  1.2825 -0.6117
  535MOL0     H72194   5.715   4.640  10.618 -0.5060 -0.4437 -0.0235
  535MOL0     H72195   5.964   4.534  10.722 -1.9421  3.5994  1.1988
  535MOL0     H72196   5.855   4.462  10.586 -0.2016  0.2822 -0.6050
  535MOL0     H72197   5.681   4.453  10.740 -0.7917 -2.7652 -1.1506
  535MOL0     H72198   5.802   4.500  10.875  3.1331 -0.2173 -0.2599
  535MOL0     H72199   5.840   4.252  10.699 -0.5935  2.0294 -1.3667
  535MOL0     H72200   5.915   4.290  10.851 -0.6082  0.8073  0.9575
  535MOL0     H72201   5.623   4.204  10.818  2.2101 -0.3948 -1.1435
  535MOL0     H72202   5.668   4.284  10.961 -0.0742  2.8609 -1.6661
  535MOL0     H72203   5.665   4.025  10.973 -1.3411  2.1514  2.4396
  535MOL0     H72204   5.786   4.009  10.844 -2.0046  1.3295 -1.6969
  535MOL0     H72205   5.759   4.867  10.145 -1.1198 -0.2034  0.1855
  535MOL0     H72206   5.654   5.098  10.111 -0.4581 -0.4349  0.9698
  535MOL0     H72207   5.870   5.494  10.036  0.3138  0.4492 -0.6726
  535MOL0     H72208   5.907   5.681   9.897 -0.0622  0.8061 -2.5574
  535MOL0     H72209   5.952   5.975   8.534 -0.2150  0.3625 -0.2085
  535MOL0     H72210   5.954   6.191   8.407  1.3306 -2.1091 -0.6697
  535MOL0     H72211   5.882   6.442   8.169  0.6408  1.1543 -0.3535
  535MOL0     H72212   5.900   6.544   7.941  0.3737  1.3363  1.6545
  535MOL0     H72213   5.819   6.465   7.702  0.5560 -0.2772 -0.5872
  535MOL0     H72214   5.895   6.619   7.728 -0.3225 -0.9086  2.0261
  535MOL0     H72215   5.820   6.694   7.527  2.0904 -0.5558  2.0777
  535MOL0     H72216   5.685   6.574   7.521 -0.6300  2.1124  0.0874
  535MOL0     H72217   5.883   6.526   7.353  1.3968 -1.5056 -0.6561
  535MOL0     H72218   5.873   6.402   7.477 -4.3554  0.4522 -2.2326
  535MOL0     H72219   6.065   6.498   7.590  2.7407 -1.9729 -1.2709
  535MOL0     H72220   6.099   6.482   7.416 -0.1372  1.6784 -1.6768
  535MOL0     H72221   6.106   6.898   7.469 -0.8340  0.0925  3.0952
  535MOL0     H72222   5.492   6.556   7.895 -2.0461 -0.3333  1.2994
  535MOL0     H72223   5.384   6.505   8.195  0.4001  1.6037 -1.6528
  535MOL0     H72224   5.348   6.435   8.043 -2.0535 -0.0807  1.1921
  535MOL0     H72225   5.427   6.330   8.172 -3.7331  1.7549  6.6592
  536MOL0     O72226   1.319   6.981   6.638 -0.5914 -0.3958  0.2923
  536MOL0     C72227   1.295   6.990   6.758  0.0691  0.8832 -0.3074
  536MOL0     O72228   1.347   7.087   6.834 -0.5167 -0.5134  0.4199
  536MOL0     C72229   1.430   7.185   6.776 -0.1403  0.3525  0.6374
  536MOL0     C72230   1.383   7.302   6.716 -0.3299  0.3553  0.1400
  536MOL0     C72231   1.463   7.410   6.667  0.5851  1.1970  0.7199
  536MOL0     C72232   1.598   7.407   6.698  0.0060  1.1228 -0.3659
  536MOL0     O72233   1.666   7.516   6.663 -0.1961 -0.8830  0.1947
  536MOL0     C72234   1.796   7.495   6.600 -0.3870 -0.0276 -0.8147
  536MOL0     C72235   1.825   7.625   6.522  0.2245  0.8985 -0.8002
  536MOL0     C72236   1.883   7.727   6.618  0.9788 -0.4069 -0.1967
  536MOL0     C72237   1.934   7.856   6.552 -0.0204 -0.3941 -0.0001
  536MOL0     C72238   1.989   7.948   6.659  0.2636 -0.8354 -0.5908
  536MOL0     C72239   2.113   7.906   6.737 -0.3163  0.2026 -0.4734
  536MOL0     C72240   2.155   8.012   6.843 -0.0642  0.7978  0.1358
  536MOL0     C72241   2.284   7.970   6.914 -0.2822  0.0971  0.0919
  536MOL0     N72242   2.279   7.837   6.982  0.8035  0.1240  0.6987
  536MOL0     C72243   2.306   7.720   6.917  0.1680 -0.0197  1.1533
  536MOL0     C72244   2.258   7.623   7.005 -0.6030 -0.0840  0.0475
  536MOL0     C72245   2.255   7.476   6.982  0.0071  0.3264  0.0805
  536MOL0     C72246   2.291   7.443   6.842 -1.1876 -1.2220  0.2114
  536MOL0     C72247   2.156   7.457   6.744 -0.5972 -0.0662 -1.0768
  536MOL0     C72248   2.205   7.496   6.604 -0.3300 -0.0812  0.2814
  536MOL0     O72249   2.258   7.628   6.588  0.4321 -0.4236  0.2478
  536MOL0     C72250   2.321   7.659   6.466 -0.2086  0.0595  0.0487
  536MOL0     C72251   2.313   7.587   6.346  0.7124 -0.0612 -0.2351
  536MOL0     C72252   2.370   7.637   6.227 -0.3537 -0.4109  1.0360
  536MOL0     C72253   2.438   7.760   6.217  0.4182  0.1737 -0.1942
  536MOL0     C72254   2.498   7.817   6.087  0.5989 -0.9417 -0.2213
  536MOL0     O72255   2.587   7.925   6.091 -0.8652  0.1335 -0.3176
  536MOL0     C72256   2.660   7.962   5.983  0.2153 -0.1412  1.0429
  536MOL0     C72257   2.680   8.096   5.946  1.2005 -0.3893 -0.2374
  536MOL0     C72258   2.752   8.123   5.835  0.0848 -0.2394  2.0036
  536MOL0     C72259   2.815   8.029   5.754 -0.0831  0.1027 -0.1765
  536MOL0     O72260   2.880   8.078   5.646  0.2460  0.0062 -0.0033
  536MOL0     C72261   2.954   7.986   5.560  0.4805  0.4600 -0.4787
  536MOL0     C72262   3.044   8.074   5.473 -0.7526  0.5582 -0.9042
  536MOL0     C72263   2.981   8.200   5.405  0.8627 -0.3800  0.5843
  536MOL0     C72264   3.090   8.315   5.379  0.5407  0.2216  0.8802
  536MOL0     C72265   3.028   8.447   5.323 -0.2049  0.6173 -0.2972
  536MOL0     C72266   3.111   8.571   5.322  0.6809 -0.1657  0.0186
  536MOL0     C72267   3.200   8.593   5.203 -0.4981 -0.1054  0.2832
  536MOL0     C72268   3.312   8.693   5.231 -0.6807  0.3870 -0.3677
  536MOL0    Cl72269   3.416   8.736   5.085 -0.1952  0.4256 -0.4136
  536MOL0     C72270   2.791   7.896   5.780 -0.2860  0.2673  0.3503
  536MOL0     C72271   2.722   7.865   5.900  0.7924  0.2382  0.2154
  536MOL0     O72272   2.465   7.763   5.985  0.2064 -0.0647  0.0493
  536MOL0     C72273   2.432   7.832   6.341  0.0828  0.4903  0.5766
  536MOL0     C72274   2.403   7.770   6.462  0.8505  0.3680 -0.5063
  536MOL0     N72275   2.215   7.693   7.123 -0.3490 -0.4431  0.1510
  536MOL0     N72276   2.253   7.815   7.111 -0.2510  0.7239 -0.4791
  536MOL0     C72277   1.649   7.301   6.762 -0.1019  0.0183  0.1516
  536MOL0     C72278   1.569   7.185   6.784  0.0604 -0.1079 -0.3781
  536MOL0     C72279   1.202   6.901   6.830  0.8391 -0.3080 -0.4374
  536MOL0     C72280   1.185   6.918   6.969 -0.2714 -0.3763  0.3841
  536MOL0     C72281   1.094   6.845   7.044  0.1711  0.7390 -0.1439
  536MOL0     C72282   1.031   6.735   6.987 -0.3682  0.0028 -0.0048
  536MOL0     O72283   0.955   6.662   7.070 -0.4367  0.0821 -0.2670
  536MOL0     C72284   0.872   6.561   7.011 -0.3884  0.0702 -1.0173
  536MOL0     C72285   0.794   6.482   7.119 -0.1149 -0.8794  0.5061
  536MOL0     C72286   0.877   6.383   7.203  0.3289 -0.3350 -0.7191
  536MOL0     C72287   0.919   6.246   7.146 -1.0974  0.7268  0.6280
  536MOL0     C72288   0.804   6.181   7.083 -0.3230 -0.3357 -0.2062
  536MOL0     C72289   0.710   6.121   7.039  0.4121 -0.2172  0.7968
  536MOL0     C72290   1.050   6.711   6.847 -1.3538  0.3268  0.0121
  536MOL0     C72291   1.119   6.807   6.766 -0.9995 -0.6188 -0.0280
  536MOL0     C72292   1.126   6.779   6.614 -0.2627  0.8087  0.6321
  536MOL0     H72293   1.275   7.306   6.721 -0.2532  1.8965  1.1912
  536MOL0     H72294   1.419   7.492   6.611 -0.0176 -1.6842 -3.5373
  536MOL0     H72295   1.876   7.473   6.670  0.1927  0.5603 -1.2780
  536MOL0     H72296   1.776   7.420   6.523 -2.9607  1.2603 -1.5329
  536MOL0     H72297   1.727   7.663   6.493 -1.9883 -2.2036  1.9270
  536MOL0     H72298   1.898   7.602   6.444  0.3693  0.4005 -0.5191
  536MOL0     H72299   1.964   7.675   6.670  2.6061  1.0937 -1.1053
  536MOL0     H72300   1.806   7.748   6.692 -0.0949  0.6808 -1.5522
  536MOL0     H72301   2.008   7.853   6.471  0.6587  3.5808  0.2297
  536MOL0     H72302   1.846   7.902   6.506  0.1155  0.9058  0.9972
  536MOL0     H72303   2.002   8.043   6.607 -0.3977 -1.0613 -1.1797
  536MOL0     H72304   1.909   7.980   6.727 -0.5813 -2.6769 -0.6658
  536MOL0     H72305   2.103   7.807   6.782  2.2298  0.2606  0.3815
  536MOL0     H72306   2.188   7.895   6.658  0.4427  1.7935 -0.0200
  536MOL0     H72307   2.079   8.018   6.921  0.3589  2.3107  0.4698
  536MOL0     H72308   2.169   8.110   6.795  4.4431  0.2509 -0.0828
  536MOL0     H72309   2.367   7.968   6.842  1.7823 -3.3147  2.2952
  536MOL0     H72310   2.324   8.036   6.991  0.8083 -3.2657  2.6457
  536MOL0     H72311   2.337   7.702   6.815 -0.3366 -1.8012  1.2637
  536MOL0     H72312   2.336   7.430   7.040  0.0706 -1.5036 -1.3456
  536MOL0     H72313   2.159   7.429   7.005  1.2077 -2.5886 -0.4068
  536MOL0     H72314   2.375   7.498   6.799 -0.1944 -2.8231  0.0232
  536MOL0     H72315   2.322   7.338   6.849  1.4733 -0.4980  0.1019
  536MOL0     H72316   2.083   7.527   6.786 -2.0429 -3.3452  2.5446
  536MOL0     H72317   2.111   7.358   6.753 -0.3678 -0.0373  0.7886
  536MOL0     H72318   2.111   7.473   6.554  0.3065  2.0140 -2.0656
  536MOL0     H72319   2.289   7.430   6.581  0.4025  1.5348 -2.0221
  536MOL0     H72320   2.246   7.503   6.341 -2.7940  2.2350  3.0507
  536MOL0     H72321   2.365   7.564   6.146 -2.6005 -1.9511  2.4642
  536MOL0     H72322   2.643   8.179   6.005  2.2304 -0.6017  0.7497
  536MOL0     H72323   2.767   8.226   5.803 -0.7937 -0.9804 -1.1519
  536MOL0     H72324   3.009   7.918   5.626  3.6387 -0.1262 -3.3911
  536MOL0     H72325   2.881   7.946   5.490 -0.3833  3.6154 -1.5266
  536MOL0     H72326   3.129   8.105   5.535 -0.6231  3.4874 -2.3604
  536MOL0     H72327   3.087   8.015   5.390  1.1914  0.3898  0.1556
  536MOL0     H72328   2.943   8.179   5.304  0.9800  2.4833 -0.1312
  536MOL0     H72329   2.889   8.229   5.457 -1.6782 -3.2415 -1.8709
  536MOL0     H72330   3.163   8.290   5.302 -2.8714  0.6249 -2.7750
  536MOL0     H72331   3.157   8.319   5.466 -1.6977 -1.9262  2.8659
  536MOL0     H72332   2.941   8.468   5.385 -0.1228  0.0880  0.0021
  536MOL0     H72333   2.982   8.434   5.225  1.7415 -1.7346 -1.0061
  536MOL0     H72334   3.032   8.645   5.341 -1.7998 -3.1356  2.3005
  536MOL0     H72335   3.182   8.570   5.405  1.7269 -2.6225 -0.8116
  536MOL0     H72336   3.146   8.636   5.118 -0.5270 -2.3928 -0.9300
  536MOL0     H72337   3.250   8.500   5.172 -0.1725 -0.7644  2.5790
  536MOL0     H72338   3.291   8.792   5.272  1.6748  0.4135  0.9369
  536MOL0     H72339   3.366   8.651   5.317 -1.7744  1.9525  1.1434
  536MOL0     H72340   2.816   7.810   5.718  3.1962  0.4212  1.3436
  536MOL0     H72341   2.696   7.761   5.917 -5.5687  1.1902 -1.1520
  536MOL0     H72342   2.477   7.928   6.359  1.7129  0.2301 -1.6857
  536MOL0     H72343   2.400   7.819   6.559 -3.4652  0.2994 -0.4171
  536MOL0     H72344   1.753   7.302   6.793  0.1877  2.2268 -0.7128
  536MOL0     H72345   1.625   7.111   6.839 -0.0092 -1.2323 -1.7830
  536MOL0     H72346   1.251   6.993   7.010  0.0940 -0.1255 -0.6309
  536MOL0     H72347   1.080   6.863   7.151  0.7842  3.1798 -0.4143
  536MOL0     H72348   0.940   6.485   6.969  1.7007  0.9710  0.5272
  536MOL0     H72349   0.810   6.595   6.928  1.3367  0.2202 -2.3221
  536MOL0     H72350   0.714   6.429   7.066 -1.0077  1.4256 -0.5450
  536MOL0     H72351   0.746   6.551   7.189  1.4015  1.1291 -0.3607
  536MOL0     H72352   0.832   6.366   7.301 -1.2729 -1.5553 -1.5922
  536MOL0     H72353   0.975   6.424   7.228 -0.4408 -0.1232  2.3594
  536MOL0     H72354   1.001   6.265   7.077 -0.7915  2.8505  1.4956
  536MOL0     H72355   0.964   6.187   7.226  1.5453  1.3053 -0.3274
  536MOL0     H72356   0.628   6.069   6.995  0.7780  1.5131 -2.1675
  536MOL0     H72357   0.994   6.630   6.801  0.4489 -1.0277  0.0952
  536MOL0     H72358   1.154   6.859   6.546  1.1567 -0.2577 -0.0816
  536MOL0     H72359   1.198   6.697   6.607  1.5080  2.1509  2.3466
  536MOL0     H72360   1.026   6.742   6.588  1.3382 -2.9218 -0.8887
  537MOL0     O72361   8.920   3.433   3.014  0.1849 -0.2540  0.2081
  537MOL0     C72362   8.990   3.525   3.055 -0.0066  0.7358 -0.1724
  537MOL0     O72363   9.034   3.628   2.989 -0.4500 -0.1070  0.0824
  537MOL0     C72364   9.006   3.641   2.855  0.4083  0.2374 -0.4668
  537MOL0     C72365   8.939   3.756   2.801  0.6860  0.3618 -0.4037
  537MOL0     C72366   8.936   3.774   2.670  0.2175  0.2406  0.2764
  537MOL0     C72367   9.000   3.684   2.581 -0.3049 -0.2221 -0.3495
  537MOL0     O72368   8.998   3.699   2.446 -0.8835 -0.5342 -0.7712
  537MOL0     C72369   8.926   3.814   2.394 -0.5691  0.7461 -1.4785
  537MOL0     C72370   8.922   3.781   2.241  0.4501 -0.3433 -0.4243
  537MOL0     C72371   9.044   3.833   2.180 -0.5774  1.0482 -0.9785
  537MOL0     C72372   9.044   3.828   2.024  0.4990 -0.2383  1.1208
  537MOL0     C72373   9.172   3.901   1.985  0.0091  0.1483  0.8881
  537MOL0     C72374   9.205   3.872   1.836 -0.2958 -1.0328 -0.2327
  537MOL0     C72375   9.312   3.963   1.774  0.3362  0.2385 -1.1276
  537MOL0     C72376   9.364   3.919   1.647 -0.1061 -0.6022  0.6149
  537MOL0     N72377   9.456   3.804   1.648  0.5383 -0.3810  0.1840
  537MOL0     C72378   9.581   3.804   1.711  0.3106 -0.5273 -0.8871
  537MOL0     C72379   9.624   3.675   1.685 -0.5297  0.3304  0.1452
  537MOL0     C72380   9.757   3.612   1.743 -0.6961  0.6421  0.1433
  537MOL0     C72381   9.720   3.506   1.841  0.6155 -0.1681  0.3526
  537MOL0     C72382   9.834   3.438   1.908  0.3787  0.1999  0.1894
  537MOL0     C72383   9.790   3.338   2.020 -0.4827 -0.1429  0.5001
  537MOL0     O72384   9.698   3.243   1.971  0.2865  0.6822  0.9450
  537MOL0     C72385   9.614   3.176   2.054 -0.5323  0.5112  0.4472
  537MOL0     C72386   9.628   3.194   2.186  0.0392 -1.0041 -0.4570
  537MOL0     C72387   9.543   3.136   2.277 -0.1051  0.8113  0.0044
  537MOL0     C72388   9.431   3.057   2.236 -0.1225  0.6806 -0.7969
  537MOL0     C72389   9.331   3.009   2.331 -0.2736 -0.2198  0.7381
  537MOL0     O72390   9.365   2.959   2.458 -0.1965  0.9906 -0.0210
  537MOL0     C72391   9.265   2.915   2.554  0.5183 -0.5223 -0.2889
  537MOL0     C72392   9.294   2.800   2.628  0.1272 -0.3359  0.7208
  537MOL0     C72393   9.192   2.755   2.726  0.3703  0.8992  0.7080
  537MOL0     C72394   9.070   2.821   2.741  0.2092  0.9402 -0.1595
  537MOL0     O72395   8.977   2.790   2.836  0.3299  0.1220 -0.6385
  537MOL0     C72396   8.934   2.651   2.812 -0.4265 -0.4635  0.3131
  537MOL0     C72397   8.959   2.548   2.923 -0.1142  0.0547  0.2785
  537MOL0     C72398   8.884   2.412   2.908 -0.6856  0.1813  0.7907
  537MOL0     C72399   8.768   2.376   3.008 -0.7566 -0.9166  0.5706
  537MOL0     C72400   8.702   2.249   2.980  0.1363  0.1926  0.2798
  537MOL0     C72401   8.632   2.205   3.104  0.1833  0.3472 -1.2201
  537MOL0     C72402   8.556   2.074   3.092 -0.8916 -0.2098  0.3614
  537MOL0     C72403   8.419   2.089   3.023  0.2866 -0.6553 -1.3828
  537MOL0    Cl72404   8.335   1.937   2.999 -0.0041 -0.1870  0.3397
  537MOL0     C72405   9.043   2.936   2.668 -0.3758  0.4500 -0.6312
  537MOL0     C72406   9.146   2.983   2.580  0.6272  0.5630 -0.9758
  537MOL0     O72407   9.225   3.002   2.282 -0.3117 -0.3448 -0.3128
  537MOL0     C72408   9.415   3.037   2.093 -0.3658  0.0375 -0.7179
  537MOL0     C72409   9.504   3.096   2.004  0.3236  0.4887 -0.1243
  537MOL0     N72410   9.530   3.606   1.605  0.1236 -0.2220  0.7777
  537MOL0     N72411   9.430   3.687   1.577  0.2692  0.2818 -0.2915
  537MOL0     C72412   9.056   3.565   2.634 -0.1074 -1.0245 -0.6530
  537MOL0     C72413   9.068   3.546   2.773 -0.0089  0.4117  0.2267
  537MOL0     C72414   8.991   3.538   3.202 -0.8413 -0.2552 -0.2805
  537MOL0     C72415   8.883   3.480   3.275  0.2220  0.0025  0.5143
  537MOL0     C72416   8.866   3.496   3.414  0.0205 -0.4500  0.2690
  537MOL0     C72417   8.969   3.568   3.483 -0.8994 -0.2584 -0.0297
  537MOL0     O72418   8.958   3.587   3.622  0.2450  0.0273  0.2464
  537MOL0     C72419   8.851   3.659   3.694  0.0399 -0.6071  0.5343
  537MOL0     C72420   8.802   3.585   3.819  0.4173  0.3586  0.3214
  537MOL0     C72421   8.773   3.431   3.794  0.0669  0.5412  0.2340
  537MOL0     C72422   8.698   3.371   3.912  0.5881 -1.0273 -0.8038
  537MOL0     C72423   8.789   3.381   4.027 -0.5196 -0.3129 -0.4452
  537MOL0     C72424   8.885   3.399   4.100 -0.7833 -0.0636 -0.3919
  537MOL0     C72425   9.076   3.618   3.416  0.3495  0.6101  0.2298
  537MOL0     C72426   9.087   3.607   3.277 -0.5075  1.4035  0.6887
  537MOL0     C72427   9.216   3.645   3.225  0.5302 -0.1246  0.2844
  537MOL0     H72428   8.887   3.825   2.866 -1.2290 -2.3604  1.1575
  537MOL0     H72429   8.860   3.845   2.638  0.3512  0.7646  1.0773
  537MOL0     H72430   8.822   3.810   2.426 -0.1740  1.7997  0.0822
  537MOL0     H72431   8.978   3.909   2.411  1.2445 -0.4117 -0.1203
  537MOL0     H72432   8.843   3.841   2.195  0.2874  0.3600  0.7342
  537MOL0     H72433   8.902   3.675   2.220  0.1727 -0.2693 -0.5404
  537MOL0     H72434   9.132   3.784   2.223 -0.4535  3.1972  1.4678
  537MOL0     H72435   9.046   3.938   2.212 -0.0793  0.2610  1.8661
  537MOL0     H72436   9.044   3.723   1.994 -0.1301 -0.1071  0.6355
  537MOL0     H72437   8.950   3.864   1.980 -0.1113 -2.3159  0.6215
  537MOL0     H72438   9.154   4.009   1.990 -0.1121  0.2279 -0.7498
  537MOL0     H72439   9.259   3.885   2.050  0.7850 -0.0291 -0.1499
  537MOL0     H72440   9.256   3.775   1.839  3.2991  0.7202  0.2547
  537MOL0     H72441   9.116   3.872   1.773  0.7063 -0.1192 -1.7145
  537MOL0     H72442   9.394   3.964   1.846 -1.0356 -2.1123  0.6367
  537MOL0     H72443   9.272   4.065   1.770 -2.6826 -0.5822  2.4121
  537MOL0     H72444   9.283   3.895   1.578 -2.4766  0.6704  2.7735
  537MOL0     H72445   9.410   4.007   1.601 -1.5825 -0.3265 -0.3956
  537MOL0     H72446   9.638   3.880   1.765 -0.2076 -0.9022  0.2002
  537MOL0     H72447   9.804   3.576   1.652 -1.8419  1.1826 -0.6887
  537MOL0     H72448   9.822   3.689   1.788 -0.9089  0.7533  0.2667
  537MOL0     H72449   9.656   3.546   1.920  0.9441 -0.9225  1.0158
  537MOL0     H72450   9.660   3.431   1.789  1.6106 -0.9245  0.2726
  537MOL0     H72451   9.901   3.512   1.955  2.6818  0.4098 -3.0711
  537MOL0     H72452   9.888   3.382   1.832 -1.4348  0.6270 -1.4882
  537MOL0     H72453   9.746   3.392   2.104  0.1614 -2.8322  2.6885
  537MOL0     H72454   9.876   3.286   2.063 -0.9031 -1.8191 -0.5700
  537MOL0     H72455   9.717   3.242   2.227 -1.5829  1.5940  0.2877
  537MOL0     H72456   9.563   3.146   2.383  2.0434 -0.1664 -0.2563
  537MOL0     H72457   9.383   2.738   2.627 -1.2187 -2.3998 -1.9317
  537MOL0     H72458   9.209   2.673   2.795 -1.1602 -0.6166 -0.6122
  537MOL0     H72459   8.827   2.656   2.788 -0.4240  2.2179  0.4567
  537MOL0     H72460   8.979   2.615   2.720 -3.5533  1.4454 -2.2010
  537MOL0     H72461   9.065   2.524   2.925 -0.2920 -0.8609  3.6746
  537MOL0     H72462   8.938   2.579   3.025  3.0874 -0.3551  1.1666
  537MOL0     H72463   8.849   2.407   2.805  0.3382  1.3327  0.3528
  537MOL0     H72464   8.960   2.339   2.936 -2.0537 -0.9615  1.6211
  537MOL0     H72465   8.689   2.451   3.014 -2.1592 -2.0524 -2.1080
  537MOL0     H72466   8.823   2.359   3.102  0.5155 -2.3647 -0.3870
  537MOL0     H72467   8.776   2.177   2.946 -1.1285 -1.7288  1.3921
  537MOL0     H72468   8.624   2.265   2.905 -0.2010 -0.0378  0.5787
  537MOL0     H72469   8.710   2.187   3.178  2.1193 -0.9178 -3.4189
  537MOL0     H72470   8.571   2.283   3.150 -1.6002 -1.6044 -0.0975
  537MOL0     H72471   8.538   2.025   3.188 -0.5049  0.0885  0.5879
  537MOL0     H72472   8.615   2.014   3.022 -1.3559 -0.6125  0.3102
  537MOL0     H72473   8.352   2.147   3.087  2.7680 -1.4052  2.1768
  537MOL0     H72474   8.429   2.137   2.925 -0.2014  0.4034 -0.9257
  537MOL0     H72475   8.949   2.983   2.693  0.0221 -0.1058  2.2455
  537MOL0     H72476   9.131   3.069   2.515  0.1731 -0.6196 -2.5159
  537MOL0     H72477   9.336   2.980   2.045  2.1993 -2.1800 -2.6271
  537MOL0     H72478   9.470   3.091   1.901 -2.9022  0.7023  0.7983
  537MOL0     H72479   9.105   3.498   2.564  2.0757  0.3034 -0.4894
  537MOL0     H72480   9.121   3.459   2.811 -0.4176  1.1925  2.6956
  537MOL0     H72481   8.802   3.424   3.229  0.0283 -0.3795  1.3053
  537MOL0     H72482   8.780   3.462   3.471 -2.0487 -1.0693 -2.9620
  537MOL0     H72483   8.769   3.679   3.624 -0.2199  0.2037  1.0513
  537MOL0     H72484   8.889   3.756   3.729  2.5172 -2.0398  2.1301
  537MOL0     H72485   8.714   3.639   3.857  0.2240 -1.2135  2.2752
  537MOL0     H72486   8.886   3.588   3.889  1.4493 -0.2115 -0.8583
  537MOL0     H72487   8.869   3.379   3.783 -1.3543 -2.1840 -0.2774
  537MOL0     H72488   8.707   3.420   3.707  0.4999  0.9013 -0.1457
  537MOL0     H72489   8.605   3.423   3.934 -0.2882 -1.7773 -2.5674
  537MOL0     H72490   8.689   3.263   3.895  4.7204 -2.6161  4.2026
  537MOL0     H72491   8.970   3.431   4.158  2.3726 -0.8474 -4.1177
  537MOL0     H72492   9.154   3.668   3.473 -0.2762  0.2014  1.4906
  537MOL0     H72493   9.267   3.583   3.151  3.5807  1.4317  0.9280
  537MOL0     H72494   9.204   3.744   3.181 -1.5312  0.9857  3.0312
  537MOL0     H72495   9.292   3.660   3.302  0.5875  2.4119 -0.1889
  538MOL0     O72496   0.222   6.456   8.336 -0.0219 -0.6978  0.3736
  538MOL0     C72497   0.284   6.480   8.236 -0.0329  0.3351  0.6985
  538MOL0     O72498   0.311   6.598   8.174 -0.2960 -0.5061  0.0368
  538MOL0     C72499   0.285   6.722   8.235  0.1340  1.0982 -0.1744
  538MOL0     C72500   0.358   6.834   8.201  0.4824  0.0497  0.3759
  538MOL0     C72501   0.328   6.962   8.254 -0.6556  0.2036  0.0942
  538MOL0     C72502   0.238   6.982   8.361 -0.1974  0.1158  0.0482
  538MOL0     O72503   0.217   7.099   8.429 -0.8052 -0.3958  0.8378
  538MOL0     C72504   0.327   7.187   8.456  0.3354  0.4911 -1.0298
  538MOL0     C72505   0.306   7.341   8.434  0.1222  0.4564 -1.0088
  538MOL0     C72506   0.272   7.374   8.287  0.0308 -0.1834 -0.9419
  538MOL0     C72507   0.254   7.525   8.248  0.4705  0.5743 -0.3429
  538MOL0     C72508   0.256   7.560   8.097 -0.0643  0.1543  0.4962
  538MOL0     C72509   0.144   7.505   8.014  0.3734 -0.8617  0.2794
  538MOL0     C72510   0.141   7.552   7.858  0.5600 -0.1485  0.5296
  538MOL0     C72511   0.011   7.504   7.778 -0.3047 -0.6503  0.3260
  538MOL0     N72512  -0.113   7.533   7.852 -0.1555  1.1064  0.4471
  538MOL0     C72513  -0.182   7.653   7.842 -0.7064  0.6964 -0.0819
  538MOL0     C72514  -0.299   7.631   7.899  1.1419  0.0396  0.1862
  538MOL0     C72515  -0.437   7.701   7.894 -1.1627 -0.1018  0.1478
  538MOL0     C72516  -0.423   7.850   7.934 -0.5006 -1.1575 -1.0256
  538MOL0     C72517  -0.534   7.937   7.880  0.1906 -0.5855 -0.0422
  538MOL0     C72518  -0.676   7.914   7.936 -0.0180  0.3567  0.8184
  538MOL0     O72519  -0.772   7.936   7.829 -0.0630  0.5365 -0.5212
  538MOL0     C72520  -0.782   8.058   7.764  0.8417 -0.3820 -0.0052
  538MOL0     C72521  -0.752   8.177   7.836 -0.4463 -0.2350 -0.0297
  538MOL0     C72522  -0.758   8.300   7.770  1.0902  0.1663 -0.2461
  538MOL0     C72523  -0.801   8.303   7.640 -0.1759 -0.0466 -0.2793
  538MOL0     C72524  -0.805   8.431   7.568 -0.2795  0.3972  0.6034
  538MOL0     O72525  -0.902   8.446   7.478 -0.3918  0.4239 -0.4002
  538MOL0     C72526  -0.929   8.575   7.437  0.1870 -0.0829 -0.6770
  538MOL0     C72527  -0.984   8.666   7.523 -0.8665 -0.5748 -0.4033
  538MOL0     C72528  -0.992   8.797   7.472  1.0396  0.1466 -0.4760
  538MOL0     C72529  -0.965   8.820   7.335 -0.3549  0.5575 -0.6612
  538MOL0     O72530  -0.996   8.948   7.298  0.4928 -0.2660 -0.1316
  538MOL0     C72531  -0.971   8.990   7.165 -0.7730  0.0703  0.2360
  538MOL0     C72532  -0.823   9.017   7.129  0.0670  0.0751  0.0930
  538MOL0     C72533  -0.816   9.066   6.980  0.6452  0.2848 -0.3911
  538MOL0     C72534  -0.695   9.163   6.970  0.6895  0.1309  0.6278
  538MOL0     C72535  -0.564   9.121   7.040  0.2327  0.4883  0.5481
  538MOL0     C72536  -0.447   9.226   7.017 -0.7168  0.3919  0.3851
  538MOL0     C72537  -0.397   9.238   6.881 -0.4327 -0.5277  0.5939
  538MOL0     C72538  -0.276   9.325   6.882  0.8843  0.0913 -0.3557
  538MOL0    Cl72539  -0.124   9.232   6.899 -0.2496 -0.2176 -0.2688
  538MOL0     C72540  -0.920   8.715   7.250  0.5790 -0.2807  0.4257
  538MOL0     C72541  -0.899   8.596   7.301  0.2425 -0.1644 -0.3976
  538MOL0     O72542  -0.734   8.519   7.608 -0.3343  0.0453 -0.1661
  538MOL0     C72543  -0.839   8.188   7.573 -0.4815 -0.0684  0.4157
  538MOL0     C72544  -0.827   8.065   7.635 -0.3095 -0.6565  0.0055
  538MOL0     N72545  -0.289   7.502   7.971  0.4153 -0.4302  0.1833
  538MOL0     N72546  -0.178   7.450   7.938  0.0975  0.7914 -0.4039
  538MOL0     C72547   0.167   6.871   8.395 -0.4150 -0.4960 -0.0740
  538MOL0     C72548   0.178   6.748   8.322 -1.0802 -0.3943 -0.1288
  538MOL0     C72549   0.357   6.371   8.157 -0.6090 -0.0721 -0.8453
  538MOL0     C72550   0.395   6.395   8.016  0.8635  0.4529 -0.0153
  538MOL0     C72551   0.448   6.287   7.937 -0.1793 -0.6455 -0.0971
  538MOL0     C72552   0.478   6.164   7.993 -0.3742 -0.8363 -0.0444
  538MOL0     O72553   0.523   6.059   7.920  0.8864  0.7672  0.0074
  538MOL0     C72554   0.595   6.082   7.799  0.0315 -0.2045 -0.7882
  538MOL0     C72555   0.652   5.944   7.756  0.0971  0.8605  0.3736
  538MOL0     C72556   0.548   5.862   7.678 -0.3537 -0.0587 -0.2145
  538MOL0     C72557   0.612   5.738   7.613  0.1473 -0.8357 -0.1420
  538MOL0     C72558   0.522   5.625   7.575  0.1496 -0.6972  0.3031
  538MOL0     C72559   0.441   5.534   7.550 -0.3859 -0.0557  0.2414
  538MOL0     C72560   0.462   6.150   8.129  0.2018 -1.1719  0.1073
  538MOL0     C72561   0.401   6.249   8.213  0.2121  0.6068  0.2013
  538MOL0     C72562   0.403   6.229   8.359 -0.8076  0.2215  0.7036
  538MOL0     H72563   0.430   6.821   8.121  2.1301 -0.5309  1.8725
  538MOL0     H72564   0.395   7.035   8.209  0.1784 -1.4411 -1.4557
  538MOL0     H72565   0.354   7.183   8.562 -2.3664  3.1808 -0.0972
  538MOL0     H72566   0.419   7.163   8.401  0.6242 -1.5800  0.2142
  538MOL0     H72567   0.392   7.390   8.482  2.0154 -0.7491 -2.9413
  538MOL0     H72568   0.221   7.372   8.494 -0.3918 -0.7301 -1.1069
  538MOL0     H72569   0.175   7.327   8.267  0.0421 -1.7112  1.9656
  538MOL0     H72570   0.353   7.335   8.225 -0.0514 -0.5957 -0.7946
  538MOL0     H72571   0.169   7.574   8.296  0.7054  1.1881 -0.5373
  538MOL0     H72572   0.338   7.570   8.302 -1.7456  0.8172  3.1849
  538MOL0     H72573   0.257   7.669   8.095  0.6441  0.1484 -1.1070
  538MOL0     H72574   0.341   7.515   8.044  1.0771 -0.1577  2.4976
  538MOL0     H72575   0.134   7.396   8.007 -4.6473 -0.6152  0.4457
  538MOL0     H72576   0.047   7.535   8.053  2.4809  5.0933  2.0634
  538MOL0     H72577   0.233   7.513   7.813  0.0091  1.3272 -2.0881
  538MOL0     H72578   0.149   7.661   7.852 -1.4058  0.0679  1.1155
  538MOL0     H72579   0.015   7.564   7.686 -1.0254 -3.1286 -1.4146
  538MOL0     H72580   0.025   7.402   7.741 -2.9383 -0.7927 -0.4690
  538MOL0     H72581  -0.143   7.735   7.783  1.5328  0.8859  1.5228
  538MOL0     H72582  -0.487   7.692   7.797 -1.5122 -1.8029  0.4723
  538MOL0     H72583  -0.493   7.665   7.980  1.0498 -0.2800  1.5921
  538MOL0     H72584  -0.420   7.872   8.041 -0.1218 -0.3061 -1.2016
  538MOL0     H72585  -0.327   7.887   7.897 -0.9095 -0.5584 -1.5244
  538MOL0     H72586  -0.538   7.919   7.773 -0.2812 -0.7682  0.0067
  538MOL0     H72587  -0.512   8.043   7.896 -0.0363 -0.5551  0.0649
  538MOL0     H72588  -0.688   7.992   8.012  0.0524  0.0714  1.1226
  538MOL0     H72589  -0.683   7.811   7.973  0.8196 -0.4396 -1.1002
  538MOL0     H72590  -0.711   8.179   7.937 -2.0906  0.4661  0.6546
  538MOL0     H72591  -0.717   8.382   7.827  2.7675 -1.8581  1.6351
  538MOL0     H72592  -1.017   8.637   7.622 -3.6252  2.3260 -0.2936
  538MOL0     H72593  -1.029   8.872   7.540  2.7370 -1.8701  2.9660
  538MOL0     H72594  -1.016   8.926   7.088 -2.7994  0.2296  1.2148
  538MOL0     H72595  -1.035   9.077   7.146 -0.2094  0.0052 -2.3158
  538MOL0     H72596  -0.782   9.092   7.197  1.6304  0.0417 -0.7688
  538MOL0     H72597  -0.770   8.921   7.135 -2.7650 -1.5971  0.2556
  538MOL0     H72598  -0.800   8.980   6.914  0.1367 -0.3232  0.2613
  538MOL0     H72599  -0.907   9.123   6.957  0.1932  0.2920  1.2842
  538MOL0     H72600  -0.729   9.258   7.011 -1.1409 -0.2919  0.2070
  538MOL0     H72601  -0.692   9.176   6.862  2.5165  0.3134  0.6660
  538MOL0     H72602  -0.539   9.016   7.020 -4.1466 -0.8303  0.9884
  538MOL0     H72603  -0.574   9.128   7.149  0.6301 -3.0871  0.9366
  538MOL0     H72604  -0.499   9.321   7.033 -1.9501  0.2906 -2.5329
  538MOL0     H72605  -0.359   9.217   7.081  1.3160  5.8892 -1.0930
  538MOL0     H72606  -0.468   9.295   6.819  0.2109 -0.4461 -0.0934
  538MOL0     H72607  -0.377   9.143   6.832 -1.0046  0.0557 -0.8537
  538MOL0     H72608  -0.264   9.382   6.789  3.3753  1.5470  0.7616
  538MOL0     H72609  -0.280   9.399   6.962 -0.6246 -0.5254  0.1743
  538MOL0     H72610  -0.909   8.726   7.143  1.0639 -1.9872  0.2795
  538MOL0     H72611  -0.866   8.523   7.228 -1.3073  1.8218 -3.2802
  538MOL0     H72612  -0.901   8.192   7.484 -0.8605 -0.7694  0.6397
  538MOL0     H72613  -0.868   7.979   7.583  0.0891  0.2535 -1.9277
  538MOL0     H72614   0.105   6.884   8.483  1.1755 -0.7144  1.1282
  538MOL0     H72615   0.105   6.673   8.350  1.1655 -1.9318  2.0244
  538MOL0     H72616   0.375   6.488   7.965  3.3540  1.1572  0.1239
  538MOL0     H72617   0.469   6.300   7.831 -0.5009 -2.4018 -0.4167
  538MOL0     H72618   0.682   6.142   7.823  0.9323 -3.0277  4.4209
  538MOL0     H72619   0.528   6.134   7.729 -0.3353  1.8508  1.0061
  538MOL0     H72620   0.687   5.896   7.848  3.7154 -1.0152 -1.7109
  538MOL0     H72621   0.744   5.963   7.698 -0.0767  1.3759  0.2617
  538MOL0     H72622   0.507   5.912   7.591  0.4374  0.6795 -0.1727
  538MOL0     H72623   0.471   5.837   7.752 -1.1343  2.0972 -0.2417
  538MOL0     H72624   0.675   5.777   7.533 -0.2017  0.2415  0.0881
  538MOL0     H72625   0.675   5.691   7.689  1.5726  0.8760 -0.2164
  538MOL0     H72626   0.379   5.453   7.519 -0.0667  0.6921 -2.6867
  538MOL0     H72627   0.479   6.060   8.188 -2.6070 -0.0064  3.0380
  538MOL0     H72628   0.306   6.201   8.402 -0.0193  0.8672  3.0764
  538MOL0     H72629   0.475   6.152   8.387 -1.1491 -0.0049  0.9764
  538MOL0     H72630   0.416   6.326   8.409 -2.8857  0.5255  0.7401
  539MOL0     O72631   5.900   9.551   8.060  0.4945  0.6038  0.1332
  539MOL0     C72632   5.963   9.575   8.160  0.9174 -0.8004 -0.3964
  539MOL0     O72633   5.917   9.590   8.289  0.7249 -0.5869  0.1218
  539MOL0     C72634   5.780   9.610   8.305  0.1337 -0.1260  0.4832
  539MOL0     C72635   5.723   9.739   8.307 -1.1160 -0.0998 -0.4867
  539MOL0     C72636   5.589   9.763   8.332  0.0773 -0.5521 -0.2319
  539MOL0     C72637   5.504   9.660   8.360 -0.3940 -0.6387 -0.3626
  539MOL0     O72638   5.371   9.685   8.385  0.0616 -1.1215  0.2274
  539MOL0     C72639   5.351   9.737   8.519  0.4935 -1.6190 -0.1380
  539MOL0     C72640   5.210   9.808   8.544  0.2881 -0.4218  0.0820
  539MOL0     C72641   5.100   9.750   8.460  0.0583 -1.0585  0.3047
  539MOL0     C72642   5.079   9.611   8.486 -0.2593  0.3676 -0.1208
  539MOL0     C72643   4.945   9.570   8.421 -0.5864 -0.6747  0.6681
  539MOL0     C72644   4.871   9.456   8.485 -0.1104 -0.0924 -0.1950
  539MOL0     C72645   4.725   9.459   8.439 -0.3919 -0.6714 -0.1775
  539MOL0     C72646   4.663   9.313   8.447 -0.3407 -0.5071  0.5650
  539MOL0     N72647   4.714   9.222   8.347  0.0157 -0.2608  0.6795
  539MOL0     C72648   4.670   9.229   8.218 -0.3573 -0.6447 -0.1573
  539MOL0     C72649   4.737   9.124   8.166 -0.5666  0.4694  0.4706
  539MOL0     C72650   4.729   9.068   8.032  0.2481 -0.5034 -0.1666
  539MOL0     C72651   4.674   9.179   7.934  0.4347  0.8424 -0.0595
  539MOL0     C72652   4.648   9.104   7.794 -0.0143 -0.2516  0.9730
  539MOL0     C72653   4.624   9.200   7.672  0.2700  0.5904 -0.8703
  539MOL0     O72654   4.747   9.227   7.588 -0.2398  0.1328  0.4165
  539MOL0     C72655   4.803   9.348   7.590 -0.7903  0.3756 -0.8370
  539MOL0     C72656   4.787   9.439   7.488 -0.6403  0.8450 -0.5637
  539MOL0     C72657   4.860   9.562   7.485  0.2518 -0.1463 -0.1289
  539MOL0     C72658   4.948   9.593   7.586 -0.6355 -0.4350  0.1402
  539MOL0     C72659   5.027   9.715   7.578 -1.1456 -0.0362  0.0141
  539MOL0     O72660   4.989   9.818   7.501  0.5640  0.4042 -1.3971
  539MOL0     C72661   5.031   9.947   7.520 -0.1450 -0.3345  1.5139
  539MOL0     C72662   5.087  10.023   7.627 -0.2126  0.1015  0.6996
  539MOL0     C72663   5.115  10.158   7.605  0.9114 -0.5006 -0.5427
  539MOL0     C72664   5.088  10.215   7.486  1.1458  0.2117  0.5593
  539MOL0     O72665   5.134  10.340   7.465  0.3900 -0.8808  0.1220
  539MOL0     C72666   5.273  10.351   7.444 -0.3082  0.4040 -0.0895
  539MOL0     C72667   5.329  10.436   7.560 -0.0317 -0.1774  0.3141
  539MOL0     C72668   5.463  10.493   7.529 -0.0909 -0.5855 -0.1522
  539MOL0     C72669   5.496  10.612   7.619  0.8723  0.4507  0.6512
  539MOL0     C72670   5.605  10.704   7.569  0.4352  0.1278 -0.0946
  539MOL0     C72671   5.604  10.833   7.645  0.3625  0.5806 -0.4324
  539MOL0     C72672   5.499  10.939   7.607 -0.2308 -0.1044  0.5318
  539MOL0     C72673   5.507  11.061   7.690 -0.0622 -0.2922  0.3544
  539MOL0    Cl72674   5.464  11.209   7.607  0.6488  0.4284  0.4875
  539MOL0     C72675   5.018  10.151   7.381 -0.3929 -0.1993 -0.9226
  539MOL0     C72676   4.980  10.019   7.417 -0.4526  0.8052  0.6538
  539MOL0     O72677   5.112   9.716   7.664 -0.2272 -0.2551 -0.5429
  539MOL0     C72678   4.962   9.503   7.696  0.0700 -0.2979  0.5770
  539MOL0     C72679   4.888   9.381   7.690 -0.3575 -0.2245 -1.0450
  539MOL0     N72680   4.814   9.059   8.267 -0.9674  0.0412 -0.0391
  539MOL0     N72681   4.798   9.123   8.376 -0.2518  0.1737 -0.0035
  539MOL0     C72682   5.563   9.528   8.356 -0.0094 -0.6721 -0.6742
  539MOL0     C72683   5.697   9.501   8.330 -0.3118 -0.8221 -0.0102
  539MOL0     C72684   6.111   9.588   8.153  0.3220  0.1458  0.8671
  539MOL0     C72685   6.172   9.506   8.056 -0.9917  0.4293 -0.8238
  539MOL0     C72686   6.314   9.486   8.043  0.8457 -0.1612  0.1016
  539MOL0     C72687   6.395   9.552   8.121 -0.4877 -0.5754  0.4687
  539MOL0     O72688   6.528   9.547   8.100  0.2111  0.7399  0.3849
  539MOL0     C72689   6.585   9.482   7.988  0.5682 -0.8595  0.5979
  539MOL0     C72690   6.743   9.491   7.979  0.3842  0.6851  0.0255
  539MOL0     C72691   6.777   9.645   7.998 -0.5689  0.2453  0.4707
  539MOL0     C72692   6.906   9.686   7.907 -0.3184  0.0554 -0.1180
  539MOL0     C72693   6.934   9.828   7.931 -0.2218 -0.5929 -0.1569
  539MOL0     C72694   6.969   9.945   7.969  0.1659  0.2989  0.3895
  539MOL0     C72695   6.344   9.645   8.217 -0.2340  0.3931  0.6362
  539MOL0     C72696   6.201   9.658   8.233 -0.0062 -0.1939 -0.1173
  539MOL0     C72697   6.160   9.747   8.342  0.3911  0.3452 -0.0140
  539MOL0     H72698   5.791   9.823   8.288 -0.8351 -0.5235 -1.4065
  539MOL0     H72699   5.555   9.866   8.330  2.0608  0.2776  2.3544
  539MOL0     H72700   5.353   9.654   8.591 -1.2117  0.0858  2.0340
  539MOL0     H72701   5.427   9.806   8.558 -0.8664 -0.3516  0.3578
  539MOL0     H72702   5.223   9.909   8.506  0.0864  0.5018  2.3363
  539MOL0     H72703   5.194   9.818   8.651 -0.1618  3.6590 -0.2357
  539MOL0     H72704   5.118   9.765   8.353 -0.1841  2.0333  0.6073
  539MOL0     H72705   5.013   9.811   8.484 -0.2347 -1.5992  0.6122
  539MOL0     H72706   5.167   9.551   8.459 -0.6206 -0.3075  0.1589
  539MOL0     H72707   5.073   9.596   8.594  0.9269  0.4574 -0.0267
  539MOL0     H72708   4.881   9.657   8.441  2.3643  1.3821  1.8061
  539MOL0     H72709   4.959   9.565   8.312 -2.0247  1.9623  0.2624
  539MOL0     H72710   4.917   9.359   8.463  0.9792  0.7059 -1.6097
  539MOL0     H72711   4.870   9.461   8.595 -0.0828  1.9170 -0.2522
  539MOL0     H72712   4.723   9.490   8.334 -1.0559 -0.4098 -0.0948
  539MOL0     H72713   4.659   9.525   8.497 -1.7532 -3.5666  1.8197
  539MOL0     H72714   4.677   9.257   8.540 -0.7283 -4.9693 -1.8048
  539MOL0     H72715   4.554   9.318   8.434 -0.6379  0.2812  2.8562
  539MOL0     H72716   4.597   9.300   8.183 -1.1002 -1.9479 -1.3505
  539MOL0     H72717   4.830   9.042   7.998  0.9675  1.5236  0.2965
  539MOL0     H72718   4.677   8.972   8.028  4.0866 -2.9256  2.0261
  539MOL0     H72719   4.586   9.229   7.975  0.7153  0.0871  1.5842
  539MOL0     H72720   4.753   9.252   7.919  1.6048 -0.4416 -0.3853
  539MOL0     H72721   4.561   9.039   7.807 -2.2559  2.2396 -0.5044
  539MOL0     H72722   4.739   9.046   7.778 -1.5015 -2.5673  0.4605
  539MOL0     H72723   4.577   9.295   7.697  0.6294  0.8855 -1.3179
  539MOL0     H72724   4.549   9.150   7.610 -0.9404  2.1486 -0.7067
  539MOL0     H72725   4.699   9.418   7.428 -2.2512 -0.6036  2.0736
  539MOL0     H72726   4.845   9.629   7.400 -0.8212 -0.9437 -0.5919
  539MOL0     H72727   5.102   9.967   7.718  0.2744 -0.9934 -0.0377
  539MOL0     H72728   5.160  10.208   7.691 -0.2728  2.8869 -1.7522
  539MOL0     H72729   5.326  10.255   7.448  2.5310  1.8114 -0.8157
  539MOL0     H72730   5.289  10.384   7.341  0.5218 -0.4436 -0.2542
  539MOL0     H72731   5.263  10.522   7.567  1.4619  0.9629  1.0597
  539MOL0     H72732   5.330  10.388   7.659  3.6527  4.8197  3.1866
  539MOL0     H72733   5.538  10.419   7.558  1.8121  1.4338  0.3129
  539MOL0     H72734   5.478  10.515   7.423  1.5087  1.0551  0.3566
  539MOL0     H72735   5.521  10.577   7.720  0.1348 -1.7170  0.1465
  539MOL0     H72736   5.405  10.672   7.618  0.5021 -0.0858 -1.5662
  539MOL0     H72737   5.590  10.718   7.461  0.0018 -0.5616 -0.1332
  539MOL0     H72738   5.700  10.651   7.580  1.8699  2.6894  0.4880
  539MOL0     H72739   5.602  10.810   7.752  2.0745 -1.5960 -0.8088
  539MOL0     H72740   5.704  10.877   7.633 -0.5059  3.1255  0.8542
  539MOL0     H72741   5.404  10.888   7.623  0.1031 -0.1255  2.8302
  539MOL0     H72742   5.516  10.962   7.502  0.2394  0.0834  0.6441
  539MOL0     H72743   5.444  11.056   7.779  1.6521  2.7951  1.9489
  539MOL0     H72744   5.609  11.070   7.730 -0.1814  1.8244  0.2957
  539MOL0     H72745   5.002  10.191   7.282 -1.5756  1.6147 -0.0688
  539MOL0     H72746   4.926   9.975   7.333 -2.7540 -2.4218  3.5435
  539MOL0     H72747   5.026   9.524   7.781  1.4353 -1.1571 -0.1879
  539MOL0     H72748   4.901   9.324   7.781 -4.1303  2.0667  1.1970
  539MOL0     H72749   5.500   9.451   8.399 -2.0085  0.1922 -1.9805
  539MOL0     H72750   5.736   9.400   8.335  1.5227 -0.1877 -0.6663
  539MOL0     H72751   6.117   9.445   7.984  0.8025 -0.3377 -1.6041
  539MOL0     H72752   6.335   9.430   7.953  0.1915  1.4471 -1.0855
  539MOL0     H72753   6.551   9.525   7.893 -1.7204  0.7576  2.0408
  539MOL0     H72754   6.545   9.380   7.997 -1.3031 -0.3968 -1.5322
  539MOL0     H72755   6.780   9.467   7.879  1.2526 -0.4277  0.5929
  539MOL0     H72756   6.790   9.416   8.044 -0.7286  1.4223  1.7620
  539MOL0     H72757   6.795   9.677   8.101  0.5879  1.7118 -0.1516
  539MOL0     H72758   6.684   9.697   7.970 -1.9462 -0.8549  2.6807
  539MOL0     H72759   6.990   9.625   7.939 -0.7011 -0.0108  0.7730
  539MOL0     H72760   6.885   9.667   7.801 -2.8546  1.2974  0.0772
  539MOL0     H72761   7.009  10.042   7.986  2.1244  0.2372 -2.8855
  539MOL0     H72762   6.423   9.684   8.281 -0.6980 -0.4972  1.7805
  539MOL0     H72763   6.159   9.703   8.442  0.1559 -0.5960 -0.4217
  539MOL0     H72764   6.230   9.831   8.339 -0.0815  0.8014  1.2847
  539MOL0     H72765   6.067   9.800   8.319  1.0980  2.5956  1.8814
  540MOL0     O72766   1.304  10.327   9.306  0.6391  0.0522  0.4188
  540MOL0     C72767   1.270  10.386   9.205 -0.3086 -0.4633 -0.4929
  540MOL0     O72768   1.336  10.472   9.127 -0.3547 -0.6878  0.2202
  540MOL0     C72769   1.452  10.509   9.181  0.1865 -0.8904  0.2257
  540MOL0     C72770   1.480  10.641   9.216  0.6216 -0.4605  0.0208
  540MOL0     C72771   1.618  10.678   9.243  0.1498  0.0819 -0.7074
  540MOL0     C72772   1.720  10.590   9.248  0.0416  0.5870  0.4309
  540MOL0     O72773   1.845  10.630   9.287 -0.0714  0.2685 -0.1927
  540MOL0     C72774   1.847  10.751   9.361 -0.2635 -0.3352  1.1515
  540MOL0     C72775   1.988  10.775   9.423 -0.2872 -0.6308  0.3226
  540MOL0     C72776   2.040  10.660   9.523  0.0582 -0.0007 -0.2266
  540MOL0     C72777   2.174  10.693   9.581 -0.2447  0.3756  1.1458
  540MOL0     C72778   2.159  10.771   9.707 -0.1693  0.0484  0.4885
  540MOL0     C72779   2.292  10.836   9.751  0.5772  0.1793 -0.2548
  540MOL0     C72780   2.296  10.828   9.906  0.0383  0.9587 -0.3871
  540MOL0     C72781   2.327  10.692   9.958  0.3586 -0.1477  0.0050
  540MOL0     N72782   2.346  10.677  10.106 -0.7987 -0.0935 -0.0466
  540MOL0     C72783   2.271  10.602  10.177  0.0769  0.2274  0.1080
  540MOL0     C72784   2.331  10.589  10.292  0.2764  0.2220 -0.7645
  540MOL0     C72785   2.276  10.499  10.397  0.6550 -0.4234 -0.8790
  540MOL0     C72786   2.302  10.357  10.348  0.8043  0.2843 -0.3550
  540MOL0     C72787   2.244  10.250  10.446 -0.4624  0.0219 -0.3510
  540MOL0     C72788   2.095  10.234  10.438 -0.1586 -0.7439 -0.4368
  540MOL0     O72789   2.046  10.187  10.567 -0.7956  0.1460  0.0459
  540MOL0     C72790   1.927  10.109  10.554 -0.4373 -0.4014 -0.0069
  540MOL0     C72791   1.919   9.989  10.613 -0.0809 -0.1240 -0.2458
  540MOL0     C72792   1.808   9.912  10.613 -0.0679 -0.8919  0.3504
  540MOL0     C72793   1.691   9.954  10.551  0.2639  0.5989 -1.6119
  540MOL0     C72794   1.578   9.863  10.550  1.0284  1.3555 -0.0034
  540MOL0     O72795   1.592   9.744  10.617 -0.0674  0.1658  0.3974
  540MOL0     C72796   1.485   9.652  10.613 -1.3350  0.4931  0.1398
  540MOL0     C72797   1.361   9.675  10.658  0.9192 -0.4746 -0.9819
  540MOL0     C72798   1.258   9.581  10.649 -0.0303 -0.9085  0.8174
  540MOL0     C72799   1.281   9.459  10.596 -0.2092 -0.6517 -0.4440
  540MOL0     O72800   1.180   9.372  10.596 -0.3272  0.1462  0.9273
  540MOL0     C72801   1.211   9.229  10.632 -0.4779  0.6267 -0.4400
  540MOL0     C72802   1.075   9.157  10.649  0.4254 -0.3874 -0.0767
  540MOL0     C72803   1.082   9.002  10.660  0.3252  1.2635 -0.0292
  540MOL0     C72804   1.156   8.951  10.791  0.6568  0.1003 -0.0835
  540MOL0     C72805   1.134   8.796  10.806  0.1577  0.5906 -0.9370
  540MOL0     C72806   1.175   8.742  10.950  1.2046 -0.3934  0.2263
  540MOL0     C72807   1.176   8.591  10.943 -0.0790 -0.4304  0.2528
  540MOL0     C72808   1.152   8.515  11.064  0.2608 -0.4666 -0.1588
  540MOL0    Cl72809   0.980   8.534  11.096 -0.1964 -0.6227 -0.2958
  540MOL0     C72810   1.414   9.428  10.560  0.0181 -0.8447 -0.0286
  540MOL0     C72811   1.512   9.516  10.563  0.1427  0.4495 -0.8669
  540MOL0     O72812   1.478   9.886  10.481 -0.4559 -0.0405  1.1666
  540MOL0     C72813   1.693  10.067  10.479  0.4677  0.3681 -0.6990
  540MOL0     C72814   1.816  10.139  10.475 -0.2828 -0.7550  0.5279
  540MOL0     N72815   2.435  10.679  10.299  0.6680 -0.1774  0.5201
  540MOL0     N72816   2.442  10.730  10.184 -0.0809  0.6722  0.0568
  540MOL0     C72817   1.689  10.457   9.208 -0.4999  0.1016  0.3145
  540MOL0     C72818   1.563  10.421   9.166  0.0324  1.3676  0.0388
  540MOL0     C72819   1.125  10.374   9.167 -0.2136 -0.3938 -0.1600
  540MOL0     C72820   1.092  10.354   9.031  0.6026  0.6918  0.4605
  540MOL0     C72821   0.958  10.330   8.996  0.9863  0.2567 -0.4500
  540MOL0     C72822   0.855  10.318   9.091 -0.0136  0.6967 -0.0382
  540MOL0     O72823   0.726  10.305   9.041  0.0694  0.6739  0.4777
  540MOL0     C72824   0.702  10.170   8.994  0.2261  0.0091 -0.2854
  540MOL0     C72825   0.672  10.083   9.120 -0.8936 -0.6914  0.6225
  540MOL0     C72826   0.539  10.114   9.186 -0.2459 -0.3352  0.9116
  540MOL0     C72827   0.533  10.032   9.311  0.2306 -0.5894 -0.1406
  540MOL0     C72828   0.605  10.086   9.427 -0.4453 -0.6195 -0.1080
  540MOL0     C72829   0.657  10.137   9.526  0.3751 -1.6324  0.6543
  540MOL0     C72830   0.885  10.347   9.229  0.2835  0.6397 -0.8879
  540MOL0     C72831   1.021  10.375   9.265 -0.1368 -0.6345 -0.8086
  540MOL0     C72832   1.044  10.420   9.406  0.8110  0.4711  0.1171
  540MOL0     H72833   1.394  10.706   9.223  1.5492  0.7788  0.4107
  540MOL0     H72834   1.627  10.783   9.270  0.4683 -0.0025 -0.4831
  540MOL0     H72835   1.814  10.831   9.294 -0.4360 -2.4966 -1.5283
  540MOL0     H72836   1.771  10.744   9.439 -1.1498 -2.7449  0.1571
  540MOL0     H72837   1.977  10.869   9.478 -3.8441 -1.3458  1.0754
  540MOL0     H72838   2.057  10.791   9.339 -2.1367  0.5161 -1.0331
  540MOL0     H72839   2.048  10.568   9.465  0.0665  0.7413 -1.4565
  540MOL0     H72840   1.966  10.651   9.603 -0.0146 -1.0016 -0.4035
  540MOL0     H72841   2.247  10.613   9.594  1.1024  1.7343  2.3655
  540MOL0     H72842   2.232  10.755   9.512 -0.2192 -0.4882  0.3798
  540MOL0     H72843   2.080  10.843   9.683  1.0148  0.9540 -0.9094
  540MOL0     H72844   2.111  10.712   9.785 -0.1759 -0.9703 -0.2556
  540MOL0     H72845   2.384  10.786   9.720  0.9116 -0.0065  0.9812
  540MOL0     H72846   2.278  10.938   9.713 -0.0693  0.0105 -0.4772
  540MOL0     H72847   2.198  10.863   9.942  0.3191  1.9314 -0.5245
  540MOL0     H72848   2.368  10.902   9.944 -0.3626  1.2042 -0.0866
  540MOL0     H72849   2.245  10.628   9.924 -0.5552  2.1522 -2.4352
  540MOL0     H72850   2.424  10.666   9.915  1.3036  1.2413  1.1914
  540MOL0     H72851   2.177  10.552  10.153 -0.4968  0.4187  1.7994
  540MOL0     H72852   2.344  10.525  10.479  0.0661  1.0832 -0.8341
  540MOL0     H72853   2.172  10.521  10.422  0.4658 -2.0500 -0.0952
  540MOL0     H72854   2.254  10.342  10.250  0.3132 -1.1426  0.0747
  540MOL0     H72855   2.410  10.342  10.338  1.0840  1.4088  0.7568
  540MOL0     H72856   2.268  10.282  10.548 -0.4532 -2.4776  0.4993
  540MOL0     H72857   2.295  10.153  10.439  0.8277  0.4361  2.1827
  540MOL0     H72858   2.065  10.169  10.356  0.8409  2.1186 -3.2700
  540MOL0     H72859   2.060  10.332  10.406  0.8357 -0.7947 -1.7316
  540MOL0     H72860   2.002   9.946  10.670 -0.6612 -2.9467 -1.3320
  540MOL0     H72861   1.803   9.836  10.690  0.9595 -0.0832  1.2378
  540MOL0     H72862   1.337   9.775  10.694 -2.6376 -1.5478  0.0359
  540MOL0     H72863   1.163   9.620  10.685 -0.7201  0.6391 -2.3615
  540MOL0     H72864   1.282   9.186  10.561  0.6789 -1.6284  1.8802
  540MOL0     H72865   1.258   9.219  10.731 -0.1159 -1.0453 -0.7422
  540MOL0     H72866   1.022   9.191  10.739  0.5348 -0.8684  0.1753
  540MOL0     H72867   1.014   9.190  10.565  0.6005  1.7760  0.5825
  540MOL0     H72868   0.977   8.972  10.658  0.7752 -0.3824 -0.1639
  540MOL0     H72869   1.135   8.957  10.576  0.3103  0.7081  0.2516
  540MOL0     H72870   1.108   8.994  10.880 -2.1654  0.5956 -1.7210
  540MOL0     H72871   1.264   8.967  10.785  0.8034 -0.3735  0.9742
  540MOL0     H72872   1.183   8.740  10.726 -1.4830 -3.9520  0.8898
  540MOL0     H72873   1.026   8.777  10.800 -0.4094  0.8491  4.0212
  540MOL0     H72874   1.275   8.779  10.973  1.1948  0.1376 -0.5295
  540MOL0     H72875   1.106   8.775  11.028  2.3532  2.7666  0.0482
  540MOL0     H72876   1.272   8.554  10.906 -1.8929 -4.9330 -0.5973
  540MOL0     H72877   1.109   8.559  10.863  1.0840 -0.6682 -0.6615
  540MOL0     H72878   1.178   8.409  11.069 -1.2151 -0.8676 -0.5846
  540MOL0     H72879   1.192   8.580  11.143 -1.4107  1.4632 -0.8027
  540MOL0     H72880   1.448   9.328  10.534 -1.5136 -1.7616  1.2979
  540MOL0     H72881   1.617   9.503  10.538  1.4534  0.4534  3.8109
  540MOL0     H72882   1.601  10.083  10.423 -0.8986 -1.8269  0.7960
  540MOL0     H72883   1.817  10.231  10.417  2.2505 -0.0696  1.5484
  540MOL0     H72884   1.774  10.390   9.205  1.8439  2.8980 -0.7109
  540MOL0     H72885   1.537  10.323   9.127 -0.0482  1.3187  0.2105
  540MOL0     H72886   1.173  10.345   8.959 -0.4851  2.6829 -1.1280
  540MOL0     H72887   0.933  10.303   8.894  0.7387  2.8649 -1.1585
  540MOL0     H72888   0.788  10.127   8.942  0.9525  0.4504  0.5198
  540MOL0     H72889   0.620  10.178   8.923  0.4366  1.5063 -0.3868
  540MOL0     H72890   0.751  10.103   9.193 -2.4077 -2.8123  3.0116
  540MOL0     H72891   0.670   9.975   9.101 -1.4294 -1.0318  2.4318
  540MOL0     H72892   0.454  10.087   9.123  0.7621 -1.9420  0.1616
  540MOL0     H72893   0.537  10.222   9.202  1.0342  0.0472 -1.0987
  540MOL0     H72894   0.429  10.046   9.341  0.2372  1.8328 -0.9957
  540MOL0     H72895   0.558   9.930   9.282 -1.0526 -1.2649  1.0154
  540MOL0     H72896   0.684  10.193   9.613  0.9165  4.5670 -2.9400
  540MOL0     H72897   0.795  10.357   9.288  1.5544 -0.6190  1.4515
  540MOL0     H72898   1.051  10.326   9.463 -0.8902 -1.0177 -1.9276
  540MOL0     H72899   1.131  10.485   9.405  1.5667 -0.4984 -1.8985
  540MOL0     H72900   0.956  10.469   9.450  0.3470  0.6951 -1.0402
  541MOL0     O72901  11.475   5.999   2.350  0.0593  0.0003  0.0691
  541MOL0     C72902  11.431   6.072   2.436  0.3070  0.9886  0.2857
  541MOL0     O72903  11.354   6.184   2.413 -0.7384  0.1050  0.2222
  541MOL0     C72904  11.300   6.208   2.290 -0.2474  0.0934 -0.8200
  541MOL0     C72905  11.256   6.342   2.282  0.3269 -0.0362 -0.2461
  541MOL0     C72906  11.186   6.389   2.166  0.2675 -0.3890 -0.0396
  541MOL0     C72907  11.144   6.299   2.067 -0.6203 -0.7399 -0.0324
  541MOL0     O72908  11.062   6.347   1.971 -0.2148  0.6000  0.1245
  541MOL0     C72909  11.094   6.307   1.838 -0.8917 -0.1898  0.9574
  541MOL0     C72910  11.222   6.376   1.796 -0.6884 -0.1604 -0.0765
  541MOL0     C72911  11.242   6.389   1.644  0.3090  0.4078 -0.3671
  541MOL0     C72912  11.149   6.503   1.589  0.4821 -0.1686 -0.4757
  541MOL0     C72913  11.172   6.532   1.440  0.5845 -0.3707 -0.5405
  541MOL0     C72914  11.132   6.415   1.349  0.6699 -0.3830  0.3057
  541MOL0     C72915  11.157   6.461   1.207 -0.5514 -0.6523 -0.2273
  541MOL0     C72916  11.120   6.341   1.107 -0.4396  0.3078 -0.3203
  541MOL0     N72917  10.976   6.329   1.080  0.3029 -0.1951 -0.2245
  541MOL0     C72918  10.923   6.234   0.992 -0.0810 -0.3667 -0.6566
  541MOL0     C72919  10.787   6.263   0.998 -0.4990  1.1071  0.6262
  541MOL0     C72920  10.670   6.214   0.923 -0.3885  1.1435 -1.0781
  541MOL0     C72921  10.544   6.197   1.008  0.4873 -0.8933 -0.3827
  541MOL0     C72922  10.437   6.136   0.910  0.0143  0.1361 -0.8487
  541MOL0     C72923  10.298   6.111   0.979  0.0666  0.1604  0.0580
  541MOL0     O72924  10.231   6.242   1.018  0.0982  1.1943  0.0468
  541MOL0     C72925  10.094   6.242   1.008  0.6509  0.4780 -0.1132
  541MOL0     C72926  10.026   6.215   0.891  0.4544  0.2761  0.2129
  541MOL0     C72927   9.888   6.224   0.889  0.5878  0.2392 -1.4622
  541MOL0     C72928   9.807   6.272   0.995 -0.8087  0.3285  0.4413
  541MOL0     C72929   9.670   6.302   0.984  1.4799  0.1094  0.1230
  541MOL0     O72930   9.580   6.204   0.936  0.1615 -0.2397  1.1449
  541MOL0     C72931   9.447   6.215   0.954 -0.0331 -0.3266  0.1085
  541MOL0     C72932   9.386   6.294   1.053  0.5598 -0.2312 -0.3263
  541MOL0     C72933   9.248   6.312   1.048 -0.0939 -0.3298  0.6149
  541MOL0     C72934   9.165   6.237   0.969  1.0020  0.3540 -0.2213
  541MOL0     O72935   9.031   6.261   0.958  1.5572 -0.3331 -0.2478
  541MOL0     C72936   8.979   6.305   0.831  0.3636 -0.9060  0.2100
  541MOL0     C72937   8.875   6.405   0.849  0.7017  0.2984 -0.1575
  541MOL0     C72938   8.750   6.349   0.911 -0.5966  0.0226 -0.3107
  541MOL0     C72939   8.628   6.428   0.866  0.1019 -0.7275  1.1063
  541MOL0     C72940   8.502   6.398   0.943  1.1205 -0.0042 -0.5785
  541MOL0     C72941   8.386   6.465   0.869  0.5889 -0.4664 -0.0746
  541MOL0     C72942   8.264   6.488   0.961 -0.2649  0.4508  0.3137
  541MOL0     C72943   8.197   6.354   0.998 -0.1356 -0.0295  0.6184
  541MOL0    Cl72944   8.038   6.388   1.067 -0.0005  0.7229  0.2522
  541MOL0     C72945   9.226   6.145   0.874 -0.3125 -0.6864 -0.6207
  541MOL0     C72946   9.362   6.138   0.864  0.1646 -0.0248  0.3210
  541MOL0     O72947   9.636   6.416   1.023  0.1969  0.2680 -0.5386
  541MOL0     C72948   9.882   6.299   1.113 -0.4941  0.5374 -0.1090
  541MOL0     C72949  10.022   6.285   1.116 -0.2642  0.7422  0.4754
  541MOL0     N72950  10.763   6.365   1.087 -0.7466 -0.0913  0.1744
  541MOL0     N72951  10.872   6.405   1.137 -0.3318  0.5229  0.3258
  541MOL0     C72952  11.186   6.158   2.080 -0.7597  0.6222  0.1176
  541MOL0     C72953  11.264   6.114   2.188 -0.4374 -0.3045 -1.1822
  541MOL0     C72954  11.472   6.050   2.576 -0.2152 -0.9763 -0.2983
  541MOL0     C72955  11.568   5.950   2.596  0.3254 -0.1582 -0.6163
  541MOL0     C72956  11.603   5.905   2.724 -0.0893 -0.6252 -1.0466
  541MOL0     C72957  11.528   5.956   2.833 -0.3269  0.5955 -0.3283
  541MOL0     O72958  11.540   5.902   2.955  0.1961 -0.4967 -0.5453
  541MOL0     C72959  11.674   5.891   3.009  0.2085  0.5350  0.7485
  541MOL0     C72960  11.674   5.837   3.150 -0.8276  0.6096 -0.1824
  541MOL0     C72961  11.600   5.909   3.263  0.1650 -0.6179  0.7442
  541MOL0     C72962  11.456   5.862   3.266  0.2800  0.1298  0.5152
  541MOL0     C72963  11.359   5.961   3.308  0.9880 -0.2019  0.7218
  541MOL0     C72964  11.276   6.041   3.341 -0.6770  0.7987 -0.7010
  541MOL0     C72965  11.436   6.065   2.814  0.6923  0.4638  0.2466
  541MOL0     C72966  11.408   6.121   2.686 -0.3532  0.5496 -0.2710
  541MOL0     C72967  11.295   6.225   2.680  0.4046  0.0259  0.6358
  541MOL0     H72968  11.286   6.412   2.360 -2.5293 -0.7943  1.7265
  541MOL0     H72969  11.151   6.491   2.172  0.5031 -0.3753  1.3921
  541MOL0     H72970  11.093   6.199   1.819 -1.0672  0.1079 -0.8855
  541MOL0     H72971  11.019   6.356   1.775 -0.2088  0.1710  0.4142
  541MOL0     H72972  11.305   6.320   1.842 -1.5698  0.0756  1.9078
  541MOL0     H72973  11.224   6.474   1.843 -0.5044 -0.8396  1.4062
  541MOL0     H72974  11.225   6.296   1.588 -0.5436 -1.4214  2.7035
  541MOL0     H72975  11.348   6.407   1.622  0.7654  2.1491  2.6964
  541MOL0     H72976  11.045   6.474   1.603  0.5321  0.5873  2.1578
  541MOL0     H72977  11.148   6.599   1.641  0.6359  0.9717 -2.5045
  541MOL0     H72978  11.115   6.619   1.405 -3.0459 -2.2616  0.2370
  541MOL0     H72979  11.280   6.549   1.434  0.8140 -0.8339  1.5852
  541MOL0     H72980  11.195   6.329   1.373  0.3306 -1.9498 -3.6064
  541MOL0     H72981  11.026   6.391   1.359  0.7741 -0.7280  0.5876
  541MOL0     H72982  11.264   6.479   1.203 -0.7271  0.6049  0.3828
  541MOL0     H72983  11.100   6.549   1.175 -0.8865 -0.8242 -0.1173
  541MOL0     H72984  11.166   6.360   1.010 -0.1170  3.6006  0.3735
  541MOL0     H72985  11.160   6.247   1.146 -0.4767  0.3586 -0.1619
  541MOL0     H72986  10.980   6.165   0.931 -1.2880 -1.7444 -0.2662
  541MOL0     H72987  10.655   6.260   0.825  2.0645 -0.6510 -2.4252
  541MOL0     H72988  10.686   6.108   0.898  2.2312  0.9605  0.9243
  541MOL0     H72989  10.575   6.127   1.086  0.9813  1.1298  1.3159
  541MOL0     H72990  10.498   6.289   1.044  0.0862 -0.2189 -2.4656
  541MOL0     H72991  10.472   6.038   0.878 -2.7077 -0.9364 -0.7368
  541MOL0     H72992  10.432   6.195   0.818  0.8147 -1.6069 -2.0497
  541MOL0     H72993  10.299   6.052   1.071 -0.8056 -1.1287 -0.7320
  541MOL0     H72994  10.239   6.046   0.914 -1.3654  2.5563 -1.2011
  541MOL0     H72995  10.085   6.180   0.807 -0.6470  0.0940 -0.5098
  541MOL0     H72996   9.844   6.207   0.791  1.2242 -0.2762 -1.6638
  541MOL0     H72997   9.445   6.350   1.126 -0.0644 -1.8695  1.5192
  541MOL0     H72998   9.204   6.377   1.123  1.7357  3.6602 -1.4719
  541MOL0     H72999   9.057   6.357   0.774  0.0295 -1.1488 -0.4788
  541MOL0     H73000   8.946   6.220   0.771 -0.5519 -1.1346  1.0108
  541MOL0     H73001   8.913   6.492   0.904 -1.6826  1.8525 -0.8423
  541MOL0     H73002   8.859   6.438   0.746  1.0426 -1.8861 -0.9555
  541MOL0     H73003   8.727   6.247   0.881 -2.7273  0.7503 -1.3575
  541MOL0     H73004   8.764   6.362   1.019  0.1984 -0.6336 -0.3297
  541MOL0     H73005   8.610   6.403   0.761 -0.8535  0.6715  0.9144
  541MOL0     H73006   8.644   6.536   0.861 -1.0486 -0.5946 -1.4802
  541MOL0     H73007   8.506   6.436   1.046 -4.0615 -1.1496  0.2862
  541MOL0     H73008   8.483   6.291   0.951 -2.1310  0.6236  3.2590
  541MOL0     H73009   8.412   6.557   0.817 -0.4378  0.4292  0.9311
  541MOL0     H73010   8.364   6.394   0.788 -0.5265 -0.0689 -0.1408
  541MOL0     H73011   8.218   6.564   0.897  2.0177  0.6123 -1.2768
  541MOL0     H73012   8.301   6.530   1.055 -0.8716 -1.6076  1.5297
  541MOL0     H73013   8.179   6.293   0.909  0.1498 -0.7047  1.0092
  541MOL0     H73014   8.247   6.292   1.073 -1.9192  1.0829  2.8823
  541MOL0     H73015   9.158   6.084   0.816 -0.3079 -1.4900  0.1914
  541MOL0     H73016   9.402   6.069   0.791  2.0878 -0.1243  1.3712
  541MOL0     H73017   9.831   6.331   1.203  2.1064 -0.9478  2.0396
  541MOL0     H73018  10.079   6.311   1.205 -1.2991  1.0965  1.0581
  541MOL0     H73019  11.160   6.089   2.000 -0.2360 -0.1124  0.5634
  541MOL0     H73020  11.293   6.010   2.194 -1.7527 -0.6166  0.3937
  541MOL0     H73021  11.607   5.904   2.506  0.1749 -0.0386 -0.7448
  541MOL0     H73022  11.669   5.820   2.740  2.5235  1.8278  2.9642
  541MOL0     H73023  11.713   5.993   3.021 -0.3666  1.0636 -1.3704
  541MOL0     H73024  11.743   5.831   2.949 -0.7098  0.0270  0.1758
  541MOL0     H73025  11.782   5.833   3.170 -0.5928  0.3758 -1.4433
  541MOL0     H73026  11.632   5.737   3.134 -3.7410  1.5703  0.7791
  541MOL0     H73027  11.594   6.018   3.250 -6.1150 -0.6757 -0.0450
  541MOL0     H73028  11.646   5.895   3.362 -1.8690 -3.7740  1.3691
  541MOL0     H73029  11.425   5.841   3.163 -0.0404 -0.3178  0.7006
  541MOL0     H73030  11.439   5.767   3.317  0.3441 -1.7317 -2.6758
  541MOL0     H73031  11.203   6.109   3.381  1.3704  2.6110  0.1853
  541MOL0     H73032  11.375   6.101   2.897 -0.2541  3.4620 -1.6022
  541MOL0     H73033  11.198   6.194   2.638  1.4045  1.7076 -3.4223
  541MOL0     H73034  11.279   6.260   2.782  0.7108 -2.5648  1.6499
  541MOL0     H73035  11.333   6.301   2.612 -2.7574 -0.3882 -1.8701
  542MOL0     O73036   2.572   6.710   9.293  0.5199  0.1671 -0.6331
  542MOL0     C73037   2.642   6.793   9.337  0.1084 -0.5662 -0.5784
  542MOL0     O73038   2.653   6.823   9.474 -0.2792  0.5985  0.4842
  542MOL0     C73039   2.580   6.752   9.572 -0.1545 -0.0305  0.2440
  542MOL0     C73040   2.655   6.736   9.688 -0.8610 -0.5280 -0.7737
  542MOL0     C73041   2.590   6.694   9.803  0.8508  0.2768 -0.5376
  542MOL0     C73042   2.461   6.641   9.798 -0.2068  0.6360 -0.4780
  542MOL0     O73043   2.397   6.585   9.906  0.2913  0.3514  0.6024
  542MOL0     C73044   2.462   6.578  10.030  0.2732 -0.4696 -0.5122
  542MOL0     C73045   2.355   6.574  10.142 -0.3478  0.3498 -0.3430
  542MOL0     C73046   2.413   6.543  10.268 -0.6546 -0.7819  0.5191
  542MOL0     C73047   2.306   6.524  10.376 -0.1976  0.2312 -0.2222
  542MOL0     C73048   2.370   6.509  10.519 -0.0764 -0.3194  0.2296
  542MOL0     C73049   2.483   6.403  10.510 -0.6038  0.3138 -0.1734
  542MOL0     C73050   2.529   6.362  10.661  0.1022 -0.7755 -0.0168
  542MOL0     C73051   2.645   6.268  10.664  0.0558 -0.3027 -0.0125
  542MOL0     N73052   2.718   6.261  10.797  1.3205  0.6509 -0.4161
  542MOL0     C73053   2.795   6.364  10.846  0.1038  0.2618  0.6653
  542MOL0     C73054   2.855   6.318  10.959  0.5734  0.2650  0.0539
  542MOL0     C73055   2.979   6.378  11.016 -0.2280  0.0519 -0.2578
  542MOL0     C73056   3.044   6.309  11.140 -0.1522 -0.3555  0.6037
  542MOL0     C73057   3.143   6.404  11.209 -0.8989 -0.7531 -0.8415
  542MOL0     C73058   3.268   6.414  11.132 -1.1113 -0.1176 -0.0076
  542MOL0     O73059   3.256   6.538  11.062 -0.5215 -0.1300 -0.0224
  542MOL0     C73060   3.376   6.607  11.049 -0.2811 -0.6730 -0.5686
  542MOL0     C73061   3.475   6.629  11.158  1.0256  0.1212 -0.4706
  542MOL0     C73062   3.595   6.689  11.131 -0.0936 -0.4778  0.2595
  542MOL0     C73063   3.616   6.750  11.007 -0.5315 -0.8365  0.4837
  542MOL0     C73064   3.742   6.822  10.985  0.5144  0.1711 -0.0234
  542MOL0     O73065   3.776   6.858  10.863  0.1660  0.7182 -0.1752
  542MOL0     C73066   3.869   6.956  10.837  0.7009  0.0114  0.5540
  542MOL0     C73067   3.988   6.979  10.911  0.4596 -0.0054  0.1960
  542MOL0     C73068   4.068   7.081  10.869 -0.4727 -0.7113  0.2859
  542MOL0     C73069   4.039   7.157  10.754 -0.7105 -0.9583  0.7685
  542MOL0     O73070   4.120   7.252  10.696  0.4130 -0.7550 -0.3403
  542MOL0     C73071   4.252   7.287  10.761 -0.1619  0.5228 -0.3939
  542MOL0     C73072   4.332   7.369  10.662  0.7168  0.4746 -0.7845
  542MOL0     C73073   4.475   7.392  10.699  0.4209  0.5433 -0.2271
  542MOL0     C73074   4.551   7.457  10.572 -0.2775 -0.0208  0.1293
  542MOL0     C73075   4.700   7.473  10.582 -0.2209 -0.2902  0.2733
  542MOL0     C73076   4.783   7.344  10.614 -0.4653 -0.0406 -0.2980
  542MOL0     C73077   4.752   7.234  10.516  0.2509  0.8161  0.0981
  542MOL0     C73078   4.852   7.119  10.558  0.3104  0.2227  0.8930
  542MOL0    Cl73079   4.862   7.018  10.420  0.0191 -0.1861 -0.5525
  542MOL0     C73080   3.924   7.125  10.684 -0.1553 -0.4809  1.1032
  542MOL0     C73081   3.839   7.020  10.725 -0.8806  0.9237 -0.0719
  542MOL0     O73082   3.802   6.858  11.083  0.4676 -0.2144 -0.4077
  542MOL0     C73083   3.526   6.738  10.901  0.3660  0.7156  0.2491
  542MOL0     C73084   3.416   6.660  10.918  0.6726  0.8320  0.1035
  542MOL0     N73085   2.783   6.203  10.994 -0.0018 -0.9127 -0.3893
  542MOL0     N73086   2.706   6.163  10.898  1.2704  0.0684 -0.2648
  542MOL0     C73087   2.393   6.635   9.671  0.2334 -0.4198  0.4295
  542MOL0     C73088   2.457   6.691   9.563  0.0899 -0.7403 -0.1767
  542MOL0     C73089   2.721   6.874   9.244 -0.2828  0.1450 -0.9892
  542MOL0     C73090   2.833   6.946   9.296  0.2973 -0.0869 -0.0346
  542MOL0     C73091   2.910   7.032   9.221  0.5013 -0.6861  0.2560
  542MOL0     C73092   2.882   7.055   9.087  1.2392 -0.3533 -0.5674
  542MOL0     O73093   2.940   7.135   8.997 -0.0347  0.0505 -0.1403
  542MOL0     C73094   3.045   7.219   9.035 -0.4156  0.9491  0.5217
  542MOL0     C73095   3.044   7.338   8.953 -0.0917 -0.1453 -0.5550
  542MOL0     C73096   2.914   7.430   8.975  0.1010  0.4360 -0.2588
  542MOL0     C73097   2.940   7.563   8.900 -0.4818 -0.6215  0.0366
  542MOL0     C73098   2.825   7.657   8.908 -0.5630 -0.6839 -1.0895
  542MOL0     C73099   2.736   7.733   8.924 -0.1988 -0.7712 -1.0235
  542MOL0     C73100   2.767   6.989   9.032  0.3319 -0.5412 -0.2655
  542MOL0     C73101   2.680   6.906   9.112 -0.4223 -0.0121 -0.9074
  542MOL0     C73102   2.551   6.861   9.052 -0.0932  1.2778 -0.0711
  542MOL0     H73103   2.752   6.779   9.710 -1.5329 -0.1727  1.8698
  542MOL0     H73104   2.653   6.699   9.891  1.7207 -0.2033 -1.1108
  542MOL0     H73105   2.528   6.491  10.031 -0.6942 -1.2120 -0.6361
  542MOL0     H73106   2.526   6.665  10.052  2.8190 -2.4879  0.6296
  542MOL0     H73107   2.273   6.504  10.125 -1.9545  2.3561 -1.3208
  542MOL0     H73108   2.307   6.672  10.134 -1.3801  0.0213  1.2951
  542MOL0     H73109   2.465   6.635  10.296  2.2033 -2.0705 -0.1858
  542MOL0     H73110   2.481   6.458  10.256  1.0046  0.5429  0.2062
  542MOL0     H73111   2.236   6.608  10.374 -2.0882 -1.2810 -1.1377
  542MOL0     H73112   2.249   6.435  10.346 -0.5917  1.1964 -2.5504
  542MOL0     H73113   2.414   6.601  10.557  3.2323 -0.4869 -2.7669
  542MOL0     H73114   2.291   6.471  10.586 -2.7326 -0.4727 -2.7359
  542MOL0     H73115   2.434   6.317  10.464 -1.2984 -0.3203  1.6586
  542MOL0     H73116   2.572   6.439  10.457  1.6390 -2.7584  1.2338
  542MOL0     H73117   2.446   6.332  10.726  0.4909  1.9882  1.9165
  542MOL0     H73118   2.558   6.461  10.698 -2.5781  0.0299  0.0996
  542MOL0     H73119   2.606   6.170  10.633 -0.8344  0.1315 -0.3097
  542MOL0     H73120   2.717   6.285  10.584 -0.6793  4.2323  0.0535
  542MOL0     H73121   2.823   6.451  10.788 -0.4337  0.2873  0.4350
  542MOL0     H73122   3.049   6.374  10.933 -0.0810  0.6052 -0.1677
  542MOL0     H73123   2.956   6.479  11.053 -1.8991 -0.7224  0.9402
  542MOL0     H73124   2.959   6.270  11.197  0.2504 -1.7129  0.3186
  542MOL0     H73125   3.106   6.225  11.107  2.0625  0.6363  1.9872
  542MOL0     H73126   3.167   6.364  11.308 -1.6076  2.1488  0.6142
  542MOL0     H73127   3.099   6.504  11.209  2.3442  0.8156 -1.0639
  542MOL0     H73128   3.281   6.324  11.071 -1.9389  1.8603 -3.3568
  542MOL0     H73129   3.358   6.412  11.194 -0.4723 -1.1315 -0.9261
  542MOL0     H73130   3.434   6.593  11.252 -1.3856  0.5309 -1.2941
  542MOL0     H73131   3.671   6.687  11.209 -2.4808 -1.9535  2.7272
  542MOL0     H73132   4.006   6.928  11.005  0.4806  0.0020  0.1962
  542MOL0     H73133   4.155   7.114  10.925  0.4602  0.5474 -1.7411
  542MOL0     H73134   4.232   7.343  10.853 -2.1802 -0.1970 -0.3448
  542MOL0     H73135   4.312   7.204  10.801 -0.2336  0.5401 -0.2466
  542MOL0     H73136   4.334   7.313  10.568 -0.7143 -0.2533 -0.4122
  542MOL0     H73137   4.274   7.461  10.656 -5.0741 -2.6021  0.8613
  542MOL0     H73138   4.477   7.454  10.789  1.6150  1.7504 -1.0414
  542MOL0     H73139   4.527   7.301  10.729 -0.8267 -0.1916 -0.2180
  542MOL0     H73140   4.518   7.561  10.562  0.3008  0.4399  2.3046
  542MOL0     H73141   4.544   7.405  10.477  2.4681  0.7151 -0.5716
  542MOL0     H73142   4.736   7.549  10.653 -0.1483 -2.5330  2.7861
  542MOL0     H73143   4.730   7.495  10.480 -1.0548 -0.3152  0.0197
  542MOL0     H73144   4.892   7.349  10.610 -0.2785 -2.2620  0.5209
  542MOL0     H73145   4.757   7.303  10.712  2.2979 -0.5791  0.2858
  542MOL0     H73146   4.773   7.277  10.418  2.7834  3.4410  1.6189
  542MOL0     H73147   4.645   7.210  10.514  0.0529  1.6111  0.6799
  542MOL0     H73148   4.954   7.139  10.592  1.0072 -1.7207  0.0866
  542MOL0     H73149   4.804   7.060  10.636 -0.5534 -0.9463 -0.4765
  542MOL0     H73150   3.900   7.175  10.591  0.7358 -1.4240  0.3336
  542MOL0     H73151   3.758   6.992  10.658 -1.5398  4.0210 -0.7096
  542MOL0     H73152   3.544   6.774  10.800  1.2297 -1.9626 -0.6270
  542MOL0     H73153   3.353   6.643  10.831 -1.8680 -0.2807  2.0471
  542MOL0     H73154   2.301   6.576   9.665 -0.4517  0.6922 -0.4406
  542MOL0     H73155   2.402   6.698   9.469  0.0077  1.9092 -0.0014
  542MOL0     H73156   2.863   6.941   9.400 -0.2717  3.3256  0.3987
  542MOL0     H73157   2.992   7.085   9.268  1.7777 -0.2074 -2.3360
  542MOL0     H73158   3.134   7.159   9.015 -2.6214 -2.1114 -1.0780
  542MOL0     H73159   3.036   7.244   9.141 -2.2501 -0.1554  0.6877
  542MOL0     H73160   3.057   7.308   8.849 -2.5615 -0.4423 -0.8321
  542MOL0     H73161   3.136   7.387   8.987 -0.9013  0.3796  0.9951
  542MOL0     H73162   2.893   7.440   9.082 -3.4849 -2.7956 -0.4374
  542MOL0     H73163   2.830   7.373   8.933 -2.6410  3.6538  0.3716
  542MOL0     H73164   3.024   7.618   8.944  0.8599 -2.0291 -0.6542
  542MOL0     H73165   2.965   7.544   8.795 -0.6923  2.6368 -0.6923
  542MOL0     H73166   2.666   7.811   8.946  1.6541  0.5996  0.2747
  542MOL0     H73167   2.744   7.014   8.929 -0.5490  3.4954  0.7188
  542MOL0     H73168   2.475   6.902   9.118  0.1032 -2.2580  2.6182
  542MOL0     H73169   2.545   6.897   8.949  2.4929  0.0605 -0.7408
  542MOL0     H73170   2.536   6.754   9.035  0.1395  1.3163 -0.5572
  543MOL0     O73171  10.931  10.093   6.891  0.8013  0.8364 -0.3675
  543MOL0     C73172  11.000  10.006   6.843 -0.6851 -0.6299  0.2232
  543MOL0     O73173  11.101   9.945   6.908  0.9689  0.1223  0.0029
  543MOL0     C73174  11.115   9.978   7.040  0.2411 -0.0836 -0.1530
  543MOL0     C73175  11.015   9.970   7.136  0.2286  0.4024 -0.0401
  543MOL0     C73176  11.050  10.004   7.264  0.5667  0.0468 -0.4783
  543MOL0     C73177  11.178  10.045   7.308 -0.2901 -0.1232 -0.1277
  543MOL0     O73178  11.219  10.066   7.437 -1.1800  0.8436 -0.2218
  543MOL0     C73179  11.135  10.061   7.547 -0.1317  0.0719 -0.2461
  543MOL0     C73180  11.046  10.189   7.542 -0.4060 -0.8149  0.8510
  543MOL0     C73181  11.110  10.309   7.617 -0.8222  0.1917 -0.1418
  543MOL0     C73182  11.049  10.453   7.589 -0.3106 -0.1473 -0.6133
  543MOL0     C73183  10.908  10.454   7.537 -0.3194  0.1569 -0.5396
  543MOL0     C73184  10.836  10.587   7.558 -0.4447  0.4268  0.2053
  543MOL0     C73185  10.721  10.612   7.459  0.0997  0.9322 -0.1089
  543MOL0     C73186  10.607  10.506   7.478 -0.8720 -0.0591  0.8342
  543MOL0     N73187  10.508  10.516   7.588 -0.0119  0.5062  0.1232
  543MOL0     C73188  10.537  10.502   7.722 -0.3844 -0.3688 -0.4225
  543MOL0     C73189  10.412  10.507   7.783 -0.6065  0.4676 -1.0376
  543MOL0     C73190  10.388  10.515   7.927  0.1632  0.3767  0.8173
  543MOL0     C73191  10.344  10.662   7.969  0.4021 -0.0062 -0.3924
  543MOL0     C73192  10.332  10.684   8.122  0.2590 -0.0164  0.6320
  543MOL0     C73193  10.252  10.566   8.183  0.0194  0.1534  0.0114
  543MOL0     O73194  10.125  10.554   8.120  0.2352 -0.0734 -0.2859
  543MOL0     C73195  10.026  10.592   8.216  0.7355 -0.4764 -0.5789
  543MOL0     C73196   9.941  10.700   8.204  0.8502  0.5833 -0.4866
  543MOL0     C73197   9.841  10.726   8.303 -0.9728 -1.1175 -0.1524
  543MOL0     C73198   9.828  10.638   8.416  0.2340 -0.2182 -0.2608
  543MOL0     C73199   9.719  10.655   8.525 -0.3212 -0.4110  0.3475
  543MOL0     O73200   9.699  10.549   8.615  0.0655 -0.2148  0.0838
  543MOL0     C73201   9.585  10.574   8.688 -0.4709 -0.0790  0.7940
  543MOL0     C73202   9.471  10.501   8.652  0.7805 -0.0797  0.4158
  543MOL0     C73203   9.358  10.517   8.730 -0.5548 -0.1414 -0.0287
  543MOL0     C73204   9.360  10.604   8.840  0.0613  0.3538 -0.0772
  543MOL0     O73205   9.254  10.591   8.924  0.2940  0.4734  0.3358
  543MOL0     C73206   9.248  10.647   9.053  0.9768 -0.3295  0.2736
  543MOL0     C73207   9.161  10.566   9.158 -0.7551  0.3770 -0.3644
  543MOL0     C73208   9.038  10.510   9.089  0.1249 -0.0815  0.7036
  543MOL0     C73209   8.924  10.506   9.193  1.0762 -0.0016  0.1484
  543MOL0     C73210   8.800  10.435   9.137 -0.1304 -0.1053 -1.1597
  543MOL0     C73211   8.736  10.486   9.008 -0.1512 -0.3262 -0.9908
  543MOL0     C73212   8.609  10.415   8.982  0.5111  0.8852 -0.0161
  543MOL0     C73213   8.522  10.497   8.892 -0.4275  0.2059  0.5332
  543MOL0    Cl73214   8.396  10.387   8.838  0.1646 -0.0012 -0.1582
  543MOL0     C73215   9.468  10.675   8.876 -0.3064 -0.0843 -0.4125
  543MOL0     C73216   9.587  10.650   8.800  0.9702 -0.4669  0.3956
  543MOL0     O73217   9.670  10.768   8.534 -0.3375 -0.3887  0.6212
  543MOL0     C73218   9.911  10.533   8.425  0.7952 -0.2705 -0.1218
  543MOL0     C73219  10.009  10.512   8.328 -1.1737  0.2456 -0.5593
  543MOL0     N73220  10.323  10.514   7.682  0.3007 -1.1647 -0.2487
  543MOL0     N73221  10.380  10.528   7.569  0.1518  0.1703  0.3375
  543MOL0     C73222  11.275  10.062   7.212  0.3274  0.5374 -0.3369
  543MOL0     C73223  11.238  10.028   7.082 -0.2265  0.1703 -0.5916
  543MOL0     C73224  10.988   9.971   6.694 -0.0719 -0.1137  0.3466
  543MOL0     C73225  11.095   9.912   6.630 -0.8758  0.4834  1.4051
  543MOL0     C73226  11.104   9.883   6.493 -0.2428 -0.6092  0.4017
  543MOL0     C73227  10.989   9.895   6.415 -0.5110 -0.5283  0.1987
  543MOL0     O73228  10.993   9.861   6.287 -0.0790  0.1939 -0.0365
  543MOL0     C73229  10.878   9.873   6.196 -0.0860  0.3507  0.2994
  543MOL0     C73230  10.865  10.016   6.147  0.9447  0.0675 -0.8736
  543MOL0     C73231  10.971  10.056   6.041  0.1205 -0.4868  0.1248
  543MOL0     C73232  10.970   9.951   5.919 -0.7025 -0.7403 -0.3483
  543MOL0     C73233  11.043  10.014   5.812  0.5845  0.0756 -0.8862
  543MOL0     C73234  11.104  10.076   5.732 -0.1467  0.2687  1.3217
  543MOL0     C73235  10.877   9.950   6.476  0.3712  0.8858 -0.0464
  543MOL0     C73236  10.876   9.996   6.612  0.8221  0.2659  0.4621
  543MOL0     C73237  10.741  10.041   6.671 -1.0212 -0.0366  0.0820
  543MOL0     H73238  10.915   9.932   7.117 -0.8573  3.4818 -1.2278
  543MOL0     H73239  10.971   9.989   7.337  0.4407  5.1524  0.8369
  543MOL0     H73240  11.070   9.973   7.542  2.1430 -2.0835  3.3752
  543MOL0     H73241  11.187  10.053   7.644  0.2278  0.6138 -0.3870
  543MOL0     H73242  10.949  10.174   7.591  0.1732 -0.2329  2.2508
  543MOL0     H73243  11.025  10.216   7.438  3.2742  0.6211  0.3227
  543MOL0     H73244  11.215  10.331   7.595 -1.5217  3.9496 -0.2323
  543MOL0     H73245  11.132  10.271   7.717 -3.2898 -3.4392 -0.7937
  543MOL0     H73246  11.048  10.500   7.688 -2.1986 -1.1252 -0.1084
  543MOL0     H73247  11.120  10.509   7.528  1.1016 -2.3607 -1.1025
  543MOL0     H73248  10.922  10.436   7.430  2.8977 -0.5325 -0.0974
  543MOL0     H73249  10.846  10.374   7.578 -3.8120  2.4334 -0.9852
  543MOL0     H73250  10.819  10.593   7.666 -0.2130 -3.6789  0.6123
  543MOL0     H73251  10.911  10.665   7.539 -0.7296  0.5251 -0.5061
  543MOL0     H73252  10.758  10.601   7.356 -0.1700  1.2281 -0.2414
  543MOL0     H73253  10.687  10.711   7.492  0.5970  0.1381  3.0377
  543MOL0     H73254  10.552  10.517   7.385 -3.2843  3.0796  2.4430
  543MOL0     H73255  10.656  10.409   7.489  0.4766  0.3409 -1.0974
  543MOL0     H73256  10.631  10.467   7.765 -1.3623 -1.4517  0.9055
  543MOL0     H73257  10.316  10.436   7.950  3.3410 -4.0153 -2.6994
  543MOL0     H73258  10.479  10.492   7.983 -1.5423 -2.8249  2.5837
  543MOL0     H73259  10.425  10.727   7.933  1.4315 -0.7664  0.4979
  543MOL0     H73260  10.254  10.684   7.911  0.9503 -1.5972 -1.9475
  543MOL0     H73261  10.272  10.775   8.131  3.7273  2.6359 -0.9270
  543MOL0     H73262  10.420  10.693   8.186 -0.0806  0.1453  1.0872
  543MOL0     H73263  10.250  10.577   8.292 -2.1130 -0.4073  0.0873
  543MOL0     H73264  10.310  10.477   8.160 -0.3635  0.5767 -3.0055
  543MOL0     H73265   9.952  10.754   8.110  0.5565 -3.5694 -3.1746
  543MOL0     H73266   9.776  10.812   8.285 -1.4973 -2.1049 -3.7905
  543MOL0     H73267   9.475  10.419   8.581  1.0926 -0.0459  0.3943
  543MOL0     H73268   9.263  10.465   8.725  0.6882 -3.4105  4.2928
  543MOL0     H73269   9.345  10.664   9.100  0.7532 -1.6269  1.2742
  543MOL0     H73270   9.198  10.742   9.029 -0.6809 -1.4376 -0.9413
  543MOL0     H73271   9.220  10.480   9.189  2.6207  2.4767 -0.5183
  543MOL0     H73272   9.132  10.615   9.251 -2.5137 -2.8518  0.9642
  543MOL0     H73273   9.013  10.589   9.017  0.3896 -1.7982 -1.4057
  543MOL0     H73274   9.055  10.410   9.048  0.4467 -0.1773  1.0677
  543MOL0     H73275   8.903  10.609   9.224  0.2804 -0.0339 -0.2580
  543MOL0     H73276   8.949  10.450   9.284 -0.7552 -0.2298  0.5563
  543MOL0     H73277   8.726  10.446   9.217 -0.9669 -1.0073 -1.7874
  543MOL0     H73278   8.811  10.327   9.125  0.6243 -0.3382  1.1547
  543MOL0     H73279   8.714  10.590   9.030 -1.5161 -0.8380  0.1668
  543MOL0     H73280   8.812  10.485   8.929  0.3652 -2.4005 -0.5368
  543MOL0     H73281   8.560  10.412   9.080  1.0156  1.5883  0.2697
  543MOL0     H73282   8.632  10.313   8.951 -2.0026  0.3942 -0.4458
  543MOL0     H73283   8.465  10.576   8.942 -1.2188  2.2346 -3.1932
  543MOL0     H73284   8.579  10.540   8.809  1.0071 -2.6164 -0.0773
  543MOL0     H73285   9.476  10.725   8.972 -1.8908 -0.4428 -0.0626
  543MOL0     H73286   9.684  10.694   8.820 -0.7428  3.2915  1.5448
  543MOL0     H73287   9.916  10.466   8.510  0.8348  1.2160  1.0979
  543MOL0     H73288  10.065  10.425   8.361  1.0893  1.9766  0.4994
  543MOL0     H73289  11.373  10.105   7.229  0.6014 -0.1173 -0.2342
  543MOL0     H73290  11.309  10.037   7.000 -0.5770  1.4285 -0.7763
  543MOL0     H73291  11.193   9.897   6.674  0.3283  0.9348 -0.9579
  543MOL0     H73292  11.196   9.841   6.454  0.7390  0.2271  1.7445
  543MOL0     H73293  10.783   9.853   6.246  1.6558 -0.5630  3.5671
  543MOL0     H73294  10.884   9.813   6.105 -2.2312  0.1541  0.2390
  543MOL0     H73295  10.843  10.085   6.229  0.7732 -0.7835 -0.1750
  543MOL0     H73296  10.772  10.022   6.089 -1.1451 -1.1000  2.1131
  543MOL0     H73297  11.075  10.049   6.075 -0.0407  0.7385  0.9060
  543MOL0     H73298  10.949  10.154   5.998  0.5344 -0.1720  0.6156
  543MOL0     H73299  11.025   9.863   5.955 -2.3296 -1.9543 -0.7326
  543MOL0     H73300  10.871   9.916   5.890 -1.0593 -1.0779  1.1821
  543MOL0     H73301  11.155  10.135   5.658  0.8894 -0.0760  1.7351
  543MOL0     H73302  10.788   9.976   6.420  1.6658  2.5603 -1.4586
  543MOL0     H73303  10.728   9.977   6.759  3.1153 -2.4487 -0.8300
  543MOL0     H73304  10.757  10.146   6.698  2.1900 -0.6871  1.0646
  543MOL0     H73305  10.654  10.022   6.607  1.3587 -3.6770 -2.3962
  544MOL0     O73306   3.461   7.849   3.387  0.3486  0.1273  0.8447
  544MOL0     C73307   3.517   7.745   3.403  0.4134 -0.0026  0.1755
  544MOL0     O73308   3.473   7.636   3.459  1.3490 -0.0650  0.0139
  544MOL0     C73309   3.336   7.624   3.459 -0.6315  0.2650 -0.7949
  544MOL0     C73310   3.264   7.620   3.574 -0.2475 -0.2318  0.3937
  544MOL0     C73311   3.126   7.604   3.572 -0.3395 -1.1736  0.3676
  544MOL0     C73312   3.064   7.598   3.447  1.0307 -0.4649 -0.3341
  544MOL0     O73313   2.926   7.568   3.452 -0.2016  0.4862 -0.7450
  544MOL0     C73314   2.880   7.449   3.389  0.3804 -0.5682 -0.2866
  544MOL0     C73315   2.793   7.499   3.274  0.5850  0.3126 -0.3404
  544MOL0     C73316   2.710   7.405   3.189  0.0076  0.7299  0.8272
  544MOL0     C73317   2.565   7.416   3.208 -0.0844  0.7182 -0.4487
  544MOL0     C73318   2.495   7.332   3.099 -0.2099 -0.6952 -0.1528
  544MOL0     C73319   2.350   7.361   3.101  0.3234 -0.1798 -0.5815
  544MOL0     C73320   2.269   7.253   3.014 -0.2803 -0.7243 -0.2988
  544MOL0     C73321   2.128   7.293   2.992  0.7522 -0.5838  0.3114
  544MOL0     N73322   2.073   7.210   2.893  0.0768  1.0634  0.8494
  544MOL0     C73323   2.078   7.070   2.887 -0.4264  0.1782 -0.3271
  544MOL0     C73324   2.028   7.041   2.773  0.3816 -0.0792 -0.1651
  544MOL0     C73325   2.025   6.893   2.726  0.6445  0.6793  0.4540
  544MOL0     C73326   1.885   6.841   2.749  0.4211  0.0117  1.1433
  544MOL0     C73327   1.870   6.704   2.705 -0.6918  0.7211 -0.2400
  544MOL0     C73328   1.852   6.685   2.553 -0.1775  0.0398  0.5290
  544MOL0     O73329   1.756   6.782   2.509 -0.4802  0.5079  0.6505
  544MOL0     C73330   1.717   6.784   2.378  0.6672 -1.7441 -0.2814
  544MOL0     C73331   1.791   6.738   2.263 -0.0816 -0.8527 -0.2675
  544MOL0     C73332   1.762   6.773   2.136  0.0980 -0.4583  0.4261
  544MOL0     C73333   1.653   6.852   2.106 -0.4915  0.5946  0.2433
  544MOL0     C73334   1.621   6.890   1.970 -0.3530  0.2778 -0.4548
  544MOL0     O73335   1.501   6.942   1.935 -0.5027  0.0219 -0.1476
  544MOL0     C73336   1.483   6.995   1.811  0.0760  0.1207  0.3595
  544MOL0     C73337   1.520   7.130   1.791 -0.1328 -0.3478  0.5211
  544MOL0     C73338   1.519   7.179   1.659 -0.8488 -0.2673  0.2229
  544MOL0     C73339   1.500   7.089   1.555  0.2803 -0.6276  0.6518
  544MOL0     O73340   1.506   7.128   1.420 -0.2608 -0.2088  0.0925
  544MOL0     C73341   1.469   7.261   1.396  0.4154 -0.3136  0.1567
  544MOL0     C73342   1.410   7.259   1.255 -0.3417 -0.2647  0.1711
  544MOL0     C73343   1.515   7.210   1.158  0.0278 -0.3777 -0.0333
  544MOL0     C73344   1.459   7.195   1.005  0.3762 -0.3358 -0.7776
  544MOL0     C73345   1.565   7.148   0.904 -0.4321 -0.0683 -0.2250
  544MOL0     C73346   1.688   7.240   0.874  0.5195  0.4801  0.0247
  544MOL0     C73347   1.662   7.389   0.844 -0.4705  1.3317  0.7972
  544MOL0     C73348   1.789   7.473   0.839  0.1013  0.8792 -0.4434
  544MOL0    Cl73349   1.875   7.410   0.693 -0.0484 -0.1619  0.1960
  544MOL0     C73350   1.472   6.954   1.582  0.2666 -1.1342 -0.1802
  544MOL0     C73351   1.448   6.909   1.715  0.5643  1.0815  0.0828
  544MOL0     O73352   1.717   6.876   1.902  0.3529  0.0149 -0.0264
  544MOL0     C73353   1.574   6.892   2.210 -0.2076 -0.3967  0.0928
  544MOL0     C73354   1.603   6.860   2.348  0.0032  0.2079 -0.8969
  544MOL0     N73355   1.999   7.155   2.697 -0.2756 -0.1998 -0.5670
  544MOL0     N73356   2.025   7.260   2.776  0.6204  0.3473  0.2571
  544MOL0     C73357   3.135   7.592   3.332 -0.3978  0.3585  0.1686
  544MOL0     C73358   3.270   7.605   3.338  0.1420  0.0321 -0.0517
  544MOL0     C73359   3.654   7.740   3.357 -0.0511  0.1757  0.6100
  544MOL0     C73360   3.745   7.846   3.376  0.3887  0.1156 -0.9798
  544MOL0     C73361   3.879   7.831   3.341  0.0459 -0.0503  0.9262
  544MOL0     C73362   3.927   7.724   3.271 -0.4740  0.9196  0.8532
  544MOL0     O73363   4.062   7.725   3.229 -0.2081  0.5026 -0.1511
  544MOL0     C73364   4.121   7.607   3.171 -0.4358  0.8034 -0.2799
  544MOL0     C73365   4.254   7.636   3.094 -0.0462 -0.3780  0.8074
  544MOL0     C73366   4.375   7.621   3.188 -0.4015  0.4106 -0.5911
  544MOL0     C73367   4.500   7.657   3.100  0.9347 -0.2142  0.1541
  544MOL0     C73368   4.501   7.806   3.077  1.1791 -0.6261 -0.1349
  544MOL0     C73369   4.496   7.925   3.060  0.6761 -0.5109  0.1534
  544MOL0     C73370   3.841   7.615   3.256 -0.0971 -0.0584 -0.3626
  544MOL0     C73371   3.708   7.615   3.301 -0.9346  0.3050  0.5361
  544MOL0     C73372   3.643   7.486   3.302  0.9331  0.0526  0.6518
  544MOL0     H73373   3.324   7.627   3.664  0.7706 -2.6176 -0.0546
  544MOL0     H73374   3.073   7.589   3.666 -0.0455 -3.0650  0.2770
  544MOL0     H73375   2.967   7.392   3.356 -0.0482 -2.5292  1.7079
  544MOL0     H73376   2.820   7.383   3.451 -1.0612  0.6565 -0.3177
  544MOL0     H73377   2.856   7.548   3.199  1.4577 -2.5806 -1.6351
  544MOL0     H73378   2.722   7.568   3.321 -0.3875 -1.4387  0.8769
  544MOL0     H73379   2.742   7.300   3.198  0.3061  0.8589  1.3495
  544MOL0     H73380   2.733   7.441   3.089 -2.6660 -0.1114 -0.1806
  544MOL0     H73381   2.526   7.382   3.305 -1.6387 -2.2746 -1.9704
  544MOL0     H73382   2.534   7.519   3.190 -2.2112 -0.0540 -1.5889
  544MOL0     H73383   2.528   7.363   2.999 -2.2148  1.6702 -0.1627
  544MOL0     H73384   2.528   7.232   3.131  4.5207  1.1308  1.7272
  544MOL0     H73385   2.320   7.368   3.206  1.4193 -0.7983 -0.2106
  544MOL0     H73386   2.330   7.461   3.063 -0.1393  0.4481  1.2043
  544MOL0     H73387   2.274   7.152   3.055  3.9605 -0.7732 -0.4433
  544MOL0     H73388   2.311   7.253   2.913 -1.5999 -0.3618 -0.8642
  544MOL0     H73389   2.074   7.267   3.084 -1.0394 -0.4807 -0.6552
  544MOL0     H73390   2.106   7.399   2.978  3.5313  0.0211  0.0308
  544MOL0     H73391   2.136   7.007   2.953 -0.6734  1.1707  0.8689
  544MOL0     H73392   2.059   6.873   2.623  0.5467 -3.4230  1.0335
  544MOL0     H73393   2.090   6.833   2.790  0.7365  0.9385  0.6034
  544MOL0     H73394   1.877   6.848   2.857  0.2312  0.4961  1.1003
  544MOL0     H73395   1.806   6.900   2.702  0.4857 -1.1819 -0.5966
  544MOL0     H73396   1.778   6.661   2.745  0.1293 -1.5145 -0.5708
  544MOL0     H73397   1.953   6.645   2.746 -2.3106 -1.6638 -0.2069
  544MOL0     H73398   1.822   6.581   2.539 -0.6415 -0.1067  2.2889
  544MOL0     H73399   1.955   6.696   2.517 -0.1965  3.1416  1.1475
  544MOL0     H73400   1.881   6.684   2.289 -0.4970 -2.4034 -1.8035
  544MOL0     H73401   1.832   6.730   2.065  1.0270 -0.2965  1.2276
  544MOL0     H73402   1.531   7.197   1.875  0.3123  1.5638 -0.9909
  544MOL0     H73403   1.538   7.284   1.644 -0.1900 -0.7515 -2.9655
  544MOL0     H73404   1.396   7.299   1.468  0.1577  1.3433 -0.9418
  544MOL0     H73405   1.556   7.327   1.389 -0.3648  0.5977 -1.2346
  544MOL0     H73406   1.322   7.195   1.262 -1.4395  1.2209  0.6161
  544MOL0     H73407   1.382   7.355   1.211 -0.1697  0.1757  0.9988
  544MOL0     H73408   1.599   7.281   1.161 -1.4280  1.3889  1.2224
  544MOL0     H73409   1.558   7.115   1.194 -1.6607 -1.3086 -0.3997
  544MOL0     H73410   1.391   7.279   0.982 -0.2809 -1.0816 -1.6361
  544MOL0     H73411   1.393   7.109   1.000 -1.6275  1.1425 -1.1889
  544MOL0     H73412   1.504   7.135   0.815 -1.6276 -2.0522  0.8221
  544MOL0     H73413   1.598   7.048   0.934  0.1854 -0.2630 -1.5127
  544MOL0     H73414   1.758   7.223   0.956 -1.4935 -1.0006  1.5550
  544MOL0     H73415   1.733   7.202   0.781  1.7330  4.9052 -1.4320
  544MOL0     H73416   1.598   7.429   0.923  0.0263  2.4170  0.6707
  544MOL0     H73417   1.596   7.396   0.757 -0.4074 -1.1463  0.4858
  544MOL0     H73418   1.762   7.578   0.823 -0.9672  0.7954  0.7213
  544MOL0     H73419   1.851   7.468   0.929  0.5174  0.9146 -0.7212
  544MOL0     H73420   1.444   6.902   1.490 -0.5201  1.5553 -1.5560
  544MOL0     H73421   1.427   6.803   1.726  0.3920  1.0570 -0.4256
  544MOL0     H73422   1.479   6.937   2.184 -0.4906 -1.8468 -1.5440
  544MOL0     H73423   1.525   6.889   2.419 -2.5948 -0.4341 -3.3066
  544MOL0     H73424   3.087   7.574   3.237  0.5540 -0.2741 -0.2032
  544MOL0     H73425   3.333   7.593   3.250 -0.6757  3.4126 -1.2167
  544MOL0     H73426   3.707   7.937   3.422  1.0082 -0.0795 -0.0541
  544MOL0     H73427   3.948   7.914   3.356  0.9738 -0.5681 -0.2911
  544MOL0     H73428   4.053   7.552   3.107  3.9843 -0.6735 -4.3080
  544MOL0     H73429   4.142   7.545   3.259  3.4710  1.7688 -0.3252
  544MOL0     H73430   4.245   7.731   3.042  1.9836 -1.1649 -1.1583
  544MOL0     H73431   4.266   7.564   3.013  0.7259 -2.1883  2.4517
  544MOL0     H73432   4.371   7.523   3.237  1.8497  1.6201  2.3120
  544MOL0     H73433   4.376   7.693   3.269  2.0052 -1.8977  1.6227
  544MOL0     H73434   4.594   7.646   3.156  1.4960  4.4597  0.5298
  544MOL0     H73435   4.504   7.606   3.003 -0.5585 -0.3887  0.1581
  544MOL0     H73436   4.515   8.028   3.039  0.3139 -0.6530 -0.9594
  544MOL0     H73437   3.884   7.524   3.216 -0.4137  0.5986 -2.3071
  544MOL0     H73438   3.693   7.413   3.238 -1.9320  0.7253 -2.6092
  544MOL0     H73439   3.634   7.435   3.399  0.2722 -1.6571 -0.2810
  544MOL0     H73440   3.543   7.496   3.259  1.4949  0.1086 -0.6871
  545MOL0     O73441   2.495   8.552   5.314 -1.0696 -0.6858  0.8841
  545MOL0     C73442   2.592   8.480   5.324  1.1059  0.7999  1.3322
  545MOL0     O73443   2.719   8.516   5.282 -0.0956  0.5078 -0.3109
  545MOL0     C73444   2.749   8.648   5.247 -0.0114  0.2839 -1.1808
  545MOL0     C73445   2.699   8.757   5.316  0.0889 -0.1937 -0.1132
  545MOL0     C73446   2.734   8.886   5.283 -0.4904 -0.0436 -0.4213
  545MOL0     C73447   2.817   8.910   5.174  0.2511  0.2556  0.3869
  545MOL0     O73448   2.855   9.035   5.129  0.2621  0.4423  0.5669
  545MOL0     C73449   2.845   9.137   5.228  0.2216 -0.3221  0.1527
  545MOL0     C73450   2.913   9.267   5.156  0.3569 -0.5764  0.3025
  545MOL0     C73451   3.065   9.271   5.159 -0.7800 -0.2776 -0.4868
  545MOL0     C73452   3.141   9.226   5.034  0.2955  0.1305  0.0557
  545MOL0     C73453   3.292   9.250   5.030 -0.4406 -0.7573 -0.1740
  545MOL0     C73454   3.361   9.148   5.112 -0.1370 -0.8711 -0.5424
  545MOL0     C73455   3.508   9.133   5.075  0.0736  0.1025 -0.1996
  545MOL0     C73456   3.539   9.050   4.956 -0.5529 -0.1302 -0.0872
  545MOL0     N73457   3.684   9.018   4.952 -0.2056  0.4523  0.6016
  545MOL0     C73458   3.756   8.904   4.983 -0.4309  0.2974  0.7376
  545MOL0     C73459   3.883   8.927   4.950 -0.4107  0.1372  0.5431
  545MOL0     C73460   4.003   8.831   4.974 -0.0720  0.2824  0.4121
  545MOL0     C73461   4.057   8.857   5.117  0.5275 -0.2268 -0.0208
  545MOL0     C73462   4.170   8.767   5.156  0.1500  0.2599 -0.8629
  545MOL0     C73463   4.259   8.730   5.041  0.7437 -0.6262  0.2114
  545MOL0     O73464   4.350   8.626   5.092 -0.5936 -0.7119 -0.7561
  545MOL0     C73465   4.444   8.568   5.018  0.1977 -0.1231 -0.1921
  545MOL0     C73466   4.514   8.634   4.919  0.2995  0.1632  0.1939
  545MOL0     C73467   4.611   8.555   4.844  0.0201  0.7087  0.5683
  545MOL0     C73468   4.627   8.413   4.860  0.3213  0.0876 -0.4197
  545MOL0     C73469   4.725   8.334   4.796 -0.7747 -0.6571  0.2834
  545MOL0     O73470   4.725   8.196   4.826 -0.0936 -0.6296 -0.1134
  545MOL0     C73471   4.799   8.101   4.762 -0.2840 -0.5268  0.1162
  545MOL0     C73472   4.785   7.976   4.816  0.1443  0.0215  0.0648
  545MOL0     C73473   4.851   7.872   4.745  0.6865  0.6439  0.3443
  545MOL0     C73474   4.940   7.886   4.637 -0.5425 -1.0121  0.0658
  545MOL0     O73475   5.012   7.778   4.587  0.3979  0.6344 -0.1282
  545MOL0     C73476   5.057   7.778   4.453 -0.4849  0.6578  0.6204
  545MOL0     C73477   5.212   7.807   4.442  0.9288 -0.0335 -0.7331
  545MOL0     C73478   5.290   7.668   4.451  0.5971 -0.0591 -0.2059
  545MOL0     C73479   5.439   7.677   4.421 -0.3931 -0.1452 -0.3569
  545MOL0     C73480   5.530   7.627   4.533 -1.5896 -0.0384  0.5245
  545MOL0     C73481   5.678   7.639   4.490 -0.1443 -0.2754  1.2985
  545MOL0     C73482   5.780   7.568   4.578  0.4661 -0.1599  0.1568
  545MOL0     C73483   5.840   7.654   4.689  0.5625 -0.0321  0.6834
  545MOL0    Cl73484   5.866   7.553   4.835 -0.8057  0.1983 -0.4565
  545MOL0     C73485   4.955   8.020   4.591  0.3680 -0.2284  0.2248
  545MOL0     C73486   4.880   8.125   4.643 -0.8386  0.1003  0.5659
  545MOL0     O73487   4.790   8.398   4.715  0.1079 -0.4835 -0.1350
  545MOL0     C73488   4.555   8.355   4.969  0.5985  0.1665 -0.4013
  545MOL0     C73489   4.472   8.433   5.051 -0.2354 -0.5551  0.4960
  545MOL0     N73490   3.881   9.046   4.873  0.5649  0.2042  0.4683
  545MOL0     N73491   3.763   9.097   4.874 -1.0471 -1.2124 -0.0670
  545MOL0     C73492   2.868   8.801   5.100 -0.9831  0.4352 -0.3204
  545MOL0     C73493   2.831   8.671   5.137  0.1403  0.0858 -0.5229
  545MOL0     C73494   2.577   8.342   5.370 -0.8329 -0.2788  1.3012
  545MOL0     C73495   2.647   8.237   5.302  0.4077 -0.0187 -0.2590
  545MOL0     C73496   2.615   8.101   5.332 -1.5164  1.2940 -0.2581
  545MOL0     C73497   2.532   8.064   5.427 -0.5797 -0.7369 -0.2349
  545MOL0     O73498   2.523   7.934   5.450  0.2675  0.4030 -0.7532
  545MOL0     C73499   2.468   7.889   5.577 -0.6835  0.6662  0.8820
  545MOL0     C73500   2.511   7.744   5.605  0.4645 -0.1203 -0.6543
  545MOL0     C73501   2.469   7.637   5.501 -0.4271  0.3394  0.1124
  545MOL0     C73502   2.314   7.618   5.487 -0.4044 -0.4034 -0.4222
  545MOL0     C73503   2.307   7.499   5.398 -0.5072  0.0675 -0.3923
  545MOL0     C73504   2.287   7.406   5.334  0.9189  0.4722  0.1819
  545MOL0     C73505   2.466   8.169   5.490  0.2192 -0.2281 -0.8528
  545MOL0     C73506   2.483   8.303   5.466  0.7793  0.2809 -0.1537
  545MOL0     C73507   2.396   8.393   5.536  0.3073 -0.6705  0.5186
  545MOL0     H73508   2.627   8.754   5.398 -1.0395  1.0715 -1.0286
  545MOL0     H73509   2.692   8.969   5.338 -1.0669 -1.0317  0.6865
  545MOL0     H73510   2.744   9.172   5.252  1.2933  3.1908  0.1351
  545MOL0     H73511   2.904   9.116   5.317  3.3754 -2.1634 -2.1894
  545MOL0     H73512   2.887   9.359   5.210  0.6606 -0.4681  0.2648
  545MOL0     H73513   2.872   9.274   5.055  0.6705 -0.3825  0.1877
  545MOL0     H73514   3.093   9.212   5.247  1.2915  0.1089 -0.8257
  545MOL0     H73515   3.093   9.376   5.172  1.5674 -0.4030 -3.4264
  545MOL0     H73516   3.116   9.121   5.020 -0.2034  0.3293 -0.6034
  545MOL0     H73517   3.091   9.282   4.954 -1.1957  1.1875  1.6611
  545MOL0     H73518   3.329   9.254   4.927  1.2901  3.4147  0.4041
  545MOL0     H73519   3.317   9.349   5.071 -2.7583 -0.3186  0.3250
  545MOL0     H73520   3.339   9.184   5.213  2.2630  0.3234 -0.3755
  545MOL0     H73521   3.313   9.050   5.102 -2.5288  0.0494  1.2294
  545MOL0     H73522   3.545   9.076   5.160  0.0666  0.4535  0.0376
  545MOL0     H73523   3.549   9.234   5.072 -3.6223  1.7714 -1.9248
  545MOL0     H73524   3.482   8.958   4.964  0.1179 -0.4300  2.0221
  545MOL0     H73525   3.510   9.117   4.874 -1.8171 -2.3874 -1.5907
  545MOL0     H73526   3.709   8.810   5.010 -0.1640 -0.9336 -2.6871
  545MOL0     H73527   3.974   8.726   4.958  1.0769  0.2502 -2.0403
  545MOL0     H73528   4.080   8.869   4.906  1.4469  1.2292  2.5352
  545MOL0     H73529   4.093   8.960   5.120  0.2430 -0.0929  3.7835
  545MOL0     H73530   3.980   8.839   5.192  2.0230 -2.4921  1.0919
  545MOL0     H73531   4.114   8.686   5.204 -2.5304  1.8830 -1.0773
  545MOL0     H73532   4.239   8.816   5.225 -1.9554  1.8901  0.1967
  545MOL0     H73533   4.309   8.822   5.011 -0.4943  0.3864  1.1428
  545MOL0     H73534   4.196   8.694   4.958  0.4792  1.3458 -0.5044
  545MOL0     H73535   4.502   8.740   4.901 -1.4571 -0.1765 -0.8274
  545MOL0     H73536   4.667   8.594   4.760 -0.1781 -0.5860 -0.1864
  545MOL0     H73537   4.703   7.959   4.886  0.8457 -0.2914  0.8295
  545MOL0     H73538   4.841   7.770   4.778 -3.9625 -0.0221 -2.2747
  545MOL0     H73539   5.048   7.679   4.406  1.9881  2.0217 -3.2054
  545MOL0     H73540   4.998   7.852   4.398 -1.5733  2.3445  3.8251
  545MOL0     H73541   5.220   7.858   4.345  1.6726  1.7699  0.2393
  545MOL0     H73542   5.228   7.879   4.522  1.1043 -2.5722  1.6698
  545MOL0     H73543   5.287   7.616   4.547  2.9215 -1.6280 -0.8965
  545MOL0     H73544   5.255   7.583   4.391 -0.4526 -1.0468  1.7185
  545MOL0     H73545   5.446   7.785   4.404 -0.1738  0.3249  2.3477
  545MOL0     H73546   5.466   7.624   4.329  3.1128  0.8919 -0.0606
  545MOL0     H73547   5.508   7.524   4.560 -0.4560 -0.3573  0.2722
  545MOL0     H73548   5.510   7.685   4.624  3.1434  2.3794  0.3487
  545MOL0     H73549   5.679   7.593   4.391  1.1493  0.6263  0.8591
  545MOL0     H73550   5.710   7.742   4.473  2.0086 -0.9456  0.9620
  545MOL0     H73551   5.859   7.536   4.511 -1.3706 -1.6064 -1.4240
  545MOL0     H73552   5.726   7.483   4.619 -5.0195  2.9971  0.5208
  545MOL0     H73553   5.931   7.708   4.661  1.0712 -0.6378  1.1389
  545MOL0     H73554   5.762   7.725   4.718 -0.8754 -2.8668  4.5662
  545MOL0     H73555   5.015   8.038   4.502 -1.1501  3.9595 -0.1805
  545MOL0     H73556   4.875   8.214   4.581 -1.6990 -0.5080 -0.2801
  545MOL0     H73557   4.562   8.252   5.002  0.1945  0.8125  1.8886
  545MOL0     H73558   4.433   8.385   5.141 -0.4383 -1.1427  0.1030
  545MOL0     H73559   2.935   8.833   5.021  0.0644  0.3773  0.5302
  545MOL0     H73560   2.868   8.598   5.066  0.4581  1.6357 -2.0335
  545MOL0     H73561   2.720   8.273   5.230 -0.5859  1.2256 -0.6787
  545MOL0     H73562   2.683   8.037   5.276  0.4557 -0.0930  3.3493
  545MOL0     H73563   2.361   7.909   5.577 -0.9119  0.3806 -3.3665
  545MOL0     H73564   2.520   7.942   5.657  1.4449 -1.3016  0.9297
  545MOL0     H73565   2.464   7.720   5.700 -0.7766  1.1229 -0.9176
  545MOL0     H73566   2.618   7.743   5.627  0.5437 -3.2671 -0.7460
  545MOL0     H73567   2.527   7.549   5.532  0.9679  1.4303  0.6814
  545MOL0     H73568   2.519   7.668   5.409  3.7577 -2.1555  1.2371
  545MOL0     H73569   2.280   7.607   5.590 -1.1635  1.7893 -0.3739
  545MOL0     H73570   2.255   7.702   5.448 -1.6104 -0.5812  0.9579
  545MOL0     H73571   2.277   7.320   5.271  4.1480  1.9607 -2.7047
  545MOL0     H73572   2.392   8.139   5.564 -0.2389  0.1968 -1.1227
  545MOL0     H73573   2.343   8.453   5.462 -2.6953 -1.4756  1.8668
  545MOL0     H73574   2.309   8.346   5.582  0.3626 -0.1257  1.1967
  545MOL0     H73575   2.462   8.437   5.611  2.0729  0.2545 -1.4595
  546MOL0     O73576   1.903   6.154   0.856 -0.5177 -0.9508 -0.6255
  546MOL0     C73577   1.879   6.096   0.961  0.8621  0.3994 -0.7873
  546MOL0     O73578   1.901   5.959   0.979  0.4530  0.5958 -0.2721
  546MOL0     C73579   1.878   5.878   0.870  0.1097  0.0465 -0.1877
  546MOL0     C73580   1.970   5.781   0.827 -1.2507 -0.3626  0.3804
  546MOL0     C73581   1.945   5.697   0.717 -0.0156 -0.3468  0.0043
  546MOL0     C73582   1.829   5.716   0.638  0.1882  0.1976 -0.0871
  546MOL0     O73583   1.791   5.647   0.523  0.2082  0.2281 -0.3879
  546MOL0     C73584   1.844   5.521   0.487 -0.0112  0.6401  0.3584
  546MOL0     C73585   1.744   5.405   0.505 -0.1705  0.1125 -0.0796
  546MOL0     C73586   1.615   5.404   0.421  0.5090  0.0572 -0.0171
  546MOL0     C73587   1.646   5.390   0.270 -0.1642 -0.4814  0.1591
  546MOL0     C73588   1.531   5.350   0.176  0.8055 -1.5003  0.9674
  546MOL0     C73589   1.562   5.404   0.030  0.3711  0.3913  0.0667
  546MOL0     C73590   1.699   5.353  -0.041 -0.2117  0.0418  0.3186
  546MOL0     C73591   1.703   5.202  -0.047  0.5282  0.9848 -1.0740
  546MOL0     N73592   1.587   5.133  -0.114 -0.0195 -0.0140  0.6595
  546MOL0     C73593   1.530   5.162  -0.237  0.3569 -0.6214 -1.0708
  546MOL0     C73594   1.422   5.086  -0.246  0.4003  0.2250  0.2396
  546MOL0     C73595   1.335   5.094  -0.368  0.3870  0.8198  0.4600
  546MOL0     C73596   1.249   4.973  -0.363  0.7014  0.1078 -0.1507
  546MOL0     C73597   1.147   4.965  -0.482  0.2849  0.1760  0.6130
  546MOL0     C73598   1.026   4.876  -0.458 -0.6070  0.0183  0.0735
  546MOL0     O73599   1.054   4.742  -0.411 -0.0607  1.1904 -0.1362
  546MOL0     C73600   0.955   4.644  -0.389 -0.2749  0.0598  0.7454
  546MOL0     C73601   0.815   4.664  -0.381 -0.7082 -0.8466 -0.4706
  546MOL0     C73602   0.733   4.562  -0.333 -0.3067 -0.2998 -0.5343
  546MOL0     C73603   0.778   4.435  -0.317  0.2158  0.3283 -0.2062
  546MOL0     C73604   0.691   4.342  -0.263  0.0113  0.2606 -0.6467
  546MOL0     O73605   0.562   4.391  -0.213  1.1243 -0.5948 -0.4292
  546MOL0     C73606   0.480   4.314  -0.133 -0.0094  0.1105 -0.3932
  546MOL0     C73607   0.421   4.201  -0.192 -0.9142  0.8852 -0.1172
  546MOL0     C73608   0.332   4.127  -0.124  0.6675 -0.0019  1.3542
  546MOL0     C73609   0.277   4.169  -0.009  0.0293 -0.7798  0.4293
  546MOL0     O73610   0.164   4.097   0.034 -0.0909  0.0264  0.1894
  546MOL0     C73611   0.072   4.181   0.110  0.0245 -0.1714 -1.5513
  546MOL0     C73612  -0.051   4.114   0.164 -0.0899 -0.0635 -0.7193
  546MOL0     C73613  -0.164   4.100   0.055  0.1203 -0.0908 -0.8209
  546MOL0     C73614  -0.139   3.983  -0.046 -0.2973 -0.0337 -1.0748
  546MOL0     C73615  -0.237   3.983  -0.150  1.2987  0.1200  1.1489
  546MOL0     C73616  -0.222   3.863  -0.248 -0.0396  0.0784  0.0204
  546MOL0     C73617  -0.312   3.887  -0.364 -0.3251  0.1374  0.1596
  546MOL0     C73618  -0.301   3.790  -0.482 -0.4904  0.5049 -0.1189
  546MOL0    Cl73619  -0.415   3.845  -0.599 -0.2049 -0.0350  0.2425
  546MOL0     C73620   0.331   4.284   0.055  0.1176  0.0415 -0.5195
  546MOL0     C73621   0.428   4.355  -0.009 -0.2033  0.3053  0.9927
  546MOL0     O73622   0.728   4.223  -0.252 -0.5811 -0.4332  0.3504
  546MOL0     C73623   0.915   4.411  -0.342  0.3378  0.4833 -0.3633
  546MOL0     C73624   1.002   4.517  -0.366 -0.3485  0.1755 -0.4665
  546MOL0     N73625   1.429   5.003  -0.134 -0.6930  0.1737  0.3133
  546MOL0     N73626   1.530   5.022  -0.058 -0.2147 -0.0939 -0.5211
  546MOL0     C73627   1.732   5.813   0.691  0.3989  0.2659 -0.1571
  546MOL0     C73628   1.756   5.890   0.801 -0.0890  0.0321 -0.3292
  546MOL0     C73629   1.844   6.178   1.076 -0.0256 -0.0654 -1.2292
  546MOL0     C73630   1.887   6.132   1.204  0.7182 -0.6690 -0.0878
  546MOL0     C73631   1.873   6.203   1.324  0.1098  0.0109  0.1092
  546MOL0     C73632   1.804   6.318   1.323  0.4109 -0.7003  0.2771
  546MOL0     O73633   1.764   6.396   1.431 -0.5983 -0.3966 -0.7189
  546MOL0     C73634   1.817   6.353   1.561 -0.0543 -0.7300  0.6305
  546MOL0     C73635   1.719   6.426   1.664  0.2779  0.3639  0.8588
  546MOL0     C73636   1.782   6.423   1.815  0.2232 -0.7502  1.1851
  546MOL0     C73637   1.666   6.440   1.918 -0.0749  0.0732  0.6423
  546MOL0     C73638   1.707   6.374   2.048  0.0010 -0.3174 -0.6793
  546MOL0     C73639   1.732   6.329   2.160  0.1927 -0.7374 -0.0400
  546MOL0     C73640   1.746   6.363   1.205 -0.4079 -0.3860  0.2414
  546MOL0     C73641   1.770   6.298   1.079 -0.4057  0.1196 -0.0782
  546MOL0     C73642   1.698   6.345   0.951  0.2983 -0.2101  0.5372
  546MOL0     H73643   2.060   5.773   0.887  0.5085 -1.2001 -2.1947
  546MOL0     H73644   2.017   5.617   0.702  2.1670  1.7577 -1.3837
  546MOL0     H73645   1.888   5.543   0.389  0.6370  0.4445  0.6014
  546MOL0     H73646   1.927   5.503   0.556 -0.0599 -1.3553 -0.0580
  546MOL0     H73647   1.722   5.412   0.612  0.6859  2.2418  0.0091
  546MOL0     H73648   1.793   5.309   0.490  1.1207  0.5978  0.8678
  546MOL0     H73649   1.566   5.498   0.447 -0.4274  0.2914 -2.3752
  546MOL0     H73650   1.544   5.323   0.440 -1.1468  1.3517 -0.4416
  546MOL0     H73651   1.703   5.479   0.244 -1.5084  1.3571  3.0339
  546MOL0     H73652   1.717   5.307   0.259 -0.4833 -0.7569  0.1763
  546MOL0     H73653   1.506   5.244   0.186  1.0411 -1.7792 -0.9792
  546MOL0     H73654   1.434   5.394   0.203 -1.3750 -1.4360 -5.2494
  546MOL0     H73655   1.474   5.387  -0.033  1.8623  0.0609 -2.0027
  546MOL0     H73656   1.563   5.513   0.041  1.0478  0.4299 -0.3524
  546MOL0     H73657   1.791   5.388   0.006  0.7736 -1.8248 -0.1368
  546MOL0     H73658   1.697   5.399  -0.140  2.4581 -1.3728 -0.4813
  546MOL0     H73659   1.794   5.170  -0.099  1.7108 -0.0911  1.4704
  546MOL0     H73660   1.702   5.167   0.057  0.2881  2.7050 -0.4686
  546MOL0     H73661   1.564   5.226  -0.317 -0.1229  0.7381 -0.2225
  546MOL0     H73662   1.277   5.187  -0.373 -1.2584 -0.1414  1.0559
  546MOL0     H73663   1.396   5.093  -0.459  2.5755 -0.3308  1.8685
  546MOL0     H73664   1.321   4.890  -0.370  2.1229  0.9889  2.6876
  546MOL0     H73665   1.182   4.965  -0.277 -1.4706  2.7830 -1.4540
  546MOL0     H73666   1.201   4.922  -0.567 -1.5684  0.3227 -0.7021
  546MOL0     H73667   1.114   5.066  -0.510 -2.5299 -0.6669  0.6229
  546MOL0     H73668   0.971   4.872  -0.552  0.9311 -0.5161 -0.8236
  546MOL0     H73669   0.964   4.923  -0.380  0.3892  0.5498  0.5631
  546MOL0     H73670   0.774   4.760  -0.411 -1.6278 -1.5927 -1.6982
  546MOL0     H73671   0.628   4.588  -0.323  0.6545  4.6496 -0.8807
  546MOL0     H73672   0.461   4.172  -0.288 -1.0719 -0.9181  0.3219
  546MOL0     H73673   0.291   4.037  -0.168  1.8547 -0.8525  1.9493
  546MOL0     H73674   0.124   4.218   0.199  0.4316  3.0228 -2.9771
  546MOL0     H73675   0.038   4.267   0.051  0.0270  1.6171  0.9168
  546MOL0     H73676  -0.027   4.019   0.213 -0.2042 -0.6407 -1.7642
  546MOL0     H73677  -0.086   4.180   0.244 -1.1320  0.0617 -1.2584
  546MOL0     H73678  -0.266   4.082   0.088  0.2274  2.1652  0.9857
  546MOL0     H73679  -0.171   4.193  -0.003 -1.2479  0.9899  0.9938
  546MOL0     H73680  -0.162   3.894   0.012 -1.4303  0.1336 -1.2493
  546MOL0     H73681  -0.039   3.954  -0.080 -0.9682 -0.4304 -2.8099
  546MOL0     H73682  -0.229   4.080  -0.199 -3.5010  0.0982 -0.2048
  546MOL0     H73683  -0.335   3.979  -0.102 -0.8411  4.1754 -2.2512
  546MOL0     H73684  -0.118   3.856  -0.283  0.3517 -0.5263  1.2365
  546MOL0     H73685  -0.247   3.778  -0.184 -1.4147  1.1973  1.0547
  546MOL0     H73686  -0.288   3.984  -0.408 -0.1186  0.2896  0.6007
  546MOL0     H73687  -0.417   3.901  -0.336 -0.9088  2.8760 -2.8063
  546MOL0     H73688  -0.202   3.786  -0.529  0.3544  0.1642  1.6245
  546MOL0     H73689  -0.323   3.690  -0.443 -1.2498  0.3018 -1.0308
  546MOL0     H73690   0.294   4.306   0.155  4.0762 -0.5783  1.2706
  546MOL0     H73691   0.466   4.441   0.045  1.2827  0.5598 -0.4007
  546MOL0     H73692   0.942   4.307  -0.328 -0.3331  0.0408 -2.1296
  546MOL0     H73693   1.110   4.505  -0.361 -0.2773  0.7252 -0.6238
  546MOL0     H73694   1.638   5.819   0.638  0.0675 -1.4151  0.1699
  546MOL0     H73695   1.674   5.949   0.840 -0.3062 -1.1545  1.0854
  546MOL0     H73696   1.946   6.041   1.215  0.5079 -0.7766  0.1690
  546MOL0     H73697   1.917   6.169   1.418 -1.4345  2.4614  1.8158
  546MOL0     H73698   1.920   6.390   1.573  0.3570 -0.5210 -2.7056
  546MOL0     H73699   1.819   6.245   1.575  0.4263 -0.7058  0.7624
  546MOL0     H73700   1.630   6.362   1.670  0.6035 -0.5816 -2.4496
  546MOL0     H73701   1.705   6.527   1.625 -0.7405 -0.1691 -0.2130
  546MOL0     H73702   1.861   6.498   1.826 -1.0074  0.7993  0.0386
  546MOL0     H73703   1.819   6.324   1.839 -0.2361 -0.3760  3.7924
  546MOL0     H73704   1.659   6.548   1.932  0.8492  0.0528  1.3594
  546MOL0     H73705   1.567   6.409   1.882  0.3616 -0.8675  0.2298
  546MOL0     H73706   1.743   6.303   2.263  0.2827  2.0912  0.7431
  546MOL0     H73707   1.686   6.453   1.210  1.1664  0.6940  0.4263
  546MOL0     H73708   1.634   6.265   0.912 -6.4741  4.0925  1.2501
  546MOL0     H73709   1.641   6.431   0.984  0.2538  0.4235 -1.0820
  546MOL0     H73710   1.768   6.399   0.886 -1.1172  4.1206  2.2568
  547MOL0     O73711   8.862   7.298   2.083  0.4767 -0.1538  0.2146
  547MOL0     C73712   8.746   7.254   2.108 -0.3808 -0.3610  0.5590
  547MOL0     O73713   8.689   7.152   2.044  0.1456  0.3653 -1.3425
  547MOL0     C73714   8.746   7.075   1.950 -0.3538 -0.2891  1.0128
  547MOL0     C73715   8.650   7.008   1.867 -0.1371 -0.2943 -0.0476
  547MOL0     C73716   8.694   6.949   1.750 -0.1377  0.1894  0.0084
  547MOL0     C73717   8.837   6.942   1.714 -0.0811 -1.2483  0.4324
  547MOL0     O73718   8.872   6.891   1.596  0.2446 -0.3855  0.5378
  547MOL0     C73719   8.775   6.837   1.504 -0.7900  0.1221  0.6252
  547MOL0     C73720   8.842   6.774   1.377  0.3691  0.1281  0.7995
  547MOL0     C73721   8.746   6.672   1.314 -0.6725 -0.0283  0.3316
  547MOL0     C73722   8.817   6.602   1.204  0.2249 -0.1545  0.6157
  547MOL0     C73723   8.931   6.511   1.236  0.0400  0.6360 -0.0079
  547MOL0     C73724   8.887   6.399   1.332  0.1214 -0.0140 -1.5374
  547MOL0     C73725   8.779   6.298   1.281 -1.3459  0.9158  0.2616
  547MOL0     C73726   8.726   6.203   1.399 -0.1490  0.2606  0.1305
  547MOL0     N73727   8.838   6.120   1.464  0.2572 -0.6724 -0.1843
  547MOL0     C73728   8.875   5.990   1.422 -0.2047 -0.2660 -0.3819
  547MOL0     C73729   8.939   5.935   1.526  0.0703  0.2154 -0.3478
  547MOL0     C73730   8.983   5.791   1.531 -1.0944  0.7686 -0.3646
  547MOL0     C73731   9.132   5.791   1.500  0.7613 -0.8558 -0.0456
  547MOL0     C73732   9.200   5.659   1.570  0.2069  0.0154 -0.1884
  547MOL0     C73733   9.197   5.538   1.486  0.5733 -0.0242  0.8665
  547MOL0     O73734   9.233   5.433   1.574 -0.0864  0.2886  0.5711
  547MOL0     C73735   9.240   5.303   1.521  1.0799 -0.4984  0.2221
  547MOL0     C73736   9.218   5.271   1.395 -0.1509 -0.5455  0.4188
  547MOL0     C73737   9.236   5.138   1.361 -0.2718  0.2908 -0.1940
  547MOL0     C73738   9.274   5.036   1.445 -0.4565 -0.6608  0.4392
  547MOL0     C73739   9.304   4.893   1.405 -0.6061 -0.0724 -0.1930
  547MOL0     O73740   9.341   4.868   1.279  0.1379 -0.7004  0.2594
  547MOL0     C73741   9.390   4.755   1.226 -0.3901  0.1546 -0.2077
  547MOL0     C73742   9.446   4.643   1.293 -0.2596  0.2571 -0.0810
  547MOL0     C73743   9.509   4.540   1.225  0.2853 -0.2001  0.8806
  547MOL0     C73744   9.509   4.545   1.085  1.4721 -0.1558  0.4175
  547MOL0     O73745   9.559   4.445   1.014 -0.5259  0.6338 -0.5634
  547MOL0     C73746   9.708   4.434   1.032 -0.4581 -0.7702  0.0572
  547MOL0     C73747   9.730   4.296   1.084  0.0969  0.2410  0.4088
  547MOL0     C73748   9.884   4.291   1.133  0.9029 -0.2017 -0.1580
  547MOL0     C73749   9.915   4.163   1.192  1.0087  1.0686  0.1925
  547MOL0     C73750  10.063   4.168   1.224 -0.3991  0.4503 -0.0412
  547MOL0     C73751  10.098   4.234   1.363  0.4321  0.3630  0.8893
  547MOL0     C73752  10.240   4.219   1.413  0.2173  0.5872 -0.8923
  547MOL0     C73753  10.252   4.207   1.559  0.5857  0.2058 -0.3050
  547MOL0    Cl73754  10.147   4.330   1.636  0.2102  0.0114 -0.1210
  547MOL0     C73755   9.444   4.645   1.015 -0.6520 -0.2331 -0.2630
  547MOL0     C73756   9.392   4.750   1.086 -0.5317 -0.6535 -0.5393
  547MOL0     O73757   9.310   4.816   1.495 -0.2742  1.1908 -0.4832
  547MOL0     C73758   9.284   5.072   1.573 -0.5269  0.3198  0.1828
  547MOL0     C73759   9.268   5.207   1.619  0.0408  0.9522  0.7055
  547MOL0     N73760   8.932   6.019   1.632  0.8255  0.4019 -0.7834
  547MOL0     N73761   8.863   6.124   1.598  0.1611  0.1634  1.3143
  547MOL0     C73762   8.924   6.999   1.813  0.1210 -0.3453 -1.0707
  547MOL0     C73763   8.883   7.067   1.920 -0.5897 -0.2696 -0.4314
  547MOL0     C73764   8.666   7.322   2.207  0.5263 -0.0891 -0.5158
  547MOL0     C73765   8.671   7.470   2.211 -0.2076  1.3933 -0.2439
  547MOL0     C73766   8.577   7.548   2.280 -0.0536  0.0202 -0.0875
  547MOL0     C73767   8.469   7.479   2.347 -1.0493 -0.8743 -0.8594
  547MOL0     O73768   8.364   7.548   2.417  0.0310 -0.1273 -0.1392
  547MOL0     C73769   8.337   7.683   2.380  0.5000  0.1937 -0.2187
  547MOL0     C73770   8.190   7.704   2.419  0.3969  0.5972  1.0221
  547MOL0     C73771   8.080   7.648   2.330  0.0973 -1.0632  0.2179
  547MOL0     C73772   8.090   7.514   2.262 -1.0008 -0.0265  0.2997
  547MOL0     C73773   8.075   7.390   2.342  0.0164 -0.8161  0.0533
  547MOL0     C73774   8.075   7.301   2.426  0.8131 -0.6716 -0.0218
  547MOL0     C73775   8.466   7.341   2.349 -0.2265  0.4413  0.0699
  547MOL0     C73776   8.570   7.260   2.296 -0.7251 -0.0262  0.4975
  547MOL0     C73777   8.566   7.114   2.328 -0.5855  0.1972  0.2834
  547MOL0     H73778   8.546   7.003   1.898 -0.7452  1.9610 -1.4982
  547MOL0     H73779   8.623   6.902   1.683  1.1452 -0.8858 -0.6387
  547MOL0     H73780   8.717   6.757   1.549 -0.5032 -1.1416 -1.1364
  547MOL0     H73781   8.700   6.909   1.470 -0.4429 -0.0699 -0.6030
  547MOL0     H73782   8.930   6.723   1.417  0.7944  0.5185  0.3616
  547MOL0     H73783   8.861   6.849   1.300  0.7661 -0.6538  0.1188
  547MOL0     H73784   8.671   6.735   1.266  0.7491  2.3014  0.9934
  547MOL0     H73785   8.706   6.601   1.386  0.3752 -1.7771 -0.7386
  547MOL0     H73786   8.739   6.550   1.148  1.3647  0.0997 -1.3201
  547MOL0     H73787   8.852   6.678   1.133  1.7366 -0.5922  0.8554
  547MOL0     H73788   8.969   6.462   1.145  1.2992 -0.9542  1.2891
  547MOL0     H73789   9.020   6.562   1.275  1.1938  1.6759 -3.6389
  547MOL0     H73790   8.979   6.345   1.354  0.1864  0.8441  0.5444
  547MOL0     H73791   8.853   6.446   1.425 -2.3699 -2.2591 -1.1934
  547MOL0     H73792   8.821   6.232   1.205  1.6746  1.5332  1.2606
  547MOL0     H73793   8.696   6.360   1.245 -1.9234 -0.4811 -0.8863
  547MOL0     H73794   8.675   6.271   1.468  0.7961  1.9736 -0.7835
  547MOL0     H73795   8.656   6.127   1.363  1.4886 -1.7791  1.0377
  547MOL0     H73796   8.846   5.956   1.323 -1.5163 -0.3133 -0.0085
  547MOL0     H73797   8.959   5.765   1.635 -0.8890  1.1025 -0.2301
  547MOL0     H73798   8.922   5.725   1.469  0.4907 -0.2932 -0.8528
  547MOL0     H73799   9.145   5.793   1.392 -0.5234  1.3003 -0.2111
  547MOL0     H73800   9.181   5.880   1.542  3.6119 -1.4610 -1.8538
  547MOL0     H73801   9.154   5.636   1.666 -0.3565  1.9819  0.0663
  547MOL0     H73802   9.302   5.681   1.603 -0.7337  0.1397  2.9158
  547MOL0     H73803   9.272   5.550   1.407 -0.3583  1.3230  0.1597
  547MOL0     H73804   9.098   5.526   1.441  0.1423  1.1637  1.4741
  547MOL0     H73805   9.193   5.329   1.307 -1.4756 -1.9502 -0.1799
  547MOL0     H73806   9.216   5.123   1.256  0.3034  2.4557 -0.6430
  547MOL0     H73807   9.453   4.638   1.401 -0.5815 -1.2111 -0.1023
  547MOL0     H73808   9.556   4.461   1.281  3.3257 -0.0786 -1.2546
  547MOL0     H73809   9.755   4.444   0.934  0.3150 -0.1814  0.4808
  547MOL0     H73810   9.743   4.510   1.102 -1.1241 -0.8367  0.4764
  547MOL0     H73811   9.665   4.273   1.169 -0.7074 -0.8638 -0.4723
  547MOL0     H73812   9.721   4.221   1.005  1.8970  0.7994 -0.3861
  547MOL0     H73813   9.955   4.307   1.052  2.0994 -1.5574  0.5711
  547MOL0     H73814   9.910   4.368   1.207 -1.0486 -0.7650  1.2058
  547MOL0     H73815   9.890   4.080   1.126  0.0779  2.2188 -0.9301
  547MOL0     H73816   9.865   4.145   1.288 -1.0993 -1.0446 -1.2273
  547MOL0     H73817  10.127   4.218   1.151  1.1201  0.2101  1.0815
  547MOL0     H73818  10.100   4.067   1.240  0.8178  1.0350  1.0921
  547MOL0     H73819  10.067   4.338   1.351 -2.4372 -0.5918 -1.0022
  547MOL0     H73820  10.027   4.197   1.438  0.0496 -0.6459  0.0586
  547MOL0     H73821  10.286   4.314   1.386 -1.5874  1.9474  0.5170
  547MOL0     H73822  10.294   4.134   1.369  1.6303  1.0927 -0.2171
  547MOL0     H73823  10.239   4.105   1.596  0.6739 -0.0343 -0.9261
  547MOL0     H73824  10.346   4.250   1.598 -0.9144  0.4198  3.4714
  547MOL0     H73825   9.440   4.642   0.906  1.4049  0.5707 -0.4071
  547MOL0     H73826   9.329   4.827   1.044  0.3937  0.2766 -0.2579
  547MOL0     H73827   9.302   4.993   1.645 -2.2902  0.5489  0.9265
  547MOL0     H73828   9.273   5.240   1.722  2.4749  1.7144  0.4025
  547MOL0     H73829   9.030   6.997   1.791  0.4420  2.1812 -0.1113
  547MOL0     H73830   8.967   7.113   1.971 -1.4883 -1.2586  2.0845
  547MOL0     H73831   8.743   7.532   2.159  0.2615  0.7943 -0.3120
  547MOL0     H73832   8.584   7.656   2.276  0.0607  0.2271  3.1789
  547MOL0     H73833   8.343   7.694   2.271  0.1402  0.1493 -0.2444
  547MOL0     H73834   8.401   7.752   2.436  1.5362  0.3945 -1.5914
  547MOL0     H73835   8.166   7.811   2.419  2.1549  1.0255  1.7921
  547MOL0     H73836   8.180   7.664   2.520  1.5427 -1.2571  0.4550
  547MOL0     H73837   8.061   7.722   2.252  0.3062  1.2719  2.2539
  547MOL0     H73838   7.985   7.651   2.384 -0.6827 -0.2819 -1.1544
  547MOL0     H73839   8.006   7.507   2.193 -1.4645  1.6418  0.6439
  547MOL0     H73840   8.179   7.510   2.198 -1.9423  1.3355 -1.1851
  547MOL0     H73841   8.070   7.234   2.509  0.2672 -0.9442 -0.2707
  547MOL0     H73842   8.380   7.298   2.399 -0.7930  2.1621  0.6535
  547MOL0     H73843   8.640   7.054   2.275 -0.6149 -0.3165  0.8208
  547MOL0     H73844   8.587   7.112   2.435  1.8034 -0.4077 -0.1410
  547MOL0     H73845   8.465   7.079   2.307 -0.2713  0.6323 -2.3113
  548MOL0     O73846   1.667   4.352   0.475  0.4386  0.4000  0.0441
  548MOL0     C73847   1.756   4.268   0.496 -0.2429 -0.2568 -0.6167
  548MOL0     O73848   1.761   4.147   0.455 -0.4268  0.1251  0.0382
  548MOL0     C73849   1.656   4.089   0.388 -0.1659 -0.8498  0.9465
  548MOL0     C73850   1.684   4.018   0.267 -0.7648 -0.4555  1.3344
  548MOL0     C73851   1.579   3.967   0.185 -0.4406  0.3318  0.6795
  548MOL0     C73852   1.453   3.966   0.228 -0.3866 -0.4382 -0.4618
  548MOL0     O73853   1.360   3.901   0.150 -0.3617 -1.2577 -0.9843
  548MOL0     C73854   1.246   3.983   0.114  0.2037 -0.1005  0.3141
  548MOL0     C73855   1.246   4.006  -0.035 -0.5438  0.1360 -0.0758
  548MOL0     C73856   1.361   4.101  -0.086 -1.4881  1.2375 -0.1018
  548MOL0     C73857   1.480   4.016  -0.151 -0.2508 -0.4733 -0.3686
  548MOL0     C73858   1.449   4.003  -0.294  0.4626 -0.5142  0.2249
  548MOL0     C73859   1.577   3.967  -0.375  0.6960  0.1265 -0.9389
  548MOL0     C73860   1.558   3.907  -0.509  0.0374 -0.0948  0.1619
  548MOL0     C73861   1.485   4.011  -0.603 -0.2143  0.3977  0.8572
  548MOL0     N73862   1.503   3.956  -0.740 -0.3413 -0.2150 -0.6367
  548MOL0     C73863   1.423   3.869  -0.807 -0.2797 -0.2524 -0.8825
  548MOL0     C73864   1.477   3.844  -0.924  0.2372 -0.3532  0.6665
  548MOL0     C73865   1.400   3.766  -1.024  0.0958 -0.1722  0.0726
  548MOL0     C73866   1.487   3.751  -1.158 -0.0412 -0.5730  0.0437
  548MOL0     C73867   1.451   3.872  -1.261  0.5170  0.5488 -0.8905
  548MOL0     C73868   1.524   3.855  -1.404  0.9090 -1.0053 -0.5534
  548MOL0     O73869   1.464   3.760  -1.489  0.1682  0.0602  0.6505
  548MOL0     C73870   1.481   3.770  -1.624  0.3162 -0.7343 -0.0457
  548MOL0     C73871   1.606   3.788  -1.683 -0.5521 -0.3505 -0.5025
  548MOL0     C73872   1.614   3.787  -1.826 -0.6359 -0.8503  0.7864
  548MOL0     C73873   1.498   3.817  -1.901 -0.4114  0.1382  0.1944
  548MOL0     C73874   1.508   3.850  -2.054 -1.2774 -0.6119 -0.3841
  548MOL0     O73875   1.395   3.880  -2.131 -0.6646 -0.0769 -0.0635
  548MOL0     C73876   1.426   3.903  -2.262  0.3355 -0.0968  0.4021
  548MOL0     C73877   1.417   3.802  -2.356 -0.0152 -0.1694 -0.5947
  548MOL0     C73878   1.446   3.825  -2.490 -0.1585  0.2633  0.5078
  548MOL0     C73879   1.474   3.956  -2.537  0.1172 -0.5132  0.3238
  548MOL0     O73880   1.489   3.984  -2.671 -0.6729 -0.9760 -0.2506
  548MOL0     C73881   1.608   3.928  -2.731 -0.1672 -0.4149  0.6857
  548MOL0     C73882   1.571   3.863  -2.864 -0.3204  0.0247  0.9826
  548MOL0     C73883   1.687   3.772  -2.917  0.0663  0.3704  0.3244
  548MOL0     C73884   1.653   3.696  -3.049 -0.7692 -0.5180  0.2705
  548MOL0     C73885   1.775   3.615  -3.101 -0.8791 -0.1358  0.7329
  548MOL0     C73886   1.855   3.527  -3.001  0.7994 -0.4358 -0.1458
  548MOL0     C73887   1.766   3.414  -2.943  0.0169 -0.5478 -0.5981
  548MOL0     C73888   1.841   3.318  -2.842  0.2859 -0.1508 -0.1266
  548MOL0    Cl73889   1.738   3.168  -2.821 -0.0164 -0.2460  0.3768
  548MOL0     C73890   1.469   4.055  -2.447 -0.3331  0.6410 -0.5672
  548MOL0     C73891   1.454   4.033  -2.310  0.1068  0.6526  0.3286
  548MOL0     O73892   1.623   3.864  -2.089  0.2785  0.4608 -0.7957
  548MOL0     C73893   1.375   3.793  -1.839  0.0360  0.8039 -0.3164
  548MOL0     C73894   1.368   3.760  -1.708 -0.8637  0.2566 -0.5026
  548MOL0     N73895   1.590   3.923  -0.941 -0.6422 -0.7290  0.3175
  548MOL0     N73896   1.608   3.991  -0.824  0.3175 -0.0522 -0.0612
  548MOL0     C73897   1.423   4.035   0.342 -0.2565 -0.9353 -0.0721
  548MOL0     C73898   1.521   4.096   0.427  0.2301 -0.4550 -0.3159
  548MOL0     C73899   1.874   4.335   0.554 -0.0136  0.4187  0.5787
  548MOL0     C73900   1.917   4.458   0.499  0.4661  0.3660  0.8757
  548MOL0     C73901   2.034   4.516   0.551 -0.7220  0.1198 -0.0486
  548MOL0     C73902   2.103   4.450   0.647 -0.3292  0.1507  0.0566
  548MOL0     O73903   2.192   4.525   0.710  0.1158 -0.5422 -0.1895
  548MOL0     C73904   2.249   4.484   0.838  0.1181  0.4380 -0.1488
  548MOL0     C73905   2.350   4.585   0.890  0.3250 -1.1227  0.1798
  548MOL0     C73906   2.457   4.631   0.787  0.1948 -0.5818 -0.0384
  548MOL0     C73907   2.506   4.767   0.832 -0.4256 -0.0274 -0.1402
  548MOL0     C73908   2.610   4.814   0.740 -0.2456 -0.0283 -0.4218
  548MOL0     C73909   2.683   4.886   0.663 -0.0748  0.4456 -0.6351
  548MOL0     C73910   2.059   4.321   0.698 -0.4391 -0.0952  0.5849
  548MOL0     C73911   1.943   4.269   0.651  0.6226 -0.2073 -0.3056
  548MOL0     C73912   1.881   4.141   0.718  0.0074  0.4317  0.2620
  548MOL0     H73913   1.786   4.019   0.229 -0.2434  0.0471  2.6821
  548MOL0     H73914   1.595   3.917   0.090 -2.0054 -2.9865  2.0378
  548MOL0     H73915   1.156   3.926   0.140  1.2955 -2.1836 -0.2370
  548MOL0     H73916   1.240   4.081   0.162  1.0371 -0.1721  0.5800
  548MOL0     H73917   1.145   4.044  -0.052 -1.6159 -0.6312  3.6052
  548MOL0     H73918   1.255   3.911  -0.088 -2.4652 -0.4417  0.5820
  548MOL0     H73919   1.394   4.161  -0.001  4.3565  0.5313 -1.4996
  548MOL0     H73920   1.317   4.179  -0.148 -2.6809  1.7916  1.3733
  548MOL0     H73921   1.568   4.080  -0.150 -0.7151  0.1975 -1.0165
  548MOL0     H73922   1.504   3.919  -0.107  0.8584 -0.1306 -0.1955
  548MOL0     H73923   1.375   3.923  -0.303  0.6248 -0.8577  1.6837
  548MOL0     H73924   1.404   4.095  -0.333  0.5007  0.0926  1.5704
  548MOL0     H73925   1.644   4.052  -0.392 -0.5684  0.6742 -3.6300
  548MOL0     H73926   1.638   3.909  -0.305  0.8445 -0.0309 -1.1990
  548MOL0     H73927   1.503   3.812  -0.506 -1.7143  0.8805  1.9645
  548MOL0     H73928   1.651   3.876  -0.556 -0.1715  0.4325 -0.6042
  548MOL0     H73929   1.382   4.009  -0.564 -0.9603 -1.0736 -1.0340
  548MOL0     H73930   1.528   4.111  -0.595 -0.0986  0.3091  1.3434
  548MOL0     H73931   1.330   3.821  -0.780 -2.0784  2.4781 -1.7801
  548MOL0     H73932   1.377   3.669  -0.978  1.0358 -0.4731 -0.0778
  548MOL0     H73933   1.306   3.820  -1.041  0.1196  0.4710  1.7686
  548MOL0     H73934   1.596   3.765  -1.149  0.5290  0.2125 -4.9987
  548MOL0     H73935   1.464   3.655  -1.204  1.5578 -0.7129 -0.5144
  548MOL0     H73936   1.472   3.966  -1.211  2.1425 -0.9707  1.5258
  548MOL0     H73937   1.343   3.869  -1.277  0.0872  2.6252  1.0970
  548MOL0     H73938   1.629   3.836  -1.379  0.6343 -0.4486  1.1388
  548MOL0     H73939   1.516   3.950  -1.456 -1.1963 -0.7662  0.1035
  548MOL0     H73940   1.688   3.810  -1.615  0.2270 -3.8394 -0.1457
  548MOL0     H73941   1.713   3.797  -1.868 -0.5295  0.9303  1.3967
  548MOL0     H73942   1.389   3.699  -2.335 -0.7605 -0.0427 -0.9141
  548MOL0     H73943   1.456   3.743  -2.561  0.0959  2.1525 -1.7419
  548MOL0     H73944   1.682   4.001  -2.766  0.2288 -1.7707 -1.5382
  548MOL0     H73945   1.667   3.862  -2.665  4.0785  3.4255  1.2736
  548MOL0     H73946   1.490   3.795  -2.837  1.4358 -2.6075 -0.0276
  548MOL0     H73947   1.534   3.934  -2.939  0.1476 -1.7496 -1.0308
  548MOL0     H73948   1.774   3.834  -2.941 -0.3163  0.1667 -1.7675
  548MOL0     H73949   1.720   3.698  -2.844  2.9943  0.6921 -0.5456
  548MOL0     H73950   1.628   3.782  -3.113  2.0912  0.4853  0.3704
  548MOL0     H73951   1.569   3.632  -3.022 -0.2898 -1.6469 -0.8361
  548MOL0     H73952   1.844   3.690  -3.141 -1.6004 -1.0098 -2.4563
  548MOL0     H73953   1.731   3.549  -3.176  2.8485 -1.2195 -0.7369
  548MOL0     H73954   1.937   3.478  -3.054  0.9899 -0.8974  0.5583
  548MOL0     H73955   1.893   3.599  -2.928  1.1875  3.5113 -3.8322
  548MOL0     H73956   1.727   3.353  -3.025 -2.5220 -1.1258  0.9401
  548MOL0     H73957   1.681   3.455  -2.888  0.9965 -1.0945  1.4404
  548MOL0     H73958   1.941   3.296  -2.879  0.6713  0.4878  0.4964
  548MOL0     H73959   1.870   3.368  -2.749  3.0990 -1.6240 -0.0984
  548MOL0     H73960   1.500   4.151  -2.486  0.2006  1.3437  1.4374
  548MOL0     H73961   1.462   4.119  -2.244 -2.6390  1.1992  0.0798
  548MOL0     H73962   1.283   3.805  -1.895 -1.8589  0.1472  2.3925
  548MOL0     H73963   1.272   3.733  -1.664 -0.3937 -0.6138  0.0199
  548MOL0     H73964   1.318   4.047   0.366  0.5068  3.5430  1.9254
  548MOL0     H73965   1.484   4.155   0.511 -0.4380 -0.3789 -0.6545
  548MOL0     H73966   1.856   4.507   0.424  0.7147 -0.6676 -0.0201
  548MOL0     H73967   2.071   4.614   0.520  1.7291  0.0118  2.1581
  548MOL0     H73968   2.298   4.387   0.820  1.7611  1.2302 -0.1098
  548MOL0     H73969   2.175   4.463   0.915 -1.1352 -1.9889 -1.8752
  548MOL0     H73970   2.400   4.549   0.980 -0.0556 -3.0614 -0.3255
  548MOL0     H73971   2.283   4.667   0.918  0.7413  0.3555 -2.7665
  548MOL0     H73972   2.415   4.638   0.686  0.3525  0.6275 -0.0267
  548MOL0     H73973   2.536   4.555   0.781  1.1903  0.4443 -0.1585
  548MOL0     H73974   2.429   4.843   0.842 -2.1255 -1.4859 -1.4158
  548MOL0     H73975   2.551   4.771   0.932  0.9409  2.8073 -0.7644
  548MOL0     H73976   2.754   4.948   0.611  0.2373  0.8075  0.2074
  548MOL0     H73977   2.106   4.282   0.787  1.8724 -0.0431 -0.5580
  548MOL0     H73978   1.937   4.121   0.809  3.4768  0.3654 -1.7173
  548MOL0     H73979   1.778   4.158   0.751  0.3674 -0.9000  2.1995
  548MOL0     H73980   1.889   4.051   0.657  0.5488  0.1472  0.7469
  549MOL0     O73981   8.257   0.845   0.369  0.2701  0.0614 -0.2491
  549MOL0     C73982   8.290   0.896   0.478  0.2994  0.2592  0.2285
  549MOL0     O73983   8.296   0.834   0.594  0.0622  0.4745  1.0044
  549MOL0     C73984   8.248   0.706   0.615 -0.4721  0.4949 -0.3790
  549MOL0     C73985   8.116   0.684   0.632 -0.2460  0.0146  0.8141
  549MOL0     C73986   8.061   0.551   0.618  0.6738 -0.1141 -0.0586
  549MOL0     C73987   8.140   0.437   0.614 -0.0739 -0.0395  0.1804
  549MOL0     O73988   8.079   0.316   0.600 -0.4050 -0.3137  0.3226
  549MOL0     C73989   8.129   0.229   0.497  0.9460 -0.0832 -0.5778
  549MOL0     C73990   8.209   0.127   0.568  0.7988 -0.3098 -0.0154
  549MOL0     C73991   8.236   0.009   0.469 -0.2854 -0.0142  0.7219
  549MOL0     C73992   8.291  -0.118   0.536 -0.1914  0.6319 -0.4043
  549MOL0     C73993   8.247  -0.235   0.442 -0.2189 -0.7531  0.4190
  549MOL0     C73994   8.335  -0.343   0.495 -0.2572  0.0024  0.1526
  549MOL0     C73995   8.315  -0.481   0.430 -0.6409  0.7322 -0.1026
  549MOL0     C73996   8.389  -0.579   0.527  0.4209  0.0496  0.0059
  549MOL0     N73997   8.377  -0.719   0.472 -0.7673 -0.3788 -0.8217
  549MOL0     C73998   8.463  -0.780   0.384 -0.1933  0.2258  0.8447
  549MOL0     C73999   8.421  -0.908   0.372 -0.0541 -0.1234 -0.6691
  549MOL0     C74000   8.489  -1.018   0.298 -0.7185  0.4416 -0.0789
  549MOL0     C74001   8.443  -1.028   0.151  0.1311  0.0905 -0.0125
  549MOL0     C74002   8.499  -1.168   0.115  0.3260  0.6432  0.2131
  549MOL0     C74003   8.491  -1.199  -0.043 -0.7127  0.1471  0.1616
  549MOL0     O74004   8.524  -1.338  -0.053 -0.2311  0.7911  0.1026
  549MOL0     C74005   8.589  -1.371  -0.173  0.4277 -0.5768 -0.5723
  549MOL0     C74006   8.513  -1.364  -0.288 -0.2940  0.7947  0.3219
  549MOL0     C74007   8.570  -1.403  -0.408 -0.3763  0.9785 -0.1462
  549MOL0     C74008   8.696  -1.468  -0.414 -0.5007 -0.8393 -0.2490
  549MOL0     C74009   8.752  -1.538  -0.541 -0.0550 -0.3138 -0.3004
  549MOL0     O74010   8.670  -1.528  -0.643 -0.3785  0.5707 -0.2512
  549MOL0     C74011   8.686  -1.579  -0.764  0.1676 -0.1604 -0.3881
  549MOL0     C74012   8.573  -1.594  -0.840  0.3028 -0.2563 -0.4384
  549MOL0     C74013   8.563  -1.643  -0.961 -0.8167  0.5469  0.5208
  549MOL0     C74014   8.681  -1.689  -1.022 -0.4016 -0.1740  0.1396
  549MOL0     O74015   8.678  -1.745  -1.148  0.3911 -0.7668  0.0457
  549MOL0     C74016   8.783  -1.835  -1.171  0.7156 -0.5512  0.5848
  549MOL0     C74017   8.730  -1.942  -1.272 -0.3472  0.9970 -0.2651
  549MOL0     C74018   8.630  -2.050  -1.207 -0.3245  0.0074 -0.3142
  549MOL0     C74019   8.664  -2.189  -1.258  0.2638  0.6440 -0.0770
  549MOL0     C74020   8.595  -2.233  -1.394 -0.2970 -0.5215 -0.0417
  549MOL0     C74021   8.639  -2.365  -1.452  0.2436  0.7229 -0.4828
  549MOL0     C74022   8.582  -2.399  -1.587 -0.1426  0.5913  1.0309
  549MOL0     C74023   8.655  -2.522  -1.646 -0.3145  0.8130  0.6687
  549MOL0    Cl74024   8.582  -2.658  -1.564 -0.6293  0.0618  0.4291
  549MOL0     C74025   8.805  -1.665  -0.963  0.2343  0.9008 -0.3751
  549MOL0     C74026   8.808  -1.611  -0.830 -0.2488 -0.3015 -0.1533
  549MOL0     O74027   8.860  -1.598  -0.529 -0.1140  0.6229 -0.8722
  549MOL0     C74028   8.765  -1.465  -0.293  0.0704 -0.9000  0.1138
  549MOL0     C74029   8.722  -1.410  -0.170 -0.2783 -0.1824  0.5026
  549MOL0     N74030   8.317  -0.922   0.465  1.0370  0.9567 -0.1849
  549MOL0     N74031   8.286  -0.812   0.522  0.3447 -0.0788  0.7176
  549MOL0     C74032   8.284   0.455   0.617  0.1894  0.7678 -0.6655
  549MOL0     C74033   8.334   0.590   0.621  0.8312  0.2701 -0.0503
  549MOL0     C74034   8.335   1.039   0.470  0.0464  0.2784 -0.0022
  549MOL0     C74035   8.381   1.108   0.582 -0.1821 -0.5665  0.6862
  549MOL0     C74036   8.402   1.239   0.591  0.1891 -0.3696  0.3186
  549MOL0     C74037   8.394   1.318   0.477  0.5041  0.7300 -0.3135
  549MOL0     O74038   8.395   1.455   0.478 -0.1398 -0.0938 -0.0202
  549MOL0     C74039   8.301   1.516   0.571  0.1828  0.0606 -1.0121
  549MOL0     C74040   8.146   1.515   0.543  0.2978 -0.3792 -0.2979
  549MOL0     C74041   8.113   1.617   0.438  0.5867 -0.8465  0.3479
  549MOL0     C74042   8.123   1.770   0.471 -0.1412 -0.6685  0.6819
  549MOL0     C74043   8.044   1.817   0.589 -0.3851  0.2470  0.3683
  549MOL0     C74044   7.992   1.835   0.696  0.8595 -0.4479 -0.2021
  549MOL0     C74045   8.364   1.255   0.362  0.2749 -0.7729 -0.1434
  549MOL0     C74046   8.345   1.117   0.354  0.3599 -0.0760 -0.8940
  549MOL0     C74047   8.330   1.069   0.214  0.6685  0.2577 -0.7604
  549MOL0     H74048   8.054   0.772   0.637  1.7058  1.4095  2.2371
  549MOL0     H74049   7.957   0.531   0.645  1.0013 -0.5010  0.9698
  549MOL0     H74050   8.043   0.190   0.441 -1.2348  0.2607  2.2984
  549MOL0     H74051   8.188   0.282   0.422 -1.2735  0.1035 -2.2950
  549MOL0     H74052   8.159   0.097   0.661  0.9403  0.3722  0.2871
  549MOL0     H74053   8.300   0.184   0.589 -1.6028  3.9936 -0.2125
  549MOL0     H74054   8.289   0.034   0.376  0.5937  1.2967  1.5373
  549MOL0     H74055   8.134  -0.010   0.437  0.4450 -1.3459 -0.9732
  549MOL0     H74056   8.399  -0.108   0.552 -0.0166 -0.0796 -1.0987
  549MOL0     H74057   8.249  -0.126   0.637  0.1357 -0.7712 -0.3660
  549MOL0     H74058   8.143  -0.267   0.450 -0.2924 -0.2090  1.9169
  549MOL0     H74059   8.267  -0.200   0.340  0.5542  2.1881  1.4910
  549MOL0     H74060   8.441  -0.314   0.499 -0.5502  1.1550  0.0030
  549MOL0     H74061   8.303  -0.353   0.599 -1.3957 -3.4691 -0.4180
  549MOL0     H74062   8.355  -0.476   0.328  2.3675  0.2248  0.9597
  549MOL0     H74063   8.208  -0.503   0.418 -0.5940 -0.1085  0.8843
  549MOL0     H74064   8.493  -0.548   0.538 -0.0210  1.8110 -0.3959
  549MOL0     H74065   8.343  -0.563   0.625  1.1667  0.6962  0.2620
  549MOL0     H74066   8.559  -0.742   0.351  0.2520 -0.4420  1.3526
  549MOL0     H74067   8.597  -1.011   0.311 -0.5983  0.9809 -1.2037
  549MOL0     H74068   8.460  -1.110   0.348  1.1482  0.7668  1.7408
  549MOL0     H74069   8.335  -1.019   0.142  0.2155  0.1645 -1.1192
  549MOL0     H74070   8.485  -0.945   0.092 -4.8043  3.2624  0.3711
  549MOL0     H74071   8.450  -1.239   0.182  0.2266  2.5416  2.2751
  549MOL0     H74072   8.605  -1.169   0.140 -0.1973 -2.0041  3.0007
  549MOL0     H74073   8.573  -1.138  -0.083 -0.6311 -2.1254 -3.7546
  549MOL0     H74074   8.392  -1.178  -0.084 -0.3836 -0.4035 -0.9634
  549MOL0     H74075   8.411  -1.327  -0.278 -0.1602  0.9856  1.0896
  549MOL0     H74076   8.518  -1.395  -0.503  0.5498  1.1794 -0.6540
  549MOL0     H74077   8.475  -1.586  -0.794  0.7754  2.0634  0.3125
  549MOL0     H74078   8.470  -1.659  -1.015 -0.2049  4.8613 -2.4109
  549MOL0     H74079   8.861  -1.780  -1.224  0.2458 -0.5377 -0.0990
  549MOL0     H74080   8.822  -1.885  -1.081  1.3721 -0.0022  0.6145
  549MOL0     H74081   8.681  -1.872  -1.340  0.2454 -0.5195 -2.3438
  549MOL0     H74082   8.820  -1.985  -1.317 -1.5381 -0.3195 -1.4786
  549MOL0     H74083   8.631  -2.041  -1.098  0.8367  2.9429 -0.4610
  549MOL0     H74084   8.528  -2.018  -1.229 -0.2834  2.3985  2.3753
  549MOL0     H74085   8.628  -2.263  -1.186 -0.9190  3.2540  2.1772
  549MOL0     H74086   8.773  -2.199  -1.262  0.2232  0.1675 -0.0991
  549MOL0     H74087   8.613  -2.158  -1.472 -0.2674  0.0777  0.5361
  549MOL0     H74088   8.489  -2.242  -1.369  0.5470 -2.6808  3.3728
  549MOL0     H74089   8.749  -2.364  -1.450  0.2741  3.0957  1.9642
  549MOL0     H74090   8.619  -2.438  -1.374  4.0127  1.2973  1.2714
  549MOL0     H74091   8.610  -2.323  -1.660  1.4129 -1.7208 -0.9633
  549MOL0     H74092   8.473  -2.414  -1.589 -0.5031  2.8912  0.2021
  549MOL0     H74093   8.641  -2.525  -1.755  5.2246  0.7801 -0.3646
  549MOL0     H74094   8.764  -2.531  -1.635 -0.1846 -0.1049 -1.0340
  549MOL0     H74095   8.896  -1.681  -1.020  0.6343  1.0168  0.2216
  549MOL0     H74096   8.893  -1.579  -0.770  0.0658 -2.6533  0.7490
  549MOL0     H74097   8.866  -1.506  -0.299  0.2488 -0.3571 -0.7623
  549MOL0     H74098   8.790  -1.390  -0.088 -0.8821 -0.7503  1.1528
  549MOL0     H74099   8.359   0.377   0.607  0.5041  0.8416  0.8047
  549MOL0     H74100   8.440   0.608   0.603  2.0669 -2.9647  2.9664
  549MOL0     H74101   8.415   1.042   0.661  1.6750 -0.5872 -0.0793
  549MOL0     H74102   8.429   1.277   0.689 -0.2629 -0.2599  0.4030
  549MOL0     H74103   8.323   1.623   0.569 -0.7126  0.2826  0.2874
  549MOL0     H74104   8.332   1.494   0.673  2.2904  0.4045 -1.5236
  549MOL0     H74105   8.083   1.554   0.624  0.2996  1.6597 -1.2055
  549MOL0     H74106   8.112   1.421   0.501 -1.5820 -1.2916  2.9311
  549MOL0     H74107   8.004   1.608   0.427  0.0255  3.4991  0.6181
  549MOL0     H74108   8.167   1.596   0.345  2.6777  0.3024  1.2313
  549MOL0     H74109   8.221   1.816   0.487  0.0458 -0.3433 -1.2274
  549MOL0     H74110   8.075   1.822   0.388 -5.3643 -0.8298  3.1671
  549MOL0     H74111   7.956   1.857   0.795 -2.4645 -2.7535 -0.7519
  549MOL0     H74112   8.372   1.318   0.274 -0.1645 -0.3097  0.1452
  549MOL0     H74113   8.305   1.149   0.143 -1.3215 -2.2794 -3.1311
  549MOL0     H74114   8.414   1.011   0.175  1.8391  1.3420  0.0572
  549MOL0     H74115   8.237   1.012   0.206 -0.0978  1.2821  0.4273
  550MOL0     O74116   8.213   6.943   5.337 -0.0065 -0.0258  0.1775
  550MOL0     C74117   8.272   6.863   5.265 -0.0596 -0.5829  0.1866
  550MOL0     O74118   8.346   6.890   5.158  0.5828 -0.1435 -0.5945
  550MOL0     C74119   8.393   7.024   5.128  0.5302 -0.5909 -0.0459
  550MOL0     C74120   8.334   7.153   5.162 -0.4105  0.2820 -0.3536
  550MOL0     C74121   8.395   7.270   5.128  0.1239 -0.9884 -0.7739
  550MOL0     C74122   8.520   7.272   5.071 -0.3275  0.6270 -0.6163
  550MOL0     O74123   8.573   7.395   5.042 -0.1504 -0.0719 -0.4180
  550MOL0     C74124   8.714   7.422   4.998 -0.0527  0.2068  0.0836
  550MOL0     C74125   8.737   7.409   4.848 -0.0785  0.2128 -0.7731
  550MOL0     C74126   8.693   7.532   4.770 -0.1220  0.8294 -1.0758
  550MOL0     C74127   8.726   7.524   4.622  0.4049  0.9714 -0.2155
  550MOL0     C74128   8.667   7.639   4.540 -0.2048  0.0350  0.6895
  550MOL0     C74129   8.735   7.646   4.408 -0.3574 -0.3092 -0.4762
  550MOL0     C74130   8.682   7.747   4.308 -0.0546 -0.9684  0.7343
  550MOL0     C74131   8.717   7.892   4.334  1.1709  0.7558 -0.2072
  550MOL0     N74132   8.847   7.921   4.263  0.3505 -0.5190 -0.2200
  550MOL0     C74133   8.865   7.926   4.132  0.1970  0.1324 -0.2863
  550MOL0     C74134   8.984   7.990   4.122 -0.4478  0.3921  0.7231
  550MOL0     C74135   9.071   7.995   3.998 -0.2093  0.3576 -0.6268
  550MOL0     C74136   9.086   8.134   3.943  0.6635  0.2617  0.2295
  550MOL0     C74137   9.156   8.138   3.804  0.4929 -0.3317 -1.1048
  550MOL0     C74138   9.089   8.042   3.704 -1.0913 -0.2521 -0.0297
  550MOL0     O74139   9.148   7.908   3.716 -0.4251 -0.7288  0.1153
  550MOL0     C74140   9.087   7.803   3.646 -1.0499  0.0267 -0.1467
  550MOL0     C74141   8.951   7.779   3.660 -0.1359  0.1724  0.0349
  550MOL0     C74142   8.888   7.684   3.583 -0.3844 -0.5510 -0.2770
  550MOL0     C74143   8.953   7.608   3.492  0.0053  0.3269  0.8943
  550MOL0     C74144   8.889   7.492   3.429  1.0292  0.3487  0.2956
  550MOL0     O74145   8.799   7.424   3.500 -0.1299 -0.0093 -0.4766
  550MOL0     C74146   8.739   7.318   3.446 -0.0311  0.6279 -0.1092
  550MOL0     C74147   8.600   7.322   3.404  0.0241  0.2522  0.9770
  550MOL0     C74148   8.534   7.215   3.330  1.1520 -0.6389 -0.4104
  550MOL0     C74149   8.610   7.100   3.303  0.4318  0.6882  0.1906
  550MOL0     O74150   8.561   6.993   3.226 -0.9763 -0.3186 -0.4309
  550MOL0     C74151   8.428   6.951   3.263 -0.0532 -0.2982  0.5534
  550MOL0     C74152   8.391   6.810   3.214  0.2380 -0.4005 -0.2365
  550MOL0     C74153   8.282   6.751   3.306  0.1747  0.3178 -0.1265
  550MOL0     C74154   8.209   6.642   3.237 -0.1098  0.0697  0.3746
  550MOL0     C74155   8.097   6.593   3.317 -0.5452  0.1739  0.2349
  550MOL0     C74156   7.981   6.689   3.364 -0.0053  0.2393 -0.0547
  550MOL0     C74157   7.863   6.603   3.400 -0.3589 -0.8759 -0.4789
  550MOL0     C74158   7.728   6.669   3.390 -0.4158 -0.8093  0.0506
  550MOL0    Cl74159   7.703   6.787   3.524  0.6094  0.2211 -0.0069
  550MOL0     C74160   8.742   7.093   3.346  0.3531 -0.6940 -0.1842
  550MOL0     C74161   8.804   7.200   3.422 -0.6628 -0.3829 -0.0268
  550MOL0     O74162   8.903   7.480   3.309  0.5391 -0.8074 -0.6028
  550MOL0     C74163   9.087   7.640   3.471 -0.3230 -0.2125 -0.1527
  550MOL0     C74164   9.158   7.731   3.555  0.0943 -0.2114  0.7205
  550MOL0     N74165   9.031   8.031   4.247  1.1965 -0.3261 -1.0488
  550MOL0     N74166   8.944   7.994   4.332 -0.4043 -0.8042 -0.0244
  550MOL0     C74167   8.590   7.150   5.049  0.4825 -0.5476 -0.1943
  550MOL0     C74168   8.521   7.034   5.076 -0.2953  0.0215  0.3263
  550MOL0     C74169   8.261   6.729   5.305  0.1691 -0.0613  0.1678
  550MOL0     C74170   8.132   6.687   5.349  0.1693 -0.1211  0.0322
  550MOL0     C74171   8.119   6.558   5.391 -0.5044  0.3717 -0.2849
  550MOL0     C74172   8.221   6.465   5.394  0.1987  0.5087 -0.6693
  550MOL0     O74173   8.202   6.328   5.411  0.1948 -0.0827  0.0248
  550MOL0     C74174   8.070   6.263   5.420 -0.8277  0.8002 -0.1327
  550MOL0     C74175   8.068   6.126   5.481  0.6557  0.3350 -0.0323
  550MOL0     C74176   8.117   6.022   5.390 -0.0483  0.5252  0.3105
  550MOL0     C74177   8.035   5.891   5.398 -0.2088  0.9955 -0.6090
  550MOL0     C74178   8.096   5.789   5.307  0.2614 -0.4453 -0.1025
  550MOL0     C74179   8.160   5.705   5.247  0.1598  0.4101 -0.0302
  550MOL0     C74180   8.347   6.503   5.354 -0.3193  0.9274  0.9343
  550MOL0     C74181   8.366   6.635   5.309  0.8662 -0.5423 -0.0648
  550MOL0     C74182   8.507   6.670   5.273 -0.1007  0.0567  0.3120
  550MOL0     H74183   8.238   7.158   5.211 -0.1801 -1.9291  0.4325
  550MOL0     H74184   8.340   7.359   5.158 -1.9194 -3.1534  2.6771
  550MOL0     H74185   8.729   7.528   5.025 -0.1993  0.0033  1.0082
  550MOL0     H74186   8.782   7.362   5.059 -0.3170 -1.3750 -1.1394
  550MOL0     H74187   8.704   7.312   4.809 -2.3942  0.0499  1.3444
  550MOL0     H74188   8.846   7.401   4.836  0.0410 -0.7428  0.6879
  550MOL0     H74189   8.744   7.624   4.798 -0.9171  1.3019 -1.1638
  550MOL0     H74190   8.590   7.549   4.801  0.4792  0.8654  1.0743
  550MOL0     H74191   8.833   7.521   4.598 -0.0217 -0.0339 -2.3400
  550MOL0     H74192   8.706   7.428   4.573  0.9802  0.0164  1.3610
  550MOL0     H74193   8.560   7.621   4.525 -0.4096  1.0011  0.9253
  550MOL0     H74194   8.697   7.732   4.589 -0.5983  1.8081 -2.1873
  550MOL0     H74195   8.841   7.658   4.433 -1.2740  3.0009  2.7703
  550MOL0     H74196   8.726   7.545   4.366  0.1998 -0.0916 -1.1462
  550MOL0     H74197   8.573   7.738   4.314 -0.2543  1.3451  1.5564
  550MOL0     H74198   8.721   7.722   4.209  0.3964 -2.1973  1.1991
  550MOL0     H74199   8.637   7.958   4.300  1.6358  1.0647 -0.7194
  550MOL0     H74200   8.737   7.916   4.438 -0.8010  0.0440  0.3762
  550MOL0     H74201   8.802   7.879   4.057  2.1181 -1.3801 -1.0631
  550MOL0     H74202   9.170   7.960   4.027  0.1278 -0.9931 -3.0618
  550MOL0     H74203   9.024   7.925   3.927  0.7142  0.6782 -1.5963
  550MOL0     H74204   8.987   8.180   3.933  0.7244  0.1534 -1.0261
  550MOL0     H74205   9.153   8.189   4.008  0.8295  1.2021 -0.7139
  550MOL0     H74206   9.263   8.135   3.826  1.1919  0.1573 -4.0622
  550MOL0     H74207   9.130   8.238   3.769 -2.6527 -0.9996 -0.9355
  550MOL0     H74208   9.109   8.073   3.601 -0.8941  0.1723  0.1303
  550MOL0     H74209   8.980   8.035   3.710 -1.6156  3.4325 -1.9417
  550MOL0     H74210   8.890   7.834   3.731 -0.8867  1.0004 -1.2221
  550MOL0     H74211   8.782   7.679   3.607 -0.3884 -0.9482 -0.3718
  550MOL0     H74212   8.553   7.418   3.425  0.8635  0.5101  1.7291
  550MOL0     H74213   8.430   7.235   3.307  1.1556  1.7786  1.3524
  550MOL0     H74214   8.410   6.956   3.371 -0.1237 -1.9260  0.6507
  550MOL0     H74215   8.356   7.020   3.219  3.4743  3.3445 -0.1008
  550MOL0     H74216   8.357   6.812   3.110 -1.0491 -2.8593  0.0755
  550MOL0     H74217   8.475   6.740   3.225  0.3876 -0.4727 -1.7075
  550MOL0     H74218   8.322   6.716   3.401  3.7478  1.4152 -1.0705
  550MOL0     H74219   8.208   6.829   3.329 -1.9054 -1.5093 -0.2010
  550MOL0     H74220   8.278   6.560   3.220 -0.1249  0.3182 -0.9861
  550MOL0     H74221   8.176   6.683   3.141  0.5915 -2.4365 -1.0233
  550MOL0     H74222   8.143   6.545   3.404  1.2517 -1.4148 -1.4889
  550MOL0     H74223   8.053   6.518   3.250  1.1871 -0.4545 -0.2634
  550MOL0     H74224   8.023   6.728   3.457  2.3738 -2.8035  0.3076
  550MOL0     H74225   7.961   6.771   3.294  1.0325 -0.1310 -0.8044
  550MOL0     H74226   7.878   6.567   3.502  0.5200 -3.8962 -1.5537
  550MOL0     H74227   7.859   6.521   3.328  2.2883 -1.5267 -0.0026
  550MOL0     H74228   7.712   6.711   3.290 -1.4602  1.7028  1.1653
  550MOL0     H74229   7.649   6.594   3.395 -3.1877  1.9205  0.6195
  550MOL0     H74230   8.803   7.004   3.330  1.9752  0.4285 -0.4267
  550MOL0     H74231   8.911   7.188   3.437 -1.1489 -2.4036  2.5459
  550MOL0     H74232   9.133   7.577   3.396 -0.8871  0.5117 -1.1203
  550MOL0     H74233   9.262   7.754   3.534 -0.8683  1.3068 -3.4227
  550MOL0     H74234   8.695   7.161   5.022  0.9028 -2.2909  0.5826
  550MOL0     H74235   8.572   6.939   5.070 -1.4303 -0.5206 -1.8712
  550MOL0     H74236   8.053   6.757   5.371 -0.7289 -1.6208  1.8786
  550MOL0     H74237   8.025   6.526   5.434 -1.4789  1.5693 -1.4126
  550MOL0     H74238   8.029   6.261   5.318  1.7605  3.2163 -1.3659
  550MOL0     H74239   8.008   6.321   5.490 -0.0801  1.6714 -0.1658
  550MOL0     H74240   7.964   6.101   5.504 -0.0022  2.2278 -0.7298
  550MOL0     H74241   8.123   6.120   5.575 -0.5098 -2.4038  0.5703
  550MOL0     H74242   8.223   5.996   5.403  0.2191 -0.5084 -2.9357
  550MOL0     H74243   8.120   6.067   5.290 -1.0484 -0.7766 -0.3497
  550MOL0     H74244   8.033   5.850   5.500 -4.3868  0.2514 -0.7845
  550MOL0     H74245   7.929   5.905   5.375 -0.7462  0.7862  1.4816
  550MOL0     H74246   8.215   5.626   5.199  1.4579 -1.5545  4.1424
  550MOL0     H74247   8.431   6.435   5.350 -1.1737 -0.0853 -1.5281
  550MOL0     H74248   8.524   6.652   5.166  0.7755 -1.6007  0.6910
  550MOL0     H74249   8.543   6.767   5.310 -0.3782 -0.4211  1.8851
  550MOL0     H74250   8.573   6.603   5.329  1.7529  1.2804 -0.3275
  551MOL0     O74251   3.850  11.092   3.710 -0.1720  0.2392 -0.1292
  551MOL0     C74252   3.724  11.080   3.710  0.4769 -0.2787  0.1617
  551MOL0     O74253   3.635  11.176   3.663  0.1339 -0.0427  0.2802
  551MOL0     C74254   3.679  11.302   3.618  0.2305  0.0328  0.6984
  551MOL0     C74255   3.748  11.392   3.703 -0.3064  0.8901 -0.2943
  551MOL0     C74256   3.788  11.517   3.659 -0.5481 -0.4020 -0.1170
  551MOL0     C74257   3.757  11.557   3.530  0.8654 -1.0971 -0.2967
  551MOL0     O74258   3.798  11.689   3.492 -0.7066 -0.9258 -0.0347
  551MOL0     C74259   3.734  11.765   3.391 -0.0753  0.0344 -0.3201
  551MOL0     C74260   3.609  11.834   3.453  0.5015  0.0331  0.5839
  551MOL0     C74261   3.541  11.930   3.348 -0.1221 -0.3615  0.8055
  551MOL0     C74262   3.494  12.055   3.423  0.8097 -0.2316 -1.0065
  551MOL0     C74263   3.401  12.129   3.333  1.0792  0.0969  0.7671
  551MOL0     C74264   3.356  12.259   3.390 -0.3549 -1.7321  0.0983
  551MOL0     C74265   3.302  12.357   3.289  0.7947  0.0796 -0.2143
  551MOL0     C74266   3.202  12.464   3.349 -1.3822  0.1532 -0.0559
  551MOL0     N74267   3.271  12.571   3.429 -0.0962 -0.4730 -0.2838
  551MOL0     C74268   3.302  12.697   3.386 -0.6184  0.3721 -0.3764
  551MOL0     C74269   3.366  12.753   3.490  0.5552  0.1216 -0.1067
  551MOL0     C74270   3.400  12.896   3.511 -1.0482 -0.2226 -0.3268
  551MOL0     C74271   3.549  12.921   3.539  0.4978 -0.2597 -0.2997
  551MOL0     C74272   3.575  13.058   3.587 -0.3395 -0.5242  0.0563
  551MOL0     C74273   3.497  13.169   3.526 -0.7115 -1.0712 -0.0937
  551MOL0     O74274   3.558  13.292   3.579 -0.4556 -0.0538  0.8180
  551MOL0     C74275   3.505  13.420   3.560  0.4286 -0.3987  0.0614
  551MOL0     C74276   3.401  13.445   3.477  0.7740  0.3121 -0.3960
  551MOL0     C74277   3.344  13.569   3.479 -0.1185 -0.8680 -0.4126
  551MOL0     C74278   3.402  13.674   3.558  0.4855  0.0093  0.2360
  551MOL0     C74279   3.335  13.811   3.570  1.0965 -0.7955 -0.1066
  551MOL0     O74280   3.210  13.831   3.529  0.6874  0.3127 -0.2438
  551MOL0     C74281   3.151  13.954   3.520 -0.4962 -0.1572 -0.1053
  551MOL0     C74282   3.216  14.063   3.459 -0.1321  0.4851 -0.2303
  551MOL0     C74283   3.153  14.188   3.450  0.9631 -0.0882 -0.0037
  551MOL0     C74284   3.025  14.211   3.506 -0.0696  0.8205 -0.0672
  551MOL0     O74285   2.978  14.336   3.491 -0.0319  0.2089  0.1195
  551MOL0     C74286   2.892  14.381   3.597  0.0993 -0.3610 -0.7185
  551MOL0     C74287   2.894  14.532   3.592  0.6816  0.1079 -0.0126
  551MOL0     C74288   2.787  14.596   3.686  0.5231 -0.5087  0.0557
  551MOL0     C74289   2.641  14.550   3.672 -0.8426  0.3757  0.1866
  551MOL0     C74290   2.543  14.666   3.703  0.0230  0.3035 -0.0939
  551MOL0     C74291   2.492  14.743   3.585 -0.3840  0.3364  0.4434
  551MOL0     C74292   2.420  14.868   3.636 -0.0200  0.1440  0.2314
  551MOL0     C74293   2.326  14.918   3.530  0.2958 -0.5545 -0.5859
  551MOL0    Cl74294   2.426  15.026   3.417 -0.6830  0.1251 -0.5277
  551MOL0     C74295   2.965  14.106   3.581 -0.3536  0.0925  0.5719
  551MOL0     C74296   3.026  13.978   3.578 -0.4298  0.0982 -1.5125
  551MOL0     O74297   3.402  13.892   3.630 -0.0573 -0.0760 -0.6796
  551MOL0     C74298   3.516  13.639   3.633 -0.3329 -1.0531  0.3971
  551MOL0     C74299   3.572  13.518   3.626  0.2574  0.5595 -0.2370
  551MOL0     N74300   3.387  12.657   3.596  0.4204  0.9850  0.5456
  551MOL0     N74301   3.321  12.547   3.553 -0.1045  0.2036 -0.0114
  551MOL0     C74302   3.690  11.475   3.444 -0.2379 -0.5190 -0.1326
  551MOL0     C74303   3.644  11.349   3.488 -0.1281 -0.3238 -0.3108
  551MOL0     C74304   3.661  10.960   3.772 -0.3136  0.0281  0.6310
  551MOL0     C74305   3.694  10.828   3.728  0.5879  0.2802 -0.4194
  551MOL0     C74306   3.635  10.720   3.803  0.4142  0.3411 -0.0821
  551MOL0     C74307   3.557  10.732   3.914  0.4546 -0.3836  0.3369
  551MOL0     O74308   3.503  10.624   3.982 -0.2158  0.2926  0.4284
  551MOL0     C74309   3.359  10.625   3.982  0.5998  1.5010 -0.1185
  551MOL0     C74310   3.326  10.477   4.007  0.6961 -0.7371 -0.3019
  551MOL0     C74311   3.383  10.422   4.143  0.0069 -0.5964  0.3295
  551MOL0     C74312   3.359  10.267   4.162 -0.5095  0.2477  0.3132
  551MOL0     C74313   3.219  10.233   4.190 -0.5833 -0.1615 -0.2381
  551MOL0     C74314   3.097  10.211   4.208  0.5022 -0.3906  0.0020
  551MOL0     C74315   3.521  10.865   3.941  1.5298  0.0568  0.9778
  551MOL0     C74316   3.573  10.979   3.874  0.4721 -0.5950 -1.3172
  551MOL0     C74317   3.531  11.114   3.922 -0.7797  0.0877  0.1072
  551MOL0     H74318   3.778  11.357   3.801  2.3151  2.2182 -0.5364
  551MOL0     H74319   3.848  11.586   3.717  0.6222 -1.1794 -0.3606
  551MOL0     H74320   3.800  11.849   3.364 -1.1972  1.2051  0.4927
  551MOL0     H74321   3.717  11.696   3.307 -0.8349  0.9080 -0.9074
  551MOL0     H74322   3.633  11.892   3.543  1.9037  2.7103 -1.3867
  551MOL0     H74323   3.542  11.754   3.487 -2.9990  1.8473 -1.4874
  551MOL0     H74324   3.449  11.887   3.307 -0.4894  0.1143  1.1073
  551MOL0     H74325   3.611  11.968   3.274  0.4302 -0.0733  1.4624
  551MOL0     H74326   3.435  12.039   3.514  0.0223  2.4255 -0.9436
  551MOL0     H74327   3.578  12.117   3.457 -2.2029  2.8304  1.5878
  551MOL0     H74328   3.437  12.145   3.231  0.1436 -0.9967  0.2567
  551MOL0     H74329   3.306  12.079   3.315  1.0897  0.6139 -0.8776
  551MOL0     H74330   3.283  12.240   3.469 -0.1010 -0.7372  0.5925
  551MOL0     H74331   3.447  12.296   3.438 -1.5695 -3.0023  3.7023
  551MOL0     H74332   3.237  12.302   3.220 -2.0700  1.2972  1.3096
  551MOL0     H74333   3.382  12.408   3.235 -0.4140  1.3350 -0.8899
  551MOL0     H74334   3.148  12.508   3.266 -0.6074  0.4220 -0.4235
  551MOL0     H74335   3.132  12.406   3.411  1.5664 -2.1443  1.3907
  551MOL0     H74336   3.269  12.754   3.300 -1.7090  0.4865  0.0968
  551MOL0     H74337   3.383  12.953   3.419 -0.4598  0.5353  0.0315
  551MOL0     H74338   3.338  12.937   3.591 -1.6951 -0.1198 -0.8701
  551MOL0     H74339   3.595  12.842   3.600  0.3347 -2.0150 -2.3319
  551MOL0     H74340   3.591  12.905   3.440 -2.7197  0.9069 -2.0059
  551MOL0     H74341   3.683  13.074   3.573 -0.5760  0.6122 -0.6009
  551MOL0     H74342   3.560  13.063   3.695 -1.3159 -1.7718  0.0034
  551MOL0     H74343   3.389  13.168   3.542 -0.8719  4.3225  1.0334
  551MOL0     H74344   3.517  13.173   3.419 -2.1122  1.4248 -0.3356
  551MOL0     H74345   3.345  13.371   3.419  1.0599 -0.7699  0.6784
  551MOL0     H74346   3.262  13.602   3.415 -0.9401 -0.6559  0.7061
  551MOL0     H74347   3.317  14.050   3.420  1.0200  1.7888  2.1280
  551MOL0     H74348   3.197  14.282   3.420 -0.0664  0.8667  1.3468
  551MOL0     H74349   2.789  14.347   3.589  0.3483 -1.8016  1.3647
  551MOL0     H74350   2.924  14.352   3.698  1.7651  2.0854 -0.4404
  551MOL0     H74351   2.987  14.581   3.622 -0.0698  1.1728  0.6579
  551MOL0     H74352   2.859  14.560   3.492  1.5975 -2.0521 -1.0000
  551MOL0     H74353   2.812  14.612   3.791  1.8821 -0.1508 -0.2906
  551MOL0     H74354   2.768  14.697   3.647  0.8900 -0.5460 -0.2325
  551MOL0     H74355   2.625  14.467   3.741  1.1797 -1.6793 -1.6148
  551MOL0     H74356   2.629  14.505   3.572 -1.9425 -0.2851  0.5968
  551MOL0     H74357   2.596  14.740   3.764  1.5488 -1.2799  0.5988
  551MOL0     H74358   2.457  14.633   3.762 -1.6556 -0.9838 -3.0583
  551MOL0     H74359   2.576  14.771   3.521  0.1471  0.0193  0.9895
  551MOL0     H74360   2.424  14.680   3.527 -0.0428 -0.2863  0.7110
  551MOL0     H74361   2.487  14.947   3.669  1.3724 -1.4102  1.3256
  551MOL0     H74362   2.358  14.840   3.722  1.7742  2.4616  2.4089
  551MOL0     H74363   2.277  14.837   3.476 -0.8363 -0.2419 -0.0588
  551MOL0     H74364   2.258  14.981   3.588 -0.4736 -2.5828  0.8015
  551MOL0     H74365   2.861  14.103   3.615  0.0089 -1.6742  1.6432
  551MOL0     H74366   2.980  13.894   3.628 -2.1951  2.4724  1.2074
  551MOL0     H74367   3.584  13.707   3.683  2.3666 -1.2311 -2.6792
  551MOL0     H74368   3.661  13.491   3.682 -0.8147 -0.7986  0.8896
  551MOL0     H74369   3.666  11.497   3.340  1.0332 -2.6902 -0.9423
  551MOL0     H74370   3.590  11.284   3.421 -4.7164 -0.0476  2.6736
  551MOL0     H74371   3.769  10.819   3.650 -1.8139 -1.2593 -2.7210
  551MOL0     H74372   3.662  10.620   3.772 -0.5222  0.0790 -0.0949
  551MOL0     H74373   3.321  10.667   3.888  2.2403  1.0663 -1.0014
  551MOL0     H74374   3.343  10.691   4.068  1.3620  1.4626  0.0537
  551MOL0     H74375   3.374  10.419   3.928  0.2700 -2.7254  0.8437
  551MOL0     H74376   3.218  10.464   4.000  0.7256 -2.3338  1.4075
  551MOL0     H74377   3.320  10.475   4.216 -2.6010  1.8144 -3.2988
  551MOL0     H74378   3.487  10.447   4.165  0.0695 -1.4170  1.0124
  551MOL0     H74379   3.393  10.208   4.076  0.3862 -1.7486  1.9252
  551MOL0     H74380   3.418  10.225   4.244  1.4896  1.4756 -0.4384
  551MOL0     H74381   2.998  10.208   4.248  0.6473  5.8013  1.8442
  551MOL0     H74382   3.446  10.877   4.019 -0.4577 -0.3689 -0.7772
  551MOL0     H74383   3.461  11.161   3.852  2.0822 -0.6512 -3.5526
  551MOL0     H74384   3.485  11.100   4.021 -0.3693  1.5919  0.5295
  551MOL0     H74385   3.608  11.187   3.947 -0.3151 -0.4908  0.3825
  552MOL0     O74386   6.298   5.090   2.472 -0.2211 -0.5706 -0.4990
  552MOL0     C74387   6.356   5.174   2.547 -0.0447 -0.2789  0.0971
  552MOL0     O74388   6.308   5.288   2.598  0.1805  0.3031 -0.6197
  552MOL0     C74389   6.173   5.312   2.597  0.0843  0.6003 -0.2406
  552MOL0     C74390   6.087   5.309   2.493  0.2409  0.5464 -0.0301
  552MOL0     C74391   5.953   5.336   2.504 -0.3416  0.9788 -0.5480
  552MOL0     C74392   5.900   5.382   2.629  0.6426  0.7846 -0.1133
  552MOL0     O74393   5.769   5.402   2.632  0.1690 -0.6669  0.0065
  552MOL0     C74394   5.703   5.392   2.757 -0.2952  0.9035 -0.3061
  552MOL0     C74395   5.557   5.414   2.735 -0.0891 -0.0930  0.1844
  552MOL0     C74396   5.493   5.326   2.634 -0.9382  0.3983 -0.1054
  552MOL0     C74397   5.534   5.172   2.636 -0.2151  1.2997  0.4603
  552MOL0     C74398   5.472   5.108   2.761  0.4335 -0.2926 -0.5502
  552MOL0     C74399   5.479   4.951   2.748  0.0484  0.1747  0.1245
  552MOL0     C74400   5.607   4.894   2.701  0.5815 -0.0914  0.4311
  552MOL0     C74401   5.640   4.757   2.763 -0.3337 -0.3056  0.1920
  552MOL0     N74402   5.719   4.669   2.678  0.2363 -0.3513  1.2306
  552MOL0     C74403   5.681   4.617   2.551  0.1900 -0.0720 -0.3151
  552MOL0     C74404   5.789   4.560   2.496 -0.2147  0.9179 -0.8339
  552MOL0     C74405   5.787   4.490   2.365 -1.1060  0.8225  0.2082
  552MOL0     C74406   5.907   4.528   2.276  0.0014 -0.3733 -0.6934
  552MOL0     C74407   5.929   4.422   2.168 -0.2636  0.4164  0.1983
  552MOL0     C74408   6.048   4.329   2.208 -0.6817 -0.6695  0.5610
  552MOL0     O74409   6.171   4.412   2.217 -0.6515 -0.1151  0.3194
  552MOL0     C74410   6.276   4.352   2.285 -0.0010 -0.7503 -0.1048
  552MOL0     C74411   6.328   4.237   2.224  0.2945  0.6676 -0.7350
  552MOL0     C74412   6.429   4.171   2.295  1.1402 -0.2554  0.1269
  552MOL0     C74413   6.484   4.223   2.405  0.0224  0.2911 -0.7546
  552MOL0     C74414   6.602   4.169   2.465 -0.0709 -0.1813 -0.4188
  552MOL0     O74415   6.624   4.195   2.594 -0.6064  0.2891  0.1235
  552MOL0     C74416   6.726   4.116   2.645  0.4646  0.9975 -0.3742
  552MOL0     C74417   6.706   3.976   2.673 -0.0302 -0.1146  0.4115
  552MOL0     C74418   6.809   3.894   2.736 -0.0710 -0.4607  0.4726
  552MOL0     C74419   6.925   3.958   2.773 -0.6991 -0.2402 -0.0345
  552MOL0     O74420   7.027   3.877   2.823 -0.0391  0.1764 -0.0886
  552MOL0     C74421   7.159   3.929   2.855  0.4291 -0.4941 -0.0877
  552MOL0     C74422   7.201   3.866   2.988  0.5052 -0.4420  0.1595
  552MOL0     C74423   7.278   3.960   3.079  0.2165  0.6049 -0.3898
  552MOL0     C74424   7.358   3.890   3.185 -0.4548  0.4289 -0.2642
  552MOL0     C74425   7.477   3.967   3.254 -0.6055  0.8047  0.5899
  552MOL0     C74426   7.582   3.883   3.332 -0.3966 -0.2516  0.3875
  552MOL0     C74427   7.531   3.843   3.473 -0.2348  0.2788  0.6965
  552MOL0     C74428   7.621   3.744   3.539  1.0578 -0.1414 -0.3480
  552MOL0    Cl74429   7.560   3.576   3.513 -0.2651  0.1001  0.0316
  552MOL0     C74430   6.944   4.091   2.727 -0.9800 -0.1473 -0.8114
  552MOL0     C74431   6.848   4.173   2.662  0.4325 -0.2132 -0.2290
  552MOL0     O74432   6.671   4.096   2.397 -0.2036  0.7910 -0.8834
  552MOL0     C74433   6.427   4.328   2.476  1.0259 -0.0838 -0.1307
  552MOL0     C74434   6.323   4.396   2.411 -0.3982 -0.2983 -0.4370
  552MOL0     N74435   5.890   4.566   2.599  0.4020  0.6871 -0.3889
  552MOL0     N74436   5.844   4.632   2.702  0.2157  0.2942 -0.2803
  552MOL0     C74437   5.990   5.399   2.735 -1.0340 -1.0109  0.6454
  552MOL0     C74438   6.126   5.382   2.711  0.3834 -0.1019 -0.1290
  552MOL0     C74439   6.494   5.150   2.579  0.4757  0.2844 -0.0433
  552MOL0     C74440   6.570   5.075   2.484  0.6364  0.0694 -0.7549
  552MOL0     C74441   6.692   5.025   2.516  0.6549 -0.9462  0.2392
  552MOL0     C74442   6.751   5.061   2.639  0.1592  1.3145  0.1589
  552MOL0     O74443   6.873   5.022   2.675  0.7486 -0.0706 -0.5850
  552MOL0     C74444   6.961   4.965   2.573 -0.2689  0.7623 -1.0401
  552MOL0     C74445   7.004   5.060   2.464 -0.0683 -0.1465  0.2369
  552MOL0     C74446   7.059   5.196   2.511 -0.2992 -0.4200  0.4485
  552MOL0     C74447   7.121   5.266   2.388  0.7735  0.3601  0.0956
  552MOL0     C74448   7.206   5.377   2.435 -0.0241  0.3645  0.3741
  552MOL0     C74449   7.281   5.469   2.450  0.0730  0.2914 -0.1381
  552MOL0     C74450   6.682   5.138   2.732 -0.6493  0.3276 -0.6058
  552MOL0     C74451   6.556   5.180   2.706 -0.4430 -0.6021 -0.9166
  552MOL0     C74452   6.491   5.264   2.820  0.1965  0.7355  0.2491
  552MOL0     H74453   6.121   5.276   2.395 -2.1300 -3.7818  0.3742
  552MOL0     H74454   5.899   5.316   2.412  3.2383 -4.2909 -2.0022
  552MOL0     H74455   5.713   5.288   2.789 -1.4420  0.2846 -1.8631
  552MOL0     H74456   5.732   5.463   2.835 -6.3705  0.6026  2.7752
  552MOL0     H74457   5.540   5.519   2.711 -0.5174 -0.6835 -2.3974
  552MOL0     H74458   5.501   5.396   2.828  0.7287 -3.2419  0.1741
  552MOL0     H74459   5.518   5.355   2.532  1.2776  1.6515  0.7260
  552MOL0     H74460   5.386   5.348   2.641 -0.8130  1.6362 -1.5541
  552MOL0     H74461   5.492   5.132   2.543  4.2583  0.9323 -1.6500
  552MOL0     H74462   5.643   5.164   2.624 -0.4438  0.6076 -1.5854
  552MOL0     H74463   5.540   5.134   2.842  2.7908 -1.5397 -1.9994
  552MOL0     H74464   5.374   5.148   2.788  0.7458  1.8287 -2.2873
  552MOL0     H74465   5.445   4.899   2.839  0.4712 -1.1336 -0.4432
  552MOL0     H74466   5.400   4.918   2.679  0.7074 -1.6228  0.1886
  552MOL0     H74467   5.703   4.947   2.707  1.3047 -1.5376  3.5000
  552MOL0     H74468   5.594   4.888   2.593  0.3416  1.3954  0.3465
  552MOL0     H74469   5.692   4.774   2.858 -1.3845  1.7930  0.4609
  552MOL0     H74470   5.549   4.697   2.774 -0.0705 -0.7935 -0.2743
  552MOL0     H74471   5.582   4.630   2.510 -0.3036  1.9148  1.3719
  552MOL0     H74472   5.817   4.388   2.389 -1.0635  0.8108  0.1073
  552MOL0     H74473   5.695   4.493   2.307 -1.6349  5.6838  0.8270
  552MOL0     H74474   5.880   4.620   2.223  0.7863  0.1245 -0.2472
  552MOL0     H74475   5.997   4.543   2.337  0.7491 -2.9445 -1.0458
  552MOL0     H74476   5.949   4.470   2.072 -0.1663 -0.1547 -0.0670
  552MOL0     H74477   5.835   4.372   2.146 -1.8815  3.4648 -0.4575
  552MOL0     H74478   6.065   4.254   2.130  3.0957  0.8653 -0.3349
  552MOL0     H74479   6.020   4.281   2.302  0.1925  3.2015  3.0602
  552MOL0     H74480   6.284   4.209   2.129 -1.1328  1.1502 -0.2450
  552MOL0     H74481   6.478   4.085   2.252 -0.2868 -1.4373  0.7374
  552MOL0     H74482   6.603   3.946   2.652 -0.7000  1.0592  1.7977
  552MOL0     H74483   6.793   3.790   2.763  2.0257 -0.3744  2.3445
  552MOL0     H74484   7.232   3.895   2.780 -0.6486 -1.7873 -0.6040
  552MOL0     H74485   7.172   4.037   2.863  0.8462 -0.6193  1.0879
  552MOL0     H74486   7.110   3.840   3.043  0.2899  1.4098  0.7512
  552MOL0     H74487   7.262   3.777   2.970 -2.4206 -3.1430  2.4903
  552MOL0     H74488   7.349   4.025   3.027  0.0275  1.1771  0.0569
  552MOL0     H74489   7.216   4.032   3.133  0.7637 -1.5075  3.3442
  552MOL0     H74490   7.397   3.795   3.148 -0.4136 -1.1073  3.3464
  552MOL0     H74491   7.292   3.875   3.270  1.1173  2.2767  1.3907
  552MOL0     H74492   7.435   4.046   3.316  2.0230  2.1882  0.7266
  552MOL0     H74493   7.535   4.010   3.172 -0.1056 -2.8827 -1.1969
  552MOL0     H74494   7.617   3.795   3.278 -2.0840  0.0596 -1.3384
  552MOL0     H74495   7.656   3.962   3.347 -0.1186 -0.2453 -0.8757
  552MOL0     H74496   7.437   3.790   3.455  0.9848 -1.4047 -1.1870
  552MOL0     H74497   7.522   3.934   3.534  0.4061  0.4594  0.5304
  552MOL0     H74498   7.720   3.756   3.496  3.0553  1.5068  4.1047
  552MOL0     H74499   7.616   3.755   3.648 -0.4951  1.1631 -0.5099
  552MOL0     H74500   7.048   4.123   2.729 -0.7284 -0.8360  2.2725
  552MOL0     H74501   6.881   4.267   2.619  2.5060 -0.2978  1.0333
  552MOL0     H74502   6.449   4.373   2.572  1.5636  0.9298 -0.7014
  552MOL0     H74503   6.272   4.485   2.447 -1.5002 -0.9864 -0.2567
  552MOL0     H74504   5.955   5.456   2.820  0.3963  0.1340  0.5080
  552MOL0     H74505   6.189   5.415   2.793  1.9400  0.6903 -1.5787
  552MOL0     H74506   6.527   5.064   2.385 -0.2358  1.8697 -0.6172
  552MOL0     H74507   6.729   4.954   2.442 -0.9990  0.0831 -1.7000
  552MOL0     H74508   6.923   4.867   2.544 -0.9869  0.3490  1.1249
  552MOL0     H74509   7.051   4.951   2.634  1.5289  0.4470 -3.5746
  552MOL0     H74510   6.919   5.075   2.397  0.9994  4.2330 -0.4661
  552MOL0     H74511   7.085   5.013   2.407  0.5069 -0.8678  1.6084
  552MOL0     H74512   7.129   5.190   2.595  3.1727 -1.4893 -2.3138
  552MOL0     H74513   6.978   5.256   2.555 -1.8971 -3.4877  2.0506
  552MOL0     H74514   7.171   5.198   2.318 -0.9575  1.4085 -2.2859
  552MOL0     H74515   7.045   5.317   2.329  0.7438 -0.6071 -0.7368
  552MOL0     H74516   7.362   5.539   2.455  1.6650 -1.3668 -1.2388
  552MOL0     H74517   6.739   5.176   2.816  0.0011  0.3506 -1.0497
  552MOL0     H74518   6.474   5.367   2.787 -0.2765  0.2993 -0.9637
  552MOL0     H74519   6.392   5.220   2.836 -0.0968  1.2040 -0.2226
  552MOL0     H74520   6.555   5.259   2.908  0.9171 -1.5003 -0.3320
  553MOL0     O74521   2.114   7.251   1.053  0.5956  0.2445  0.4446
  553MOL0     C74522   2.057   7.176   1.138 -0.4350  0.0592 -0.3234
  553MOL0     O74523   1.994   7.058   1.110 -0.5728 -0.3584  0.3986
  553MOL0     C74524   2.026   6.974   1.007 -0.8352 -0.6363 -1.0323
  553MOL0     C74525   2.054   6.995   0.875  0.2535 -0.1744 -0.0718
  553MOL0     C74526   2.108   6.898   0.789  0.1307  0.2865  0.2923
  553MOL0     C74527   2.090   6.760   0.816  0.6125 -0.0799  0.7666
  553MOL0     O74528   2.099   6.673   0.711 -0.4139  0.0465  0.3803
  553MOL0     C74529   2.012   6.561   0.698 -0.6629  0.0764  0.4369
  553MOL0     C74530   1.927   6.581   0.577 -0.3597  0.1900 -0.0854
  553MOL0     C74531   1.800   6.484   0.575 -0.0373 -0.4767 -1.6806
  553MOL0     C74532   1.717   6.498   0.439  0.4248  0.3430 -0.5232
  553MOL0     C74533   1.585   6.407   0.432 -0.9895 -0.8092  0.4405
  553MOL0     C74534   1.532   6.393   0.282  0.4614  0.7832 -0.8485
  553MOL0     C74535   1.382   6.357   0.295 -0.3665 -0.0664 -0.2452
  553MOL0     C74536   1.332   6.314   0.149  0.0566 -0.4422  0.3135
  553MOL0     N74537   1.193   6.279   0.138  1.4514 -0.7833 -0.5712
  553MOL0     C74538   1.105   6.209   0.227  0.1036  0.2751  0.4329
  553MOL0     C74539   0.992   6.173   0.149 -0.0104  0.1476 -0.6042
  553MOL0     C74540   0.870   6.106   0.204  0.0399 -0.0607  0.6103
  553MOL0     C74541   0.762   6.193   0.275  0.0573 -0.1488  0.8985
  553MOL0     C74542   0.815   6.291   0.392 -0.2350 -0.7611  0.1417
  553MOL0     C74543   0.874   6.202   0.504  0.3894  0.0274 -0.7234
  553MOL0     O74544   0.779   6.116   0.558 -0.3429 -0.0124 -0.7696
  553MOL0     C74545   0.811   6.066   0.686  0.3162  0.4286 -0.3015
  553MOL0     C74546   0.757   5.945   0.716 -0.6562 -0.3532  0.5966
  553MOL0     C74547   0.782   5.895   0.848 -0.4264  0.0897  0.2457
  553MOL0     C74548   0.850   5.959   0.943  0.0214  0.2941  0.8434
  553MOL0     C74549   0.866   5.904   1.079 -0.1568  0.0920  0.6556
  553MOL0     O74550   0.912   5.994   1.177 -0.1286  0.1109  0.3662
  553MOL0     C74551   0.940   5.953   1.299 -0.1259  0.7559 -0.7898
  553MOL0     C74552   0.889   6.029   1.399  0.6973 -0.1894 -0.1617
  553MOL0     C74553   0.909   6.008   1.535  0.4753 -0.2334  0.9848
  553MOL0     C74554   0.985   5.902   1.573  0.0274  0.6067 -0.0122
  553MOL0     O74555   1.000   5.870   1.705  0.0762 -0.5822 -0.5110
  553MOL0     C74556   1.039   5.962   1.803  0.3513 -0.7312 -0.8278
  553MOL0     C74557   1.161   6.056   1.773  0.2328  0.6689  0.1105
  553MOL0     C74558   1.212   6.128   1.904  0.2992  0.1499  0.7120
  553MOL0     C74559   1.149   6.262   1.948 -0.6465  1.0395 -0.0465
  553MOL0     C74560   1.172   6.313   2.095 -0.1807 -0.6975 -0.3468
  553MOL0     C74561   1.315   6.371   2.115 -0.5819  0.7151  0.0272
  553MOL0     C74562   1.330   6.416   2.259  0.3461 -0.5083  0.0105
  553MOL0     C74563   1.237   6.531   2.290  0.3049 -0.2858 -0.3519
  553MOL0    Cl74564   1.280   6.601   2.452  0.2078  0.4108  0.3927
  553MOL0     C74565   1.043   5.814   1.473  0.0510 -0.4348  1.0190
  553MOL0     C74566   1.012   5.838   1.336 -0.2819 -1.1506 -0.2038
  553MOL0     O74567   0.838   5.784   1.100 -0.8544 -0.1107 -0.4463
  553MOL0     C74568   0.896   6.087   0.916 -0.3999 -1.1254  0.5959
  553MOL0     C74569   0.876   6.141   0.788 -0.3137 -0.5090 -0.5007
  553MOL0     N74570   1.009   6.228   0.026  0.2928  0.5437 -0.7154
  553MOL0     N74571   1.124   6.282   0.021  0.5305  0.8789  0.8642
  553MOL0     C74572   2.048   6.734   0.945 -0.9561 -0.9734 -0.3196
  553MOL0     C74573   2.021   6.838   1.035  0.1498  0.3267 -0.7308
  553MOL0     C74574   2.024   7.228   1.273  0.3364 -0.4672 -0.1235
  553MOL0     C74575   1.899   7.205   1.332 -0.4357  0.7409 -1.1867
  553MOL0     C74576   1.862   7.255   1.459 -0.7947 -0.5225 -0.6332
  553MOL0     C74577   1.953   7.333   1.529  0.4775  0.6982 -0.4953
  553MOL0     O74578   1.933   7.368   1.658  0.1214 -1.1954 -0.5521
  553MOL0     C74579   1.818   7.459   1.682 -0.9019 -0.4565 -0.2066
  553MOL0     C74580   1.868   7.561   1.795  0.2148  0.9750 -0.2965
  553MOL0     C74581   1.881   7.508   1.937  0.2900 -0.5349  0.7272
  553MOL0     C74582   1.984   7.589   2.015  1.0302 -0.4668  0.0200
  553MOL0     C74583   1.993   7.528   2.151 -0.7789 -0.2197 -0.6702
  553MOL0     C74584   2.002   7.485   2.264 -0.0037 -1.1813 -1.2810
  553MOL0     C74585   2.077   7.358   1.474 -0.2571 -0.1886  0.4153
  553MOL0     C74586   2.115   7.306   1.353  0.5140 -0.8065 -0.6053
  553MOL0     C74587   2.256   7.320   1.316 -0.0325  0.1005 -0.0268
  553MOL0     H74588   2.070   7.099   0.847  0.3858 -0.3141 -0.5212
  553MOL0     H74589   2.152   6.927   0.694  1.7482  0.0419  0.9437
  553MOL0     H74590   2.063   6.464   0.698 -0.9982 -0.1081  1.3163
  553MOL0     H74591   1.941   6.551   0.780  2.7032  0.3119  3.6292
  553MOL0     H74592   1.996   6.568   0.493  1.0286  1.2796  0.8164
  553MOL0     H74593   1.886   6.682   0.572 -2.9144 -0.6259  2.0220
  553MOL0     H74594   1.733   6.491   0.661  0.8745 -0.7466 -0.9322
  553MOL0     H74595   1.838   6.381   0.579 -3.8750 -2.0926 -1.4647
  553MOL0     H74596   1.689   6.603   0.425 -2.2090 -0.2307 -0.0728
  553MOL0     H74597   1.778   6.455   0.359 -1.6842 -1.0636 -1.4889
  553MOL0     H74598   1.601   6.307   0.474 -0.0092 -0.4819  0.8678
  553MOL0     H74599   1.510   6.452   0.497 -0.0764  0.5446  0.6001
  553MOL0     H74600   1.538   6.490   0.234 -3.6921  3.4742  3.2058
  553MOL0     H74601   1.591   6.313   0.237  0.5087 -1.7606  3.1580
  553MOL0     H74602   1.328   6.449   0.319  0.6943  0.4224  0.3759
  553MOL0     H74603   1.356   6.285   0.373 -1.3110 -0.9972 -1.3868
  553MOL0     H74604   1.363   6.391   0.077  2.1651 -2.0271 -0.5972
  553MOL0     H74605   1.391   6.226   0.122  1.9958  0.9818 -0.3624
  553MOL0     H74606   1.121   6.174   0.329  2.2504  2.3386  0.9014
  553MOL0     H74607   0.818   6.056   0.122 -0.3114  2.4459 -0.7841
  553MOL0     H74608   0.918   6.032   0.269  1.0599 -0.8171 -0.9613
  553MOL0     H74609   0.707   6.258   0.206  3.5151  1.8108 -0.2328
  553MOL0     H74610   0.684   6.127   0.314 -0.6907 -0.2053 -0.6409
  553MOL0     H74611   0.736   6.350   0.440  0.7564  0.7038  0.0331
  553MOL0     H74612   0.899   6.357   0.367  2.4073 -4.0626 -0.4507
  553MOL0     H74613   0.922   6.263   0.580  1.9520 -0.8049 -1.0017
  553MOL0     H74614   0.950   6.132   0.468  1.4507  1.8096 -2.0728
  553MOL0     H74615   0.710   5.886   0.638 -0.1455 -2.5233  1.8367
  553MOL0     H74616   0.738   5.799   0.876  0.9008 -1.3001 -2.0938
  553MOL0     H74617   0.819   6.105   1.366  0.2290 -1.3081 -1.9086
  553MOL0     H74618   0.859   6.062   1.615  1.2221  0.2807  1.1096
  553MOL0     H74619   0.957   6.030   1.829  0.2273 -0.6264 -1.4894
  553MOL0     H74620   1.065   5.892   1.883 -0.0208  0.0508 -0.0073
  553MOL0     H74621   1.240   5.995   1.728 -2.3980 -1.5630 -1.8791
  553MOL0     H74622   1.129   6.131   1.700  1.0335 -1.1121 -2.2257
  553MOL0     H74623   1.188   6.060   1.987  2.2914  1.4949  2.4874
  553MOL0     H74624   1.319   6.148   1.905  0.9119 -2.6828  0.7639
  553MOL0     H74625   1.041   6.256   1.930 -0.5166 -1.0912 -0.3516
  553MOL0     H74626   1.179   6.342   1.880 -0.1394  0.4168 -0.5719
  553MOL0     H74627   1.159   6.223   2.156 -1.9443  0.2511  0.7464
  553MOL0     H74628   1.089   6.376   2.126 -3.1092 -5.6544  3.4580
  553MOL0     H74629   1.390   6.295   2.095  1.5741  2.3675  1.4352
  553MOL0     H74630   1.342   6.457   2.053  2.4340 -1.2422 -1.5614
  553MOL0     H74631   1.433   6.446   2.280  1.3991 -3.7628 -0.0133
  553MOL0     H74632   1.314   6.338   2.334  0.5324 -0.1437  0.4383
  553MOL0     H74633   1.256   6.605   2.213 -2.6070  0.5135 -0.3968
  553MOL0     H74634   1.133   6.499   2.285 -0.3152  1.0486  2.2567
  553MOL0     H74635   1.114   5.734   1.491  0.2581 -0.8094 -1.1640
  553MOL0     H74636   1.049   5.765   1.265  2.5498 -2.9080  2.8304
  553MOL0     H74637   0.944   6.141   0.997 -3.2201 -0.4263  1.9111
  553MOL0     H74638   0.915   6.241   0.768  2.1541 -1.1612  0.6491
  553MOL0     H74639   2.045   6.633   0.984  1.9128 -0.6280  1.0861
  553MOL0     H74640   1.998   6.809   1.137  1.3932 -1.4797 -0.8977
  553MOL0     H74641   1.837   7.136   1.276 -1.4114  1.7987 -1.4397
  553MOL0     H74642   1.764   7.238   1.503 -1.5564  1.3086 -1.5049
  553MOL0     H74643   1.728   7.400   1.701 -0.4254 -1.8446 -1.9484
  553MOL0     H74644   1.797   7.525   1.598  0.6746  0.8410  0.3599
  553MOL0     H74645   1.794   7.641   1.798  1.0159  1.6915  1.6448
  553MOL0     H74646   1.968   7.597   1.770  1.4392 -0.3387  2.3270
  553MOL0     H74647   1.930   7.411   1.929 -1.3373 -1.4280  1.0985
  553MOL0     H74648   1.784   7.491   1.985 -0.8513  0.3763 -1.1323
  553MOL0     H74649   2.083   7.585   1.969  0.7516  0.8639 -0.7270
  553MOL0     H74650   1.943   7.690   2.018 -0.3444 -0.8747 -2.6056
  553MOL0     H74651   2.015   7.453   2.365 -1.0363  2.5365  0.1961
  553MOL0     H74652   2.151   7.415   1.529  0.4523  2.1772 -2.6601
  553MOL0     H74653   2.319   7.369   1.391 -2.1955  1.3856  1.0119
  553MOL0     H74654   2.307   7.224   1.299 -0.2505  0.0522 -0.4194
  553MOL0     H74655   2.264   7.379   1.224 -0.5551  1.5635  0.8555
  554MOL0     O74656   5.862   0.572   0.547 -0.2168  0.3002  0.5681
  554MOL0     C74657   5.830   0.679   0.594  0.0820 -0.2210 -1.1080
  554MOL0     O74658   5.767   0.691   0.710 -0.3409  0.4558 -0.7287
  554MOL0     C74659   5.709   0.579   0.767  0.3953  0.4875 -1.0124
  554MOL0     C74660   5.784   0.489   0.840 -0.1954  0.0701  0.0645
  554MOL0     C74661   5.725   0.394   0.935  0.2436  0.3733  0.1095
  554MOL0     C74662   5.586   0.373   0.933  0.4608  0.0271 -0.1186
  554MOL0     O74663   5.540   0.274   1.015 -0.3742 -0.0250  0.9907
  554MOL0     C74664   5.394   0.268   1.041 -0.3933  0.5225 -0.0017
  554MOL0     C74665   5.330   0.401   1.115 -0.1854  0.7363  0.5607
  554MOL0     C74666   5.212   0.384   1.209  0.3632 -0.3614 -1.1340
  554MOL0     C74667   5.182   0.516   1.284 -0.3764 -0.3360  0.7934
  554MOL0     C74668   5.051   0.539   1.363 -0.4489  0.2954  0.3333
  554MOL0     C74669   4.930   0.593   1.273 -0.0246  0.3252 -0.2981
  554MOL0     C74670   4.966   0.739   1.215  0.3354 -0.1698  1.0763
  554MOL0     C74671   4.836   0.831   1.211 -0.3268 -0.0603 -0.2232
  554MOL0     N74672   4.809   0.866   1.078  1.3223 -0.4799  0.6562
  554MOL0     C74673   4.814   0.996   1.030 -1.6147 -0.3020  0.3326
  554MOL0     C74674   4.770   0.984   0.903 -0.0567 -0.9877  0.3312
  554MOL0     C74675   4.741   1.094   0.810  0.7027  0.1789 -0.2317
  554MOL0     C74676   4.675   1.211   0.891  0.1746 -0.6041  0.0668
  554MOL0     C74677   4.710   1.348   0.834 -0.4787 -0.2456 -0.2926
  554MOL0     C74678   4.602   1.454   0.858 -0.5290  0.3775  0.0320
  554MOL0     O74679   4.651   1.568   0.791  0.3859 -0.2908 -0.2458
  554MOL0     C74680   4.572   1.680   0.806 -0.5249 -0.6336 -0.7475
  554MOL0     C74681   4.632   1.800   0.862 -0.2367  0.7564  0.7893
  554MOL0     C74682   4.559   1.919   0.871 -0.0823 -0.0403 -0.0160
  554MOL0     C74683   4.425   1.933   0.821 -0.3203 -0.0824  0.0580
  554MOL0     C74684   4.361   2.063   0.835  0.0976  0.3020  0.3274
  554MOL0     O74685   4.223   2.065   0.815 -0.1286  0.0254 -0.4482
  554MOL0     C74686   4.157   2.175   0.869 -0.1237 -0.6501 -0.5471
  554MOL0     C74687   4.184   2.227   0.997 -1.1797 -0.4452  1.0712
  554MOL0     C74688   4.114   2.341   1.039 -0.1194 -0.0177 -0.5128
  554MOL0     C74689   4.005   2.389   0.955 -0.7499 -0.9415  0.6708
  554MOL0     O74690   3.911   2.478   0.997  0.1125  0.7358 -0.6082
  554MOL0     C74691   3.892   2.501   1.130  0.6982  0.7348 -0.7112
  554MOL0     C74692   3.930   2.647   1.164  1.3056 -0.6717  0.1123
  554MOL0     C74693   4.074   2.657   1.216 -0.1654 -0.1324 -0.1067
  554MOL0     C74694   4.108   2.796   1.270  0.4579 -0.2739 -0.3602
  554MOL0     C74695   4.239   2.782   1.354  1.0299 -0.6945  0.5736
  554MOL0     C74696   4.318   2.915   1.379 -0.3279 -0.1867  0.6688
  554MOL0     C74697   4.356   2.982   1.251 -1.3098  0.2432  0.2639
  554MOL0     C74698   4.500   3.040   1.251  0.4187  0.1480 -0.4210
  554MOL0    Cl74699   4.518   3.105   1.088 -0.0083 -0.0982  0.0405
  554MOL0     C74700   3.983   2.335   0.829  0.1903 -0.6783 -1.1297
  554MOL0     C74701   4.057   2.220   0.793  0.3091  0.5101 -0.8976
  554MOL0     O74702   4.431   2.159   0.870  0.7241  0.2899  0.1670
  554MOL0     C74703   4.369   1.819   0.758 -0.5783 -0.4959 -0.2038
  554MOL0     C74704   4.441   1.698   0.759  0.4345 -0.3499  0.5786
  554MOL0     N74705   4.739   0.855   0.867 -0.0268  0.1052  0.1812
  554MOL0     N74706   4.757   0.785   0.977  0.1598  0.8553 -0.9138
  554MOL0     C74707   5.506   0.467   0.855  0.6837  0.9533 -0.7381
  554MOL0     C74708   5.571   0.557   0.771  0.8197 -0.3921 -0.6791
  554MOL0     C74709   5.845   0.800   0.514  0.8228  0.4367  0.5560
  554MOL0     C74710   5.770   0.914   0.551 -1.3831  0.3643 -0.5980
  554MOL0     C74711   5.768   1.034   0.482 -0.5306 -0.5157  0.8837
  554MOL0     C74712   5.832   1.037   0.355 -0.0649 -0.0962  0.0829
  554MOL0     O74713   5.815   1.153   0.281 -0.1812 -0.1055 -0.4304
  554MOL0     C74714   5.839   1.147   0.144  0.3042  0.2932  0.0584
  554MOL0     C74715   5.727   1.086   0.069 -0.4787 -0.1649 -0.0680
  554MOL0     C74716   5.587   1.151   0.095  0.0248 -0.4895  0.8112
  554MOL0     C74717   5.478   1.059   0.027 -0.8957 -0.0919 -0.3571
  554MOL0     C74718   5.498   1.076  -0.121  0.2802 -0.0142 -0.7550
  554MOL0     C74719   5.512   1.085  -0.238 -0.2442 -0.6262 -0.4865
  554MOL0     C74720   5.899   0.925   0.311  0.0043  0.2384  0.8928
  554MOL0     C74721   5.902   0.810   0.390 -0.3225  0.5824  1.2055
  554MOL0     C74722   5.996   0.701   0.337 -1.1980  0.8901  0.0977
  554MOL0     H74723   5.891   0.506   0.847 -0.0466 -1.0290  0.5924
  554MOL0     H74724   5.776   0.328   1.005  0.1837  2.5041  2.2825
  554MOL0     H74725   5.347   0.267   0.942  2.5722 -1.0142 -1.5192
  554MOL0     H74726   5.364   0.176   1.092 -1.2442  0.4470 -0.6091
  554MOL0     H74727   5.301   0.478   1.043 -1.7881  1.3401  1.7960
  554MOL0     H74728   5.404   0.449   1.181  0.8132 -1.5960  1.2588
  554MOL0     H74729   5.235   0.298   1.272  2.9115 -0.4920 -2.1364
  554MOL0     H74730   5.122   0.355   1.154 -1.1859  1.4654  0.2925
  554MOL0     H74731   5.269   0.543   1.345 -1.5069  2.3962  1.3620
  554MOL0     H74732   5.188   0.588   1.201 -2.2957 -1.5894 -0.5091
  554MOL0     H74733   5.001   0.447   1.393  0.0865  0.0724  0.5581
  554MOL0     H74734   5.076   0.592   1.455  2.0043 -3.3498  1.9923
  554MOL0     H74735   4.926   0.517   1.195  1.7908 -3.4697  2.9080
  554MOL0     H74736   4.830   0.586   1.318 -0.8883  0.7951 -2.0503
  554MOL0     H74737   5.009   0.728   1.115 -2.3597 -1.9620 -0.0002
  554MOL0     H74738   5.043   0.776   1.284  0.6795 -0.1678  0.6986
  554MOL0     H74739   4.758   0.775   1.263  2.2914 -1.3784  2.5943
  554MOL0     H74740   4.841   0.923   1.270 -0.0282 -0.7504  0.8768
  554MOL0     H74741   4.864   1.082   1.074  4.0843 -2.5130 -0.9771
  554MOL0     H74742   4.838   1.127   0.771  0.2436 -0.3276 -1.9077
  554MOL0     H74743   4.688   1.064   0.719  0.5817  3.6921 -1.4875
  554MOL0     H74744   4.567   1.197   0.882  0.2752 -1.9849  0.7175
  554MOL0     H74745   4.695   1.207   0.999  0.3017 -1.1415  0.0232
  554MOL0     H74746   4.717   1.346   0.725  0.8524  1.5249 -0.2993
  554MOL0     H74747   4.808   1.377   0.874 -0.5019  0.0972 -0.4750
  554MOL0     H74748   4.595   1.477   0.964  3.0316 -1.0424  0.6867
  554MOL0     H74749   4.506   1.413   0.824 -1.1594 -0.2211  2.4050
  554MOL0     H74750   4.738   1.807   0.884 -0.0821 -3.0180  2.0495
  554MOL0     H74751   4.602   2.013   0.904 -2.0632  1.0687 -0.4703
  554MOL0     H74752   4.241   2.170   1.070  2.1415  3.6483  2.0952
  554MOL0     H74753   4.143   2.395   1.129  2.4431  1.7558 -2.2459
  554MOL0     H74754   3.784   2.502   1.149  0.6068  5.9066  0.1691
  554MOL0     H74755   3.935   2.425   1.196 -0.5714  1.8642  1.5661
  554MOL0     H74756   3.921   2.705   1.071 -1.1341 -1.2260 -0.0607
  554MOL0     H74757   3.858   2.686   1.237  0.3357 -0.8669 -0.7121
  554MOL0     H74758   4.089   2.579   1.291 -1.1269 -0.0530  0.1825
  554MOL0     H74759   4.146   2.620   1.142  1.4148 -1.4572  1.9675
  554MOL0     H74760   4.029   2.839   1.332  0.9214  0.7295 -0.4450
  554MOL0     H74761   4.120   2.866   1.187 -0.6578  1.7951  1.1436
  554MOL0     H74762   4.311   2.726   1.293  1.2685 -2.0016  2.0135
  554MOL0     H74763   4.224   2.720   1.443 -1.6216  0.1392  0.7884
  554MOL0     H74764   4.253   2.992   1.422 -2.0221 -0.8630 -0.5731
  554MOL0     H74765   4.411   2.898   1.436  0.1885 -2.4752 -0.7312
  554MOL0     H74766   4.279   3.050   1.214  3.3970  4.9308 -2.2432
  554MOL0     H74767   4.359   2.900   1.178  2.2504  0.5413 -0.1362
  554MOL0     H74768   4.504   3.118   1.327 -1.8050 -0.5794  0.4985
  554MOL0     H74769   4.574   2.961   1.269 -0.2834 -0.8218 -1.5661
  554MOL0     H74770   3.907   2.374   0.762 -0.7519 -2.5351 -1.1968
  554MOL0     H74771   4.040   2.178   0.695  0.4672 -1.3929 -0.1619
  554MOL0     H74772   4.275   1.819   0.704 -1.3015  1.5547  0.9166
  554MOL0     H74773   4.378   1.621   0.717 -1.2170  0.7408  0.9352
  554MOL0     H74774   5.401   0.442   0.865  1.1050 -0.1272  1.6173
  554MOL0     H74775   5.519   0.617   0.697  3.6736 -0.1052 -2.5934
  554MOL0     H74776   5.722   0.901   0.648  0.2712 -3.3602 -0.1087
  554MOL0     H74777   5.700   1.114   0.510  0.1429 -0.1409  1.4706
  554MOL0     H74778   5.937   1.103   0.123  0.5555  1.9255 -2.5344
  554MOL0     H74779   5.852   1.250   0.111  0.0160  0.1486 -0.5140
  554MOL0     H74780   5.715   0.978   0.084 -1.2803 -0.5460 -2.9615
  554MOL0     H74781   5.773   1.098  -0.029  3.8892 -0.7214  1.6510
  554MOL0     H74782   5.581   1.247   0.043  1.0574 -2.9931 -4.6893
  554MOL0     H74783   5.567   1.160   0.202 -2.4922  1.1356  0.2639
  554MOL0     H74784   5.480   0.956   0.065  2.6055 -0.9229 -2.4410
  554MOL0     H74785   5.381   1.108   0.044 -0.6461  0.1193  0.5097
  554MOL0     H74786   5.494   1.085  -0.344 -2.6661  0.6160 -0.1353
  554MOL0     H74787   5.944   0.916   0.213  0.6395 -2.6979  1.3551
  554MOL0     H74788   6.047   0.741   0.249 -0.5309  2.6182  1.2104
  554MOL0     H74789   6.077   0.670   0.403 -1.9161  1.7178  1.4282
  554MOL0     H74790   5.941   0.609   0.315 -0.8750  0.0596  2.4715
  555MOL0     O74791   7.508   0.284   0.567 -0.6301 -0.7634  0.0434
  555MOL0     C74792   7.416   0.292   0.648  0.2819 -0.7499  0.5709
  555MOL0     O74793   7.315   0.203   0.660 -0.0376  0.1263  0.0984
  555MOL0     C74794   7.325   0.085   0.588  0.0388  0.6284  0.1050
  555MOL0     C74795   7.348  -0.030   0.663  0.0492 -0.3029 -0.3989
  555MOL0     C74796   7.339  -0.160   0.615  0.1845  0.6618 -0.3970
  555MOL0     C74797   7.308  -0.173   0.481  0.1645 -0.1683 -0.5123
  555MOL0     O74798   7.309  -0.295   0.420 -0.3797  0.9541  0.2277
  555MOL0     C74799   7.360  -0.414   0.472 -0.6751  2.5935 -1.0541
  555MOL0     C74800   7.509  -0.408   0.493  0.2394 -0.5027 -0.9617
  555MOL0     C74801   7.590  -0.532   0.537  0.2944  0.9590  0.8192
  555MOL0     C74802   7.543  -0.558   0.687 -0.1171 -0.3175 -0.0484
  555MOL0     C74803   7.473  -0.693   0.712 -0.0564  0.6306 -1.1930
  555MOL0     C74804   7.382  -0.683   0.837  0.2413 -0.1208  0.0405
  555MOL0     C74805   7.453  -0.657   0.968  0.0805 -0.3760  0.1376
  555MOL0     C74806   7.463  -0.513   1.018  0.3896  0.2123  1.1448
  555MOL0     N74807   7.344  -0.438   1.018  1.6752 -0.0438 -0.0301
  555MOL0     C74808   7.225  -0.463   1.080 -0.2649  0.2392  0.2173
  555MOL0     C74809   7.137  -0.372   1.029 -0.2141  0.4866 -0.4804
  555MOL0     C74810   6.995  -0.358   1.068 -0.1992  0.7105 -0.3079
  555MOL0     C74811   6.926  -0.223   1.027  0.2096  0.1642  0.1862
  555MOL0     C74812   6.789  -0.213   1.088  0.1733  0.9975  0.6794
  555MOL0     C74813   6.728  -0.095   1.037 -0.1337 -0.7435 -1.2581
  555MOL0     O74814   6.611  -0.089   1.120 -1.0476 -0.4232 -0.0574
  555MOL0     C74815   6.514   0.009   1.110  0.1719  0.3580  0.8623
  555MOL0     C74816   6.502   0.095   1.005  0.8699 -0.4741 -0.3033
  555MOL0     C74817   6.389   0.178   0.997  0.0872 -0.1129 -0.2007
  555MOL0     C74818   6.290   0.180   1.093  1.6861  0.6961 -0.8449
  555MOL0     C74819   6.181   0.275   1.096 -0.4742  0.7226  0.0914
  555MOL0     O74820   6.073   0.238   1.174 -0.1269 -0.1510  0.2649
  555MOL0     C74821   5.993   0.340   1.222 -0.5832 -0.4357  0.0990
  555MOL0     C74822   5.867   0.293   1.258  0.0262 -0.2138 -0.4312
  555MOL0     C74823   5.776   0.376   1.317  0.0238 -1.0127 -0.5642
  555MOL0     C74824   5.813   0.508   1.350 -1.1075  0.1401  0.6348
  555MOL0     O74825   5.718   0.601   1.383  0.4812 -0.1266  0.2906
  555MOL0     C74826   5.713   0.738   1.328 -0.3380  0.2102 -0.3454
  555MOL0     C74827   5.573   0.793   1.310  0.4917 -0.6075  0.0468
  555MOL0     C74828   5.527   0.824   1.445 -0.1799  0.4966 -0.2695
  555MOL0     C74829   5.387   0.876   1.452 -0.1301  0.1177 -0.6560
  555MOL0     C74830   5.299   0.821   1.561  0.2292  0.1686 -0.3686
  555MOL0     C74831   5.369   0.832   1.707 -0.3822  0.3108 -0.0436
  555MOL0     C74832   5.256   0.804   1.808 -0.0436  1.2549  1.0495
  555MOL0     C74833   5.306   0.802   1.955  0.4966  1.1018  0.2890
  555MOL0    Cl74834   5.174   0.763   2.056 -0.1610 -0.0904  0.3654
  555MOL0     C74835   5.943   0.558   1.320  0.5273 -0.1404  1.2326
  555MOL0     C74836   6.030   0.472   1.259  0.5226  1.1928  0.6524
  555MOL0     O74837   6.200   0.382   1.048  0.0359  0.4694 -0.7609
  555MOL0     C74838   6.291   0.086   1.196  0.3209  1.2406 -0.1995
  555MOL0     C74839   6.407   0.007   1.197  0.3143 -0.7772  0.3075
  555MOL0     N74840   7.201  -0.285   0.942 -0.5300 -0.5307  0.0353
  555MOL0     N74841   7.328  -0.321   0.947  0.2305  0.4818 -0.1182
  555MOL0     C74842   7.297  -0.064   0.397 -0.1274 -0.0606  0.5496
  555MOL0     C74843   7.301   0.071   0.453  0.9209  0.1509 -0.4450
  555MOL0     C74844   7.413   0.394   0.758  1.3396 -0.1471  0.5157
  555MOL0     C74845   7.296   0.432   0.811  0.9163 -0.1522 -1.9858
  555MOL0     C74846   7.285   0.551   0.882 -0.1944  0.4243  0.1435
  555MOL0     C74847   7.397   0.623   0.929  0.0802  0.2211 -0.0472
  555MOL0     O74848   7.383   0.725   1.021  0.2540 -0.6916  0.6393
  555MOL0     C74849   7.340   0.860   0.967 -0.6742 -0.5699  0.7728
  555MOL0     C74850   7.301   0.958   1.078  0.1445 -0.1776 -0.2043
  555MOL0     C74851   7.181   0.926   1.171  0.0242  0.0686  0.2211
  555MOL0     C74852   7.183   0.994   1.309 -1.1363 -0.3957  0.3691
  555MOL0     C74853   7.170   1.137   1.295 -1.2020 -0.4046  0.1595
  555MOL0     C74854   7.154   1.259   1.275 -0.3947  0.1218  0.2385
  555MOL0     C74855   7.520   0.577   0.895  0.6425 -0.0481 -0.3337
  555MOL0     C74856   7.530   0.463   0.804 -0.6579  0.0990 -0.7025
  555MOL0     C74857   7.671   0.422   0.784 -0.0525 -0.1559  0.2620
  555MOL0     H74858   7.352  -0.009   0.770 -0.5828 -1.0442 -0.2231
  555MOL0     H74859   7.353  -0.247   0.678  0.4988  0.5675 -0.5924
  555MOL0     H74860   7.315  -0.437   0.569  0.8910  3.7954  0.0224
  555MOL0     H74861   7.340  -0.496   0.402 -2.0986  2.0575 -0.0616
  555MOL0     H74862   7.544  -0.327   0.558 -1.5519  1.7145 -2.6129
  555MOL0     H74863   7.545  -0.384   0.393  3.3493 -0.0177  0.1445
  555MOL0     H74864   7.698  -0.513   0.540  1.0271 -2.4559  0.4451
  555MOL0     H74865   7.567  -0.620   0.476  1.8565  1.6390 -0.8279
  555MOL0     H74866   7.629  -0.541   0.753  1.4464  0.7316 -2.2377
  555MOL0     H74867   7.472  -0.478   0.709 -0.4453  0.2011 -2.6173
  555MOL0     H74868   7.414  -0.706   0.621 -0.5081  2.5011 -1.2128
  555MOL0     H74869   7.543  -0.777   0.714  1.0304  1.3277 -4.3500
  555MOL0     H74870   7.306  -0.604   0.832  1.6768  1.3394  0.5691
  555MOL0     H74871   7.345  -0.785   0.846  0.8165 -0.5479 -1.9388
  555MOL0     H74872   7.555  -0.686   0.943  0.1885 -0.0376  0.1859
  555MOL0     H74873   7.420  -0.721   1.051 -0.2157 -0.1616  0.1859
  555MOL0     H74874   7.498  -0.515   1.122  3.0536  0.3574  0.3167
  555MOL0     H74875   7.539  -0.459   0.962  1.8270 -0.0625  2.7287
  555MOL0     H74876   7.210  -0.547   1.147  0.4871 -0.6202 -0.6605
  555MOL0     H74877   6.946  -0.447   1.026  1.7250 -0.4750 -0.1309
  555MOL0     H74878   6.995  -0.372   1.176  3.5049  0.2507 -0.2429
  555MOL0     H74879   6.999  -0.151   1.066  0.8222 -0.7193  0.7196
  555MOL0     H74880   6.923  -0.218   0.918 -0.8992  2.6187  0.2597
  555MOL0     H74881   6.799  -0.212   1.197  2.3173  1.7477  0.5183
  555MOL0     H74882   6.737  -0.305   1.061  2.8228 -0.3883  0.0131
  555MOL0     H74883   6.694  -0.111   0.935 -0.3081 -1.2152 -1.1297
  555MOL0     H74884   6.799  -0.012   1.046  0.5882 -1.5328  1.0794
  555MOL0     H74885   6.578   0.116   0.930  0.2008  0.7338 -0.6636
  555MOL0     H74886   6.372   0.246   0.914  0.7537  2.3862  1.5919
  555MOL0     H74887   5.858   0.185   1.243 -0.4279 -0.4659  1.3829
  555MOL0     H74888   5.678   0.346   1.351 -0.5111  1.2390  0.0527
  555MOL0     H74889   5.779   0.806   1.383 -0.0132 -0.0665 -0.3911
  555MOL0     H74890   5.752   0.720   1.227  1.7224 -2.0341  0.7577
  555MOL0     H74891   5.582   0.884   1.250 -0.8567 -1.2342 -1.1754
  555MOL0     H74892   5.503   0.738   1.245 -0.4833  2.6273 -1.9084
  555MOL0     H74893   5.544   0.739   1.512  0.2955  1.2876  0.6487
  555MOL0     H74894   5.582   0.911   1.483  1.8024 -1.0243  0.5443
  555MOL0     H74895   5.342   0.858   1.354  1.3735  1.2343 -1.5890
  555MOL0     H74896   5.391   0.985   1.464 -3.5586  0.1528  1.4915
  555MOL0     H74897   5.277   0.716   1.544  0.3080  0.1515 -0.3648
  555MOL0     H74898   5.205   0.878   1.568  0.5194  0.6435 -0.2708
  555MOL0     H74899   5.444   0.753   1.717  0.2841  0.7914 -1.1656
  555MOL0     H74900   5.405   0.935   1.717  0.2198  0.0782  0.2697
  555MOL0     H74901   5.203   0.713   1.778  1.0312  1.6506 -2.4680
  555MOL0     H74902   5.186   0.888   1.806  1.0270  2.1821 -0.9367
  555MOL0     H74903   5.391   0.734   1.964 -0.6062 -0.3925 -0.1654
  555MOL0     H74904   5.345   0.903   1.973 -1.7932  1.9213  0.9521
  555MOL0     H74905   5.971   0.657   1.355  1.2280  1.1338 -2.4524
  555MOL0     H74906   6.131   0.502   1.232  1.9422 -1.7825  2.1698
  555MOL0     H74907   6.211   0.069   1.267 -3.3324  0.8813 -3.9888
  555MOL0     H74908   6.408  -0.074   1.269 -0.9492 -2.1380 -1.1208
  555MOL0     H74909   7.295  -0.086   0.290  0.3528 -0.2842  0.5815
  555MOL0     H74910   7.296   0.164   0.398  1.8226  1.2961  1.3043
  555MOL0     H74911   7.199   0.393   0.780  0.9913 -0.6512 -1.5999
  555MOL0     H74912   7.187   0.584   0.916  0.2817  0.2938  1.6958
  555MOL0     H74913   7.252   0.850   0.902  0.0729 -0.6372 -0.2580
  555MOL0     H74914   7.406   0.906   0.894  0.2910  1.1026  2.6105
  555MOL0     H74915   7.287   1.056   1.032 -1.0976  0.0194  0.5466
  555MOL0     H74916   7.395   0.965   1.134 -1.0088 -0.4373  1.8776
  555MOL0     H74917   7.185   0.817   1.185  1.8512  0.1034  0.1548
  555MOL0     H74918   7.085   0.954   1.127  1.5858  1.5328 -2.5480
  555MOL0     H74919   7.112   0.953   1.381 -0.9429 -0.4490  0.5324
  555MOL0     H74920   7.283   0.969   1.347  0.0850  2.5972 -0.5405
  555MOL0     H74921   7.134   1.364   1.271 -0.4173  0.1206 -3.2722
  555MOL0     H74922   7.601   0.636   0.935 -2.0493  2.8414  1.3321
  555MOL0     H74923   7.700   0.325   0.826 -1.3778 -0.8151 -0.2682
  555MOL0     H74924   7.701   0.407   0.680  1.4043 -0.2146  0.6661
  555MOL0     H74925   7.730   0.504   0.825  0.9822  1.2098 -3.5162
  556MOL0     O74926   7.001   1.168  10.169 -0.0001 -0.6753 -0.0223
  556MOL0     C74927   7.019   1.131  10.056  1.0013 -1.2374 -0.1635
  556MOL0     O74928   7.000   1.210   9.946 -0.4548  0.1044 -0.4232
  556MOL0     C74929   6.978   1.343   9.970  0.6738 -0.4091  0.7026
  556MOL0     C74930   6.861   1.411  10.023 -0.2320  0.1007 -0.4378
  556MOL0     C74931   6.865   1.554  10.044  0.2431 -0.0807 -0.1175
  556MOL0     C74932   6.971   1.632  10.007  0.7354  0.5246 -0.4589
  556MOL0     O74933   6.954   1.769  10.030 -0.4521  0.1536 -0.0049
  556MOL0     C74934   7.073   1.830  10.083 -0.0967 -0.3062  0.3590
  556MOL0     C74935   7.040   1.935  10.184  0.7657  0.2771 -0.2514
  556MOL0     C74936   6.942   1.890  10.301 -0.5255  0.1693  0.5033
  556MOL0     C74937   6.927   2.011  10.409 -0.0856  0.1165  1.0605
  556MOL0     C74938   6.847   1.973  10.533 -1.3535 -0.3398  0.4150
  556MOL0     C74939   6.859   2.084  10.646  0.2727  0.4174  0.3875
  556MOL0     C74940   6.750   2.056  10.757  0.0935 -0.5386 -1.0624
  556MOL0     C74941   6.767   2.169  10.865  0.1914 -0.5593  0.7580
  556MOL0     N74942   6.679   2.140  10.985  0.8373  1.1436  0.6210
  556MOL0     C74943   6.675   2.026  11.062 -0.7030 -0.4265  0.4466
  556MOL0     C74944   6.626   2.067  11.183  0.3120 -0.7857 -0.3419
  556MOL0     C74945   6.621   1.968  11.296 -0.7250  0.0204 -1.0104
  556MOL0     C74946   6.698   2.008  11.422 -0.3451  0.1413  0.2584
  556MOL0     C74947   6.838   2.068  11.400 -1.1186 -0.4713  0.8572
  556MOL0     C74948   6.949   1.968  11.345  0.4323  0.0959  1.2956
  556MOL0     O74949   6.955   1.847  11.422  0.1959 -0.0774 -0.7123
  556MOL0     C74950   7.057   1.753  11.397 -0.2791  0.0285 -0.2049
  556MOL0     C74951   7.193   1.789  11.364  1.2744  0.2572  0.7796
  556MOL0     C74952   7.289   1.691  11.364  0.6051 -0.3631 -0.0667
  556MOL0     C74953   7.255   1.557  11.396 -0.0736 -0.3941 -0.6669
  556MOL0     C74954   7.360   1.449  11.393 -0.4573  0.8072 -0.9558
  556MOL0     O74955   7.318   1.319  11.374  0.7932  0.8572 -0.6068
  556MOL0     C74956   7.411   1.217  11.366  0.6933  0.2443 -0.4656
  556MOL0     C74957   7.402   1.103  11.440  0.2998  1.1453  0.7286
  556MOL0     C74958   7.500   1.001  11.430 -0.0549 -0.3406 -0.1603
  556MOL0     C74959   7.604   1.006  11.335 -0.8647 -0.0610 -0.9675
  556MOL0     O74960   7.701   0.901  11.325 -0.2157 -0.8795 -0.4996
  556MOL0     C74961   7.689   0.785  11.410 -0.5080 -0.8250 -0.2461
  556MOL0     C74962   7.789   0.669  11.392 -0.8914 -1.0322 -0.4321
  556MOL0     C74963   7.776   0.613  11.243 -0.2824 -0.7185 -0.8913
  556MOL0     C74964   7.884   0.502  11.233 -0.2858  0.3073  0.1366
  556MOL0     C74965   7.861   0.418  11.108  0.2200  0.8545 -0.8448
  556MOL0     C74966   7.974   0.308  11.090  0.6273 -0.1841  0.1022
  556MOL0     C74967   8.021   0.225  11.221 -0.1490 -0.1505 -0.1586
  556MOL0     C74968   8.144   0.132  11.203 -0.1404  0.7881  0.5745
  556MOL0    Cl74969   8.120   0.013  11.077 -0.5506  0.5424  0.2462
  556MOL0     C74970   7.604   1.116  11.246 -0.8729  0.1017 -0.0800
  556MOL0     C74971   7.512   1.219  11.271 -0.0643  0.0612  0.6768
  556MOL0     O74972   7.477   1.485  11.394  0.9946  0.8369 -0.3318
  556MOL0     C74973   7.119   1.523  11.430 -1.2071  0.2508 -0.0061
  556MOL0     C74974   7.021   1.623  11.436 -0.1368  0.7491  0.2818
  556MOL0     N74975   6.587   2.199  11.179  1.0867  0.1487 -0.1895
  556MOL0     N74976   6.623   2.244  11.057  0.8255 -0.1806 -0.8250
  556MOL0     C74977   7.082   1.566   9.949 -0.2947  0.1437 -0.1110
  556MOL0     C74978   7.086   1.430   9.928  0.2379  0.2311 -0.4538
  556MOL0     C74979   7.054   0.991  10.044 -0.4862 -0.4814  0.4651
  556MOL0     C74980   7.093   0.948   9.918  0.3836  0.2072 -0.4280
  556MOL0     C74981   7.115   0.812   9.883  0.3484  0.4064  0.9882
  556MOL0     C74982   7.095   0.710   9.981  0.0982 -0.2833  0.5388
  556MOL0     O74983   7.120   0.586   9.942  0.0385 -0.4819  0.2803
  556MOL0     C74984   7.064   0.480  10.018  0.3859  0.5059  0.6004
  556MOL0     C74985   7.090   0.344   9.969 -0.7230  0.8317  0.4756
  556MOL0     C74986   7.035   0.306   9.829  0.3437  0.0017  0.7821
  556MOL0     C74987   7.106   0.192   9.752 -0.3528 -0.7733  0.2679
  556MOL0     C74988   7.248   0.232   9.745  0.5435  0.2390 -0.1980
  556MOL0     C74989   7.367   0.256   9.750 -0.1642  0.2586 -0.2931
  556MOL0     C74990   7.058   0.753  10.107 -0.1644  0.0201  0.9990
  556MOL0     C74991   7.034   0.888  10.140 -0.4694 -0.2766  0.0508
  556MOL0     C74992   6.987   0.919  10.277  0.4850  0.1226  0.0969
  556MOL0     H74993   6.773   1.354  10.051  1.5319 -1.2142  3.0297
  556MOL0     H74994   6.775   1.603  10.079  0.2592  1.4313 -2.0530
  556MOL0     H74995   7.141   1.757  10.127 -0.6181 -1.3239 -0.4795
  556MOL0     H74996   7.132   1.868  10.000 -0.2165 -2.8427 -1.0074
  556MOL0     H74997   6.983   2.007  10.125  2.2204 -0.7873 -3.1672
  556MOL0     H74998   7.126   1.985  10.229  1.3620 -1.6294  0.8738
  556MOL0     H74999   6.995   1.809  10.352  2.5073  2.6707  1.7423
  556MOL0     H75000   6.842   1.854  10.280 -1.1481 -0.9870  4.4984
  556MOL0     H75001   7.027   2.046  10.433  0.4373  1.0871 -2.1451
  556MOL0     H75002   6.868   2.087  10.357 -0.2672 -0.1355  0.8976
  556MOL0     H75003   6.746   1.965  10.493 -1.5546  1.0142  0.6165
  556MOL0     H75004   6.885   1.880  10.578 -0.1820  0.5809  1.3851
  556MOL0     H75005   6.960   2.080  10.689 -0.4002  0.2613  2.0102
  556MOL0     H75006   6.854   2.180  10.594 -0.6974  2.1572  3.4177
  556MOL0     H75007   6.767   1.957  10.802 -0.8162 -0.6137 -0.8655
  556MOL0     H75008   6.649   2.060  10.715 -0.2647 -1.7770 -0.3951
  556MOL0     H75009   6.872   2.187  10.889  0.7844 -0.0856 -1.8388
  556MOL0     H75010   6.734   2.266  10.828  1.1190 -0.2999  0.5898
  556MOL0     H75011   6.721   1.930  11.040  0.2918  0.1920 -0.2324
  556MOL0     H75012   6.514   1.962  11.320 -0.5522  0.6179 -0.0547
  556MOL0     H75013   6.654   1.868  11.269 -1.2043 -0.3572 -0.2305
  556MOL0     H75014   6.634   2.084  11.468  0.5341  0.4725  0.9616
  556MOL0     H75015   6.693   1.921  11.487  1.6760  0.3363  0.7557
  556MOL0     H75016   6.862   2.109  11.499  1.2574 -0.1667  0.2195
  556MOL0     H75017   6.817   2.156  11.339 -2.8325  1.8932  4.5149
  556MOL0     H75018   7.046   2.017  11.352  1.6891 -2.1152  0.4031
  556MOL0     H75019   6.923   1.941  11.242  1.7626  4.5264 -0.4284
  556MOL0     H75020   7.207   1.896  11.347  0.1777  0.2373 -0.3653
  556MOL0     H75021   7.387   1.724  11.330  0.3065 -1.2699 -1.9584
  556MOL0     H75022   7.326   1.085  11.515 -0.7367  0.2034 -0.4957
  556MOL0     H75023   7.488   0.918  11.499  0.9751 -0.0654  0.3634
  556MOL0     H75024   7.678   0.809  11.516 -2.2117 -1.4014 -0.2638
  556MOL0     H75025   7.590   0.756  11.374 -1.1408  1.5868 -0.6577
  556MOL0     H75026   7.891   0.707  11.402 -1.6446  0.4894  2.7483
  556MOL0     H75027   7.776   0.591  11.468 -0.2641 -0.0336  0.7396
  556MOL0     H75028   7.676   0.572  11.228 -0.3537 -0.8278 -0.1795
  556MOL0     H75029   7.788   0.689  11.166  1.0270 -0.8586 -0.8402
  556MOL0     H75030   7.874   0.430  11.314  0.3790 -2.4929 -2.1370
  556MOL0     H75031   7.980   0.555  11.242 -0.0494 -0.3925  1.9652
  556MOL0     H75032   7.844   0.474  11.016  0.9092  1.4050 -0.6419
  556MOL0     H75033   7.765   0.367  11.125  1.2071 -0.3466  1.7692
  556MOL0     H75034   7.932   0.235  11.021  0.5246  0.5837 -0.6561
  556MOL0     H75035   8.059   0.347  11.033 -0.0671 -1.0845 -1.6062
  556MOL0     H75036   7.937   0.170  11.266 -0.2334  0.0277 -0.0964
  556MOL0     H75037   8.064   0.290  11.297  0.5154 -1.0433  0.2519
  556MOL0     H75038   8.229   0.194  11.173 -1.4821  2.6076  0.3594
  556MOL0     H75039   8.176   0.086  11.297  2.5974  0.0416 -0.6330
  556MOL0     H75040   7.682   1.121  11.171 -3.4208  1.1018 -2.8435
  556MOL0     H75041   7.519   1.312  11.214  3.2134  1.5922  3.2350
  556MOL0     H75042   7.090   1.421  11.454  3.3847 -0.9133  1.8871
  556MOL0     H75043   6.917   1.599  11.459 -0.2523 -0.1427 -1.0639
  556MOL0     H75044   7.160   1.637   9.925  0.2294 -1.2692 -2.9965
  556MOL0     H75045   7.170   1.384   9.877 -2.0664 -4.6783 -0.3636
  556MOL0     H75046   7.111   1.025   9.844 -2.0164  0.7440 -0.5587
  556MOL0     H75047   7.152   0.783   9.785 -0.4251  3.3700 -0.2938
  556MOL0     H75048   6.955   0.482  10.020  0.1567  2.3652 -3.3137
  556MOL0     H75049   7.104   0.482  10.120  1.7149 -0.3625  0.1195
  556MOL0     H75050   7.040   0.273  10.035 -1.0430  0.5658 -0.0446
  556MOL0     H75051   7.198   0.330   9.979 -0.8199  1.1668  2.2898
  556MOL0     H75052   7.033   0.402   9.777 -1.2058  2.4124  4.8959
  556MOL0     H75053   6.931   0.270   9.834  0.3354 -0.1193 -0.0817
  556MOL0     H75054   7.096   0.105   9.817  0.4036  1.3869  3.5296
  556MOL0     H75055   7.062   0.164   9.656  2.2447 -0.3750 -1.1567
  556MOL0     H75056   7.467   0.293   9.758 -0.8280  2.0930  0.1576
  556MOL0     H75057   7.047   0.671  10.176  0.0628 -1.0888 -0.2311
  556MOL0     H75058   6.960   0.824  10.324  4.0873  0.3775  3.2474
  556MOL0     H75059   7.055   0.982  10.336  3.3635 -1.0870 -1.7119
  556MOL0     H75060   6.899   0.984  10.277  2.1562  2.5340  0.3061
  557MOL0     O75061   1.060   1.996   5.132 -0.2667 -0.3311 -0.3167
  557MOL0     C75062   0.988   1.954   5.038 -0.4360 -0.1094  1.0573
  557MOL0     O75063   0.972   2.034   4.925  0.1009  0.5353  0.2101
  557MOL0     C75064   0.913   2.159   4.951  0.6740  0.4093  1.8147
  557MOL0     C75065   0.773   2.156   4.940  0.3042  0.3016  0.1349
  557MOL0     C75066   0.695   2.272   4.947 -0.0944  0.8339  0.9765
  557MOL0     C75067   0.765   2.398   4.947 -0.6970  0.2773 -0.6508
  557MOL0     O75068   0.693   2.513   4.929  0.2062 -0.4032 -0.8786
  557MOL0     C75069   0.611   2.521   4.814  0.5144 -1.0355  0.0803
  557MOL0     C75070   0.596   2.662   4.780  0.2581 -0.9254  0.2616
  557MOL0     C75071   0.520   2.694   4.656 -0.3080 -0.6121 -0.1107
  557MOL0     C75072   0.533   2.838   4.610 -0.6270 -0.2300 -0.1397
  557MOL0     C75073   0.478   2.938   4.714  0.2920 -0.6512 -0.5259
  557MOL0     C75074   0.503   3.081   4.692 -1.4185 -0.1367  0.9926
  557MOL0     C75075   0.403   3.146   4.591  0.6768 -0.9132 -0.6122
  557MOL0     C75076   0.460   3.283   4.541 -0.0455  0.1139 -0.1003
  557MOL0     N75077   0.576   3.270   4.446  0.0655  0.3709 -0.7819
  557MOL0     C75078   0.692   3.341   4.468  0.3911  0.8619 -0.1647
  557MOL0     C75079   0.788   3.282   4.391  0.1966 -0.9266 -0.3579
  557MOL0     C75080   0.940   3.283   4.390  1.1441 -0.2761 -0.3604
  557MOL0     C75081   1.008   3.225   4.514 -0.0653 -0.0592  0.4380
  557MOL0     C75082   0.946   3.087   4.553 -0.2152 -0.3821 -0.1366
  557MOL0     C75083   1.033   3.016   4.659 -0.8931  0.2348 -0.0105
  557MOL0     O75084   0.974   2.889   4.675 -0.2159  0.3130  0.2183
  557MOL0     C75085   1.066   2.790   4.723  0.5788 -0.3333  0.8611
  557MOL0     C75086   1.035   2.658   4.690  0.2545 -0.4503  0.2243
  557MOL0     C75087   1.119   2.546   4.720 -0.9224 -0.2144 -0.2532
  557MOL0     C75088   1.229   2.570   4.806  0.0644 -0.3136 -0.5752
  557MOL0     C75089   1.316   2.465   4.852 -0.2629 -0.4691  0.2268
  557MOL0     O75090   1.303   2.342   4.779 -0.6737  0.1209 -0.2029
  557MOL0     C75091   1.373   2.224   4.806 -0.2989 -0.7325 -0.6413
  557MOL0     C75092   1.316   2.104   4.755  1.3854  0.2034  0.0581
  557MOL0     C75093   1.384   1.983   4.763 -0.0069 -0.0028 -0.4219
  557MOL0     C75094   1.502   1.971   4.834  0.1349  0.2233  0.2243
  557MOL0     O75095   1.563   1.849   4.835  0.3417 -0.1142  0.9233
  557MOL0     C75096   1.701   1.824   4.877  0.2068 -0.0351 -0.3340
  557MOL0     C75097   1.793   1.822   4.753  0.0746  0.1256 -1.3994
  557MOL0     C75098   1.767   1.704   4.662 -0.0115 -0.5322 -0.5165
  557MOL0     C75099   1.621   1.706   4.601  0.1968 -1.2509  0.1740
  557MOL0     C75100   1.625   1.623   4.472  0.5765  0.6803 -0.1470
  557MOL0     C75101   1.680   1.702   4.353  0.6885 -0.1856 -0.0936
  557MOL0     C75102   1.672   1.633   4.218  0.6394  0.9511  0.2306
  557MOL0     C75103   1.744   1.499   4.200 -0.4234  0.0151 -0.1118
  557MOL0    Cl75104   1.923   1.525   4.219  0.2817  0.2012  0.6697
  557MOL0     C75105   1.558   2.087   4.881 -0.7928 -0.9075 -1.0705
  557MOL0     C75106   1.494   2.216   4.872 -0.2516 -0.0242 -0.5559
  557MOL0     O75107   1.394   2.483   4.945 -1.2296  0.3995 -0.0741
  557MOL0     C75108   1.256   2.703   4.854 -0.0901 -0.9936 -0.0094
  557MOL0     C75109   1.178   2.814   4.806  0.1634 -1.2766  0.4766
  557MOL0     N75110   0.721   3.194   4.312 -0.0115  0.1436  0.0921
  557MOL0     N75111   0.598   3.182   4.346 -0.2868 -0.0448 -0.3023
  557MOL0     C75112   0.906   2.407   4.963  0.1428  0.4450  0.1272
  557MOL0     C75113   0.980   2.282   4.968 -0.0804 -1.1563 -0.8963
  557MOL0     C75114   0.899   1.835   5.052 -0.1107  0.0388  0.0398
  557MOL0     C75115   0.830   1.790   4.935  0.0096  0.5636 -0.9331
  557MOL0     C75116   0.750   1.662   4.936 -0.5929 -0.6945  0.0790
  557MOL0     C75117   0.719   1.595   5.057  0.3809 -0.1206  0.0900
  557MOL0     O75118   0.637   1.486   5.068 -0.6320  0.3956 -0.1606
  557MOL0     C75119   0.542   1.452   4.966 -0.1148  0.4641 -0.0304
  557MOL0     C75120   0.448   1.355   5.030  0.6314 -0.1627  0.8709
  557MOL0     C75121   0.330   1.309   4.939 -0.3500 -1.3532  0.2806
  557MOL0     C75122   0.260   1.403   4.844  0.2502 -0.6021 -0.9352
  557MOL0     C75123   0.187   1.511   4.912 -0.7939  0.2485 -0.6367
  557MOL0     C75124   0.115   1.597   4.968 -1.4573 -0.5785  0.3687
  557MOL0     C75125   0.791   1.642   5.168  0.2125 -0.7497  0.8687
  557MOL0     C75126   0.884   1.753   5.171  0.6950 -0.7704 -0.1062
  557MOL0     C75127   0.959   1.789   5.295 -0.0556  1.1328 -0.6293
  557MOL0     H75128   0.712   2.066   4.933  0.2657  0.4088 -1.1086
  557MOL0     H75129   0.587   2.277   4.957 -0.1135 -1.1414  2.2542
  557MOL0     H75130   0.659   2.469   4.730  0.5463  1.5279 -1.5790
  557MOL0     H75131   0.520   2.474   4.850  0.4159  0.7531  2.4046
  557MOL0     H75132   0.697   2.704   4.785 -0.5158  0.8941  1.7618
  557MOL0     H75133   0.543   2.697   4.869 -0.8052 -1.8768  0.0326
  557MOL0     H75134   0.412   2.677   4.660 -1.0672  1.3645 -5.0702
  557MOL0     H75135   0.559   2.630   4.576  1.1187 -0.8431  0.7284
  557MOL0     H75136   0.638   2.853   4.583  0.0440 -2.8135  0.6800
  557MOL0     H75137   0.483   2.851   4.513 -0.5172  0.6120 -0.0929
  557MOL0     H75138   0.369   2.924   4.716 -0.0890  1.5948 -2.1270
  557MOL0     H75139   0.517   2.922   4.815  2.8965  1.1458 -1.1407
  557MOL0     H75140   0.492   3.149   4.777 -1.9725  0.5598  0.3777
  557MOL0     H75141   0.604   3.102   4.653 -1.5147  4.1094  2.5406
  557MOL0     H75142   0.307   3.154   4.644  0.9220 -0.8786 -0.1700
  557MOL0     H75143   0.383   3.084   4.503  1.4223  0.2030 -1.5862
  557MOL0     H75144   0.371   3.334   4.503  0.5764  1.3902  0.1065
  557MOL0     H75145   0.489   3.340   4.629  4.0811 -2.2136  0.3024
  557MOL0     H75146   0.705   3.425   4.536 -0.4647  1.5367 -0.8146
  557MOL0     H75147   0.967   3.222   4.304  2.6078  0.0489 -0.1586
  557MOL0     H75148   0.983   3.378   4.357  2.1854 -0.6774 -0.1762
  557MOL0     H75149   1.112   3.211   4.483 -1.3479 -1.0455 -4.3225
  557MOL0     H75150   1.004   3.294   4.598  0.6725  0.8359 -0.2401
  557MOL0     H75151   0.933   3.023   4.465 -1.0343 -0.0994 -0.2297
  557MOL0     H75152   0.845   3.101   4.593 -0.1305 -0.9262  0.2745
  557MOL0     H75153   1.034   3.066   4.756 -0.6815 -1.2683  0.7915
  557MOL0     H75154   1.137   3.013   4.625 -0.4127 -3.7304  1.2681
  557MOL0     H75155   0.939   2.633   4.644  0.8653 -2.1190 -0.2175
  557MOL0     H75156   1.088   2.449   4.682 -3.9418  0.8861 -0.9115
  557MOL0     H75157   1.219   2.122   4.709  0.2063 -0.6417  2.1016
  557MOL0     H75158   1.350   1.885   4.730 -0.5495  0.3251 -0.8346
  557MOL0     H75159   1.748   1.889   4.951  0.3088  0.1961 -0.5968
  557MOL0     H75160   1.701   1.727   4.926 -0.2537 -0.7893 -1.7833
  557MOL0     H75161   1.773   1.922   4.715 -2.1516 -0.5166 -2.0523
  557MOL0     H75162   1.897   1.831   4.786 -0.3016  3.5311 -0.7847
  557MOL0     H75163   1.836   1.680   4.580 -2.7848  1.4263 -3.6514
  557MOL0     H75164   1.777   1.611   4.719  0.1907 -1.6930 -2.3517
  557MOL0     H75165   1.592   1.810   4.580 -2.6595 -2.0215 -0.0336
  557MOL0     H75166   1.534   1.671   4.656 -0.9644  2.9970  1.4603
  557MOL0     H75167   1.520   1.602   4.449 -0.0059  1.3952  1.7240
  557MOL0     H75168   1.675   1.525   4.479  2.3122  1.6166  1.6489
  557MOL0     H75169   1.626   1.797   4.354  0.3056 -0.2689  4.3492
  557MOL0     H75170   1.784   1.724   4.379  0.4247  0.9897  0.0361
  557MOL0     H75171   1.714   1.699   4.142 -2.8793  0.6845 -2.1958
  557MOL0     H75172   1.565   1.620   4.198  0.5984  0.1292  0.9498
  557MOL0     H75173   1.697   1.442   4.281 -0.2701  1.6562  1.2109
  557MOL0     H75174   1.710   1.451   4.108 -3.2465 -1.6049  1.6286
  557MOL0     H75175   1.654   2.084   4.933 -0.9470 -1.1949 -0.7962
  557MOL0     H75176   1.544   2.302   4.914  0.8290 -0.2887 -1.2502
  557MOL0     H75177   1.331   2.728   4.929 -1.8609  0.5098  1.3609
  557MOL0     H75178   1.208   2.915   4.834  1.0253 -1.2459 -0.5007
  557MOL0     H75179   0.948   2.507   4.969  1.2180  0.0110  0.0921
  557MOL0     H75180   1.087   2.270   4.974  0.1578 -0.4440 -3.0431
  557MOL0     H75181   0.842   1.859   4.852  1.1860  0.5955 -0.7463
  557MOL0     H75182   0.714   1.615   4.845 -0.1963  1.1176 -1.0678
  557MOL0     H75183   0.604   1.398   4.893  1.0910 -0.2383  1.4492
  557MOL0     H75184   0.492   1.533   4.912  0.0678 -0.0924 -1.0782
  557MOL0     H75185   0.407   1.405   5.119 -0.3277  1.7610 -0.5775
  557MOL0     H75186   0.503   1.264   5.056 -0.0537 -1.1249 -0.9117
  557MOL0     H75187   0.253   1.266   5.005  0.5281 -3.3437  0.0735
  557MOL0     H75188   0.373   1.225   4.884 -0.2744  0.3717 -2.4163
  557MOL0     H75189   0.318   1.461   4.772 -0.2428 -1.1672 -1.8093
  557MOL0     H75190   0.185   1.351   4.783  1.1213 -1.5229 -1.2486
  557MOL0     H75191   0.068   1.681   5.014  0.6721 -0.0774  1.8330
  557MOL0     H75192   0.771   1.581   5.255 -0.5783 -0.7171  0.7144
  557MOL0     H75193   1.066   1.783   5.275 -0.1934  1.5982 -1.5584
  557MOL0     H75194   0.933   1.880   5.349  2.3201  0.8622  1.1145
  557MOL0     H75195   0.938   1.710   5.367  0.1597  0.0530 -1.7131
  558MOL0     O75196   6.282   8.529   8.187 -0.3498  0.4937 -0.3637
  558MOL0     C75197   6.201   8.580   8.108  0.3112 -0.4166  0.0900
  558MOL0     O75198   6.080   8.631   8.145  0.1272  0.2192 -0.0461
  558MOL0     C75199   6.000   8.550   8.219  0.3336  1.0876  0.6325
  558MOL0     C75200   5.955   8.586   8.341 -0.7629  0.3124  0.8779
  558MOL0     C75201   5.864   8.507   8.419 -0.6183 -0.2441  0.7191
  558MOL0     C75202   5.820   8.389   8.368  1.0258  0.2896 -0.5498
  558MOL0     O75203   5.726   8.311   8.436  0.0634 -0.1479  0.5677
  558MOL0     C75204   5.779   8.205   8.508  0.0915 -0.0208  0.3434
  558MOL0     C75205   5.660   8.128   8.561 -0.6096 -0.5365 -0.3642
  558MOL0     C75206   5.684   7.994   8.625  0.6881  0.6272 -0.6291
  558MOL0     C75207   5.553   7.913   8.646 -0.5338  0.1165  0.3622
  558MOL0     C75208   5.569   7.789   8.736 -0.3290  0.6077 -0.0654
  558MOL0     C75209   5.646   7.681   8.661 -0.1173 -0.0799 -0.2402
  558MOL0     C75210   5.655   7.553   8.736  0.1287  0.1400 -0.0642
  558MOL0     C75211   5.700   7.562   8.883  0.9984 -1.3223 -0.4591
  558MOL0     N75212   5.838   7.620   8.894 -0.3484  0.8847  0.9113
  558MOL0     C75213   5.869   7.743   8.944  0.1429  0.9304  0.8654
  558MOL0     C75214   6.007   7.744   8.960 -0.6567  0.1841  0.6927
  558MOL0     C75215   6.107   7.852   9.010  0.5241  0.5264 -0.2602
  558MOL0     C75216   6.052   7.923   9.141  0.0456  0.3891 -0.2283
  558MOL0     C75217   6.030   7.830   9.264 -0.4859  1.0682  0.1447
  558MOL0     C75218   6.155   7.762   9.309 -0.1750 -0.2821  0.8195
  558MOL0     O75219   6.264   7.855   9.318 -0.9211 -0.1363  0.2494
  558MOL0     C75220   6.386   7.791   9.318 -0.6948 -0.4128 -0.8233
  558MOL0     C75221   6.419   7.697   9.412  0.7011  0.4524 -0.1698
  558MOL0     C75222   6.545   7.625   9.411  0.5373  1.0154  1.0658
  558MOL0     C75223   6.657   7.675   9.333 -1.0883 -0.9645  1.2274
  558MOL0     C75224   6.799   7.618   9.328 -0.3657 -0.1075  0.6069
  558MOL0     O75225   6.905   7.694   9.285 -0.0244 -0.5484  0.4005
  558MOL0     C75226   7.028   7.630   9.300 -0.2074  0.2768  0.1555
  558MOL0     C75227   7.095   7.625   9.418 -0.0707 -0.0767 -1.3648
  558MOL0     C75228   7.226   7.569   9.426 -0.2284  1.1663 -0.2802
  558MOL0     C75229   7.281   7.504   9.324  0.3546 -0.1364  0.1341
  558MOL0     O75230   7.397   7.434   9.317  0.5572 -0.4149  0.2578
  558MOL0     C75231   7.454   7.400   9.446  0.2835  0.6769 -0.8807
  558MOL0     C75232   7.571   7.301   9.424 -0.1981  0.1577 -0.1028
  558MOL0     C75233   7.621   7.263   9.569 -0.6943  0.3176 -0.7822
  558MOL0     C75234   7.550   7.135   9.629 -0.1466  0.4432  0.8400
  558MOL0     C75235   7.600   7.001   9.579  0.2605  0.5100  0.2743
  558MOL0     C75236   7.737   6.951   9.640 -0.0374  1.2060  0.4768
  558MOL0     C75237   7.804   6.847   9.557 -0.1732  0.2770  0.4490
  558MOL0     C75238   7.729   6.716   9.580 -0.0168 -0.3942  1.0403
  558MOL0    Cl75239   7.796   6.572   9.489  0.3157  0.2253 -0.0346
  558MOL0     C75240   7.215   7.511   9.197 -0.1775  0.0411  0.4501
  558MOL0     C75241   7.087   7.573   9.186 -1.2534 -0.8260  0.5307
  558MOL0     O75242   6.803   7.503   9.387 -0.3262  0.0275 -0.2832
  558MOL0     C75243   6.633   7.794   9.254  0.1326 -0.1137 -1.0007
  558MOL0     C75244   6.499   7.841   9.248  0.9393  0.3311 -0.0848
  558MOL0     N75245   6.051   7.623   8.913  0.6799 -0.4022 -0.0682
  558MOL0     N75246   5.953   7.548   8.875 -0.6426  0.0011  0.5435
  558MOL0     C75247   5.867   8.344   8.247 -0.0606 -0.2192  0.2032
  558MOL0     C75248   5.961   8.421   8.170 -1.1638 -0.9642  0.6427
  558MOL0     C75249   6.230   8.617   7.963 -0.5115 -0.1146 -0.3308
  558MOL0     C75250   6.217   8.753   7.917  0.2132  0.4220  0.6977
  558MOL0     C75251   6.266   8.785   7.794  0.7757  0.1626  0.3364
  558MOL0     C75252   6.321   8.684   7.703 -0.4366 -0.6461 -0.7166
  558MOL0     O75253   6.368   8.702   7.575  0.0900 -0.4513  1.1405
  558MOL0     C75254   6.379   8.835   7.514  0.1935  0.4650 -0.5435
  558MOL0     C75255   6.259   8.859   7.424  0.0485 -0.1687  0.2015
  558MOL0     C75256   6.134   8.871   7.509  0.4264 -0.3662 -0.5206
  558MOL0     C75257   6.002   8.916   7.442 -0.1102 -0.2842 -0.5704
  558MOL0     C75258   6.000   9.062   7.452  0.5463 -0.3036 -0.9535
  558MOL0     C75259   5.991   9.186   7.463 -0.4318  0.1142 -0.5481
  558MOL0     C75260   6.323   8.552   7.753  1.1215 -0.1160 -0.1223
  558MOL0     C75261   6.281   8.517   7.882  0.1485  0.1423 -0.0870
  558MOL0     C75262   6.264   8.369   7.920 -0.6558 -0.4150 -0.0749
  558MOL0     H75263   5.990   8.686   8.364  0.8639 -0.2252  0.8513
  558MOL0     H75264   5.834   8.556   8.511 -0.2176  0.1457  0.6477
  558MOL0     H75265   5.832   8.138   8.440  0.4432  3.4466 -3.1766
  558MOL0     H75266   5.853   8.236   8.582  1.1169 -0.8864 -0.2809
  558MOL0     H75267   5.584   8.122   8.482 -0.7164 -1.3023 -0.2132
  558MOL0     H75268   5.621   8.194   8.639 -2.2329 -1.6470 -0.1763
  558MOL0     H75269   5.732   8.009   8.722 -0.9085 -0.8819  0.4640
  558MOL0     H75270   5.751   7.938   8.559 -4.1978 -3.3243 -2.9416
  558MOL0     H75271   5.471   7.975   8.683 -0.9744  0.5438 -1.2246
  558MOL0     H75272   5.522   7.882   8.545  0.4914  3.4185 -1.1040
  558MOL0     H75273   5.619   7.816   8.830 -2.1598  1.1445  0.8087
  558MOL0     H75274   5.476   7.741   8.766 -0.9726  1.8648  0.0152
  558MOL0     H75275   5.589   7.672   8.568  1.8393  1.6663 -1.6903
  558MOL0     H75276   5.741   7.725   8.632  0.4524 -0.8029  0.4762
  558MOL0     H75277   5.727   7.489   8.683  1.1075  0.0426  1.3474
  558MOL0     H75278   5.559   7.501   8.747 -0.0084  0.7517  1.9785
  558MOL0     H75279   5.627   7.622   8.938  2.1776  0.7290 -1.0252
  558MOL0     H75280   5.694   7.461   8.926 -0.6604 -2.1019 -2.3682
  558MOL0     H75281   5.800   7.821   8.972 -1.3844  0.7607 -1.9628
  558MOL0     H75282   6.201   7.799   9.025  1.3850  1.8672 -0.6670
  558MOL0     H75283   6.111   7.923   8.926 -2.0542  0.8517 -0.1977
  558MOL0     H75284   6.102   8.015   9.175 -0.0782  0.2417  0.3689
  558MOL0     H75285   5.957   7.967   9.112 -0.5964  1.4250  3.0040
  558MOL0     H75286   5.960   7.750   9.241  1.3928  0.1921 -3.1750
  558MOL0     H75287   6.004   7.903   9.341 -2.6170  2.1826 -1.5181
  558MOL0     H75288   6.171   7.675   9.244  0.1352 -0.0173  0.5407
  558MOL0     H75289   6.128   7.730   9.410  0.7462  2.6352  2.0716
  558MOL0     H75290   6.357   7.685   9.500 -0.8267 -1.4636 -1.4200
  558MOL0     H75291   6.554   7.543   9.481 -0.6900 -0.4558 -0.4162
  558MOL0     H75292   7.058   7.681   9.503 -0.2934 -1.0063 -0.8340
  558MOL0     H75293   7.276   7.578   9.522 -2.1216 -1.4221  1.0998
  558MOL0     H75294   7.490   7.494   9.490 -1.3501  2.0306 -2.2828
  558MOL0     H75295   7.376   7.367   9.515  0.3252  0.5000 -0.9198
  558MOL0     H75296   7.538   7.219   9.361 -1.6763  0.7835 -0.1823
  558MOL0     H75297   7.659   7.343   9.373 -0.4535 -2.2066 -2.7336
  558MOL0     H75298   7.730   7.250   9.570 -0.8266 -0.8727 -0.5175
  558MOL0     H75299   7.599   7.342   9.641  2.4692 -0.9889  1.8669
  558MOL0     H75300   7.442   7.142   9.609  0.1344 -1.5387 -2.0011
  558MOL0     H75301   7.558   7.128   9.737 -2.5220 -1.5128  0.9872
  558MOL0     H75302   7.599   7.000   9.469 -2.9996  2.4380  0.1408
  558MOL0     H75303   7.520   6.930   9.604  0.5186 -0.4659 -1.4997
  558MOL0     H75304   7.803   7.039   9.641  2.1353 -0.3067 -0.8875
  558MOL0     H75305   7.712   6.930   9.744 -1.6555  0.8452  0.0360
  558MOL0     H75306   7.911   6.837   9.579  0.0273  0.2401 -0.5018
  558MOL0     H75307   7.795   6.867   9.450  1.9029  1.4606  0.4448
  558MOL0     H75308   7.716   6.696   9.686 -4.5515  0.6749  0.8807
  558MOL0     H75309   7.627   6.741   9.549  0.0898 -0.5950  0.5100
  558MOL0     H75310   7.255   7.469   9.105 -0.1883  1.3377 -0.1558
  558MOL0     H75311   7.039   7.599   9.092 -1.2240 -2.1698  0.1203
  558MOL0     H75312   6.709   7.853   9.204 -2.0869  1.8936 -2.2489
  558MOL0     H75313   6.479   7.927   9.185  0.4692  2.4843  2.7938
  558MOL0     H75314   5.831   8.254   8.198 -1.6526 -1.1686  2.8959
  558MOL0     H75315   6.007   8.396   8.076  1.2007  0.3924  1.3421
  558MOL0     H75316   6.166   8.818   7.987  1.7603  1.2781  1.0694
  558MOL0     H75317   6.279   8.887   7.760  1.8510 -1.0247 -3.2636
  558MOL0     H75318   6.472   8.836   7.457 -0.4929  1.5804 -1.7184
  558MOL0     H75319   6.372   8.914   7.589  1.2899 -0.5761  0.6971
  558MOL0     H75320   6.234   8.785   7.348  0.7604  0.1536 -0.3673
  558MOL0     H75321   6.283   8.954   7.375  2.5214 -1.5157 -1.4153
  558MOL0     H75322   6.147   8.921   7.606 -4.0469 -0.1532  0.2254
  558MOL0     H75323   6.115   8.767   7.536 -1.6673 -0.2093 -1.1706
  558MOL0     H75324   6.003   8.877   7.340  0.0740 -1.2427 -0.2170
  558MOL0     H75325   5.916   8.866   7.486  0.1163  0.0007  0.2181
  558MOL0     H75326   5.969   9.291   7.466 -0.4922  0.0880  0.0013
  558MOL0     H75327   6.338   8.471   7.683 -2.4397 -0.5833 -0.5440
  558MOL0     H75328   6.301   8.352   8.021  1.4028  0.9996 -0.5291
  558MOL0     H75329   6.160   8.335   7.912  0.1025 -3.4979  1.5541
  558MOL0     H75330   6.312   8.309   7.843  0.5673  0.2450  0.1420
  559MOL0     O75331   8.931   9.038   3.776 -0.4287  0.5971 -0.6893
  559MOL0     C75332   8.848   8.996   3.694 -0.3578 -1.0371 -0.8015
  559MOL0     O75333   8.856   8.883   3.631  0.0122 -0.6977 -0.1475
  559MOL0     C75334   8.965   8.799   3.641  0.9234 -0.4646 -0.2885
  559MOL0     C75335   9.098   8.847   3.625 -0.2525 -0.2503  0.3649
  559MOL0     C75336   9.204   8.755   3.619 -0.5669  0.3469 -0.9102
  559MOL0     C75337   9.174   8.615   3.618 -0.6462  0.5096  0.0493
  559MOL0     O75338   9.269   8.525   3.616 -1.0569  0.8620  0.9383
  559MOL0     C75339   9.376   8.548   3.528 -0.0638  0.4680 -0.5421
  559MOL0     C75340   9.463   8.418   3.499 -0.1065 -1.0607  0.2739
  559MOL0     C75341   9.382   8.290   3.504  0.6808  0.1668 -0.3994
  559MOL0     C75342   9.465   8.171   3.472  0.2716 -0.2646  0.0888
  559MOL0     C75343   9.371   8.058   3.459  0.1188  0.4165 -0.1479
  559MOL0     C75344   9.453   7.938   3.417 -0.4680  0.3886  0.4822
  559MOL0     C75345   9.527   7.864   3.526  0.2751 -0.1278  0.2858
  559MOL0     C75346   9.619   7.762   3.458 -0.4569  0.2057 -0.1131
  559MOL0     N75347   9.549   7.681   3.360  0.6088 -0.0959  0.2752
  559MOL0     C75348   9.593   7.634   3.240  0.8631 -0.6620 -0.1353
  559MOL0     C75349   9.507   7.534   3.209 -0.7652  0.2951  0.1811
  559MOL0     C75350   9.532   7.417   3.109 -0.3667  0.1231 -0.5580
  559MOL0     C75351   9.671   7.384   3.079  0.0180 -0.3702 -0.4463
  559MOL0     C75352   9.702   7.273   2.971 -0.9880  0.3404  0.2219
  559MOL0     C75353   9.680   7.129   3.009 -0.4124 -0.4676 -0.6922
  559MOL0     O75354   9.790   7.084   3.084  0.8264 -0.1999 -0.3961
  559MOL0     C75355   9.782   6.950   3.122 -0.0190 -0.1855 -1.2607
  559MOL0     C75356   9.710   6.928   3.232  0.4395 -0.7236  0.4270
  559MOL0     C75357   9.685   6.801   3.281  1.3060 -0.5209  0.5288
  559MOL0     C75358   9.731   6.686   3.208 -0.0809  1.0981 -0.4102
  559MOL0     C75359   9.714   6.554   3.270 -0.1081 -0.1194  0.3090
  559MOL0     O75360   9.732   6.452   3.179 -0.3620  0.8852  0.2801
  559MOL0     C75361   9.731   6.320   3.218  1.0205  0.4483 -0.4672
  559MOL0     C75362   9.831   6.239   3.184  1.0502  0.7641  0.8095
  559MOL0     C75363   9.841   6.105   3.246  0.6290  0.1935  0.6149
  559MOL0     C75364   9.742   6.051   3.337 -0.6714 -0.2163  0.1192
  559MOL0     O75365   9.737   5.927   3.393  0.3280 -0.5160  0.0316
  559MOL0     C75366   9.840   5.836   3.364  0.4092  0.3776  0.0358
  559MOL0     C75367   9.966   5.860   3.447  0.0122  0.0418  0.6337
  559MOL0     C75368  10.069   5.747   3.444  1.0535  0.1293 -0.2137
  559MOL0     C75369  10.033   5.633   3.542  0.7851 -1.0330 -0.6646
  559MOL0     C75370  10.139   5.518   3.560  0.1045 -0.1489 -0.3538
  559MOL0     C75371  10.105   5.402   3.653  0.6896 -0.1881 -0.5276
  559MOL0     C75372  10.058   5.447   3.789 -0.0415  0.9633 -0.6876
  559MOL0     C75373  10.015   5.321   3.864  0.2600  0.4267  0.8212
  559MOL0    Cl75374   9.871   5.348   3.954 -0.4239 -0.1732 -0.1165
  559MOL0     C75375   9.639   6.134   3.376 -0.0558  0.6997  0.0558
  559MOL0     C75376   9.630   6.257   3.310 -0.7275 -0.1462  0.2719
  559MOL0     O75377   9.694   6.545   3.389  0.3936  0.2685  0.3232
  559MOL0     C75378   9.805   6.706   3.092 -0.6624 -0.7153  0.0929
  559MOL0     C75379   9.835   6.838   3.050 -0.2947 -0.1952 -0.8128
  559MOL0     N75380   9.396   7.543   3.286  0.1829 -0.6202  0.5256
  559MOL0     N75381   9.434   7.613   3.393  0.3726  0.0712  0.5440
  559MOL0     C75382   9.041   8.574   3.657  0.0314 -0.0711  0.3437
  559MOL0     C75383   8.935   8.668   3.669 -0.3088  0.3454 -0.0451
  559MOL0     C75384   8.729   9.075   3.673  1.0485  0.6468 -0.6960
  559MOL0     C75385   8.682   9.170   3.774  0.8198 -0.0767  0.2365
  559MOL0     C75386   8.567   9.241   3.757  0.0281 -0.7358  0.8281
  559MOL0     C75387   8.502   9.230   3.632 -0.8928 -0.3923  0.0101
  559MOL0     O75388   8.405   9.318   3.612 -0.5994 -0.0870  0.0886
  559MOL0     C75389   8.317   9.320   3.492 -0.3018  0.5145 -0.7225
  559MOL0     C75390   8.204   9.415   3.513 -0.2827 -0.4392  0.5989
  559MOL0     C75391   8.237   9.559   3.476  0.1710 -0.4727 -0.0366
  559MOL0     C75392   8.194   9.666   3.572  0.7101 -0.0888  0.8579
  559MOL0     C75393   8.247   9.658   3.713  0.1973  0.4798 -0.7188
  559MOL0     C75394   8.288   9.663   3.827 -0.1299 -0.3989 -0.3206
  559MOL0     C75395   8.540   9.139   3.539  0.4607  0.4165 -0.5804
  559MOL0     C75396   8.658   9.065   3.555  0.7424  0.5057  0.7429
  559MOL0     C75397   8.697   8.992   3.432  0.2163 -1.0459 -0.5845
  559MOL0     H75398   9.108   8.953   3.607 -1.1640  0.1363  1.9638
  559MOL0     H75399   9.300   8.800   3.599 -0.1395 -0.4063 -0.5831
  559MOL0     H75400   9.335   8.571   3.429  1.5190  0.8172 -1.1548
  559MOL0     H75401   9.441   8.631   3.560 -0.3978  0.9464 -1.0725
  559MOL0     H75402   9.545   8.412   3.572 -0.8833 -0.6232  1.2139
  559MOL0     H75403   9.506   8.440   3.401  2.7774 -3.3679  0.8659
  559MOL0     H75404   9.306   8.297   3.426  3.3443 -1.0047 -3.2940
  559MOL0     H75405   9.337   8.285   3.604  4.7719  0.8201  1.7108
  559MOL0     H75406   9.504   8.194   3.372  2.9112 -2.2088  0.5532
  559MOL0     H75407   9.549   8.153   3.539  0.1493  1.8375  0.8735
  559MOL0     H75408   9.325   8.048   3.557  0.7519  1.7395  0.3099
  559MOL0     H75409   9.292   8.083   3.388 -0.3834 -0.5540  0.0550
  559MOL0     H75410   9.381   7.878   3.362 -0.9834  0.5221  1.0023
  559MOL0     H75411   9.528   7.970   3.344 -0.1721  0.7747  0.9491
  559MOL0     H75412   9.452   7.808   3.583 -1.5584  3.2454  1.4939
  559MOL0     H75413   9.583   7.929   3.593 -1.0192  0.8791  0.4327
  559MOL0     H75414   9.701   7.816   3.409 -0.0263  0.8099  1.2279
  559MOL0     H75415   9.667   7.694   3.528  1.4502 -0.3829 -1.8716
  559MOL0     H75416   9.687   7.654   3.190  0.2858  0.8663 -0.6543
  559MOL0     H75417   9.480   7.331   3.151  1.5825 -1.1903 -0.7150
  559MOL0     H75418   9.490   7.453   3.014  2.7256  0.6667 -1.8439
  559MOL0     H75419   9.726   7.472   3.044  1.0125 -1.0006 -0.4762
  559MOL0     H75420   9.715   7.349   3.173 -0.2662  2.2717  0.7647
  559MOL0     H75421   9.807   7.290   2.943 -0.4994 -1.3406  0.8857
  559MOL0     H75422   9.642   7.298   2.883  0.3530  7.8317  0.7603
  559MOL0     H75423   9.672   7.067   2.919 -0.3573 -0.2463 -0.8522
  559MOL0     H75424   9.592   7.109   3.070 -0.2863  1.5475  0.2280
  559MOL0     H75425   9.681   7.016   3.288 -0.7814 -1.2585  0.6572
  559MOL0     H75426   9.625   6.800   3.372  2.5120  3.5051  1.5881
  559MOL0     H75427   9.909   6.271   3.116  2.8566 -4.3534  0.0085
  559MOL0     H75428   9.924   6.040   3.223 -1.4022 -1.9352 -1.2654
  559MOL0     H75429   9.796   5.739   3.389 -0.9882  1.1491  0.7042
  559MOL0     H75430   9.853   5.834   3.256 -1.5106  1.6173 -0.2781
  559MOL0     H75431  10.004   5.955   3.409  2.8075  0.0782  3.1422
  559MOL0     H75432   9.944   5.869   3.554  1.0826  0.4025  0.8312
  559MOL0     H75433  10.086   5.715   3.340  1.4088  0.9512 -0.4128
  559MOL0     H75434  10.169   5.774   3.480  0.6614  2.4436 -0.7458
  559MOL0     H75435   9.938   5.588   3.512  1.0933 -1.5682 -0.8654
  559MOL0     H75436  10.029   5.678   3.642 -3.5085  0.8140 -1.4492
  559MOL0     H75437  10.230   5.561   3.603 -0.1942  0.2673 -0.1235
  559MOL0     H75438  10.154   5.462   3.468 -0.9286 -0.3787 -0.4025
  559MOL0     H75439  10.029   5.342   3.603  1.1885 -2.0231  0.8442
  559MOL0     H75440  10.198   5.345   3.655  1.1118  0.4585 -0.9555
  559MOL0     H75441   9.972   5.513   3.785 -0.8232  0.2383  2.0010
  559MOL0     H75442  10.138   5.498   3.843 -1.9795  0.9474  2.4601
  559MOL0     H75443   9.990   5.240   3.795 -1.8516  3.6573 -2.6288
  559MOL0     H75444  10.088   5.289   3.938 -0.8253 -1.3227  1.2075
  559MOL0     H75445   9.561   6.089   3.438 -1.2437 -1.9349 -3.0702
  559MOL0     H75446   9.546   6.317   3.344  0.6426  1.8558  0.2410
  559MOL0     H75447   9.853   6.622   3.044 -0.4889 -0.9669  0.6987
  559MOL0     H75448   9.892   6.862   2.961 -0.4284  1.9227 -0.3786
  559MOL0     H75449   9.032   8.468   3.676  0.0204  0.1561  1.7946
  559MOL0     H75450   8.831   8.641   3.684  0.4581 -2.3139  1.1252
  559MOL0     H75451   8.732   9.200   3.866 -1.2221  1.9093  0.8069
  559MOL0     H75452   8.542   9.318   3.828  2.5732  2.5451 -1.5124
  559MOL0     H75453   8.269   9.223   3.481 -0.3987 -0.4817  5.1471
  559MOL0     H75454   8.388   9.336   3.410  2.9019 -2.1511  1.2554
  559MOL0     H75455   8.185   9.421   3.621  0.2462  0.9245  0.6255
  559MOL0     H75456   8.111   9.384   3.463 -1.4197  2.4923  0.7120
  559MOL0     H75457   8.210   9.584   3.372  0.5107  1.2004  0.2444
  559MOL0     H75458   8.346   9.566   3.471  0.0884  0.6010 -0.7906
  559MOL0     H75459   8.250   9.748   3.525 -1.9556  1.5903  0.4170
  559MOL0     H75460   8.088   9.687   3.557  0.6447 -1.3736 -0.8818
  559MOL0     H75461   8.314   9.646   3.929 -1.6816 -0.5168  0.0823
  559MOL0     H75462   8.488   9.153   3.445  0.1211  1.2240 -0.2799
  559MOL0     H75463   8.668   9.037   3.337 -1.5356 -4.0800 -1.6030
  559MOL0     H75464   8.804   8.977   3.412  0.4354  0.6961 -0.9135
  559MOL0     H75465   8.666   8.888   3.443 -0.5167 -0.6885  1.0237
  560MOL0     O75466   3.852   7.579   1.553 -0.0341  0.6485 -0.1185
  560MOL0     C75467   3.748   7.511   1.540  0.2528  0.3296  0.2472
  560MOL0     O75468   3.696   7.459   1.424 -1.0813 -0.0733  0.1716
  560MOL0     C75469   3.749   7.494   1.305  0.0421 -0.3485  0.3374
  560MOL0     C75470   3.743   7.407   1.201 -0.5452  0.7665  0.1543
  560MOL0     C75471   3.773   7.441   1.067  0.1171  0.0783 -0.3172
  560MOL0     C75472   3.817   7.573   1.040 -0.2317  0.2274  0.2222
  560MOL0     O75473   3.855   7.600   0.907  0.4892 -0.0118  0.0354
  560MOL0     C75474   3.850   7.739   0.868  0.6267 -0.8836 -0.5015
  560MOL0     C75475   3.868   7.767   0.721  0.2826 -0.7078  0.5483
  560MOL0     C75476   3.902   7.916   0.701  0.5327  0.1501  0.3348
  560MOL0     C75477   3.917   7.947   0.545  0.4081 -0.5093 -0.1962
  560MOL0     C75478   3.900   8.101   0.519 -0.6778 -0.8747  0.1408
  560MOL0     C75479   3.976   8.186   0.622 -0.7077  0.1525 -0.2632
  560MOL0     C75480   3.967   8.341   0.594 -0.2967 -0.2548 -0.4055
  560MOL0     C75481   4.002   8.416   0.725 -0.0722 -0.9451 -0.6262
  560MOL0     N75482   4.005   8.560   0.717  0.9067  0.1402  0.0214
  560MOL0     C75483   3.895   8.635   0.675 -0.3295  0.1920 -1.1163
  560MOL0     C75484   3.947   8.756   0.651  0.4151 -0.6054  0.3708
  560MOL0     C75485   3.883   8.871   0.575 -0.8776 -0.0580 -0.0795
  560MOL0     C75486   3.830   8.836   0.437  1.2097  1.0107 -0.0364
  560MOL0     C75487   3.763   8.944   0.362 -0.0724 -0.3458 -0.8593
  560MOL0     C75488   3.627   8.993   0.407 -0.4254  0.0973 -0.7928
  560MOL0     O75489   3.582   9.081   0.306  0.0703  0.0214  0.5550
  560MOL0     C75490   3.516   9.028   0.195  0.3421 -0.4011  0.0325
  560MOL0     C75491   3.486   8.899   0.172  0.9025 -0.2043  0.8399
  560MOL0     C75492   3.418   8.862   0.052 -0.1764  0.0397 -0.1786
  560MOL0     C75493   3.364   8.956  -0.042  0.4735 -0.5184  0.1465
  560MOL0     C75494   3.284   8.920  -0.171 -0.5471 -0.2486  0.1436
  560MOL0     O75495   3.206   9.027  -0.213  0.4380  0.6185  0.0452
  560MOL0     C75496   3.149   9.028  -0.336  0.6657  0.0123  0.1192
  560MOL0     C75497   3.045   9.131  -0.352  0.1487  0.1282  0.3851
  560MOL0     C75498   2.981   9.158  -0.476 -0.3430  0.3976  0.6031
  560MOL0     C75499   3.036   9.096  -0.586 -0.1832 -0.4252 -0.1954
  560MOL0     O75500   2.980   9.099  -0.713  0.4367 -0.1633 -0.8474
  560MOL0     C75501   2.893   9.210  -0.743 -0.0887 -0.1074  0.5289
  560MOL0     C75502   2.861   9.213  -0.888  0.4191  0.1901  0.8763
  560MOL0     C75503   2.978   9.215  -0.990  0.4965 -0.3922  0.1203
  560MOL0     C75504   2.929   9.186  -1.128  0.1276 -0.7111  1.0070
  560MOL0     C75505   2.917   9.034  -1.154  0.1391 -0.4172 -0.3881
  560MOL0     C75506   2.876   9.005  -1.303  0.4178  0.3970 -0.2821
  560MOL0     C75507   2.963   9.067  -1.407  0.3761 -0.1786  0.0283
  560MOL0     C75508   3.112   9.019  -1.388 -0.1116  0.5017 -0.3204
  560MOL0    Cl75509   3.212   9.032  -1.543 -0.2073  0.0540 -0.1778
  560MOL0     C75510   3.134   9.002  -0.570 -0.0311 -0.6678  0.5230
  560MOL0     C75511   3.188   8.962  -0.446  0.5984  0.0940 -0.8832
  560MOL0     O75512   3.285   8.804  -0.216  0.2893  0.3698  0.5299
  560MOL0     C75513   3.387   9.090  -0.004 -0.6964 -0.3285 -0.8812
  560MOL0     C75514   3.475   9.130   0.106 -0.8176 -0.2037  1.0963
  560MOL0     N75515   4.076   8.761   0.696  1.0504 -0.1301 -0.6708
  560MOL0     N75516   4.116   8.641   0.735 -0.1795 -0.0771  0.9640
  560MOL0     C75517   3.835   7.663   1.141  0.0163  0.1179 -0.0003
  560MOL0     C75518   3.799   7.626   1.272  0.5913  0.0716  0.0493
  560MOL0     C75519   3.663   7.495   1.663 -0.4501 -0.1522  0.3945
  560MOL0     C75520   3.728   7.480   1.785 -1.2451 -0.3083 -0.5331
  560MOL0     C75521   3.650   7.465   1.893 -0.1328  0.5327  0.0901
  560MOL0     C75522   3.510   7.488   1.886  0.0684 -0.2704  0.0827
  560MOL0     O75523   3.431   7.500   1.999 -0.2002  0.3621 -0.6886
  560MOL0     C75524   3.482   7.579   2.109 -0.5904  0.1663  0.2121
  560MOL0     C75525   3.422   7.725   2.088 -0.6654  0.0092 -0.1153
  560MOL0     C75526   3.468   7.821   2.199 -0.6150  0.3520  0.0305
  560MOL0     C75527   3.391   7.799   2.338 -0.8787  0.1732  0.0412
  560MOL0     C75528   3.253   7.832   2.318 -0.3139  1.3833 -0.7577
  560MOL0     C75529   3.139   7.871   2.299  0.2449 -0.4041 -0.8402
  560MOL0     C75530   3.449   7.491   1.763  0.4988  0.3976  1.0969
  560MOL0     C75531   3.526   7.497   1.647 -0.1580  0.5288 -0.1996
  560MOL0     C75532   3.448   7.507   1.515 -0.3627 -0.8986 -0.9813
  560MOL0     H75533   3.687   7.315   1.215  0.6467 -0.1220 -0.6596
  560MOL0     H75534   3.746   7.380   0.981  1.1435  0.1949 -0.7402
  560MOL0     H75535   3.753   7.782   0.894  1.7172  1.4502 -0.0598
  560MOL0     H75536   3.921   7.796   0.929 -2.1344 -0.6357  2.7439
  560MOL0     H75537   3.776   7.753   0.663  1.1561  0.0560 -1.1085
  560MOL0     H75538   3.949   7.704   0.683 -1.6077 -1.7047 -2.1835
  560MOL0     H75539   3.994   7.952   0.749  0.5334  0.2376  0.2665
  560MOL0     H75540   3.828   7.986   0.740  2.6568  2.3475  0.6546
  560MOL0     H75541   4.011   7.909   0.505 -1.0787 -0.8802 -3.7489
  560MOL0     H75542   3.838   7.895   0.488 -0.4803 -2.2593  2.4465
  560MOL0     H75543   3.949   8.113   0.422  0.3907  2.1328  0.9401
  560MOL0     H75544   3.795   8.130   0.528  0.4079  3.5753  0.7343
  560MOL0     H75545   3.923   8.165   0.715  0.3603 -0.1959  0.2817
  560MOL0     H75546   4.078   8.147   0.618 -0.7892  0.0335 -2.8345
  560MOL0     H75547   3.864   8.360   0.563  0.0956  2.0504 -0.4275
  560MOL0     H75548   4.035   8.366   0.512  1.0138 -0.4866  0.5757
  560MOL0     H75549   3.929   8.390   0.802 -0.1760 -0.4530 -0.5519
  560MOL0     H75550   4.102   8.388   0.758  0.9699  0.6607 -2.2555
  560MOL0     H75551   3.798   8.589   0.659  0.3892 -2.5905  1.5551
  560MOL0     H75552   3.808   8.926   0.632  1.2022  1.6875  1.1187
  560MOL0     H75553   3.962   8.945   0.559  0.8283 -1.1301  2.6279
  560MOL0     H75554   3.913   8.801   0.375 -0.0682 -0.7123 -0.8937
  560MOL0     H75555   3.769   8.745   0.446 -0.5146  2.2679  2.0535
  560MOL0     H75556   3.746   8.907   0.260 -1.2237  2.6225 -1.8761
  560MOL0     H75557   3.827   9.033   0.356  1.5340 -1.0820  2.7884
  560MOL0     H75558   3.632   9.032   0.509 -0.0151  3.9848 -2.1373
  560MOL0     H75559   3.567   8.903   0.423 -2.2587  1.7320  2.8364
  560MOL0     H75560   3.537   8.821   0.227  1.0124  0.0810  1.1529
  560MOL0     H75561   3.421   8.760   0.014  1.6893  1.1572 -3.4653
  560MOL0     H75562   3.008   9.187  -0.266 -2.8133 -2.5345  1.0544
  560MOL0     H75563   2.899   9.228  -0.480 -0.7998 -0.1577  0.0829
  560MOL0     H75564   2.797   9.202  -0.691  0.2345 -1.0323  1.0051
  560MOL0     H75565   2.935   9.306  -0.710  0.2916  0.9483 -2.6978
  560MOL0     H75566   2.809   9.118  -0.906  1.8493 -0.8144  1.8134
  560MOL0     H75567   2.789   9.292  -0.910 -1.4555 -2.0998 -2.0560
  560MOL0     H75568   3.014   9.319  -0.994 -0.9072  0.0849 -0.9678
  560MOL0     H75569   3.068   9.158  -0.965  0.7904 -1.3670 -2.7985
  560MOL0     H75570   3.002   9.231  -1.195  0.3806 -2.4621  0.0638
  560MOL0     H75571   2.831   9.235  -1.136  0.8226  0.7761  1.2473
  560MOL0     H75572   2.844   8.987  -1.088  2.0852 -0.9025  1.5206
  560MOL0     H75573   3.008   8.974  -1.145  0.5389 -0.9409 -5.1486
  560MOL0     H75574   2.865   8.898  -1.326  0.2242  0.4408 -0.3922
  560MOL0     H75575   2.775   9.043  -1.316  0.0993  0.1576  1.2959
  560MOL0     H75576   2.959   9.176  -1.402 -2.5628  0.0463 -3.3429
  560MOL0     H75577   2.932   9.046  -1.510  0.1114  2.1612 -0.4307
  560MOL0     H75578   3.167   9.073  -1.310  2.7283  1.0735 -2.4968
  560MOL0     H75579   3.110   8.916  -1.354  0.9959  1.3999  2.7952
  560MOL0     H75580   3.157   8.945  -0.660 -2.3738  0.0348 -0.5840
  560MOL0     H75581   3.266   8.886  -0.447  2.7177  2.1378 -2.4994
  560MOL0     H75582   3.346   9.182  -0.046 -1.3090 -0.0539  0.2984
  560MOL0     H75583   3.491   9.236   0.120  0.2108 -0.5503  2.9796
  560MOL0     H75584   3.865   7.765   1.121 -0.6499  0.4770  0.7743
  560MOL0     H75585   3.814   7.705   1.345 -1.4421  2.3118 -1.7600
  560MOL0     H75586   3.836   7.478   1.794 -1.3557  0.6500  1.3767
  560MOL0     H75587   3.695   7.445   1.990  0.1447  3.1390  0.5591
  560MOL0     H75588   3.591   7.583   2.104 -0.6110 -0.3348 -3.2830
  560MOL0     H75589   3.457   7.533   2.205  1.9369 -2.7156 -0.3566
  560MOL0     H75590   3.314   7.721   2.074 -0.6128  1.0320 -1.0334
  560MOL0     H75591   3.453   7.768   1.992 -0.7415 -1.7181 -0.9641
  560MOL0     H75592   3.451   7.923   2.164  1.2696  1.1535  1.3140
  560MOL0     H75593   3.575   7.805   2.214 -0.1393  1.6560 -1.5963
  560MOL0     H75594   3.405   7.698   2.376 -1.2443  0.3996  0.7885
  560MOL0     H75595   3.448   7.860   2.409  1.3016 -2.1159  0.3915
  560MOL0     H75596   3.038   7.904   2.314  0.1125 -1.1412 -0.0574
  560MOL0     H75597   3.341   7.484   1.770  0.4966  0.3329  0.9951
  560MOL0     H75598   3.485   7.592   1.457  3.9016  0.5875  3.2389
  560MOL0     H75599   3.463   7.411   1.463  1.7415 -1.5845  0.7105
  560MOL0     H75600   3.340   7.519   1.522 -0.0790  2.1204 -0.5906
  561MOL0     O75601   2.147   9.593   4.760  0.0853  0.9689 -0.0921
  561MOL0     C75602   2.211   9.619   4.658  1.0050 -0.4585  0.0622
  561MOL0     O75603   2.168   9.593   4.534 -0.1352 -0.2246  0.2410
  561MOL0     C75604   2.039   9.569   4.519  0.5663 -0.1316 -0.0910
  561MOL0     C75605   1.963   9.674   4.464 -0.4293 -0.6367  0.1244
  561MOL0     C75606   1.819   9.682   4.476 -0.9576  0.3165 -0.4452
  561MOL0     C75607   1.755   9.575   4.532 -0.5539  0.1524 -0.0414
  561MOL0     O75608   1.624   9.583   4.548  0.2495  0.4062 -0.3141
  561MOL0     C75609   1.571   9.653   4.665 -0.4857  0.6897  0.7532
  561MOL0     C75610   1.426   9.694   4.646 -0.6725 -0.0678 -0.5049
  561MOL0     C75611   1.380   9.753   4.511  0.1157 -0.6642 -0.5135
  561MOL0     C75612   1.441   9.892   4.504 -0.0903  0.2068  0.7945
  561MOL0     C75613   1.384   9.978   4.383  0.3794  0.2877  0.0965
  561MOL0     C75614   1.444  10.118   4.381  0.0526 -0.1059 -0.0045
  561MOL0     C75615   1.451  10.201   4.514  0.0502 -0.3830  0.4340
  561MOL0     C75616   1.512  10.340   4.480  0.3582  0.1469 -0.1212
  561MOL0     N75617   1.414  10.439   4.428 -0.0712  0.3071  0.1859
  561MOL0     C75618   1.364  10.451   4.299  0.9025 -0.1188  0.1369
  561MOL0     C75619   1.281  10.553   4.314 -0.2035 -0.6266  1.0045
  561MOL0     C75620   1.186  10.588   4.205  0.0114 -0.2253  0.0488
  561MOL0     C75621   1.045  10.528   4.222 -0.2297 -0.1424 -0.5741
  561MOL0     C75622   0.976  10.580   4.336 -0.0040 -0.3660  0.5379
  561MOL0     C75623   0.968  10.728   4.357  0.4508 -0.4186 -0.4419
  561MOL0     O75624   0.873  10.799   4.277 -0.1125 -0.1697  0.5310
  561MOL0     C75625   0.869  10.932   4.292  0.2978 -0.7178  0.1334
  561MOL0     C75626   0.780  11.009   4.213  0.0602  0.4100  0.3410
  561MOL0     C75627   0.757  11.146   4.239  0.4112 -0.7699  0.3678
  561MOL0     C75628   0.840  11.215   4.337 -0.4371  0.0014 -0.4361
  561MOL0     C75629   0.829  11.361   4.363 -0.4754 -0.5389  0.6349
  561MOL0     O75630   0.873  11.415   4.486  0.2656 -0.0244  0.8910
  561MOL0     C75631   0.872  11.556   4.503 -0.1299 -0.2943 -0.6697
  561MOL0     C75632   0.922  11.646   4.406 -0.4700  1.0201 -0.5971
  561MOL0     C75633   0.939  11.785   4.420  0.9394  0.1717 -0.5290
  561MOL0     C75634   0.906  11.845   4.548  0.9008  0.6553  0.0840
  561MOL0     O75635   0.938  11.973   4.576 -0.0121 -0.6552 -0.6629
  561MOL0     C75636   0.948  12.015   4.718  0.0978  0.6380  0.4409
  561MOL0     C75637   0.947  12.170   4.723  0.2927 -1.3968  0.9074
  561MOL0     C75638   1.056  12.235   4.636  1.0136 -0.6264  0.0143
  561MOL0     C75639   1.200  12.188   4.662  0.5236 -0.0741 -0.0105
  561MOL0     C75640   1.300  12.243   4.563 -0.4610 -0.7875  0.0690
  561MOL0     C75641   1.344  12.393   4.581  0.2286 -0.0691 -0.0628
  561MOL0     C75642   1.418  12.435   4.452  0.3986  0.1963 -0.4736
  561MOL0     C75643   1.449  12.584   4.452  1.2732  0.2503 -0.1272
  561MOL0    Cl75644   1.565  12.617   4.317  0.1641 -0.3038 -0.3108
  561MOL0     C75645   0.852  11.760   4.650 -0.1218  1.1309 -0.3742
  561MOL0     C75646   0.853  11.616   4.628  0.4529  0.4422  0.3849
  561MOL0     O75647   0.774  11.429   4.273  0.2373  0.2480  0.1330
  561MOL0     C75648   0.943  11.142   4.394  1.0901 -0.3699 -0.9202
  561MOL0     C75649   0.953  11.003   4.376 -0.1073 -1.1359  0.2707
  561MOL0     N75650   1.292  10.615   4.432 -0.5216 -0.1831 -0.5386
  561MOL0     N75651   1.372  10.545   4.505 -0.0535 -0.8208  0.1314
  561MOL0     C75652   1.828   9.459   4.570 -0.5654  0.6637 -1.1195
  561MOL0     C75653   1.966   9.464   4.566  0.5970  1.0973  0.0087
  561MOL0     C75654   2.347   9.682   4.672  0.4361 -0.0228 -1.1820
  561MOL0     C75655   2.434   9.673   4.564  0.0561  0.6343  0.2588
  561MOL0     C75656   2.570   9.720   4.576 -0.6033  0.6465 -0.4108
  561MOL0     C75657   2.598   9.805   4.686  0.2342 -0.8579 -0.7779
  561MOL0     O75658   2.710   9.873   4.705 -0.2251 -0.0507  0.4447
  561MOL0     C75659   2.802   9.902   4.590 -0.7030  0.0641  0.0938
  561MOL0     C75660   2.938   9.826   4.600  0.3057  0.6697  0.2201
  561MOL0     C75661   3.058   9.916   4.582 -0.6114 -0.7601  1.8096
  561MOL0     C75662   3.205   9.866   4.597 -0.3701 -0.0883  0.2052
  561MOL0     C75663   3.249   9.755   4.506  0.0520 -0.0878 -0.2356
  561MOL0     C75664   3.297   9.663   4.445  0.1918 -0.0199 -1.6057
  561MOL0     C75665   2.511   9.815   4.798  0.3356 -0.5902 -0.0697
  561MOL0     C75666   2.388   9.755   4.789 -0.1594 -0.3154 -0.1688
  561MOL0     C75667   2.300   9.771   4.911  0.1192 -0.2881  0.5210
  561MOL0     H75668   2.016   9.768   4.451  1.8439 -2.1264 -2.3699
  561MOL0     H75669   1.767   9.776   4.458 -3.5767 -0.2721  2.9538
  561MOL0     H75670   1.559   9.581   4.747 -2.4873 -1.2046 -1.0436
  561MOL0     H75671   1.628   9.742   4.694  1.4547 -0.5449  0.9365
  561MOL0     H75672   1.405   9.759   4.732  0.6598 -0.9093  0.5070
  561MOL0     H75673   1.363   9.605   4.658 -1.4116  0.6355  1.0368
  561MOL0     H75674   1.271   9.763   4.507  0.2983  2.3723 -0.4619
  561MOL0     H75675   1.404   9.693   4.423 -2.0992 -0.7135 -1.1302
  561MOL0     H75676   1.444   9.936   4.604 -0.8701  0.9474  0.5030
  561MOL0     H75677   1.549   9.885   4.484  0.1166  0.0368  1.9403
  561MOL0     H75678   1.400   9.925   4.289 -0.4176  1.1034 -0.5141
  561MOL0     H75679   1.275   9.988   4.396  0.2985  1.3482 -1.1983
  561MOL0     H75680   1.545  10.112   4.341  0.4725  0.9590  0.8145
  561MOL0     H75681   1.375  10.173   4.316 -1.2714  0.6546  1.9443
  561MOL0     H75682   1.508  10.147   4.590  0.8453  0.0005  0.1222
  561MOL0     H75683   1.351  10.219   4.556  0.9524  2.4866  1.5809
  561MOL0     H75684   1.562  10.378   4.569  1.1465  2.2961 -1.3954
  561MOL0     H75685   1.592  10.341   4.405  0.1165 -1.1793 -0.4139
  561MOL0     H75686   1.372  10.376   4.221 -1.8022  1.6215 -1.9679
  561MOL0     H75687   1.181  10.695   4.188 -2.4720 -0.0002  1.6887
  561MOL0     H75688   1.217  10.551   4.107  1.0641 -0.0922  0.3144
  561MOL0     H75689   0.981  10.553   4.136  1.0084 -0.9700 -1.7876
  561MOL0     H75690   1.046  10.418   4.226  0.4091 -0.4201 -4.2266
  561MOL0     H75691   1.024  10.539   4.426 -1.5525 -2.9724  0.2546
  561MOL0     H75692   0.874  10.540   4.337 -1.0394  2.0798 -0.2789
  561MOL0     H75693   1.067  10.774   4.355  0.4620 -0.4660 -1.2112
  561MOL0     H75694   0.923  10.744   4.456  0.2824 -0.0900 -0.5707
  561MOL0     H75695   0.702  10.970   4.149 -2.4022  2.1992  2.0677
  561MOL0     H75696   0.673  11.189   4.185  0.7184 -1.1217 -0.4068
  561MOL0     H75697   0.944  11.608   4.307 -1.4345 -0.5742 -0.2452
  561MOL0     H75698   0.998  11.845   4.351  2.7847 -0.8452  0.1202
  561MOL0     H75699   0.855  11.996   4.772 -0.3195 -0.3338 -0.5975
  561MOL0     H75700   1.030  11.962   4.768  1.3275  0.3410 -1.7859
  561MOL0     H75701   0.848  12.200   4.689  1.1386  1.7551  0.8756
  561MOL0     H75702   0.953  12.204   4.827 -1.1535 -2.3392  1.3180
  561MOL0     H75703   1.037  12.222   4.529 -0.0409  0.1693  0.0911
  561MOL0     H75704   1.047  12.343   4.650 -1.5900 -0.6035 -1.3682
  561MOL0     H75705   1.196  12.080   4.647 -1.1760  0.0822 -0.9471
  561MOL0     H75706   1.239  12.194   4.764  1.1572 -0.3461 -0.2336
  561MOL0     H75707   1.245  12.233   4.469  0.0632 -2.3398 -0.0997
  561MOL0     H75708   1.388  12.179   4.551 -0.7053 -0.6487 -3.7336
  561MOL0     H75709   1.260  12.460   4.605 -0.5978 -1.3844  0.8440
  561MOL0     H75710   1.423  12.395   4.657 -0.5068 -1.6155  0.7970
  561MOL0     H75711   1.349  12.401   4.373  0.7040 -1.9008  0.1027
  561MOL0     H75712   1.512  12.381   4.448  0.5280  0.3789  0.1273
  561MOL0     H75713   1.359  12.645   4.438 -1.1459 -3.1511 -0.7288
  561MOL0     H75714   1.498  12.602   4.548 -1.1423  0.6148  1.0982
  561MOL0     H75715   0.813  11.785   4.748 -1.7321 -0.2095 -0.6312
  561MOL0     H75716   0.822  11.549   4.708  0.9506 -1.4113 -0.9042
  561MOL0     H75717   1.016  11.189   4.459 -1.2724 -0.7899  2.3207
  561MOL0     H75718   1.032  10.955   4.432  1.5613 -1.5845 -2.2933
  561MOL0     H75719   1.768   9.377   4.610  1.1355  0.3530  0.9749
  561MOL0     H75720   2.020   9.386   4.618 -3.0689 -0.0432  2.5515
  561MOL0     H75721   2.392   9.629   4.475  1.1440 -2.6650  1.2272
  561MOL0     H75722   2.626   9.711   4.483  0.3260  0.6537  0.1463
  561MOL0     H75723   2.823  10.009   4.592  2.9759 -0.3899 -3.1657
  561MOL0     H75724   2.752   9.867   4.499  0.0033 -2.3760  0.5832
  561MOL0     H75725   2.951   9.745   4.527 -1.9530 -0.3009  0.8209
  561MOL0     H75726   2.928   9.781   4.699 -2.0216  2.2140  0.7522
  561MOL0     H75727   3.032   9.992   4.656  0.5422  0.5400  0.9416
  561MOL0     H75728   3.056   9.947   4.477  3.4351 -3.5121  0.6993
  561MOL0     H75729   3.269   9.954   4.589  0.2489 -0.5360  0.1868
  561MOL0     H75730   3.218   9.832   4.700  0.6963 -0.1769  0.0508
  561MOL0     H75731   3.322   9.581   4.380  0.9526  1.7779 -3.7249
  561MOL0     H75732   2.543   9.860   4.892  1.9535  1.6238 -1.5747
  561MOL0     H75733   2.336   9.841   4.987 -1.6311  0.1604  0.9898
  561MOL0     H75734   2.200   9.805   4.883  1.1744  4.5813  1.6966
  561MOL0     H75735   2.300   9.679   4.971  0.9958  0.1314  1.1948
  562MOL0     O75736   2.464   8.169   6.586 -0.2210  0.8488  0.0191
  562MOL0     C75737   2.573   8.214   6.562  0.6825 -0.5308 -0.0852
  562MOL0     O75738   2.690   8.188   6.630  0.2053 -0.3842  0.3773
  562MOL0     C75739   2.689   8.094   6.728  0.1792  0.6429 -0.9695
  562MOL0     C75740   2.634   7.964   6.712  0.2707  0.7063 -0.1651
  562MOL0     C75741   2.641   7.873   6.822  0.5703  0.7988 -0.3954
  562MOL0     C75742   2.704   7.906   6.947 -0.7320 -0.6374  0.5104
  562MOL0     O75743   2.699   7.815   7.046 -0.1803  0.0708 -0.6277
  562MOL0     C75744   2.786   7.815   7.159  0.3937  0.0073  0.1259
  562MOL0     C75745   2.923   7.762   7.133 -0.0849 -0.0393 -0.9225
  562MOL0     C75746   3.030   7.804   7.234  0.4348 -0.8927 -0.6552
  562MOL0     C75747   3.011   7.750   7.373 -0.5753  0.5334  0.4726
  562MOL0     C75748   3.150   7.744   7.456  0.4801  0.6546 -0.0852
  562MOL0     C75749   3.200   7.891   7.478  1.0799 -0.3307  0.2016
  562MOL0     C75750   3.331   7.891   7.555  0.3200 -0.5682  0.1804
  562MOL0     C75751   3.450   7.805   7.483  0.4796  0.7543 -0.0902
  562MOL0     N75752   3.470   7.850   7.345 -0.2726 -0.2567 -0.4014
  562MOL0     C75753   3.543   7.964   7.310 -0.0446 -0.5611  0.0166
  562MOL0     C75754   3.584   7.948   7.185 -0.6375  1.0555 -0.1016
  562MOL0     C75755   3.649   8.060   7.104  0.0868  0.3382  0.3297
  562MOL0     C75756   3.786   8.100   7.158  0.2864 -0.3990  0.4872
  562MOL0     C75757   3.878   8.152   7.043  0.4449 -0.5508 -1.2849
  562MOL0     C75758   4.004   8.212   7.108  0.6634 -0.2037 -0.6363
  562MOL0     O75759   3.977   8.334   7.189 -0.5507  0.8352 -0.0037
  562MOL0     C75760   4.081   8.386   7.256  1.0881 -0.1540 -1.0639
  562MOL0     C75761   4.223   8.358   7.242 -0.7672 -0.7742  0.5059
  562MOL0     C75762   4.309   8.426   7.326  0.1410  0.0607 -0.2840
  562MOL0     C75763   4.263   8.504   7.433  1.2709 -0.5622  0.4409
  562MOL0     C75764   4.367   8.559   7.530 -0.2446 -0.8966  0.6239
  562MOL0     O75765   4.496   8.525   7.515 -0.7517  0.0860  0.1540
  562MOL0     C75766   4.592   8.528   7.614 -1.0499 -0.1017  0.7311
  562MOL0     C75767   4.633   8.655   7.660  0.0476  0.2560  1.2067
  562MOL0     C75768   4.736   8.664   7.757  0.2714  0.4503 -0.2400
  562MOL0     C75769   4.768   8.546   7.828  0.4769 -0.3484 -0.5065
  562MOL0     O75770   4.825   8.570   7.950 -0.1617 -0.7281 -0.1463
  562MOL0     C75771   4.951   8.507   7.970 -0.4951 -0.8562 -0.1503
  562MOL0     C75772   5.042   8.603   8.050  0.5355  0.4855 -0.3446
  562MOL0     C75773   5.076   8.736   7.979  0.9041  0.4694  0.1454
  562MOL0     C75774   5.059   8.856   8.080 -0.0161  0.5467 -0.2808
  562MOL0     C75775   5.166   8.861   8.193 -0.5399  0.6410 -0.2733
  562MOL0     C75776   5.206   9.003   8.227  0.2700 -0.5788  0.1924
  562MOL0     C75777   5.296   9.003   8.343 -0.1396  0.7989  0.5528
  562MOL0     C75778   5.359   9.133   8.360 -0.3229  0.0570 -0.3476
  562MOL0    Cl75779   5.226   9.237   8.426  0.0260  0.0599  0.2383
  562MOL0     C75780   4.706   8.425   7.795 -0.7451  0.7483 -0.1500
  562MOL0     C75781   4.627   8.409   7.679 -0.2494  0.8447 -0.1279
  562MOL0     O75782   4.324   8.625   7.626  0.5853  0.6523 -0.0060
  562MOL0     C75783   4.126   8.531   7.448 -0.1743  0.7185 -0.4831
  562MOL0     C75784   4.032   8.471   7.365  0.1468  0.4627  0.5348
  562MOL0     N75785   3.540   7.822   7.147  0.2031 -0.1092  0.7637
  562MOL0     N75786   3.485   7.760   7.249 -0.1195  0.0238  0.1929
  562MOL0     C75787   2.755   8.039   6.955  0.3575  0.4308  0.1347
  562MOL0     C75788   2.745   8.127   6.848  1.0463  1.0096 -0.3046
  562MOL0     C75789   2.575   8.309   6.452  0.8386 -0.4884  0.4493
  562MOL0     C75790   2.485   8.419   6.453  0.5900 -0.7709  0.4330
  562MOL0     C75791   2.500   8.514   6.356  0.8858  0.2099  0.3609
  562MOL0     C75792   2.592   8.516   6.250  0.0811 -0.4348 -0.0885
  562MOL0     O75793   2.596   8.621   6.158 -1.1321  0.1805  0.4530
  562MOL0     C75794   2.475   8.685   6.126  0.1242  0.4782 -0.4904
  562MOL0     C75795   2.507   8.780   6.004  0.2081  0.7033  0.3625
  562MOL0     C75796   2.401   8.889   5.970  0.4197 -0.3755  0.6115
  562MOL0     C75797   2.464   8.981   5.865 -0.5457 -0.3367  0.0827
  562MOL0     C75798   2.387   9.103   5.840  0.0696 -0.3503 -0.4554
  562MOL0     C75799   2.322   9.207   5.820 -0.5811 -1.0323 -0.4988
  562MOL0     C75800   2.682   8.415   6.257  0.1256  0.7758  0.4600
  562MOL0     C75801   2.676   8.314   6.353  0.5353 -0.1176  0.1129
  562MOL0     C75802   2.795   8.219   6.360 -0.0974  0.2124  0.1476
  562MOL0     H75803   2.575   7.940   6.625 -0.0893 -1.8105  0.6954
  562MOL0     H75804   2.596   7.774   6.820  0.4899  0.8387 -0.7202
  562MOL0     H75805   2.793   7.915   7.204  4.0285 -0.0244 -0.0361
  562MOL0     H75806   2.729   7.749   7.225  2.1744 -1.2325  0.4908
  562MOL0     H75807   2.951   7.803   7.036 -1.8785  2.4237 -0.5059
  562MOL0     H75808   2.928   7.653   7.125  0.1289 -0.1853  0.8470
  562MOL0     H75809   3.038   7.913   7.238  4.5890 -1.0691  0.0046
  562MOL0     H75810   3.124   7.764   7.194  1.0518  0.9092 -1.0695
  562MOL0     H75811   2.932   7.815   7.413 -0.6325  1.6858 -1.3920
  562MOL0     H75812   2.985   7.644   7.365  0.4492  0.3804 -1.2171
  562MOL0     H75813   3.122   7.686   7.545  0.2274  3.0684  1.4985
  562MOL0     H75814   3.220   7.684   7.398  0.9760  0.9265  0.2283
  562MOL0     H75815   3.211   7.936   7.379 -0.3303  2.3577  1.1815
  562MOL0     H75816   3.132   7.959   7.532 -0.6098  0.5617 -2.8087
  562MOL0     H75817   3.313   7.849   7.654  2.2058 -0.0409  0.7971
  562MOL0     H75818   3.365   7.994   7.563 -0.0875 -0.4210  0.0300
  562MOL0     H75819   3.543   7.813   7.540 -0.4651 -0.7239  1.7733
  562MOL0     H75820   3.434   7.697   7.490 -0.1107  0.5972 -2.7971
  562MOL0     H75821   3.552   8.046   7.381  0.7544 -1.1140  0.5784
  562MOL0     H75822   3.664   8.011   7.008 -0.0269  0.8322  0.0559
  562MOL0     H75823   3.592   8.149   7.076 -2.0124 -1.7141 -2.4131
  562MOL0     H75824   3.762   8.169   7.239 -1.7647 -1.1060  0.5268
  562MOL0     H75825   3.837   8.011   7.196  0.0837 -2.0804 -2.8018
  562MOL0     H75826   3.823   8.230   6.990  0.7168 -0.6036 -1.6429
  562MOL0     H75827   3.919   8.067   6.988  0.7209 -2.5499  1.7306
  562MOL0     H75828   4.089   8.225   7.040  2.7107  1.0379  1.9530
  562MOL0     H75829   4.039   8.142   7.185  0.7233 -0.5541 -0.9779
  562MOL0     H75830   4.252   8.298   7.156  0.0247 -1.3598  1.1641
  562MOL0     H75831   4.416   8.414   7.308  0.1781  2.3794 -2.2021
  562MOL0     H75832   4.598   8.741   7.605 -0.9714 -1.3400 -0.7867
  562MOL0     H75833   4.774   8.765   7.770 -0.1326  1.3270 -4.2934
  562MOL0     H75834   4.932   8.411   8.018 -0.3825 -0.9657 -0.3257
  562MOL0     H75835   5.003   8.492   7.876 -0.7643 -2.5153 -0.0609
  562MOL0     H75836   4.992   8.610   8.147 -0.7691 -1.7231 -0.8027
  562MOL0     H75837   5.140   8.555   8.058  0.6440  0.4582 -1.6772
  562MOL0     H75838   5.180   8.734   7.943  1.4670  2.8629  1.4461
  562MOL0     H75839   5.000   8.744   7.901  2.5202  2.5904 -1.3312
  562MOL0     H75840   4.960   8.864   8.125 -2.3029 -2.9431 -4.0006
  562MOL0     H75841   5.058   8.947   8.019 -0.7301  1.9156  1.6551
  562MOL0     H75842   5.247   8.796   8.157 -0.2318  0.9887 -0.2226
  562MOL0     H75843   5.124   8.810   8.280  2.2222 -3.0644 -0.8456
  562MOL0     H75844   5.259   9.038   8.138 -0.7578 -0.9578 -0.5998
  562MOL0     H75845   5.123   9.074   8.240  1.4919  0.9764 -0.1234
  562MOL0     H75846   5.370   8.922   8.338  0.6930  1.5433  0.5727
  562MOL0     H75847   5.228   8.978   8.424 -1.8205  0.3251 -0.9278
  562MOL0     H75848   5.437   9.122   8.435  1.3297 -0.5480 -2.0848
  562MOL0     H75849   5.417   9.169   8.274  2.3397 -0.0186  1.3182
  562MOL0     H75850   4.732   8.330   7.840 -0.3194  1.0387  0.2331
  562MOL0     H75851   4.593   8.313   7.643 -1.1325  0.6166  1.2442
  562MOL0     H75852   4.090   8.590   7.532  0.0745  0.2837 -0.0649
  562MOL0     H75853   3.925   8.478   7.379 -0.6442 -3.4283 -2.0061
  562MOL0     H75854   2.811   8.067   7.044 -1.9282 -0.5108  1.9727
  562MOL0     H75855   2.772   8.230   6.870  0.0303  0.7622  2.6120
  562MOL0     H75856   2.409   8.435   6.529  1.5323 -0.4082  1.3296
  562MOL0     H75857   2.431   8.598   6.364 -0.5986 -0.8815 -0.3281
  562MOL0     H75858   2.440   8.736   6.216  0.5187 -3.9484  2.5160
  562MOL0     H75859   2.402   8.610   6.095  0.2362  0.6670 -1.2230
  562MOL0     H75860   2.526   8.723   5.913 -2.5204  0.9686 -0.4381
  562MOL0     H75861   2.600   8.836   6.020  0.5087  0.3493 -0.1192
  562MOL0     H75862   2.374   8.943   6.061 -0.8738 -1.4919  0.9207
  562MOL0     H75863   2.311   8.847   5.924 -0.4233  0.4613  1.4622
  562MOL0     H75864   2.570   9.007   5.879 -0.2223 -0.3757 -2.0171
  562MOL0     H75865   2.462   8.933   5.767  2.1542  0.3965 -0.4253
  562MOL0     H75866   2.253   9.289   5.811  0.5217  1.0025  5.3577
  562MOL0     H75867   2.757   8.412   6.178 -0.4894  1.2861 -0.1597
  562MOL0     H75868   2.857   8.242   6.447  1.0421  0.5100 -0.7215
  562MOL0     H75869   2.757   8.117   6.370 -3.2588  1.4045  1.9577
  562MOL0     H75870   2.854   8.232   6.269 -0.7143  0.5403 -0.2108
  563MOL0     O75871  10.855   7.543   2.604  0.2383  0.1275 -0.1569
  563MOL0     C75872  10.885   7.503   2.492 -0.6140  0.0086 -0.2398
  563MOL0     O75873  11.014   7.473   2.451 -0.5843  0.1538  0.6975
  563MOL0     C75874  11.118   7.501   2.543  0.5400 -0.3572  0.0121
  563MOL0     C75875  11.179   7.629   2.539 -0.3974 -0.3217 -0.1379
  563MOL0     C75876  11.265   7.672   2.639 -0.2785 -0.3590  0.0683
  563MOL0     C75877  11.285   7.584   2.750 -0.2717  0.3807 -0.0462
  563MOL0     O75878  11.370   7.629   2.848 -0.0671 -0.0814  0.2542
  563MOL0     C75879  11.391   7.560   2.964 -0.3468 -1.1014  0.4528
  563MOL0     C75880  11.488   7.440   2.940  0.2151  0.3051  0.6830
  563MOL0     C75881  11.510   7.361   3.068  0.2775 -1.0471 -0.1392
  563MOL0     C75882  11.388   7.289   3.116 -1.5774 -0.1142 -0.0561
  563MOL0     C75883  11.397   7.256   3.267 -0.4768 -1.1058  0.0528
  563MOL0     C75884  11.362   7.383   3.353 -1.3386 -0.1637 -0.1799
  563MOL0     C75885  11.487   7.422   3.442 -0.0118  0.4129  0.2441
  563MOL0     C75886  11.445   7.552   3.507 -0.1940  0.0798 -1.1939
  563MOL0     N75887  11.552   7.577   3.606  0.4904  0.3171 -0.2809
  563MOL0     C75888  11.559   7.510   3.727  0.6168 -0.0997  0.4934
  563MOL0     C75889  11.670   7.554   3.783  0.0767  0.0444 -0.1652
  563MOL0     C75890  11.710   7.535   3.921 -1.1245 -0.4220  0.9193
  563MOL0     C75891  11.702   7.398   3.990 -0.3195 -0.3648  0.3766
  563MOL0     C75892  11.741   7.411   4.140  0.5160 -0.7199 -0.2196
  563MOL0     C75893  11.892   7.413   4.163 -0.4411  0.4497  0.4495
  563MOL0     O75894  11.930   7.285   4.221  0.4149 -0.3151 -0.4422
  563MOL0     C75895  12.063   7.254   4.233  0.7737 -0.2558 -0.2739
  563MOL0     C75896  12.167   7.345   4.214 -0.5755  0.3386 -0.2090
  563MOL0     C75897  12.298   7.309   4.240 -0.7584  0.0059 -0.4101
  563MOL0     C75898  12.327   7.188   4.306 -0.3905 -0.3919  0.8039
  563MOL0     C75899  12.471   7.159   4.344 -0.7645  0.6330 -0.1866
  563MOL0     O75900  12.492   7.027   4.382 -0.3747 -0.7354  0.5345
  563MOL0     C75901  12.622   6.984   4.420  0.3900 -0.1710  0.5281
  563MOL0     C75902  12.735   7.023   4.349 -0.7973  0.1399  0.1809
  563MOL0     C75903  12.850   6.969   4.377  0.6235  0.5148  0.5041
  563MOL0     C75904  12.877   6.883   4.486  0.3807  0.0660 -0.3922
  563MOL0     O75905  12.989   6.829   4.528  0.8433 -0.6238  0.5974
  563MOL0     C75906  13.116   6.842   4.448 -0.5208  0.5563 -0.7008
  563MOL0     C75907  13.248   6.799   4.522 -0.1813  0.9425 -0.4570
  563MOL0     C75908  13.286   6.880   4.654 -0.3484 -0.1623  0.7255
  563MOL0     C75909  13.433   6.835   4.702  0.2907  0.1010 -0.0259
  563MOL0     C75910  13.474   6.928   4.822 -0.0523 -0.0957  0.4382
  563MOL0     C75911  13.629   6.923   4.844  0.3966  0.0315  0.0263
  563MOL0     C75912  13.659   7.000   4.969 -0.1567 -0.5506 -0.0636
  563MOL0     C75913  13.795   6.969   5.034  0.0239 -0.0040  0.4072
  563MOL0    Cl75914  13.790   6.807   5.101  0.0216  0.5089  0.0271
  563MOL0     C75915  12.764   6.839   4.554  0.7401 -1.0336  0.0957
  563MOL0     C75916  12.638   6.892   4.520  0.1766  0.0085 -0.3568
  563MOL0     O75917  12.558   7.244   4.342  0.3121  0.5777  0.3588
  563MOL0     C75918  12.223   7.102   4.330  0.9260 -0.3068  0.4847
  563MOL0     C75919  12.087   7.130   4.284 -0.4650  0.4385 -0.3779
  563MOL0     N75920  11.724   7.657   3.692  0.6475  0.5808 -0.8901
  563MOL0     N75921  11.653   7.656   3.582  0.6009  0.2045 -0.1769
  563MOL0     C75922  11.216   7.462   2.746 -0.3033  0.0229 -0.2160
  563MOL0     C75923  11.138   7.417   2.649  0.1643  0.9683  0.9421
  563MOL0     C75924  10.772   7.467   2.408  0.2854  0.0290  1.3479
  563MOL0     C75925  10.657   7.420   2.467 -0.0735  0.2074 -0.3150
  563MOL0     C75926  10.537   7.414   2.398  0.2427  0.1423  0.1022
  563MOL0     C75927  10.533   7.446   2.257  0.4331  0.7911  0.6184
  563MOL0     O75928  10.418   7.417   2.191  0.2127 -0.7628  0.4764
  563MOL0     C75929  10.392   7.484   2.062 -0.4405 -0.3454 -0.1906
  563MOL0     C75930  10.392   7.636   2.078  0.4436  0.7344 -0.3304
  563MOL0     C75931  10.288   7.679   2.176  0.1767 -0.1937 -0.4219
  563MOL0     C75932  10.300   7.840   2.202  0.0388 -0.1327  0.5635
  563MOL0     C75933  10.178   7.904   2.257  0.7663 -0.0856  0.1773
  563MOL0     C75934  10.074   7.955   2.293 -0.3148  0.0731 -0.3628
  563MOL0     C75935  10.650   7.499   2.198 -0.4975  0.0805 -0.4205
  563MOL0     C75936  10.773   7.502   2.267 -0.6509 -0.3712 -0.0128
  563MOL0     C75937  10.902   7.549   2.195 -0.0648 -0.4196 -0.9168
  563MOL0     H75938  11.154   7.704   2.464  0.3207  0.7321  0.6405
  563MOL0     H75939  11.320   7.765   2.642  1.5063 -1.4020  2.0813
  563MOL0     H75940  11.429   7.617   3.049  2.5317 -1.3808 -0.5156
  563MOL0     H75941  11.300   7.516   3.004 -1.6142  1.9741  1.2039
  563MOL0     H75942  11.581   7.477   2.894  0.0948 -0.7661 -0.4500
  563MOL0     H75943  11.445   7.376   2.863 -1.5339  1.6500  0.4787
  563MOL0     H75944  11.546   7.427   3.147 -0.2819 -0.9110  0.0060
  563MOL0     H75945  11.585   7.283   3.053  1.1383 -0.1826 -0.4453
  563MOL0     H75946  11.299   7.347   3.091 -0.0984  2.0307 -0.6119
  563MOL0     H75947  11.387   7.188   3.072 -2.7976  0.4811 -1.4939
  563MOL0     H75948  11.327   7.175   3.292 -0.0858 -1.4317  0.0984
  563MOL0     H75949  11.499   7.219   3.282 -0.4280 -0.8358  0.4133
  563MOL0     H75950  11.354   7.466   3.283  1.6160  0.1242 -0.3301
  563MOL0     H75951  11.273   7.371   3.415 -1.9027  2.1055 -0.4814
  563MOL0     H75952  11.575   7.426   3.377  1.4137 -2.4539  1.8326
  563MOL0     H75953  11.511   7.339   3.509  1.0698 -0.1483 -0.8003
  563MOL0     H75954  11.439   7.639   3.441 -0.2049  1.1733  0.2071
  563MOL0     H75955  11.349   7.535   3.556  0.6924 -2.2601 -0.1111
  563MOL0     H75956  11.485   7.442   3.768  0.8034 -0.0442  0.9270
  563MOL0     H75957  11.811   7.574   3.915 -1.2224 -0.2622  0.2409
  563MOL0     H75958  11.652   7.603   3.983 -0.2116  0.2720  1.0222
  563MOL0     H75959  11.599   7.362   3.984  0.2086 -1.7495 -1.3883
  563MOL0     H75960  11.770   7.330   3.937  0.7213  0.7459  0.2326
  563MOL0     H75961  11.686   7.337   4.200 -5.4058  2.4058 -1.0581
  563MOL0     H75962  11.693   7.500   4.180  0.9149 -1.0519  1.0352
  563MOL0     H75963  11.927   7.486   4.237 -1.6158  1.9815 -0.4503
  563MOL0     H75964  11.947   7.414   4.069  1.0780  1.5972  1.3030
  563MOL0     H75965  12.150   7.439   4.163  1.2585 -0.0286 -1.6254
  563MOL0     H75966  12.374   7.377   4.203  0.4278 -2.5428 -3.0215
  563MOL0     H75967  12.734   7.093   4.266 -0.5014 -2.1798 -1.9017
  563MOL0     H75968  12.933   6.998   4.314 -0.4150  1.2342 -0.5710
  563MOL0     H75969  13.114   6.783   4.356 -1.1954  3.4198 -2.6940
  563MOL0     H75970  13.118   6.948   4.420 -1.8366  0.1165 -2.7325
  563MOL0     H75971  13.246   6.692   4.545 -1.9841  0.2059 -3.5023
  563MOL0     H75972  13.330   6.809   4.450 -2.0466  0.2629 -2.7901
  563MOL0     H75973  13.276   6.987   4.635  1.2000 -0.2648 -0.9433
  563MOL0     H75974  13.207   6.863   4.728  0.3965  1.6843  2.0263
  563MOL0     H75975  13.505   6.844   4.620  2.9430  2.2003  2.3211
  563MOL0     H75976  13.435   6.731   4.738 -1.9378 -0.8765 -2.4313
  563MOL0     H75977  13.411   6.894   4.906 -2.1764 -0.1642 -1.0915
  563MOL0     H75978  13.450   7.030   4.790 -0.0593  0.0026  0.7557
  563MOL0     H75979  13.664   6.820   4.851 -1.0692 -0.4628  0.2983
  563MOL0     H75980  13.668   6.968   4.752 -2.5454  0.2590 -1.2124
  563MOL0     H75981  13.581   7.004   5.045  0.5426  6.5019  0.9654
  563MOL0     H75982  13.670   7.108   4.958 -3.0696  0.2597  3.2434
  563MOL0     H75983  13.881   6.977   4.967  0.2132  3.2704  0.8402
  563MOL0     H75984  13.806   7.036   5.120 -0.2186  1.3069 -0.5402
  563MOL0     H75985  12.766   6.782   4.647 -0.3812 -0.2698  0.6198
  563MOL0     H75986  12.547   6.857   4.567  0.3567  1.1669  0.9245
  563MOL0     H75987  12.233   7.001   4.370  1.7566 -0.7535 -0.7534
  563MOL0     H75988  12.018   7.047   4.295  0.0800 -1.5659 -7.1439
  563MOL0     H75989  11.239   7.402   2.834  0.1887  0.5100 -0.0072
  563MOL0     H75990  11.084   7.324   2.658 -0.3680  1.4399  3.2533
  563MOL0     H75991  10.651   7.390   2.571  0.3922 -0.9349 -0.5978
  563MOL0     H75992  10.444   7.385   2.445 -2.0248  4.0111 -1.5739
  563MOL0     H75993  10.294   7.464   2.019 -2.0037 -0.9604  3.3318
  563MOL0     H75994  10.473   7.458   1.993  0.0386  1.5081 -0.3776
  563MOL0     H75995  10.370   7.683   1.982  0.9558  2.0532  0.1815
  563MOL0     H75996  10.495   7.659   2.109  0.7306 -2.3576  1.5278
  563MOL0     H75997  10.292   7.620   2.268 -0.8036  0.6666  0.1930
  563MOL0     H75998  10.188   7.667   2.134 -1.7981  1.3701  3.3443
  563MOL0     H75999  10.387   7.848   2.268  0.5962 -2.5755  0.2506
  563MOL0     H76000  10.319   7.903   2.115 -2.3431  1.5537  1.1760
  563MOL0     H76001   9.982   8.006   2.314 -0.5542 -0.2772 -0.5570
  563MOL0     H76002  10.649   7.526   2.093  0.0270  1.2387 -0.1488
  563MOL0     H76003  10.961   7.459   2.172 -0.3425 -0.6036 -0.9138
  563MOL0     H76004  10.882   7.602   2.101  0.6922 -0.2888 -1.0092
  563MOL0     H76005  10.947   7.627   2.256  1.9507 -0.2007 -2.5940
  564MOL0     O76006   8.276   3.061   4.625  0.3531 -0.4277 -0.2414
  564MOL0     C76007   8.223   3.087   4.521  0.2220 -0.3713  0.0313
  564MOL0     O76008   8.218   3.216   4.465 -0.2915  0.6601  0.0831
  564MOL0     C76009   8.300   3.323   4.502 -0.9488  0.3554  0.7350
  564MOL0     C76010   8.433   3.318   4.541 -0.0234 -0.2103 -0.6219
  564MOL0     C76011   8.504   3.432   4.579  0.1445 -0.4325  0.0135
  564MOL0     C76012   8.435   3.553   4.587 -0.2784  0.4325 -0.5402
  564MOL0     O76013   8.502   3.664   4.634  0.7979  0.1068  0.2271
  564MOL0     C76014   8.637   3.675   4.675 -0.4968  0.2993 -0.8122
  564MOL0     C76015   8.677   3.798   4.741 -0.2450 -0.3295 -0.9078
  564MOL0     C76016   8.598   3.821   4.878 -0.1560  0.4627 -0.1153
  564MOL0     C76017   8.670   3.746   4.991 -0.7315  0.5005 -0.1054
  564MOL0     C76018   8.626   3.786   5.132 -0.2670  0.0259  0.5036
  564MOL0     C76019   8.478   3.773   5.178 -0.1615  0.1939  0.4309
  564MOL0     C76020   8.455   3.636   5.256  0.1814  0.2552 -0.6656
  564MOL0     C76021   8.307   3.597   5.285  0.0124 -1.3249 -0.2802
  564MOL0     N76022   8.299   3.468   5.353 -0.0192  0.1434  0.4269
  564MOL0     C76023   8.203   3.366   5.335  0.2012 -0.8434  0.2058
  564MOL0     C76024   8.235   3.279   5.428  0.2895  0.2057 -0.3756
  564MOL0     C76025   8.163   3.155   5.478 -0.4533 -0.8718 -0.0294
  564MOL0     C76026   8.018   3.185   5.518  0.3242 -0.4207  0.3587
  564MOL0     C76027   8.004   3.261   5.646 -0.5589  0.1426  0.4331
  564MOL0     C76028   8.037   3.408   5.655 -0.2769 -1.0754 -0.3093
  564MOL0     O76029   7.947   3.483   5.560 -0.9447  0.0407  0.2697
  564MOL0     C76030   7.971   3.629   5.564 -0.8727  1.1711  0.0316
  564MOL0     C76031   8.100   3.690   5.606 -0.4753  0.2495  0.7957
  564MOL0     C76032   8.093   3.824   5.626 -1.0447 -0.5294 -0.6065
  564MOL0     C76033   7.986   3.908   5.577  0.6421  0.6244  0.5113
  564MOL0     C76034   7.991   4.054   5.605  0.1751 -1.3134  0.0232
  564MOL0     O76035   7.880   4.118   5.576 -0.4934  0.1222 -0.2668
  564MOL0     C76036   7.846   4.235   5.634 -0.3209 -0.4577 -1.2056
  564MOL0     C76037   7.848   4.263   5.766  0.9956 -0.9927 -0.3828
  564MOL0     C76038   7.797   4.379   5.815  0.1387 -0.1076  0.0212
  564MOL0     C76039   7.737   4.473   5.734  0.3609 -0.2799  0.0384
  564MOL0     O76040   7.683   4.588   5.780  0.5863 -0.2699 -0.2761
  564MOL0     C76041   7.727   4.645   5.899  0.5968 -0.7082 -0.3558
  564MOL0     C76042   7.737   4.800   5.870  0.5299 -0.1585 -0.4346
  564MOL0     C76043   7.602   4.867   5.837 -0.6209 -0.7636 -0.0521
  564MOL0     C76044   7.595   4.947   5.707  0.9631 -0.2539  0.1710
  564MOL0     C76045   7.460   5.019   5.674 -0.6820  0.8319 -0.2815
  564MOL0     C76046   7.427   5.052   5.530  0.3501 -0.0796  0.0368
  564MOL0     C76047   7.386   4.937   5.446 -0.0303  0.2362  0.0917
  564MOL0     C76048   7.386   4.982   5.300 -0.1890  0.2724 -0.1985
  564MOL0    Cl76049   7.300   4.854   5.206  0.1616  0.0840  0.2875
  564MOL0     C76050   7.738   4.445   5.599  0.5234  0.6997 -0.8226
  564MOL0     C76051   7.801   4.327   5.542  1.1160  0.5663 -0.3186
  564MOL0     O76052   8.089   4.113   5.662 -0.2591  1.1504 -0.4565
  564MOL0     C76053   7.868   3.844   5.536  0.2422 -0.3011 -0.3083
  564MOL0     C76054   7.861   3.707   5.528  0.0194  0.6548 -0.7596
  564MOL0     N76055   8.353   3.323   5.502  0.8192 -0.2451 -0.1878
  564MOL0     N76056   8.389   3.426   5.443 -0.1712 -0.6542  1.3072
  564MOL0     C76057   8.300   3.557   4.558  0.4656  1.0726 -0.0038
  564MOL0     C76058   8.237   3.441   4.516  0.2262 -1.1294 -0.0058
  564MOL0     C76059   8.145   2.980   4.457  0.6852  0.7707  0.0774
  564MOL0     C76060   8.062   3.020   4.361  0.0298 -0.5960  0.8172
  564MOL0     C76061   7.974   2.939   4.290  0.0657  0.0735  0.3502
  564MOL0     C76062   7.980   2.801   4.302  0.1235 -0.8385  0.5295
  564MOL0     O76063   7.905   2.713   4.223  0.1664  0.8140  0.0359
  564MOL0     C76064   7.775   2.760   4.176 -1.0681  0.3061 -0.2851
  564MOL0     C76065   7.684   2.785   4.293  0.9549 -0.1492 -0.5917
  564MOL0     C76066   7.543   2.814   4.246  0.4017 -0.7758  0.1221
  564MOL0     C76067   7.456   2.833   4.375 -0.0637  0.2531 -0.4349
  564MOL0     C76068   7.331   2.903   4.337  0.1595  0.6132 -0.0005
  564MOL0     C76069   7.223   2.946   4.302  0.0377  0.4225 -0.0616
  564MOL0     C76070   8.080   2.754   4.393 -0.1337 -0.4013 -0.3862
  564MOL0     C76071   8.153   2.840   4.481  0.3122 -0.2281  0.1660
  564MOL0     C76072   8.252   2.782   4.577  0.1362  0.2446 -0.2017
  564MOL0     H76073   8.485   3.223   4.530  1.3797  0.5716 -1.0821
  564MOL0     H76074   8.605   3.427   4.617 -0.6068  0.5663  2.3194
  564MOL0     H76075   8.657   3.589   4.740 -0.3385  0.4802 -0.6200
  564MOL0     H76076   8.703   3.652   4.590 -0.3383 -2.4083 -0.0638
  564MOL0     H76077   8.640   3.884   4.684  2.0003  1.2963 -0.0140
  564MOL0     H76078   8.785   3.810   4.749 -0.3745 -0.5699  2.8526
  564MOL0     H76079   8.492   3.795   4.864 -1.5715  4.4921  1.6352
  564MOL0     H76080   8.596   3.927   4.904  0.8286  0.4209  0.1744
  564MOL0     H76081   8.653   3.639   4.975  2.0184 -0.1530  0.8585
  564MOL0     H76082   8.779   3.754   4.996 -0.6883 -0.5744  2.2461
  564MOL0     H76083   8.688   3.724   5.198  1.3485  2.5840  1.5142
  564MOL0     H76084   8.651   3.891   5.148 -5.2394  1.6089 -0.4747
  564MOL0     H76085   8.463   3.857   5.245 -2.4246 -1.0685  1.6189
  564MOL0     H76086   8.406   3.794   5.098 -1.0347 -0.5448  1.0072
  564MOL0     H76087   8.521   3.631   5.343  1.6902 -1.4905 -1.8265
  564MOL0     H76088   8.491   3.552   5.195  0.4157 -1.0418  1.1610
  564MOL0     H76089   8.248   3.672   5.339 -0.2504 -2.7168  1.4527
  564MOL0     H76090   8.257   3.581   5.189  0.4418  1.0265 -0.9428
  564MOL0     H76091   8.130   3.354   5.255  0.8415  0.7100 -0.6559
  564MOL0     H76092   8.162   3.086   5.393  0.6182  2.1492 -2.7252
  564MOL0     H76093   8.218   3.111   5.562  3.4462  0.8414 -1.4356
  564MOL0     H76094   7.960   3.222   5.433  0.0836 -1.5401  0.0279
  564MOL0     H76095   7.983   3.084   5.539  0.6170 -0.2750  1.6762
  564MOL0     H76096   8.041   3.202   5.731 -0.6253 -0.1094  0.2901
  564MOL0     H76097   7.896   3.256   5.667 -0.4461 -1.4218  0.8182
  564MOL0     H76098   8.142   3.436   5.654 -0.0380 -1.8760  0.8664
  564MOL0     H76099   8.012   3.439   5.757  0.4701  1.1999 -0.7616
  564MOL0     H76100   8.195   3.642   5.624  2.3686  3.6812 -3.1421
  564MOL0     H76101   8.188   3.862   5.662 -0.6736 -1.3612 -0.6848
  564MOL0     H76102   7.890   4.196   5.840  1.6172  0.6778  0.8270
  564MOL0     H76103   7.800   4.387   5.923  0.0270 -3.3315  0.3522
  564MOL0     H76104   7.661   4.628   5.984 -1.3293 -2.6614 -2.1139
  564MOL0     H76105   7.826   4.607   5.925 -0.0320 -2.2064 -0.0845
  564MOL0     H76106   7.781   4.856   5.953 -2.3999  2.2496 -0.3396
  564MOL0     H76107   7.811   4.804   5.789  1.4225 -2.2369  0.2079
  564MOL0     H76108   7.527   4.787   5.832 -1.1713 -0.1932 -2.1534
  564MOL0     H76109   7.581   4.938   5.917 -0.3532  0.1659 -0.7929
  564MOL0     H76110   7.637   4.873   5.639  0.6809 -3.5081  3.2542
  564MOL0     H76111   7.674   5.022   5.708  1.9667 -1.2808 -0.0032
  564MOL0     H76112   7.435   5.113   5.723 -0.1563  2.0050 -2.1650
  564MOL0     H76113   7.380   4.965   5.726  0.8372  0.2155  1.5471
  564MOL0     H76114   7.338   5.116   5.525  1.3293  1.3958  0.7414
  564MOL0     H76115   7.503   5.120   5.491 -0.1664  0.6744  0.3204
  564MOL0     H76116   7.285   4.908   5.478  0.2550 -0.3826  0.4343
  564MOL0     H76117   7.457   4.857   5.468  2.1544  1.7003 -1.2455
  564MOL0     H76118   7.322   5.068   5.276 -2.7735 -0.4962  3.0982
  564MOL0     H76119   7.489   5.006   5.270 -0.5542 -0.8404 -2.5574
  564MOL0     H76120   7.690   4.502   5.519 -0.6410 -0.3482 -0.8986
  564MOL0     H76121   7.802   4.309   5.435  2.8255 -1.2226 -0.0627
  564MOL0     H76122   7.774   3.898   5.533  1.3427  2.4679  4.6740
  564MOL0     H76123   7.771   3.656   5.495  2.5762 -3.5678 -2.0758
  564MOL0     H76124   8.234   3.642   4.576  3.9537  4.0830 -0.1559
  564MOL0     H76125   8.130   3.448   4.503  0.0265 -1.5028  1.2726
  564MOL0     H76126   8.058   3.122   4.326 -1.5661 -1.6879 -2.6209
  564MOL0     H76127   7.906   2.980   4.216  2.0923  2.1519 -0.4749
  564MOL0     H76128   7.725   2.690   4.108  2.5538 -0.9295 -1.9177
  564MOL0     H76129   7.772   2.850   4.113 -5.2625  0.5954  0.0205
  564MOL0     H76130   7.735   2.859   4.355  1.2331  0.0145 -1.0088
  564MOL0     H76131   7.674   2.701   4.361  0.4530  1.0377  0.8608
  564MOL0     H76132   7.506   2.720   4.203 -0.8123 -1.6982  2.8958
  564MOL0     H76133   7.543   2.894   4.172  1.1478  0.8317  1.7827
  564MOL0     H76134   7.438   2.734   4.420 -0.3383 -0.9912 -3.0942
  564MOL0     H76135   7.507   2.890   4.453 -4.0504 -0.2942  2.9653
  564MOL0     H76136   7.123   2.974   4.276 -0.9318 -1.3277  1.5098
  564MOL0     H76137   8.104   2.648   4.398  1.3273 -0.0925 -0.4307
  564MOL0     H76138   8.352   2.828   4.571 -0.8367  2.8524  1.7414
  564MOL0     H76139   8.225   2.793   4.682  3.5141 -1.0295  0.9576
  564MOL0     H76140   8.276   2.679   4.550  1.9850  0.1185  1.6729
  565MOL0     O76141   6.825   7.655  11.389  0.4218  0.2590  0.3788
  565MOL0     C76142   6.895   7.741  11.430  1.0738  0.1711  0.0048
  565MOL0     O76143   7.021   7.717  11.477 -0.2743 -0.1009 -0.4030
  565MOL0     C76144   7.109   7.651  11.396 -0.4004  0.1577 -0.1790
  565MOL0     C76145   7.241   7.659  11.436  0.1998 -0.4065  0.4029
  565MOL0     C76146   7.342   7.594  11.371 -1.3811  0.4300 -0.7717
  565MOL0     C76147   7.319   7.518  11.260 -0.2071  0.4163  0.1797
  565MOL0     O76148   7.423   7.453  11.190  0.3568  0.6426 -0.9255
  565MOL0     C76149   7.551   7.421  11.244 -0.3694  0.2094 -0.4924
  565MOL0     C76150   7.564   7.337  11.368  1.5064 -0.3524 -0.4035
  565MOL0     C76151   7.695   7.329  11.431 -0.6557  0.0035  0.4556
  565MOL0     C76152   7.702   7.216  11.534 -0.1187  0.1853 -0.5738
  565MOL0     C76153   7.833   7.202  11.624 -0.3638 -0.4216  0.4917
  565MOL0     C76154   7.966   7.235  11.541 -0.1599 -0.2225 -0.6926
  565MOL0     C76155   7.967   7.134  11.425 -0.2749  0.4096 -0.2959
  565MOL0     C76156   8.101   7.072  11.401  0.4571 -0.0631  0.5529
  565MOL0     N76157   8.082   6.978  11.282 -0.7758 -0.8120  0.3738
  565MOL0     C76158   7.992   6.874  11.283  0.0258  0.3077  0.7593
  565MOL0     C76159   7.985   6.833  11.156  0.3195 -0.8128 -0.1291
  565MOL0     C76160   7.876   6.743  11.100 -0.1457  0.7036  0.0906
  565MOL0     C76161   7.918   6.593  11.110 -0.5176 -0.3914  0.4803
  565MOL0     C76162   7.895   6.535  11.247  0.2351  0.3937 -0.1398
  565MOL0     C76163   7.933   6.383  11.247 -0.2299  0.5982  0.1991
  565MOL0     O76164   7.962   6.331  11.379  1.3831  0.0943 -0.0273
  565MOL0     C76165   7.864   6.331  11.478  0.2419 -0.0485 -0.2566
  565MOL0     C76166   7.730   6.345  11.443 -0.0160 -0.6731 -0.1078
  565MOL0     C76167   7.636   6.354  11.549 -0.6100  0.8306 -0.8488
  565MOL0     C76168   7.672   6.348  11.685  0.5726 -0.3955  0.0626
  565MOL0     C76169   7.576   6.360  11.793  0.2831 -0.5241 -0.3734
  565MOL0     O76170   7.629   6.405  11.924 -0.4755  0.5041 -0.5620
  565MOL0     C76171   7.543   6.453  12.012  0.0074  0.1258 -0.4428
  565MOL0     C76172   7.464   6.566  11.976 -0.3730 -0.2951  0.8001
  565MOL0     C76173   7.363   6.613  12.056  0.1963  0.8987 -0.0996
  565MOL0     C76174   7.335   6.546  12.179  0.9123 -0.7034  0.4928
  565MOL0     O76175   7.221   6.595  12.237  0.0583  0.0776  0.3517
  565MOL0     C76176   7.179   6.560  12.365 -1.2186  0.0606 -0.0925
  565MOL0     C76177   7.037   6.600  12.383  0.0108  0.5125  0.8919
  565MOL0     C76178   6.989   6.595  12.533  0.8151 -0.1020  0.4492
  565MOL0     C76179   6.830   6.613  12.541 -0.0311  0.5953 -0.0472
  565MOL0     C76180   6.754   6.512  12.461 -0.9416 -0.4583  0.4821
  565MOL0     C76181   6.617   6.485  12.506  0.6263  0.1157  0.4038
  565MOL0     C76182   6.520   6.603  12.502 -0.5869 -0.0892 -0.3780
  565MOL0     C76183   6.465   6.623  12.646  0.4250 -0.4876  0.3384
  565MOL0    Cl76184   6.389   6.483  12.717  0.0308 -0.0366 -0.2594
  565MOL0     C76185   7.404   6.432  12.215  0.1201  0.0601  0.0542
  565MOL0     C76186   7.513   6.391  12.131  0.0317 -0.5207 -0.6503
  565MOL0     O76187   7.453   6.359  11.772 -0.6221 -0.7435  0.6550
  565MOL0     C76188   7.805   6.319  11.715 -0.4657 -0.0705  0.1091
  565MOL0     C76189   7.900   6.306  11.613 -0.6601  0.2758 -1.1385
  565MOL0     N76190   8.078   6.905  11.083 -0.5826  0.2318 -0.2135
  565MOL0     N76191   8.135   6.989  11.159  0.5821 -0.0195  0.0980
  565MOL0     C76192   7.184   7.513  11.219 -0.5957  0.6172 -0.3963
  565MOL0     C76193   7.077   7.577  11.281 -0.2141  0.8590  0.3223
  565MOL0     C76194   6.834   7.856  11.483 -0.2182  0.7781  0.0151
  565MOL0     C76195   6.924   7.961  11.535  0.1053 -0.4700  0.5747
  565MOL0     C76196   6.870   8.072  11.609 -0.5447  0.2437  0.6757
  565MOL0     C76197   6.736   8.089  11.640  0.8641  0.8186 -0.2883
  565MOL0     O76198   6.678   8.192  11.709  0.1359  0.3030 -0.1018
  565MOL0     C76199   6.767   8.289  11.762 -0.3140 -0.4863 -0.0434
  565MOL0     C76200   6.679   8.374  11.859  0.3687  0.0563  0.2435
  565MOL0     C76201   6.554   8.429  11.774  0.3245 -0.5320  0.3228
  565MOL0     C76202   6.458   8.527  11.849 -0.4060  0.0749 -0.4949
  565MOL0     C76203   6.405   8.484  11.978 -0.0342  0.6643 -0.0751
  565MOL0     C76204   6.350   8.434  12.077 -0.3306 -0.0882 -0.0026
  565MOL0     C76205   6.655   7.987  11.581  0.1491 -0.1744 -1.1489
  565MOL0     C76206   6.697   7.875  11.511  0.9195 -0.7347 -0.1582
  565MOL0     C76207   6.585   7.772  11.495  0.4138  0.8580 -0.1459
  565MOL0     H76208   7.255   7.723  11.523  0.4397 -2.5296  2.0131
  565MOL0     H76209   7.440   7.605  11.416 -2.7429 -0.7395  2.8195
  565MOL0     H76210   7.591   7.356  11.166  3.2030 -1.0588  2.1537
  565MOL0     H76211   7.609   7.514  11.245 -1.0889  0.7880 -3.2124
  565MOL0     H76212   7.540   7.234  11.341  0.7547 -0.3632  0.2493
  565MOL0     H76213   7.502   7.382  11.447  0.5206 -0.1559 -1.2652
  565MOL0     H76214   7.707   7.420  11.489 -0.6728 -0.8276  1.7903
  565MOL0     H76215   7.769   7.317  11.351 -2.3435  1.5945 -1.4515
  565MOL0     H76216   7.626   7.241  11.609 -0.5507  1.0054 -1.2689
  565MOL0     H76217   7.688   7.122  11.480  2.8590 -0.7852  0.1411
  565MOL0     H76218   7.814   7.276  11.702  1.3937  0.6751 -0.0286
  565MOL0     H76219   7.823   7.102  11.665 -0.3073 -0.8040 -0.4055
  565MOL0     H76220   7.964   7.341  11.514  0.0361  0.2241  0.9441
  565MOL0     H76221   8.056   7.213  11.599  0.6886 -0.3069 -2.0114
  565MOL0     H76222   7.934   7.191  11.337  0.3389  1.2605  0.0115
  565MOL0     H76223   7.900   7.048  11.438  0.9043 -0.8421 -2.0746
  565MOL0     H76224   8.169   7.151  11.368 -0.6486  0.0894 -1.5692
  565MOL0     H76225   8.134   7.019  11.490 -1.3983 -1.4494  0.4656
  565MOL0     H76226   7.935   6.837  11.367  2.0216 -2.5882  1.0015
  565MOL0     H76227   7.778   6.766  11.144 -1.9024  0.0449 -3.1677
  565MOL0     H76228   7.862   6.761  10.993 -0.0547 -1.2390 -0.2796
  565MOL0     H76229   7.883   6.530  11.027 -1.4706  2.1675 -1.1624
  565MOL0     H76230   8.023   6.601  11.081 -0.4081 -1.7240  0.4461
  565MOL0     H76231   7.795   6.565  11.280  0.0605  0.3997 -0.6680
  565MOL0     H76232   7.968   6.581  11.313 -0.1451  3.1266 -1.4848
  565MOL0     H76233   8.015   6.369  11.177  0.1495  2.7461  0.1346
  565MOL0     H76234   7.854   6.320  11.203 -0.8379 -1.6403  4.0754
  565MOL0     H76235   7.690   6.344  11.342  0.5612 -1.9715 -0.3564
  565MOL0     H76236   7.529   6.366  11.533 -1.0304 -1.1983  0.0491
  565MOL0     H76237   7.476   6.626  11.886  0.0341 -2.5764 -0.7602
  565MOL0     H76238   7.309   6.705  12.036  0.6342  0.9306 -1.2052
  565MOL0     H76239   7.198   6.454  12.389  2.7598  0.5656 -0.2888
  565MOL0     H76240   7.239   6.606  12.443 -1.4170 -1.6019  1.0975
  565MOL0     H76241   7.022   6.700  12.342 -1.9188 -0.6348 -1.5250
  565MOL0     H76242   6.983   6.522  12.328  0.2513  0.2365  1.0434
  565MOL0     H76243   7.024   6.499  12.572  1.6804  0.7872  1.9715
  565MOL0     H76244   7.021   6.671  12.605 -0.6396  1.6916 -0.7058
  565MOL0     H76245   6.809   6.709  12.494 -1.3579  1.1295  1.5223
  565MOL0     H76246   6.798   6.611  12.646 -0.2892  0.1718 -0.1337
  565MOL0     H76247   6.797   6.411  12.468  2.8636  0.7397 -2.1569
  565MOL0     H76248   6.747   6.543  12.356  1.2287 -3.1728 -0.5833
  565MOL0     H76249   6.574   6.401  12.450  0.0660  0.1000  0.8443
  565MOL0     H76250   6.624   6.445  12.608  0.9076  1.0502  0.7600
  565MOL0     H76251   6.439   6.578  12.433 -0.4193 -0.3148 -0.4914
  565MOL0     H76252   6.573   6.691  12.466  0.9914 -1.3092 -1.1419
  565MOL0     H76253   6.556   6.649  12.701  1.4681  0.5612 -1.7918
  565MOL0     H76254   6.395   6.707  12.649  2.2398  1.1436 -0.9308
  565MOL0     H76255   7.378   6.367  12.298  0.4856  0.3716  0.4209
  565MOL0     H76256   7.563   6.299  12.160  3.7331  1.6979  0.7766
  565MOL0     H76257   7.828   6.297  11.818 -1.5145 -0.0748  0.3495
  565MOL0     H76258   8.006   6.289  11.628 -1.1325 -3.0295 -0.8025
  565MOL0     H76259   7.159   7.450  11.134 -0.9055  2.4209 -1.7077
  565MOL0     H76260   6.979   7.562  11.237  1.1695 -1.1833 -2.3634
  565MOL0     H76261   7.031   7.961  11.515  0.2675 -0.1989  1.4183
  565MOL0     H76262   6.927   8.160  11.638  0.6696 -0.0915 -0.6061
  565MOL0     H76263   6.797   8.354  11.679 -2.6656  0.4400 -0.2514
  565MOL0     H76264   6.856   8.255  11.815  1.3650  3.2611 -0.1519
  565MOL0     H76265   6.743   8.444  11.913  0.2061  0.9070 -0.6186
  565MOL0     H76266   6.631   8.311  11.933 -4.1700  5.1629  2.3285
  565MOL0     H76267   6.488   8.349  11.740 -2.3777  0.3250  3.1071
  565MOL0     H76268   6.594   8.482  11.687 -0.9083  1.4212  0.8832
  565MOL0     H76269   6.511   8.622  11.862 -0.9283  0.3421 -0.3161
  565MOL0     H76270   6.382   8.555  11.776 -0.4499 -0.4233 -0.6463
  565MOL0     H76271   6.306   8.372  12.153  3.0620 -1.9640  0.6302
  565MOL0     H76272   6.550   7.999  11.606 -0.0816 -0.5938 -1.8966
  565MOL0     H76273   6.483   7.803  11.514 -0.9590 -3.2397  0.2769
  565MOL0     H76274   6.592   7.741  11.390  1.2277  2.5225 -0.6214
  565MOL0     H76275   6.608   7.693  11.567 -3.6240  0.3781  0.8257
  566MOL0     O76276   7.733   9.955   0.369  0.9965 -0.0143 -0.0713
  566MOL0     C76277   7.843   9.990   0.414 -0.4906  0.4423 -0.8426
  566MOL0     O76278   7.865  10.104   0.483 -0.6938 -0.6430  0.2930
  566MOL0     C76279   7.757  10.190   0.477  0.1525 -0.3461 -0.3886
  566MOL0     C76280   7.717  10.244   0.602 -0.6493  0.4644 -0.5940
  566MOL0     C76281   7.604  10.336   0.605 -0.1741 -0.1280  0.2859
  566MOL0     C76282   7.557  10.388   0.490  0.3203  0.4968  0.0421
  566MOL0     O76283   7.465  10.495   0.474  0.7236 -0.0662 -0.1608
  566MOL0     C76284   7.331  10.448   0.436 -0.0222  0.3027  0.0379
  566MOL0     C76285   7.218  10.453   0.537  0.3324  0.2713  0.0898
  566MOL0     C76286   7.206  10.345   0.648 -0.0254 -0.5010 -0.3611
  566MOL0     C76287   7.088  10.367   0.753  0.4232 -0.3177 -0.3043
  566MOL0     C76288   7.088  10.262   0.860 -0.5080 -0.1205 -0.5472
  566MOL0     C76289   6.972  10.300   0.960 -1.0738  0.2762 -0.0664
  566MOL0     C76290   6.987  10.192   1.070 -0.6753 -0.1213 -0.3726
  566MOL0     C76291   6.892  10.228   1.188  0.0428  0.2727 -0.1121
  566MOL0     N76292   6.864  10.123   1.284  0.2226  0.1329 -0.7848
  566MOL0     C76293   6.748  10.076   1.327 -0.0428 -0.4018  0.4631
  566MOL0     C76294   6.772   9.969   1.411 -0.1527 -0.6922 -0.5165
  566MOL0     C76295   6.666   9.898   1.486  1.1041 -0.0418 -0.1369
  566MOL0     C76296   6.621   9.983   1.604 -0.4732  0.2965 -0.1035
  566MOL0     C76297   6.543   9.889   1.704 -0.0127  0.3950 -0.8902
  566MOL0     C76298   6.526   9.966   1.840  0.2251  0.2540 -0.3829
  566MOL0     O76299   6.419   9.892   1.913  0.1450  0.2934  0.6789
  566MOL0     C76300   6.380   9.951   2.028  0.3218  0.1776  0.6364
  566MOL0     C76301   6.474  10.016   2.115 -0.4417 -0.4578  0.7782
  566MOL0     C76302   6.427  10.065   2.230  0.0014 -0.7995 -0.4141
  566MOL0     C76303   6.286  10.057   2.268  0.0211 -0.0457 -0.5229
  566MOL0     C76304   6.235  10.126   2.388  0.0295  0.5142 -0.5093
  566MOL0     O76305   6.325  10.181   2.470  0.5389 -0.0569  0.4370
  566MOL0     C76306   6.293  10.278   2.554  0.3139  0.4365 -0.0040
  566MOL0     C76307   6.319  10.257   2.688 -0.0856 -0.3981  0.8426
  566MOL0     C76308   6.278  10.366   2.772 -0.6712  1.1560  0.3553
  566MOL0     C76309   6.232  10.487   2.726  0.3522  0.3245  0.0770
  566MOL0     O76310   6.178  10.579   2.816  0.5776 -0.9254 -0.5077
  566MOL0     C76311   6.079  10.668   2.779  0.1883 -0.0213 -0.1851
  566MOL0     C76312   6.030  10.739   2.902 -0.2929  0.5021 -1.0958
  566MOL0     C76313   6.148  10.821   2.969  0.2237  0.2877  0.5789
  566MOL0     C76314   6.096  10.896   3.092  0.2218  0.5831  0.0947
  566MOL0     C76315   6.209  10.987   3.140 -0.0563 -0.2818  1.4946
  566MOL0     C76316   6.158  11.077   3.248 -0.3247 -0.1865  0.3768
  566MOL0     C76317   6.262  11.166   3.308  0.1793 -0.1571 -0.0680
  566MOL0     C76318   6.206  11.297   3.356 -0.2027 -0.2136 -0.7591
  566MOL0    Cl76319   6.335  11.401   3.427  0.0540 -0.0775 -0.6344
  566MOL0     C76320   6.218  10.500   2.585 -0.3864 -0.0623 -0.4933
  566MOL0     C76321   6.251  10.397   2.500  0.6524  0.0982 -0.9872
  566MOL0     O76322   6.108  10.127   2.404 -0.2146  0.3559  0.1451
  566MOL0     C76323   6.195  10.001   2.167  1.1972 -0.0125  0.0397
  566MOL0     C76324   6.246   9.943   2.055  0.8518 -0.4971  0.1622
  566MOL0     N76325   6.905   9.977   1.436 -0.4458 -1.0686  0.4283
  566MOL0     N76326   6.960  10.064   1.353 -0.3744 -0.7066  0.1802
  566MOL0     C76327   7.613  10.348   0.373  0.1867 -0.6197  0.0216
  566MOL0     C76328   7.703  10.241   0.354 -0.6031 -0.7229  0.0340
  566MOL0     C76329   7.955   9.887   0.394 -0.6491 -0.1050  1.2433
  566MOL0     C76330   7.922   9.766   0.348  0.5408  0.3241  0.2926
  566MOL0     C76331   8.013   9.665   0.323 -0.6101  0.6133  0.1242
  566MOL0     C76332   8.150   9.680   0.343  0.1735 -0.3703  0.5546
  566MOL0     O76333   8.233   9.569   0.331  0.5921 -0.4180 -0.4158
  566MOL0     C76334   8.370   9.595   0.308  0.5346 -0.3338 -0.2851
  566MOL0     C76335   8.443   9.475   0.249 -0.4675 -0.9488  0.0594
  566MOL0     C76336   8.584   9.520   0.206 -0.6521 -0.8992  0.0615
  566MOL0     C76337   8.688   9.413   0.221 -1.1697  0.8431  0.9709
  566MOL0     C76338   8.698   9.374   0.355  0.4026  1.5859 -0.5627
  566MOL0     C76339   8.719   9.342   0.470  0.9285 -1.1761  0.3893
  566MOL0     C76340   8.191   9.810   0.370  1.0704 -0.8195 -0.4378
  566MOL0     C76341   8.101   9.911   0.401 -0.8238  0.2916 -0.5266
  566MOL0     C76342   8.160  10.042   0.421  0.8716 -0.7273  0.4887
  566MOL0     H76343   7.776  10.199   0.680 -1.6444 -1.6215 -0.9800
  566MOL0     H76344   7.572  10.387   0.695  0.0806 -1.3810  1.1188
  566MOL0     H76345   7.314  10.519   0.355 -0.8923 -0.3541 -0.3668
  566MOL0     H76346   7.334  10.347   0.393 -2.9545 -0.0457  0.5048
  566MOL0     H76347   7.124  10.462   0.482  1.1432  1.6870 -1.1385
  566MOL0     H76348   7.234  10.547   0.592 -2.6631  0.7875  0.2504
  566MOL0     H76349   7.298  10.357   0.705 -0.9272  1.8501  0.7258
  566MOL0     H76350   7.207  10.242   0.611 -0.0301  0.3445 -2.8704
  566MOL0     H76351   7.096  10.470   0.791 -1.5828 -0.9471  2.1104
  566MOL0     H76352   6.993  10.354   0.701  0.2935  1.4026 -0.5721
  566MOL0     H76353   7.070  10.161   0.822 -4.0637 -0.4938  1.6662
  566MOL0     H76354   7.187  10.268   0.907 -0.8496 -1.1180  0.3379
  566MOL0     H76355   6.996  10.398   1.002 -1.5837  0.5588 -0.4137
  566MOL0     H76356   6.876  10.301   0.908 -1.1581  1.3368  0.0818
  566MOL0     H76357   7.086  10.209   1.113  0.2086  0.4066 -2.5014
  566MOL0     H76358   6.990  10.090   1.030  3.1143  0.3936 -1.8740
  566MOL0     H76359   6.925  10.316   1.244  0.4469  0.3476 -0.4584
  566MOL0     H76360   6.798  10.253   1.139 -0.0679 -2.1131 -1.2649
  566MOL0     H76361   6.651  10.100   1.283 -1.4920 -4.0609  1.2495
  566MOL0     H76362   6.571   9.889   1.432  0.2087 -0.5442  1.4787
  566MOL0     H76363   6.693   9.798   1.520 -0.2979  0.0654  1.3948
  566MOL0     H76364   6.708  10.027   1.653 -1.2768  2.6743 -0.6706
  566MOL0     H76365   6.547  10.060   1.580  0.4784  1.2502 -0.0757
  566MOL0     H76366   6.591   9.791   1.715  2.4321  1.6058 -0.0007
  566MOL0     H76367   6.448   9.861   1.657 -0.7222 -0.1098  0.7749
  566MOL0     H76368   6.485  10.065   1.817  1.5420  0.5295 -1.7680
  566MOL0     H76369   6.622   9.968   1.892  1.1993  5.3051 -1.8123
  566MOL0     H76370   6.580  10.034   2.100 -0.8623  0.7610 -1.0535
  566MOL0     H76371   6.490  10.114   2.304  1.1191  1.5032 -2.7773
  566MOL0     H76372   6.360  10.163   2.723  0.5355  0.7767  3.5138
  566MOL0     H76373   6.271  10.331   2.875  3.0974 -2.0114 -0.2041
  566MOL0     H76374   6.112  10.739   2.702  0.5879  0.4647  0.4240
  566MOL0     H76375   6.001  10.604   2.735  0.6741 -0.1814 -0.8375
  566MOL0     H76376   5.942  10.800   2.880 -0.0091  1.4371  0.1913
  566MOL0     H76377   5.996  10.668   2.978 -0.8878  0.7874 -1.0918
  566MOL0     H76378   6.243  10.774   2.997  1.4976  1.8706 -0.8664
  566MOL0     H76379   6.173  10.894   2.891  0.9031 -0.9929 -0.4421
  566MOL0     H76380   6.069  10.836   3.179  0.6654  0.7233  0.3344
  566MOL0     H76381   6.017  10.968   3.069  0.0353  0.2843 -0.1967
  566MOL0     H76382   6.243  11.052   3.060  0.8520  0.7212  2.6586
  566MOL0     H76383   6.297  10.927   3.166 -0.8601 -2.4314 -0.4405
  566MOL0     H76384   6.082  11.142   3.204  0.4537  1.1155  0.8860
  566MOL0     H76385   6.121  11.011   3.328  0.6686  0.6221  1.5316
  566MOL0     H76386   6.338  11.189   3.233  0.5696 -2.8373 -0.5730
  566MOL0     H76387   6.318  11.123   3.391  2.6892  3.7947  0.5686
  566MOL0     H76388   6.179  11.352   3.265 -0.6921 -0.8941 -1.0274
  566MOL0     H76389   6.116  11.278   3.416 -0.4914  0.5980 -0.9146
  566MOL0     H76390   6.176  10.592   2.545 -1.7932 -0.2613  0.4331
  566MOL0     H76391   6.246  10.405   2.392 -2.2964 -1.1736 -1.0445
  566MOL0     H76392   6.090   9.977   2.177  0.7791  1.0016 -1.5480
  566MOL0     H76393   6.183   9.891   1.984  0.3249  0.8960 -0.4464
  566MOL0     H76394   7.574  10.382   0.278  0.1112  3.1000  1.2178
  566MOL0     H76395   7.736  10.218   0.253  0.5702  1.8541 -0.2740
  566MOL0     H76396   7.823   9.730   0.325  2.1676 -5.0835  0.2278
  566MOL0     H76397   7.967   9.572   0.292  1.2092 -0.2010 -0.2493
  566MOL0     H76398   8.419   9.622   0.402  0.5873  0.5509 -0.5582
  566MOL0     H76399   8.396   9.668   0.232 -0.1550 -0.2040 -0.4029
  566MOL0     H76400   8.391   9.429   0.164 -1.1104 -2.4876  1.2260
  566MOL0     H76401   8.453   9.395   0.324  0.4038  0.3160  1.3398
  566MOL0     H76402   8.618   9.606   0.264 -1.2467 -1.3633  1.1077
  566MOL0     H76403   8.588   9.559   0.104 -0.5096  1.1814  0.8266
  566MOL0     H76404   8.662   9.335   0.148  1.2201  0.3765  0.5479
  566MOL0     H76405   8.790   9.433   0.186 -0.9096 -1.6790  0.0550
  566MOL0     H76406   8.745   9.335   0.574 -1.9674  3.3509  1.6839
  566MOL0     H76407   8.298   9.827   0.374  0.6779  1.6484  0.8097
  566MOL0     H76408   8.138  10.102   0.332 -0.4427 -2.4141 -0.4073
  566MOL0     H76409   8.120  10.084   0.513  0.9931  2.4728 -0.7858
  566MOL0     H76410   8.268  10.048   0.431  1.1075 -0.7767 -1.5196
  567MOL0     O76411   6.700   2.428   6.876 -0.2765  0.6200  0.5585
  567MOL0     C76412   6.662   2.358   6.969  0.9088 -0.3513 -0.6429
  567MOL0     O76413   6.531   2.343   7.013 -0.3086 -0.1336  0.3765
  567MOL0     C76414   6.433   2.379   6.922 -0.8171 -0.1802 -0.1372
  567MOL0     C76415   6.425   2.332   6.786 -1.5475 -0.4223 -0.0090
  567MOL0     C76416   6.332   2.386   6.704  1.0047 -0.3956 -0.0146
  567MOL0     C76417   6.256   2.500   6.745 -0.0444  0.3145  0.1021
  567MOL0     O76418   6.186   2.566   6.651  0.3066 -0.0729  0.2010
  567MOL0     C76419   6.199   2.710   6.650  0.0419 -1.1885 -0.3932
  567MOL0     C76420   6.102   2.757   6.547 -0.9471 -0.1805 -0.0031
  567MOL0     C76421   6.095   2.906   6.535  0.7862  0.3130 -0.0280
  567MOL0     C76422   5.980   2.952   6.453  0.6018 -0.4086  0.0715
  567MOL0     C76423   5.981   3.103   6.413  0.5706 -0.0442 -0.3784
  567MOL0     C76424   6.038   3.147   6.279 -0.1412 -0.2071 -0.0497
  567MOL0     C76425   5.936   3.129   6.164  0.0508 -0.2783  0.4130
  567MOL0     C76426   6.003   3.171   6.031  0.5618 -0.3843  0.6090
  567MOL0     N76427   6.051   3.306   6.024  0.8100 -0.1573 -0.4899
  567MOL0     C76428   5.960   3.407   6.024  0.3318 -0.1859  0.6608
  567MOL0     C76429   6.039   3.519   6.035  0.0269  0.1867 -0.4648
  567MOL0     C76430   6.005   3.658   6.052  0.6502 -0.4534  1.1252
  567MOL0     C76431   5.917   3.717   5.935  1.2193 -0.3612 -0.0958
  567MOL0     C76432   5.981   3.692   5.800 -0.2397  0.2281 -0.1780
  567MOL0     C76433   5.882   3.708   5.676  0.1036 -0.4722 -0.5899
  567MOL0     O76434   5.831   3.841   5.657  0.0843  0.1081 -0.4913
  567MOL0     C76435   5.725   3.850   5.568 -0.5059 -0.2144 -0.2919
  567MOL0     C76436   5.610   3.919   5.613  0.0054 -0.1586  0.5277
  567MOL0     C76437   5.499   3.942   5.528 -0.2573  0.2679  0.5528
  567MOL0     C76438   5.514   3.908   5.395  0.6106 -0.4713  0.2584
  567MOL0     C76439   5.408   3.945   5.294 -0.1046 -0.2796  0.2279
  567MOL0     O76440   5.443   3.919   5.168  0.3156 -0.0988 -0.3468
  567MOL0     C76441   5.338   3.926   5.074 -0.0271 -0.8693  0.5876
  567MOL0     C76442   5.336   3.820   4.983 -0.0263  0.5397  0.6255
  567MOL0     C76443   5.253   3.826   4.873  0.9458  0.2633 -0.3601
  567MOL0     C76444   5.186   3.943   4.848 -0.4575 -0.2554  0.2785
  567MOL0     O76445   5.111   3.943   4.733 -0.9171  0.3584  0.5648
  567MOL0     C76446   5.128   4.070   4.663  0.4761  0.2904  0.9420
  567MOL0     C76447   5.111   4.050   4.512  0.6886  1.1996 -0.0894
  567MOL0     C76448   5.242   4.007   4.438  0.5410 -0.0606  0.0819
  567MOL0     C76449   5.200   3.976   4.288 -0.4522  0.1065 -0.0908
  567MOL0     C76450   5.123   3.839   4.281 -0.2542  0.9040 -1.1377
  567MOL0     C76451   5.094   3.796   4.134  0.4073  0.8041  0.6869
  567MOL0     C76452   5.039   3.643   4.144  0.6489 -0.8825  0.6516
  567MOL0     C76453   5.066   3.577   4.014  0.6845 -0.5720  0.4785
  567MOL0    Cl76454   5.232   3.547   3.975 -0.3211  0.4793  0.2866
  567MOL0     C76455   5.180   4.054   4.938 -0.1255  1.2792 -0.2534
  567MOL0     C76456   5.262   4.043   5.052 -0.8042 -0.1660  0.1762
  567MOL0     O76457   5.307   3.989   5.336  1.2463  0.6851  0.1230
  567MOL0     C76458   5.624   3.844   5.347 -0.1419 -0.0816  0.0652
  567MOL0     C76459   5.733   3.822   5.436 -0.6142 -0.2910  0.2554
  567MOL0     N76460   6.174   3.479   6.027  0.3487 -0.1128 -0.7340
  567MOL0     N76461   6.172   3.354   6.019 -0.6092  0.8220 -0.7448
  567MOL0     C76462   6.253   2.533   6.881 -0.9669  0.0124 -1.0252
  567MOL0     C76463   6.334   2.469   6.971 -0.3556  1.1294  0.3048
  567MOL0     C76464   6.765   2.287   7.044  0.3615 -0.0374 -0.1223
  567MOL0     C76465   6.744   2.282   7.183 -0.2968  0.2884  0.1876
  567MOL0     C76466   6.840   2.212   7.259  1.6969  0.2054 -0.0421
  567MOL0     C76467   6.950   2.158   7.208  0.2113  0.5595 -0.0233
  567MOL0     O76468   7.038   2.067   7.270 -0.2222 -0.1413 -0.2729
  567MOL0     C76469   7.129   2.141   7.364  0.0557 -0.6791  0.6501
  567MOL0     C76470   7.279   2.115   7.327  0.5927 -0.2871  0.4221
  567MOL0     C76471   7.330   1.972   7.322  0.0032  0.3304 -0.3514
  567MOL0     C76472   7.463   1.963   7.244 -0.5631 -0.7200  0.2514
  567MOL0     C76473   7.515   1.825   7.247 -0.7233  0.4281 -0.2473
  567MOL0     C76474   7.568   1.712   7.262 -0.1544  0.2799  0.3634
  567MOL0     C76475   6.980   2.182   7.078  0.2492 -0.1655 -1.0844
  567MOL0     C76476   6.889   2.239   6.989 -0.4953 -0.4973  0.5073
  567MOL0     C76477   6.923   2.241   6.843  0.6404 -0.3864 -0.6458
  567MOL0     H76478   6.484   2.246   6.756 -2.8230 -1.3047 -0.0797
  567MOL0     H76479   6.320   2.347   6.604  2.5271  4.3267 -2.3482
  567MOL0     H76480   6.154   2.756   6.739  1.1041  1.0669 -0.9374
  567MOL0     H76481   6.303   2.742   6.645 -0.4898  1.3175  1.9232
  567MOL0     H76482   6.007   2.711   6.576 -1.5814  1.1839  0.1672
  567MOL0     H76483   6.134   2.706   6.455 -1.2504 -1.8611  0.7944
  567MOL0     H76484   6.183   2.948   6.485 -0.2020  2.0270 -0.3745
  567MOL0     H76485   6.096   2.948   6.636 -1.0983 -1.3552  0.7471
  567MOL0     H76486   5.970   2.887   6.365  1.5376  0.4509 -0.6962
  567MOL0     H76487   5.891   2.936   6.515 -0.7940  1.3809 -1.3634
  567MOL0     H76488   5.878   3.140   6.420  1.1757  2.0712 -1.7185
  567MOL0     H76489   6.035   3.151   6.496  0.7874  2.2724 -1.7704
  567MOL0     H76490   6.050   3.256   6.289  1.1339 -0.4126  0.9113
  567MOL0     H76491   6.138   3.107   6.264  0.5953  1.3195  0.5853
  567MOL0     H76492   5.853   3.200   6.173  0.0226 -0.3160  0.4562
  567MOL0     H76493   5.900   3.025   6.159  0.9427 -0.6031  0.6416
  567MOL0     H76494   6.088   3.104   6.014  2.0191  0.8027  2.7499
  567MOL0     H76495   5.946   3.154   5.939 -0.5921  2.0410  0.7994
  567MOL0     H76496   5.851   3.411   6.018  0.4368  1.3306 -3.3438
  567MOL0     H76497   5.947   3.668   6.145 -1.8871  3.7377 -0.6289
  567MOL0     H76498   6.092   3.723   6.065  0.2104  1.3856 -3.4394
  567MOL0     H76499   5.814   3.680   5.936 -0.1697  3.0086 -2.3030
  567MOL0     H76500   5.912   3.824   5.957 -0.9887 -0.2009 -1.1387
  567MOL0     H76501   6.010   3.588   5.783 -4.1816 -1.6686  3.1469
  567MOL0     H76502   6.064   3.758   5.775 -2.4316  2.4205 -2.1635
  567MOL0     H76503   5.801   3.636   5.688  1.5251 -2.0289 -0.0092
  567MOL0     H76504   5.932   3.685   5.582  0.3650 -1.0243 -0.3193
  567MOL0     H76505   5.621   3.951   5.716 -0.3031 -0.3768  0.6290
  567MOL0     H76506   5.412   3.999   5.558 -1.4008 -0.8493 -0.5349
  567MOL0     H76507   5.394   3.730   4.997  0.7326  1.0529  0.8314
  567MOL0     H76508   5.223   3.736   4.820 -2.1696  0.3671  0.9723
  567MOL0     H76509   5.045   4.135   4.693  0.3446  0.6933 -0.2406
  567MOL0     H76510   5.220   4.127   4.676  0.8066  0.9325 -2.9808
  567MOL0     H76511   5.035   3.975   4.487  1.7471  0.0666 -0.0320
  567MOL0     H76512   5.090   4.147   4.465  1.2212  0.3251 -2.2480
  567MOL0     H76513   5.316   4.089   4.440  0.2374  0.2051  0.6257
  567MOL0     H76514   5.287   3.913   4.470  3.8634  0.0400 -3.4459
  567MOL0     H76515   5.286   3.983   4.220 -1.9194  4.9577 -1.8573
  567MOL0     H76516   5.145   4.054   4.235  1.9016  0.8732 -1.5825
  567MOL0     H76517   5.028   3.850   4.333 -0.7008  0.4752 -1.8423
  567MOL0     H76518   5.176   3.755   4.326 -3.3108 -1.0771 -0.9570
  567MOL0     H76519   5.031   3.870   4.082  1.7251  1.2085 -0.3790
  567MOL0     H76520   5.186   3.801   4.076  1.2557  2.6343  2.0800
  567MOL0     H76521   4.930   3.643   4.152  0.6376 -2.4781  0.7427
  567MOL0     H76522   5.071   3.581   4.229  0.4106 -1.2885  0.4477
  567MOL0     H76523   5.010   3.483   4.007  0.3549 -0.4816  1.7527
  567MOL0     H76524   5.023   3.643   3.938 -0.3992 -0.9340  0.7581
  567MOL0     H76525   5.126   4.147   4.922  0.0393  1.8002  1.8959
  567MOL0     H76526   5.262   4.127   5.121  1.0634  0.3639 -0.4133
  567MOL0     H76527   5.634   3.819   5.242  0.7720 -0.0677  0.1467
  567MOL0     H76528   5.830   3.797   5.393 -1.0151 -3.9237  1.0646
  567MOL0     H76529   6.199   2.623   6.909 -0.5314 -0.3269  1.0786
  567MOL0     H76530   6.361   2.506   7.070  2.1735 -1.3815  0.6905
  567MOL0     H76531   6.663   2.336   7.231 -1.4723 -1.3122  0.0547
  567MOL0     H76532   6.813   2.199   7.363  0.5883 -1.0418 -0.4545
  567MOL0     H76533   7.112   2.100   7.464  1.1264 -1.8341  0.3805
  567MOL0     H76534   7.120   2.250   7.368  2.2525 -0.4475  0.1636
  567MOL0     H76535   7.354   2.162   7.391 -0.0771 -0.8367  1.6635
  567MOL0     H76536   7.289   2.160   7.228 -3.2712 -3.1511 -1.5377
  567MOL0     H76537   7.258   1.919   7.258  0.4928  0.4544 -1.0110
  567MOL0     H76538   7.339   1.929   7.423  0.8730  1.9649  0.2971
  567MOL0     H76539   7.450   2.010   7.147  2.1885  2.6436  1.3034
  567MOL0     H76540   7.529   2.030   7.300 -1.0511 -0.0063 -0.0030
  567MOL0     H76541   7.616   1.617   7.263  1.0226  0.7743  3.4951
  567MOL0     H76542   7.064   2.120   7.051  0.6299  0.3424 -1.0850
  567MOL0     H76543   6.966   2.336   6.811  0.4972 -1.2227 -3.6672
  567MOL0     H76544   6.989   2.160   6.809 -2.2935 -4.0904  1.6386
  567MOL0     H76545   6.831   2.221   6.787 -1.2116 -1.4872  2.5349
  568MOL0     O76546   0.157   0.391  11.397  0.3245  0.3288  0.5249
  568MOL0     C76547   0.075   0.440  11.477 -0.7276 -0.1455  0.4555
  568MOL0     O76548   0.059   0.572  11.499 -0.4604  0.5733  0.3538
  568MOL0     C76549   0.106   0.660  11.404 -0.2722 -0.2293  0.9671
  568MOL0     C76550   0.224   0.746  11.417 -0.3176 -0.6541 -0.1713
  568MOL0     C76551   0.264   0.853  11.338 -0.1053  0.4350 -0.4256
  568MOL0     C76552   0.176   0.881  11.228 -0.8313 -0.1787  0.4111
  568MOL0     O76553   0.207   0.989  11.158 -0.2829  0.3521 -0.8719
  568MOL0     C76554   0.100   1.075  11.101 -0.3111 -0.5525 -0.4740
  568MOL0     C76555   0.142   1.096  10.958  0.8575  0.5362  0.2549
  568MOL0     C76556   0.045   1.195  10.892  0.4160 -0.0206  0.8461
  568MOL0     C76557  -0.087   1.130  10.852 -0.2663 -1.1430  0.0865
  568MOL0     C76558  -0.132   1.147  10.701 -0.5895  0.2597  0.3948
  568MOL0     C76559  -0.268   1.084  10.662  0.6570  0.1632  0.1491
  568MOL0     C76560  -0.382   1.188  10.640 -0.9194 -0.2341 -0.0570
  568MOL0     C76561  -0.423   1.240  10.781 -0.9763 -0.1385  0.0625
  568MOL0     N76562  -0.521   1.348  10.788  0.1547 -0.4258 -0.2946
  568MOL0     C76563  -0.515   1.464  10.709 -0.2468  0.4598 -0.0920
  568MOL0     C76564  -0.613   1.544  10.742  0.0210  0.2690 -0.2328
  568MOL0     C76565  -0.658   1.677  10.671  0.2951 -1.0545 -1.0531
  568MOL0     C76566  -0.641   1.786  10.783  0.3836 -1.4520 -0.3763
  568MOL0     C76567  -0.623   1.925  10.718 -0.1729 -0.3568  0.3048
  568MOL0     C76568  -0.620   2.049  10.812  0.0225  0.2419  0.3946
  568MOL0     O76569  -0.519   2.026  10.910  0.5735 -0.4858 -0.1343
  568MOL0     C76570  -0.490   2.121  11.008  1.1581  0.3755 -0.0412
  568MOL0     C76571  -0.550   2.256  11.031 -0.1138 -1.0313 -0.3951
  568MOL0     C76572  -0.509   2.342  11.127 -1.0479  1.2539 -0.0811
  568MOL0     C76573  -0.416   2.300  11.225  0.0927  0.0440 -0.7051
  568MOL0     C76574  -0.385   2.379  11.342  1.1239 -0.3799  0.1108
  568MOL0     O76575  -0.301   2.320  11.423 -0.6244  0.2008 -0.5142
  568MOL0     C76576  -0.267   2.382  11.534  0.1346  0.1886 -0.2911
  568MOL0     C76577  -0.267   2.308  11.652  0.1686  0.1958  0.0178
  568MOL0     C76578  -0.230   2.367  11.771  0.0190 -0.5684 -0.5399
  568MOL0     C76579  -0.169   2.503  11.775  0.3456  0.0388  0.2348
  568MOL0     O76580  -0.135   2.553  11.901 -0.3845 -0.5999  0.8245
  568MOL0     C76581  -0.017   2.641  11.895 -0.6829 -0.4998 -0.2423
  568MOL0     C76582   0.037   2.660  12.039  0.5407 -0.0427 -0.0141
  568MOL0     C76583   0.160   2.749  12.050 -0.2028  0.3384 -0.4835
  568MOL0     C76584   0.129   2.902  12.048 -0.2772 -0.4213 -0.3499
  568MOL0     C76585   0.258   2.974  12.055 -0.3778  0.1684  0.3196
  568MOL0     C76586   0.244   3.123  12.103 -0.8858 -0.2331  0.1221
  568MOL0     C76587   0.194   3.142  12.249 -0.3173 -0.5995 -0.2487
  568MOL0     C76588   0.173   3.288  12.293  0.1583  0.6966 -0.1958
  568MOL0    Cl76589   0.316   3.385  12.260 -0.2710 -0.2683 -0.3656
  568MOL0     C76590  -0.180   2.582  11.659  0.6826 -0.4291 -0.5266
  568MOL0     C76591  -0.232   2.523  11.542 -0.3811 -0.2875  0.1311
  568MOL0     O76592  -0.463   2.475  11.372 -0.4226  0.5560  0.6621
  568MOL0     C76593  -0.366   2.169  11.212  1.0610  0.7206 -1.0270
  568MOL0     C76594  -0.384   2.094  11.098 -0.3157  0.9557  0.3178
  568MOL0     N76595  -0.670   1.485  10.850 -0.2144 -0.2333 -0.0062
  568MOL0     N76596  -0.616   1.378  10.881  0.0161  0.0582  0.0294
  568MOL0     C76597   0.066   0.797  11.200 -0.1558 -0.2055 -0.2876
  568MOL0     C76598   0.032   0.691  11.287 -0.9090  0.7122 -0.2854
  568MOL0     C76599   0.011   0.345  11.565  0.1742 -1.0426  0.8226
  568MOL0     C76600  -0.008   0.381  11.702  0.4098  0.1158 -0.2241
  568MOL0     C76601  -0.074   0.296  11.794  0.9612  0.3379  1.0012
  568MOL0     C76602  -0.119   0.176  11.742 -0.6546 -0.1436 -0.0310
  568MOL0     O76603  -0.184   0.085  11.823 -0.2194  0.0666  0.0213
  568MOL0     C76604  -0.191   0.099  11.964  1.1155  0.2539  0.5418
  568MOL0     C76605  -0.274  -0.006  12.024  0.2356  0.7568  0.8065
  568MOL0     C76606  -0.252  -0.141  11.955  0.1961  0.1415  0.6192
  568MOL0     C76607  -0.326  -0.258  12.017 -0.0481  0.7100  0.0830
  568MOL0     C76608  -0.258  -0.307  12.133 -0.4593 -0.4815  0.8259
  568MOL0     C76609  -0.191  -0.344  12.228 -0.0539  1.2130 -0.1455
  568MOL0     C76610  -0.102   0.145  11.618  0.1910  0.6478 -0.4157
  568MOL0     C76611  -0.031   0.220  11.527  0.0768  0.8869  0.0494
  568MOL0     C76612  -0.016   0.165  11.383 -1.0847  1.1076 -0.6447
  568MOL0     H76613   0.295   0.711  11.492  1.2619  0.7325 -0.9513
  568MOL0     H76614   0.350   0.918  11.352  0.3943  0.0649 -1.5926
  568MOL0     H76615  -0.001   1.036  11.111 -0.8928  1.3183  2.4573
  568MOL0     H76616   0.109   1.177  11.141  0.3474 -0.1087 -1.7126
  568MOL0     H76617   0.133   0.997  10.912 -0.6130 -0.0602  1.7035
  568MOL0     H76618   0.244   1.133  10.948  1.2566 -1.1599 -3.4429
  568MOL0     H76619   0.089   1.233  10.799 -0.9903  0.0278  0.1727
  568MOL0     H76620   0.028   1.281  10.958 -0.3479 -0.3886  1.1316
  568MOL0     H76621  -0.082   1.023  10.875  1.0587 -1.6100 -2.0713
  568MOL0     H76622  -0.166   1.167  10.919 -1.2013  1.2599 -2.1791
  568MOL0     H76623  -0.129   1.252  10.669  1.5515  0.1593  0.1375
  568MOL0     H76624  -0.058   1.089  10.645 -1.8432 -2.2986  1.2404
  568MOL0     H76625  -0.262   1.032  10.566 -2.7922 -1.5903  0.7284
  568MOL0     H76626  -0.288   1.011  10.741  2.0667 -2.3979 -1.6768
  568MOL0     H76627  -0.467   1.135  10.597 -0.8073  1.6461 -2.8231
  568MOL0     H76628  -0.358   1.274  10.577 -1.8555 -0.5283 -0.8344
  568MOL0     H76629  -0.469   1.157  10.836  0.1552 -1.1438 -0.4477
  568MOL0     H76630  -0.340   1.276  10.842 -3.1829  2.1458  1.9235
  568MOL0     H76631  -0.445   1.479  10.628 -0.2439  3.4317  0.3611
  568MOL0     H76632  -0.593   1.707  10.587  0.1991  1.2369 -0.3834
  568MOL0     H76633  -0.766   1.671  10.654 -0.9341  2.5327  3.5623
  568MOL0     H76634  -0.724   1.780  10.854  0.5747 -0.1618 -0.0144
  568MOL0     H76635  -0.542   1.757  10.821  1.3301 -2.6919 -3.5221
  568MOL0     H76636  -0.707   1.931  10.648 -0.5521 -0.9461  0.7060
  568MOL0     H76637  -0.526   1.921  10.668  0.3965 -1.0742  1.4461
  568MOL0     H76638  -0.718   2.061  10.857  0.2516  0.3168  0.8748
  568MOL0     H76639  -0.594   2.131  10.745 -2.2222 -2.2548 -4.0127
  568MOL0     H76640  -0.624   2.294  10.961 -0.9089 -2.4194 -0.3298
  568MOL0     H76641  -0.546   2.444  11.114  0.7891  1.9905  0.2101
  568MOL0     H76642  -0.294   2.203  11.654  2.0037 -0.3038  0.7337
  568MOL0     H76643  -0.244   2.307  11.860  2.5926 -0.5208 -0.0146
  568MOL0     H76644   0.057   2.596  11.827  2.9005  2.7588  1.1566
  568MOL0     H76645  -0.035   2.743  11.860  1.0695  0.0964  0.4846
  568MOL0     H76646  -0.043   2.702  12.101  1.7587  4.5301 -1.2186
  568MOL0     H76647   0.063   2.561  12.077  1.8905  1.3474  2.9810
  568MOL0     H76648   0.199   2.729  12.150 -1.4814 -4.8039 -0.7254
  568MOL0     H76649   0.230   2.718  11.971 -0.3242  0.1581 -0.5209
  568MOL0     H76650   0.077   2.936  12.138  4.3318  0.1617  2.3608
  568MOL0     H76651   0.072   2.932  11.959 -0.3275  1.0008  0.1499
  568MOL0     H76652   0.302   2.975  11.955 -0.5490  1.5758  0.2376
  568MOL0     H76653   0.321   2.918  12.124 -1.1558  2.1823  2.7995
  568MOL0     H76654   0.337   3.181  12.099 -0.7836  0.0924  3.8348
  568MOL0     H76655   0.180   3.168  12.026 -0.2210 -1.0569 -0.9539
  568MOL0     H76656   0.267   3.088  12.311 -0.9204 -2.5413 -1.1465
  568MOL0     H76657   0.097   3.095  12.268 -0.6354 -1.3047 -3.1171
  568MOL0     H76658   0.087   3.336  12.244  0.6733  1.9302  0.0691
  568MOL0     H76659   0.155   3.281  12.400 -3.1107 -2.9726 -0.7387
  568MOL0     H76660  -0.144   2.684  11.649  0.0636 -0.1900 -0.3862
  568MOL0     H76661  -0.242   2.581  11.451 -4.5021 -0.0311  0.5640
  568MOL0     H76662  -0.309   2.128  11.295 -1.1511 -2.4135 -0.8675
  568MOL0     H76663  -0.342   1.994  11.091 -0.7708  0.7653  0.2563
  568MOL0     H76664   0.000   0.819  11.116  0.4380 -1.2715 -1.0681
  568MOL0     H76665  -0.060   0.640  11.260 -0.0237  0.2376 -2.6296
  568MOL0     H76666   0.023   0.476  11.744 -0.5377 -0.7948  2.8088
  568MOL0     H76667  -0.093   0.327  11.896  0.1685 -0.0274  0.9757
  568MOL0     H76668  -0.221   0.198  11.997 -0.3885 -0.4421  1.3557
  568MOL0     H76669  -0.086   0.082  11.992  1.2199 -1.5489 -0.7032
  568MOL0     H76670  -0.377   0.029  12.017 -0.4353 -0.8947  1.8333
  568MOL0     H76671  -0.259  -0.017  12.132 -0.3162  0.0374  0.8149
  568MOL0     H76672  -0.145  -0.165  11.960 -0.1375 -1.4463  0.6272
  568MOL0     H76673  -0.281  -0.146  11.850 -1.9034 -0.9854  1.2014
  568MOL0     H76674  -0.428  -0.234  12.048 -0.7368 -2.3965  0.6183
  568MOL0     H76675  -0.328  -0.328  11.933  0.1239  2.0258 -1.0530
  568MOL0     H76676  -0.133  -0.397  12.301 -1.6993  1.5483  1.4856
  568MOL0     H76677  -0.143   0.053  11.577  3.5247  0.0370 -2.8798
  568MOL0     H76678   0.088   0.143  11.356  0.4724  0.8319  4.3986
  568MOL0     H76679  -0.060   0.065  11.376  2.4894 -0.6957  0.3106
  568MOL0     H76680  -0.058   0.240  11.315 -0.3333  0.9074 -1.3421
  569MOL0     O76681   0.576   5.413   0.331 -0.1556 -0.7890  0.1377
  569MOL0     C76682   0.536   5.523   0.382  0.3629 -0.3133  0.1038
  569MOL0     O76683   0.542   5.557   0.519 -0.3787 -0.4080  0.5781
  569MOL0     C76684   0.638   5.504   0.604  0.5859  0.9498  1.3059
  569MOL0     C76685   0.770   5.457   0.574 -0.0779  0.3246 -0.6727
  569MOL0     C76686   0.859   5.423   0.678 -0.3548  0.1864 -0.9623
  569MOL0     C76687   0.822   5.439   0.817 -0.0615 -0.9389 -0.0488
  569MOL0     O76688   0.905   5.424   0.929  0.7446  0.5484 -1.2090
  569MOL0     C76689   1.009   5.328   0.915  0.0498 -0.1493 -0.6675
  569MOL0     C76690   1.061   5.294   1.058  0.2917  1.0738 -1.0133
  569MOL0     C76691   1.182   5.215   1.077 -0.2305  0.7007 -0.3003
  569MOL0     C76692   1.230   5.212   1.225 -0.7309 -0.8938  0.3053
  569MOL0     C76693   1.341   5.108   1.260  0.3985 -0.6469 -0.4311
  569MOL0     C76694   1.491   5.162   1.260 -0.2524  1.0397  0.8434
  569MOL0     C76695   1.596   5.049   1.290  0.3088  0.6496  0.5352
  569MOL0     C76696   1.743   5.098   1.292 -0.1955  0.3164  0.5924
  569MOL0     N76697   1.807   5.006   1.379 -0.0494  1.1534 -0.0028
  569MOL0     C76698   1.817   4.867   1.358 -0.0535  0.1208  0.1267
  569MOL0     C76699   1.880   4.818   1.473 -0.1187 -0.4422 -0.6069
  569MOL0     C76700   1.935   4.681   1.486 -0.5640 -0.9305 -0.0946
  569MOL0     C76701   2.062   4.667   1.557 -0.5172  0.1060  1.0939
  569MOL0     C76702   2.163   4.782   1.523 -0.2628 -0.7063  0.0060
  569MOL0     C76703   2.316   4.736   1.551 -0.1244 -0.4483 -0.2491
  569MOL0     O76704   2.330   4.648   1.665 -0.7865 -1.0398  0.1131
  569MOL0     C76705   2.454   4.627   1.713 -0.3782  0.0126 -0.1261
  569MOL0     C76706   2.569   4.706   1.688  0.3677  0.1633  0.7606
  569MOL0     C76707   2.695   4.679   1.746  0.1729 -0.0048  0.3252
  569MOL0     C76708   2.708   4.556   1.819 -1.3532 -0.3812 -0.7100
  569MOL0     C76709   2.845   4.516   1.874  0.4448  0.9842  0.2709
  569MOL0     O76710   2.949   4.600   1.858  0.8544 -0.3375 -0.0749
  569MOL0     C76711   3.066   4.579   1.928  0.7146  0.1791  0.3387
  569MOL0     C76712   3.080   4.569   2.069  0.1239 -0.3008 -1.1415
  569MOL0     C76713   3.197   4.524   2.126  0.8409  0.3122  0.8318
  569MOL0     C76714   3.320   4.503   2.048 -0.1255 -0.2309  1.2785
  569MOL0     O76715   3.440   4.477   2.100  0.2135 -0.4344 -0.6715
  569MOL0     C76716   3.451   4.358   2.186  0.1599 -1.6484  0.3289
  569MOL0     C76717   3.572   4.270   2.142  0.7322  0.0500 -0.6703
  569MOL0     C76718   3.597   4.252   1.988  0.6123  0.2290  0.5363
  569MOL0     C76719   3.695   4.138   1.947 -0.1666 -0.1229 -0.2004
  569MOL0     C76720   3.731   4.155   1.796  0.6806  1.2600 -1.1714
  569MOL0     C76721   3.813   4.042   1.737  0.0165  0.2670  0.6368
  569MOL0     C76722   3.864   4.081   1.606  0.7401 -0.2082 -0.5400
  569MOL0     C76723   3.937   3.966   1.552 -0.3838  0.1278 -0.9282
  569MOL0    Cl76724   3.847   3.842   1.472  0.6327  0.1626 -0.1359
  569MOL0     C76725   3.311   4.517   1.908 -0.0120 -0.1201 -0.3308
  569MOL0     C76726   3.181   4.555   1.855 -0.3827  0.8669  0.2037
  569MOL0     O76727   2.848   4.399   1.928 -0.2404 -0.2346  1.0867
  569MOL0     C76728   2.593   4.481   1.856 -0.4014  0.0310 -0.2872
  569MOL0     C76729   2.466   4.520   1.810 -0.1098 -0.5776 -0.1562
  569MOL0     N76730   1.890   4.920   1.557  0.9493 -0.5479 -0.2986
  569MOL0     N76731   1.841   5.032   1.509 -0.1134  0.2749 -0.1787
  569MOL0     C76732   0.691   5.490   0.835  0.9578 -0.2043  0.1727
  569MOL0     C76733   0.594   5.519   0.736 -0.2842  0.9810  0.2263
  569MOL0     C76734   0.477   5.632   0.289 -0.3471 -0.1561 -0.3359
  569MOL0     C76735   0.359   5.601   0.208 -0.8595  0.2458 -0.0236
  569MOL0     C76736   0.308   5.693   0.121  0.1013 -0.3396  0.4606
  569MOL0     C76737   0.357   5.827   0.123  0.3570  0.7903 -0.4727
  569MOL0     O76738   0.320   5.947   0.065  0.2141  0.0240  0.2466
  569MOL0     C76739   0.207   5.962  -0.018  0.3965 -0.6966 -0.1881
  569MOL0     C76740   0.087   6.021   0.066  0.0544 -0.4207  0.1334
  569MOL0     C76741  -0.042   6.026  -0.011  0.8802  0.3004  0.0402
  569MOL0     C76742  -0.123   6.157   0.012 -0.8870  0.1501 -0.1221
  569MOL0     C76743  -0.170   6.144   0.156 -0.3553  0.0342 -0.3039
  569MOL0     C76744  -0.222   6.164   0.264 -0.6641  0.2569  0.0072
  569MOL0     C76745   0.474   5.846   0.194  0.1182 -0.5794  0.5585
  569MOL0     C76746   0.539   5.752   0.267 -0.5372 -0.7452  0.0733
  569MOL0     C76747   0.670   5.780   0.328  0.0956  0.8159 -0.9182
  569MOL0     H76748   0.811   5.438   0.476 -0.9637 -3.0212 -0.5065
  569MOL0     H76749   0.956   5.375   0.664 -1.0739 -1.7262  0.2494
  569MOL0     H76750   0.978   5.232   0.874  0.1198  0.3195 -1.8510
  569MOL0     H76751   1.088   5.370   0.853 -1.2076  1.3513 -1.3249
  569MOL0     H76752   0.981   5.251   1.118  2.0408  1.0926  1.5426
  569MOL0     H76753   1.075   5.390   1.109 -4.6614  1.1008  0.8190
  569MOL0     H76754   1.268   5.245   1.016  0.8499 -1.5064  0.0212
  569MOL0     H76755   1.164   5.109   1.053 -0.0659  0.8305 -1.0415
  569MOL0     H76756   1.259   5.313   1.255  0.5693 -1.7426  2.0830
  569MOL0     H76757   1.139   5.196   1.282 -1.1510 -0.4867 -0.2442
  569MOL0     H76758   1.332   5.069   1.362  1.1110 -2.6531 -1.0806
  569MOL0     H76759   1.344   5.024   1.191 -0.3427 -0.2990 -0.8964
  569MOL0     H76760   1.520   5.219   1.171  2.9152 -3.0876 -1.1140
  569MOL0     H76761   1.491   5.223   1.351 -2.9038  0.4500  1.3439
  569MOL0     H76762   1.586   4.970   1.215  2.1944  1.7346 -0.9638
  569MOL0     H76763   1.574   5.007   1.389  1.7891 -0.1532  0.5607
  569MOL0     H76764   1.787   5.101   1.191 -0.9771 -1.8318  0.1395
  569MOL0     H76765   1.754   5.205   1.315  1.0996  0.4650 -0.5879
  569MOL0     H76766   1.793   4.814   1.267  0.2422 -1.6614  1.0494
  569MOL0     H76767   1.861   4.610   1.524 -0.2897 -2.5141 -2.2858
  569MOL0     H76768   1.946   4.648   1.382  0.3950 -0.9415  0.0010
  569MOL0     H76769   2.055   4.673   1.666  2.8907  0.8663  1.3812
  569MOL0     H76770   2.108   4.576   1.519  1.7285  2.1126 -1.3794
  569MOL0     H76771   2.129   4.874   1.571  2.4295  0.3607  0.0855
  569MOL0     H76772   2.163   4.805   1.416  0.7508 -0.9206 -0.0501
  569MOL0     H76773   2.376   4.828   1.551 -0.8415  0.0226  0.2162
  569MOL0     H76774   2.355   4.675   1.469  0.0748 -1.3257  0.4764
  569MOL0     H76775   2.556   4.798   1.631 -2.9707  0.7137  2.1953
  569MOL0     H76776   2.784   4.735   1.719  0.5037  0.0490  1.4737
  569MOL0     H76777   3.003   4.599   2.140  0.9566 -0.7805 -0.0083
  569MOL0     H76778   3.204   4.522   2.235 -0.4362  1.2562  0.9639
  569MOL0     H76779   3.459   4.384   2.292  0.9063 -0.9303  0.1044
  569MOL0     H76780   3.363   4.293   2.175 -0.5255 -1.2031  2.7227
  569MOL0     H76781   3.657   4.296   2.205 -1.1709 -0.7037  2.4489
  569MOL0     H76782   3.549   4.168   2.175 -0.7546  0.2707 -0.9389
  569MOL0     H76783   3.503   4.234   1.935  0.9648 -1.8954  0.5541
  569MOL0     H76784   3.629   4.350   1.950 -1.9607  1.2862  0.9274
  569MOL0     H76785   3.639   4.044   1.952 -0.0132 -0.2753 -1.2473
  569MOL0     H76786   3.779   4.140   2.017  0.2468 -0.1096 -0.6942
  569MOL0     H76787   3.786   4.250   1.799  1.2406  0.9346  1.1359
  569MOL0     H76788   3.637   4.175   1.745 -1.1781  0.0724  1.5281
  569MOL0     H76789   3.897   4.024   1.805  0.4532  1.0806  0.3277
  569MOL0     H76790   3.742   3.962   1.716  0.5042  0.7314 -3.7114
  569MOL0     H76791   3.939   4.160   1.616 -0.6073  0.9802  0.8637
  569MOL0     H76792   3.784   4.117   1.540  1.9659  0.8331 -1.5099
  569MOL0     H76793   4.000   3.996   1.467  1.0122  1.8261  0.6063
  569MOL0     H76794   4.004   3.915   1.622 -0.0714 -1.0231 -2.0383
  569MOL0     H76795   3.395   4.509   1.839  2.1763  1.1088  1.9878
  569MOL0     H76796   3.172   4.573   1.749 -0.4062 -0.1945  0.0076
  569MOL0     H76797   2.617   4.399   1.923 -0.1939  1.3458  1.3261
  569MOL0     H76798   2.379   4.462   1.839 -0.9509  0.8465  0.2531
  569MOL0     H76799   0.669   5.521   0.937  3.1177 -0.2234  0.6785
  569MOL0     H76800   0.493   5.556   0.749 -0.2236  1.6609 -1.0006
  569MOL0     H76801   0.315   5.502   0.214  0.1325 -0.1697  0.7232
  569MOL0     H76802   0.220   5.674   0.060  0.2512  0.2615  0.0507
  569MOL0     H76803   0.181   5.865  -0.061 -0.7127 -0.3086 -0.4224
  569MOL0     H76804   0.238   6.035  -0.093  0.1328 -0.0402  0.3271
  569MOL0     H76805   0.112   6.126   0.085  0.5855 -0.2964 -1.1162
  569MOL0     H76806   0.080   5.953   0.151  0.7727 -2.6485 -1.4937
  569MOL0     H76807  -0.096   5.941   0.034  1.8962  0.6498  2.0370
  569MOL0     H76808  -0.026   6.009  -0.118  0.0906  0.5900 -0.1297
  569MOL0     H76809  -0.068   6.246  -0.018 -3.2850  1.4895 -0.8497
  569MOL0     H76810  -0.215   6.151  -0.047 -0.4901 -0.4386 -0.7021
  569MOL0     H76811  -0.267   6.151   0.360  0.1852  2.9079  0.8561
  569MOL0     H76812   0.512   5.948   0.193  1.1590 -0.8893  2.4104
  569MOL0     H76813   0.659   5.821   0.429 -2.5275 -1.4239 -0.1697
  569MOL0     H76814   0.728   5.688   0.336  0.0850  0.7397 -1.6385
  569MOL0     H76815   0.724   5.858   0.274  2.3517  0.6034  0.8831
  570MOL0     O76816  11.426   0.730  10.325  0.4733  0.1755 -0.4535
  570MOL0     C76817  11.494   0.774  10.227  1.1549  0.5416 -0.4255
  570MOL0     O76818  11.500   0.712  10.112 -0.4681 -0.0594  0.1094
  570MOL0     C76819  11.467   0.583  10.124  0.3817 -1.0741 -0.0049
  570MOL0     C76820  11.348   0.545  10.063  0.3914  0.4517 -0.8278
  570MOL0     C76821  11.315   0.403  10.052  0.0290  0.3194 -0.5694
  570MOL0     C76822  11.403   0.304  10.104 -0.0826  1.2850  0.7775
  570MOL0     O76823  11.382   0.166  10.102 -0.3338  1.0594 -0.4424
  570MOL0     C76824  11.314   0.112   9.993  0.7762  0.0634 -0.4602
  570MOL0     C76825  11.385   0.126   9.862  0.0894 -0.3046 -0.1881
  570MOL0     C76826  11.511   0.044   9.872 -0.3135 -0.4085 -0.3802
  570MOL0     C76827  11.579   0.032   9.733 -1.1401 -0.0798 -0.0701
  570MOL0     C76828  11.703  -0.047   9.749 -0.1750  0.1753 -0.2180
  570MOL0     C76829  11.792  -0.033   9.628  0.1931  0.0906  0.1797
  570MOL0     C76830  11.927  -0.103   9.645  0.9354 -0.4138 -0.4560
  570MOL0     C76831  11.996  -0.119   9.510 -0.0411 -0.5625  0.0733
  570MOL0     N76832  12.032   0.006   9.431  0.2150 -0.6857  0.2712
  570MOL0     C76833  12.126   0.013   9.326 -0.1193 -0.2375  0.3071
  570MOL0     C76834  12.114   0.137   9.276 -0.6933  0.3071  0.9572
  570MOL0     C76835  12.189   0.173   9.152 -0.2934 -0.4119  0.1184
  570MOL0     C76836  12.287   0.292   9.187  0.3081  0.2884  0.2783
  570MOL0     C76837  12.387   0.317   9.077 -0.0058 -0.4549 -0.1085
  570MOL0     C76838  12.501   0.418   9.114  0.3680 -0.1287  0.8901
  570MOL0     O76839  12.589   0.444   9.006 -0.0525 -0.0425  0.2739
  570MOL0     C76840  12.686   0.355   8.991 -0.6283 -0.6366  0.1647
  570MOL0     C76841  12.675   0.254   8.891 -0.3315 -0.1932  1.2328
  570MOL0     C76842  12.788   0.169   8.868 -0.0708  0.5771  0.3991
  570MOL0     C76843  12.914   0.205   8.937  0.2304  0.0482 -0.4052
  570MOL0     C76844  13.040   0.134   8.905  0.1109 -0.2985  0.2773
  570MOL0     O76845  13.057   0.096   8.769 -0.1339 -0.4995  0.1139
  570MOL0     C76846  13.180   0.044   8.746 -0.5472 -0.1609 -0.2642
  570MOL0     C76847  13.305   0.099   8.776 -0.0294 -0.4038 -0.2187
  570MOL0     C76848  13.421   0.036   8.730  1.1412 -0.5170 -0.2318
  570MOL0     C76849  13.414  -0.082   8.653 -0.6124 -0.1481  0.2085
  570MOL0     O76850  13.528  -0.154   8.612  0.4074 -0.6108 -0.5936
  570MOL0     C76851  13.648  -0.084   8.610 -0.1610 -0.0978 -0.8157
  570MOL0     C76852  13.753  -0.158   8.520  0.4792 -0.5160 -0.2620
  570MOL0     C76853  13.699  -0.183   8.374 -0.4983 -0.3714 -0.4171
  570MOL0     C76854  13.808  -0.226   8.278  0.5860 -0.0793 -0.0631
  570MOL0     C76855  13.742  -0.216   8.141  0.6334 -0.6626  0.3047
  570MOL0     C76856  13.818  -0.268   8.018 -0.7956 -0.5111 -0.5255
  570MOL0     C76857  13.842  -0.423   8.012 -0.4142  0.2190  0.0757
  570MOL0     C76858  13.934  -0.467   7.902  0.3696 -0.8503 -0.2497
  570MOL0    Cl76859  14.007  -0.629   7.926 -0.0044 -0.2570  0.1571
  570MOL0     C76860  13.293  -0.145   8.635  0.5422 -0.8796 -0.7310
  570MOL0     C76861  13.182  -0.078   8.686  0.3148  0.2091  0.7254
  570MOL0     O76862  13.125   0.114   8.994 -0.4516 -0.2245 -0.2897
  570MOL0     C76863  12.917   0.300   9.040 -0.2684  0.9341  0.0313
  570MOL0     C76864  12.798   0.361   9.069  0.4606 -0.4654  1.0555
  570MOL0     N76865  12.028   0.208   9.351  0.3927  0.7898  0.1706
  570MOL0     N76866  11.985   0.136   9.455  0.0098 -0.9451 -0.2142
  570MOL0     C76867  11.523   0.345  10.158  0.3601 -1.2384  0.5589
  570MOL0     C76868  11.550   0.484  10.173 -0.7379  0.7143  0.4289
  570MOL0     C76869  11.549   0.910  10.241 -0.6274 -0.5234 -0.4223
  570MOL0     C76870  11.480   1.011  10.324 -0.6253  0.1681  0.2986
  570MOL0     C76871  11.534   1.135  10.354 -0.7450  1.1489  0.9243
  570MOL0     C76872  11.659   1.171  10.288 -0.6712  0.1224 -0.4196
  570MOL0     O76873  11.716   1.295  10.301 -0.2164  0.0374 -0.1438
  570MOL0     C76874  11.622   1.394  10.354  0.0864  0.0628  0.5833
  570MOL0     C76875  11.675   1.528  10.287  0.0970  0.0977  0.1091
  570MOL0     C76876  11.610   1.651  10.353  0.1409  0.4784 -0.9472
  570MOL0     C76877  11.701   1.731  10.448 -1.4305  0.1075  0.6231
  570MOL0     C76878  11.692   1.689  10.589  0.4638  0.5090  0.6482
  570MOL0     C76879  11.676   1.656  10.702 -0.2346  0.2618 -0.4177
  570MOL0     C76880  11.720   1.080  10.204  0.0546  0.5164 -0.9286
  570MOL0     C76881  11.668   0.959  10.170  0.5728  0.3868 -1.2965
  570MOL0     C76882  11.750   0.880  10.068 -0.4181 -0.0328  0.3454
  570MOL0     H76883  11.274   0.613  10.023 -1.3153 -1.9851 -2.0387
  570MOL0     H76884  11.223   0.372  10.004  0.4143 -1.8426 -0.0255
  570MOL0     H76885  11.307   0.004  10.013  0.6779  0.0024 -0.8115
  570MOL0     H76886  11.213   0.155   9.993  0.8302  0.5193  3.3275
  570MOL0     H76887  11.400   0.232   9.840 -0.6716 -0.1903 -0.1708
  570MOL0     H76888  11.318   0.080   9.790 -0.1277 -0.8464  0.3534
  570MOL0     H76889  11.490  -0.056   9.910  0.4546 -0.4344 -0.0172
  570MOL0     H76890  11.576   0.100   9.939 -2.1589  0.0361  1.1358
  570MOL0     H76891  11.520  -0.002   9.648  0.4246  2.4876 -2.3485
  570MOL0     H76892  11.613   0.132   9.704  0.0832 -1.4188 -3.8210
  570MOL0     H76893  11.758  -0.002   9.833  0.5724 -1.0537 -0.0193
  570MOL0     H76894  11.674  -0.153   9.755  1.4008 -0.3308 -0.9484
  570MOL0     H76895  11.743  -0.073   9.540  1.3270  2.2816 -1.5460
  570MOL0     H76896  11.806   0.072   9.601 -0.7457 -0.0397 -0.8648
  570MOL0     H76897  11.908  -0.201   9.688  2.9462 -1.0248 -0.8616
  570MOL0     H76898  11.994  -0.054   9.716  0.6220  0.0645 -0.4825
  570MOL0     H76899  12.088  -0.176   9.532  0.6255  0.3895 -0.2059
  570MOL0     H76900  11.922  -0.173   9.450 -4.3172  1.1937  3.2902
  570MOL0     H76901  12.183  -0.066   9.278 -0.9146 -0.1023 -0.8801
  570MOL0     H76902  12.240   0.084   9.115  2.5509  1.7449 -1.4649
  570MOL0     H76903  12.122   0.207   9.072  2.4609  1.0886 -1.6835
  570MOL0     H76904  12.234   0.387   9.200  0.4994  0.7345 -1.8154
  570MOL0     H76905  12.332   0.264   9.283 -1.5997 -0.4004  1.0214
  570MOL0     H76906  12.323   0.370   9.006 -1.3848 -0.7551  0.8698
  570MOL0     H76907  12.412   0.219   9.035 -3.8462 -1.3721 -0.6268
  570MOL0     H76908  12.542   0.387   9.210 -1.6002  1.4398  2.3395
  570MOL0     H76909  12.444   0.510   9.135 -0.6459  0.3798 -3.1051
  570MOL0     H76910  12.588   0.231   8.830 -0.4671  1.9981  0.4901
  570MOL0     H76911  12.775   0.087   8.797 -0.7343  1.1681 -0.1802
  570MOL0     H76912  13.326   0.195   8.821  0.5162 -0.2819 -0.7285
  570MOL0     H76913  13.513   0.087   8.755 -0.0328  1.0249  1.1797
  570MOL0     H76914  13.641   0.013   8.559  1.7723  0.5308  0.0241
  570MOL0     H76915  13.689  -0.085   8.711  3.2038 -6.1391 -1.7738
  570MOL0     H76916  13.843  -0.096   8.514  1.2069 -1.4800  0.2925
  570MOL0     H76917  13.779  -0.253   8.568 -0.9906  0.6504  3.1692
  570MOL0     H76918  13.625  -0.264   8.381 -0.4048 -0.6760 -2.3943
  570MOL0     H76919  13.648  -0.096   8.332  0.1100  0.1857  0.0009
  570MOL0     H76920  13.835  -0.329   8.301 -2.6129 -0.6812  1.5154
  570MOL0     H76921  13.898  -0.163   8.275  0.1834  0.6006  1.3394
  570MOL0     H76922  13.718  -0.113   8.112  1.7766 -0.6693 -0.7544
  570MOL0     H76923  13.647  -0.271   8.142 -0.5265  1.1288 -1.7248
  570MOL0     H76924  13.759  -0.252   7.927 -0.6034 -0.0747 -0.5713
  570MOL0     H76925  13.908  -0.214   7.990 -1.5966 -0.6059 -3.7600
  570MOL0     H76926  13.747  -0.477   8.000  0.3269 -0.9065 -0.9328
  570MOL0     H76927  13.893  -0.453   8.104 -0.1588  0.1932 -0.0725
  570MOL0     H76928  13.885  -0.461   7.805 -1.3153 -1.2289  0.5461
  570MOL0     H76929  14.018  -0.396   7.913 -0.8631  0.5855  0.2740
  570MOL0     H76930  13.278  -0.238   8.582 -1.4496  0.6728 -3.1232
  570MOL0     H76931  13.083  -0.123   8.682  0.0823  0.7583  0.0657
  570MOL0     H76932  13.014   0.325   9.080  0.5798 -0.9129 -0.7647
  570MOL0     H76933  12.783   0.411   9.164  0.5625  1.6608  0.0188
  570MOL0     H76934  11.590   0.266  10.191  0.0059 -1.4603  0.7597
  570MOL0     H76935  11.648   0.514  10.209 -0.6246  2.1705 -0.9834
  570MOL0     H76936  11.386   0.985  10.371  1.6897 -3.4183  3.4996
  570MOL0     H76937  11.483   1.192  10.432  1.5571  0.6651  2.9055
  570MOL0     H76938  11.627   1.410  10.462 -0.3719  4.2103  0.1445
  570MOL0     H76939  11.515   1.381  10.339  0.0435 -0.1217  1.0014
  570MOL0     H76940  11.656   1.525  10.180 -0.6113 -4.6115  0.1311
  570MOL0     H76941  11.783   1.530  10.300  0.4411 -5.0760  0.3122
  570MOL0     H76942  11.513   1.634  10.400 -0.1123 -2.6586 -2.3373
  570MOL0     H76943  11.596   1.724  10.273 -0.1946  1.5863  0.0860
  570MOL0     H76944  11.805   1.733  10.414 -0.1233 -0.8472  4.1123
  570MOL0     H76945  11.663   1.833  10.435  0.5203  0.9629  1.3458
  570MOL0     H76946  11.673   1.638  10.808 -2.2971 -4.1755 -1.0089
  570MOL0     H76947  11.799   1.128  10.146 -2.9169  3.4611 -2.8759
  570MOL0     H76948  11.704   0.869   9.970  3.4656 -0.0832 -1.6952
  570MOL0     H76949  11.847   0.929  10.055 -0.3985  0.7322  2.8720
  570MOL0     H76950  11.777   0.781  10.106 -2.3720 -0.6397  0.2595
  571MOL0     O76951   2.712   3.485   0.446  0.5292  0.1152 -0.0917
  571MOL0     C76952   2.720   3.389   0.369  0.2866  0.4679  0.3927
  571MOL0     O76953   2.647   3.376   0.257  0.1125 -0.1353 -0.5150
  571MOL0     C76954   2.564   3.482   0.224  0.9128 -0.2444 -0.4121
  571MOL0     C76955   2.426   3.458   0.216  0.5853 -0.2036  0.0250
  571MOL0     C76956   2.339   3.558   0.172 -0.4498 -0.5668  0.1647
  571MOL0     C76957   2.377   3.686   0.145 -1.1900  0.5792  0.8088
  571MOL0     O76958   2.295   3.795   0.131 -0.3300  0.2539 -0.0750
  571MOL0     C76959   2.175   3.784   0.200  0.5838 -0.4772  0.4163
  571MOL0     C76960   2.125   3.925   0.229 -0.1644 -0.1300  0.6040
  571MOL0     C76961   2.210   3.973   0.345  0.2184  0.6046 -0.2427
  571MOL0     C76962   2.129   4.091   0.405  1.1618 -0.5314  0.1232
  571MOL0     C76963   2.131   4.215   0.323 -0.2973 -0.2718  0.5278
  571MOL0     C76964   2.257   4.300   0.338  0.1757 -1.1712  0.9221
  571MOL0     C76965   2.263   4.436   0.265 -0.4379 -0.4463  0.6321
  571MOL0     C76966   2.400   4.498   0.269 -0.5310 -0.7114 -0.4228
  571MOL0     N76967   2.392   4.643   0.223  0.0115 -0.0778  0.0302
  571MOL0     C76968   2.438   4.690   0.105  0.0769  0.3657 -0.1695
  571MOL0     C76969   2.445   4.818   0.123 -0.2070 -1.5060  0.6083
  571MOL0     C76970   2.469   4.924   0.019 -0.5963 -0.8154  0.2068
  571MOL0     C76971   2.598   4.891  -0.061 -0.2500 -0.3121 -0.0143
  571MOL0     C76972   2.715   4.950   0.015  0.6352 -0.8705  0.2206
  571MOL0     C76973   2.746   4.903   0.160  0.0916  0.3492  0.1718
  571MOL0     O76974   2.888   4.903   0.171 -0.9166  0.6775 -0.6150
  571MOL0     C76975   2.965   5.010   0.143 -0.0806 -0.0371  0.1127
  571MOL0     C76976   3.034   5.026   0.019  0.6331 -0.2991 -0.0030
  571MOL0     C76977   3.081   5.156  -0.018 -0.9302  0.6690 -0.0956
  571MOL0     C76978   3.063   5.271   0.056 -0.4951 -0.0937 -1.3113
  571MOL0     C76979   3.117   5.403   0.020  0.0699  1.2223  0.2737
  571MOL0     O76980   3.116   5.497   0.111  0.6176 -0.3637 -0.5456
  571MOL0     C76981   3.175   5.619   0.105  0.4685 -0.5341  0.6117
  571MOL0     C76982   3.308   5.633   0.083 -0.3651 -0.4755 -0.7323
  571MOL0     C76983   3.371   5.756   0.108  1.0901  0.1537  0.2950
  571MOL0     C76984   3.291   5.865   0.146  0.1711 -0.5997 -0.1085
  571MOL0     O76985   3.356   5.979   0.177 -0.8604  0.4713 -0.7164
  571MOL0     C76986   3.291   6.058   0.276 -0.0760 -0.7374 -0.8107
  571MOL0     C76987   3.409   6.155   0.328  0.5478  0.3080 -0.0998
  571MOL0     C76988   3.360   6.210   0.463  0.6478 -0.1656 -0.3513
  571MOL0     C76989   3.466   6.307   0.513 -0.4533  0.6202 -0.6267
  571MOL0     C76990   3.437   6.365   0.653  0.2207 -0.8557  0.0903
  571MOL0     C76991   3.545   6.482   0.671  0.8866  0.9987  0.1893
  571MOL0     C76992   3.524   6.537   0.816 -0.4025  0.6633 -0.4269
  571MOL0     C76993   3.607   6.660   0.860  0.7321  0.0745  0.9521
  571MOL0    Cl76994   3.582   6.689   1.027  0.1220  0.0457 -0.1443
  571MOL0     C76995   3.147   5.853   0.152 -0.6277  0.7572 -1.0262
  571MOL0     C76996   3.085   5.725   0.123  0.2328 -0.8326 -0.4586
  571MOL0     O76997   3.158   5.415  -0.094  0.0312 -0.2271 -0.6951
  571MOL0     C76998   2.996   5.248   0.180  0.0026 -0.4099 -0.3571
  571MOL0     C76999   2.946   5.126   0.221  0.5360 -0.9917  0.0338
  571MOL0     N77000   2.397   4.858   0.251  0.0616  0.2345  0.4179
  571MOL0     N77001   2.377   4.750   0.308  0.2510  1.2503  0.1717
  571MOL0     C77002   2.513   3.709   0.147  1.2034  0.9387 -0.6402
  571MOL0     C77003   2.602   3.604   0.176 -0.6402 -0.1661  0.2804
  571MOL0     C77004   2.827   3.283   0.369 -0.0133 -0.1493 -1.1593
  571MOL0     C77005   2.945   3.313   0.433 -0.2616 -0.0599 -0.5165
  571MOL0     C77006   3.045   3.222   0.456 -0.1282 -0.8680  0.5612
  571MOL0     C77007   3.043   3.101   0.392 -0.0978 -0.5021 -0.9431
  571MOL0     O77008   3.130   3.002   0.390  0.4973 -0.2214  0.5776
  571MOL0     C77009   3.260   3.020   0.442  1.2517 -0.5725 -0.7775
  571MOL0     C77010   3.346   2.896   0.402  0.0772 -0.0741 -0.4387
  571MOL0     C77011   3.282   2.763   0.438 -0.1314 -0.5211 -0.2564
  571MOL0     C77012   3.358   2.654   0.371  0.1226  0.3353 -0.1502
  571MOL0     C77013   3.326   2.643   0.228  0.6438 -0.6823 -0.5345
  571MOL0     C77014   3.311   2.628   0.107  0.4397  0.7466 -0.5702
  571MOL0     C77015   2.925   3.063   0.331 -0.0340  1.1470  0.3486
  571MOL0     C77016   2.812   3.151   0.316 -0.5285  0.0077  0.6225
  571MOL0     C77017   2.692   3.098   0.245  0.1853 -0.0047  1.0589
  571MOL0     H77018   2.386   3.359   0.240 -1.3809  0.1001 -1.7398
  571MOL0     H77019   2.233   3.532   0.167 -0.6600  0.3732 -0.4978
  571MOL0     H77020   2.105   3.736   0.131  0.5857 -1.8090  1.3081
  571MOL0     H77021   2.183   3.727   0.293 -1.0735  1.5712  1.9175
  571MOL0     H77022   2.016   3.926   0.242 -0.3839 -3.4334 -0.2162
  571MOL0     H77023   2.142   3.990   0.142  0.2897  1.8981  2.1244
  571MOL0     H77024   2.314   4.000   0.327  0.6871 -0.3990  0.8527
  571MOL0     H77025   2.215   3.896   0.422  0.7502  0.8832  0.0082
  571MOL0     H77026   2.027   4.056   0.423  0.1270  1.2025 -1.9185
  571MOL0     H77027   2.171   4.122   0.502 -0.5217 -0.5232  0.8930
  571MOL0     H77028   2.107   4.192   0.218  2.2099 -1.6044  0.1690
  571MOL0     H77029   2.039   4.269   0.347  0.4294  0.5158  1.5940
  571MOL0     H77030   2.274   4.337   0.440  1.8162 -0.5813  0.4715
  571MOL0     H77031   2.349   4.251   0.302  0.3880  0.5297 -1.0133
  571MOL0     H77032   2.188   4.499   0.315 -0.9689 -2.4154  2.4439
  571MOL0     H77033   2.234   4.424   0.160 -0.4661  1.2707  0.4042
  571MOL0     H77034   2.439   4.491   0.371 -1.9842 -1.0634  0.1298
  571MOL0     H77035   2.480   4.446   0.215  0.9486 -1.5962  2.3700
  571MOL0     H77036   2.454   4.634   0.013 -1.2673  0.2481 -0.3393
  571MOL0     H77037   2.382   4.937  -0.045 -0.9542  3.8885  1.2467
  571MOL0     H77038   2.482   5.017   0.076 -2.5755 -1.2587  1.4632
  571MOL0     H77039   2.617   4.784  -0.068 -2.7144 -0.7907 -0.2247
  571MOL0     H77040   2.595   4.926  -0.165 -1.6130 -2.6078 -0.8113
  571MOL0     H77041   2.721   5.059   0.017  2.4323 -0.8951  2.8613
  571MOL0     H77042   2.795   4.913  -0.050 -0.5244 -3.3289  0.1118
  571MOL0     H77043   2.727   4.795   0.169  3.9364 -0.6085 -1.4666
  571MOL0     H77044   2.695   4.945   0.248  1.6072  1.4557  0.5604
  571MOL0     H77045   3.047   4.945  -0.052 -1.3560 -0.1022 -0.6387
  571MOL0     H77046   3.136   5.158  -0.111  0.4688 -0.5275  0.6598
  571MOL0     H77047   3.368   5.543   0.073  1.7282  0.4495  1.9960
  571MOL0     H77048   3.478   5.771   0.100  1.1409  2.0431  3.1315
  571MOL0     H77049   3.206   6.111   0.232 -0.3248 -1.4544 -1.2062
  571MOL0     H77050   3.258   5.987   0.352  2.3846 -1.1565 -0.0578
  571MOL0     H77051   3.495   6.091   0.349  1.5193  1.4532 -0.5331
  571MOL0     H77052   3.437   6.224   0.249 -3.1272  2.6140  0.3677
  571MOL0     H77053   3.260   6.254   0.458 -0.7017 -2.8078  0.9933
  571MOL0     H77054   3.351   6.122   0.527  0.8831  0.5822  0.7316
  571MOL0     H77055   3.473   6.392   0.444 -1.7065  1.5722  0.3884
  571MOL0     H77056   3.566   6.264   0.506  0.1917  1.8279  0.6897
  571MOL0     H77057   3.451   6.289   0.730 -3.5323 -0.0374  1.8073
  571MOL0     H77058   3.339   6.412   0.663  1.4950  1.6561  1.3991
  571MOL0     H77059   3.643   6.444   0.639 -0.0854 -3.6821  1.9908
  571MOL0     H77060   3.518   6.570   0.612 -1.9782 -0.0102 -0.1693
  571MOL0     H77061   3.551   6.458   0.887  0.4503 -0.4115 -1.8795
  571MOL0     H77062   3.420   6.557   0.840 -1.4512 -0.4552 -3.5319
  571MOL0     H77063   3.713   6.650   0.834  0.4689  1.9728 -1.0753
  571MOL0     H77064   3.569   6.748   0.808 -1.5002 -1.2887  0.1055
  571MOL0     H77065   3.089   5.945   0.162 -3.3526 -0.8778 -0.8843
  571MOL0     H77066   2.978   5.732   0.108  0.1974 -1.5818 -0.6085
  571MOL0     H77067   2.989   5.334   0.246  1.6950  0.7179 -1.5446
  571MOL0     H77068   2.869   5.120   0.297  1.4789 -1.1529  1.0062
  571MOL0     H77069   2.540   3.811   0.123 -0.9783  2.9101  4.0032
  571MOL0     H77070   2.707   3.626   0.164 -1.2848  2.4326 -1.5201
  571MOL0     H77071   2.952   3.416   0.466  1.4617  0.4959 -2.4134
  571MOL0     H77072   3.125   3.247   0.525  0.5760 -1.5982  0.0369
  571MOL0     H77073   3.246   3.022   0.550 -2.5765 -0.8571 -1.1579
  571MOL0     H77074   3.307   3.112   0.407 -0.1563  1.5215  2.4694
  571MOL0     H77075   3.449   2.912   0.435  0.7342  3.9171 -3.6313
  571MOL0     H77076   3.351   2.898   0.293 -2.4632 -2.7249 -0.7415
  571MOL0     H77077   3.177   2.751   0.410 -0.0471 -2.7496  0.2353
  571MOL0     H77078   3.284   2.748   0.546  0.0220  0.5427 -0.1003
  571MOL0     H77079   3.465   2.679   0.369  0.0654  0.6152 -2.8595
  571MOL0     H77080   3.332   2.557   0.413  1.2204  0.5555  1.1206
  571MOL0     H77081   3.278   2.601   0.008 -0.1874  0.6345 -0.3321
  571MOL0     H77082   2.909   2.962   0.297  0.0604  1.0056  0.7201
  571MOL0     H77083   2.609   3.123   0.312  0.7250  1.4196  1.2569
  571MOL0     H77084   2.675   3.157   0.155  0.3642  0.9729  1.6472
  571MOL0     H77085   2.691   2.992   0.219 -0.1852 -0.1055  1.4747
  572MOL0     O77086   1.013   4.749  10.557 -0.3547 -0.2287 -0.0012
  572MOL0     C77087   0.911   4.782  10.614 -0.4179 -0.5258  0.6578
  572MOL0     O77088   0.864   4.901  10.606 -0.1583 -0.5000  0.0971
  572MOL0     C77089   0.920   4.995  10.526 -0.3472  0.0560 -0.4906
  572MOL0     C77090   0.851   5.029  10.407 -0.1578 -0.1847 -0.2313
  572MOL0     C77091   0.897   5.128  10.316 -0.4022  1.0436  0.2087
  572MOL0     C77092   1.010   5.195  10.346 -0.5985  0.9131 -0.7016
  572MOL0     O77093   1.065   5.293  10.261 -0.0412 -0.1299 -0.3983
  572MOL0     C77094   1.022   5.292  10.120 -0.2617 -0.0217  0.4623
  572MOL0     C77095   1.116   5.388  10.051 -0.6459 -0.5251 -0.8612
  572MOL0     C77096   1.074   5.423   9.904 -0.2056  0.2193  0.2252
  572MOL0     C77097   1.183   5.491   9.810 -0.4126 -0.4877  0.1590
  572MOL0     C77098   1.140   5.564   9.688  0.8935 -1.4605 -0.8500
  572MOL0     C77099   1.248   5.634   9.608 -0.3469 -0.0120 -0.1303
  572MOL0     C77100   1.330   5.736   9.686  0.7962  0.7227 -1.1217
  572MOL0     C77101   1.408   5.826   9.598 -0.0292 -0.1706  0.2257
  572MOL0     N77102   1.325   5.911   9.512 -0.0792  0.0489  0.0016
  572MOL0     C77103   1.253   6.019   9.553  0.1521  0.1488 -0.6042
  572MOL0     C77104   1.213   6.069   9.439  0.2817  0.6889 -0.5426
  572MOL0     C77105   1.136   6.198   9.433  0.2096  0.6367 -0.1870
  572MOL0     C77106   1.235   6.313   9.406 -0.0396 -0.1908 -0.2744
  572MOL0     C77107   1.158   6.447   9.378  0.2705 -0.2556 -0.0901
  572MOL0     C77108   1.096   6.511   9.504  0.0326 -0.5095  0.3094
  572MOL0     O77109   1.103   6.654   9.494  1.0418 -0.4861  0.0428
  572MOL0     C77110   1.005   6.740   9.535  1.1023 -0.4882 -0.0644
  572MOL0     C77111   1.002   6.865   9.482 -0.4289  0.4507 -0.9251
  572MOL0     C77112   0.899   6.953   9.510  0.8513 -0.8985 -0.0962
  572MOL0     C77113   0.807   6.918   9.611  0.8746  0.1326 -0.7505
  572MOL0     C77114   0.704   7.016   9.648 -0.3005  0.5637 -0.9895
  572MOL0     O77115   0.667   7.105   9.549  0.0501  0.0348  0.3638
  572MOL0     C77116   0.570   7.192   9.584  0.3562 -0.6022 -0.1039
  572MOL0     C77117   0.434   7.153   9.579  0.3587  0.0427 -0.4561
  572MOL0     C77118   0.330   7.226   9.640 -0.1349  0.2184  0.6873
  572MOL0     C77119   0.349   7.355   9.680 -0.3242 -0.2203  0.1715
  572MOL0     O77120   0.233   7.416   9.721  0.6126 -0.2627  0.1226
  572MOL0     C77121   0.211   7.547   9.663 -1.0759 -0.8182  0.9723
  572MOL0     C77122   0.239   7.552   9.511  0.6162 -0.4131  0.3224
  572MOL0     C77123   0.191   7.680   9.454  0.7679  0.3942  0.4412
  572MOL0     C77124   0.177   7.674   9.297  0.3900  0.1668  0.4897
  572MOL0     C77125   0.212   7.814   9.233  0.2254 -0.1373  0.4011
  572MOL0     C77126   0.200   7.803   9.067 -0.2642  0.7919  0.3019
  572MOL0     C77127   0.255   7.910   8.970 -0.0232  0.0113  0.0635
  572MOL0     C77128   0.176   8.031   8.969  0.7173 -0.3762  0.1014
  572MOL0    Cl77129   0.224   8.140   8.840 -0.6221 -0.1001  0.4365
  572MOL0     C77130   0.480   7.397   9.682 -0.8097  0.1011  0.3891
  572MOL0     C77131   0.595   7.317   9.642  0.7170 -0.2844 -0.4757
  572MOL0     O77132   0.654   7.005   9.757  0.3998 -0.1887  0.1746
  572MOL0     C77133   0.819   6.793   9.678  0.1770 -0.2296  0.1134
  572MOL0     C77134   0.918   6.696   9.636  0.6558  0.3473 -0.3560
  572MOL0     N77135   1.252   5.996   9.328 -0.5476  0.2424 -0.0040
  572MOL0     N77136   1.324   5.895   9.377 -0.4505  0.2508  0.3433
  572MOL0     C77137   1.078   5.158  10.463 -0.1521  0.7662  1.0308
  572MOL0     C77138   1.041   5.054  10.551 -0.1532  0.2807  0.2282
  572MOL0     C77139   0.844   4.671  10.692 -0.2927  0.0568 -0.0832
  572MOL0     C77140   0.919   4.553  10.711  0.2774  0.6330  0.4512
  572MOL0     C77141   0.868   4.448  10.785  0.1368 -0.1489  0.4899
  572MOL0     C77142   0.730   4.444  10.815 -0.8940  0.9165  1.3840
  572MOL0     O77143   0.659   4.342  10.873  0.0718  0.7976 -0.1379
  572MOL0     C77144   0.715   4.210  10.851 -0.2330 -0.5681 -0.3031
  572MOL0     C77145   0.605   4.113  10.884 -0.2142  0.7314 -0.2184
  572MOL0     C77146   0.503   4.111  10.766  0.8043  0.5282  0.2386
  572MOL0     C77147   0.383   4.010  10.776 -0.5320 -0.6606  0.4968
  572MOL0     C77148   0.310   4.013  10.899  0.8183 -0.6908 -0.1075
  572MOL0     C77149   0.250   4.004  10.999  0.1253  0.8814  0.9416
  572MOL0     C77150   0.659   4.552  10.808  0.2644  0.0887 -1.0613
  572MOL0     C77151   0.724   4.673  10.763  0.0309 -0.9845 -0.3560
  572MOL0     C77152   0.637   4.795  10.767  0.1506  0.2297  0.1441
  572MOL0     H77153   0.762   4.972  10.382 -1.1300  1.1029  0.1683
  572MOL0     H77154   0.841   5.148  10.225 -1.4895  0.0261  0.6168
  572MOL0     H77155   1.032   5.196  10.070 -0.1692 -0.0950  0.6237
  572MOL0     H77156   0.913   5.305  10.112 -0.1973 -0.7789 -3.2587
  572MOL0     H77157   1.211   5.334  10.042  0.1919  1.0379 -1.7933
  572MOL0     H77158   1.125   5.485  10.099 -0.6827 -0.2509 -1.4032
  572MOL0     H77159   0.988   5.490   9.893 -0.2425 -0.1938 -2.7785
  572MOL0     H77160   1.027   5.338   9.853 -1.1062  0.2201  1.0203
  572MOL0     H77161   1.249   5.553   9.872 -0.8629  0.0376  0.1151
  572MOL0     H77162   1.250   5.410   9.779  0.7167  0.2714  0.5562
  572MOL0     H77163   1.087   5.495   9.621 -0.5885 -1.5028  0.3303
  572MOL0     H77164   1.087   5.653   9.720  1.1047 -2.5712  3.0795
  572MOL0     H77165   1.307   5.555   9.561  0.0084  0.0227  0.2443
  572MOL0     H77166   1.189   5.683   9.531 -1.1326 -0.9548 -0.1453
  572MOL0     H77167   1.405   5.676   9.740  0.1004 -1.9831 -2.9745
  572MOL0     H77168   1.270   5.790   9.760 -3.6445 -3.1805 -1.4384
  572MOL0     H77169   1.467   5.898   9.656  3.5056 -2.0573 -0.6993
  572MOL0     H77170   1.486   5.777   9.539 -2.2799 -1.6957 -1.6726
  572MOL0     H77171   1.222   6.048   9.653 -1.7736 -0.2668 -1.0317
  572MOL0     H77172   1.063   6.206   9.352 -0.4845  3.1957  0.5725
  572MOL0     H77173   1.091   6.213   9.532 -1.9783  0.8300 -1.1483
  572MOL0     H77174   1.284   6.337   9.501  0.8533  1.8518 -1.1843
  572MOL0     H77175   1.317   6.283   9.341  0.6219 -3.8779  1.9531
  572MOL0     H77176   1.078   6.425   9.307  0.3445  1.8609 -0.9096
  572MOL0     H77177   1.228   6.514   9.326  0.3570 -0.7834 -0.6674
  572MOL0     H77178   1.151   6.487   9.595  0.2512 -1.3890 -0.0429
  572MOL0     H77179   0.997   6.465   9.509 -1.0075  1.3644 -1.4864
  572MOL0     H77180   1.065   6.895   9.399 -1.9109  4.1004 -0.9177
  572MOL0     H77181   0.905   7.053   9.467  1.2151 -1.1691 -0.6742
  572MOL0     H77182   0.407   7.057   9.537 -1.8040 -0.3901  1.6929
  572MOL0     H77183   0.233   7.178   9.644  0.3489 -0.7140  1.5148
  572MOL0     H77184   0.108   7.579   9.677  0.2490  3.4009  2.3094
  572MOL0     H77185   0.268   7.619   9.722 -0.8063 -2.1071  2.3708
  572MOL0     H77186   0.343   7.540   9.480  0.9706  0.2542  1.2263
  572MOL0     H77187   0.184   7.471   9.462 -0.2596  0.9167 -1.0007
  572MOL0     H77188   0.096   7.700   9.504 -0.5650 -4.3451  0.2071
  572MOL0     H77189   0.263   7.756   9.486  0.9548 -0.4696  2.1924
  572MOL0     H77190   0.074   7.651   9.268  0.0774  3.2212 -1.2939
  572MOL0     H77191   0.243   7.597   9.257 -0.5081 -1.2698  1.6658
  572MOL0     H77192   0.317   7.830   9.261 -0.1356  0.2345  1.6091
  572MOL0     H77193   0.153   7.896   9.272 -2.0906 -0.9874 -1.1280
  572MOL0     H77194   0.252   7.713   9.033  1.4560  2.0254 -0.4909
  572MOL0     H77195   0.094   7.782   9.056  0.1735 -2.0330  0.6240
  572MOL0     H77196   0.237   7.866   8.872 -1.8529 -0.8561  0.7362
  572MOL0     H77197   0.362   7.928   8.983 -0.0138  1.7723 -2.0220
  572MOL0     H77198   0.074   7.996   8.950  1.3435 -2.9796  1.1719
  572MOL0     H77199   0.174   8.086   9.064  0.1221 -2.3536  1.2898
  572MOL0     H77200   0.483   7.495   9.730 -2.2850  0.0310  0.6552
  572MOL0     H77201   0.693   7.358   9.666  0.3481 -0.9246  2.4280
  572MOL0     H77202   0.748   6.767   9.756 -0.5521 -4.7640 -1.7232
  572MOL0     H77203   0.923   6.594   9.672 -1.5929  0.6856  1.1526
  572MOL0     H77204   1.165   5.219  10.487 -1.7806  3.7860 -0.1866
  572MOL0     H77205   1.082   5.026  10.648 -1.1417 -1.1801  0.2469
  572MOL0     H77206   1.015   4.548  10.661  0.6604 -0.1615  1.2199
  572MOL0     H77207   0.924   4.356  10.799  2.7886  1.5008  1.5706
  572MOL0     H77208   0.806   4.200  10.911  0.7449 -1.3412 -1.8250
  572MOL0     H77209   0.750   4.205  10.747 -2.3578  3.5183 -1.4629
  572MOL0     H77210   0.562   4.129  10.983 -0.9318 -1.8224 -0.0436
  572MOL0     H77211   0.650   4.015  10.902 -0.5517  0.3891 -1.1876
  572MOL0     H77212   0.556   4.102  10.671 -1.3639 -2.2695 -0.8706
  572MOL0     H77213   0.458   4.210  10.772  1.2808  0.8059 -0.6965
  572MOL0     H77214   0.319   4.035  10.691 -1.9536 -2.2180  1.0540
  572MOL0     H77215   0.440   3.918  10.765  2.3234  0.9302  0.9755
  572MOL0     H77216   0.189   3.986  11.085  2.3063  3.5735  3.2263
  572MOL0     H77217   0.560   4.547  10.854  0.6669  0.0281 -0.1846
  572MOL0     H77218   0.601   4.817  10.666  4.1700  4.3633 -0.6942
  572MOL0     H77219   0.563   4.787  10.847  2.3084  0.5136  2.2983
  572MOL0     H77220   0.691   4.886  10.797 -1.4680  0.4774  2.6283
  573MOL0     O77221   3.157   3.860   9.530  0.7206  0.1950  0.4328
  573MOL0     C77222   3.068   3.787   9.578  0.6259 -0.5550  0.2487
  573MOL0     O77223   2.926   3.804   9.560  0.0097  1.1537  0.9027
  573MOL0     C77224   2.869   3.914   9.509 -0.1420  0.2156  1.1281
  573MOL0     C77225   2.936   4.022   9.431  0.4156 -0.2802  0.6321
  573MOL0     C77226   2.871   4.142   9.405 -0.2314 -0.0154 -0.2734
  573MOL0     C77227   2.733   4.156   9.423  0.9525 -0.5792  0.2511
  573MOL0     O77228   2.664   4.258   9.369  0.2396  0.0917  0.6290
  573MOL0     C77229   2.687   4.275   9.232 -0.2315 -0.5599 -0.0718
  573MOL0     C77230   2.607   4.390   9.168  1.0546  0.3281 -0.0222
  573MOL0     C77231   2.458   4.376   9.196  0.4314 -0.6794  0.0427
  573MOL0     C77232   2.385   4.441   9.083 -0.1806 -0.5055  0.5275
  573MOL0     C77233   2.234   4.445   9.100  0.3480 -0.4167  0.3500
  573MOL0     C77234   2.160   4.527   8.991 -0.3881 -0.0909  0.0000
  573MOL0     C77235   2.008   4.516   9.002 -0.7538  0.3947 -0.4427
  573MOL0     C77236   1.940   4.565   8.877  0.1260 -0.5028  0.0704
  573MOL0     N77237   1.795   4.585   8.893  0.0751 -0.4561  0.2956
  573MOL0     C77238   1.716   4.521   8.983  1.1157  0.6649  0.1215
  573MOL0     C77239   1.592   4.557   8.954 -0.0232 -0.2305  0.5555
  573MOL0     C77240   1.471   4.509   9.014  0.7241  0.3815 -0.0957
  573MOL0     C77241   1.483   4.453   9.158  0.3142 -0.3239 -0.7620
  573MOL0     C77242   1.353   4.418   9.229 -0.2563 -0.2285 -1.1354
  573MOL0     C77243   1.377   4.396   9.377  0.5604 -0.6568 -0.4016
  573MOL0     O77244   1.466   4.285   9.411 -0.1464 -0.0402 -0.1506
  573MOL0     C77245   1.510   4.268   9.543  0.1974 -0.7427 -0.4800
  573MOL0     C77246   1.595   4.161   9.579 -0.2046  0.2196  0.1677
  573MOL0     C77247   1.666   4.144   9.698  0.3568  0.9013 -0.0837
  573MOL0     C77248   1.650   4.238   9.794 -0.2930 -0.0124  1.0355
  573MOL0     C77249   1.716   4.212   9.924 -0.0193 -0.5328  0.9422
  573MOL0     O77250   1.789   4.315   9.981 -0.4679 -0.5824  0.1492
  573MOL0     C77251   1.833   4.302  10.115 -0.3285  0.2667  0.2849
  573MOL0     C77252   1.962   4.249  10.155 -0.0494 -0.0455 -0.4044
  573MOL0     C77253   2.004   4.243  10.289 -0.5507  0.1254  0.1822
  573MOL0     C77254   1.917   4.300  10.390  0.6053  0.6477 -0.4973
  573MOL0     O77255   1.951   4.312  10.527 -0.2693 -0.4459 -0.1185
  573MOL0     C77256   2.048   4.221  10.570 -0.6936 -0.7984  0.4371
  573MOL0     C77257   2.053   4.227  10.727 -0.1081 -0.0725 -0.0532
  573MOL0     C77258   2.175   4.154  10.792 -0.8492 -0.1189 -0.3827
  573MOL0     C77259   2.190   4.005  10.760 -0.2939  0.0502 -0.5340
  573MOL0     C77260   2.298   3.937  10.843  0.9194  0.7158  0.0228
  573MOL0     C77261   2.297   3.787  10.809  0.1241 -0.3702  0.9655
  573MOL0     C77262   2.424   3.718  10.846 -0.4887  0.1438  0.1482
  573MOL0     C77263   2.425   3.564  10.802  0.8999  0.1329  0.4036
  573MOL0    Cl77264   2.425   3.445  10.940 -0.8595 -0.1158 -0.1215
  573MOL0     C77265   1.790   4.342  10.351  0.2764 -0.5292 -0.2233
  573MOL0     C77266   1.749   4.337  10.220 -0.2562  0.7194  0.9995
  573MOL0     O77267   1.707   4.098   9.967 -0.0909  0.8897 -0.7043
  573MOL0     C77268   1.562   4.350   9.765 -0.0637 -0.3684  0.3476
  573MOL0     C77269   1.490   4.358   9.649  0.5727  0.0478 -0.4194
  573MOL0     N77270   1.604   4.636   8.838  0.3225  0.7811  0.0262
  573MOL0     N77271   1.725   4.658   8.810  0.5949 -0.0719  0.1331
  573MOL0     C77272   2.671   4.050   9.493 -0.4103 -0.4228 -0.2312
  573MOL0     C77273   2.736   3.930   9.531 -0.2001  0.1238 -0.1344
  573MOL0     C77274   3.104   3.677   9.666  0.3152 -0.0174 -0.5523
  573MOL0     C77275   3.003   3.619   9.760 -0.0592 -0.5344 -0.8973
  573MOL0     C77276   3.039   3.517   9.849 -0.0765 -0.6560  0.3102
  573MOL0     C77277   3.168   3.453   9.838  0.4895 -0.3471  0.0459
  573MOL0     O77278   3.187   3.343   9.914 -0.2412 -0.2799  0.2164
  573MOL0     C77279   3.082   3.270   9.990  0.0961  0.0479  0.1943
  573MOL0     C77280   3.135   3.146  10.070  0.3687 -0.4205  0.8706
  573MOL0     C77281   3.007   3.088  10.142 -0.5391 -0.9534 -0.5521
  573MOL0     C77282   2.967   3.156  10.277 -0.6647 -0.1487 -0.3339
  573MOL0     C77283   3.070   3.216  10.355  0.2695  0.6104  0.7812
  573MOL0     C77284   3.162   3.265  10.420 -0.1876  0.5031 -0.4609
  573MOL0     C77285   3.255   3.487   9.743 -1.0838 -0.2038 -0.3171
  573MOL0     C77286   3.235   3.606   9.666 -0.1746 -0.5776  0.0450
  573MOL0     C77287   3.357   3.654   9.585 -0.5483  0.8810 -0.5376
  573MOL0     H77288   3.044   4.025   9.418  0.4302  1.0105  0.9136
  573MOL0     H77289   2.931   4.221   9.361  4.2728 -0.8977  3.4389
  573MOL0     H77290   2.792   4.302   9.222 -0.3731 -0.2432 -0.7129
  573MOL0     H77291   2.681   4.178   9.182  3.2348 -2.1582  2.2420
  573MOL0     H77292   2.632   4.412   9.063 -0.7040  0.3595 -0.4644
  573MOL0     H77293   2.631   4.480   9.226  1.6210  0.2258 -0.0930
  573MOL0     H77294   2.430   4.431   9.286 -3.3039 -1.8780 -0.2233
  573MOL0     H77295   2.417   4.276   9.210  1.8454 -1.4941 -1.3695
  573MOL0     H77296   2.428   4.541   9.072 -1.9269  0.5885  2.7517
  573MOL0     H77297   2.406   4.384   8.992  0.8110  0.0143  0.4200
  573MOL0     H77298   2.201   4.342   9.085  0.3655 -0.0912 -2.4717
  573MOL0     H77299   2.190   4.481   9.193 -0.9818  0.6998 -0.6678
  573MOL0     H77300   2.189   4.632   9.003  2.4057 -0.4118 -2.5987
  573MOL0     H77301   2.187   4.493   8.891 -0.5886  2.2410 -0.9236
  573MOL0     H77302   1.957   4.568   9.084 -0.3456  0.8429 -0.4652
  573MOL0     H77303   1.992   4.408   9.005  2.7330 -0.2251  1.3598
  573MOL0     H77304   1.977   4.667   8.863 -1.0859 -0.1216 -0.5209
  573MOL0     H77305   1.958   4.498   8.792  1.0296 -3.8449  2.6752
  573MOL0     H77306   1.737   4.447   9.060 -1.2629  0.6715  0.8324
  573MOL0     H77307   1.396   4.589   9.009  0.6317  0.3507  0.6749
  573MOL0     H77308   1.425   4.433   8.950 -4.3519  1.6472  1.6101
  573MOL0     H77309   1.541   4.361   9.156 -0.3424 -0.9648  3.1368
  573MOL0     H77310   1.533   4.525   9.224  4.8743 -2.4366 -1.5412
  573MOL0     H77311   1.317   4.326   9.182  0.4546 -1.7322  1.1023
  573MOL0     H77312   1.283   4.500   9.211 -2.6145 -1.9455 -0.2967
  573MOL0     H77313   1.280   4.389   9.426  0.4760  0.4262 -0.3787
  573MOL0     H77314   1.437   4.480   9.415 -1.7847  1.0537 -0.2487
  573MOL0     H77315   1.624   4.089   9.503  0.5742  1.4285 -0.7127
  573MOL0     H77316   1.715   4.049   9.714 -0.4776 -0.0094 -2.5244
  573MOL0     H77317   2.021   4.207  10.074  0.6591 -1.9863  1.0364
  573MOL0     H77318   2.100   4.202  10.318 -0.6033 -1.0052 -1.1236
  573MOL0     H77319   2.035   4.117  10.537  1.3965 -1.0053  0.1274
  573MOL0     H77320   2.145   4.244  10.524 -0.3846 -3.3815 -0.3997
  573MOL0     H77321   2.058   4.329  10.765  0.3377 -0.8203  2.0569
  573MOL0     H77322   1.971   4.182  10.783  2.2788  0.0388  3.9022
  573MOL0     H77323   2.272   4.201  10.773 -0.0360 -2.5260 -2.7052
  573MOL0     H77324   2.158   4.165  10.899 -0.1857  0.6153 -0.3399
  573MOL0     H77325   2.217   3.994  10.654  1.7004  1.3302 -0.2059
  573MOL0     H77326   2.097   3.951  10.779  0.5773 -3.0902 -3.9626
  573MOL0     H77327   2.277   3.949  10.950 -0.8309 -2.5586  0.1861
  573MOL0     H77328   2.395   3.978  10.816  0.4272  2.4765  0.7705
  573MOL0     H77329   2.202   3.746  10.843 -1.6261  1.1213 -1.7724
  573MOL0     H77330   2.286   3.780  10.701 -1.9574 -1.7680  1.2125
  573MOL0     H77331   2.452   3.729  10.951  1.5501  0.3209 -0.3889
  573MOL0     H77332   2.495   3.769  10.781  0.0367  3.3939  3.0044
  573MOL0     H77333   2.338   3.547  10.739  2.4282  2.2807 -2.5257
  573MOL0     H77334   2.516   3.546  10.743  0.9805  1.6845  0.0090
  573MOL0     H77335   1.732   4.402  10.420  0.2112  2.0792 -2.3752
  573MOL0     H77336   1.647   4.364  10.194 -0.2668 -0.6973 -0.6103
  573MOL0     H77337   1.554   4.434   9.833  1.2613 -1.7769  2.3672
  573MOL0     H77338   1.415   4.436   9.659  0.0822 -0.6457  1.7388
  573MOL0     H77339   2.566   4.074   9.505 -0.2871 -0.0351  0.0989
  573MOL0     H77340   2.679   3.846   9.568 -0.2056  0.0570 -0.2944
  573MOL0     H77341   2.904   3.661   9.772  0.4129  0.1221  1.3456
  573MOL0     H77342   2.961   3.482   9.916 -1.5207 -0.2048 -1.0530
  573MOL0     H77343   3.008   3.240   9.915  0.8230  1.5760 -1.2302
  573MOL0     H77344   3.032   3.338  10.058  0.7716  1.0613 -0.2878
  573MOL0     H77345   3.211   3.188  10.137 -0.8872  2.6211  0.5428
  573MOL0     H77346   3.182   3.072  10.004  1.1806  1.7229 -1.1063
  573MOL0     H77347   3.036   2.986  10.172 -0.3450 -1.1593 -1.4149
  573MOL0     H77348   2.929   3.084  10.066  0.9800  1.1993 -2.3220
  573MOL0     H77349   2.885   3.226  10.258 -2.2661 -1.4655  1.2787
  573MOL0     H77350   2.914   3.087  10.344 -2.3898  1.7901  0.4312
  573MOL0     H77351   3.257   3.292  10.462  0.7612 -1.8106 -0.9846
  573MOL0     H77352   3.346   3.428   9.737  0.8162  2.5435 -0.5617
  573MOL0     H77353   3.411   3.560   9.596 -2.1914  0.1867  2.5076
  573MOL0     H77354   3.338   3.670   9.478  2.6778 -1.0028 -1.5528
  573MOL0     H77355   3.426   3.730   9.622  0.3444 -0.8633  1.5740
  574MOL0     O77356  11.322   8.595   4.741 -0.1518 -0.4796 -0.3753
  574MOL0     C77357  11.212   8.561   4.778  0.0103 -0.2018  0.3365
  574MOL0     O77358  11.155   8.579   4.903 -0.0751 -0.0953  1.0255
  574MOL0     C77359  11.234   8.614   5.010  0.0116  0.2666  0.1712
  574MOL0     C77360  11.353   8.547   5.035  0.4491 -0.8428 -0.2739
  574MOL0     C77361  11.420   8.571   5.156 -0.0484  0.3138  1.4519
  574MOL0     C77362  11.375   8.669   5.245 -0.7648  0.9400 -0.2887
  574MOL0     O77363  11.429   8.681   5.369  0.5005  0.5993  0.3106
  574MOL0     C77364  11.439   8.564   5.450  0.2757 -0.0426  0.6905
  574MOL0     C77365  11.502   8.591   5.588 -0.6911  0.4940 -0.1146
  574MOL0     C77366  11.636   8.684   5.577 -0.0071  0.4983  0.6218
  574MOL0     C77367  11.716   8.674   5.702  0.2166  0.4925  0.4865
  574MOL0     C77368  11.833   8.770   5.725  0.6392 -0.2559  0.0883
  574MOL0     C77369  11.772   8.906   5.749  0.1861 -0.3884 -0.5186
  574MOL0     C77370  11.888   9.002   5.789 -0.8110 -0.3663  0.9332
  574MOL0     C77371  11.957   8.993   5.917  0.1067 -0.1271 -0.7745
  574MOL0     N77372  11.870   8.981   6.038 -0.1587 -0.1942  0.5956
  574MOL0     C77373  11.795   9.087   6.089  0.9499  0.7267 -0.4039
  574MOL0     C77374  11.722   9.031   6.187  0.7481 -0.5797 -0.0668
  574MOL0     C77375  11.614   9.108   6.266 -0.0252 -0.5971 -0.3649
  574MOL0     C77376  11.641   9.122   6.414  0.0475  0.1773 -0.0971
  574MOL0     C77377  11.644   8.985   6.486 -0.8965  0.4627 -0.1413
  574MOL0     C77378  11.651   9.013   6.644  0.3096  1.1813  0.2498
  574MOL0     O77379  11.708   8.895   6.708  0.5886 -0.3706  0.4084
  574MOL0     C77380  11.698   8.893   6.841 -1.4286  0.4007 -0.4578
  574MOL0     C77381  11.769   8.786   6.906 -0.2480  0.8113  0.5299
  574MOL0     C77382  11.772   8.781   7.049 -0.2762 -0.0829  0.5265
  574MOL0     C77383  11.700   8.878   7.124 -1.1686 -1.4187 -0.0113
  574MOL0     C77384  11.732   8.890   7.267  0.3103  0.1990  0.4470
  574MOL0     O77385  11.853   8.850   7.311 -0.3585  0.4398 -0.2374
  574MOL0     C77386  11.889   8.829   7.440 -0.2788 -0.0946  0.7370
  574MOL0     C77387  11.829   8.865   7.562  0.4165  0.6492  0.6759
  574MOL0     C77388  11.894   8.850   7.682  0.3135 -0.4785  0.7028
  574MOL0     C77389  12.010   8.766   7.684  0.0449 -0.7367 -0.0116
  574MOL0     O77390  12.087   8.722   7.790  0.4747  0.4342  0.5676
  574MOL0     C77391  12.039   8.746   7.915  0.0047 -0.3357 -0.5779
  574MOL0     C77392  12.132   8.665   8.013 -0.5352 -0.0438 -0.3390
  574MOL0     C77393  12.199   8.534   7.959  0.8050 -0.3032 -0.2220
  574MOL0     C77394  12.306   8.472   8.054 -0.9676  0.1417 -0.1840
  574MOL0     C77395  12.356   8.347   7.991  0.2319  0.4492  0.5889
  574MOL0     C77396  12.472   8.293   8.068 -0.3054 -0.0731  0.1227
  574MOL0     C77397  12.458   8.143   8.086  0.0709 -0.5089 -0.3188
  574MOL0     C77398  12.564   8.092   8.176  0.3071  0.0770  0.6109
  574MOL0    Cl77399  12.527   8.121   8.346 -0.1413  0.2064  0.3244
  574MOL0     C77400  12.070   8.727   7.566 -0.3130  0.0843  0.0635
  574MOL0     C77401  12.009   8.760   7.445 -0.0172  0.0877 -0.1822
  574MOL0     O77402  11.633   8.916   7.337  0.2343  0.5116  0.0321
  574MOL0     C77403  11.628   8.981   7.058  0.3357 -0.4413 -0.4659
  574MOL0     C77404  11.633   8.988   6.922 -0.4791 -0.3923 -0.8952
  574MOL0     N77405  11.750   8.900   6.193  0.3925  0.6685  0.5014
  574MOL0     N77406  11.844   8.872   6.105 -0.0017 -0.0246 -0.2700
  574MOL0     C77407  11.253   8.735   5.223  0.3017  0.8488  0.3647
  574MOL0     C77408  11.191   8.715   5.098  0.4368  0.8671  0.2037
  574MOL0     C77409  11.117   8.514   4.681  0.3042  0.6285  0.5608
  574MOL0     C77410  11.008   8.446   4.732 -0.2779  0.9600 -0.3465
  574MOL0     C77411  10.909   8.401   4.646  0.1267 -0.6828  0.4012
  574MOL0     C77412  10.914   8.434   4.511  0.5009 -0.0301  0.6072
  574MOL0     O77413  10.800   8.414   4.434  0.2063 -0.7457 -0.5259
  574MOL0     C77414  10.763   8.281   4.412 -1.0579  0.2610  0.0838
  574MOL0     C77415  10.677   8.266   4.288  0.2806  0.1301  0.3967
  574MOL0     C77416  10.536   8.325   4.302 -0.1358 -0.0001  0.1229
  574MOL0     C77417  10.451   8.312   4.174  0.1399  0.1215 -0.3912
  574MOL0     C77418  10.450   8.174   4.134  0.0742  0.7585  0.7052
  574MOL0     C77419  10.426   8.063   4.098 -0.1939  0.6538 -0.6409
  574MOL0     C77420  11.022   8.516   4.462  0.1598  0.3930 -0.2722
  574MOL0     C77421  11.121   8.549   4.544  0.1701 -0.2824  0.1971
  574MOL0     C77422  11.221   8.650   4.484 -0.7847  0.4865  0.2242
  574MOL0     H77423  11.377   8.468   4.965  4.4004  0.9583 -1.2225
  574MOL0     H77424  11.511   8.519   5.181 -0.8611 -2.7074 -1.1162
  574MOL0     H77425  11.345   8.509   5.463 -0.2621 -0.0111 -2.2775
  574MOL0     H77426  11.521   8.507   5.404 -0.4519 -0.1352 -0.5544
  574MOL0     H77427  11.532   8.493   5.627  2.9553  0.7465 -1.8802
  574MOL0     H77428  11.423   8.632   5.651 -0.9494 -0.8984  0.5121
  574MOL0     H77429  11.603   8.788   5.564  2.0952  0.9875 -1.3696
  574MOL0     H77430  11.710   8.665   5.499  2.0638 -1.5766  2.9444
  574MOL0     H77431  11.639   8.685   5.779 -0.3760 -0.9279  0.1214
  574MOL0     H77432  11.745   8.569   5.715 -2.4574 -0.4551 -0.6238
  574MOL0     H77433  11.886   8.737   5.815  0.9872 -0.7701 -0.2983
  574MOL0     H77434  11.893   8.771   5.634 -2.6674  1.7581 -2.2698
  574MOL0     H77435  11.730   8.934   5.652  1.1711 -0.9111 -1.1101
  574MOL0     H77436  11.690   8.916   5.820  1.2138 -0.5290  0.7271
  574MOL0     H77437  11.837   9.098   5.784 -0.2202 -0.0318  1.1654
  574MOL0     H77438  11.967   8.997   5.713 -0.0301  0.5564  1.6483
  574MOL0     H77439  12.022   8.907   5.935  0.4403  0.7435  3.2191
  574MOL0     H77440  12.019   9.083   5.920  1.2033 -0.6814 -3.4702
  574MOL0     H77441  11.808   9.193   6.067  1.2641  0.7357 -0.1825
  574MOL0     H77442  11.598   9.211   6.233 -1.0480 -1.1518 -1.7105
  574MOL0     H77443  11.516   9.058   6.263 -1.7636  2.2706  2.3884
  574MOL0     H77444  11.730   9.179   6.441 -1.1027  0.4661  3.6664
  574MOL0     H77445  11.561   9.179   6.463  0.8433 -0.1019  1.5782
  574MOL0     H77446  11.725   8.930   6.438  0.6827  2.3147  0.3133
  574MOL0     H77447  11.550   8.934   6.460 -0.2718 -0.7928 -0.0232
  574MOL0     H77448  11.549   9.022   6.683  0.5739  1.7205  0.8249
  574MOL0     H77449  11.699   9.110   6.658 -0.2053  1.8818 -2.3664
  574MOL0     H77450  11.799   8.703   6.843 -0.5310  0.0943  1.3267
  574MOL0     H77451  11.833   8.701   7.089  1.4811  1.3322  0.7610
  574MOL0     H77452  11.733   8.915   7.565  0.1723  0.2071  0.3739
  574MOL0     H77453  11.847   8.888   7.772 -1.2987 -1.5427  0.3465
  574MOL0     H77454  12.062   8.846   7.951  1.1577 -1.2939  1.5312
  574MOL0     H77455  11.936   8.717   7.939  0.2047 -1.2956 -0.8435
  574MOL0     H77456  12.214   8.735   8.031  0.0815 -1.2952  2.2203
  574MOL0     H77457  12.076   8.644   8.104  0.4373  3.4069  1.2503
  574MOL0     H77458  12.121   8.460   7.942  1.3086 -0.4318 -2.2986
  574MOL0     H77459  12.247   8.553   7.863 -3.1941  1.2772 -2.1175
  574MOL0     H77460  12.278   8.456   8.158  1.4274  0.1063  0.5210
  574MOL0     H77461  12.386   8.546   8.062 -0.4369 -0.4318 -0.1453
  574MOL0     H77462  12.380   8.356   7.885  3.7484  2.7013  1.4123
  574MOL0     H77463  12.271   8.280   8.007  0.2493 -0.0377 -1.1589
  574MOL0     H77464  12.572   8.301   8.023 -0.8844 -0.0246 -1.1931
  574MOL0     H77465  12.476   8.341   8.167  1.0218  0.5885 -0.2165
  574MOL0     H77466  12.457   8.096   7.987  0.8483 -2.1326  0.3955
  574MOL0     H77467  12.364   8.115   8.135  0.8615 -1.2461  0.8558
  574MOL0     H77468  12.580   7.988   8.146 -2.7442 -0.4443  0.4253
  574MOL0     H77469  12.660   8.141   8.157 -0.6870  2.2985  1.0120
  574MOL0     H77470  12.169   8.683   7.571  0.3324  1.5783  1.5305
  574MOL0     H77471  12.057   8.745   7.349  0.3945 -2.1402  0.3071
  574MOL0     H77472  11.565   9.052   7.111 -2.6238 -2.3729 -1.1560
  574MOL0     H77473  11.585   9.076   6.881 -0.3589 -0.9176 -2.2320
  574MOL0     H77474  11.213   8.809   5.291 -0.1592  2.3589 -1.4598
  574MOL0     H77475  11.111   8.783   5.071 -0.5767  0.7088  2.5603
  574MOL0     H77476  10.995   8.421   4.837  0.2843  1.2640 -0.2045
  574MOL0     H77477  10.823   8.344   4.679  1.1386 -2.5008  0.0602
  574MOL0     H77478  10.725   8.219   4.492  1.5539 -2.0284 -0.2869
  574MOL0     H77479  10.856   8.230   4.383 -1.0879  0.0635  0.3429
  574MOL0     H77480  10.689   8.161   4.262  1.3442  0.0037  1.3235
  574MOL0     H77481  10.730   8.321   4.210 -0.0434 -0.3065 -0.1312
  574MOL0     H77482  10.540   8.434   4.313  1.3708  0.0389 -0.5324
  574MOL0     H77483  10.480   8.273   4.381  1.8956 -1.6758  0.5264
  574MOL0     H77484  10.354   8.354   4.201  0.6387  0.1010  1.6361
  574MOL0     H77485  10.490   8.368   4.088  0.0741  2.0430  0.7676
  574MOL0     H77486  10.427   7.965   4.057  2.6454  0.4743 -0.3341
  574MOL0     H77487  11.029   8.548   4.358 -1.0516  2.2954  0.1895
  574MOL0     H77488  11.198   8.674   4.379 -1.3696 -2.0104 -0.2793
  574MOL0     H77489  11.213   8.747   4.533  1.5770 -0.1262  2.0095
  574MOL0     H77490  11.319   8.602   4.490 -1.4143 -0.7600  0.8584
  575MOL0     O77491   6.126   0.340   6.751  0.1130  0.3697 -0.1968
  575MOL0     C77492   6.084   0.446   6.801 -0.7029  0.1813  0.0945
  575MOL0     O77493   5.973   0.510   6.774  0.4124 -0.3490  0.0559
  575MOL0     C77494   5.884   0.469   6.677 -0.4260 -0.8310  0.0854
  575MOL0     C77495   5.794   0.567   6.628  0.4048  0.5262  0.2998
  575MOL0     C77496   5.695   0.532   6.534 -0.5442 -0.4338 -0.1892
  575MOL0     C77497   5.689   0.401   6.480 -0.7305 -0.8848 -0.5059
  575MOL0     O77498   5.588   0.340   6.402  0.3035 -0.2037  0.0754
  575MOL0     C77499   5.494   0.435   6.345  0.6650  1.0191 -0.2774
  575MOL0     C77500   5.547   0.526   6.236  0.0430 -0.1017 -0.3784
  575MOL0     C77501   5.551   0.446   6.107 -0.4498  0.7006 -0.0266
  575MOL0     C77502   5.416   0.443   6.032 -0.2316 -0.3571  0.4609
  575MOL0     C77503   5.440   0.361   5.900  0.0208 -0.3933  0.3984
  575MOL0     C77504   5.309   0.355   5.817 -0.0911 -0.1289 -1.0740
  575MOL0     C77505   5.319   0.271   5.687 -0.0569 -0.6410 -1.4975
  575MOL0     C77506   5.224   0.157   5.675  0.7329  0.0082 -0.1643
  575MOL0     N77507   5.228   0.090   5.549  0.2155  0.3471 -0.0742
  575MOL0     C77508   5.331   0.007   5.518 -0.6848 -0.0018 -0.2595
  575MOL0     C77509   5.310  -0.012   5.384  0.2016  0.5182  0.0529
  575MOL0     C77510   5.394  -0.087   5.280  0.2141  1.1315  0.3513
  575MOL0     C77511   5.507  -0.184   5.337  0.5020 -0.3264 -0.5501
  575MOL0     C77512   5.592  -0.261   5.229 -0.8970  0.0037  0.2234
  575MOL0     C77513   5.648  -0.398   5.287 -0.6034 -0.1278  0.0242
  575MOL0     O77514   5.714  -0.371   5.417 -0.0000  0.4457  0.7995
  575MOL0     C77515   5.803  -0.269   5.421  0.6435 -0.1900  0.7429
  575MOL0     C77516   5.808  -0.179   5.523 -0.8160 -0.5481 -0.0826
  575MOL0     C77517   5.902  -0.081   5.528 -0.4241 -0.4398  0.4256
  575MOL0     C77518   6.006  -0.081   5.426 -0.4506  0.2428  0.1068
  575MOL0     C77519   6.116   0.018   5.418  0.0996 -0.0328  0.2320
  575MOL0     O77520   6.189   0.054   5.530 -0.4161 -0.0629 -0.1620
  575MOL0     C77521   6.314   0.113   5.535 -0.4083 -1.0157 -0.8905
  575MOL0     C77522   6.405   0.109   5.431 -0.1923 -0.1448 -0.2315
  575MOL0     C77523   6.537   0.153   5.436  0.2969 -0.2893  0.0740
  575MOL0     C77524   6.574   0.213   5.562 -0.3954  0.9572  0.2963
  575MOL0     O77525   6.704   0.251   5.572  0.3319 -0.3432 -0.1900
  575MOL0     C77526   6.749   0.338   5.674  0.4101 -0.0923  0.0186
  575MOL0     C77527   6.896   0.375   5.653  1.0093 -0.4188 -0.3302
  575MOL0     C77528   6.989   0.260   5.629  0.4139  0.1327 -1.5088
  575MOL0     C77529   7.095   0.240   5.747 -0.5364  0.2164 -0.4443
  575MOL0     C77530   7.045   0.134   5.850  0.0361  0.6309 -0.2608
  575MOL0     C77531   7.147   0.103   5.952 -0.6092 -0.2094 -0.2131
  575MOL0     C77532   7.085  -0.014   6.043 -1.2011 -0.2509  0.3830
  575MOL0     C77533   7.137  -0.017   6.191  0.5604 -0.5809 -0.9217
  575MOL0    Cl77534   7.007  -0.032   6.312  0.0341 -0.2176 -0.6080
  575MOL0     C77535   6.480   0.220   5.661 -0.2862 -0.1519 -0.9935
  575MOL0     C77536   6.354   0.184   5.651  0.4578  0.6799  0.1523
  575MOL0     O77537   6.145   0.054   5.297 -1.1312  0.2561 -0.0250
  575MOL0     C77538   6.001  -0.171   5.320  0.1764 -0.3503 -0.6974
  575MOL0     C77539   5.901  -0.260   5.321 -0.3496 -0.4236 -0.8827
  575MOL0     N77540   5.187   0.041   5.342  0.0531 -0.3197 -0.4412
  575MOL0     N77541   5.139   0.110   5.447 -0.8157  0.4759  0.4049
  575MOL0     C77542   5.782   0.308   6.528 -0.2378 -0.7853  0.5282
  575MOL0     C77543   5.887   0.349   6.611 -0.3235 -0.3370  0.7488
  575MOL0     C77544   6.181   0.520   6.884 -0.0504 -0.4507  0.4931
  575MOL0     C77545   6.181   0.662   6.878 -1.1674 -0.2746 -0.5626
  575MOL0     C77546   6.273   0.735   6.958  0.5718 -0.1155 -0.1152
  575MOL0     C77547   6.362   0.665   7.045  0.3676  1.2357  0.1659
  575MOL0     O77548   6.451   0.735   7.119 -0.1551 -0.4594 -0.1046
  575MOL0     C77549   6.565   0.681   7.185  0.3010  0.1016 -0.0237
  575MOL0     C77550   6.519   0.665   7.333 -0.0764 -0.0632 -0.0976
  575MOL0     C77551   6.629   0.607   7.421 -0.4112  0.0344 -0.1845
  575MOL0     C77552   6.608   0.458   7.471 -0.7807  0.8037 -0.9657
  575MOL0     C77553   6.605   0.357   7.368 -0.6909 -0.1498  0.6868
  575MOL0     C77554   6.617   0.267   7.284 -0.4332 -0.0084 -0.5445
  575MOL0     C77555   6.356   0.525   7.056  0.4016  0.4135  0.6677
  575MOL0     C77556   6.264   0.455   6.982  0.1489 -0.0907 -0.5170
  575MOL0     C77557   6.269   0.299   7.001  0.0152  0.1578  0.2167
  575MOL0     H77558   5.801   0.666   6.673 -4.0681  1.2269  0.0087
  575MOL0     H77559   5.627   0.615   6.518 -2.1509 -1.5741  0.3822
  575MOL0     H77560   5.404   0.392   6.301 -0.2677  3.0202 -0.4346
  575MOL0     H77561   5.455   0.502   6.422  0.7106 -0.5487  1.1896
  575MOL0     H77562   5.640   0.567   6.276  0.2083 -2.8025  2.3767
  575MOL0     H77563   5.483   0.612   6.215  2.4341  1.2733 -2.6233
  575MOL0     H77564   5.572   0.340   6.121  0.3501  0.6799 -1.2319
  575MOL0     H77565   5.628   0.477   6.036 -1.8355 -0.0751 -1.9398
  575MOL0     H77566   5.344   0.400   6.102  0.6335  1.0638  2.3294
  575MOL0     H77567   5.390   0.548   6.013  1.7368 -0.0862 -0.9312
  575MOL0     H77568   5.516   0.410   5.839 -1.8821  1.7900 -0.3698
  575MOL0     H77569   5.471   0.257   5.915 -2.4181 -1.2814 -0.2139
  575MOL0     H77570   5.224   0.321   5.876 -0.0734  0.3230 -0.7834
  575MOL0     H77571   5.292   0.459   5.787 -2.8821  0.0142  0.6804
  575MOL0     H77572   5.414   0.218   5.676  0.3532  0.3462 -2.9477
  575MOL0     H77573   5.317   0.326   5.592 -2.5420  0.9985 -0.6155
  575MOL0     H77574   5.235   0.081   5.753 -2.6133 -0.2727  0.2054
  575MOL0     H77575   5.120   0.189   5.689  0.8273  0.5059 -0.5636
  575MOL0     H77576   5.416  -0.020   5.581 -0.8210  0.4896  0.1444
  575MOL0     H77577   5.321  -0.146   5.223 -2.2003  1.2529  3.0591
  575MOL0     H77578   5.437  -0.012   5.213  0.4032  1.8281  1.2403
  575MOL0     H77579   5.576  -0.126   5.399  0.7714 -1.2576  0.0401
  575MOL0     H77580   5.463  -0.262   5.400  0.9088  1.4371  2.0868
  575MOL0     H77581   5.669  -0.201   5.180 -1.2451  0.4935  0.2729
  575MOL0     H77582   5.534  -0.279   5.138  0.6772  0.3685 -0.8785
  575MOL0     H77583   5.711  -0.455   5.218  1.9622  1.1248  1.2024
  575MOL0     H77584   5.554  -0.451   5.309 -1.7799  1.6154 -0.5979
  575MOL0     H77585   5.732  -0.182   5.601 -1.8802  2.4608 -0.8411
  575MOL0     H77586   5.894  -0.004   5.604  0.4856  1.8951 -1.7002
  575MOL0     H77587   6.379   0.045   5.347  0.9702  4.2879 -4.4401
  575MOL0     H77588   6.606   0.135   5.354 -1.7958  0.7729 -2.0622
  575MOL0     H77589   6.700   0.436   5.666 -0.3033 -0.2914  1.4773
  575MOL0     H77590   6.739   0.298   5.776  1.0246  1.7332  0.8495
  575MOL0     H77591   6.883   0.432   5.561 -2.6420  1.3787  1.1021
  575MOL0     H77592   6.933   0.445   5.729  0.7340 -1.9336  1.2594
  575MOL0     H77593   6.937   0.169   5.600 -1.2570  0.6877 -0.3736
  575MOL0     H77594   7.051   0.287   5.543  1.6371  0.3377 -0.5947
  575MOL0     H77595   7.116   0.340   5.786  1.0475 -0.5151  0.7101
  575MOL0     H77596   7.182   0.206   5.689 -1.0500 -3.6511  0.7722
  575MOL0     H77597   7.026   0.036   5.804 -2.7749 -0.3360  2.6262
  575MOL0     H77598   6.953   0.162   5.902 -0.3832 -1.4734  0.2294
  575MOL0     H77599   7.250   0.090   5.917 -0.0388 -0.4319  1.4823
  575MOL0     H77600   7.151   0.192   6.015  3.7353  0.8365 -1.5751
  575MOL0     H77601   7.117  -0.108   5.998  0.0953  0.2582  0.2073
  575MOL0     H77602   6.976  -0.011   6.035 -1.1095  2.8828 -0.8923
  575MOL0     H77603   7.203  -0.103   6.206 -2.4230 -2.9740 -0.5066
  575MOL0     H77604   7.191   0.079   6.189 -1.3766  0.5723 -0.6299
  575MOL0     H77605   6.518   0.248   5.759  1.6954  1.1975 -2.0693
  575MOL0     H77606   6.280   0.207   5.727  0.7903  2.3245  0.0072
  575MOL0     H77607   6.081  -0.188   5.248  0.4338 -0.9181 -0.2889
  575MOL0     H77608   5.879  -0.319   5.233 -4.1065  1.6755 -1.6144
  575MOL0     H77609   5.787   0.207   6.489  1.6190 -1.5761  2.5868
  575MOL0     H77610   5.947   0.263   6.638  1.9879 -0.0857 -2.9652
  575MOL0     H77611   6.109   0.718   6.819 -2.0043 -0.7587 -0.0350
  575MOL0     H77612   6.279   0.843   6.961 -1.6933  0.0528 -0.4555
  575MOL0     H77613   6.646   0.754   7.177 -1.5260  2.2581  0.3062
  575MOL0     H77614   6.593   0.584   7.142  0.0011  0.4393 -1.0008
  575MOL0     H77615   6.431   0.600   7.338 -1.1958  1.2968 -1.2239
  575MOL0     H77616   6.491   0.762   7.374 -0.1474  0.4505 -1.3313
  575MOL0     H77617   6.643   0.661   7.515 -0.5149  3.7686 -2.1092
  575MOL0     H77618   6.725   0.609   7.368 -1.2648  0.4794 -1.7635
  575MOL0     H77619   6.689   0.429   7.539 -1.8932 -1.6951 -0.6169
  575MOL0     H77620   6.513   0.462   7.525 -0.6158  2.6359 -0.7280
  575MOL0     H77621   6.629   0.194   7.206 -2.6685 -0.8754 -0.1432
  575MOL0     H77622   6.418   0.473   7.129  1.5807  1.0815  0.1778
  575MOL0     H77623   6.171   0.253   6.983 -0.6748  2.2643 -2.0444
  575MOL0     H77624   6.351   0.270   6.935 -0.2011 -0.7631  0.3407
  575MOL0     H77625   6.293   0.275   7.105 -0.4496  2.0858  0.8008
  576MOL0     O77626   2.405   8.817   4.052  0.2425 -0.5885  0.0446
  576MOL0     C77627   2.451   8.908   3.983 -0.3520 -0.1548 -0.0369
  576MOL0     O77628   2.580   8.955   3.997 -0.0110  0.6477 -0.1302
  576MOL0     C77629   2.648   8.891   4.094 -0.2529 -1.0202  0.3442
  576MOL0     C77630   2.689   8.954   4.204 -1.1116 -0.3342 -0.6844
  576MOL0     C77631   2.758   8.897   4.304 -0.2683  0.1495  0.7922
  576MOL0     C77632   2.806   8.773   4.291 -0.3635 -0.0090  0.3270
  576MOL0     O77633   2.893   8.729   4.390  0.6684 -0.7449  0.7279
  576MOL0     C77634   2.889   8.589   4.402  0.5882  0.3161  0.0205
  576MOL0     C77635   3.009   8.552   4.494 -0.0653  0.0911  0.7863
  576MOL0     C77636   3.137   8.612   4.428 -0.5141 -0.3978  0.5585
  576MOL0     C77637   3.255   8.609   4.519  0.1743  0.3343 -0.4622
  576MOL0     C77638   3.374   8.676   4.452 -0.7160  0.0474  0.6365
  576MOL0     C77639   3.505   8.662   4.530 -0.0575  0.0216 -0.8080
  576MOL0     C77640   3.620   8.754   4.469  0.7233  0.2878 -0.4604
  576MOL0     C77641   3.743   8.769   4.572 -0.4592 -0.4852 -0.0905
  576MOL0     N77642   3.839   8.659   4.596  0.2186 -0.2627 -0.3057
  576MOL0     C77643   3.903   8.589   4.502  0.3130  0.1098  0.3349
  576MOL0     C77644   3.982   8.503   4.571  0.7342  0.3208 -0.0135
  576MOL0     C77645   4.072   8.410   4.502  0.3313  0.4069 -0.4715
  576MOL0     C77646   4.211   8.395   4.577  0.1893  0.0406 -0.0854
  576MOL0     C77647   4.318   8.302   4.513  0.2361  0.0724  0.1418
  576MOL0     C77648   4.446   8.330   4.570  0.1037 -0.3998 -0.2778
  576MOL0     O77649   4.554   8.253   4.522 -0.4699 -0.2005  0.7122
  576MOL0     C77650   4.561   8.117   4.508 -0.8182 -0.3814 -0.7187
  576MOL0     C77651   4.489   8.023   4.587  0.4123  0.0192  0.5299
  576MOL0     C77652   4.499   7.889   4.552  0.7080 -0.5485 -0.2277
  576MOL0     C77653   4.592   7.834   4.463  0.9705 -0.9254 -0.8392
  576MOL0     C77654   4.594   7.681   4.452 -0.0445 -0.2519 -0.9867
  576MOL0     O77655   4.547   7.610   4.554  0.2625  0.9820  0.9160
  576MOL0     C77656   4.545   7.469   4.555 -0.7700 -1.0016  0.2178
  576MOL0     C77657   4.446   7.401   4.618  1.1788 -1.1715  0.6534
  576MOL0     C77658   4.459   7.261   4.644 -0.0948 -1.0009  0.3064
  576MOL0     C77659   4.580   7.194   4.611  0.4180  0.2814  0.5919
  576MOL0     O77660   4.581   7.060   4.631  0.3568 -0.0381 -0.3142
  576MOL0     C77661   4.594   6.984   4.504 -0.8000 -0.3663  0.5079
  576MOL0     C77662   4.530   6.843   4.515  0.0157 -0.8004 -0.1122
  576MOL0     C77663   4.562   6.767   4.394 -0.4322  0.3385 -0.3582
  576MOL0     C77664   4.500   6.628   4.398 -0.2209 -0.5614  0.0515
  576MOL0     C77665   4.545   6.547   4.276 -0.3643 -0.7296 -1.1005
  576MOL0     C77666   4.505   6.399   4.276 -1.0041  0.9711  0.4766
  576MOL0     C77667   4.590   6.317   4.379  0.3584 -0.6631  0.7825
  576MOL0     C77668   4.563   6.168   4.351 -0.9523  0.0364  0.4580
  576MOL0    Cl77669   4.648   6.049   4.441 -0.3539  0.4329  0.3478
  576MOL0     C77670   4.672   7.259   4.537 -0.0072 -0.0933  0.2742
  576MOL0     C77671   4.664   7.398   4.523  0.2987 -0.2961 -1.2876
  576MOL0     O77672   4.632   7.639   4.343 -0.0910  0.1012  0.0448
  576MOL0     C77673   4.669   7.922   4.384 -0.1776  0.0726 -0.8355
  576MOL0     C77674   4.659   8.061   4.417  0.2740 -0.2485 -0.6920
  576MOL0     N77675   3.983   8.537   4.707  0.0974  0.3387  0.2636
  576MOL0     N77676   3.897   8.639   4.720 -0.5204  0.6939  0.2840
  576MOL0     C77677   2.771   8.710   4.170  0.3765  0.3506  0.4152
  576MOL0     C77678   2.689   8.763   4.079 -0.3206 -0.0234  0.6263
  576MOL0     C77679   2.359   8.953   3.875 -0.2464 -0.2322  0.3689
  576MOL0     C77680   2.266   8.860   3.812 -0.1471 -0.5140 -0.6326
  576MOL0     C77681   2.185   8.894   3.707 -0.3441  0.1536  0.5128
  576MOL0     C77682   2.180   9.024   3.655  0.2127 -0.9373  1.1394
  576MOL0     O77683   2.114   9.070   3.534 -0.1575  0.1854  0.0025
  576MOL0     C77684   2.067   8.981   3.432  0.0359  0.5864 -0.0596
  576MOL0     C77685   1.914   8.983   3.439  0.8077 -0.2029 -0.2229
  576MOL0     C77686   1.851   8.854   3.390 -0.4716 -0.0283 -1.2933
  576MOL0     C77687   1.702   8.846   3.430 -0.3576 -1.4028 -0.1507
  576MOL0     C77688   1.653   8.712   3.389 -0.9610 -0.1662  1.3076
  576MOL0     C77689   1.612   8.608   3.339  1.0328  1.7977  0.0770
  576MOL0     C77690   2.266   9.120   3.722  0.7268 -0.7118 -0.4524
  576MOL0     C77691   2.356   9.085   3.824 -0.5647  0.2593 -0.0207
  576MOL0     C77692   2.444   9.198   3.866  0.6449 -0.3905 -0.4272
  576MOL0     H77693   2.664   9.059   4.213  0.1356 -0.1086  0.5588
  576MOL0     H77694   2.797   8.965   4.379  2.6886 -0.4222 -0.1089
  576MOL0     H77695   2.790   8.566   4.442 -0.8552  1.5582 -2.5725
  576MOL0     H77696   2.890   8.522   4.316 -0.3609 -1.2360  1.1645
  576MOL0     H77697   3.013   8.444   4.511 -1.1638  0.2257  2.1260
  576MOL0     H77698   2.990   8.596   4.592 -3.9605  0.4048  0.0637
  576MOL0     H77699   3.129   8.716   4.396 -0.4165 -0.4023  0.5178
  576MOL0     H77700   3.157   8.555   4.336  0.8983  0.0042  0.5819
  576MOL0     H77701   3.227   8.662   4.610 -2.1848  0.0714 -0.9783
  576MOL0     H77702   3.276   8.502   4.527 -0.0405  0.3436  0.2614
  576MOL0     H77703   3.391   8.633   4.353 -3.1652 -0.3162  0.3178
  576MOL0     H77704   3.344   8.780   4.437 -0.2968  0.2522  1.1780
  576MOL0     H77705   3.497   8.696   4.634  0.2931  0.5565 -0.9566
  576MOL0     H77706   3.543   8.559   4.528 -1.8147 -0.7814  1.5505
  576MOL0     H77707   3.591   8.859   4.458  1.8091  0.4878 -1.6510
  576MOL0     H77708   3.652   8.713   4.373 -3.2643 -0.2649 -1.7364
  576MOL0     H77709   3.801   8.850   4.527  0.0655 -1.5042 -1.3301
  576MOL0     H77710   3.705   8.814   4.663 -1.2673 -0.5732 -0.3753
  576MOL0     H77711   3.885   8.577   4.395  1.2282  3.8232 -0.3864
  576MOL0     H77712   4.024   8.312   4.501  2.0599 -0.4867 -0.9294
  576MOL0     H77713   4.086   8.448   4.400 -3.3296  1.8675 -0.5741
  576MOL0     H77714   4.249   8.496   4.595 -0.1353  0.4745 -1.6577
  576MOL0     H77715   4.214   8.346   4.674  2.5113  1.4385  0.6331
  576MOL0     H77716   4.326   8.311   4.404  3.1569  0.4715  0.3136
  576MOL0     H77717   4.297   8.196   4.531 -1.0356  0.4947  1.2490
  576MOL0     H77718   4.425   8.313   4.676 -3.6028 -4.4869 -1.3591
  576MOL0     H77719   4.469   8.434   4.547  0.7881 -0.5281 -0.1778
  576MOL0     H77720   4.418   8.062   4.659  1.5263  1.5150  0.8557
  576MOL0     H77721   4.425   7.830   4.605  0.4751  1.3628  1.6730
  576MOL0     H77722   4.360   7.450   4.664  1.4550  2.2602 -2.0510
  576MOL0     H77723   4.378   7.204   4.690 -0.4867 -0.6222  0.0987
  576MOL0     H77724   4.550   7.036   4.419  0.1898  0.0124  0.2179
  576MOL0     H77725   4.701   6.967   4.491 -1.0083 -0.4003 -1.4836
  576MOL0     H77726   4.559   6.799   4.610 -1.0613  3.6775  2.6212
  576MOL0     H77727   4.421   6.856   4.513  0.1349  0.5874  0.8737
  576MOL0     H77728   4.538   6.828   4.307  0.0397  0.4926 -0.3837
  576MOL0     H77729   4.670   6.755   4.387 -0.0739 -1.3398  4.3210
  576MOL0     H77730   4.391   6.628   4.403 -0.4781 -1.1584 -3.2849
  576MOL0     H77731   4.540   6.590   4.492 -0.4426  0.1516  0.4423
  576MOL0     H77732   4.654   6.548   4.272 -0.2350  1.4477  0.8449
  576MOL0     H77733   4.511   6.596   4.184  2.2532 -1.4677 -2.5893
  576MOL0     H77734   4.399   6.383   4.297 -2.0042  3.0791 -2.3681
  576MOL0     H77735   4.522   6.366   4.174  0.7443  1.6917  0.4866
  576MOL0     H77736   4.554   6.342   4.480  1.2512 -0.5271  1.0758
  576MOL0     H77737   4.696   6.342   4.377  0.5858 -1.5776  0.9329
  576MOL0     H77738   4.460   6.148   4.383 -1.2408 -1.3395 -1.1988
  576MOL0     H77739   4.562   6.134   4.247 -2.3713  0.1281  0.4201
  576MOL0     H77740   4.754   7.212   4.484  1.0312  0.1144  1.6756
  576MOL0     H77741   4.743   7.451   4.470  0.2603 -0.3448 -1.3950
  576MOL0     H77742   4.735   7.887   4.306  3.1212 -1.4125  2.3081
  576MOL0     H77743   4.726   8.116   4.351  1.2754 -1.0041 -0.3290
  576MOL0     H77744   2.806   8.610   4.147 -0.7039 -0.2779  1.4148
  576MOL0     H77745   2.654   8.708   3.992  1.0346  0.7546 -0.4599
  576MOL0     H77746   2.275   8.759   3.850  0.0246  0.4465  2.1730
  576MOL0     H77747   2.135   8.817   3.649 -0.5756 -0.2966  1.3008
  576MOL0     H77748   2.115   8.883   3.421 -0.7737  0.3709 -2.4216
  576MOL0     H77749   2.096   9.025   3.336  4.7096  1.7342  1.6031
  576MOL0     H77750   1.875   9.069   3.383 -2.3323  0.4866  2.6732
  576MOL0     H77751   1.890   9.006   3.543  1.5282 -0.2191 -0.0510
  576MOL0     H77752   1.909   8.773   3.436  0.6617  2.0952  1.2896
  576MOL0     H77753   1.854   8.837   3.282 -0.1223 -0.1781 -1.2608
  576MOL0     H77754   1.666   8.861   3.533  1.5967  0.8510  0.2817
  576MOL0     H77755   1.657   8.926   3.370  0.6344  0.3844  1.3649
  576MOL0     H77756   1.563   8.518   3.307 -1.4044  2.4551  1.6171
  576MOL0     H77757   2.260   9.225   3.695  1.0453 -0.3698  0.7611
  576MOL0     H77758   2.402   9.299   3.857 -1.9532 -1.0279  2.6636
  576MOL0     H77759   2.467   9.193   3.973  2.9346 -2.0938 -0.9217
  576MOL0     H77760   2.535   9.196   3.805 -0.3374  1.3251 -2.0466
  577MOL0     O77761   6.896   9.489   4.169  0.6535 -1.2997  0.0360
  577MOL0     C77762   6.810   9.551   4.229 -0.1216 -0.5932 -0.1018
  577MOL0     O77763   6.812   9.690   4.266  0.1136  1.1321 -1.1212
  577MOL0     C77764   6.923   9.770   4.242 -0.1429 -0.0959 -0.4535
  577MOL0     C77765   7.049   9.728   4.278  0.5012  0.7046 -0.5714
  577MOL0     C77766   7.161   9.808   4.232 -0.1301  0.9389 -0.6309
  577MOL0     C77767   7.139   9.932   4.164  0.7687  0.0278 -0.4329
  577MOL0     O77768   7.235  10.027   4.136  0.5464 -0.0351 -0.3857
  577MOL0     C77769   7.327  10.053   4.245 -0.0121  0.5117  0.7222
  577MOL0     C77770   7.413  10.165   4.206 -0.1966  0.4748 -0.5678
  577MOL0     C77771   7.521  10.225   4.307 -0.3798  0.5372  0.0297
  577MOL0     C77772   7.648  10.148   4.326 -0.2455  0.5787  0.2823
  577MOL0     C77773   7.761  10.221   4.401 -0.6055 -0.2152 -0.4570
  577MOL0     C77774   7.837  10.315   4.317  0.4378 -0.0495  0.5533
  577MOL0     C77775   7.939  10.398   4.398 -0.3982  0.5762  0.5165
  577MOL0     C77776   7.851  10.499   4.491 -0.2433 -0.3605 -0.7930
  577MOL0     N77777   7.768  10.607   4.431  1.0095 -0.4051  0.1701
  577MOL0     C77778   7.825  10.731   4.400 -0.0407  0.7096  0.2462
  577MOL0     C77779   7.726  10.815   4.373  0.7196 -0.9265  0.3242
  577MOL0     C77780   7.735  10.966   4.332  0.7618  0.3067 -0.2721
  577MOL0     C77781   7.714  11.046   4.460  0.4436 -0.3520  0.1525
  577MOL0     C77782   7.565  11.056   4.504 -0.2765  0.0072 -0.1877
  577MOL0     C77783   7.551  11.128   4.636 -0.6284 -0.5077 -0.2043
  577MOL0     O77784   7.626  11.058   4.738 -0.4051 -0.2246 -0.0925
  577MOL0     C77785   7.574  10.949   4.798 -0.1618 -0.2148 -1.0257
  577MOL0     C77786   7.663  10.838   4.817  0.5780  0.2732  0.7028
  577MOL0     C77787   7.617  10.717   4.872  0.0320  0.1764  0.9610
  577MOL0     C77788   7.483  10.702   4.901  0.4926 -0.5972  0.2822
  577MOL0     C77789   7.425  10.570   4.942  0.9763 -1.0193 -1.0550
  577MOL0     O77790   7.288  10.554   4.937  0.3541  0.9227  0.0080
  577MOL0     C77791   7.235  10.438   4.888  1.0895 -0.2403 -0.1827
  577MOL0     C77792   7.296  10.356   4.796 -0.0325 -0.1923 -0.3278
  577MOL0     C77793   7.238  10.244   4.742  0.1046  0.4407 -0.0329
  577MOL0     C77794   7.104  10.231   4.754  0.6016 -0.1146 -0.2122
  577MOL0     O77795   7.036  10.121   4.713 -0.2214  0.1695  0.2036
  577MOL0     C77796   7.110  10.009   4.644 -0.3671 -0.1596  0.7439
  577MOL0     C77797   7.001   9.919   4.574  0.1939  0.1020  0.2466
  577MOL0     C77798   6.917   9.830   4.664  0.1758  0.4879 -0.2087
  577MOL0     C77799   7.004   9.718   4.729 -0.5433 -0.6446 -0.0297
  577MOL0     C77800   6.947   9.575   4.693  0.1110 -0.6275 -0.2548
  577MOL0     C77801   6.801   9.541   4.730  0.3766 -0.4384 -0.4876
  577MOL0     C77802   6.755   9.403   4.674 -0.9235 -0.7291  0.9457
  577MOL0     C77803   6.609   9.382   4.721  0.6843  0.2458  0.3474
  577MOL0    Cl77804   6.548   9.238   4.622  0.1003  0.4048  0.1265
  577MOL0     C77805   7.035  10.317   4.839 -0.0905 -0.3950  0.1949
  577MOL0     C77806   7.101  10.416   4.908  0.0769  0.9988  0.8278
  577MOL0     O77807   7.498  10.484   4.982  0.3176  0.7530 -1.6769
  577MOL0     C77808   7.396  10.814   4.888  0.0745 -0.4644  0.6349
  577MOL0     C77809   7.437  10.935   4.833 -0.4127 -0.2657 -0.2324
  577MOL0     N77810   7.612  10.748   4.396 -0.2634  0.8946 -0.6473
  577MOL0     N77811   7.634  10.624   4.431  0.7086  0.2496  0.2605
  577MOL0     C77812   7.007   9.967   4.130  0.0486  0.3911 -0.8825
  577MOL0     C77813   6.903   9.896   4.180  0.4141  0.5211 -0.4980
  577MOL0     C77814   6.693   9.471   4.261  0.3097 -0.5579  0.5292
  577MOL0     C77815   6.596   9.527   4.349 -0.1259  0.5633 -0.5975
  577MOL0     C77816   6.480   9.461   4.384 -2.1814 -0.2786  0.7608
  577MOL0     C77817   6.449   9.332   4.330  0.1905  0.6422 -0.4241
  577MOL0     O77818   6.333   9.262   4.348  0.1770  0.0362  0.1745
  577MOL0     C77819   6.237   9.313   4.450 -0.1403  0.3092 -0.2495
  577MOL0     C77820   6.155   9.199   4.496 -0.5332  0.8922  1.1020
  577MOL0     C77821   6.033   9.235   4.599 -0.0692  1.1149 -0.0614
  577MOL0     C77822   5.924   9.329   4.559 -0.7962 -0.4611  0.3000
  577MOL0     C77823   5.854   9.273   4.443 -0.9113  0.5341  0.5332
  577MOL0     C77824   5.802   9.218   4.347  0.8747 -0.3772  0.4298
  577MOL0     C77825   6.542   9.273   4.249  0.0100 -0.4871  0.6973
  577MOL0     C77826   6.666   9.339   4.205 -0.1132  0.4085 -0.0232
  577MOL0     C77827   6.756   9.259   4.106 -0.6920 -0.1283  0.1454
  577MOL0     H77828   7.058   9.638   4.338 -0.5705  2.2285  2.0067
  577MOL0     H77829   7.261   9.776   4.259  0.4937  2.2676 -1.2166
  577MOL0     H77830   7.280  10.062   4.343 -2.0911 -1.0915 -0.0583
  577MOL0     H77831   7.390   9.964   4.254 -1.7695 -0.8115  0.3148
  577MOL0     H77832   7.338  10.241   4.183 -0.4187  0.7874  1.1322
  577MOL0     H77833   7.464  10.138   4.112 -0.5885  1.4946 -1.0952
  577MOL0     H77834   7.478  10.234   4.406 -3.3579  3.3384 -1.3365
  577MOL0     H77835   7.550  10.328   4.282  4.4370 -0.4274  0.6958
  577MOL0     H77836   7.636  10.051   4.375 -0.7951  0.2233 -0.5422
  577MOL0     H77837   7.696  10.122   4.231 -1.1276  0.6848 -0.2023
  577MOL0     H77838   7.705  10.251   4.490  1.8550  2.4332  0.3447
  577MOL0     H77839   7.824  10.135   4.425 -2.2869 -0.4776  3.9131
  577MOL0     H77840   7.889  10.261   4.238 -0.8204 -0.8278  0.2264
  577MOL0     H77841   7.765  10.387   4.276  1.2484  0.5639  0.1686
  577MOL0     H77842   8.010  10.453   4.335  0.0643 -2.3240 -1.7009
  577MOL0     H77843   7.993  10.329   4.464 -1.0746 -0.0299  0.4438
  577MOL0     H77844   7.791  10.437   4.558  0.8116 -1.4510 -0.8303
  577MOL0     H77845   7.924  10.541   4.560 -0.7423 -1.7815  0.6607
  577MOL0     H77846   7.929  10.760   4.393 -1.0906  4.9013 -1.3279
  577MOL0     H77847   7.834  10.986   4.289  0.1768 -0.3748 -1.9843
  577MOL0     H77848   7.663  10.990   4.254 -0.4828  1.5920  1.2046
  577MOL0     H77849   7.775  11.018   4.546 -0.1049 -0.6068  0.4615
  577MOL0     H77850   7.748  11.147   4.435 -0.4032 -0.2631 -0.6792
  577MOL0     H77851   7.518  10.958   4.517 -2.4939  0.8101 -1.4478
  577MOL0     H77852   7.511  11.106   4.422 -3.0701 -1.4158  0.6357
  577MOL0     H77853   7.446  11.132   4.664 -1.1792  0.8029 -2.2458
  577MOL0     H77854   7.587  11.231   4.634 -0.2284 -0.6489 -0.6411
  577MOL0     H77855   7.767  10.856   4.791 -0.0482  1.1045 -1.4096
  577MOL0     H77856   7.677  10.627   4.876  1.5181  0.6412 -3.9630
  577MOL0     H77857   7.401  10.378   4.777 -0.0839  1.9313  1.4066
  577MOL0     H77858   7.299  10.182   4.678  1.0668  1.5483 -0.2336
  577MOL0     H77859   7.181  10.044   4.568 -0.5187 -1.5356 -0.0605
  577MOL0     H77860   7.169   9.954   4.718  1.6555 -0.2909 -0.8790
  577MOL0     H77861   6.947   9.986   4.506  1.0148  2.1096  1.4889
  577MOL0     H77862   7.046   9.842   4.510 -1.9286 -1.2721  0.3160
  577MOL0     H77863   6.857   9.881   4.739  1.3196  0.7973  0.5259
  577MOL0     H77864   6.851   9.784   4.590 -1.6188 -2.4674  2.9931
  577MOL0     H77865   7.001   9.731   4.837 -0.1907 -2.3026  0.1990
  577MOL0     H77866   7.106   9.729   4.690 -1.5024 -1.4582 -3.1207
  577MOL0     H77867   7.013   9.496   4.729 -0.2369 -0.2335  1.3174
  577MOL0     H77868   6.943   9.562   4.584  0.8262 -1.4841 -0.1859
  577MOL0     H77869   6.786   9.535   4.838 -0.8520 -1.4105 -0.6904
  577MOL0     H77870   6.731   9.622   4.713  0.6376 -0.5344 -2.2374
  577MOL0     H77871   6.832   9.330   4.702 -1.8553 -2.8540 -1.5980
  577MOL0     H77872   6.756   9.400   4.565  2.0332 -1.2598  0.9124
  577MOL0     H77873   6.609   9.364   4.829  0.9502 -3.0153 -0.0705
  577MOL0     H77874   6.563   9.471   4.679 -1.3332 -2.0060 -2.6192
  577MOL0     H77875   6.928  10.312   4.857  0.2547  0.6397  2.9841
  577MOL0     H77876   7.052  10.483   4.978 -2.5326 -0.3510  0.4071
  577MOL0     H77877   7.289  10.807   4.906 -0.4075  2.1851 -0.6700
  577MOL0     H77878   7.361  11.009   4.811 -3.2474 -2.3387  1.9592
  577MOL0     H77879   6.989  10.050   4.063  3.1761  1.9487  0.0239
  577MOL0     H77880   6.800   9.917   4.153  0.0810  0.4918  0.6925
  577MOL0     H77881   6.608   9.623   4.397 -0.2917  0.2243  0.1371
  577MOL0     H77882   6.410   9.507   4.454 -1.5546  2.8473 -0.5031
  577MOL0     H77883   6.181   9.394   4.402  0.4271  1.4440  0.9497
  577MOL0     H77884   6.288   9.353   4.538  2.3483 -2.5359 -0.2481
  577MOL0     H77885   6.214   9.123   4.549 -2.9623 -0.7547  1.6244
  577MOL0     H77886   6.105   9.159   4.407 -3.8683  1.5622  2.5306
  577MOL0     H77887   6.087   9.283   4.682  0.8307  2.3402 -1.2978
  577MOL0     H77888   5.988   9.146   4.643  0.5322  2.1998  3.0390
  577MOL0     H77889   5.855   9.357   4.640 -2.0978  3.9633 -2.0463
  577MOL0     H77890   5.979   9.420   4.535 -0.5080  0.3466  3.5366
  577MOL0     H77891   5.762   9.170   4.260 -0.8162  2.9387 -0.7659
  577MOL0     H77892   6.513   9.180   4.202 -3.6874  1.4762 -1.4345
  577MOL0     H77893   6.725   9.154   4.111 -0.2604 -0.2013  3.4798
  577MOL0     H77894   6.742   9.305   4.008  2.4608  1.4281  0.3054
  577MOL0     H77895   6.865   9.260   4.117 -0.5915  3.1914 -0.0658
  578MOL0     O77896   9.570   3.927   0.702  0.6872 -0.4717  0.2334
  578MOL0     C77897   9.626   4.029   0.745  0.2752 -0.5922 -0.0960
  578MOL0     O77898   9.556   4.148   0.773 -0.2055 -0.9314 -0.4168
  578MOL0     C77899   9.423   4.178   0.732 -0.0783  0.2798  0.6382
  578MOL0     C77900   9.342   4.251   0.819 -0.5927  0.6155  0.1893
  578MOL0     C77901   9.215   4.285   0.771 -0.2839 -0.0024  0.1752
  578MOL0     C77902   9.158   4.228   0.659  0.6661  0.8896  0.6898
  578MOL0     O77903   9.024   4.248   0.625  0.3641  0.0127  0.1075
  578MOL0     C77904   8.953   4.163   0.516  0.2182 -0.3480  0.0542
  578MOL0     C77905   8.800   4.174   0.545 -0.1819  0.3035  0.0038
  578MOL0     C77906   8.733   4.282   0.453 -0.0765 -0.4113  0.0912
  578MOL0     C77907   8.580   4.281   0.464  0.0583  0.3028 -0.8219
  578MOL0     C77908   8.519   4.421   0.417 -0.2145 -0.2332 -0.4798
  578MOL0     C77909   8.373   4.413   0.370 -0.2998 -0.1297  0.6387
  578MOL0     C77910   8.309   4.551   0.347 -0.4746 -0.2881 -0.5137
  578MOL0     C77911   8.380   4.631   0.237 -0.0457 -0.3933 -0.0658
  578MOL0     N77912   8.313   4.745   0.185 -0.0615  0.1604  0.6236
  578MOL0     C77913   8.196   4.717   0.114  0.0427 -0.3226 -0.0489
  578MOL0     C77914   8.167   4.841   0.062  0.5231  0.4854 -0.0859
  578MOL0     C77915   8.029   4.877  -0.001 -0.6883  0.0055  0.9232
  578MOL0     C77916   7.898   4.846   0.084 -0.1510 -0.5155 -0.3994
  578MOL0     C77917   7.772   4.883   0.019  0.2006  0.6282  0.2139
  578MOL0     C77918   7.746   4.788  -0.108  0.6330  0.9403 -0.1988
  578MOL0     O77919   7.611   4.801  -0.152  0.5598 -0.3787 -0.5089
  578MOL0     C77920   7.568   4.927  -0.202  0.3455  0.8702  0.3497
  578MOL0     C77921   7.431   4.951  -0.186 -0.0709 -0.1448  0.2992
  578MOL0     C77922   7.368   5.062  -0.239  0.0584  0.8981 -0.2775
  578MOL0     C77923   7.448   5.175  -0.276  0.6805 -0.2178  0.1182
  578MOL0     C77924   7.387   5.311  -0.291  0.4496  0.7741 -0.6457
  578MOL0     O77925   7.258   5.315  -0.341 -0.3116 -0.2834 -0.5249
  578MOL0     C77926   7.206   5.445  -0.342 -0.4248  0.4954  0.4142
  578MOL0     C77927   7.121   5.474  -0.450 -0.1102 -0.2238  0.2189
  578MOL0     C77928   7.042   5.593  -0.462 -1.1049 -0.0111  0.8699
  578MOL0     C77929   7.051   5.691  -0.357  0.2497 -0.7237  1.1961
  578MOL0     O77930   6.977   5.807  -0.344 -0.1499  0.4322 -0.6909
  578MOL0     C77931   6.934   5.879  -0.462 -1.0523  0.6288  0.2058
  578MOL0     C77932   6.901   6.016  -0.407 -0.8639 -0.1025 -0.2441
  578MOL0     C77933   6.896   6.115  -0.519  0.4182  1.0676  0.5562
  578MOL0     C77934   6.934   6.253  -0.462  0.2621  0.1571  0.3514
  578MOL0     C77935   6.855   6.303  -0.343 -0.2024 -0.4454 -0.1117
  578MOL0     C77936   6.917   6.439  -0.313  0.2002  0.0467 -0.4765
  578MOL0     C77937   6.882   6.506  -0.175  0.3808  0.1540 -0.3753
  578MOL0     C77938   6.910   6.648  -0.187  0.4611 -0.9219 -0.3519
  578MOL0    Cl77939   6.893   6.723  -0.034  0.1312 -0.0457 -0.5044
  578MOL0     C77940   7.140   5.666  -0.251 -0.0924 -0.1320 -1.0245
  578MOL0     C77941   7.204   5.537  -0.236  0.3665  0.7141  0.4151
  578MOL0     O77942   7.468   5.402  -0.273 -0.1087 -0.1034 -0.2236
  578MOL0     C77943   7.593   5.161  -0.265  0.8621  0.1772 -1.0842
  578MOL0     C77944   7.645   5.032  -0.241  0.3894 -0.0294  0.2238
  578MOL0     N77945   8.262   4.932   0.101  0.4114  0.6681  0.3041
  578MOL0     N77946   8.354   4.871   0.169 -0.7878 -0.7245 -0.2772
  578MOL0     C77947   9.242   4.160   0.570 -0.5922 -0.9407  0.7829
  578MOL0     C77948   9.383   4.142   0.600  0.3421 -1.1820 -1.1017
  578MOL0     C77949   9.766   4.023   0.787  0.6175 -1.1282  0.5477
  578MOL0     C77950   9.840   4.143   0.802  0.4200 -0.0818 -0.5524
  578MOL0     C77951   9.974   4.135   0.846  0.3821 -0.2889 -0.0298
  578MOL0     C77952  10.021   4.008   0.886  0.3864  0.2228 -0.9017
  578MOL0     O77953  10.131   3.994   0.959 -0.5566 -0.1122  0.3518
  578MOL0     C77954  10.253   3.986   0.882  0.6569  0.9936  0.5751
  578MOL0     C77955  10.341   4.083   0.953  0.3790  0.6688  0.9045
  578MOL0     C77956  10.394   4.031   1.084  0.9078  0.1874 -0.3628
  578MOL0     C77957  10.504   4.119   1.151 -0.5074  0.1283 -0.3149
  578MOL0     C77958  10.602   4.036   1.231  1.0266 -0.7165  0.8440
  578MOL0     C77959  10.667   3.963   1.301 -0.2388 -0.0930 -0.7758
  578MOL0     C77960   9.946   3.896   0.863 -0.6697 -0.0310  0.3450
  578MOL0     C77961   9.817   3.896   0.819 -0.7626  0.5931  0.1432
  578MOL0     C77962   9.743   3.760   0.816  0.6891  0.1981  0.9917
  578MOL0     H77963   9.358   4.268   0.925 -2.9853 -2.8738  1.2658
  578MOL0     H77964   9.152   4.349   0.832 -2.4408 -1.2876 -0.6011
  578MOL0     H77965   8.984   4.190   0.415 -2.6298  1.4765 -0.4441
  578MOL0     H77966   8.982   4.059   0.535 -1.3905 -1.1270 -1.5365
  578MOL0     H77967   8.788   4.197   0.651  0.1995 -2.0526  0.6057
  578MOL0     H77968   8.760   4.074   0.523 -1.8671  1.6548 -4.1049
  578MOL0     H77969   8.753   4.254   0.349  1.8343  0.4698  0.1818
  578MOL0     H77970   8.769   4.381   0.483  0.5952 -0.2917 -1.0611
  578MOL0     H77971   8.542   4.198   0.404 -1.7346 -0.1129  0.8010
  578MOL0     H77972   8.557   4.258   0.569 -2.4108  2.1310 -0.8676
  578MOL0     H77973   8.530   4.491   0.500  1.1334 -2.6369  1.5037
  578MOL0     H77974   8.575   4.444   0.325  1.7260  1.2650  0.9990
  578MOL0     H77975   8.365   4.348   0.283 -0.1397 -0.6811  1.0316
  578MOL0     H77976   8.309   4.373   0.449 -1.7000 -0.5672 -0.6679
  578MOL0     H77977   8.318   4.609   0.439  3.4719  1.3792 -1.7037
  578MOL0     H77978   8.203   4.534   0.328 -0.5695  0.9993 -1.2869
  578MOL0     H77979   8.470   4.670   0.287  0.6583  0.5097 -1.9638
  578MOL0     H77980   8.399   4.576   0.145 -4.3285  0.7093 -1.8348
  578MOL0     H77981   8.135   4.627   0.115  0.7730 -0.8289 -0.1479
  578MOL0     H77982   8.038   4.986  -0.006  0.5908 -0.1373 -1.5415
  578MOL0     H77983   8.029   4.847  -0.106  3.2305  1.5186  0.3090
  578MOL0     H77984   7.895   4.742   0.116  0.9826  0.2173  2.2920
  578MOL0     H77985   7.910   4.900   0.178 -3.0636  0.6284 -0.5728
  578MOL0     H77986   7.775   4.982  -0.027  4.3954  0.1317 -0.9031
  578MOL0     H77987   7.697   4.894   0.098  1.3005  5.4968  0.8898
  578MOL0     H77988   7.764   4.681  -0.090  2.5462  0.2717 -4.6196
  578MOL0     H77989   7.812   4.811  -0.193 -1.2664  0.8303 -1.7684
  578MOL0     H77990   7.371   4.870  -0.144 -2.4142 -0.2099 -2.7572
  578MOL0     H77991   7.260   5.069  -0.243 -0.0224 -0.5611 -1.5333
  578MOL0     H77992   7.120   5.400  -0.528 -0.8740  0.5936 -0.5718
  578MOL0     H77993   6.983   5.617  -0.550  0.8781 -2.6585 -1.3427
  578MOL0     H77994   7.012   5.882  -0.538  0.9120  0.2889  2.0917
  578MOL0     H77995   6.844   5.843  -0.513 -0.2233 -0.6559 -0.3882
  578MOL0     H77996   6.807   6.008  -0.351 -0.4723  2.0904  0.8496
  578MOL0     H77997   6.973   6.049  -0.332 -0.2913  1.2763 -1.3741
  578MOL0     H77998   6.952   6.084  -0.608 -3.1391 -0.3571 -1.4150
  578MOL0     H77999   6.796   6.120  -0.563 -0.4110  0.5570  2.3126
  578MOL0     H78000   6.935   6.318  -0.549 -1.6646 -0.2145  0.0133
  578MOL0     H78001   7.041   6.255  -0.437 -0.5472  0.5598  4.5480
  578MOL0     H78002   6.852   6.236  -0.257 -2.4551 -0.8743 -0.4663
  578MOL0     H78003   6.749   6.303  -0.371 -0.8707  1.2704  2.1613
  578MOL0     H78004   7.026   6.429  -0.307  0.1708  0.3244  1.0412
  578MOL0     H78005   6.891   6.505  -0.395  0.0798 -1.4293 -1.6641
  578MOL0     H78006   6.939   6.462  -0.093 -1.5590  2.2978  2.3053
  578MOL0     H78007   6.782   6.482  -0.138  0.7271  0.0982  0.5625
  578MOL0     H78008   7.010   6.665  -0.228  0.7104 -0.3438  0.4849
  578MOL0     H78009   6.841   6.688  -0.262 -0.3313 -0.5345  0.5759
  578MOL0     H78010   7.143   5.727  -0.161 -1.2076 -4.9666  2.7411
  578MOL0     H78011   7.270   5.529  -0.151 -0.1993  2.2992  1.0325
  578MOL0     H78012   7.665   5.238  -0.292 -1.4883  1.7275 -3.4440
  578MOL0     H78013   7.752   5.026  -0.260  0.0137  3.2947 -4.9371
  578MOL0     H78014   9.193   4.117   0.484  0.8719  0.7790 -1.0081
  578MOL0     H78015   9.453   4.079   0.546  2.6392 -1.7279  2.1892
  578MOL0     H78016   9.789   4.236   0.781 -0.4665 -0.6313 -0.9288
  578MOL0     H78017  10.050   4.213   0.848  3.1559 -2.7992  1.7382
  578MOL0     H78018  10.233   4.004   0.775  0.2585  2.9847  0.9498
  578MOL0     H78019  10.304   3.890   0.888 -1.2937 -0.0252  2.0136
  578MOL0     H78020  10.288   4.177   0.974  0.1698  0.5425  0.9516
  578MOL0     H78021  10.432   4.108   0.898  0.1249  1.3175  0.7683
  578MOL0     H78022  10.426   3.929   1.063  0.9538 -1.3721  5.5141
  578MOL0     H78023  10.313   4.040   1.157 -2.0030  0.9870 -3.4746
  578MOL0     H78024  10.557   4.177   1.075  0.8495 -0.4827  0.1500
  578MOL0     H78025  10.462   4.196   1.217  0.3571 -0.7055  1.2651
  578MOL0     H78026  10.724   3.894   1.361  2.3589  3.1510  0.8407
  578MOL0     H78027   9.993   3.800   0.879  1.1260  1.0855  2.1612
  578MOL0     H78028   9.640   3.768   0.854  0.2423  0.8733 -0.2709
  578MOL0     H78029   9.741   3.735   0.709  0.8131  1.3101  0.7142
  578MOL0     H78030   9.784   3.681   0.878 -0.3694  0.3064  1.8667
  579MOL0     O78031   6.296   3.541   3.472 -0.4799  0.4030  0.3403
  579MOL0     C78032   6.348   3.590   3.373  0.2281 -0.4159 -0.4180
  579MOL0     O78033   6.393   3.519   3.266  0.1851  0.6084  0.7397
  579MOL0     C78034   6.381   3.382   3.279  0.4341  0.2251  0.5582
  579MOL0     C78035   6.312   3.319   3.179 -0.0001 -0.0979  0.8668
  579MOL0     C78036   6.319   3.183   3.166  0.1689  0.8374 -0.3270
  579MOL0     C78037   6.386   3.110   3.267 -0.4126  0.4598 -0.6403
  579MOL0     O78038   6.379   2.973   3.264 -0.5069 -0.1913  0.0906
  579MOL0     C78039   6.459   2.893   3.358 -0.2705 -0.1687  0.0512
  579MOL0     C78040   6.467   2.746   3.307 -0.1994  0.1043 -0.9207
  579MOL0     C78041   6.552   2.659   3.401  0.6468 -0.3969  0.2906
  579MOL0     C78042   6.469   2.582   3.494  0.2888  0.4230  0.2953
  579MOL0     C78043   6.562   2.488   3.581  0.9552 -0.4239  0.5042
  579MOL0     C78044   6.629   2.367   3.523  0.0233 -0.2526  0.1292
  579MOL0     C78045   6.536   2.245   3.491  0.6230 -0.9507  0.0737
  579MOL0     C78046   6.441   2.199   3.602 -0.6738 -0.2164 -0.2725
  579MOL0     N78047   6.314   2.278   3.616  0.1720  0.2242 -0.4963
  579MOL0     C78048   6.213   2.284   3.529  0.5448 -0.2529  0.1601
  579MOL0     C78049   6.129   2.373   3.592  0.1894  1.0922  0.0345
  579MOL0     C78050   6.010   2.446   3.542 -0.2259 -0.1196  0.0353
  579MOL0     C78051   5.930   2.537   3.635 -0.2867  0.1976  0.4750
  579MOL0     C78052   5.804   2.606   3.590  0.1158  0.1682 -0.7125
  579MOL0     C78053   5.694   2.527   3.536 -0.7005 -0.0569  0.1510
  579MOL0     O78054   5.567   2.592   3.512  0.1408 -0.0977  0.6171
  579MOL0     C78055   5.460   2.515   3.516 -0.6929 -0.5710 -0.1105
  579MOL0     C78056   5.354   2.575   3.590 -0.7473  0.0542  0.5355
  579MOL0     C78057   5.245   2.490   3.630  0.1708 -1.0354 -1.1567
  579MOL0     C78058   5.233   2.355   3.594  0.1830  0.4657 -0.5751
  579MOL0     C78059   5.121   2.270   3.639  0.6947 -0.6731  0.1648
  579MOL0     O78060   5.027   2.328   3.718 -0.2906 -0.1893 -0.1906
  579MOL0     C78061   4.920   2.242   3.748 -0.7179 -0.3322  0.3866
  579MOL0     C78062   4.915   2.157   3.858 -0.0794 -0.2825  0.2350
  579MOL0     C78063   4.814   2.059   3.871  0.6821 -0.2622 -0.5168
  579MOL0     C78064   4.710   2.055   3.781  0.0301 -0.3968  0.3325
  579MOL0     O78065   4.604   1.966   3.797 -0.1138 -0.1048  0.3549
  579MOL0     C78066   4.612   1.843   3.724 -1.1406 -1.2076  0.0195
  579MOL0     C78067   4.636   1.862   3.570 -0.1978  0.3910  0.0452
  579MOL0     C78068   4.618   1.726   3.502 -0.5209  0.5579  0.6488
  579MOL0     C78069   4.569   1.730   3.357  0.7351 -0.4642  0.4855
  579MOL0     C78070   4.621   1.608   3.278 -0.0335 -0.1674 -0.4774
  579MOL0     C78071   4.520   1.545   3.180  0.8517 -0.0180  0.3505
  579MOL0     C78072   4.437   1.445   3.264 -0.6761 -0.3167  0.2849
  579MOL0     C78073   4.475   1.302   3.223 -0.2222 -0.6629 -0.1244
  579MOL0    Cl78074   4.641   1.267   3.281 -0.1163 -0.1542 -0.0012
  579MOL0     C78075   4.700   2.154   3.680  0.5999  0.8664 -0.7116
  579MOL0     C78076   4.806   2.240   3.659  0.7169  0.4307 -0.4150
  579MOL0     O78077   5.122   2.157   3.598  0.7228 -0.4568 -0.4597
  579MOL0     C78078   5.354   2.304   3.531  0.0713  0.4925 -0.0449
  579MOL0     C78079   5.453   2.384   3.479  0.2286 -0.3323 -0.1634
  579MOL0     N78080   6.169   2.397   3.724 -0.8441  0.0763 -1.0843
  579MOL0     N78081   6.286   2.341   3.736  0.1058 -1.1078  0.1530
  579MOL0     C78082   6.461   3.176   3.369 -0.2875  0.7635 -0.6043
  579MOL0     C78083   6.458   3.316   3.368 -0.4107  0.3419 -0.0989
  579MOL0     C78084   6.349   3.743   3.376  0.5841  0.0847  0.2306
  579MOL0     C78085   6.266   3.805   3.463 -0.9740 -0.0554  0.0886
  579MOL0     C78086   6.265   3.945   3.485 -0.1644  0.6046 -0.0504
  579MOL0     C78087   6.325   4.038   3.403  0.7887  1.4504  0.8185
  579MOL0     O78088   6.317   4.166   3.434 -0.8670 -0.8660 -0.0692
  579MOL0     C78089   6.403   4.267   3.373  0.0886 -0.2162 -0.1535
  579MOL0     C78090   6.376   4.408   3.437 -0.7768  0.8198  0.2700
  579MOL0     C78091   6.418   4.428   3.585  0.4520 -1.0657 -0.4296
  579MOL0     C78092   6.313   4.395   3.684  0.6572 -0.6102 -0.0480
  579MOL0     C78093   6.192   4.484   3.671 -0.2214  0.4404  0.8559
  579MOL0     C78094   6.084   4.532   3.683  0.6957 -0.6759 -0.0518
  579MOL0     C78095   6.399   3.976   3.302  0.1860  0.3704 -0.0341
  579MOL0     C78096   6.421   3.831   3.296 -0.2111  0.0844 -0.8350
  579MOL0     C78097   6.538   3.786   3.209  0.6542  0.7056  0.9879
  579MOL0     H78098   6.253   3.368   3.102 -0.1049  1.1646  1.7159
  579MOL0     H78099   6.264   3.153   3.077 -0.6486  1.4278 -0.0298
  579MOL0     H78100   6.565   2.921   3.362  0.3733 -2.4350  3.3285
  579MOL0     H78101   6.420   2.901   3.460  1.0870  0.1875  0.5730
  579MOL0     H78102   6.502   2.743   3.203  3.5869 -2.0663  0.2287
  579MOL0     H78103   6.362   2.715   3.306  0.3781 -2.1100  0.3538
  579MOL0     H78104   6.619   2.730   3.450 -0.7900  0.3378  1.2556
  579MOL0     H78105   6.618   2.591   3.345  0.6981  0.8018 -1.1798
  579MOL0     H78106   6.419   2.652   3.561 -2.1037 -1.6321  0.7791
  579MOL0     H78107   6.397   2.526   3.434 -0.2491  1.0424  0.3530
  579MOL0     H78108   6.644   2.548   3.622  2.2691  0.2791 -2.8261
  579MOL0     H78109   6.507   2.447   3.666  0.7368 -0.1706  0.4860
  579MOL0     H78110   6.687   2.402   3.437 -1.4167  1.0949 -0.3332
  579MOL0     H78111   6.696   2.330   3.601 -0.1673  0.1685  0.4884
  579MOL0     H78112   6.597   2.156   3.471 -2.4481 -3.0750 -0.5189
  579MOL0     H78113   6.487   2.270   3.396  1.7535  1.7988  0.1319
  579MOL0     H78114   6.405   2.100   3.575 -0.3253 -1.3217  2.9375
  579MOL0     H78115   6.492   2.200   3.699 -0.6670 -1.3254 -0.2608
  579MOL0     H78116   6.217   2.246   3.427  2.9896  0.3633 -0.0316
  579MOL0     H78117   6.047   2.520   3.470 -0.4287 -1.8077 -1.8907
  579MOL0     H78118   5.946   2.374   3.490 -0.3752  2.6697 -4.1111
  579MOL0     H78119   5.905   2.473   3.720 -0.7416  1.2859  1.1835
  579MOL0     H78120   6.000   2.610   3.677  3.8530 -3.9589  1.6755
  579MOL0     H78121   5.825   2.678   3.510 -0.0546 -1.3005 -2.1307
  579MOL0     H78122   5.753   2.655   3.673  0.6443 -1.0173  0.3566
  579MOL0     H78123   5.683   2.439   3.599 -0.9938  1.0690  1.7481
  579MOL0     H78124   5.731   2.484   3.443 -0.0448  1.0706 -0.1282
  579MOL0     H78125   5.373   2.680   3.610 -0.5823 -0.5527  4.2418
  579MOL0     H78126   5.165   2.532   3.690  2.4482  1.0123  0.6470
  579MOL0     H78127   5.004   2.176   3.918 -1.0421  1.5845  1.1562
  579MOL0     H78128   4.823   1.997   3.959  0.2887  3.3480  2.3277
  579MOL0     H78129   4.697   1.793   3.771  0.3390 -0.6532 -1.9132
  579MOL0     H78130   4.528   1.775   3.735 -2.7059  0.4884 -0.9781
  579MOL0     H78131   4.551   1.922   3.535  1.0713  1.9938 -0.3735
  579MOL0     H78132   4.729   1.905   3.532  0.9177 -1.8340  0.0770
  579MOL0     H78133   4.715   1.675   3.508  0.8828  1.6255 -5.7440
  579MOL0     H78134   4.548   1.664   3.560 -2.0600  2.7156  1.2044
  579MOL0     H78135   4.590   1.826   3.309  0.2830 -1.3169 -1.5129
  579MOL0     H78136   4.460   1.732   3.358  0.5940  1.8382 -2.7110
  579MOL0     H78137   4.662   1.531   3.344 -0.8687 -2.1759 -2.1705
  579MOL0     H78138   4.713   1.638   3.227  0.5668  2.6030  1.9429
  579MOL0     H78139   4.455   1.622   3.137 -0.1753 -0.7148  0.6209
  579MOL0     H78140   4.577   1.499   3.099 -0.0037 -1.2035  0.3909
  579MOL0     H78141   4.331   1.462   3.240  0.5585  3.7220 -3.7884
  579MOL0     H78142   4.457   1.467   3.369  2.6758 -1.8504  0.0950
  579MOL0     H78143   4.414   1.228   3.275  0.1371 -0.0795  1.1634
  579MOL0     H78144   4.467   1.275   3.117 -2.5547 -0.6886 -0.0041
  579MOL0     H78145   4.611   2.130   3.622  0.3515 -4.0546  1.1934
  579MOL0     H78146   4.786   2.310   3.578 -1.2427 -0.4098 -0.7277
  579MOL0     H78147   5.365   2.196   3.527 -0.1170  0.4562  0.3795
  579MOL0     H78148   5.529   2.335   3.418 -1.2783 -0.5502 -1.9444
  579MOL0     H78149   6.503   3.127   3.455 -2.4533 -0.9310 -0.4183
  579MOL0     H78150   6.516   3.380   3.434 -2.9874  1.0376  1.6731
  579MOL0     H78151   6.196   3.743   3.518 -0.3596 -1.7945 -1.0350
  579MOL0     H78152   6.206   3.985   3.567  1.9230  0.0602  1.8229
  579MOL0     H78153   6.397   4.279   3.264 -0.4406  0.7895 -0.0275
  579MOL0     H78154   6.507   4.236   3.383  1.5091  3.2800 -2.1501
  579MOL0     H78155   6.275   4.446   3.421 -0.8627  0.2114 -0.7369
  579MOL0     H78156   6.438   4.480   3.382  0.2880 -0.3742 -0.1341
  579MOL0     H78157   6.438   4.535   3.597  1.4984 -1.2674 -0.1844
  579MOL0     H78158   6.514   4.376   3.599  0.2711 -1.4078 -0.4552
  579MOL0     H78159   6.278   4.293   3.666 -0.1703  0.0651 -2.6188
  579MOL0     H78160   6.355   4.393   3.785 -3.3334 -0.2130  1.7953
  579MOL0     H78161   5.986   4.573   3.674  0.4558 -0.9050  1.3247
  579MOL0     H78162   6.459   4.037   3.235  0.1357 -0.0884 -0.5025
  579MOL0     H78163   6.589   3.878   3.179 -1.8949  2.2971  1.2210
  579MOL0     H78164   6.593   3.729   3.284 -0.7619 -0.2590  1.3276
  579MOL0     H78165   6.510   3.727   3.121  1.1577  2.5587 -0.5004
  580MOL0     O78166   4.963  10.329   7.080  0.7089 -0.2358  0.0857
  580MOL0     C78167   4.982  10.434   7.140  0.4994  1.1476  0.0399
  580MOL0     O78168   4.880  10.494   7.205 -0.1364  0.3863 -0.1203
  580MOL0     C78169   4.790  10.414   7.261 -0.0982 -0.2871  0.1299
  580MOL0     C78170   4.794  10.395   7.397  0.6255  0.0142  0.1110
  580MOL0     C78171   4.710  10.319   7.472  0.1052 -0.3092  0.7639
  580MOL0     C78172   4.600  10.263   7.416  0.3688  0.7937 -0.1085
  580MOL0     O78173   4.529  10.181   7.506 -0.3089  0.5060  0.7183
  580MOL0     C78174   4.398  10.142   7.463 -0.1314 -0.0991 -0.5696
  580MOL0     C78175   4.324  10.082   7.581 -0.9077 -0.5599 -0.3643
  580MOL0     C78176   4.311  10.186   7.695 -0.1095  0.0812 -0.6287
  580MOL0     C78177   4.240  10.135   7.820 -0.1678 -0.1153  0.0176
  580MOL0     C78178   4.100  10.074   7.805 -0.0688 -0.3152  0.2200
  580MOL0     C78179   4.019  10.179   7.725  1.6915 -0.0921  0.1626
  580MOL0     C78180   3.868  10.147   7.731 -0.0474  0.0908 -0.3256
  580MOL0     C78181   3.816  10.040   7.631  0.1635  0.0575 -0.0586
  580MOL0     N78182   3.828  10.090   7.493 -0.2124  0.8032 -0.3204
  580MOL0     C78183   3.763  10.195   7.438  0.7914 -0.1225  0.3650
  580MOL0     C78184   3.791  10.198   7.304  0.1805  0.6529  0.0062
  580MOL0     C78185   3.741  10.298   7.207  0.0700  0.8535  0.8368
  580MOL0     C78186   3.824  10.428   7.201 -0.0929 -0.3597 -0.8138
  580MOL0     C78187   3.866  10.475   7.345 -0.2186  0.1447  0.7349
  580MOL0     C78188   3.940  10.607   7.343  0.4346  0.2469  0.1785
  580MOL0     O78189   3.955  10.683   7.461  0.0416  0.5752 -0.2548
  580MOL0     C78190   4.062  10.653   7.545 -0.8950  0.4129  0.9848
  580MOL0     C78191   4.058  10.705   7.670  0.0701  0.1276 -0.7050
  580MOL0     C78192   4.149  10.685   7.768  1.5147  0.8132 -0.0628
  580MOL0     C78193   4.253  10.587   7.744 -0.1900 -1.1980  0.1497
  580MOL0     C78194   4.366  10.570   7.832 -0.3563  0.1152 -0.0281
  580MOL0     O78195   4.467  10.496   7.793  0.3584  0.3695 -0.4853
  580MOL0     C78196   4.601  10.517   7.842  0.1454  1.0519  0.1930
  580MOL0     C78197   4.652  10.642   7.892 -0.7861  0.4289  0.0223
  580MOL0     C78198   4.789  10.645   7.946 -0.0755  0.2793  0.2987
  580MOL0     C78199   4.867  10.531   7.948  0.4530  0.8424 -0.5385
  580MOL0     O78200   4.979  10.528   8.028 -0.0104 -0.1439  0.6316
  580MOL0     C78201   5.089  10.441   7.981  0.3506 -0.2933 -0.5972
  580MOL0     C78202   5.225  10.471   8.052  0.6563 -0.0206 -0.6190
  580MOL0     C78203   5.287  10.596   7.987  0.4544  0.3406  0.3222
  580MOL0     C78204   5.412  10.650   8.060  0.2949 -0.3673 -0.2400
  580MOL0     C78205   5.439  10.806   8.024 -0.0939  0.1867 -0.9581
  580MOL0     C78206   5.581  10.852   8.073  0.4159 -0.5891  0.2876
  580MOL0     C78207   5.699  10.779   8.021 -0.4225 -1.0616 -0.3197
  580MOL0     C78208   5.804  10.884   7.997 -0.5050  0.3470 -0.1452
  580MOL0    Cl78209   5.814  10.983   8.151 -0.3852  0.3448  0.2105
  580MOL0     C78210   4.819  10.416   7.881  0.5876 -0.0788 -0.1105
  580MOL0     C78211   4.681  10.408   7.846 -0.6375  1.1866  0.2294
  580MOL0     O78212   4.364  10.622   7.948 -0.2870  0.7924 -0.5947
  580MOL0     C78213   4.257  10.522   7.616 -0.4370  0.1269 -0.3535
  580MOL0     C78214   4.174  10.563   7.519  0.1358  0.4087 -0.0837
  580MOL0     N78215   3.869  10.090   7.279  0.2858 -0.6547 -0.0683
  580MOL0     N78216   3.893  10.023   7.394 -0.6943  0.2882 -0.2017
  580MOL0     C78217   4.572  10.295   7.281 -0.9043 -0.2836  0.5739
  580MOL0     C78218   4.673  10.360   7.199  0.1960  0.1080 -0.2800
  580MOL0     C78219   5.110  10.509   7.131 -0.0481 -0.4593 -0.2425
  580MOL0     C78220   5.137  10.600   7.231  1.1986  0.2989 -0.0978
  580MOL0     C78221   5.250  10.664   7.239 -0.7426  0.3646  0.5368
  580MOL0     C78222   5.355  10.648   7.145 -0.7171  1.0511  0.0014
  580MOL0     O78223   5.467  10.729   7.178 -0.4595  0.2054  1.0109
  580MOL0     C78224   5.583  10.722   7.096 -0.5507 -0.6484  0.2333
  580MOL0     C78225   5.691  10.824   7.139  0.5634  0.9160 -0.0132
  580MOL0     C78226   5.637  10.967   7.113  0.3935  0.0711 -0.0726
  580MOL0     C78227   5.752  11.073   7.107  0.0031  0.3391  0.0691
  580MOL0     C78228   5.799  11.115   7.238 -0.0237  0.2789 -0.1433
  580MOL0     C78229   5.837  11.157   7.348  0.1539  0.3194 -0.6029
  580MOL0     C78230   5.332  10.555   7.040  0.3288 -0.4877  0.4406
  580MOL0     C78231   5.210  10.486   7.028  1.2341 -0.3315 -0.0263
  580MOL0     C78232   5.190  10.384   6.916  0.4727 -0.2394  0.5129
  580MOL0     H78233   4.884  10.423   7.452  1.4978  3.0100 -2.5643
  580MOL0     H78234   4.731  10.300   7.577  1.5054  0.4310  0.6341
  580MOL0     H78235   4.334  10.216   7.414 -0.9305 -1.4308 -1.6525
  580MOL0     H78236   4.419  10.064   7.388 -0.2198  1.0365 -1.8222
  580MOL0     H78237   4.378   9.994   7.617 -2.4954 -0.5786  2.2384
  580MOL0     H78238   4.227  10.045   7.546 -0.7824 -1.0643 -0.1839
  580MOL0     H78239   4.262  10.278   7.661 -0.1252  0.9231  1.5116
  580MOL0     H78240   4.405  10.210   7.745 -1.4794  2.3680  1.0446
  580MOL0     H78241   4.304  10.062   7.870  0.6247  2.9579  4.0127
  580MOL0     H78242   4.222  10.211   7.896  0.3550 -0.2255  0.2585
  580MOL0     H78243   4.097   9.971   7.768 -1.1918 -0.9686  2.0328
  580MOL0     H78244   4.060  10.066   7.907  0.4034 -3.1066  0.2631
  580MOL0     H78245   4.037  10.280   7.763  3.1265  0.9749 -2.9877
  580MOL0     H78246   4.057  10.200   7.625  2.0814  1.1855  0.5591
  580MOL0     H78247   3.815  10.242   7.716  1.2449  0.7914 -0.6407
  580MOL0     H78248   3.844  10.101   7.827  1.6751  0.1545  0.1714
  580MOL0     H78249   3.878   9.951   7.643  0.9208  0.4262 -1.0770
  580MOL0     H78250   3.711  10.021   7.656 -0.0461 -0.0458 -0.9850
  580MOL0     H78251   3.702  10.266   7.493 -0.9278 -1.0252 -0.3079
  580MOL0     H78252   3.728  10.256   7.107  0.2924  0.2608  1.0535
  580MOL0     H78253   3.641  10.331   7.237 -3.3182 -2.7430 -4.6638
  580MOL0     H78254   3.916  10.416   7.143  0.1100  0.3861 -0.6495
  580MOL0     H78255   3.753  10.498   7.155  1.1439  1.8989  0.5504
  580MOL0     H78256   3.926  10.401   7.399 -3.0838 -2.4046  0.6808
  580MOL0     H78257   3.776  10.485   7.406 -0.3620 -3.4634  1.3246
  580MOL0     H78258   3.895  10.682   7.276  2.5589  1.0878 -0.3965
  580MOL0     H78259   4.028  10.591   7.281  0.8509  2.2256  0.1947
  580MOL0     H78260   3.981  10.779   7.694 -0.5227 -1.3143  2.3138
  580MOL0     H78261   4.130  10.734   7.863 -0.6785 -3.2543  1.8427
  580MOL0     H78262   4.601  10.738   7.884  1.7265  2.0528  1.7485
  580MOL0     H78263   4.823  10.734   7.998  0.0786 -0.0542  0.7714
  580MOL0     H78264   5.058  10.343   8.016 -0.1295  0.4837  1.2621
  580MOL0     H78265   5.094  10.438   7.872 -1.6083  1.9610 -0.8226
  580MOL0     H78266   5.209  10.484   8.159  0.3643 -0.3149 -0.6236
  580MOL0     H78267   5.292  10.388   8.030 -1.0213 -1.5038 -0.3830
  580MOL0     H78268   5.294  10.593   7.877 -2.9156 -0.5282  0.0091
  580MOL0     H78269   5.208  10.671   7.994  0.1648  0.0746 -0.0193
  580MOL0     H78270   5.489  10.573   8.045 -0.3396 -1.5047  1.9746
  580MOL0     H78271   5.401  10.649   8.169  0.3265  3.9264 -0.0543
  580MOL0     H78272   5.368  10.870   8.078  3.6239  0.2633  4.6971
  580MOL0     H78273   5.431  10.817   7.916  3.4730  0.0523 -1.3438
  580MOL0     H78274   5.589  10.960   8.055 -2.3571 -0.0437  1.7221
  580MOL0     H78275   5.579  10.852   8.183  2.0334 -0.5588  0.3312
  580MOL0     H78276   5.675  10.728   7.927  0.8180 -1.6092 -0.3588
  580MOL0     H78277   5.744  10.702   8.085 -0.3587 -0.0995  0.8194
  580MOL0     H78278   5.896  10.834   7.967 -0.4685  0.5254 -0.3320
  580MOL0     H78279   5.770  10.951   7.917  0.9147 -0.5600 -1.5615
  580MOL0     H78280   4.863  10.318   7.868  0.6088 -0.0185 -0.5165
  580MOL0     H78281   4.641  10.322   7.795  1.7357 -0.1513  0.4969
  580MOL0     H78282   4.333  10.451   7.586 -0.2327 -0.4533  1.4602
  580MOL0     H78283   4.165  10.504   7.428  0.2149  0.2299  0.0234
  580MOL0     H78284   4.478  10.259   7.239 -0.0784 -1.5680 -0.2406
  580MOL0     H78285   4.667  10.379   7.092  0.0344  0.9207 -0.1334
  580MOL0     H78286   5.070  10.632   7.310  0.7237 -0.0892 -0.3345
  580MOL0     H78287   5.274  10.741   7.311 -1.2273  1.1712 -0.1498
  580MOL0     H78288   5.551  10.750   6.995  0.8151 -1.8648 -0.5914
  580MOL0     H78289   5.613  10.617   7.091  2.7838  0.2232 -0.6992
  580MOL0     H78290   5.784  10.795   7.087 -0.0458 -2.7324  0.6478
  580MOL0     H78291   5.726  10.807   7.241  2.1820 -2.8794 -1.0070
  580MOL0     H78292   5.573  10.989   7.199 -0.4026 -4.6139  0.7709
  580MOL0     H78293   5.588  10.974   7.015 -0.5085  1.9268  0.4499
  580MOL0     H78294   5.836  11.039   7.045  1.1364  0.9000  1.2392
  580MOL0     H78295   5.716  11.158   7.048 -3.2115 -0.0900  1.2142
  580MOL0     H78296   5.853  11.197   7.446 -1.0323  2.4124 -1.2076
  580MOL0     H78297   5.417  10.545   6.974  0.8948 -1.3225  1.2699
  580MOL0     H78298   5.091  10.413   6.880  0.0481  1.8012  3.0158
  580MOL0     H78299   5.246  10.400   6.824 -0.8175  1.5068 -0.0292
  580MOL0     H78300   5.190  10.281   6.953  0.2032  0.4654  2.6061
  581MOL0     O78301  11.071   7.042   8.980  0.1408  0.5914  0.4419
  581MOL0     C78302  11.170   7.009   8.911  0.2222 -0.3357  0.3911
  581MOL0     O78303  11.240   6.892   8.913  0.0447  1.0950 -0.3392
  581MOL0     C78304  11.186   6.786   8.977 -0.3497 -1.2873  0.4938
  581MOL0     C78305  11.057   6.732   8.950  0.1907 -0.5565 -1.1472
  581MOL0     C78306  11.013   6.619   9.016  0.0662 -0.4244  0.4810
  581MOL0     C78307  11.083   6.560   9.126  0.2563 -0.7483  0.9700
  581MOL0     O78308  11.048   6.454   9.191 -0.4703 -0.4227 -0.5330
  581MOL0     C78309  10.909   6.419   9.200 -0.5936  0.4216  0.2189
  581MOL0     C78310  10.857   6.384   9.339 -0.9459 -0.3252  0.2969
  581MOL0     C78311  10.707   6.341   9.336  0.0088 -0.0139 -0.1879
  581MOL0     C78312  10.658   6.291   9.473  0.1630  0.1129 -0.2260
  581MOL0     C78313  10.510   6.257   9.471 -0.4747 -0.1125  0.6290
  581MOL0     C78314  10.465   6.188   9.598  0.2175 -0.3875  0.7914
  581MOL0     C78315  10.328   6.115   9.586  0.2327 -0.1000  0.3613
  581MOL0     C78316  10.207   6.213   9.591  0.2882  0.0125  0.1863
  581MOL0     N78317  10.158   6.267   9.460  0.4102 -0.1495  0.5188
  581MOL0     C78318  10.145   6.191   9.339  0.3085  0.3273 -0.3955
  581MOL0     C78319  10.080   6.280   9.259 -0.0042  0.1503  1.2220
  581MOL0     C78320  10.022   6.284   9.118 -0.1260  0.4740 -0.2513
  581MOL0     C78321   9.888   6.203   9.086 -0.7789  0.4408 -0.0647
  581MOL0     C78322   9.764   6.246   9.168 -0.9379  0.1423 -0.0286
  581MOL0     C78323   9.757   6.200   9.311 -0.3333  0.4065  0.8411
  581MOL0     O78324   9.634   6.259   9.358 -0.3317  0.3282  0.0652
  581MOL0     C78325   9.637   6.279   9.494 -0.9174 -0.6178 -0.6471
  581MOL0     C78326   9.712   6.387   9.551  0.9877  0.3842  0.0031
  581MOL0     C78327   9.685   6.416   9.686  0.0828  0.0231 -1.4594
  581MOL0     C78328   9.607   6.336   9.768 -0.1986  0.2871  0.2577
  581MOL0     C78329   9.571   6.352   9.919  0.2736  0.5339 -0.3531
  581MOL0     O78330   9.465   6.274   9.972 -0.1527 -0.3968 -0.3993
  581MOL0     C78331   9.429   6.313  10.102  0.0685  1.0581 -0.2618
  581MOL0     C78332   9.454   6.226  10.206 -0.1018  0.4334 -0.5389
  581MOL0     C78333   9.426   6.270  10.329 -0.0803  0.0120 -1.2066
  581MOL0     C78334   9.350   6.384  10.360 -0.4945 -0.0491  0.6749
  581MOL0     O78335   9.331   6.413  10.491  0.1050 -0.1686 -0.3198
  581MOL0     C78336   9.350   6.548  10.529  0.1124  0.2961  0.2316
  581MOL0     C78337   9.371   6.537  10.677  0.3814 -0.6814  0.1560
  581MOL0     C78338   9.405   6.668  10.739  0.4058 -0.2660 -0.3389
  581MOL0     C78339   9.533   6.726  10.691  0.5222  0.7846 -0.5538
  581MOL0     C78340   9.651   6.625  10.676 -0.6114  0.3388  0.2762
  581MOL0     C78341   9.790   6.692  10.670  0.3271 -0.4851 -0.4563
  581MOL0     C78342   9.908   6.598  10.699 -0.2430 -0.0380  0.0401
  581MOL0     C78343  10.033   6.669  10.648 -0.3980 -1.3587  0.3474
  581MOL0    Cl78344  10.062   6.811  10.749 -0.1617  0.1493 -0.4516
  581MOL0     C78345   9.339   6.475  10.255 -0.0405 -0.5717  0.6731
  581MOL0     C78346   9.361   6.433  10.125 -0.0904  0.0237  0.8313
  581MOL0     O78347   9.630   6.444   9.974 -0.6971 -0.2772 -0.0787
  581MOL0     C78348   9.535   6.229   9.710  0.0335  0.7252  0.0105
  581MOL0     C78349   9.559   6.200   9.577  0.1518 -0.5341  0.0858
  581MOL0     N78350  10.070   6.405   9.322  0.0016  0.3060  0.2330
  581MOL0     N78351  10.124   6.395   9.436  0.4339  0.2598 -0.0159
  581MOL0     C78352  11.210   6.612   9.144  0.5771  0.1644  0.5548
  581MOL0     C78353  11.258   6.717   9.070 -0.4205  0.1331  0.5125
  581MOL0     C78354  11.222   7.094   8.811 -0.1993 -0.4302  0.7289
  581MOL0     C78355  11.292   7.040   8.693  0.2963 -0.0432 -0.0080
  581MOL0     C78356  11.328   7.124   8.582 -0.5973 -0.2911 -0.2726
  581MOL0     C78357  11.291   7.261   8.589  0.4223  0.5622  0.0896
  581MOL0     O78358  11.330   7.332   8.484 -1.0067 -0.9593  0.3863
  581MOL0     C78359  11.289   7.472   8.478 -0.1731 -0.3584  0.1595
  581MOL0     C78360  11.323   7.534   8.334  0.1755 -0.4898  0.3428
  581MOL0     C78361  11.311   7.695   8.340 -0.1591  0.3475  0.1915
  581MOL0     C78362  11.159   7.747   8.317  0.0332 -1.0551  0.0753
  581MOL0     C78363  11.074   7.744   8.443 -0.4473  0.6700  0.6441
  581MOL0     C78364  11.018   7.732   8.547 -0.3026 -0.3348 -0.7762
  581MOL0     C78365  11.251   7.316   8.708  0.0876  0.2896 -0.9607
  581MOL0     C78366  11.214   7.240   8.819  0.3898  0.0825 -0.1627
  581MOL0     C78367  11.154   7.314   8.930  0.2414 -0.2245  0.2953
  581MOL0     H78368  10.990   6.766   8.872 -0.5851 -0.4524 -0.4492
  581MOL0     H78369  10.920   6.582   8.974  1.0404  1.4083 -3.9673
  581MOL0     H78370  10.843   6.499   9.164 -0.9243  0.8618  1.7098
  581MOL0     H78371  10.892   6.332   9.137 -1.6509  0.4119  0.4981
  581MOL0     H78372  10.876   6.465   9.409 -1.6485 -0.1135  0.2541
  581MOL0     H78373  10.913   6.302   9.386 -2.4808 -1.8306 -0.3761
  581MOL0     H78374  10.683   6.266   9.260  1.8170  1.2651 -2.1205
  581MOL0     H78375  10.650   6.433   9.318  0.3411  0.3897  0.7356
  581MOL0     H78376  10.716   6.206   9.510  0.3050 -1.2780 -3.3052
  581MOL0     H78377  10.670   6.365   9.552 -0.2084 -1.4972  1.3896
  581MOL0     H78378  10.457   6.352   9.459  1.6782  0.8330 -3.1291
  581MOL0     H78379  10.477   6.198   9.385 -1.2213 -1.2128  1.6376
  581MOL0     H78380  10.540   6.113   9.622  0.1870 -0.9394 -0.7716
  581MOL0     H78381  10.467   6.256   9.684 -0.6294 -1.0723  1.3645
  581MOL0     H78382  10.304   6.063   9.680  0.3715  0.1689  0.5481
  581MOL0     H78383  10.330   6.036   9.510 -0.6629 -0.6762  0.9105
  581MOL0     H78384  10.121   6.157   9.628  1.8006 -2.8281 -0.2904
  581MOL0     H78385  10.232   6.305   9.645 -1.0341  1.0280 -0.8528
  581MOL0     H78386  10.171   6.088   9.314 -0.5591  0.0010  0.0391
  581MOL0     H78387  10.010   6.388   9.086  1.4657 -0.3856 -4.2285
  581MOL0     H78388  10.099   6.253   9.047 -0.4621 -0.0172 -0.4010
  581MOL0     H78389   9.877   6.221   8.979 -1.3888  2.0337  0.2357
  581MOL0     H78390   9.908   6.097   9.103 -0.7450  0.6771  1.6337
  581MOL0     H78391   9.681   6.198   9.115  0.7735 -2.6493 -0.3703
  581MOL0     H78392   9.741   6.352   9.161 -0.5425  0.3921  1.8024
  581MOL0     H78393   9.836   6.250   9.368 -0.8911  2.5142 -0.1327
  581MOL0     H78394   9.750   6.091   9.319 -0.0725  0.3813  0.7550
  581MOL0     H78395   9.775   6.457   9.498  0.4717  0.3946 -0.6099
  581MOL0     H78396   9.728   6.509   9.722 -0.0874 -1.0463  1.7801
  581MOL0     H78397   9.501   6.129  10.199  0.2320  0.7169 -4.2565
  581MOL0     H78398   9.453   6.202  10.410 -2.4734 -0.8431 -1.0548
  581MOL0     H78399   9.439   6.591  10.482 -1.0399  1.8957 -0.6054
  581MOL0     H78400   9.262   6.609  10.503  0.0506  0.1159  0.0155
  581MOL0     H78401   9.292   6.480  10.727  0.2208 -1.7276 -1.2379
  581MOL0     H78402   9.451   6.466  10.698  1.3663  1.0855  2.9267
  581MOL0     H78403   9.324   6.740  10.726  1.5078  0.6195 -2.9955
  581MOL0     H78404   9.419   6.642  10.845  3.8719 -1.9996 -1.0861
  581MOL0     H78405   9.565   6.803  10.761 -0.9302 -0.5390  1.6937
  581MOL0     H78406   9.522   6.767  10.590 -3.9573 -0.6520 -0.8926
  581MOL0     H78407   9.643   6.555  10.593  0.7080  2.1300 -1.4585
  581MOL0     H78408   9.653   6.559  10.763 -2.0989 -1.0184 -0.6656
  581MOL0     H78409   9.800   6.742  10.573  2.4458 -0.8522 -0.4743
  581MOL0     H78410   9.794   6.769  10.748  0.4935  0.1426 -1.0622
  581MOL0     H78411   9.896   6.505  10.642  0.4796  1.6620 -3.1739
  581MOL0     H78412   9.919   6.583  10.807 -1.6037  1.5223  0.4249
  581MOL0     H78413  10.121   6.604  10.642  0.7601  0.2536 -1.0926
  581MOL0     H78414  10.014   6.707  10.547 -3.0830  3.8712  2.4366
  581MOL0     H78415   9.309   6.579  10.271 -2.5221 -1.1301  0.1490
  581MOL0     H78416   9.368   6.511  10.050 -2.1277  0.5958  1.1607
  581MOL0     H78417   9.460   6.168   9.759  0.3607 -3.2211 -3.7467
  581MOL0     H78418   9.509   6.115   9.533 -0.0385 -0.6713  0.5656
  581MOL0     H78419  11.270   6.560   9.219 -1.2788 -2.9112  0.1131
  581MOL0     H78420  11.362   6.744   9.080 -0.5547  0.3513  1.3404
  581MOL0     H78421  11.323   6.937   8.675 -0.0910 -0.2424  0.4386
  581MOL0     H78422  11.389   7.094   8.497  0.7000  2.1969 -0.2953
  581MOL0     H78423  11.341   7.524   8.559  1.5693 -2.0375  0.1990
  581MOL0     H78424  11.181   7.485   8.487 -0.0011  0.7952  0.7478
  581MOL0     H78425  11.255   7.500   8.256  0.8189 -0.2646 -0.3353
  581MOL0     H78426  11.425   7.500   8.310  0.7078 -0.4599  2.4293
  581MOL0     H78427  11.371   7.741   8.261 -2.4030  0.2196 -1.7112
  581MOL0     H78428  11.359   7.734   8.431  1.9153  0.5541 -0.9220
  581MOL0     H78429  11.156   7.851   8.283 -1.8565 -0.8338  0.7991
  581MOL0     H78430  11.102   7.695   8.240 -3.2270  0.1504  1.4735
  581MOL0     H78431  10.986   7.728   8.649  2.5530  1.7245  0.3473
  581MOL0     H78432  11.251   7.423   8.724  0.1726  0.3421 -1.3020
  581MOL0     H78433  11.219   7.394   8.968  3.7027 -2.6321 -0.0805
  581MOL0     H78434  11.058   7.351   8.895  0.8794  2.0795  0.8144
  581MOL0     H78435  11.141   7.246   9.015 -0.8922 -1.4696 -0.8516
  582MOL0     O78436   4.242   7.474   7.652 -0.2226  0.3967  0.7071
  582MOL0     C78437   4.348   7.457   7.714 -0.3143 -0.6749 -0.1113
  582MOL0     O78438   4.360   7.434   7.849 -0.5227 -0.1836 -1.5019
  582MOL0     C78439   4.248   7.443   7.931  0.3540 -0.5319  0.0856
  582MOL0     C78440   4.188   7.333   7.983  0.2012  0.3422  0.1241
  582MOL0     C78441   4.101   7.356   8.097  0.3383  0.1906  0.3603
  582MOL0     C78442   4.062   7.482   8.141  0.2801  1.1316 -0.7628
  582MOL0     O78443   3.969   7.490   8.249 -0.7258 -0.3042  0.3666
  582MOL0     C78444   3.891   7.615   8.260  0.5554  1.0145  0.5109
  582MOL0     C78445   3.851   7.624   8.403  0.8244  0.4083 -0.2311
  582MOL0     C78446   3.731   7.715   8.423  0.4844  0.4227 -0.0357
  582MOL0     C78447   3.750   7.857   8.430  0.0640  0.1692 -0.4045
  582MOL0     C78448   3.639   7.946   8.371 -0.3720 -0.6333 -0.0624
  582MOL0     C78449   3.691   8.090   8.405  0.3431  0.0658 -0.9201
  582MOL0     C78450   3.600   8.195   8.359  0.2920  0.3679  0.1041
  582MOL0     C78451   3.634   8.333   8.424  0.9774  0.0267 -0.9687
  582MOL0     N78452   3.538   8.443   8.383 -0.4583  0.2597 -0.6248
  582MOL0     C78453   3.512   8.485   8.258 -0.1338  0.6985  0.3647
  582MOL0     C78454   3.408   8.569   8.274  0.4192  0.4522 -0.3326
  582MOL0     C78455   3.330   8.648   8.165 -0.3113  0.9849 -0.1046
  582MOL0     C78456   3.340   8.793   8.206 -0.7121 -1.1681  0.0816
  582MOL0     C78457   3.482   8.853   8.192 -0.5929  0.5789  0.3281
  582MOL0     C78458   3.498   8.929   8.067 -0.7131  0.0712  0.2208
  582MOL0     O78459   3.637   8.946   8.048 -0.0637 -0.9183  0.0644
  582MOL0     C78460   3.701   9.049   8.113 -0.0410  0.0974 -0.7600
  582MOL0     C78461   3.842   9.046   8.099  0.6320  0.1954 -0.4902
  582MOL0     C78462   3.925   9.131   8.169 -0.8195 -0.2539 -1.2859
  582MOL0     C78463   3.862   9.232   8.257  0.0659  0.3757 -0.6733
  582MOL0     C78464   3.957   9.321   8.324  0.6163 -0.3836 -0.7737
  582MOL0     O78465   4.088   9.284   8.343  0.2282 -0.4409  0.5303
  582MOL0     C78466   4.168   9.357   8.429 -0.4096 -0.2904  0.5703
  582MOL0     C78467   4.253   9.447   8.364  0.2841 -0.1444  0.0566
  582MOL0     C78468   4.346   9.518   8.441  0.0731  0.7859 -0.0495
  582MOL0     C78469   4.344   9.512   8.584 -0.7392 -0.9532  0.2950
  582MOL0     O78470   4.435   9.591   8.647 -0.4862  0.2018 -0.1005
  582MOL0     C78471   4.427   9.634   8.784 -0.3804  0.4164 -0.3477
  582MOL0     C78472   4.553   9.700   8.808 -1.0560 -0.0911  1.3119
  582MOL0     C78473   4.670   9.607   8.843  1.2351 -0.4104 -0.1135
  582MOL0     C78474   4.705   9.635   8.986 -0.7222  0.5555  0.0262
  582MOL0     C78475   4.823   9.544   9.034  0.0080  0.2377 -0.0757
  582MOL0     C78476   4.921   9.622   9.119 -0.1404 -0.4158 -0.6067
  582MOL0     C78477   4.998   9.720   9.026  0.5382  0.1168 -0.3583
  582MOL0     C78478   5.112   9.791   9.100 -0.1027 -0.0702  0.4166
  582MOL0    Cl78479   5.243   9.824   8.979 -0.1537  0.0018 -0.4658
  582MOL0     C78480   4.254   9.429   8.642 -0.4325  1.1662  0.6053
  582MOL0     C78481   4.165   9.358   8.567 -0.4895 -0.0299 -0.2542
  582MOL0     O78482   3.912   9.427   8.366  0.8822 -0.0498  0.1873
  582MOL0     C78483   3.723   9.238   8.261 -0.2988 -0.3414  0.7440
  582MOL0     C78484   3.645   9.144   8.192  0.7351 -0.2827 -0.6109
  582MOL0     N78485   3.377   8.571   8.405  0.3340 -0.6551  0.0008
  582MOL0     N78486   3.459   8.505   8.474  0.3262 -0.5778  0.2221
  582MOL0     C78487   4.133   7.595   8.089 -0.4987  0.0831  0.4367
  582MOL0     C78488   4.225   7.565   7.985  0.3605  0.0714 -0.0014
  582MOL0     C78489   4.477   7.449   7.638  0.2078  0.0053  0.1975
  582MOL0     C78490   4.594   7.484   7.719  0.4033 -0.9549 -0.0671
  582MOL0     C78491   4.723   7.472   7.669  0.2117  0.0026  0.6045
  582MOL0     C78492   4.750   7.454   7.530  0.2801 -0.8518 -0.0615
  582MOL0     O78493   4.879   7.458   7.486 -0.4215 -0.0487  0.1352
  582MOL0     C78494   4.910   7.473   7.346  0.2192  0.9146 -0.3064
  582MOL0     C78495   5.051   7.538   7.340 -0.3642  0.6401  0.5550
  582MOL0     C78496   5.038   7.686   7.383 -0.9465  0.5872 -0.0932
  582MOL0     C78497   5.170   7.761   7.405 -0.0810  1.5332  0.5027
  582MOL0     C78498   5.235   7.731   7.535  0.5523 -0.0600 -1.2457
  582MOL0     C78499   5.304   7.719   7.639 -1.6314  1.1152 -0.1278
  582MOL0     C78500   4.632   7.452   7.445 -0.0713  0.3299 -0.0974
  582MOL0     C78501   4.499   7.434   7.498 -0.9511  0.0521 -0.7750
  582MOL0     C78502   4.390   7.392   7.399  0.3863 -0.4281 -0.4870
  582MOL0     H78503   4.216   7.237   7.940  1.4506  0.4579  0.6368
  582MOL0     H78504   4.048   7.269   8.135 -0.8078  0.7245  0.0426
  582MOL0     H78505   3.959   7.700   8.252  1.5832  0.3585  1.8290
  582MOL0     H78506   3.808   7.611   8.189  1.4397 -1.8377 -0.5165
  582MOL0     H78507   3.929   7.653   8.474 -0.3450  0.6584  0.9903
  582MOL0     H78508   3.816   7.525   8.432 -1.5546  1.5148  0.9685
  582MOL0     H78509   3.681   7.685   8.515  0.4603 -1.4380 -0.6198
  582MOL0     H78510   3.659   7.698   8.343  0.1778  0.9275  0.1252
  582MOL0     H78511   3.759   7.885   8.536 -2.9352 -3.7959  1.1724
  582MOL0     H78512   3.840   7.881   8.374  0.9039  3.4182  2.0044
  582MOL0     H78513   3.636   7.938   8.262 -2.6020 -0.7285 -0.0275
  582MOL0     H78514   3.541   7.926   8.416  0.1928  2.0311  2.6498
  582MOL0     H78515   3.718   8.099   8.511 -1.9078  0.8416 -0.3698
  582MOL0     H78516   3.786   8.115   8.356  0.2296  1.8753 -0.2724
  582MOL0     H78517   3.499   8.161   8.384 -0.1888  0.8913 -1.0597
  582MOL0     H78518   3.618   8.223   8.255 -0.7409  2.5496  0.4377
  582MOL0     H78519   3.622   8.320   8.532  1.0302  1.7809 -0.7181
  582MOL0     H78520   3.737   8.365   8.408  0.5223  2.4055  0.2626
  582MOL0     H78521   3.559   8.445   8.168  0.7054 -1.8087  1.8026
  582MOL0     H78522   3.386   8.628   8.074 -2.0059 -1.7738 -0.6673
  582MOL0     H78523   3.225   8.617   8.160 -0.5569  1.1649  2.3434
  582MOL0     H78524   3.268   8.860   8.158 -0.3386 -0.4557  0.5093
  582MOL0     H78525   3.312   8.808   8.311  3.3839  1.5871  1.0036
  582MOL0     H78526   3.556   8.774   8.208  1.0683  1.6875 -1.5751
  582MOL0     H78527   3.491   8.920   8.278  0.0742  0.1203  0.6237
  582MOL0     H78528   3.445   9.024   8.061  1.2110  1.1291 -1.1055
  582MOL0     H78529   3.470   8.880   7.973  0.9790 -0.3081 -0.1239
  582MOL0     H78530   3.894   8.978   8.031  0.2819  0.7238 -1.2974
  582MOL0     H78531   4.031   9.124   8.146 -0.9098  0.7449 -2.1189
  582MOL0     H78532   4.244   9.454   8.256  0.6180  2.1521  0.1341
  582MOL0     H78533   4.411   9.590   8.392 -0.9893  0.9190 -1.3245
  582MOL0     H78534   4.335   9.692   8.794 -0.6584  0.0906 -1.0008
  582MOL0     H78535   4.413   9.550   8.854  0.8972  0.1016 -0.4580
  582MOL0     H78536   4.584   9.754   8.718 -3.2720  0.8479  1.0594
  582MOL0     H78537   4.542   9.781   8.880  2.7105  1.0646  0.8259
  582MOL0     H78538   4.638   9.503   8.829 -1.3382  0.3852 -0.7059
  582MOL0     H78539   4.759   9.622   8.781 -0.7607 -1.1056 -3.3829
  582MOL0     H78540   4.622   9.618   9.056 -1.0687 -0.0953 -0.5322
  582MOL0     H78541   4.736   9.740   8.993  4.5670 -0.4427 -3.4410
  582MOL0     H78542   4.884   9.488   8.961  0.4606 -0.0247  0.4991
  582MOL0     H78543   4.780   9.467   9.098  1.9267 -1.7595 -1.0498
  582MOL0     H78544   4.866   9.681   9.192 -1.4600 -1.6109 -0.5847
  582MOL0     H78545   4.994   9.554   9.163 -0.7922 -1.4787 -1.1122
  582MOL0     H78546   4.938   9.790   8.966 -2.8406 -2.1975  0.0796
  582MOL0     H78547   5.035   9.649   8.952 -1.4877  0.1730 -1.4867
  582MOL0     H78548   5.089   9.890   9.140  3.0375  0.1923  1.8605
  582MOL0     H78549   5.146   9.728   9.183 -0.4182 -1.3435 -0.3939
  582MOL0     H78550   4.245   9.417   8.749  0.6519  2.0986  0.8165
  582MOL0     H78551   4.080   9.298   8.598 -1.6522  1.2635 -0.8543
  582MOL0     H78552   3.688   9.323   8.319 -0.9930  1.2489 -1.8297
  582MOL0     H78553   3.537   9.154   8.195  0.7016 -0.6841 -0.5315
  582MOL0     H78554   4.106   7.697   8.114  0.0457  0.1228  0.8747
  582MOL0     H78555   4.278   7.651   7.945 -0.2369  1.2543  1.6275
  582MOL0     H78556   4.589   7.515   7.822 -1.4509 -4.5250  1.0788
  582MOL0     H78557   4.816   7.486   7.724  0.8654 -2.2147  0.1664
  582MOL0     H78558   4.837   7.540   7.301  0.4377  0.3559 -1.5326
  582MOL0     H78559   4.895   7.381   7.289 -2.3121  3.1327 -3.5513
  582MOL0     H78560   5.090   7.541   7.238  1.0910  0.5062  1.0847
  582MOL0     H78561   5.123   7.472   7.388 -0.4021 -3.3559 -4.0859
  582MOL0     H78562   4.985   7.683   7.478 -3.6984 -2.5682 -1.5203
  582MOL0     H78563   4.969   7.742   7.320 -5.5964 -2.7149  1.5076
  582MOL0     H78564   5.248   7.742   7.331  1.1908 -2.0636  2.4891
  582MOL0     H78565   5.146   7.867   7.416 -1.2468  1.2171  1.1238
  582MOL0     H78566   5.375   7.705   7.718  1.3207 -0.9221 -2.8616
  582MOL0     H78567   4.659   7.426   7.344  1.9129  2.3708 -0.1758
  582MOL0     H78568   4.341   7.476   7.350 -1.0846  0.0047  1.5822
  582MOL0     H78569   4.431   7.318   7.330  1.5969 -1.8173  1.6273
  582MOL0     H78570   4.299   7.348   7.440 -0.6678  0.9779 -1.2354
  583MOL0     O78571   9.811   6.527   2.795  0.1546 -0.1866 -0.6472
  583MOL0     C78572   9.878   6.606   2.731 -0.0826 -0.5093  0.3049
  583MOL0     O78573  10.009   6.598   2.726 -0.6631 -0.0842 -0.0964
  583MOL0     C78574  10.076   6.493   2.781 -0.9430 -0.0830 -0.0531
  583MOL0     C78575  10.098   6.492   2.916 -0.6083  0.1126  0.7904
  583MOL0     C78576  10.174   6.390   2.972  0.6415  0.1591 -0.3133
  583MOL0     C78577  10.213   6.281   2.897 -0.6616  0.0037  0.1404
  583MOL0     O78578  10.264   6.168   2.951 -0.3567  0.7766 -0.3889
  583MOL0     C78579  10.276   6.156   3.097 -0.4148 -0.4656  0.6997
  583MOL0     C78580  10.365   6.036   3.132  0.2474 -0.1318  0.0840
  583MOL0     C78581  10.363   6.015   3.283  0.2233 -0.3175 -0.4352
  583MOL0     C78582  10.445   5.893   3.329  0.7542 -0.6662  0.4104
  583MOL0     C78583  10.455   5.895   3.483 -0.4090 -1.0572  0.0377
  583MOL0     C78584  10.535   5.767   3.524  1.0172 -0.2032 -0.2739
  583MOL0     C78585  10.525   5.762   3.671 -0.4781 -0.1585  0.2915
  583MOL0     C78586  10.587   5.632   3.728  0.3586 -0.5698  0.2541
  583MOL0     N78587  10.606   5.634   3.866 -0.5820 -0.5128 -0.3026
  583MOL0     C78588  10.716   5.695   3.938  0.5617 -0.2575  0.4834
  583MOL0     C78589  10.692   5.671   4.066 -0.0469 -0.0764 -0.0125
  583MOL0     C78590  10.769   5.716   4.187 -0.0486  0.2016  0.5696
  583MOL0     C78591  10.913   5.654   4.206 -1.2759  0.3427 -1.1208
  583MOL0     C78592  11.011   5.766   4.221 -0.0621  0.7488  0.2416
  583MOL0     C78593  11.034   5.838   4.082 -0.0259  0.5857  0.2413
  583MOL0     O78594  10.937   5.944   4.061 -0.0293  0.3859  0.3903
  583MOL0     C78595  10.931   6.007   3.941  1.1095  0.2480 -0.6628
  583MOL0     C78596  11.038   6.040   3.862  0.3981 -0.4387 -0.6176
  583MOL0     C78597  11.027   6.097   3.740 -0.0676 -0.5782  0.1989
  583MOL0     C78598  10.902   6.145   3.693  0.2410 -0.8638  0.0618
  583MOL0     C78599  10.884   6.231   3.564  0.0368  0.2743  1.0386
  583MOL0     O78600  10.754   6.251   3.527 -0.6745  0.0200  0.4633
  583MOL0     C78601  10.720   6.336   3.429 -1.1028 -0.5096 -0.7997
  583MOL0     C78602  10.660   6.284   3.320  0.4121 -0.7593  0.6699
  583MOL0     C78603  10.636   6.366   3.213  0.8159  0.4860 -0.7245
  583MOL0     C78604  10.654   6.504   3.222 -1.2689 -0.1937 -0.3473
  583MOL0     O78605  10.631   6.591   3.120  0.1856  0.4072 -0.0421
  583MOL0     C78606  10.529   6.554   3.020 -0.7005  0.7853  0.7466
  583MOL0     C78607  10.540   6.662   2.908  0.4543 -0.4290 -0.2667
  583MOL0     C78608  10.443   6.636   2.800  0.6568 -0.0569 -0.1701
  583MOL0     C78609  10.491   6.692   2.662 -0.2312  0.4952 -0.7497
  583MOL0     C78610  10.439   6.596   2.547 -0.2089 -0.1145  0.6877
  583MOL0     C78611  10.311   6.646   2.485  0.4585 -0.5336 -1.3153
  583MOL0     C78612  10.285   6.557   2.358  0.3962  0.3958  0.1447
  583MOL0     C78613  10.350   6.620   2.235  0.4342  1.1245 -1.5049
  583MOL0    Cl78614  10.294   6.784   2.209 -0.1889  0.4701  0.1427
  583MOL0     C78615  10.710   6.561   3.343  0.5926  0.8085 -1.1099
  583MOL0     C78616  10.749   6.470   3.443  0.7153 -0.2047 -0.1568
  583MOL0     O78617  10.985   6.273   3.509  0.5621 -0.8206  0.7356
  583MOL0     C78618  10.793   6.116   3.769  0.4626  0.5451 -0.6576
  583MOL0     C78619  10.799   6.037   3.886 -0.6714 -0.4778 -0.6400
  583MOL0     N78620  10.580   5.590   4.069 -0.3002 -0.5263  0.2345
  583MOL0     N78621  10.534   5.566   3.952  0.2508 -0.1920 -0.0680
  583MOL0     C78622  10.192   6.283   2.758 -0.3078 -0.4452 -0.0584
  583MOL0     C78623  10.121   6.389   2.700 -0.4237 -0.0409  1.4160
  583MOL0     C78624   9.808   6.722   2.665 -0.5171  0.1805 -0.0177
  583MOL0     C78625   9.681   6.696   2.611  0.0013  0.2249  0.0525
  583MOL0     C78626   9.612   6.787   2.536 -0.1775 -0.5633  1.2823
  583MOL0     C78627   9.662   6.914   2.502  0.6172  0.8669 -0.1831
  583MOL0     O78628   9.592   6.988   2.413  0.4899 -0.3503  0.3530
  583MOL0     C78629   9.663   7.107   2.369 -0.1887  0.5782  0.0115
  583MOL0     C78630   9.651   7.228   2.470 -0.5361 -0.7665  0.2413
  583MOL0     C78631   9.749   7.348   2.433  0.3533  0.9848  0.5717
  583MOL0     C78632   9.774   7.428   2.560 -0.6512 -0.2870  0.1129
  583MOL0     C78633   9.646   7.477   2.612  0.6258 -0.5926  0.2976
  583MOL0     C78634   9.536   7.511   2.634  0.4363 -0.9001  0.1460
  583MOL0     C78635   9.792   6.940   2.563  1.0156 -0.2358  0.3848
  583MOL0     C78636   9.867   6.847   2.645 -0.0734 -0.1633  0.4006
  583MOL0     C78637  10.015   6.867   2.690  0.2700 -0.0766  0.3599
  583MOL0     H78638  10.073   6.569   2.988  0.4416  0.1662  1.1294
  583MOL0     H78639  10.202   6.400   3.076  0.3337  0.6752 -0.2821
  583MOL0     H78640  10.332   6.240   3.140  1.8417 -0.1493 -2.4924
  583MOL0     H78641  10.181   6.138   3.147  0.9167 -2.6904  2.6005
  583MOL0     H78642  10.470   6.050   3.105  0.2603  0.1027  0.2538
  583MOL0     H78643  10.331   5.952   3.070  1.3027  0.4726 -1.3825
  583MOL0     H78644  10.256   6.002   3.301  0.1882 -0.8298 -0.9900
  583MOL0     H78645  10.394   6.103   3.340  2.7829 -0.9393 -0.7276
  583MOL0     H78646  10.411   5.797   3.289  3.3768 -0.4801 -2.7028
  583MOL0     H78647  10.546   5.899   3.287  0.8786  3.0054  0.9547
  583MOL0     H78648  10.511   5.986   3.506  0.0935 -0.4092 -3.2422
  583MOL0     H78649  10.356   5.897   3.529  0.0587 -3.9955  1.4472
  583MOL0     H78650  10.479   5.678   3.492  0.2082 -0.2129  1.1033
  583MOL0     H78651  10.636   5.777   3.484  0.3569 -0.6363 -2.1741
  583MOL0     H78652  10.423   5.749   3.706  0.4942 -1.1402  3.0668
  583MOL0     H78653  10.567   5.854   3.713 -0.6230  1.6615 -3.1518
  583MOL0     H78654  10.527   5.547   3.693 -2.4892  1.4319 -0.0917
  583MOL0     H78655  10.685   5.610   3.684 -0.4217  0.1303 -2.0253
  583MOL0     H78656  10.802   5.754   3.905 -0.2135  0.2812 -0.6554
  583MOL0     H78657  10.782   5.824   4.194  0.7108  0.1595 -0.1500
  583MOL0     H78658  10.721   5.699   4.284 -0.2151  0.6928  0.5758
  583MOL0     H78659  10.903   5.594   4.297 -0.4552 -0.6817 -1.6969
  583MOL0     H78660  10.943   5.581   4.130 -0.9811 -0.1098 -0.5776
  583MOL0     H78661  11.102   5.725   4.266 -1.8283 -1.5934  1.9267
  583MOL0     H78662  10.976   5.828   4.305  0.4378 -0.7081  1.5792
  583MOL0     H78663  11.019   5.761   4.007 -0.2940 -0.6279  1.4990
  583MOL0     H78664  11.137   5.875   4.071  1.0129 -1.9107  0.9981
  583MOL0     H78665  11.139   6.014   3.893  0.8033  1.1815 -0.4785
  583MOL0     H78666  11.115   6.108   3.678  0.4578  0.2076  1.0559
  583MOL0     H78667  10.633   6.179   3.312 -1.7863 -0.2049 -0.0249
  583MOL0     H78668  10.605   6.321   3.120  0.2534  0.8883 -0.7384
  583MOL0     H78669  10.539   6.456   2.974 -1.4628  1.7747 -1.6969
  583MOL0     H78670  10.432   6.571   3.066 -0.9322  0.7579  0.2721
  583MOL0     H78671  10.517   6.756   2.959  0.1337 -0.5507 -0.1850
  583MOL0     H78672  10.639   6.665   2.862  1.2251  0.2272  1.3558
  583MOL0     H78673  10.420   6.529   2.788 -1.7277  0.3197  0.4795
  583MOL0     H78674  10.346   6.682   2.818  0.2501 -1.1358  0.4977
  583MOL0     H78675  10.600   6.695   2.661 -0.1874 -0.5780 -0.0302
  583MOL0     H78676  10.457   6.796   2.670  2.0720  1.3907 -1.9646
  583MOL0     H78677  10.403   6.497   2.575 -1.9112  0.7257  1.6171
  583MOL0     H78678  10.513   6.595   2.466  2.0783 -1.1993  2.6649
  583MOL0     H78679  10.232   6.616   2.555 -0.0833 -0.6123 -1.9406
  583MOL0     H78680  10.293   6.753   2.472  1.3962  0.0101  1.3357
  583MOL0     H78681  10.179   6.537   2.338  0.2244 -0.3524  1.6632
  583MOL0     H78682  10.327   6.458   2.375 -1.4947 -0.3656  0.6637
  583MOL0     H78683  10.459   6.626   2.248  0.6322  3.3424 -3.5373
  583MOL0     H78684  10.329   6.561   2.146 -1.5676  1.1502 -1.0843
  583MOL0     H78685  10.739   6.662   3.367  0.5474  0.8447 -1.2077
  583MOL0     H78686  10.794   6.511   3.533  2.5026  0.0762 -1.1352
  583MOL0     H78687  10.695   6.152   3.739  1.1509  1.6003 -1.7351
  583MOL0     H78688  10.710   6.010   3.942 -1.5043  0.9578 -1.2010
  583MOL0     H78689  10.228   6.191   2.712  0.5691 -0.5263  0.7452
  583MOL0     H78690  10.105   6.387   2.593 -1.7909  0.4381  1.5877
  583MOL0     H78691   9.633   6.599   2.608  0.4928 -0.0575  0.8651
  583MOL0     H78692   9.512   6.769   2.498 -0.5931  3.3737  0.0474
  583MOL0     H78693   9.614   7.142   2.279 -0.5219  1.8369  0.6638
  583MOL0     H78694   9.765   7.082   2.338 -0.2798 -0.8546  0.7691
  583MOL0     H78695   9.681   7.190   2.568 -0.3792 -0.2109  0.4125
  583MOL0     H78696   9.545   7.251   2.485 -0.5032 -1.9233  2.6965
  583MOL0     H78697   9.708   7.400   2.345 -3.4182 -3.0514 -0.3941
  583MOL0     H78698   9.842   7.301   2.398 -0.6712 -2.5906  2.2732
  583MOL0     H78699   9.830   7.379   2.639  2.6307  2.1841 -0.4511
  583MOL0     H78700   9.835   7.514   2.530 -0.5510  0.4034  2.1658
  583MOL0     H78701   9.445   7.558   2.666  0.4592  0.1469 -1.2323
  583MOL0     H78702   9.843   7.027   2.522  1.1795 -1.2300 -1.6365
  583MOL0     H78703  10.035   6.975   2.688  1.4341 -0.2952 -0.8860
  583MOL0     H78704  10.041   6.829   2.789 -1.1082  2.8460  1.9880
  583MOL0     H78705  10.082   6.814   2.621 -0.9907 -0.7328 -0.4062
  584MOL0     O78706   0.003   4.349   4.004  0.2449 -0.8461  0.2031
  584MOL0     C78707   0.028   4.446   3.930  1.0486  0.8965 -0.6181
  584MOL0     O78708  -0.060   4.542   3.907  0.4254  0.2274 -0.4176
  584MOL0     C78709  -0.182   4.536   3.972  0.4295 -0.2555 -0.4534
  584MOL0     C78710  -0.288   4.582   3.901 -0.7613  0.0911  0.0300
  584MOL0     C78711  -0.412   4.610   3.955  0.1993 -0.3689  0.4236
  584MOL0     C78712  -0.446   4.583   4.089  0.2515 -0.1253  0.1355
  584MOL0     O78713  -0.574   4.605   4.142  0.0690 -0.1693  0.1858
  584MOL0     C78714  -0.582   4.577   4.278  0.3084 -0.6076 -0.1212
  584MOL0     C78715  -0.724   4.614   4.329  0.0281 -0.2956 -1.1910
  584MOL0     C78716  -0.765   4.746   4.277  0.3973  0.1177 -0.2052
  584MOL0     C78717  -0.678   4.865   4.318  0.5499  0.0433  0.3671
  584MOL0     C78718  -0.742   4.999   4.314 -0.0371 -0.3993  0.9695
  584MOL0     C78719  -0.793   5.042   4.173 -0.5824 -0.0977 -0.7687
  584MOL0     C78720  -0.866   5.180   4.189 -0.6683 -0.3102  0.8585
  584MOL0     C78721  -0.962   5.189   4.067 -1.0210  0.2252  0.3620
  584MOL0     N78722  -0.901   5.160   3.931 -0.0400  0.1853 -0.6722
  584MOL0     C78723  -0.880   5.260   3.838  0.1286 -0.6010  0.3697
  584MOL0     C78724  -0.844   5.186   3.730  0.0207 -0.1916  0.3698
  584MOL0     C78725  -0.811   5.240   3.583  0.6655  0.3476 -0.9570
  584MOL0     C78726  -0.678   5.320   3.589  0.0818  0.4947  0.9518
  584MOL0     C78727  -0.621   5.376   3.460  0.6582  0.7553  0.1409
  584MOL0     C78728  -0.726   5.447   3.380  0.0227  0.2427 -0.0138
  584MOL0     O78729  -0.673   5.538   3.279 -0.5786 -0.1149  0.5439
  584MOL0     C78730  -0.758   5.594   3.187 -0.4028 -0.4932  0.5286
  584MOL0     C78731  -0.899   5.604   3.205 -1.1931 -0.6759 -0.7431
  584MOL0     C78732  -0.975   5.649   3.093 -0.3283 -0.2239 -0.6827
  584MOL0     C78733  -0.908   5.711   2.982 -0.4939 -0.2311 -0.0278
  584MOL0     C78734  -0.995   5.770   2.877 -0.5896 -0.3388  0.3830
  584MOL0     O78735  -0.935   5.841   2.774 -0.6170 -0.9010  0.6875
  584MOL0     C78736  -1.005   5.908   2.674  0.8874  0.2691 -0.3472
  584MOL0     C78737  -0.957   6.027   2.627  0.0193  0.7970 -0.4683
  584MOL0     C78738  -1.024   6.103   2.531 -0.1069  0.6051 -0.5285
  584MOL0     C78739  -1.144   6.053   2.483 -1.4246 -0.0342 -0.2111
  584MOL0     O78740  -1.189   6.138   2.382  0.0805  0.4360 -0.4213
  584MOL0     C78741  -1.300   6.090   2.308  0.2194 -0.4016 -0.8964
  584MOL0     C78742  -1.334   6.206   2.202 -0.3210  0.3168  0.6754
  584MOL0     C78743  -1.216   6.209   2.108 -0.0881  0.1950 -0.1684
  584MOL0     C78744  -1.252   6.167   1.966 -0.0826 -0.6808 -0.3996
  584MOL0     C78745  -1.142   6.180   1.860  0.1668 -0.6851  0.6717
  584MOL0     C78746  -1.191   6.133   1.725 -0.1939  0.0635  0.1652
  584MOL0     C78747  -1.076   6.126   1.628  0.6128 -0.4310  0.1285
  584MOL0     C78748  -1.127   6.072   1.488 -0.3807  1.2120  0.0802
  584MOL0    Cl78749  -1.259   6.166   1.422 -0.0335  0.5316  0.2790
  584MOL0     C78750  -1.197   5.931   2.526 -0.0020  0.2968  0.6900
  584MOL0     C78751  -1.123   5.860   2.625  0.4105 -0.3231  0.7661
  584MOL0     O78752  -1.116   5.755   2.889 -0.7627  0.1120 -0.4119
  584MOL0     C78753  -0.769   5.711   2.980  0.0612  1.0570  0.5278
  584MOL0     C78754  -0.693   5.651   3.074  0.0253  0.1797  0.0325
  584MOL0     N78755  -0.839   5.051   3.759  0.0151 -0.0929 -0.8758
  584MOL0     N78756  -0.881   5.036   3.879  0.6807 -0.9892 -0.2466
  584MOL0     C78757  -0.342   4.523   4.165 -0.1446  0.7127  0.3231
  584MOL0     C78758  -0.213   4.500   4.105 -1.2823 -0.1291  0.8101
  584MOL0     C78759   0.154   4.448   3.861  0.9783 -1.1098  0.2890
  584MOL0     C78760   0.264   4.396   3.931  0.4135  0.3278  0.2311
  584MOL0     C78761   0.395   4.407   3.875  0.8186  0.2436 -0.0293
  584MOL0     C78762   0.409   4.454   3.746 -0.5262  0.6153  0.7599
  584MOL0     O78763   0.538   4.457   3.702  0.0486  1.0022  0.2511
  584MOL0     C78764   0.566   4.490   3.561 -0.9820  0.4628  0.2180
  584MOL0     C78765   0.553   4.367   3.480  0.6458  0.7457 -0.3167
  584MOL0     C78766   0.553   4.407   3.334  0.1309  0.1859 -0.1485
  584MOL0     C78767   0.472   4.317   3.241  0.3866 -0.3312  0.1014
  584MOL0     C78768   0.535   4.188   3.235 -0.5061  0.2750 -0.0927
  584MOL0     C78769   0.601   4.086   3.228 -0.4931  0.0249 -0.0617
  584MOL0     C78770   0.297   4.501   3.673 -0.7268 -0.2942  0.5033
  584MOL0     C78771   0.166   4.489   3.723 -0.2027 -0.1740 -0.3314
  584MOL0     C78772   0.046   4.536   3.634  0.0474 -1.0622 -0.1018
  584MOL0     H78773  -0.263   4.609   3.799 -0.8239 -1.7204 -0.5063
  584MOL0     H78774  -0.495   4.656   3.901 -0.4881 -1.3453  0.6215
  584MOL0     H78775  -0.561   4.474   4.310 -2.2932 -1.2441 -0.2476
  584MOL0     H78776  -0.514   4.638   4.339 -1.4521  1.3121  0.0106
  584MOL0     H78777  -0.719   4.627   4.437  2.6340 -1.9103 -1.0098
  584MOL0     H78778  -0.786   4.524   4.322  0.4344 -0.7806  0.8091
  584MOL0     H78779  -0.865   4.751   4.321 -0.7755 -4.6969 -1.6944
  584MOL0     H78780  -0.775   4.740   4.169  0.7418 -2.2865 -0.1480
  584MOL0     H78781  -0.662   4.857   4.426 -2.3336  1.9669  1.0397
  584MOL0     H78782  -0.587   4.864   4.258 -0.6226 -4.3571 -1.7912
  584MOL0     H78783  -0.838   4.994   4.367 -0.0363 -0.4342  0.9672
  584MOL0     H78784  -0.680   5.070   4.370 -0.9381  0.1767  1.2545
  584MOL0     H78785  -0.706   5.045   4.107 -0.6828 -2.5648 -1.0761
  584MOL0     H78786  -0.860   4.962   4.143  0.0925 -0.9522 -0.0500
  584MOL0     H78787  -0.793   5.261   4.185  1.4186 -2.0883 -2.7382
  584MOL0     H78788  -0.927   5.192   4.279  1.2956  3.8146  1.8710
  584MOL0     H78789  -1.045   5.120   4.085 -0.8893 -0.5183 -1.7074
  584MOL0     H78790  -1.009   5.288   4.057 -0.4550  0.3542 -1.3408
  584MOL0     H78791  -0.888   5.367   3.847 -0.4975 -0.5762 -0.3788
  584MOL0     H78792  -0.795   5.157   3.513  2.2704  0.1111 -0.3445
  584MOL0     H78793  -0.893   5.291   3.531 -0.9443 -0.3578  0.7847
  584MOL0     H78794  -0.693   5.407   3.654  0.5499  0.7352  0.7389
  584MOL0     H78795  -0.609   5.249   3.636  0.2644 -2.1392 -2.8672
  584MOL0     H78796  -0.569   5.298   3.403  0.5708  0.7926  0.0111
  584MOL0     H78797  -0.537   5.433   3.501  1.5319 -0.9353  0.8052
  584MOL0     H78798  -0.790   5.504   3.448 -1.5948 -0.6981 -0.7020
  584MOL0     H78799  -0.787   5.370   3.331  0.4225 -0.5220  0.6676
  584MOL0     H78800  -0.954   5.558   3.286  1.9476 -2.1275  0.7381
  584MOL0     H78801  -1.083   5.650   3.090 -0.3415  1.9241 -1.8493
  584MOL0     H78802  -0.861   6.058   2.668  0.6240  0.8766 -1.8981
  584MOL0     H78803  -1.015   6.206   2.498  0.4515  0.3313 -1.2419
  584MOL0     H78804  -1.271   6.001   2.252  4.2999 -0.6461  1.2434
  584MOL0     H78805  -1.388   6.077   2.371 -0.0862  1.8105 -0.7921
  584MOL0     H78806  -1.427   6.196   2.146 -0.1174 -0.4560  0.4634
  584MOL0     H78807  -1.338   6.302   2.254 -0.2210  1.6637 -1.7097
  584MOL0     H78808  -1.162   6.303   2.102  0.5192 -0.1778 -0.5943
  584MOL0     H78809  -1.142   6.134   2.135 -0.0172  0.1008 -0.6136
  584MOL0     H78810  -1.333   6.234   1.934 -0.3865 -0.0700  1.5490
  584MOL0     H78811  -1.306   6.071   1.972 -1.9621  0.1869 -2.2148
  584MOL0     H78812  -1.057   6.118   1.891  2.0900  2.1113  1.3475
  584MOL0     H78813  -1.098   6.279   1.849 -0.4395 -0.1965  2.2632
  584MOL0     H78814  -1.246   6.041   1.742 -2.4482  0.6500 -3.0821
  584MOL0     H78815  -1.261   6.209   1.688 -1.2817  0.8695  3.4858
  584MOL0     H78816  -1.005   6.058   1.676 -0.3938 -0.8583  1.0497
  584MOL0     H78817  -1.040   6.228   1.613 -2.9418  1.1574  1.3164
  584MOL0     H78818  -1.051   6.049   1.413 -0.2219  1.9098  0.0148
  584MOL0     H78819  -1.162   5.970   1.504  1.1865  0.0254 -3.0734
  584MOL0     H78820  -1.292   5.902   2.482 -1.1421  1.1169  2.4741
  584MOL0     H78821  -1.163   5.764   2.657 -1.3538  0.0611 -0.1974
  584MOL0     H78822  -0.724   5.771   2.901 -0.5756 -0.7717 -1.2871
  584MOL0     H78823  -0.584   5.648   3.076  0.0078 -2.2836  0.5728
  584MOL0     H78824  -0.340   4.494   4.269  2.2086 -1.5294 -0.2210
  584MOL0     H78825  -0.139   4.455   4.170  1.4159  0.7519 -1.4718
  584MOL0     H78826   0.257   4.364   4.035  2.6839  0.3736  0.4451
  584MOL0     H78827   0.484   4.376   3.929  0.4812 -0.5130  0.1021
  584MOL0     H78828   0.670   4.522   3.558 -0.3534 -1.3072  1.8579
  584MOL0     H78829   0.495   4.564   3.520  1.0707  1.6485 -1.4178
  584MOL0     H78830   0.460   4.323   3.517  0.8626 -0.1337 -0.8121
  584MOL0     H78831   0.626   4.294   3.516 -0.4074  0.4750  1.3689
  584MOL0     H78832   0.657   4.406   3.301  0.2675  2.2849  0.1069
  584MOL0     H78833   0.514   4.509   3.329  0.1679  0.3059  1.3781
  584MOL0     H78834   0.368   4.298   3.270 -0.0859 -0.9809 -1.8447
  584MOL0     H78835   0.457   4.366   3.144 -1.8713 -3.5981 -1.3968
  584MOL0     H78836   0.644   3.988   3.218 -2.4311 -0.6504 -3.6679
  584MOL0     H78837   0.300   4.550   3.577  0.5661  0.1790  0.7624
  584MOL0     H78838  -0.054   4.497   3.658  0.5128 -1.6481  0.9564
  584MOL0     H78839   0.046   4.643   3.612  1.0794 -1.7554 -4.2533
  584MOL0     H78840   0.063   4.507   3.530  0.3186 -1.7244  0.1242
  585MOL0     O78841   5.138   8.069   4.243  0.2175  1.1982  0.5936
  585MOL0     C78842   5.162   8.105   4.131 -0.0770 -0.5469  0.1641
  585MOL0     O78843   5.187   8.030   4.032  0.0440  0.1739  0.0558
  585MOL0     C78844   5.159   7.893   4.033  0.2605  0.3219 -0.1572
  585MOL0     C78845   5.276   7.808   4.012 -0.1201  0.4407  0.3205
  585MOL0     C78846   5.261   7.670   4.042  0.1049  0.1517 -0.5508
  585MOL0     C78847   5.130   7.619   4.077 -0.6248  0.2395 -0.9071
  585MOL0     O78848   5.118   7.489   4.125  0.2996  0.1170  0.6375
  585MOL0     C78849   5.009   7.416   4.075 -0.3183  0.4513 -0.2797
  585MOL0     C78850   5.052   7.273   4.025  0.0718 -0.0002  0.6251
  585MOL0     C78851   5.166   7.210   4.108 -0.6194  1.3663 -0.7997
  585MOL0     C78852   5.108   7.175   4.245  0.3558  0.2839  1.0220
  585MOL0     C78853   5.210   7.104   4.334 -0.2339 -0.4943  0.4046
  585MOL0     C78854   5.319   7.207   4.379 -0.1642 -0.9588 -0.4180
  585MOL0     C78855   5.293   7.269   4.517  0.2445  0.3619 -0.3895
  585MOL0     C78856   5.309   7.171   4.637 -1.5565 -0.4231  1.4794
  585MOL0     N78857   5.451   7.115   4.622  0.0543  0.3327  0.1123
  585MOL0     C78858   5.567   7.177   4.656 -0.9805  0.6635  0.0651
  585MOL0     C78859   5.661   7.084   4.628 -0.3681 -0.6534 -0.4096
  585MOL0     C78860   5.816   7.083   4.643 -0.3761  0.4866 -0.2942
  585MOL0     C78861   5.861   7.075   4.791  0.2469 -0.2954 -1.2879
  585MOL0     C78862   5.911   6.932   4.840  0.5612 -0.0277  0.3193
  585MOL0     C78863   5.962   6.932   4.981 -0.5559 -0.7262 -0.3053
  585MOL0     O78864   5.870   6.997   5.069  0.5831  0.1658  0.0189
  585MOL0     C78865   5.883   6.966   5.205 -0.0545 -0.4515 -0.1621
  585MOL0     C78866   5.798   6.866   5.255  0.1944  0.1542 -0.3101
  585MOL0     C78867   5.820   6.827   5.387  0.7067  0.2257  0.0595
  585MOL0     C78868   5.923   6.889   5.461 -0.5156  1.1992  1.2070
  585MOL0     C78869   5.953   6.851   5.598 -0.1650 -0.3352  0.4330
  585MOL0     O78870   6.067   6.909   5.666  0.4743 -0.0140  0.7873
  585MOL0     C78871   6.117   6.844   5.772 -0.5648  0.2000 -1.3209
  585MOL0     C78872   6.244   6.880   5.784 -0.3307  0.0339 -0.6568
  585MOL0     C78873   6.312   6.854   5.900 -0.0516  0.2780  0.3963
  585MOL0     C78874   6.241   6.781   6.007  0.8475 -0.6819  0.2135
  585MOL0     O78875   6.301   6.767   6.127 -0.3445  0.0435 -0.6394
  585MOL0     C78876   6.396   6.657   6.138 -0.6104  0.6702 -0.8837
  585MOL0     C78877   6.333   6.509   6.116 -0.0641  0.4424 -0.3509
  585MOL0     C78878   6.436   6.399   6.072  0.2804 -1.4659  0.3724
  585MOL0     C78879   6.564   6.410   6.168  1.0689 -0.3077  0.4046
  585MOL0     C78880   6.617   6.289   6.237  0.1868 -0.9355  0.4918
  585MOL0     C78881   6.763   6.308   6.297  0.4633 -0.5355 -0.0979
  585MOL0     C78882   6.784   6.433   6.382 -0.0351  0.1321  0.5675
  585MOL0     C78883   6.720   6.423   6.516 -0.5861 -0.0550 -0.5888
  585MOL0    Cl78884   6.735   6.578   6.598  0.3189 -0.0400 -0.0928
  585MOL0     C78885   6.107   6.755   5.998 -0.1702 -0.0509  0.3272
  585MOL0     C78886   6.046   6.778   5.881  0.8771  0.4327  0.1469
  585MOL0     O78887   5.881   6.766   5.647 -0.3856  0.5333 -0.5326
  585MOL0     C78888   5.992   6.998   5.407  0.2515  1.0675 -0.8008
  585MOL0     C78889   5.971   7.034   5.278 -0.2652  0.0649  0.0656
  585MOL0     N78890   5.602   6.966   4.580 -0.9791  0.0994 -0.3357
  585MOL0     N78891   5.480   6.993   4.573  0.8165  1.5459  0.1665
  585MOL0     C78892   5.017   7.703   4.088  0.0438 -0.0330  0.6309
  585MOL0     C78893   5.034   7.840   4.062  1.0652 -0.6792 -0.6369
  585MOL0     C78894   5.189   8.254   4.098  0.4672 -0.7852 -1.1272
  585MOL0     C78895   5.209   8.291   3.963  0.4958 -0.3593  0.0984
  585MOL0     C78896   5.254   8.418   3.941 -0.6342 -0.2634 -0.3380
  585MOL0     C78897   5.284   8.508   4.055  1.1257  0.5145  0.4924
  585MOL0     O78898   5.349   8.629   4.039 -0.5325 -0.7547  0.2258
  585MOL0     C78899   5.440   8.648   3.927 -0.0051 -0.9541  0.0256
  585MOL0     C78900   5.528   8.762   3.970 -0.5195  0.1136  0.2757
  585MOL0     C78901   5.465   8.900   3.971  0.7910  0.1157 -0.8092
  585MOL0     C78902   5.396   8.953   3.842  0.5637 -0.0174 -0.3877
  585MOL0     C78903   5.485   8.952   3.720 -0.5264 -0.1800  0.0115
  585MOL0     C78904   5.564   8.956   3.627 -0.0323  0.9165 -0.8665
  585MOL0     C78905   5.237   8.479   4.178 -0.0451 -0.1682  0.4418
  585MOL0     C78906   5.194   8.348   4.205  0.3249  0.2494  0.1037
  585MOL0     C78907   5.161   8.331   4.348 -0.1158 -0.4090 -0.1079
  585MOL0     H78908   5.367   7.863   3.993 -1.4711  2.6486 -0.1253
  585MOL0     H78909   5.343   7.598   4.047 -0.8922 -0.9372  1.6938
  585MOL0     H78910   4.928   7.407   4.148 -0.1933  0.9701 -0.0717
  585MOL0     H78911   4.955   7.465   3.994  1.1095  2.3743 -0.1225
  585MOL0     H78912   5.082   7.292   3.922  1.1778 -1.3853  0.6632
  585MOL0     H78913   4.961   7.212   4.019  0.9742 -1.5333  1.8912
  585MOL0     H78914   5.243   7.287   4.118 -3.4569  4.2664  0.5008
  585MOL0     H78915   5.203   7.119   4.060 -3.3103 -0.5922  0.5640
  585MOL0     H78916   5.055   7.259   4.291 -0.2211  0.7171 -0.3802
  585MOL0     H78917   5.025   7.104   4.237  1.7957 -1.7755  2.9219
  585MOL0     H78918   5.165   7.064   4.425  0.9422 -1.8088  0.4331
  585MOL0     H78919   5.259   7.026   4.275  0.7125  0.7669 -0.5332
  585MOL0     H78920   5.423   7.176   4.365  0.7564  1.7961 -0.3293
  585MOL0     H78921   5.307   7.288   4.306 -2.6554  1.1184  2.0580
  585MOL0     H78922   5.190   7.307   4.521 -0.2022 -0.7548 -0.7898
  585MOL0     H78923   5.356   7.357   4.532 -0.3699  1.0526 -1.7022
  585MOL0     H78924   5.309   7.219   4.735 -0.0492 -1.1612  1.8606
  585MOL0     H78925   5.232   7.095   4.617 -0.4963 -0.6827 -2.5390
  585MOL0     H78926   5.585   7.273   4.705 -0.1937  1.5613 -1.8492
  585MOL0     H78927   5.853   6.991   4.598 -0.8191 -0.7959  1.8692
  585MOL0     H78928   5.863   7.167   4.590  2.0109 -1.7793 -2.0219
  585MOL0     H78929   5.942   7.144   4.815 -1.1608  0.9825  0.0390
  585MOL0     H78930   5.782   7.102   4.861  0.6447  2.1658 -1.6882
  585MOL0     H78931   5.983   6.883   4.774  1.8587 -0.9838  2.3676
  585MOL0     H78932   5.819   6.872   4.834  1.1226 -0.7781 -2.3910
  585MOL0     H78933   6.060   6.979   4.974 -1.0296  0.2596 -0.5988
  585MOL0     H78934   5.985   6.833   5.021 -0.4197  0.4506  2.7376
  585MOL0     H78935   5.719   6.825   5.193  0.3657 -0.7367  0.0316
  585MOL0     H78936   5.770   6.745   5.437  2.0649  0.3308  1.6753
  585MOL0     H78937   6.293   6.938   5.706  3.5438 -1.7628  0.1611
  585MOL0     H78938   6.419   6.870   5.901  0.0038 -0.1100  0.7775
  585MOL0     H78939   6.464   6.665   6.053 -4.2723  2.1740 -3.9316
  585MOL0     H78940   6.456   6.658   6.229 -0.3023 -3.1552 -0.8581
  585MOL0     H78941   6.282   6.477   6.207  0.1746 -0.7350 -0.6253
  585MOL0     H78942   6.247   6.517   6.049 -0.7904  1.3619  0.6423
  585MOL0     H78943   6.385   6.302   6.079  0.8010 -1.8406 -0.9240
  585MOL0     H78944   6.452   6.427   5.968 -1.2471  1.4916  0.8152
  585MOL0     H78945   6.541   6.483   6.247 -0.4392  1.3738 -1.4917
  585MOL0     H78946   6.637   6.446   6.095 -2.7763  0.7339 -3.2679
  585MOL0     H78947   6.632   6.200   6.175 -0.3288  0.2969 -1.4756
  585MOL0     H78948   6.554   6.275   6.325  0.6816  2.8124  1.5975
  585MOL0     H78949   6.799   6.222   6.353  0.8891 -2.3277 -2.9368
  585MOL0     H78950   6.828   6.316   6.209  0.2692 -0.6335 -0.2524
  585MOL0     H78951   6.741   6.526   6.344 -2.3102 -0.5387  1.2865
  585MOL0     H78952   6.893   6.440   6.384 -0.0733  0.7699  2.1558
  585MOL0     H78953   6.614   6.397   6.503 -1.1747 -0.2261  3.3561
  585MOL0     H78954   6.769   6.345   6.575  0.6066  2.3002  1.7235
  585MOL0     H78955   6.065   6.710   6.088  1.9523  1.1164  2.0026
  585MOL0     H78956   5.944   6.746   5.868  0.2679  3.0832 -2.6686
  585MOL0     H78957   6.072   7.052   5.457  0.1734  2.7079 -2.3297
  585MOL0     H78958   6.020   7.113   5.223  1.1049 -2.3135 -2.3760
  585MOL0     H78959   4.921   7.664   4.122 -0.1408  0.9131  1.2341
  585MOL0     H78960   4.950   7.906   4.082  0.9330 -1.1398  0.3711
  585MOL0     H78961   5.196   8.225   3.877 -1.7358 -0.9300  0.8058
  585MOL0     H78962   5.269   8.442   3.836  0.6461 -3.0923 -0.8763
  585MOL0     H78963   5.377   8.667   3.840  0.3151 -0.6609 -0.1435
  585MOL0     H78964   5.497   8.556   3.915 -2.6640 -3.1385  2.4342
  585MOL0     H78965   5.619   8.760   3.908 -1.7152 -4.2032 -1.7800
  585MOL0     H78966   5.550   8.737   4.074 -2.5013 -0.1333  0.6688
  585MOL0     H78967   5.545   8.972   3.990 -0.4344  1.5000 -0.7027
  585MOL0     H78968   5.388   8.899   4.049 -0.8212 -0.2045 -2.3300
  585MOL0     H78969   5.304   8.896   3.825  1.1114 -1.0995  0.1610
  585MOL0     H78970   5.362   9.055   3.864 -0.8187 -0.2375 -1.3620
  585MOL0     H78971   5.639   8.955   3.550  1.2153  0.9635  0.3153
  585MOL0     H78972   5.255   8.561   4.247  1.6795 -0.2664  0.1463
  585MOL0     H78973   5.172   8.427   4.399 -4.0204  1.0453 -1.5629
  585MOL0     H78974   5.059   8.295   4.364 -0.1692  0.7510  2.8141
  585MOL0     H78975   5.232   8.258   4.389 -2.0467 -3.1035 -1.2382
  586MOL0     O78976   3.673  11.003   7.766 -0.5034  0.0157  0.2130
  586MOL0     C78977   3.638  10.888   7.792  0.5100 -0.3436 -0.1303
  586MOL0     O78978   3.526  10.821   7.742 -1.1397  0.3977 -0.0291
  586MOL0     C78979   3.456  10.873   7.639  0.4644  0.0206  0.2181
  586MOL0     C78980   3.400  10.797   7.532 -0.4837  0.8083  0.1634
  586MOL0     C78981   3.308  10.858   7.435 -0.6204  0.1962 -0.6466
  586MOL0     C78982   3.285  11.003   7.440  0.5874  1.1828 -0.8580
  586MOL0     O78983   3.199  11.059   7.349 -0.7990 -0.7568  0.2401
  586MOL0     C78984   3.155  11.199   7.354  0.3111  0.2786 -0.3136
  586MOL0     C78985   3.106  11.234   7.209  0.5145  0.3750 -0.5562
  586MOL0     C78986   2.958  11.185   7.189  0.4500 -0.3784  0.4395
  586MOL0     C78987   2.889  11.250   7.069 -0.6388  0.1531 -0.0367
  586MOL0     C78988   2.977  11.244   6.942 -0.2790  1.4057 -0.4780
  586MOL0     C78989   2.889  11.252   6.816 -0.2148 -0.4493  0.6312
  586MOL0     C78990   2.978  11.307   6.701 -0.3407  0.6423 -0.1787
  586MOL0     C78991   2.900  11.306   6.574 -0.3687  0.5922  0.5588
  586MOL0     N78992   2.975  11.359   6.466  0.6917  0.6132 -0.2178
  586MOL0     C78993   3.009  11.495   6.469 -0.6213 -0.1757  0.5214
  586MOL0     C78994   3.101  11.495   6.368  0.6482  0.0759 -0.7046
  586MOL0     C78995   3.161  11.621   6.316 -0.4323 -0.0934 -0.6971
  586MOL0     C78996   3.137  11.614   6.166 -0.1690 -0.1004 -0.0823
  586MOL0     C78997   3.205  11.728   6.093  0.7985 -0.2206  0.2639
  586MOL0     C78998   3.197  11.718   5.946 -0.8006  0.1047  0.5556
  586MOL0     O78999   3.306  11.635   5.903 -0.3098  0.7375  0.4294
  586MOL0     C79000   3.317  11.626   5.769 -0.8201 -0.9253  0.3677
  586MOL0     C79001   3.227  11.652   5.668  0.7323  0.2369 -0.0269
  586MOL0     C79002   3.273  11.621   5.539  0.5355 -0.5928 -0.1217
  586MOL0     C79003   3.395  11.562   5.500 -0.6074 -0.2325  0.5243
  586MOL0     C79004   3.438  11.517   5.371  0.0301 -0.3025  0.3103
  586MOL0     O79005   3.571  11.485   5.353  1.2445  0.0252  0.2727
  586MOL0     C79006   3.620  11.413   5.257  0.2262 -0.0210 -0.1431
  586MOL0     C79007   3.551  11.298   5.204 -0.2220 -0.2143  0.1328
  586MOL0     C79008   3.612  11.224   5.103 -0.4811  0.0738 -0.3461
  586MOL0     C79009   3.741  11.252   5.054  0.0501 -0.6351  1.6096
  586MOL0     O79010   3.816  11.180   4.967  0.4285 -0.2839  0.5399
  586MOL0     C79011   3.739  11.097   4.880  0.3937  0.2196 -0.3353
  586MOL0     C79012   3.845  11.042   4.775 -0.3051  0.7103 -0.0388
  586MOL0     C79013   3.871  11.130   4.655 -0.0737  0.1030 -0.5914
  586MOL0     C79014   3.992  11.080   4.579 -0.8906 -0.1813 -0.1605
  586MOL0     C79015   4.068  11.197   4.515  0.2268  0.8768 -0.1199
  586MOL0     C79016   4.019  11.223   4.368  0.0821  1.1316 -0.2033
  586MOL0     C79017   3.885  11.291   4.357 -0.4216  0.8430 -0.2016
  586MOL0     C79018   3.888  11.385   4.230 -0.0474 -0.5960 -0.3685
  586MOL0    Cl79019   3.918  11.304   4.074 -0.0708  0.3134 -0.1641
  586MOL0     C79020   3.801  11.364   5.104  0.6719  0.0466  0.6119
  586MOL0     C79021   3.749  11.443   5.202  0.4400  0.0098 -0.4969
  586MOL0     O79022   3.358  11.517   5.281  0.0899  0.2154  0.0840
  586MOL0     C79023   3.482  11.543   5.607 -0.2655  0.3031  0.0288
  586MOL0     C79024   3.441  11.573   5.735 -0.8910 -0.6629 -0.3932
  586MOL0     N79025   3.114  11.369   6.314  0.3138 -0.3862  0.3283
  586MOL0     N79026   3.036  11.284   6.368  0.1810 -0.4704 -0.3062
  586MOL0     C79027   3.345  11.073   7.546 -0.4921  0.3459  0.2368
  586MOL0     C79028   3.427  11.015   7.636 -0.5908  0.6165  0.4282
  586MOL0     C79029   3.726  10.801   7.877 -0.2870 -0.3458 -0.0271
  586MOL0     C79030   3.799  10.866   7.976  0.2576  0.2533 -0.7462
  586MOL0     C79031   3.886  10.800   8.061 -0.2103  0.6135  1.0404
  586MOL0     C79032   3.910  10.661   8.041 -0.2139  0.0283 -0.7149
  586MOL0     O79033   4.002  10.596   8.126 -0.4290 -0.4044 -0.3503
  586MOL0     C79034   4.033  10.458   8.098 -0.0316  0.0960  0.5202
  586MOL0     C79035   4.071  10.399   8.228 -0.6161  0.5064 -0.6809
  586MOL0     C79036   4.202  10.466   8.280 -0.3345 -0.0181 -0.0888
  586MOL0     C79037   4.205  10.446   8.434 -0.3926 -0.1116  0.0424
  586MOL0     C79038   4.315  10.521   8.493  0.3325 -0.1037 -0.7912
  586MOL0     C79039   4.396  10.570   8.572 -0.0429  0.9342  0.3532
  586MOL0     C79040   3.863  10.599   7.917  0.5007  0.0339  0.4168
  586MOL0     C79041   3.765  10.672   7.843 -0.2336 -0.0810 -0.4688
  586MOL0     C79042   3.706  10.603   7.723 -0.5207 -0.6461 -0.3417
  586MOL0     H79043   3.414  10.690   7.541  1.5287  1.0299 -0.0281
  586MOL0     H79044   3.264  10.791   7.361  2.0276 -1.0994 -1.1514
  586MOL0     H79045   3.073  11.217   7.423  0.3307 -1.5269  0.2345
  586MOL0     H79046   3.238  11.265   7.382  0.3881 -0.0312  0.1882
  586MOL0     H79047   3.176  11.196   7.135  1.8953  0.8112  0.4865
  586MOL0     H79048   3.105  11.342   7.193 -1.2062  1.0053  2.7167
  586MOL0     H79049   2.896  11.208   7.276  0.7311 -0.8810  0.7766
  586MOL0     H79050   2.968  11.076   7.187  1.9409 -0.3767  3.2453
  586MOL0     H79051   2.784  11.226   7.049 -1.0430  0.6523  1.3561
  586MOL0     H79052   2.884  11.357   7.093 -2.6610  0.3266 -0.9858
  586MOL0     H79053   3.059  11.316   6.941  2.5413 -1.5845 -1.1148
  586MOL0     H79054   3.032  11.149   6.939 -1.7266  0.5081  0.4930
  586MOL0     H79055   2.833  11.160   6.792 -0.3040  0.6743 -4.5345
  586MOL0     H79056   2.804  11.318   6.838  0.3358 -0.5513  3.4474
  586MOL0     H79057   3.068  11.245   6.694 -2.0328 -2.0584  0.4246
  586MOL0     H79058   3.017  11.408   6.714 -1.6438  1.1364  0.1130
  586MOL0     H79059   2.874  11.203   6.550  0.3798 -1.1177  5.8373
  586MOL0     H79060   2.806  11.361   6.587  0.5826  2.5437 -0.3665
  586MOL0     H79061   2.976  11.572   6.537 -1.0728  2.7620 -2.7701
  586MOL0     H79062   3.119  11.713   6.358  0.3623  0.3651 -0.8910
  586MOL0     H79063   3.266  11.620   6.345 -0.4646  2.7978 -0.1339
  586MOL0     H79064   3.184  11.526   6.120  0.0193  0.5696 -1.2170
  586MOL0     H79065   3.030  11.615   6.144  0.0705  2.7116 -1.6311
  586MOL0     H79066   3.312  11.727   6.117  1.5863 -1.1938 -2.8058
  586MOL0     H79067   3.158  11.822   6.125 -4.3477 -3.0361  2.1826
  586MOL0     H79068   3.220  11.816   5.903 -1.1429  0.6550  1.6136
  586MOL0     H79069   3.096  11.683   5.921 -0.7708  1.4315 -1.7691
  586MOL0     H79070   3.128  11.685   5.697 -0.2508 -2.3271 -0.2390
  586MOL0     H79071   3.204  11.632   5.456 -2.9666  0.7837  2.6957
  586MOL0     H79072   3.453  11.264   5.235 -0.5998  1.4922  0.9320
  586MOL0     H79073   3.541  11.147   5.073  1.0363 -0.7965 -1.9104
  586MOL0     H79074   3.685  11.024   4.941  1.8227  1.4275  2.5953
  586MOL0     H79075   3.668  11.157   4.822 -0.6224 -0.6181  0.0100
  586MOL0     H79076   3.938  11.020   4.828 -0.6755 -2.2642 -0.4269
  586MOL0     H79077   3.796  10.948   4.748  0.0309  0.2711  0.8225
  586MOL0     H79078   3.787  11.137   4.585 -0.6894  2.7693  0.3027
  586MOL0     H79079   3.899  11.225   4.701  2.7897  0.4007 -2.6973
  586MOL0     H79080   3.969  11.001   4.507 -1.1905 -2.6661  2.4711
  586MOL0     H79081   4.052  11.047   4.665 -2.9898  0.5382  1.6718
  586MOL0     H79082   4.169  11.157   4.499 -1.0406 -2.3371 -0.9839
  586MOL0     H79083   4.076  11.282   4.583  2.4947  1.3233 -0.8598
  586MOL0     H79084   4.096  11.279   4.314  1.7766 -0.1931  0.7481
  586MOL0     H79085   4.013  11.127   4.316  0.4036  1.2864 -0.5304
  586MOL0     H79086   3.867  11.357   4.442 -0.7101  3.3429 -2.0726
  586MOL0     H79087   3.811  11.210   4.353 -0.2191  0.6524 -3.4094
  586MOL0     H79088   3.796  11.444   4.225  0.8567  0.8220 -4.0857
  586MOL0     H79089   3.976  11.449   4.243 -1.3285  1.2841 -0.5856
  586MOL0     H79090   3.904  11.385   5.076 -0.2036  0.2395 -2.9778
  586MOL0     H79091   3.806  11.529   5.236 -0.3267 -0.3388  1.8436
  586MOL0     H79092   3.576  11.491   5.592 -0.1690 -0.0734  1.6935
  586MOL0     H79093   3.519  11.561   5.810 -0.6005  0.7414 -0.4345
  586MOL0     H79094   3.336  11.180   7.562  1.0117  0.2201  2.4231
  586MOL0     H79095   3.457  11.081   7.716 -0.9368 -0.2812  1.3239
  586MOL0     H79096   3.797  10.971   8.002 -1.3577 -0.8873  5.2476
  586MOL0     H79097   3.939  10.864   8.131  0.1343  2.0361 -0.4409
  586MOL0     H79098   4.116  10.439   8.030 -1.9668  1.1351 -2.3330
  586MOL0     H79099   3.955  10.400   8.046  1.0656  1.4994 -3.0135
  586MOL0     H79100   4.073  10.290   8.214 -1.7006 -0.0967  2.8602
  586MOL0     H79101   3.994  10.421   8.303 -0.7703  0.9027 -0.9564
  586MOL0     H79102   4.201  10.573   8.259  0.9824 -0.1640 -0.9729
  586MOL0     H79103   4.294  10.421   8.242 -0.1853  0.3959 -0.2275
  586MOL0     H79104   4.112  10.477   8.481 -0.7973  0.3174 -0.9980
  586MOL0     H79105   4.207  10.342   8.466 -0.0348  0.6261  2.6582
  586MOL0     H79106   4.476  10.612   8.630  1.4889 -0.0369 -0.9574
  586MOL0     H79107   3.878  10.497   7.882  2.0899 -0.3034  1.9340
  586MOL0     H79108   3.769  10.524   7.680  1.0918  0.6190 -0.3725
  586MOL0     H79109   3.605  10.572   7.750 -1.3757  2.1695 -0.0003
  586MOL0     H79110   3.697  10.672   7.639 -3.4672  0.5581  0.8387
  587MOL0     O79111   6.683   7.600   8.269  0.6609 -0.0898  0.9906
  587MOL0     C79112   6.649   7.713   8.280  0.0855 -0.0279  0.7646
  587MOL0     O79113   6.590   7.768   8.390  0.7813 -0.0465  0.0701
  587MOL0     C79114   6.541   7.694   8.491  0.7602  0.0519 -0.6716
  587MOL0     C79115   6.521   7.752   8.617 -0.1691  0.2930  0.2002
  587MOL0     C79116   6.440   7.686   8.720 -0.8779 -0.4228 -1.0931
  587MOL0     C79117   6.375   7.568   8.689  1.0164  0.7360 -0.2770
  587MOL0     O79118   6.304   7.499   8.781 -0.4133 -0.5172  0.2532
  587MOL0     C79119   6.348   7.490   8.922  0.0802 -0.6636 -0.1569
  587MOL0     C79120   6.470   7.395   8.939  0.5948 -0.0598 -0.2992
  587MOL0     C79121   6.602   7.461   8.919  0.2706  1.1904  0.1382
  587MOL0     C79122   6.709   7.351   8.938 -0.9386  0.5399 -0.1564
  587MOL0     C79123   6.849   7.410   8.924 -0.0052  0.2042 -0.3430
  587MOL0     C79124   6.888   7.476   8.787 -0.5779  0.0792 -0.9241
  587MOL0     C79125   6.890   7.395   8.658 -0.2925 -0.6274  0.4038
  587MOL0     C79126   6.880   7.470   8.523 -0.1028  0.6239 -0.1781
  587MOL0     N79127   6.948   7.599   8.523  0.3185  0.2431 -0.3126
  587MOL0     C79128   6.869   7.713   8.526 -0.4006  1.1389  0.4407
  587MOL0     C79129   6.950   7.812   8.467 -0.2565  1.2294 -0.4180
  587MOL0     C79130   6.923   7.964   8.453 -0.6632 -0.6802 -0.3738
  587MOL0     C79131   7.044   8.055   8.442  0.4008 -0.0194  0.2657
  587MOL0     C79132   7.003   8.206   8.426 -0.2112  0.3825 -0.0718
  587MOL0     C79133   7.124   8.293   8.406  0.2096 -0.1494 -0.0956
  587MOL0     O79134   7.076   8.422   8.376  0.4433 -0.5464  0.4337
  587MOL0     C79135   7.169   8.498   8.316 -0.2079  0.3863  0.4646
  587MOL0     C79136   7.292   8.538   8.381 -0.1753 -0.4879 -0.6736
  587MOL0     C79137   7.389   8.608   8.311  0.4428 -0.1120  0.2592
  587MOL0     C79138   7.375   8.644   8.176  0.2776  0.0196  0.1723
  587MOL0     C79139   7.480   8.723   8.107  0.6063  0.9761 -0.3276
  587MOL0     O79140   7.603   8.713   8.154  0.1448  0.3523  0.2932
  587MOL0     C79141   7.697   8.812   8.125 -0.7783 -0.2094  0.1769
  587MOL0     C79142   7.667   8.956   8.129  0.0569 -0.4194  0.7561
  587MOL0     C79143   7.770   9.048   8.102 -0.0861  0.2131  0.3950
  587MOL0     C79144   7.891   9.006   8.055 -0.2954  0.5949  0.8457
  587MOL0     O79145   7.972   9.099   8.003  0.5066  0.1196  0.8302
  587MOL0     C79146   8.107   9.103   8.059  0.0688 -0.1252  0.4126
  587MOL0     C79147   8.107   9.148   8.206  0.1216 -0.5476 -0.1107
  587MOL0     C79148   8.239   9.137   8.283  0.1792  0.4013  0.0830
  587MOL0     C79149   8.222   9.191   8.421  0.5614 -0.4643  0.0855
  587MOL0     C79150   8.328   9.150   8.515  0.3110  0.6310 -0.2234
  587MOL0     C79151   8.299   9.220   8.646 -0.7153 -0.4783  0.6292
  587MOL0     C79152   8.401   9.161   8.746 -0.0482 -0.1874  0.5766
  587MOL0     C79153   8.442   9.275   8.849  0.0687  0.5061 -0.2336
  587MOL0    Cl79154   8.296   9.356   8.922  0.1315 -0.5753  0.1711
  587MOL0     C79155   7.928   8.870   8.057 -0.6084 -0.4256 -0.0632
  587MOL0     C79156   7.827   8.781   8.096  0.9415  0.8143 -0.2419
  587MOL0     O79157   7.449   8.786   8.003  0.2678  0.3175  0.3105
  587MOL0     C79158   7.262   8.593   8.111  0.4443  0.7634  0.7145
  587MOL0     C79159   7.161   8.527   8.175 -0.0445  1.2526 -0.5551
  587MOL0     N79160   7.071   7.748   8.438  0.1043  0.1695  0.4506
  587MOL0     N79161   7.059   7.626   8.460 -0.2449 -0.7842 -0.5301
  587MOL0     C79162   6.379   7.515   8.556 -0.2510 -0.4572 -0.2323
  587MOL0     C79163   6.469   7.579   8.468 -0.1865 -0.0819 -0.5479
  587MOL0     C79164   6.684   7.805   8.166  0.0536 -0.6963 -0.2192
  587MOL0     C79165   6.588   7.901   8.148  0.5844 -0.2026  1.0602
  587MOL0     C79166   6.601   7.999   8.046  0.4934  0.9841 -0.1018
  587MOL0     C79167   6.705   7.992   7.956  0.0244 -0.2702  0.1574
  587MOL0     O79168   6.715   8.083   7.849 -0.9266 -0.1101  0.0561
  587MOL0     C79169   6.602   8.141   7.792  0.1600 -0.3925 -0.1774
  587MOL0     C79170   6.636   8.195   7.653 -0.8468  0.2980 -0.1296
  587MOL0     C79171   6.659   8.089   7.539  0.8423 -0.3030 -0.1082
  587MOL0     C79172   6.697   8.145   7.399  0.4398 -0.5353 -0.2656
  587MOL0     C79173   6.694   8.043   7.295  0.2179 -0.6997  1.3674
  587MOL0     C79174   6.694   7.956   7.209  0.3524 -0.2696 -1.2595
  587MOL0     C79175   6.803   7.895   7.972 -0.2924  0.8065  1.2025
  587MOL0     C79176   6.787   7.795   8.065  0.5807 -0.6830 -0.8719
  587MOL0     C79177   6.876   7.671   8.047 -0.6146 -0.4926 -0.0778
  587MOL0     H79178   6.583   7.838   8.637 -0.1503  0.7687 -1.7812
  587MOL0     H79179   6.444   7.731   8.818  2.5289 -2.3043 -0.2034
  587MOL0     H79180   6.368   7.588   8.966  3.4208 -1.7031  0.9272
  587MOL0     H79181   6.272   7.447   8.988 -0.2223  1.0224  0.6370
  587MOL0     H79182   6.459   7.312   8.868 -0.0180 -2.1796  2.1149
  587MOL0     H79183   6.459   7.355   9.040 -0.6408  0.7068 -0.1007
  587MOL0     H79184   6.623   7.544   8.987 -4.0471  1.1257  1.8979
  587MOL0     H79185   6.604   7.504   8.818  1.1354 -2.4263 -1.5657
  587MOL0     H79186   6.699   7.314   9.040  1.1595  1.4456  0.4230
  587MOL0     H79187   6.692   7.266   8.871 -2.4980  1.2192 -0.6763
  587MOL0     H79188   6.868   7.485   9.001  1.0459 -2.4310  2.1067
  587MOL0     H79189   6.921   7.331   8.945  0.7052  1.0312  0.4189
  587MOL0     H79190   6.827   7.564   8.768 -2.4228 -0.7258  0.8866
  587MOL0     H79191   6.990   7.511   8.806  0.3716 -3.9659  3.5332
  587MOL0     H79192   6.812   7.319   8.651 -1.4917  0.6923 -3.5088
  587MOL0     H79193   6.984   7.339   8.651  0.7278  1.1052 -0.7363
  587MOL0     H79194   6.922   7.411   8.442 -2.7255  0.0841 -1.2483
  587MOL0     H79195   6.776   7.486   8.492  0.1159  1.0527 -0.7153
  587MOL0     H79196   6.771   7.734   8.568 -0.9859 -0.0387 -0.2574
  587MOL0     H79197   6.853   7.975   8.370 -2.3706  0.4385  1.1537
  587MOL0     H79198   6.872   7.995   8.545  2.9920 -0.1815  1.6708
  587MOL0     H79199   7.095   8.047   8.538 -0.9624  3.6005  1.4974
  587MOL0     H79200   7.107   8.026   8.358 -0.2336  2.2640 -1.0879
  587MOL0     H79201   6.962   8.248   8.518 -0.8164  0.9681 -0.6027
  587MOL0     H79202   6.927   8.215   8.348 -1.7677 -1.5870  1.1314
  587MOL0     H79203   7.194   8.253   8.332 -0.1972 -2.6865  0.8162
  587MOL0     H79204   7.175   8.304   8.502  0.0732 -0.1440 -0.0237
  587MOL0     H79205   7.294   8.539   8.489 -0.9942  0.2741 -0.6614
  587MOL0     H79206   7.473   8.634   8.374 -0.9216  1.4292  1.5014
  587MOL0     H79207   7.565   8.993   8.133 -0.2520 -0.3808 -3.4217
  587MOL0     H79208   7.767   9.154   8.125 -1.0004  0.3164 -0.1368
  587MOL0     H79209   8.166   9.013   8.039  2.2197  0.5810  2.9415
  587MOL0     H79210   8.169   9.173   8.002  1.0269 -0.4975  0.9881
  587MOL0     H79211   8.083   9.254   8.208  3.0819  0.2243  1.0484
  587MOL0     H79212   8.029   9.101   8.267  1.6610 -0.4958  2.0298
  587MOL0     H79213   8.260   9.030   8.294 -1.4602  0.3175  3.9389
  587MOL0     H79214   8.315   9.195   8.231  2.2216 -2.4109 -0.3425
  587MOL0     H79215   8.123   9.163   8.457 -0.3092  0.6744 -1.3442
  587MOL0     H79216   8.220   9.300   8.412 -2.1125 -0.5844 -1.8317
  587MOL0     H79217   8.430   9.177   8.486  0.0891  2.8029  0.8229
  587MOL0     H79218   8.322   9.041   8.530 -3.5461  0.8327  0.8122
  587MOL0     H79219   8.319   9.325   8.620 -0.1514 -0.6403  0.3983
  587MOL0     H79220   8.193   9.205   8.669 -0.8400  1.3426  1.4129
  587MOL0     H79221   8.498   9.133   8.704 -0.6438 -0.6698 -0.4910
  587MOL0     H79222   8.357   9.075   8.797  0.0823  0.6113  2.1020
  587MOL0     H79223   8.487   9.220   8.932  1.1842 -2.2645 -2.5040
  587MOL0     H79224   8.511   9.338   8.793 -2.6111  0.5214 -3.9075
  587MOL0     H79225   8.014   8.828   8.006 -2.0686 -0.7803 -2.3833
  587MOL0     H79226   7.839   8.675   8.076  0.8350  0.7329  0.1245
  587MOL0     H79227   7.253   8.607   8.004  0.7697  0.5423  0.6577
  587MOL0     H79228   7.075   8.491   8.120 -1.9280 -0.0033  2.9039
  587MOL0     H79229   6.319   7.426   8.538 -2.4316  0.4816  1.7552
  587MOL0     H79230   6.472   7.533   8.369 -4.3207 -2.4372  0.1792
  587MOL0     H79231   6.496   7.906   8.205 -1.9310  0.2335 -2.6768
  587MOL0     H79232   6.522   8.073   8.036  0.6214  1.3696  1.5056
  587MOL0     H79233   6.568   8.228   7.850 -0.3114  1.9831 -3.6946
  587MOL0     H79234   6.522   8.067   7.788 -1.1934  0.8122  2.1060
  587MOL0     H79235   6.733   8.243   7.660 -0.2181 -0.8091 -0.8901
  587MOL0     H79236   6.550   8.257   7.625  0.4597  1.6946 -1.1437
  587MOL0     H79237   6.558   8.046   7.533  1.1300 -1.0517  0.2700
  587MOL0     H79238   6.727   8.007   7.563 -0.7186 -0.8195  3.1482
  587MOL0     H79239   6.621   8.222   7.385 -0.7916 -1.5960  0.2796
  587MOL0     H79240   6.796   8.191   7.396 -0.7870  2.4118  0.8750
  587MOL0     H79241   6.716   7.882   7.135  0.1001 -0.7992 -0.8204
  587MOL0     H79242   6.883   7.889   7.899  0.6960 -2.7833  2.4199
  587MOL0     H79243   6.955   7.694   7.975  2.4852  0.6485  3.3627
  587MOL0     H79244   6.929   7.652   8.140 -1.0078 -0.0334  0.2417
  587MOL0     H79245   6.821   7.589   7.999  0.6991  0.0638 -2.7475
  588MOL0     O79246   6.344  10.960   1.902 -0.1794 -0.2935 -0.9987
  588MOL0     C79247   6.426  10.901   1.975  0.2511 -0.1005  0.0783
  588MOL0     O79248   6.403  10.862   2.108 -0.0240 -0.8503  0.0336
  588MOL0     C79249   6.290  10.932   2.166 -0.4296  0.9872 -0.3371
  588MOL0     C79250   6.196  10.855   2.223 -0.2708  0.2204 -0.1561
  588MOL0     C79251   6.086  10.919   2.271  0.3304 -0.8013  0.1663
  588MOL0     C79252   6.061  11.058   2.270 -0.3888 -0.0535  0.5594
  588MOL0     O79253   5.950  11.120   2.308  0.3530 -0.4400 -0.2798
  588MOL0     C79254   5.830  11.048   2.333  0.4862 -0.1561 -0.1974
  588MOL0     C79255   5.717  11.153   2.344 -0.0422  0.2116 -0.2296
  588MOL0     C79256   5.723  11.264   2.242 -0.2890 -0.3140 -0.5066
  588MOL0     C79257   5.624  11.376   2.273  0.1884  0.1734  0.1099
  588MOL0     C79258   5.475  11.340   2.245  0.0461 -0.3344 -0.1765
  588MOL0     C79259   5.377  11.453   2.272  0.4215  0.2810 -0.5042
  588MOL0     C79260   5.241  11.425   2.208  0.1478  0.0564  0.1740
  588MOL0     C79261   5.215  11.487   2.070  0.0426 -0.4978 -0.6886
  588MOL0     N79262   5.099  11.430   1.996 -0.4191  0.3334  0.2691
  588MOL0     C79263   4.995  11.497   1.950  0.1085 -0.4331  0.5947
  588MOL0     C79264   4.916  11.402   1.890 -0.9786 -0.2671 -0.5492
  588MOL0     C79265   4.790  11.429   1.809  0.2250  0.0583 -0.5430
  588MOL0     C79266   4.678  11.373   1.892 -0.5148 -0.4939  0.5763
  588MOL0     C79267   4.542  11.402   1.840  0.5908 -0.0054 -0.7366
  588MOL0     C79268   4.508  11.335   1.711  0.5034 -0.6454 -0.1556
  588MOL0     O79269   4.368  11.317   1.698 -0.0832 -0.4297 -0.3484
  588MOL0     C79270   4.293  11.397   1.605 -0.0314 -0.9549 -0.1219
  588MOL0     C79271   4.156  11.375   1.601  0.1813 -1.5156 -0.0459
  588MOL0     C79272   4.064  11.455   1.529 -0.1778 -0.4365  0.4695
  588MOL0     C79273   4.113  11.565   1.454  0.2110  0.1709 -0.3195
  588MOL0     C79274   4.022  11.665   1.388 -0.0148  0.3343  0.7729
  588MOL0     O79275   3.894  11.658   1.414 -0.9076  0.4039  0.9239
  588MOL0     C79276   3.798  11.709   1.325  0.0007 -0.5851 -0.3621
  588MOL0     C79277   3.665  11.737   1.371 -0.2696 -0.7812  0.1479
  588MOL0     C79278   3.576  11.804   1.293  0.0712  0.3403 -0.8216
  588MOL0     C79279   3.611  11.840   1.166  0.4477  0.9619  0.3890
  588MOL0     O79280   3.524  11.910   1.080 -0.0320  0.4030  0.0245
  588MOL0     C79281   3.451  12.014   1.133 -0.1393 -0.0189  0.2454
  588MOL0     C79282   3.413  12.111   1.021  0.2359 -0.7205 -1.1804
  588MOL0     C79283   3.538  12.164   0.950  0.4389 -0.0078  0.9463
  588MOL0     C79284   3.524  12.309   0.890 -0.1167 -0.7230 -0.3786
  588MOL0     C79285   3.511  12.402   1.015  0.1239 -1.1410  0.2380
  588MOL0     C79286   3.527  12.548   0.978 -1.1617 -0.5260 -0.1088
  588MOL0     C79287   3.423  12.597   0.880 -0.3363  0.0546 -0.5369
  588MOL0     C79288   3.444  12.736   0.823 -0.8089  1.1101  0.6561
  588MOL0    Cl79289   3.462  12.863   0.946  0.0640 -0.2942 -0.1699
  588MOL0     C79290   3.730  11.800   1.119 -0.0111 -1.9772 -0.1622
  588MOL0     C79291   3.831  11.735   1.195  0.1623 -0.2062  0.6060
  588MOL0     O79292   4.070  11.764   1.326  0.2466  0.9932  0.2741
  588MOL0     C79293   4.254  11.585   1.453  0.0341 -0.3194  0.5350
  588MOL0     C79294   4.341  11.506   1.529 -0.7796 -0.0784 -0.2634
  588MOL0     N79295   4.975  11.280   1.907 -0.2202  0.2299 -0.1496
  588MOL0     N79296   5.089  11.295   1.963  0.4609 -0.1636 -0.4941
  588MOL0     C79297   6.161  11.137   2.218 -0.2248 -0.1878  0.0054
  588MOL0     C79298   6.273  11.070   2.154  1.2082 -1.0980 -0.2815
  588MOL0     C79299   6.545  10.858   1.905 -0.5028 -0.2851 -0.3457
  588MOL0     C79300   6.541  10.846   1.767  0.2807  0.0179 -0.0005
  588MOL0     C79301   6.641  10.796   1.681  0.4541  0.0191  0.1853
  588MOL0     C79302   6.764  10.766   1.744  0.0686 -1.2400  0.3394
  588MOL0     O79303   6.858  10.710   1.662  0.9203 -0.1983  0.4913
  588MOL0     C79304   6.981  10.776   1.642  0.4929 -0.3530 -0.3456
  588MOL0     C79305   7.096  10.670   1.606  0.3195  0.0506 -0.1441
  588MOL0     C79306   7.233  10.729   1.597  0.2456  0.1360 -0.2230
  588MOL0     C79307   7.259  10.824   1.476 -0.5584 -0.1454  0.3191
  588MOL0     C79308   7.379  10.899   1.492  0.4251  0.6863  0.2282
  588MOL0     C79309   7.465  10.981   1.509 -0.1119 -0.4425 -0.0931
  588MOL0     C79310   6.781  10.786   1.882  0.2282  0.0873 -0.0835
  588MOL0     C79311   6.676  10.837   1.957  0.8204  0.2149  0.5948
  588MOL0     C79312   6.718  10.891   2.097 -0.2720 -0.0231  0.4775
  588MOL0     H79313   6.198  10.746   2.224 -0.6694  0.1767 -1.8891
  588MOL0     H79314   6.017  10.856   2.327 -1.9471 -1.0673 -2.6910
  588MOL0     H79315   5.811  10.990   2.242  0.6996 -1.8439  0.7926
  588MOL0     H79316   5.830  10.982   2.420 -3.7618 -0.5685 -0.3001
  588MOL0     H79317   5.727  11.199   2.443  3.7659 -1.8686  0.5253
  588MOL0     H79318   5.620  11.104   2.347 -0.0632  0.1214  3.8531
  588MOL0     H79319   5.690  11.233   2.142  0.3407 -1.5474 -0.3597
  588MOL0     H79320   5.824  11.303   2.229  1.0438 -2.8883  1.1100
  588MOL0     H79321   5.631  11.393   2.381 -0.2018 -0.2424  0.2024
  588MOL0     H79322   5.638  11.474   2.226  0.8734  0.1604  0.2768
  588MOL0     H79323   5.478  11.301   2.142  2.0138 -0.8898  0.0385
  588MOL0     H79324   5.441  11.259   2.310 -2.2489  1.6080  1.1914
  588MOL0     H79325   5.364  11.466   2.380 -2.2289  1.5209 -0.9051
  588MOL0     H79326   5.416  11.545   2.228 -2.0349  1.5788 -0.1658
  588MOL0     H79327   5.156  11.468   2.262 -2.5349 -0.0582 -3.6140
  588MOL0     H79328   5.233  11.317   2.191  0.4002  0.5019 -3.5629
  588MOL0     H79329   5.200  11.594   2.088  1.0300 -0.7617  2.3232
  588MOL0     H79330   5.308  11.466   2.017 -1.1513 -2.4279 -2.1336
  588MOL0     H79331   4.983  11.605   1.947  1.6653 -0.1398 -4.6005
  588MOL0     H79332   4.784  11.537   1.797 -0.3890 -0.0620 -1.4608
  588MOL0     H79333   4.798  11.386   1.709  0.9985 -2.5191  0.5414
  588MOL0     H79334   4.680  11.264   1.893 -2.3334 -0.5684  1.5420
  588MOL0     H79335   4.689  11.415   1.992  2.5473  2.5179 -0.8358
  588MOL0     H79336   4.529  11.509   1.821 -2.3644 -0.1675 -0.2020
  588MOL0     H79337   4.473  11.361   1.915  0.0512 -1.0252 -1.7529
  588MOL0     H79338   4.552  11.235   1.701  0.4198 -0.4880 -2.7694
  588MOL0     H79339   4.553  11.388   1.627 -0.6528 -0.1697 -0.4891
  588MOL0     H79340   4.113  11.283   1.640 -1.8050 -0.1282  1.2636
  588MOL0     H79341   3.958  11.434   1.540  0.0675 -1.8107  0.4310
  588MOL0     H79342   3.640  11.697   1.469  0.5216 -2.3858 -0.2650
  588MOL0     H79343   3.473  11.817   1.325 -0.2025  2.3808 -2.3676
  588MOL0     H79344   3.361  11.982   1.187 -0.6914 -0.0332 -0.6663
  588MOL0     H79345   3.505  12.072   1.209 -0.6831 -0.0972  0.7024
  588MOL0     H79346   3.332  12.082   0.953 -0.2441 -2.6304  0.1086
  588MOL0     H79347   3.361  12.179   1.090 -0.4980 -3.0038  0.6719
  588MOL0     H79348   3.629  12.160   1.010  0.3444  0.5374  1.1321
  588MOL0     H79349   3.547  12.091   0.869  1.3111 -0.7445  1.6886
  588MOL0     H79350   3.430  12.317   0.834 -1.4974 -2.1528  1.6005
  588MOL0     H79351   3.609  12.338   0.827 -0.0830  0.2817  0.1161
  588MOL0     H79352   3.580  12.366   1.091 -0.4865 -1.2783  0.7333
  588MOL0     H79353   3.410  12.394   1.055  0.2624 -0.7154  0.6817
  588MOL0     H79354   3.527  12.622   1.059 -1.8906  0.6676 -1.1680
  588MOL0     H79355   3.630  12.561   0.944 -1.3811  1.0284 -0.2823
  588MOL0     H79356   3.321  12.605   0.920 -1.3532  1.3332 -3.1130
  588MOL0     H79357   3.432  12.534   0.791  0.2927  1.7351 -1.7081
  588MOL0     H79358   3.537  12.730   0.765 -1.7266  1.0664 -0.8619
  588MOL0     H79359   3.361  12.755   0.754 -0.3078 -1.1840 -0.6845
  588MOL0     H79360   3.754  11.821   1.015 -0.4256  3.4677  0.5594
  588MOL0     H79361   3.922  11.707   1.143 -0.4725  0.0491 -0.6734
  588MOL0     H79362   4.296  11.666   1.395  0.6761 -1.5659 -0.8105
  588MOL0     H79363   4.440  11.546   1.547 -0.4967  0.9491 -3.4049
  588MOL0     H79364   6.152  11.245   2.217  0.0872 -0.1192  1.5961
  588MOL0     H79365   6.352  11.130   2.111  0.5900  0.5913  0.8113
  588MOL0     H79366   6.444  10.864   1.722 -0.6294  2.3254  2.6001
  588MOL0     H79367   6.621  10.778   1.576  0.3515  0.8987  0.0520
  588MOL0     H79368   7.017  10.830   1.730  0.4456 -2.2527  0.8871
  588MOL0     H79369   6.962  10.858   1.571  0.4090  0.6988  0.8622
  588MOL0     H79370   7.072  10.620   1.512  3.8114 -0.1181 -1.0931
  588MOL0     H79371   7.092  10.589   1.680  1.6693 -1.4689 -1.6338
  588MOL0     H79372   7.305  10.648   1.583 -1.5997 -1.5790 -0.2307
  588MOL0     H79373   7.254  10.777   1.693 -1.2458 -0.8729  0.6427
  588MOL0     H79374   7.256  10.777   1.377 -4.1394  0.1211  0.1509
  588MOL0     H79375   7.182  10.901   1.462 -0.9605 -0.3195  1.4795
  588MOL0     H79376   7.549  11.047   1.513  1.7380 -2.6856  0.5213
  588MOL0     H79377   6.885  10.779   1.912  0.6718  0.0337 -1.5608
  588MOL0     H79378   6.761  10.992   2.098  2.7185 -1.1911 -0.1114
  588MOL0     H79379   6.629  10.901   2.159  0.6232 -0.2716  1.8382
  588MOL0     H79380   6.781  10.821   2.152 -0.4551  0.6562  1.5731
  589MOL0     O79381   0.807   8.035   0.390  0.1491  1.1035 -0.5245
  589MOL0     C79382   0.865   8.140   0.387 -0.0230  0.2122  0.6396
  589MOL0     O79383   0.948   8.190   0.481  0.7502 -0.6524 -0.4437
  589MOL0     C79384   0.955   8.123   0.605 -0.1473  0.4447  0.2890
  589MOL0     C79385   0.847   8.077   0.681 -0.5083  0.1441 -0.5659
  589MOL0     C79386   0.858   8.037   0.810  1.5510  0.0789  1.2798
  589MOL0     C79387   0.977   8.037   0.876  0.7415  0.7478 -0.2497
  589MOL0     O79388   1.010   7.995   0.999  0.2144 -0.4071 -0.1724
  589MOL0     C79389   0.900   7.971   1.088  0.6528 -0.0454 -0.1070
  589MOL0     C79390   0.941   7.906   1.213  0.4968 -0.2916  0.0005
  589MOL0     C79391   0.819   7.935   1.303  0.2504 -0.6268  0.3933
  589MOL0     C79392   0.824   7.863   1.442 -0.4173  0.5654 -0.6025
  589MOL0     C79393   0.964   7.838   1.509 -0.0510  0.8883  0.0687
  589MOL0     C79394   0.956   7.839   1.664 -0.4726  1.0370  0.5780
  589MOL0     C79395   1.106   7.839   1.708  0.1367  0.3649  0.7332
  589MOL0     C79396   1.192   7.729   1.647  0.0755  0.5969  0.5563
  589MOL0     N79397   1.300   7.683   1.738 -0.6492 -0.2822  0.1192
  589MOL0     C79398   1.292   7.614   1.859 -0.6259 -1.2647 -0.9622
  589MOL0     C79399   1.412   7.595   1.898 -0.3717 -0.6130  0.0734
  589MOL0     C79400   1.450   7.518   2.028 -0.8062  0.3496 -0.4075
  589MOL0     C79401   1.546   7.605   2.121  0.4293  0.6558 -0.5324
  589MOL0     C79402   1.489   7.732   2.191 -1.2344 -0.0346 -0.2736
  589MOL0     C79403   1.397   7.720   2.319 -1.3211  0.1939  0.0626
  589MOL0     O79404   1.283   7.651   2.275  0.1261  1.1436  0.8087
  589MOL0     C79405   1.169   7.718   2.239 -0.1682 -0.3532  0.4259
  589MOL0     C79406   1.157   7.853   2.200  0.5419  0.6470 -0.3700
  589MOL0     C79407   1.025   7.895   2.151 -0.9980  0.6044 -0.2215
  589MOL0     C79408   0.921   7.806   2.146  1.0576 -0.1892 -0.1517
  589MOL0     C79409   0.794   7.867   2.092 -0.1249  0.9721 -0.6641
  589MOL0     O79410   0.675   7.811   2.133 -0.0900  0.3285 -0.0812
  589MOL0     C79411   0.580   7.904   2.160 -0.4446  0.6123  0.3385
  589MOL0     C79412   0.611   8.030   2.233 -0.8941  0.6765 -0.0381
  589MOL0     C79413   0.516   8.119   2.264  0.4199  0.3609 -0.2999
  589MOL0     C79414   0.382   8.092   2.232 -0.1219  0.1247 -0.2103
  589MOL0     O79415   0.281   8.175   2.262 -0.0033 -0.1214  0.6917
  589MOL0     C79416   0.247   8.200   2.401 -0.4884 -0.7677  0.3340
  589MOL0     C79417   0.132   8.305   2.400  0.7075  0.0592 -0.0056
  589MOL0     C79418   0.006   8.242   2.330 -1.0719  0.0994  0.5944
  589MOL0     C79419  -0.114   8.313   2.383 -0.2303  0.0969 -0.5064
  589MOL0     C79420  -0.243   8.256   2.335 -0.3858  0.2633 -0.0345
  589MOL0     C79421  -0.364   8.324   2.366 -0.3621 -0.1070 -0.0094
  589MOL0     C79422  -0.411   8.306   2.513  0.0187  0.4395 -0.2895
  589MOL0     C79423  -0.456   8.439   2.571  1.3876 -0.4341 -0.0815
  589MOL0    Cl79424  -0.577   8.529   2.464  0.2293 -0.1298  0.5865
  589MOL0     C79425   0.354   7.994   2.150  0.5911  0.4821 -0.3561
  589MOL0     C79426   0.451   7.892   2.122  0.5724  0.4580 -0.0803
  589MOL0     O79427   0.803   7.963   2.020  0.6895  0.1679  0.4394
  589MOL0     C79428   0.934   7.676   2.181 -1.4170 -0.3519 -0.5626
  589MOL0     C79429   1.061   7.631   2.224 -0.0365  0.7243  0.6604
  589MOL0     N79430   1.498   7.650   1.808  0.0829  0.4541 -0.4804
  589MOL0     N79431   1.431   7.695   1.704  0.6976  0.5930  0.0409
  589MOL0     C79432   1.092   8.076   0.803  0.5474 -1.1355 -0.0982
  589MOL0     C79433   1.084   8.125   0.672 -0.0843 -0.3809 -0.2274
  589MOL0     C79434   0.852   8.215   0.257  0.7602  0.1717  0.7737
  589MOL0     C79435   0.930   8.330   0.239 -0.5082  0.2955 -0.2494
  589MOL0     C79436   0.917   8.401   0.124  0.4467  0.6825  0.2917
  589MOL0     C79437   0.816   8.373   0.032 -0.5363 -0.5192 -0.3162
  589MOL0     O79438   0.804   8.466  -0.068  0.5709  0.3024  0.5640
  589MOL0     C79439   0.673   8.529  -0.094 -0.0869  0.0800  0.0345
  589MOL0     C79440   0.680   8.667  -0.178 -0.4349  0.6694  1.2264
  589MOL0     C79441   0.784   8.765  -0.112 -0.0034  0.1311  0.5919
  589MOL0     C79442   0.804   8.879  -0.202  1.2176 -0.0344 -0.2062
  589MOL0     C79443   0.682   8.933  -0.256 -0.2193 -0.6830 -0.6650
  589MOL0     C79444   0.590   8.998  -0.297 -0.1718  0.0614 -0.6116
  589MOL0     C79445   0.726   8.271   0.058  0.0359 -0.5257  1.1923
  589MOL0     C79446   0.745   8.178   0.161 -0.5382 -0.5034 -0.2473
  589MOL0     C79447   0.650   8.059   0.175 -0.6169 -0.4129  1.2367
  589MOL0     H79448   0.748   8.079   0.637 -0.9856  1.8627  0.4841
  589MOL0     H79449   0.769   7.998   0.858  1.7598  3.2906  4.7231
  589MOL0     H79450   0.846   8.066   1.099  0.6020 -0.0827 -0.0260
  589MOL0     H79451   0.820   7.911   1.044 -1.4740  1.8571  0.9091
  589MOL0     H79452   1.037   7.940   1.254  0.1150 -0.1285  0.7852
  589MOL0     H79453   0.933   7.797   1.207 -4.9757 -0.2465  1.6431
  589MOL0     H79454   0.723   7.915   1.256  0.1289 -0.1051  0.4191
  589MOL0     H79455   0.816   8.041   1.328 -0.9275 -0.7366  0.7986
  589MOL0     H79456   0.749   7.915   1.502 -1.9778  1.0828 -2.8392
  589MOL0     H79457   0.787   7.761   1.429  2.4857 -0.6682  0.0820
  589MOL0     H79458   1.015   7.754   1.462 -1.2553  0.8664 -1.2818
  589MOL0     H79459   1.027   7.923   1.484  0.3447  1.4887  2.7463
  589MOL0     H79460   0.918   7.938   1.691 -1.0218  1.4627 -1.5367
  589MOL0     H79461   0.898   7.759   1.710 -1.4998  0.5052 -1.5030
  589MOL0     H79462   1.098   7.810   1.814  2.5150 -1.5148  0.4718
  589MOL0     H79463   1.146   7.939   1.691 -0.3846  0.4259 -0.1822
  589MOL0     H79464   1.137   7.639   1.618  2.1194 -0.0369 -1.6505
  589MOL0     H79465   1.238   7.774   1.559 -2.9523  0.0417 -1.4545
  589MOL0     H79466   1.210   7.592   1.926  1.5257  0.7138  2.6784
  589MOL0     H79467   1.366   7.472   2.081  1.5613 -3.9499  0.0381
  589MOL0     H79468   1.511   7.431   2.005  0.7652  1.7490 -1.7625
  589MOL0     H79469   1.567   7.534   2.202 -0.8949 -0.7338 -1.3390
  589MOL0     H79470   1.640   7.635   2.074  1.5836 -2.3793 -0.4245
  589MOL0     H79471   1.447   7.810   2.127  1.9236  0.7053 -1.6470
  589MOL0     H79472   1.585   7.764   2.232  1.7575 -2.9030 -4.1354
  589MOL0     H79473   1.380   7.819   2.362  1.4081 -0.7476  3.7964
  589MOL0     H79474   1.459   7.655   2.381 -2.2466 -0.2022  0.5939
  589MOL0     H79475   1.244   7.917   2.199 -0.4224  2.3939  4.0103
  589MOL0     H79476   1.021   8.001   2.128 -1.2649  0.8672  0.9346
  589MOL0     H79477   0.711   8.052   2.271 -0.9175 -1.1112  1.1646
  589MOL0     H79478   0.549   8.207   2.320  0.1456  0.6529 -0.5953
  589MOL0     H79479   0.211   8.116   2.461  0.3998 -1.0964  0.4111
  589MOL0     H79480   0.342   8.240   2.437  1.1290 -3.6961 -0.3935
  589MOL0     H79481   0.109   8.338   2.502 -1.4388 -2.4137  0.4269
  589MOL0     H79482   0.160   8.392   2.341 -0.3017 -0.1959 -0.8807
  589MOL0     H79483   0.014   8.263   2.223 -0.5447  1.9697  0.9636
  589MOL0     H79484   0.005   8.133   2.335  1.6313  0.0657  2.1368
  589MOL0     H79485  -0.113   8.419   2.356 -0.9728  0.1175 -0.4898
  589MOL0     H79486  -0.117   8.305   2.492  2.5053 -1.6740 -0.4745
  589MOL0     H79487  -0.242   8.151   2.365 -1.2842 -0.4361 -2.2122
  589MOL0     H79488  -0.240   8.254   2.225 -1.7536  0.4714 -0.0868
  589MOL0     H79489  -0.359   8.428   2.333  1.0987 -0.4522 -0.9424
  589MOL0     H79490  -0.445   8.291   2.300 -0.9061 -1.0286  1.0717
  589MOL0     H79491  -0.324   8.274   2.571  0.0651  1.4431  0.2101
  589MOL0     H79492  -0.492   8.235   2.531  1.4644 -1.6998 -1.7195
  589MOL0     H79493  -0.497   8.419   2.671  1.6455  0.4735  0.2151
  589MOL0     H79494  -0.380   8.513   2.599  0.9392  0.0717 -0.1910
  589MOL0     H79495   0.251   7.977   2.123  0.1160 -0.6984  1.9474
  589MOL0     H79496   0.425   7.812   2.053 -1.3615  3.0819 -2.6147
  589MOL0     H79497   0.843   7.617   2.172 -0.6478 -1.5972 -0.3863
  589MOL0     H79498   1.077   7.527   2.250 -0.4091  1.0146  2.1750
  589MOL0     H79499   1.194   8.065   0.838  1.4443  0.9563 -1.8622
  589MOL0     H79500   1.176   8.160   0.628 -0.3111 -3.0035 -3.1255
  589MOL0     H79501   0.984   8.387   0.313 -1.3053  1.6847 -0.6834
  589MOL0     H79502   0.985   8.483   0.102  1.3209 -0.5761 -2.0546
  589MOL0     H79503   0.626   8.547   0.002 -0.7270  0.0457 -0.2703
  589MOL0     H79504   0.606   8.469  -0.156 -3.7739 -0.4441  4.0902
  589MOL0     H79505   0.583   8.716  -0.187 -0.9740 -0.4818  0.4206
  589MOL0     H79506   0.723   8.652  -0.277 -1.3086  1.8211  0.6469
  589MOL0     H79507   0.878   8.713  -0.092 -1.0467 -2.1258 -0.0690
  589MOL0     H79508   0.729   8.803  -0.026  0.3114 -0.5138  1.0895
  589MOL0     H79509   0.850   8.957  -0.140  1.0485 -0.6370  0.6994
  589MOL0     H79510   0.871   8.849  -0.283 -2.3678 -4.6833 -1.8867
  589MOL0     H79511   0.510   9.058  -0.334 -0.8166  0.1726  0.8819
  589MOL0     H79512   0.648   8.259  -0.016  1.1555  2.5348 -0.7236
  589MOL0     H79513   0.576   8.073   0.253 -1.6591  0.3875  0.1296
  589MOL0     H79514   0.598   8.048   0.080  0.7516 -0.0724  0.4146
  589MOL0     H79515   0.709   7.966   0.180 -1.1164 -0.7575  0.7709
  590MOL0     O79516   5.880   8.328   3.699 -0.0676 -0.0042 -0.0227
  590MOL0     C79517   5.769   8.350   3.648  0.0249 -1.2492  0.5030
  590MOL0     O79518   5.747   8.449   3.551 -0.2523  0.0744  0.0557
  590MOL0     C79519   5.839   8.548   3.546 -0.3266  0.4992  0.0122
  590MOL0     C79520   5.941   8.531   3.457  0.2343 -0.1283 -0.3034
  590MOL0     C79521   6.038   8.633   3.448 -0.4794  0.8118  0.6885
  590MOL0     C79522   6.029   8.747   3.525 -0.1068 -0.1364  0.5078
  590MOL0     O79523   6.129   8.849   3.521 -0.5484  0.0628  0.1741
  590MOL0     C79524   6.219   8.880   3.625  0.0821  0.3611  0.3771
  590MOL0     C79525   6.217   9.028   3.660 -0.9760  0.1654 -0.2165
  590MOL0     C79526   6.317   9.057   3.772  0.7845  0.4484  0.2908
  590MOL0     C79527   6.320   9.215   3.790 -0.0462  0.9857 -0.7560
  590MOL0     C79528   6.419   9.240   3.912  0.1853 -0.8321  0.8454
  590MOL0     C79529   6.425   9.391   3.948 -0.2847  0.5524  0.4285
  590MOL0     C79530   6.294   9.449   3.997  0.2614 -0.1519  0.2525
  590MOL0     C79531   6.302   9.599   3.986 -0.2820 -0.6375 -0.5953
  590MOL0     N79532   6.194   9.652   4.074 -0.6111  0.1769 -0.4099
  590MOL0     C79533   6.151   9.782   4.059  0.1401 -0.9242 -0.2746
  590MOL0     C79534   6.034   9.783   4.128  0.1448 -0.2310  0.7097
  590MOL0     C79535   5.952   9.905   4.153 -0.2107 -0.2944  0.4253
  590MOL0     C79536   5.973  10.003   4.035  0.0040 -0.0978 -0.0316
  590MOL0     C79537   5.882  10.116   4.065 -0.3916 -0.3687 -0.5220
  590MOL0     C79538   5.900  10.245   3.984 -0.5961  0.7563  1.0460
  590MOL0     O79539   5.911  10.209   3.846 -0.4557 -0.0814  0.0146
  590MOL0     C79540   5.916  10.318   3.758 -0.6713  0.4257 -0.9692
  590MOL0     C79541   5.951  10.281   3.629 -0.2643 -0.1005  0.1455
  590MOL0     C79542   5.959  10.369   3.524 -0.2790  1.3567  0.4977
  590MOL0     C79543   5.918  10.500   3.545 -0.2608 -0.0219  0.2466
  590MOL0     C79544   5.917  10.600   3.436 -0.4179 -0.0801 -0.8166
  590MOL0     O79545   5.813  10.687   3.446  0.4348 -0.0708  0.3905
  590MOL0     C79546   5.774  10.775   3.356 -0.1270 -0.3251  0.4779
  590MOL0     C79547   5.686  10.871   3.397 -0.1880 -1.1682 -1.0247
  590MOL0     C79548   5.645  10.974   3.318  0.4534  0.5417 -0.5316
  590MOL0     C79549   5.678  10.982   3.185  0.7224  0.2951  0.2187
  590MOL0     O79550   5.644  11.080   3.090  0.8269  0.4953 -1.1247
  590MOL0     C79551   5.520  11.139   3.112  0.0521  0.2469  0.5065
  590MOL0     C79552   5.416  11.039   3.055 -1.4135 -0.0088 -0.8568
  590MOL0     C79553   5.286  11.112   3.043 -0.2441  0.3188  0.1002
  590MOL0     C79554   5.175  11.016   2.971  0.6109  0.5326 -0.0712
  590MOL0     C79555   5.029  11.059   2.982 -0.0316 -0.3558  0.0946
  590MOL0     C79556   4.989  11.162   2.890 -0.9354  0.0874  0.3970
  590MOL0     C79557   4.842  11.194   2.894 -0.0332  1.1878  0.7431
  590MOL0     C79558   4.812  11.288   3.010 -0.4135  1.0177 -0.2846
  590MOL0    Cl79559   4.635  11.267   3.023 -0.3805 -0.4160  0.1077
  590MOL0     C79560   5.761  10.881   3.135 -0.3482  0.6922 -0.1303
  590MOL0     C79561   5.808  10.775   3.220  0.1713  0.5348 -0.4195
  590MOL0     O79562   6.012  10.605   3.353 -0.3727 -0.1037 -0.2613
  590MOL0     C79563   5.876  10.540   3.677  0.6172  0.4954  0.6019
  590MOL0     C79564   5.884  10.453   3.786  0.1582 -0.4179  0.4296
  590MOL0     N79565   6.009   9.658   4.175 -0.1232 -0.4080  0.4597
  590MOL0     N79566   6.111   9.586   4.158  1.0381 -0.1330  0.7969
  590MOL0     C79567   5.929   8.767   3.611 -0.1152  0.3511 -0.2929
  590MOL0     C79568   5.832   8.663   3.626  0.2233 -0.4022 -0.2496
  590MOL0     C79569   5.646   8.278   3.677  0.8127  0.8609  1.1921
  590MOL0     C79570   5.563   8.250   3.561  0.9389 -0.3044  0.4186
  590MOL0     C79571   5.456   8.162   3.571 -1.2288 -0.0390 -0.2831
  590MOL0     C79572   5.431   8.100   3.690 -0.2187  0.0050  0.0760
  590MOL0     O79573   5.337   8.008   3.725 -0.0189 -0.3274  0.3131
  590MOL0     C79574   5.283   7.959   3.601  0.3647 -0.7313  0.3738
  590MOL0     C79575   5.205   7.840   3.638  0.1666 -0.2392 -0.4160
  590MOL0     C79576   5.170   7.745   3.526  0.5991 -0.8140  0.1878
  590MOL0     C79577   5.115   7.617   3.593  0.1483  0.0108 -0.4088
  590MOL0     C79578   4.978   7.634   3.640  0.1649 -1.2923 -0.0477
  590MOL0     C79579   4.873   7.677   3.689 -0.1319  0.5984  0.3966
  590MOL0     C79580   5.506   8.129   3.802 -0.1781 -0.0167 -0.4465
  590MOL0     C79581   5.609   8.220   3.797 -0.9291  0.6378 -0.1423
  590MOL0     C79582   5.682   8.250   3.920 -0.2748  0.1521  0.2616
  590MOL0     H79583   5.939   8.447   3.389 -0.1247  0.2422 -0.7503
  590MOL0     H79584   6.116   8.612   3.376 -1.2983 -1.1628  0.3277
  590MOL0     H79585   6.196   8.827   3.718  0.5539 -0.8847 -0.1861
  590MOL0     H79586   6.320   8.851   3.593  0.8179 -0.8337  3.3971
  590MOL0     H79587   6.117   9.066   3.684 -0.8482 -0.8418  2.1288
  590MOL0     H79588   6.251   9.082   3.571 -0.1397  0.5560  0.3288
  590MOL0     H79589   6.414   9.008   3.754 -0.0677 -0.6948 -1.5234
  590MOL0     H79590   6.266   9.014   3.859 -2.5074  3.3016 -0.0028
  590MOL0     H79591   6.354   9.267   3.701  1.7284 -0.4665 -0.9984
  590MOL0     H79592   6.221   9.254   3.814  0.3502  1.9651 -0.6998
  590MOL0     H79593   6.407   9.178   4.002  3.2455 -0.1432  1.8569
  590MOL0     H79594   6.523   9.217   3.889 -0.4275 -1.0409 -2.0990
  590MOL0     H79595   6.496   9.419   4.026  0.1076  2.4231 -0.5615
  590MOL0     H79596   6.452   9.449   3.859  1.3693 -0.7656  0.0127
  590MOL0     H79597   6.295   9.413   4.100  0.6284 -1.2483 -0.1181
  590MOL0     H79598   6.204   9.403   3.955  2.9223 -4.0415 -1.7372
  590MOL0     H79599   6.398   9.636   4.022  1.3236 -1.6455 -3.5189
  590MOL0     H79600   6.279   9.627   3.883 -0.8480 -0.1433 -0.3387
  590MOL0     H79601   6.205   9.863   4.012 -1.1280  0.6420  0.8646
  590MOL0     H79602   5.846   9.876   4.157 -0.5932  1.1273  1.0747
  590MOL0     H79603   5.982   9.955   4.245 -0.1807 -3.0299  2.0245
  590MOL0     H79604   6.075  10.044   4.040 -0.1917  0.4882 -0.6563
  590MOL0     H79605   5.946   9.962   3.937 -3.0537  1.1436  0.1821
  590MOL0     H79606   5.890  10.137   4.172 -2.1431  1.7834 -0.7394
  590MOL0     H79607   5.777  10.089   4.060 -1.2344  2.0437  1.9711
  590MOL0     H79608   5.991  10.298   4.015 -0.2304  1.1659 -0.6417
  590MOL0     H79609   5.818  10.315   4.002  0.8845  2.9941 -0.4542
  590MOL0     H79610   5.973  10.174   3.624  1.5649  0.2967 -2.5412
  590MOL0     H79611   5.991  10.339   3.425  1.0749  1.6742  0.8081
  590MOL0     H79612   5.684  10.877   3.505 -1.1403 -2.7776 -0.9245
  590MOL0     H79613   5.593  11.048   3.378  0.2798  0.6598 -0.8269
  590MOL0     H79614   5.496  11.167   3.215 -4.3469 -0.8868 -0.0081
  590MOL0     H79615   5.527  11.223   3.043  1.3850 -1.0753 -1.0601
  590MOL0     H79616   5.465  10.994   2.968  2.6225 -0.0125  1.1772
  590MOL0     H79617   5.412  10.967   3.137  1.2234  2.9981  2.2220
  590MOL0     H79618   5.246  11.148   3.138  3.1690  3.3523  0.6159
  590MOL0     H79619   5.309  11.199   2.980  0.4536 -0.9324 -1.4555
  590MOL0     H79620   5.177  10.923   3.028 -1.9847  1.7926  2.3288
  590MOL0     H79621   5.200  11.001   2.866 -0.7159 -3.3236  0.0178
  590MOL0     H79622   5.017  11.086   3.087  0.2304 -1.4692  0.4262
  590MOL0     H79623   4.963  10.976   2.955  0.1519  0.4162 -3.1417
  590MOL0     H79624   5.042  11.255   2.913  0.9488 -0.7114 -0.4847
  590MOL0     H79625   5.023  11.130   2.791  5.2076 -1.2021  2.4601
  590MOL0     H79626   4.785  11.100   2.896  3.2843 -1.0277 -0.5625
  590MOL0     H79627   4.807  11.243   2.802 -3.7481 -2.7219 -0.2940
  590MOL0     H79628   4.854  11.258   3.106  1.1476  1.2462 -0.8670
  590MOL0     H79629   4.842  11.391   2.989 -0.3354  1.0424 -0.0503
  590MOL0     H79630   5.784  10.879   3.030 -1.9076 -0.0748 -0.4937
  590MOL0     H79631   5.861  10.689   3.180  1.4295 -0.3700  2.8460
  590MOL0     H79632   5.840  10.641   3.686 -2.6884 -0.5458  0.4399
  590MOL0     H79633   5.846  10.492   3.879 -0.9386 -0.1200 -0.1238
  590MOL0     H79634   5.932   8.862   3.663  2.5391  0.1434  0.0608
  590MOL0     H79635   5.756   8.659   3.703  1.0654 -1.3648  0.5623
  590MOL0     H79636   5.588   8.289   3.463  1.0015 -2.5085 -0.5137
  590MOL0     H79637   5.402   8.132   3.482 -0.2180 -0.5541 -0.7430
  590MOL0     H79638   5.349   7.928   3.520 -2.4665 -2.1221 -1.5829
  590MOL0     H79639   5.207   8.029   3.562  1.3489  0.0442 -0.2033
  590MOL0     H79640   5.115   7.882   3.685 -0.8907 -3.1442  0.3345
  590MOL0     H79641   5.259   7.789   3.717 -2.7349  1.1711  2.7025
  590MOL0     H79642   5.253   7.723   3.459  0.1557 -0.2778 -0.5485
  590MOL0     H79643   5.083   7.780   3.471  1.3911 -1.0048 -1.2326
  590MOL0     H79644   5.124   7.527   3.533 -0.2003  0.8693 -1.7865
  590MOL0     H79645   5.170   7.598   3.686  1.8883  1.6345 -1.0483
  590MOL0     H79646   4.795   7.724   3.744 -0.0466  0.2382  0.8286
  590MOL0     H79647   5.487   8.076   3.895 -1.3697  1.3687  0.1356
  590MOL0     H79648   5.740   8.342   3.909 -0.7453  0.7556  2.4099
  590MOL0     H79649   5.608   8.267   3.999 -0.3726  1.8101 -0.1381
  590MOL0     H79650   5.747   8.167   3.948  0.8710  1.2834  1.0452
  591MOL0     O79651   0.030   1.158   3.906  0.2765 -0.5264  0.5367
  591MOL0     C79652  -0.089   1.188   3.870  0.3666  0.1516 -0.6854
  591MOL0     O79653  -0.179   1.105   3.806 -0.0094  0.6753 -0.8882
  591MOL0     C79654  -0.168   0.965   3.821  0.0803  0.7323  1.4792
  591MOL0     C79655  -0.093   0.889   3.911  0.5421 -0.4375 -0.4451
  591MOL0     C79656  -0.116   0.752   3.920  0.1460 -0.8506 -0.0125
  591MOL0     C79657  -0.195   0.682   3.816  0.4710 -0.5307 -0.8028
  591MOL0     O79658  -0.211   0.548   3.825 -0.0752 -0.8070  0.0657
  591MOL0     C79659  -0.246   0.500   3.950 -0.2099 -0.0229  0.6963
  591MOL0     C79660  -0.259   0.341   3.951 -0.0558 -0.6817  0.0650
  591MOL0     C79661  -0.114   0.280   3.924  0.4541 -0.5256  0.2410
  591MOL0     C79662  -0.101   0.150   3.995 -0.7071  0.3428 -1.6192
  591MOL0     C79663   0.033   0.084   3.967 -0.0404  0.2608 -1.0656
  591MOL0     C79664   0.052   0.042   3.820  1.0418 -0.7818  0.4874
  591MOL0     C79665   0.152  -0.073   3.794 -0.4919  0.6541 -0.4080
  591MOL0     C79666   0.195  -0.079   3.646 -0.4656  0.1254 -0.3075
  591MOL0     N79667   0.305   0.017   3.612  0.3884 -0.3548  0.0362
  591MOL0     C79668   0.294   0.141   3.560 -0.0214 -0.0117 -1.0976
  591MOL0     C79669   0.421   0.194   3.557  0.3705  0.7171  0.0502
  591MOL0     C79670   0.473   0.316   3.496  0.7293  0.2633 -0.2067
  591MOL0     C79671   0.470   0.440   3.587  0.3044  0.9077 -0.4225
  591MOL0     C79672   0.484   0.565   3.496 -0.6058 -0.9085 -0.2406
  591MOL0     C79673   0.489   0.703   3.571  0.1627  0.3209  0.1265
  591MOL0     O79674   0.600   0.721   3.664 -0.9054  0.8797  0.1526
  591MOL0     C79675   0.609   0.849   3.713  0.3862 -0.3170 -0.2874
  591MOL0     C79676   0.624   0.858   3.854 -0.1321  0.3488 -1.0444
  591MOL0     C79677   0.621   0.980   3.926  0.6936 -0.2335  0.4306
  591MOL0     C79678   0.609   1.102   3.853 -0.8965  0.0912 -0.2609
  591MOL0     C79679   0.606   1.228   3.927  0.4362  0.3922  0.0353
  591MOL0     O79680   0.660   1.337   3.866 -0.6484  0.0748  0.2756
  591MOL0     C79681   0.679   1.459   3.904 -1.5616 -0.4683  0.3001
  591MOL0     C79682   0.714   1.486   4.039 -0.9592  0.2370  0.6378
  591MOL0     C79683   0.733   1.620   4.072  1.0068  0.9774 -0.1103
  591MOL0     C79684   0.711   1.729   3.979  0.1979  0.3629  0.0774
  591MOL0     O79685   0.742   1.858   4.008  0.2716 -0.4035 -0.7802
  591MOL0     C79686   0.756   1.902   4.144 -0.2150  0.4049  0.3419
  591MOL0     C79687   0.778   2.052   4.142  0.5442  0.0141 -0.1537
  591MOL0     C79688   0.889   2.098   4.051  0.1141  0.8102  0.7900
  591MOL0     C79689   1.017   2.018   4.044  0.0862  0.8071  0.3470
  591MOL0     C79690   1.106   2.069   3.927 -0.2944 -0.1830  0.5102
  591MOL0     C79691   1.236   1.994   3.905 -0.2994 -0.8435 -0.8321
  591MOL0     C79692   1.338   1.985   4.025  0.2278  0.2059  0.0999
  591MOL0     C79693   1.463   1.901   3.993  0.7217 -0.4061  0.3686
  591MOL0    Cl79694   1.405   1.734   3.953  0.4703  0.0219  0.0590
  591MOL0     C79695   0.676   1.696   3.846  0.1657  0.1955 -0.3512
  591MOL0     C79696   0.663   1.560   3.811 -0.1472  0.1610  0.4811
  591MOL0     O79697   0.567   1.231   4.047 -0.0303 -0.0396  0.7922
  591MOL0     C79698   0.600   1.096   3.712 -0.6335 -0.3954  0.0731
  591MOL0     C79699   0.609   0.974   3.641 -0.1927  0.7546  0.3332
  591MOL0     N79700   0.498   0.106   3.615  0.4285  0.4733 -1.4448
  591MOL0     N79701   0.430   0.004   3.647  0.3701 -1.0438  0.1951
  591MOL0     C79702  -0.266   0.760   3.720 -0.0313 -0.0160 -0.1521
  591MOL0     C79703  -0.245   0.896   3.725 -0.1430 -0.3065 -0.4713
  591MOL0     C79704  -0.137   1.316   3.878 -0.0900 -0.0143  1.1853
  591MOL0     C79705  -0.215   1.375   3.768 -0.0570 -0.8761 -0.3629
  591MOL0     C79706  -0.283   1.495   3.778 -0.5116 -0.5853 -0.1410
  591MOL0     C79707  -0.274   1.574   3.886  0.2435  0.0213 -0.2477
  591MOL0     O79708  -0.337   1.695   3.874  0.2381 -0.3926 -0.0301
  591MOL0     C79709  -0.279   1.811   3.935 -0.1597 -0.8611  0.3168
  591MOL0     C79710  -0.339   1.940   3.872 -0.5786  0.3158  0.5154
  591MOL0     C79711  -0.282   1.968   3.728 -0.2982  0.6304 -0.4174
  591MOL0     C79712  -0.129   1.987   3.718  0.5673  1.0050  0.2928
  591MOL0     C79713  -0.085   2.049   3.588 -0.2834  0.3565 -0.4049
  591MOL0     C79714  -0.044   2.107   3.495 -0.6000  0.5247  1.6565
  591MOL0     C79715  -0.215   1.520   3.997  0.6267  0.0935 -0.6876
  591MOL0     C79716  -0.135   1.401   3.996 -0.1783 -0.0902  0.1526
  591MOL0     C79717  -0.053   1.369   4.115 -0.4744  1.2665 -0.3060
  591MOL0     H79718  -0.026   0.940   3.980 -0.2373  1.8902 -1.3089
  591MOL0     H79719  -0.051   0.703   3.991  0.1554 -4.1001 -2.0654
  591MOL0     H79720  -0.174   0.536   4.023  0.4927 -2.0840  1.0802
  591MOL0     H79721  -0.347   0.542   3.959  0.2425  0.7715  2.2457
  591MOL0     H79722  -0.321   0.308   3.867 -0.7148 -2.7201  1.2763
  591MOL0     H79723  -0.312   0.304   4.039  0.5364 -4.9756 -1.1479
  591MOL0     H79724  -0.036   0.345   3.965 -0.1421  1.3954 -1.5168
  591MOL0     H79725  -0.102   0.258   3.818  3.3351 -1.5236  0.6925
  591MOL0     H79726  -0.115   0.157   4.103  0.5483  0.4549 -1.4519
  591MOL0     H79727  -0.182   0.081   3.968 -0.5216  0.0352 -1.3868
  591MOL0     H79728   0.118   0.140   4.008 -1.1247  2.2945 -1.4280
  591MOL0     H79729   0.029  -0.004   4.032 -1.4725 -0.3966 -2.0041
  591MOL0     H79730  -0.045   0.017   3.776 -1.9844  2.2241  4.6615
  591MOL0     H79731   0.087   0.133   3.771 -1.1194  1.0758  2.1508
  591MOL0     H79732   0.104  -0.169   3.818 -1.2430  1.0328 -0.3637
  591MOL0     H79733   0.236  -0.064   3.863  0.8396 -0.5649 -1.7890
  591MOL0     H79734   0.233  -0.179   3.623 -0.1793  0.5336 -1.7440
  591MOL0     H79735   0.111  -0.065   3.576 -2.3792 -4.4131  0.6714
  591MOL0     H79736   0.205   0.196   3.532 -0.5176 -1.0200 -1.5792
  591MOL0     H79737   0.576   0.309   3.460  0.4582 -1.4168 -0.7473
  591MOL0     H79738   0.412   0.333   3.406  1.5477 -0.5562 -0.9392
  591MOL0     H79739   0.371   0.440   3.633  1.1060 -0.8068  1.4914
  591MOL0     H79740   0.544   0.428   3.666  0.9420 -0.4084 -1.1748
  591MOL0     H79741   0.384   0.567   3.451 -1.4249  0.9054  1.5096
  591MOL0     H79742   0.569   0.557   3.427  1.0090  1.3914  1.3604
  591MOL0     H79743   0.394   0.710   3.625  1.7982  0.2635  3.1940
  591MOL0     H79744   0.485   0.780   3.493 -1.9059  1.5994  1.3788
  591MOL0     H79745   0.657   0.775   3.916  0.1445  2.4025  1.7425
  591MOL0     H79746   0.624   0.992   4.034 -0.1697 -0.8287  0.5272
  591MOL0     H79747   0.749   1.411   4.109 -0.8569  1.2798  1.7564
  591MOL0     H79748   0.780   1.652   4.165  1.0653 -0.8073  0.5037
  591MOL0     H79749   0.672   1.864   4.203  0.6180 -0.6941  0.8588
  591MOL0     H79750   0.850   1.872   4.192 -1.5146 -1.0979  2.1017
  591MOL0     H79751   0.685   2.097   4.107  0.2891  0.8841  1.5695
  591MOL0     H79752   0.796   2.090   4.243 -0.3827  0.0889 -0.0124
  591MOL0     H79753   0.852   2.105   3.949 -0.5815  0.9102  1.0428
  591MOL0     H79754   0.915   2.204   4.058 -2.1415  1.8162 -3.2470
  591MOL0     H79755   0.974   1.920   4.021  1.3024  0.8381 -2.4614
  591MOL0     H79756   1.064   2.007   4.142  1.0645  1.1746 -0.0745
  591MOL0     H79757   1.132   2.174   3.948  0.0635 -0.4719  1.5973
  591MOL0     H79758   1.058   2.043   3.833  1.0633  0.7827 -0.4963
  591MOL0     H79759   1.208   1.892   3.877 -1.5089 -0.0673 -2.6906
  591MOL0     H79760   1.283   2.038   3.817  2.1879 -1.4584  0.1115
  591MOL0     H79761   1.287   1.953   4.116  3.1359  1.7793  2.4786
  591MOL0     H79762   1.366   2.083   4.065 -2.3950 -0.8450  5.4505
  591MOL0     H79763   1.511   1.940   3.903  0.9605 -1.6506 -0.0693
  591MOL0     H79764   1.528   1.904   4.081  3.5788 -1.8152 -1.5327
  591MOL0     H79765   0.666   1.777   3.774  0.7941  0.1706 -0.4738
  591MOL0     H79766   0.635   1.536   3.709  0.5749  3.1864 -0.5170
  591MOL0     H79767   0.586   1.190   3.659 -1.5648 -0.8565 -0.5293
  591MOL0     H79768   0.600   0.971   3.533 -1.7844  1.0522  0.4218
  591MOL0     H79769  -0.334   0.710   3.651  0.3896 -0.2684 -0.3866
  591MOL0     H79770  -0.294   0.963   3.656 -1.6804 -0.2228  0.6462
  591MOL0     H79771  -0.218   1.322   3.673 -1.1987  0.6963 -1.2552
  591MOL0     H79772  -0.348   1.530   3.699 -2.8918  0.0442  1.9368
  591MOL0     H79773  -0.172   1.811   3.911 -0.4672  2.0097 -1.6527
  591MOL0     H79774  -0.283   1.806   4.044 -0.9394  0.3380  0.3637
  591MOL0     H79775  -0.299   2.019   3.937  1.4636  0.7643 -1.1881
  591MOL0     H79776  -0.446   1.955   3.890 -0.5135 -0.7002  1.9138
  591MOL0     H79777  -0.315   2.065   3.691  0.6641  1.4554  0.7607
  591MOL0     H79778  -0.324   1.897   3.656 -0.9175 -1.4027  1.8104
  591MOL0     H79779  -0.098   2.048   3.804 -0.5035  2.8855 -0.6051
  591MOL0     H79780  -0.079   1.889   3.714  0.4796  0.9807 -3.3827
  591MOL0     H79781   0.006   2.161   3.418  1.8940 -2.8249  0.7017
  591MOL0     H79782  -0.224   1.580   4.086  0.1886  0.4807 -0.9872
  591MOL0     H79783  -0.034   1.261   4.119 -2.2174  0.8001 -2.3844
  591MOL0     H79784   0.034   1.435   4.123  0.9378 -0.7209  2.7701
  591MOL0     H79785  -0.114   1.402   4.200  2.2089  2.8959  1.1069
  592MOL0     O79786   0.681   7.015   8.525  0.3315 -0.1954 -0.0374
  592MOL0     C79787   0.726   6.934   8.605 -0.2520  0.5293 -0.6445
  592MOL0     O79788   0.711   6.941   8.748 -0.2527 -0.8794 -0.1141
  592MOL0     C79789   0.675   7.064   8.790 -0.7236  0.3703 -0.3912
  592MOL0     C79790   0.540   7.102   8.780 -0.0007 -0.2232  0.0880
  592MOL0     C79791   0.494   7.228   8.820 -0.6102  0.4214  0.3336
  592MOL0     C79792   0.583   7.317   8.869  0.3107 -0.1331 -0.4029
  592MOL0     O79793   0.526   7.437   8.911  0.3820  0.6342  0.5103
  592MOL0     C79794   0.610   7.550   8.929 -0.2917  0.5387 -0.0585
  592MOL0     C79795   0.533   7.678   8.883  0.8078  0.3860  0.1276
  592MOL0     C79796   0.491   7.693   8.738  0.7995 -0.1522  0.6796
  592MOL0     C79797   0.602   7.763   8.649 -0.3046  0.0880 -0.4662
  592MOL0     C79798   0.582   7.729   8.498  1.2133  0.1177 -0.3283
  592MOL0     C79799   0.685   7.800   8.418 -0.5345 -0.2673  0.3990
  592MOL0     C79800   0.677   7.767   8.271 -0.5762  0.7862  0.0985
  592MOL0     C79801   0.773   7.856   8.177 -0.1528  0.0469 -0.2594
  592MOL0     N79802   0.791   7.796   8.049  0.0502  0.6603 -0.5440
  592MOL0     C79803   0.691   7.762   7.958 -0.1406 -0.6313  0.4772
  592MOL0     C79804   0.748   7.708   7.850  0.1206  0.7322  0.0921
  592MOL0     C79805   0.685   7.650   7.731  0.2907 -0.5058 -0.4123
  592MOL0     C79806   0.678   7.495   7.724  0.6398  0.8420  0.9746
  592MOL0     C79807   0.807   7.426   7.677  0.3206 -0.4815  0.4671
  592MOL0     C79808   0.791   7.267   7.677 -0.4870 -0.2395 -0.5239
  592MOL0     O79809   0.916   7.204   7.628  0.2387  0.4504 -0.4662
  592MOL0     C79810   1.030   7.218   7.713  1.1721 -0.7590 -0.0562
  592MOL0     C79811   1.018   7.224   7.853 -0.2021  0.1163  0.5392
  592MOL0     C79812   1.133   7.238   7.929 -0.7362 -0.3468  0.4719
  592MOL0     C79813   1.261   7.237   7.867  0.0497 -1.4314 -0.4400
  592MOL0     C79814   1.381   7.226   7.946 -0.6189 -0.2110 -0.5970
  592MOL0     O79815   1.493   7.274   7.885  0.0986 -0.6836 -0.7396
  592MOL0     C79816   1.615   7.274   7.948 -0.7835 -0.0436 -0.4487
  592MOL0     C79817   1.646   7.327   8.071  0.4690 -0.9840  0.6255
  592MOL0     C79818   1.767   7.317   8.132  0.1207  0.4237  0.4328
  592MOL0     C79819   1.872   7.250   8.069 -0.2709  0.0830 -0.1445
  592MOL0     O79820   1.997   7.252   8.131  0.2339  0.9613  0.2143
  592MOL0     C79821   2.045   7.378   8.193  0.0790  0.5973 -0.0625
  592MOL0     C79822   2.190   7.364   8.229 -0.3766  0.3544  0.8822
  592MOL0     C79823   2.229   7.231   8.302 -0.0812 -0.0694 -0.9672
  592MOL0     C79824   2.381   7.205   8.306  0.4528  0.0045 -0.2334
  592MOL0     C79825   2.419   7.061   8.344 -0.0947 -0.3697  1.1042
  592MOL0     C79826   2.407   7.031   8.488  0.1332  1.8120 -0.6025
  592MOL0     C79827   2.455   6.891   8.509 -0.3601  0.5325 -0.5105
  592MOL0     C79828   2.458   6.840   8.656  0.4956 -0.0053  0.0276
  592MOL0    Cl79829   2.292   6.834   8.705 -0.1545  0.3086 -0.0755
  592MOL0     C79830   1.851   7.188   7.945 -0.8234  0.1830  0.1835
  592MOL0     C79831   1.721   7.198   7.892  0.3854  0.2909  0.7895
  592MOL0     O79832   1.386   7.167   8.059  1.0248 -0.4350 -0.0646
  592MOL0     C79833   1.265   7.235   7.724 -0.4223  0.0719  0.2593
  592MOL0     C79834   1.154   7.225   7.651 -0.0092 -0.3523  1.0923
  592MOL0     N79835   0.886   7.702   7.882  0.1248 -0.2268  0.3521
  592MOL0     N79836   0.907   7.737   8.004  0.6527  0.3200  0.5691
  592MOL0     C79837   0.719   7.285   8.883  0.2657  0.9058  0.0136
  592MOL0     C79838   0.764   7.159   8.842 -0.3997  0.6953  1.0430
  592MOL0     C79839   0.798   6.811   8.547 -0.5627 -0.2562  0.1918
  592MOL0     C79840   0.895   6.739   8.626 -0.1182 -0.1923  0.2263
  592MOL0     C79841   0.974   6.641   8.576  0.2028 -0.0276  0.0338
  592MOL0     C79842   0.955   6.592   8.456 -0.0318 -0.8091  0.3330
  592MOL0     O79843   1.036   6.498   8.401  0.3511 -0.9780  0.2549
  592MOL0     C79844   1.177   6.493   8.442  0.5255  0.3429 -1.8251
  592MOL0     C79845   1.246   6.401   8.342  0.4204  0.0568  1.1740
  592MOL0     C79846   1.394   6.360   8.372  0.3549 -0.8428  0.3889
  592MOL0     C79847   1.479   6.485   8.389  0.2577 -0.1997 -0.4974
  592MOL0     C79848   1.486   6.559   8.270  0.1932 -1.2899 -0.1961
  592MOL0     C79849   1.497   6.606   8.161 -0.1851  0.0867 -0.4539
  592MOL0     C79850   0.851   6.633   8.376  0.3682 -0.1064 -0.4385
  592MOL0     C79851   0.773   6.743   8.424  0.1260  0.4348 -0.7440
  592MOL0     C79852   0.652   6.782   8.352  0.2711  0.1719  0.8623
  592MOL0     H79853   0.460   7.035   8.753  1.1980 -0.5137 -3.1992
  592MOL0     H79854   0.388   7.250   8.826 -1.0977 -1.5720 -0.0764
  592MOL0     H79855   0.635   7.574   9.033  0.5467 -1.7627  0.3335
  592MOL0     H79856   0.694   7.555   8.860 -0.3721  1.1570 -0.1128
  592MOL0     H79857   0.590   7.763   8.920  1.0080  0.1481  0.3715
  592MOL0     H79858   0.439   7.677   8.938  1.2599  2.1694  0.9961
  592MOL0     H79859   0.398   7.749   8.721  1.8688  1.4497 -0.0512
  592MOL0     H79860   0.474   7.599   8.684 -0.0451  0.9206 -1.0251
  592MOL0     H79861   0.598   7.871   8.668 -1.7038  0.0904 -0.6828
  592MOL0     H79862   0.708   7.745   8.672  0.2704  1.3888 -1.9041
  592MOL0     H79863   0.597   7.621   8.487  2.9119  0.1909  0.8176
  592MOL0     H79864   0.483   7.743   8.455  0.8124 -1.4020  0.0576
  592MOL0     H79865   0.687   7.909   8.425  5.2104  0.1018 -1.5697
  592MOL0     H79866   0.784   7.772   8.455 -1.8089 -3.5566  1.6050
  592MOL0     H79867   0.574   7.779   8.233 -0.8705 -0.7131  0.3568
  592MOL0     H79868   0.698   7.662   8.254  1.4805  1.1588  0.1326
  592MOL0     H79869   0.727   7.954   8.165  0.0531  0.2859  0.7870
  592MOL0     H79870   0.872   7.867   8.223  0.6940 -1.8657 -1.4637
  592MOL0     H79871   0.584   7.774   7.960 -0.5692 -3.7186  2.0877
  592MOL0     H79872   0.581   7.683   7.732  0.6975  1.2051  3.3966
  592MOL0     H79873   0.727   7.674   7.633  1.6774 -3.5324 -0.6652
  592MOL0     H79874   0.647   7.466   7.824 -0.4593  2.9477  1.3077
  592MOL0     H79875   0.597   7.473   7.653  1.0958  1.6015  0.1949
  592MOL0     H79876   0.887   7.458   7.744  1.0896  3.7264 -2.0671
  592MOL0     H79877   0.845   7.457   7.578  2.3306 -3.6284  0.1029
  592MOL0     H79878   0.707   7.239   7.612 -1.2387  2.5812 -0.8786
  592MOL0     H79879   0.757   7.238   7.777 -0.2480 -0.6468 -0.5568
  592MOL0     H79880   0.931   7.186   7.906  0.6353 -1.8330  0.5680
  592MOL0     H79881   1.122   7.228   8.036 -1.4672  2.2004  0.7221
  592MOL0     H79882   1.566   7.376   8.125 -0.2539 -1.0077 -0.4086
  592MOL0     H79883   1.783   7.365   8.228 -2.6422  1.3998  0.5135
  592MOL0     H79884   2.042   7.455   8.115  2.7848  0.8391 -0.0501
  592MOL0     H79885   1.984   7.400   8.282 -0.5423 -0.0409 -0.3268
  592MOL0     H79886   2.253   7.373   8.140  1.8077 -0.1585  2.3115
  592MOL0     H79887   2.227   7.448   8.289 -0.5200  0.5754  0.6644
  592MOL0     H79888   2.192   7.243   8.405  3.5849  0.4677  0.4436
  592MOL0     H79889   2.178   7.144   8.259 -0.6947 -0.3082  0.1802
  592MOL0     H79890   2.424   7.274   8.380 -1.8122 -0.8364  2.0424
  592MOL0     H79891   2.432   7.247   8.219 -2.9990 -0.3654 -2.6057
  592MOL0     H79892   2.521   7.052   8.305 -0.6503  1.7228 -1.0614
  592MOL0     H79893   2.353   6.986   8.300  1.8288 -0.8110 -1.2375
  592MOL0     H79894   2.471   7.103   8.538  3.5992 -0.1336 -1.9195
  592MOL0     H79895   2.301   7.038   8.514  0.2678  3.1395 -0.3590
  592MOL0     H79896   2.554   6.874   8.465 -2.0971 -1.1698 -4.3027
  592MOL0     H79897   2.386   6.824   8.456 -0.5007  0.7753 -0.6375
  592MOL0     H79898   2.493   6.737   8.672 -2.6118 -1.0454  0.6841
  592MOL0     H79899   2.515   6.912   8.716  0.3525 -1.8207  2.5047
  592MOL0     H79900   1.927   7.123   7.903 -0.6298  0.7600 -0.3733
  592MOL0     H79901   1.683   7.147   7.804 -1.3848  0.2157  1.5609
  592MOL0     H79902   1.351   7.241   7.657 -1.6972  3.7235 -1.3190
  592MOL0     H79903   1.168   7.213   7.545  0.6223  0.2184  1.1055
  592MOL0     H79904   0.790   7.354   8.925  3.3173 -3.2116  2.3980
  592MOL0     H79905   0.871   7.136   8.841 -0.3181  0.8182 -1.6110
  592MOL0     H79906   0.926   6.770   8.726 -0.7997  0.5463  0.2200
  592MOL0     H79907   1.055   6.623   8.645  1.2900  1.2966 -0.8345
  592MOL0     H79908   1.155   6.438   8.534 -1.9677  0.5520 -2.2171
  592MOL0     H79909   1.233   6.585   8.460 -1.4524  1.4363 -0.9769
  592MOL0     H79910   1.233   6.432   8.238 -1.2921 -1.6755  0.8083
  592MOL0     H79911   1.194   6.305   8.345 -0.8994  0.4244 -3.4157
  592MOL0     H79912   1.434   6.302   8.287  1.0711 -1.1553  0.9288
  592MOL0     H79913   1.393   6.284   8.450  1.7077 -0.8677  0.3929
  592MOL0     H79914   1.439   6.558   8.459  0.4600 -0.3513 -0.2246
  592MOL0     H79915   1.575   6.448   8.426 -0.4851  0.0109  1.8118
  592MOL0     H79916   1.514   6.628   8.057 -1.0826 -0.3579 -0.7101
  592MOL0     H79917   0.845   6.585   8.280 -1.3743 -0.2343 -0.2950
  592MOL0     H79918   0.619   6.714   8.272 -0.8595  3.3033 -1.5372
  592MOL0     H79919   0.568   6.805   8.418 -1.2433 -3.6880  0.5943
  592MOL0     H79920   0.677   6.873   8.298 -1.8749 -1.4160 -3.3230
  593MOL0     O79921   6.846   3.611   4.049 -0.3140 -0.7274 -0.0614
  593MOL0     C79922   6.934   3.631   4.132 -0.0087 -0.5464 -0.1234
  593MOL0     O79923   7.029   3.548   4.168 -0.2106 -0.4681 -1.0396
  593MOL0     C79924   7.030   3.423   4.119 -1.0690  0.0547  0.2060
  593MOL0     C79925   6.920   3.342   4.083 -0.7049 -0.6707  0.6880
  593MOL0     C79926   6.940   3.207   4.061  0.0959  0.5414  0.1345
  593MOL0     C79927   7.063   3.142   4.069  0.0961 -0.2791  0.4967
  593MOL0     O79928   7.065   3.007   4.045 -0.0377  0.2518 -0.6220
  593MOL0     C79929   7.179   2.958   3.973 -1.5068  0.3995 -0.5740
  593MOL0     C79930   7.156   2.805   3.970  0.2693 -0.2066  0.7195
  593MOL0     C79931   7.280   2.712   3.939  0.0628 -0.2725  0.1476
  593MOL0     C79932   7.229   2.567   3.944 -0.2296 -0.0196  0.1929
  593MOL0     C79933   7.330   2.461   3.923 -0.1885  0.0821  0.7507
  593MOL0     C79934   7.436   2.469   4.028 -0.1682  0.7153 -1.1466
  593MOL0     C79935   7.551   2.380   4.004 -0.0116 -0.3903 -0.1765
  593MOL0     C79936   7.636   2.443   3.883 -0.2227 -0.6396 -0.0994
  593MOL0     N79937   7.767   2.387   3.877 -0.0219  0.1705  0.5078
  593MOL0     C79938   7.874   2.431   3.951 -0.8254  0.7618  0.4718
  593MOL0     C79939   7.974   2.348   3.912  0.3419 -0.4764  0.2045
  593MOL0     C79940   8.119   2.348   3.955 -1.0755 -0.1609  0.0684
  593MOL0     C79941   8.159   2.473   4.028  0.3315 -0.3639  0.5475
  593MOL0     C79942   8.205   2.574   3.934  0.3780 -0.8171 -0.7675
  593MOL0     C79943   8.230   2.714   4.006 -0.1639 -0.1681  1.7196
  593MOL0     O79944   8.210   2.815   3.910 -0.0943  0.1863  0.7012
  593MOL0     C79945   8.234   2.946   3.948  0.4080 -0.9325 -0.1883
  593MOL0     C79946   8.256   2.992   4.078 -0.3890  0.0833 -0.3763
  593MOL0     C79947   8.267   3.129   4.111  0.0876 -0.1358  0.0270
  593MOL0     C79948   8.226   3.231   4.013 -0.2728  0.1257 -0.4726
  593MOL0     C79949   8.250   3.375   4.038 -0.6449 -0.1057 -0.1740
  593MOL0     O79950   8.290   3.405   4.166 -0.7369 -0.3914  0.0577
  593MOL0     C79951   8.313   3.534   4.196  0.1522 -0.4128  0.6873
  593MOL0     C79952   8.202   3.623   4.212 -0.0141  0.2922 -0.1851
  593MOL0     C79953   8.229   3.753   4.259  0.2099  0.3180  0.5030
  593MOL0     C79954   8.361   3.795   4.274  0.1396  0.0511  0.0207
  593MOL0     O79955   8.377   3.924   4.310 -0.2082 -0.4433 -0.7698
  593MOL0     C79956   8.386   3.937   4.456 -0.5204 -0.5159 -0.2552
  593MOL0     C79957   8.436   4.076   4.497  0.5060  0.4311 -0.4951
  593MOL0     C79958   8.588   4.098   4.462  0.1093 -0.4302  0.3743
  593MOL0     C79959   8.607   4.169   4.331 -0.7945 -1.1714  0.2987
  593MOL0     C79960   8.754   4.203   4.309  0.2118 -1.0067 -0.0967
  593MOL0     C79961   8.771   4.262   4.172  0.9047  0.2618  0.2329
  593MOL0     C79962   8.703   4.396   4.153 -0.8576 -0.6211  0.5218
  593MOL0     C79963   8.705   4.425   4.003  0.0255 -0.3476  0.0819
  593MOL0    Cl79964   8.692   4.601   3.987  0.5321  0.1498 -0.0891
  593MOL0     C79965   8.470   3.707   4.250 -0.3424 -0.1382  0.4534
  593MOL0     C79966   8.443   3.572   4.215  0.7019  0.2554  0.2712
  593MOL0     O79967   8.256   3.442   3.938  0.6529  0.0222 -0.5236
  593MOL0     C79968   8.198   3.183   3.887  0.5803 -0.1277  0.5046
  593MOL0     C79969   8.208   3.047   3.852 -0.0099 -0.0255 -0.4918
  593MOL0     N79970   7.914   2.265   3.816 -0.1611  0.7393 -0.1584
  593MOL0     N79971   7.797   2.294   3.792  0.2094  0.0135 -0.1162
  593MOL0     C79972   7.172   3.228   4.089 -0.9252 -0.1431 -0.1523
  593MOL0     C79973   7.161   3.361   4.107 -0.2395 -0.9624 -0.2935
  593MOL0     C79974   6.959   3.777   4.183 -0.4541  1.1012 -0.8196
  593MOL0     C79975   7.088   3.824   4.213 -0.5958  0.1033 -0.4967
  593MOL0     C79976   7.113   3.959   4.253 -0.0426 -0.9071 -0.1834
  593MOL0     C79977   7.004   4.049   4.258 -0.0664  0.1206  0.2932
  593MOL0     O79978   7.014   4.183   4.272  0.9774 -0.0220 -0.3825
  593MOL0     C79979   7.144   4.240   4.316  0.6613  0.5228  1.1121
  593MOL0     C79980   7.119   4.372   4.391  0.1054  0.5457 -0.3451
  593MOL0     C79981   7.072   4.501   4.301  0.7457 -0.3224 -0.2860
  593MOL0     C79982   7.041   4.612   4.399 -0.1362  0.1602 -0.3286
  593MOL0     C79983   6.935   4.568   4.492  0.1120  0.7947  0.1371
  593MOL0     C79984   6.848   4.551   4.578  0.8869  0.2780  0.0604
  593MOL0     C79985   6.876   3.994   4.241  0.9058  0.6326  0.3710
  593MOL0     C79986   6.843   3.858   4.208  1.0751  0.1531  0.2363
  593MOL0     C79987   6.700   3.810   4.197 -0.9383  0.1798 -0.2232
  593MOL0     H79988   6.823   3.390   4.089 -0.6366  0.3455 -3.1889
  593MOL0     H79989   6.845   3.158   4.044  0.2075  0.1911  0.5009
  593MOL0     H79990   7.175   2.991   3.869 -1.5119 -0.2606 -0.7862
  593MOL0     H79991   7.274   2.962   4.028 -0.1018 -0.6293 -2.8054
  593MOL0     H79992   7.080   2.782   3.894 -0.4184  0.6068  1.1397
  593MOL0     H79993   7.116   2.783   4.069 -4.2980  2.9524 -0.0758
  593MOL0     H79994   7.359   2.755   4.001 -2.4578  4.1356  0.7037
  593MOL0     H79995   7.317   2.725   3.837 -1.6155  1.2700 -0.3237
  593MOL0     H79996   7.195   2.536   4.043 -0.6583 -3.8769 -1.0081
  593MOL0     H79997   7.144   2.549   3.877 -0.8997 -2.0141  1.4983
  593MOL0     H79998   7.291   2.360   3.916  1.1965 -0.4208 -0.1707
  593MOL0     H79999   7.387   2.482   3.832 -1.6106  0.0263 -0.1717
  593MOL0     H80000   7.472   2.571   4.043 -2.2588  1.4436 -0.7416
  593MOL0     H80001   7.390   2.433   4.121  1.5166  0.2249 -0.4610
  593MOL0     H80002   7.508   2.284   3.975 -0.7483  0.4451 -2.0229
  593MOL0     H80003   7.604   2.379   4.099  0.3323  2.0049 -0.2794
  593MOL0     H80004   7.584   2.414   3.792  1.9986 -1.6982 -1.1003
  593MOL0     H80005   7.642   2.552   3.893 -0.6228 -0.6025 -0.2466
  593MOL0     H80006   7.881   2.511   4.023 -0.9775  0.3336  0.9716
  593MOL0     H80007   8.141   2.267   4.025 -0.6943  1.2403  1.6160
  593MOL0     H80008   8.185   2.334   3.869 -0.0571 -1.4118  1.0123
  593MOL0     H80009   8.079   2.505   4.096  0.0515  1.8331 -0.7070
  593MOL0     H80010   8.240   2.451   4.098 -1.2819 -1.8196  2.0841
  593MOL0     H80011   8.131   2.592   3.856 -1.1160  1.0789  0.9914
  593MOL0     H80012   8.300   2.546   3.886 -0.2117  0.1490 -2.6108
  593MOL0     H80013   8.331   2.720   4.047  1.7909 -3.2784 -2.0333
  593MOL0     H80014   8.162   2.731   4.090  0.4471  2.1688  1.8057
  593MOL0     H80015   8.279   2.919   4.155  3.6998 -0.5667 -1.9549
  593MOL0     H80016   8.295   3.164   4.210  2.0598 -2.2466  0.3061
  593MOL0     H80017   8.100   3.595   4.192 -0.7379  0.8803  2.3696
  593MOL0     H80018   8.148   3.823   4.274 -1.2816 -1.3347  0.5822
  593MOL0     H80019   8.284   3.918   4.488 -0.8363 -1.5516 -1.7712
  593MOL0     H80020   8.455   3.865   4.499  0.0983  0.0622 -0.2524
  593MOL0     H80021   8.372   4.159   4.466 -0.3120  0.7093  1.7430
  593MOL0     H80022   8.426   4.064   4.605  0.4534  0.7567 -0.4635
  593MOL0     H80023   8.635   4.161   4.538  1.2256  0.4331 -0.9655
  593MOL0     H80024   8.644   4.005   4.458 -1.7221 -1.5624 -0.1643
  593MOL0     H80025   8.554   4.265   4.335  0.1495 -0.6131 -0.3306
  593MOL0     H80026   8.566   4.112   4.247 -1.8435 -0.8210  0.5567
  593MOL0     H80027   8.812   4.110   4.309  1.0290 -0.5476  1.9981
  593MOL0     H80028   8.789   4.271   4.387  0.5971 -0.4540 -0.7418
  593MOL0     H80029   8.878   4.265   4.148  0.7236  0.7423 -0.5673
  593MOL0     H80030   8.723   4.184   4.112 -3.3261  4.4235 -2.5131
  593MOL0     H80031   8.762   4.477   4.196 -1.2039  0.5828 -1.1909
  593MOL0     H80032   8.602   4.403   4.194 -0.1108 -0.6183  2.4509
  593MOL0     H80033   8.801   4.392   3.962 -0.3589 -0.4216 -0.7830
  593MOL0     H80034   8.622   4.367   3.963  1.4193 -2.1405 -0.3689
  593MOL0     H80035   8.572   3.741   4.262 -0.1898  0.3743 -1.8934
  593MOL0     H80036   8.522   3.499   4.199  1.3601  1.4491 -2.6605
  593MOL0     H80037   8.163   3.244   3.804  1.2306  1.5216  1.3823
  593MOL0     H80038   8.173   3.026   3.751  2.6156 -0.5111 -1.3688
  593MOL0     H80039   7.270   3.180   4.092 -0.8238 -0.0959  3.8715
  593MOL0     H80040   7.251   3.417   4.131  0.2259 -0.2006 -3.3542
  593MOL0     H80041   7.177   3.763   4.203  0.2096  0.4588  3.0365
  593MOL0     H80042   7.216   3.993   4.259 -0.7586  1.1447  2.3792
  593MOL0     H80043   7.214   4.265   4.236  0.4805  1.1381  1.1421
  593MOL0     H80044   7.183   4.161   4.382  1.3083 -0.8372 -0.8012
  593MOL0     H80045   7.214   4.392   4.442  0.9174 -0.8201 -1.2549
  593MOL0     H80046   7.045   4.342   4.465  0.0311  0.1843 -0.5639
  593MOL0     H80047   6.981   4.470   4.249 -1.0335  1.6780  1.4414
  593MOL0     H80048   7.154   4.541   4.240  1.7368  0.3228  1.3970
  593MOL0     H80049   7.133   4.628   4.457 -0.5323  5.1383 -0.6941
  593MOL0     H80050   7.028   4.709   4.351  4.9351  0.6342 -1.3620
  593MOL0     H80051   6.782   4.562   4.661  2.0432  1.5300  0.8548
  593MOL0     H80052   6.787   4.055   4.247 -0.9355 -1.7876 -0.7205
  593MOL0     H80053   6.636   3.846   4.278 -1.7427 -3.7541  1.1040
  593MOL0     H80054   6.660   3.853   4.105  1.0355 -0.2568 -1.3440
  593MOL0     H80055   6.684   3.702   4.203 -0.6326  0.2049  1.7968
  594MOL0     O80056   4.460   2.081   7.544 -1.1470 -0.6499  0.7753
  594MOL0     C80057   4.440   2.103   7.425 -0.3077  0.5309  0.3222
  594MOL0     O80058   4.477   2.217   7.361 -0.1616 -0.4896 -0.3458
  594MOL0     C80059   4.497   2.345   7.419 -0.8547 -0.4169  0.0466
  594MOL0     C80060   4.447   2.382   7.550  0.7466 -0.3903  0.3866
  594MOL0     C80061   4.467   2.518   7.600 -0.1277 -0.3449 -0.4208
  594MOL0     C80062   4.541   2.612   7.519 -0.0906 -0.2591 -0.1265
  594MOL0     O80063   4.564   2.740   7.566 -0.3928  0.3349 -0.3041
  594MOL0     C80064   4.462   2.819   7.626  0.2950  0.3805  0.2375
  594MOL0     C80065   4.411   2.924   7.529 -0.5512 -0.0703  0.7478
  594MOL0     C80066   4.516   3.039   7.488  0.8564 -0.0848 -0.1057
  594MOL0     C80067   4.603   3.010   7.373  0.7740 -0.3876 -0.4010
  594MOL0     C80068   4.726   3.100   7.374  0.7270 -0.0660  0.7308
  594MOL0     C80069   4.822   3.054   7.273 -0.0448 -0.2925  0.2347
  594MOL0     C80070   4.957   3.134   7.261  0.3852 -0.0988  0.0827
  594MOL0     C80071   4.933   3.275   7.205 -0.0134 -0.2768 -0.5529
  594MOL0     N80072   5.053   3.358   7.199  0.4854 -0.3420 -0.1090
  594MOL0     C80073   5.128   3.416   7.308  0.5111 -0.0406  0.0824
  594MOL0     C80074   5.235   3.476   7.254  0.0409  0.1280  0.6280
  594MOL0     C80075   5.344   3.547   7.331  0.7723  0.1051 -0.2609
  594MOL0     C80076   5.378   3.696   7.276  0.1085 -0.3694 -0.1095
  594MOL0     C80077   5.524   3.713   7.287 -0.8295  0.1843 -0.2236
  594MOL0     C80078   5.557   3.775   7.422 -0.1715  0.8872 -0.0849
  594MOL0     O80079   5.694   3.743   7.453 -0.7530 -0.0766 -0.1519
  594MOL0     C80080   5.761   3.836   7.527 -0.6504 -0.4928  0.2638
  594MOL0     C80081   5.769   3.973   7.501 -0.6633  0.2323  0.0695
  594MOL0     C80082   5.838   4.060   7.588 -0.2289 -0.3795 -0.2940
  594MOL0     C80083   5.907   4.019   7.700  0.4477  1.0046 -0.2367
  594MOL0     C80084   5.965   4.108   7.805 -0.9646 -0.8658  0.1379
  594MOL0     O80085   6.043   4.062   7.919 -0.2540 -0.1999 -0.9260
  594MOL0     C80086   6.092   4.160   8.010  0.1660  0.0566 -0.4408
  594MOL0     C80087   6.231   4.169   8.045 -0.4305  0.4349 -0.5618
  594MOL0     C80088   6.271   4.259   8.132 -0.1495 -0.3338 -0.3373
  594MOL0     C80089   6.176   4.345   8.191 -0.8514 -0.1741  0.5999
  594MOL0     O80090   6.230   4.433   8.289  0.0617  0.2660  0.2989
  594MOL0     C80091   6.173   4.566   8.302  0.3045 -0.5043 -0.1307
  594MOL0     C80092   6.234   4.669   8.205 -0.0188 -0.6429 -0.3618
  594MOL0     C80093   6.356   4.747   8.265  0.8546  0.7470  0.3387
  594MOL0     C80094   6.449   4.813   8.153  1.1389  0.7423  0.0831
  594MOL0     C80095   6.535   4.712   8.082  0.2669  0.2225 -0.7869
  594MOL0     C80096   6.656   4.685   8.159  0.6206  0.1131  0.8083
  594MOL0     C80097   6.754   4.633   8.062 -0.5281  0.5138  0.7843
  594MOL0     C80098   6.872   4.576   8.138  0.4890  0.3410 -0.5469
  594MOL0    Cl80099   6.946   4.682   8.251  0.2743 -0.1859  0.5515
  594MOL0     C80100   6.044   4.342   8.161  0.0424  0.9449  0.5393
  594MOL0     C80101   6.004   4.237   8.086  0.0983 -0.1901 -0.6948
  594MOL0     O80102   5.941   4.236   7.790  0.2219  1.0006  0.8139
  594MOL0     C80103   5.895   3.875   7.729  0.2317  0.3296  0.1202
  594MOL0     C80104   5.823   3.789   7.643  0.2401 -0.9192  0.5503
  594MOL0     N80105   5.229   3.452   7.117  0.1700  0.9237 -0.3447
  594MOL0     N80106   5.132   3.376   7.092  0.2840  0.1813  0.4377
  594MOL0     C80107   4.570   2.579   7.388  0.5851 -1.0306 -0.0579
  594MOL0     C80108   4.565   2.443   7.346  0.0231 -0.3877  0.9241
  594MOL0     C80109   4.381   1.994   7.342 -0.3076  0.2370 -0.2752
  594MOL0     C80110   4.416   1.862   7.374  0.0473  0.0136 -0.4366
  594MOL0     C80111   4.387   1.761   7.291 -0.9264 -0.1012  0.3203
  594MOL0     C80112   4.312   1.783   7.176 -0.0934  0.1106  0.8483
  594MOL0     O80113   4.285   1.680   7.084 -0.0925  0.2228  0.2264
  594MOL0     C80114   4.369   1.573   7.085 -0.0132  0.0295  0.2630
  594MOL0     C80115   4.349   1.458   6.988 -0.1846  1.1723 -0.6620
  594MOL0     C80116   4.412   1.325   7.030 -0.3620 -1.1502 -0.2554
  594MOL0     C80117   4.569   1.329   7.048  0.7903  1.4749  0.7351
  594MOL0     C80118   4.617   1.411   7.158  0.2373 -0.1578 -0.4270
  594MOL0     C80119   4.675   1.483   7.243  0.0973  0.0051 -0.0574
  594MOL0     C80120   4.253   1.911   7.150 -0.2638  0.1160 -0.3575
  594MOL0     C80121   4.298   2.016   7.235  0.1892  0.0735  0.0152
  594MOL0     C80122   4.246   2.151   7.219  0.4772  0.6490  0.5939
  594MOL0     H80123   4.388   2.313   7.609  1.4502 -1.1856  0.1756
  594MOL0     H80124   4.437   2.542   7.702 -2.1555 -2.7605 -0.3554
  594MOL0     H80125   4.369   2.776   7.666 -1.6532  2.1420 -2.0583
  594MOL0     H80126   4.505   2.877   7.707  1.2695  0.6710 -0.4722
  594MOL0     H80127   4.319   2.971   7.564 -2.1054 -3.1707  1.1683
  594MOL0     H80128   4.385   2.886   7.430  1.3346  3.1366 -1.1320
  594MOL0     H80129   4.580   3.052   7.577  2.6419  0.4121 -1.4005
  594MOL0     H80130   4.461   3.131   7.471 -2.3472 -1.5767  1.3294
  594MOL0     H80131   4.648   2.911   7.360  1.3229 -0.1795 -0.1445
  594MOL0     H80132   4.546   3.034   7.283  1.1444  3.0455  0.1345
  594MOL0     H80133   4.701   3.206   7.358  3.0575  0.5344  0.7119
  594MOL0     H80134   4.764   3.097   7.476 -1.0009  0.7200  1.4504
  594MOL0     H80135   4.851   2.951   7.294 -0.6507 -0.3608  0.7967
  594MOL0     H80136   4.776   3.043   7.175  1.9569 -3.6765 -0.4883
  594MOL0     H80137   5.023   3.082   7.191  1.2283 -0.9761  1.4625
  594MOL0     H80138   5.003   3.145   7.360 -3.2794  2.5900  1.7155
  594MOL0     H80139   4.882   3.263   7.109 -2.0281  1.3570  0.2330
  594MOL0     H80140   4.860   3.333   7.262  1.0758  1.1549 -0.5644
  594MOL0     H80141   5.107   3.404   7.414 -1.4558 -1.6855 -0.4076
  594MOL0     H80142   5.308   3.574   7.431 -0.3835  1.3290 -0.9780
  594MOL0     H80143   5.436   3.487   7.341  1.2722  1.0691  1.1534
  594MOL0     H80144   5.345   3.705   7.172 -1.8130 -0.9646  0.4030
  594MOL0     H80145   5.324   3.763   7.344  1.4639 -0.6314  1.2908
  594MOL0     H80146   5.564   3.779   7.209  5.9533  0.5701  2.8978
  594MOL0     H80147   5.576   3.618   7.271  0.1539  0.6767 -0.0325
  594MOL0     H80148   5.498   3.720   7.496  4.3808 -0.4887  3.0200
  594MOL0     H80149   5.529   3.880   7.434 -0.3639  0.9068 -0.7006
  594MOL0     H80150   5.738   4.002   7.401 -3.3422 -1.1647  0.4029
  594MOL0     H80151   5.848   4.160   7.548  1.6181  1.0261  3.2385
  594MOL0     H80152   6.295   4.095   7.999 -0.5672 -0.8757  1.2519
  594MOL0     H80153   6.375   4.273   8.162 -0.3072 -1.1860  0.7001
  594MOL0     H80154   6.064   4.578   8.299  0.4349  0.5418 -1.9331
  594MOL0     H80155   6.185   4.595   8.407  1.6463 -1.1519 -0.0815
  594MOL0     H80156   6.266   4.617   8.114 -0.6796  0.5515 -1.3133
  594MOL0     H80157   6.150   4.736   8.181 -0.9851 -1.3520  0.8965
  594MOL0     H80158   6.323   4.828   8.330  0.2862  1.7117 -1.0970
  594MOL0     H80159   6.408   4.678   8.333 -2.1056  0.0416  2.0512
  594MOL0     H80160   6.498   4.893   8.209  0.5050 -0.2028  2.1005
  594MOL0     H80161   6.400   4.872   8.075 -0.9176 -0.2259  0.5756
  594MOL0     H80162   6.550   4.752   7.981 -2.8575 -0.2422 -1.5238
  594MOL0     H80163   6.479   4.619   8.072 -0.7789  0.9802 -2.3436
  594MOL0     H80164   6.697   4.770   8.214  1.3882  0.7857 -0.7391
  594MOL0     H80165   6.616   4.613   8.231 -0.8915 -0.3430 -0.4180
  594MOL0     H80166   6.801   4.707   7.997 -0.6948 -2.0831 -2.5194
  594MOL0     H80167   6.720   4.550   8.000 -1.5396 -0.2761  2.3424
  594MOL0     H80168   6.836   4.482   8.179 -2.4450  1.2050 -0.8865
  594MOL0     H80169   6.944   4.553   8.059  0.2220  1.3919 -1.1191
  594MOL0     H80170   5.967   4.396   8.215 -0.5561  1.7620 -1.0645
  594MOL0     H80171   5.898   4.231   8.064  0.1190 -1.3422 -0.5581
  594MOL0     H80172   5.934   3.838   7.823  0.0689 -3.7218 -1.2028
  594MOL0     H80173   5.806   3.682   7.653  0.7407 -0.8841  2.0808
  594MOL0     H80174   4.591   2.660   7.319 -1.4190  2.0502  2.6350
  594MOL0     H80175   4.602   2.416   7.248 -1.1835 -0.2189  0.4004
  594MOL0     H80176   4.479   1.831   7.457 -0.5468 -3.2951 -1.0723
  594MOL0     H80177   4.423   1.662   7.317  0.5625 -0.2340 -1.9710
  594MOL0     H80178   4.355   1.520   7.179  1.7439  1.2718  1.2923
  594MOL0     H80179   4.474   1.606   7.075  0.2658 -1.0915 -0.6716
  594MOL0     H80180   4.399   1.484   6.894  0.2262  0.4053 -0.6565
  594MOL0     H80181   4.245   1.437   6.961 -0.7638  1.8537  0.8899
  594MOL0     H80182   4.389   1.248   6.956 -1.1645 -1.1538 -0.0099
  594MOL0     H80183   4.362   1.296   7.123 -1.2782  1.4002  0.1291
  594MOL0     H80184   4.608   1.229   7.071 -1.5538  0.5756  1.1106
  594MOL0     H80185   4.610   1.359   6.951  0.8344  1.9070  0.8856
  594MOL0     H80186   4.719   1.536   7.325  0.7286 -0.7548  0.1053
  594MOL0     H80187   4.180   1.915   7.069 -0.6463  1.6950  0.0400
  594MOL0     H80188   4.162   2.139   7.151  0.6782 -0.0661  0.4641
  594MOL0     H80189   4.209   2.190   7.314  1.1990  1.7107  0.4414
  594MOL0     H80190   4.305   2.221   7.160 -0.9261  1.0146 -0.4212
  595MOL0     O80191   8.336   6.335   2.334  0.6137  0.1547 -0.5207
  595MOL0     C80192   8.363   6.413   2.245  0.1048 -1.3162 -0.4474
  595MOL0     O80193   8.331   6.407   2.108  0.3732 -0.4630  0.0920
  595MOL0     C80194   8.281   6.288   2.054  0.7091  0.1977  0.0611
  595MOL0     C80195   8.177   6.286   1.966  0.9853  0.3539  0.2976
  595MOL0     C80196   8.132   6.172   1.906  0.3829 -0.7256 -0.5029
  595MOL0     C80197   8.179   6.046   1.940 -0.8416 -0.7596 -0.9811
  595MOL0     O80198   8.137   5.928   1.881 -0.1136  0.9888  0.2418
  595MOL0     C80199   8.008   5.887   1.930 -1.0495 -0.0902 -0.5563
  595MOL0     C80200   7.983   5.758   1.845 -0.6685 -0.2465 -0.2058
  595MOL0     C80201   8.097   5.653   1.842  0.0426  0.3269 -0.7849
  595MOL0     C80202   8.113   5.560   1.972  0.4941 -0.0765 -0.2520
  595MOL0     C80203   8.244   5.480   1.954 -0.1284  0.4498  0.2223
  595MOL0     C80204   8.246   5.376   2.068  0.1134 -0.6508  0.4245
  595MOL0     C80205   8.350   5.269   2.024  0.0576 -1.1137  0.1863
  595MOL0     C80206   8.372   5.169   2.134  0.8503  0.2892  0.3786
  595MOL0     N80207   8.443   5.046   2.088  0.4228  0.3197 -1.5964
  595MOL0     C80208   8.380   4.952   2.009 -0.9121 -0.3605 -0.0215
  595MOL0     C80209   8.481   4.864   1.973 -1.0393 -0.5250  0.4348
  595MOL0     C80210   8.477   4.772   1.856  0.8064  0.0448 -0.2608
  595MOL0     C80211   8.592   4.801   1.755 -0.0606 -0.0543 -0.2945
  595MOL0     C80212   8.564   4.733   1.616  0.6295  0.3174  0.8392
  595MOL0     C80213   8.463   4.818   1.537 -0.2247 -0.5785  1.5175
  595MOL0     O80214   8.535   4.937   1.493  0.2971 -0.7190  0.3350
  595MOL0     C80215   8.459   5.049   1.482  0.3601  0.7547 -0.3140
  595MOL0     C80216   8.423   5.130   1.586 -0.2932  0.5665  0.4503
  595MOL0     C80217   8.341   5.234   1.558  0.7132 -0.5849 -0.4996
  595MOL0     C80218   8.313   5.280   1.432 -0.2869  0.0980  0.6131
  595MOL0     C80219   8.235   5.398   1.406  0.4135 -0.5967 -0.8545
  595MOL0     O80220   8.165   5.455   1.505  0.3587 -0.0200  0.1141
  595MOL0     C80221   8.081   5.558   1.466 -0.1111  0.0503 -0.4842
  595MOL0     C80222   8.109   5.697   1.431  0.7719  1.0374  0.2595
  595MOL0     C80223   8.000   5.781   1.411  0.3082  0.5082  0.1026
  595MOL0     C80224   7.870   5.735   1.409 -0.1188 -0.5689 -0.1434
  595MOL0     O80225   7.761   5.817   1.376 -0.1177 -0.0395  0.3905
  595MOL0     C80226   7.779   5.958   1.375  0.6148 -0.9149  0.0049
  595MOL0     C80227   7.656   6.031   1.329 -0.3367  0.0116 -0.5542
  595MOL0     C80228   7.664   6.173   1.313  1.1233  0.7257  0.1546
  595MOL0     C80229   7.560   6.219   1.212  0.5132 -0.3833 -0.1529
  595MOL0     C80230   7.600   6.368   1.183 -0.8474 -0.0916 -0.2466
  595MOL0     C80231   7.567   6.456   1.304 -1.1061  0.5083  0.0758
  595MOL0     C80232   7.565   6.602   1.252  1.1645 -0.5057  0.8758
  595MOL0     C80233   7.524   6.691   1.370  0.5721  0.3883 -0.7048
  595MOL0    Cl80234   7.471   6.852   1.322  0.2696 -0.5779 -0.0904
  595MOL0     C80235   7.843   5.602   1.427  1.1541 -0.9112 -0.2150
  595MOL0     C80236   7.947   5.519   1.466 -0.3084  0.7926 -0.7039
  595MOL0     O80237   8.235   5.437   1.287  0.3627 -0.0940 -0.4800
  595MOL0     C80238   8.349   5.194   1.328 -0.2260 -0.3058  0.3064
  595MOL0     C80239   8.413   5.074   1.357  0.7282  0.6653  1.0926
  595MOL0     N80240   8.594   4.919   2.027 -0.5486  0.3406 -0.1857
  595MOL0     N80241   8.570   5.017   2.104 -0.8287  0.7870 -0.1498
  595MOL0     C80242   8.287   6.039   2.036  0.2285 -0.0346  0.1818
  595MOL0     C80243   8.334   6.160   2.092  0.1304  0.8553  0.6816
  595MOL0     C80244   8.438   6.532   2.285  0.2215  0.7129 -0.9127
  595MOL0     C80245   8.516   6.529   2.402  0.9107  0.2743 -0.8068
  595MOL0     C80246   8.615   6.626   2.429  0.6753 -0.1299 -0.1812
  595MOL0     C80247   8.651   6.732   2.346  0.7854 -0.7335 -0.0385
  595MOL0     O80248   8.728   6.839   2.365 -0.1004 -0.2546 -0.6084
  595MOL0     C80249   8.841   6.822   2.449 -0.0452  0.5633 -0.6398
  595MOL0     C80250   8.917   6.953   2.480 -0.3637 -0.5894 -0.1235
  595MOL0     C80251   8.994   7.029   2.370  0.5214 -0.9598 -0.0355
  595MOL0     C80252   9.058   6.936   2.268 -0.2155 -0.0413  0.2360
  595MOL0     C80253   9.160   6.841   2.322  0.1952 -0.3830 -0.2669
  595MOL0     C80254   9.236   6.756   2.358 -0.6842  0.2888  0.9025
  595MOL0     C80255   8.563   6.735   2.229 -0.0280 -0.4918  0.3807
  595MOL0     C80256   8.459   6.644   2.200 -0.4431  0.5998  0.3526
  595MOL0     C80257   8.393   6.683   2.067 -0.2551  0.6111  0.2465
  595MOL0     H80258   8.140   6.380   1.926  0.7382 -0.7902 -2.4142
  595MOL0     H80259   8.048   6.186   1.839 -0.8922 -1.1997  0.9347
  595MOL0     H80260   8.017   5.844   2.030 -0.2613  0.7679 -0.2441
  595MOL0     H80261   7.925   5.958   1.920  0.0765  1.5138  0.9629
  595MOL0     H80262   7.960   5.801   1.748 -1.3902  0.8071  0.4056
  595MOL0     H80263   7.887   5.707   1.861 -1.3399  0.9483 -0.3307
  595MOL0     H80264   8.192   5.706   1.829  0.1401  0.1665 -0.7168
  595MOL0     H80265   8.073   5.599   1.750  0.6302  0.7099 -1.1695
  595MOL0     H80266   8.108   5.624   2.061  2.0892 -1.3776  0.8490
  595MOL0     H80267   8.034   5.484   1.968  1.7767 -1.4623 -4.6388
  595MOL0     H80268   8.230   5.436   1.855  2.2166  2.1237 -0.9352
  595MOL0     H80269   8.334   5.541   1.957  2.6752 -3.2090 -1.5288
  595MOL0     H80270   8.266   5.422   2.165  0.2499  1.7441 -0.6542
  595MOL0     H80271   8.150   5.325   2.065 -0.7812  0.9989 -0.3832
  595MOL0     H80272   8.442   5.321   1.996 -0.8869  0.8361  0.4924
  595MOL0     H80273   8.322   5.221   1.930 -0.1214  4.9192 -3.3410
  595MOL0     H80274   8.432   5.217   2.211  0.9942  2.1972 -0.8648
  595MOL0     H80275   8.275   5.154   2.184  1.0309  4.5000  2.3558
  595MOL0     H80276   8.286   4.957   1.955  0.1792 -1.9753 -2.2380
  595MOL0     H80277   8.495   4.669   1.886  2.0732  0.6476  1.1725
  595MOL0     H80278   8.376   4.783   1.815  0.5000 -0.3914  0.3647
  595MOL0     H80279   8.601   4.910   1.752  0.6620  0.0656  2.6791
  595MOL0     H80280   8.686   4.762   1.794 -1.0885 -0.0359  2.4560
  595MOL0     H80281   8.522   4.633   1.630 -0.4185  0.9468  2.5465
  595MOL0     H80282   8.661   4.725   1.566  0.7754  1.7977  0.8203
  595MOL0     H80283   8.367   4.840   1.584  1.9150  0.6482  5.7252
  595MOL0     H80284   8.437   4.757   1.449 -0.4064 -0.9888  1.8527
  595MOL0     H80285   8.449   5.110   1.689  0.8411  0.2796  0.1189
  595MOL0     H80286   8.301   5.282   1.647 -0.1260 -1.0490 -0.6168
  595MOL0     H80287   8.215   5.719   1.438  1.0359  0.0533 -0.3172
  595MOL0     H80288   8.009   5.889   1.410 -1.2984  0.7129  1.6384
  595MOL0     H80289   7.809   5.998   1.473  1.9285 -0.9853 -0.3557
  595MOL0     H80290   7.859   5.976   1.303  2.2708 -1.3702  1.6483
  595MOL0     H80291   7.616   5.994   1.234 -1.9356  2.3600 -0.8972
  595MOL0     H80292   7.585   6.031   1.412  0.9262 -1.7477  0.5921
  595MOL0     H80293   7.663   6.220   1.412  1.7340  1.4357 -0.1642
  595MOL0     H80294   7.762   6.213   1.284  1.3863  0.8961  1.2137
  595MOL0     H80295   7.454   6.197   1.229 -0.6744  1.7901 -3.6381
  595MOL0     H80296   7.592   6.160   1.126  0.9019  0.0164 -0.2873
  595MOL0     H80297   7.546   6.412   1.099  0.3261  1.7514 -0.0826
  595MOL0     H80298   7.707   6.372   1.163 -0.5998 -3.0144  0.0171
  595MOL0     H80299   7.468   6.432   1.342 -1.5304  1.4794 -0.3691
  595MOL0     H80300   7.641   6.458   1.384 -0.7312  1.2181 -0.2707
  595MOL0     H80301   7.480   6.609   1.184  2.5923 -0.0704 -0.9534
  595MOL0     H80302   7.650   6.642   1.195  1.0769  0.1692  1.2060
  595MOL0     H80303   7.442   6.656   1.433  1.5651  0.4463  0.6628
  595MOL0     H80304   7.603   6.703   1.444  0.3938  1.0026 -0.6099
  595MOL0     H80305   7.743   5.565   1.411  0.5449 -0.8864  2.9842
  595MOL0     H80306   7.923   5.421   1.503 -0.6612  2.1395  3.0260
  595MOL0     H80307   8.330   5.219   1.224 -0.5651  0.0565  0.4522
  595MOL0     H80308   8.446   5.014   1.273 -0.3011  1.5353  0.0284
  595MOL0     H80309   8.328   5.942   2.061 -2.7990 -1.3484  0.4599
  595MOL0     H80310   8.415   6.166   2.164 -1.1140  2.9656  2.0028
  595MOL0     H80311   8.501   6.456   2.481 -0.3573  0.8179 -0.5282
  595MOL0     H80312   8.661   6.607   2.526 -1.8261 -0.0650  1.1128
  595MOL0     H80313   8.894   6.747   2.388  1.1930  2.9574 -2.6840
  595MOL0     H80314   8.823   6.779   2.548  1.6620 -1.1767 -1.0143
  595MOL0     H80315   8.995   6.931   2.553  0.7807  1.2764 -0.7212
  595MOL0     H80316   8.849   7.018   2.535  2.3167  0.5306  2.0799
  595MOL0     H80317   9.074   7.092   2.410  1.0268  0.2803 -2.7811
  595MOL0     H80318   8.928   7.086   2.304  2.9796 -0.6832 -2.4441
  595MOL0     H80319   8.980   6.887   2.209  0.1273  0.6802 -0.8548
  595MOL0     H80320   9.107   6.998   2.192 -3.6797  1.6974 -0.7962
  595MOL0     H80321   9.301   6.671   2.369 -0.8012  0.2876  1.6623
  595MOL0     H80322   8.595   6.797   2.145  1.1714 -0.7439  0.6368
  595MOL0     H80323   8.309   6.750   2.088 -0.8232  0.6251 -1.8951
  595MOL0     H80324   8.464   6.742   2.008  1.1087  0.0830  1.2947
  595MOL0     H80325   8.371   6.600   2.000  3.5809 -0.1811 -0.2381
  596MOL0     O80326  10.519   7.159   7.667  0.8864  0.1727 -0.3924
  596MOL0     C80327  10.411   7.181   7.732 -0.3201 -1.0142 -0.2733
  596MOL0     O80328  10.353   7.303   7.751 -0.3303 -0.5238 -0.2021
  596MOL0     C80329  10.408   7.410   7.688 -0.1496 -0.0154  0.6168
  596MOL0     C80330  10.386   7.429   7.549  0.1963 -0.0984 -0.2022
  596MOL0     C80331  10.437   7.534   7.485  1.0917  0.5351 -0.4526
  596MOL0     C80332  10.519   7.624   7.550  0.1019 -1.5265 -0.0770
  596MOL0     O80333  10.595   7.724   7.481  0.4709  0.4798  0.1790
  596MOL0     C80334  10.682   7.682   7.378  0.8647  0.4836 -0.9562
  596MOL0     C80335  10.819   7.675   7.428 -0.9878  0.2250  0.3252
  596MOL0     C80336  10.877   7.814   7.435 -0.1759 -0.2683 -0.3308
  596MOL0     C80337  11.011   7.801   7.498 -0.1132 -0.3643 -0.0812
  596MOL0     C80338  11.107   7.921   7.494  0.9071 -0.1792  0.3685
  596MOL0     C80339  11.228   7.888   7.573 -0.3658 -0.4720 -0.1537
  596MOL0     C80340  11.341   7.989   7.575 -0.8035 -0.2074 -0.1567
  596MOL0     C80341  11.298   8.132   7.612  0.4466  0.5641 -1.0248
  596MOL0     N80342  11.318   8.160   7.756 -0.1266 -0.6066 -0.4249
  596MOL0     C80343  11.439   8.171   7.819  1.4474 -0.1677 -0.1971
  596MOL0     C80344  11.406   8.161   7.953 -0.8131  1.3868  0.6364
  596MOL0     C80345  11.496   8.206   8.049 -0.4703  1.1608  0.4579
  596MOL0     C80346  11.481   8.127   8.176 -0.4989 -0.4515 -0.0547
  596MOL0     C80347  11.545   8.189   8.310 -0.5889 -0.0752  0.2928
  596MOL0     C80348  11.492   8.107   8.425 -0.4663  0.6377  0.0613
  596MOL0     O80349  11.583   7.995   8.432 -0.3576 -0.7706  0.4267
  596MOL0     C80350  11.546   7.884   8.509  0.4674 -0.3681 -0.5178
  596MOL0     C80351  11.452   7.888   8.604  0.8858 -0.6871  0.1860
  596MOL0     C80352  11.448   7.792   8.703  0.1347 -0.3683  0.9211
  596MOL0     C80353  11.530   7.678   8.692  0.0816 -0.3577  0.2837
  596MOL0     C80354  11.526   7.565   8.800  0.4073  0.8905  0.0634
  596MOL0     O80355  11.636   7.485   8.822 -0.1189 -0.1304 -0.7053
  596MOL0     C80356  11.618   7.374   8.912 -0.2045  0.7583  0.2733
  596MOL0     C80357  11.588   7.250   8.854 -0.4291 -0.0171  0.5714
  596MOL0     C80358  11.568   7.136   8.937  0.1844  0.5886  0.0646
  596MOL0     C80359  11.590   7.137   9.079  0.3403  0.2829  0.3160
  596MOL0     O80360  11.589   7.020   9.155 -0.4941  0.0133 -0.7045
  596MOL0     C80361  11.625   7.017   9.294  0.8136 -0.0365  0.3435
  596MOL0     C80362  11.598   6.880   9.347  0.9397 -0.3030 -0.8426
  596MOL0     C80363  11.702   6.775   9.319  0.0141 -0.3837  0.5394
  596MOL0     C80364  11.673   6.692   9.201 -0.6650  0.7896  0.0182
  596MOL0     C80365  11.774   6.573   9.199  0.8441 -0.2998  0.1853
  596MOL0     C80366  11.785   6.498   9.070 -0.3285 -0.0639 -1.1283
  596MOL0     C80367  11.662   6.415   9.030  0.8835  0.1417  0.5496
  596MOL0     C80368  11.658   6.359   8.884  0.0700  0.7796  0.2603
  596MOL0    Cl80369  11.626   6.481   8.752 -0.2546  0.1471  0.1359
  596MOL0     C80370  11.605   7.266   9.128 -0.2563  0.5351 -0.0813
  596MOL0     C80371  11.624   7.383   9.046  0.3686 -0.7640  0.2309
  596MOL0     O80372  11.410   7.553   8.847  0.6112  0.3309 -0.1058
  596MOL0     C80373  11.617   7.666   8.584  0.0009 -1.3454 -0.0393
  596MOL0     C80374  11.634   7.769   8.497  0.2435 -0.4611  0.0144
  596MOL0     N80375  11.274   8.146   7.967 -0.3601  0.3792 -0.0823
  596MOL0     N80376  11.222   8.149   7.855  0.1479  0.0706  0.1803
  596MOL0     C80377  10.539   7.618   7.687 -0.5683 -0.2718  0.1141
  596MOL0     C80378  10.479   7.508   7.754  0.6314  0.1387 -0.1485
  596MOL0     C80379  10.338   7.064   7.787 -0.1758 -0.2055 -0.4190
  596MOL0     C80380  10.211   7.095   7.841  0.3772 -1.0985  0.7000
  596MOL0     C80381  10.130   6.993   7.884 -0.3584 -0.9578  0.2772
  596MOL0     C80382  10.171   6.862   7.888 -0.3601  1.0322  0.5137
  596MOL0     O80383  10.095   6.772   7.958  0.3120 -0.5290 -0.4302
  596MOL0     C80384   9.968   6.747   7.893 -0.4753 -0.8957 -0.2950
  596MOL0     C80385   9.982   6.680   7.754 -0.1275 -0.4501  0.7406
  596MOL0     C80386  10.044   6.537   7.756 -0.4970  0.1456 -0.5652
  596MOL0     C80387  10.048   6.468   7.619 -0.3651 -0.3222 -0.9905
  596MOL0     C80388  10.044   6.546   7.500  0.0998  0.4811  0.6148
  596MOL0     C80389  10.040   6.614   7.397 -0.1258 -0.4838 -0.7071
  596MOL0     C80390  10.299   6.830   7.842 -0.4296 -0.6482  0.3583
  596MOL0     C80391  10.387   6.927   7.784 -0.3473  0.7473  0.2618
  596MOL0     C80392  10.511   6.872   7.705 -1.0856 -0.3309 -0.5251
  596MOL0     H80393  10.323   7.359   7.495 -1.3893  0.4005  0.9405
  596MOL0     H80394  10.426   7.540   7.377  1.4689 -2.4183 -0.7569
  596MOL0     H80395  10.657   7.583   7.340  0.7220  0.1139  0.0844
  596MOL0     H80396  10.676   7.744   7.287  2.0844  0.9843 -0.7213
  596MOL0     H80397  10.878   7.616   7.358 -0.5492  2.8389 -1.6544
  596MOL0     H80398  10.807   7.623   7.523 -1.3412  0.0681  0.1966
  596MOL0     H80399  10.813   7.881   7.494 -1.0024  0.3811 -1.9077
  596MOL0     H80400  10.886   7.849   7.332 -0.1469 -2.8711 -1.2843
  596MOL0     H80401  11.000   7.778   7.604  2.0492  2.6770  0.9464
  596MOL0     H80402  11.067   7.726   7.440  0.7591  1.2241 -1.3693
  596MOL0     H80403  11.146   7.942   7.394  4.9744 -0.8416  1.6154
  596MOL0     H80404  11.055   8.004   7.541  0.1655  0.4900 -1.5551
  596MOL0     H80405  11.185   7.874   7.672  0.4545  1.6366  0.5586
  596MOL0     H80406  11.274   7.794   7.541  0.6149 -0.4896  1.2368
  596MOL0     H80407  11.389   7.997   7.478  4.0795  0.1210  1.9779
  596MOL0     H80408  11.414   7.954   7.649 -2.2198  0.4701  1.6638
  596MOL0     H80409  11.364   8.202   7.559  1.7575  0.9607  1.0370
  596MOL0     H80410  11.193   8.147   7.588  0.3636  0.8417 -0.4876
  596MOL0     H80411  11.536   8.189   7.774  2.2756 -0.5994  1.3366
  596MOL0     H80412  11.599   8.188   8.020  0.3533 -1.6463  4.3400
  596MOL0     H80413  11.482   8.312   8.072  2.5595  1.6936  0.2927
  596MOL0     H80414  11.376   8.105   8.199  0.2710 -1.4070  3.1774
  596MOL0     H80415  11.528   8.028   8.170 -0.5395 -1.0483  4.8845
  596MOL0     H80416  11.525   8.296   8.311  0.1153  0.0566  0.8363
  596MOL0     H80417  11.653   8.178   8.303 -0.5999 -0.5302  0.8191
  596MOL0     H80418  11.385   8.090   8.418 -0.2117 -1.5294  0.7193
  596MOL0     H80419  11.508   8.158   8.520 -1.7391  1.4434 -0.1282
  596MOL0     H80420  11.408   7.985   8.623  0.9893 -0.6708  0.3403
  596MOL0     H80421  11.372   7.802   8.780  0.8328  4.8377  1.2782
  596MOL0     H80422  11.571   7.248   8.747  1.8882 -0.5521  0.1705
  596MOL0     H80423  11.538   7.040   8.897  1.5462 -0.7371  2.0265
  596MOL0     H80424  11.731   7.044   9.302  0.1399  2.8435  0.9704
  596MOL0     H80425  11.568   7.090   9.353 -3.4023  0.7903 -4.1136
  596MOL0     H80426  11.586   6.881   9.455 -0.1020  2.3313 -0.9165
  596MOL0     H80427  11.507   6.855   9.290  0.2736  3.4210 -1.6513
  596MOL0     H80428  11.797   6.829   9.308 -1.5316  2.1523 -1.2738
  596MOL0     H80429  11.717   6.713   9.408  1.7504 -1.0141 -0.1460
  596MOL0     H80430  11.683   6.756   9.113  1.0472  2.1306  1.1262
  596MOL0     H80431  11.572   6.652   9.213 -0.5198  1.0644  3.1673
  596MOL0     H80432  11.743   6.507   9.281 -3.6114  1.2996  0.0557
  596MOL0     H80433  11.876   6.611   9.210  0.5404  1.4746 -2.4075
  596MOL0     H80434  11.806   6.576   8.995 -2.6629  2.8423  0.9809
  596MOL0     H80435  11.871   6.431   9.079  0.8217  1.6338  1.6742
  596MOL0     H80436  11.568   6.469   9.047  0.1626 -0.1849 -1.9157
  596MOL0     H80437  11.655   6.326   9.092  1.3143  0.7088  1.4249
  596MOL0     H80438  11.748   6.303   8.859 -2.0344 -1.9724 -1.7412
  596MOL0     H80439  11.577   6.286   8.880  2.5928 -2.3771  1.9298
  596MOL0     H80440  11.633   7.309   9.224  1.2238  0.5250 -0.4763
  596MOL0     H80441  11.640   7.480   9.093 -2.2547 -1.3874  2.7048
  596MOL0     H80442  11.683   7.581   8.576  2.0764  0.2657 -1.1851
  596MOL0     H80443  11.721   7.775   8.432 -0.3374 -1.2697 -0.8732
  596MOL0     H80444  10.605   7.689   7.736 -0.3915  0.2536 -0.8544
  596MOL0     H80445  10.508   7.496   7.858  0.8316  2.7531  0.1521
  596MOL0     H80446  10.161   7.191   7.837 -1.2766 -1.9678 -1.3736
  596MOL0     H80447  10.035   7.021   7.929 -1.0647  1.0665 -2.2587
  596MOL0     H80448   9.919   6.841   7.864  1.1769 -0.4869 -1.8799
  596MOL0     H80449   9.896   6.692   7.954  0.1266  0.9657  2.2665
  596MOL0     H80450  10.026   6.743   7.677 -0.9592 -4.6550 -3.6990
  596MOL0     H80451   9.880   6.656   7.722  0.6291 -1.5022 -1.0379
  596MOL0     H80452   9.987   6.474   7.826  1.1574 -1.1862 -0.3294
  596MOL0     H80453  10.148   6.547   7.790 -0.4631  3.7784 -1.3842
  596MOL0     H80454  10.124   6.390   7.616  1.6409  1.4570  0.6790
  596MOL0     H80455   9.950   6.419   7.614 -0.9076  0.8995 -3.5138
  596MOL0     H80456  10.019   6.675   7.312 -0.9737 -0.2465 -0.3387
  596MOL0     H80457  10.325   6.725   7.832 -2.2687 -1.3225  2.0592
  596MOL0     H80458  10.495   6.765   7.696 -1.7992 -0.7076  3.3956
  596MOL0     H80459  10.530   6.918   7.607  1.2180  0.1579  0.0923
  596MOL0     H80460  10.604   6.879   7.762 -2.6788 -2.9206  2.6830
  597MOL0     O80461   5.981   2.005   9.186  1.1540  0.1123 -1.1641
  597MOL0     C80462   6.017   1.886   9.166 -0.2506  0.1547  1.3445
  597MOL0     O80463   6.138   1.835   9.205  0.6989  0.3378  0.0373
  597MOL0     C80464   6.247   1.917   9.209  0.1785  0.3327  0.0676
  597MOL0     C80465   6.265   2.024   9.123 -0.1526  0.4077  0.1385
  597MOL0     C80466   6.370   2.111   9.137 -0.3495 -0.7950  0.2090
  597MOL0     C80467   6.462   2.101   9.241 -0.1286  0.3102 -0.1678
  597MOL0     O80468   6.582   2.181   9.263  0.0208 -0.6366  0.1981
  597MOL0     C80469   6.587   2.298   9.181  0.4440 -0.0416  0.1016
  597MOL0     C80470   6.705   2.384   9.231  0.8734  0.3219  0.0708
  597MOL0     C80471   6.723   2.518   9.149  0.3150 -0.8175 -0.5039
  597MOL0     C80472   6.823   2.623   9.200 -0.9309  0.1248 -0.4604
  597MOL0     C80473   6.866   2.721   9.092  0.6714  0.9094  0.0643
  597MOL0     C80474   6.996   2.781   9.144 -0.0498  0.8944 -0.2280
  597MOL0     C80475   7.051   2.888   9.055  0.9327 -1.5062  0.4723
  597MOL0     C80476   7.198   2.937   9.076  0.6613 -0.1454 -0.3108
  597MOL0     N80477   7.245   3.018   8.956 -0.2755  0.5192  0.0127
  597MOL0     C80478   7.242   3.152   8.960 -1.2258  0.3800  0.2427
  597MOL0     C80479   7.256   3.182   8.827 -0.2380  0.6573  0.2057
  597MOL0     C80480   7.272   3.317   8.775  0.8098  0.6426 -0.0899
  597MOL0     C80481   7.283   3.328   8.625 -0.2666  0.0042 -0.9888
  597MOL0     C80482   7.216   3.461   8.567  1.3754  0.4201  0.7103
  597MOL0     C80483   7.057   3.463   8.569 -0.0189  0.5054 -0.4169
  597MOL0     O80484   7.016   3.576   8.494  0.1717  0.4242  0.6423
  597MOL0     C80485   6.889   3.625   8.500 -0.2718  0.1389  0.0932
  597MOL0     C80486   6.789   3.557   8.574  0.9010 -0.4082  0.1708
  597MOL0     C80487   6.660   3.607   8.578  0.1086  0.7486  0.3042
  597MOL0     C80488   6.619   3.715   8.499  0.0721  0.6730  0.5375
  597MOL0     C80489   6.480   3.750   8.492 -0.1588 -0.7572  0.4872
  597MOL0     O80490   6.437   3.876   8.469  0.8454  0.6235 -0.1562
  597MOL0     C80491   6.510   3.988   8.500  0.6932 -0.5014 -1.1327
  597MOL0     C80492   6.474   4.102   8.425  0.5009  0.2889 -0.7674
  597MOL0     C80493   6.547   4.219   8.435 -0.0919  0.8959 -0.3459
  597MOL0     C80494   6.661   4.218   8.519 -0.2353 -0.3327  0.3990
  597MOL0     O80495   6.736   4.329   8.527  0.3988 -0.1843 -0.1914
  597MOL0     C80496   6.667   4.452   8.571 -0.2331 -0.5863 -0.3745
  597MOL0     C80497   6.753   4.569   8.532  0.8276 -0.2002 -0.2354
  597MOL0     C80498   6.693   4.710   8.575 -0.4652  0.2526  0.0908
  597MOL0     C80499   6.789   4.825   8.566 -0.1025  0.4388 -0.6810
  597MOL0     C80500   6.728   4.960   8.507 -0.4695  1.0886 -0.4223
  597MOL0     C80501   6.846   5.056   8.493 -0.6293 -1.1701 -0.1919
  597MOL0     C80502   6.791   5.186   8.447 -0.9250 -0.6169  0.7651
  597MOL0     C80503   6.893   5.296   8.452  0.6893 -0.3119 -0.2304
  597MOL0    Cl80504   6.806   5.449   8.459 -0.0982  0.4788  0.2701
  597MOL0     C80505   6.693   4.107   8.593  1.2910 -0.0520 -0.1863
  597MOL0     C80506   6.612   3.991   8.584  0.2518 -0.1835  0.4829
  597MOL0     O80507   6.412   3.647   8.482  0.2878  0.4101  0.0121
  597MOL0     C80508   6.718   3.770   8.417  0.2879 -0.3900 -0.2432
  597MOL0     C80509   6.847   3.734   8.428  0.0383  0.6610  0.4740
  597MOL0     N80510   7.258   3.072   8.755 -0.1029  0.1192  0.1648
  597MOL0     N80511   7.263   2.972   8.833  0.1013  0.0296  0.4312
  597MOL0     C80512   6.451   1.985   9.327 -0.0076 -0.5424 -0.5009
  597MOL0     C80513   6.344   1.900   9.313 -0.5732  0.2559  0.4773
  597MOL0     C80514   5.926   1.804   9.081  0.7439  0.7973 -0.8734
  597MOL0     C80515   5.994   1.728   8.985 -0.7459 -0.3633 -0.2110
  597MOL0     C80516   5.929   1.635   8.899  0.0208  0.8605 -0.2128
  597MOL0     C80517   5.789   1.628   8.900  0.1798  0.2091  0.5906
  597MOL0     O80518   5.729   1.546   8.809 -0.1985 -0.1056  0.2703
  597MOL0     C80519   5.683   1.425   8.879  0.2313 -0.1121  0.0659
  597MOL0     C80520   5.727   1.296   8.796 -0.1075  0.9737 -0.2311
  597MOL0     C80521   5.880   1.282   8.776 -0.7573  0.0218  0.7657
  597MOL0     C80522   5.933   1.147   8.724  0.1557 -0.4190  0.1262
  597MOL0     C80523   6.077   1.170   8.698 -0.1166  0.8959  0.1041
  597MOL0     C80524   6.196   1.186   8.681  0.1053  0.2439 -0.5854
  597MOL0     C80525   5.715   1.706   8.997  0.2276  0.1856  0.3663
  597MOL0     C80526   5.792   1.786   9.085  0.8160 -0.4499  0.0518
  597MOL0     C80527   5.706   1.859   9.191  0.0626  0.4497  0.0274
  597MOL0     H80528   6.195   2.040   9.042  0.7506  1.5468 -0.4520
  597MOL0     H80529   6.368   2.194   9.067 -1.2489 -3.6126 -3.3848
  597MOL0     H80530   6.585   2.274   9.075 -1.0709 -0.7919  0.2731
  597MOL0     H80531   6.493   2.354   9.191 -0.6503 -1.7987  0.1025
  597MOL0     H80532   6.785   2.310   9.221 -1.6838 -2.6569 -0.0572
  597MOL0     H80533   6.685   2.414   9.334 -2.5031 -0.5688 -0.2070
  597MOL0     H80534   6.626   2.567   9.135  0.6110 -0.7763 -2.7792
  597MOL0     H80535   6.746   2.497   9.044 -2.2406  3.2234 -2.1193
  597MOL0     H80536   6.777   2.680   9.281  1.3852  1.1401  0.2221
  597MOL0     H80537   6.907   2.570   9.246 -0.2594  2.1612  0.7636
  597MOL0     H80538   6.876   2.671   8.995 -0.7714 -0.0874  0.3863
  597MOL0     H80539   6.785   2.795   9.095  0.9622  1.2907 -1.0224
  597MOL0     H80540   6.972   2.826   9.241  0.7052  1.6291 -0.3659
  597MOL0     H80541   7.066   2.697   9.149 -2.2388 -1.0020  0.1021
  597MOL0     H80542   6.986   2.976   9.066  0.6908 -1.5188 -0.7371
  597MOL0     H80543   7.041   2.856   8.951  1.2317 -0.0487 -0.0295
  597MOL0     H80544   7.190   3.015   9.153  1.1902  1.3194 -1.6915
  597MOL0     H80545   7.262   2.850   9.092  2.7721  1.0102 -1.8890
  597MOL0     H80546   7.234   3.221   9.043  1.2134 -0.0399  0.9133
  597MOL0     H80547   7.177   3.364   8.801  0.7386 -0.5178  2.0287
  597MOL0     H80548   7.344   3.370   8.837  0.3759  1.4590 -0.2751
  597MOL0     H80549   7.385   3.314   8.590 -0.1289  0.7899 -0.9184
  597MOL0     H80550   7.227   3.245   8.581  1.6666 -1.5535 -0.6274
  597MOL0     H80551   7.234   3.470   8.459 -0.4560  2.2683  0.4672
  597MOL0     H80552   7.250   3.555   8.611 -0.2436  1.5809 -0.3673
  597MOL0     H80553   7.017   3.471   8.670  1.2803 -2.0251  0.3831
  597MOL0     H80554   7.033   3.365   8.527  0.1861 -0.3789  1.4289
  597MOL0     H80555   6.795   3.465   8.632 -0.8593 -1.5978 -1.4213
  597MOL0     H80556   6.585   3.558   8.640 -1.5539  0.2947 -1.9008
  597MOL0     H80557   6.390   4.100   8.357 -1.3398 -4.1193  1.3175
  597MOL0     H80558   6.504   4.308   8.391 -2.0856  0.0092 -0.2891
  597MOL0     H80559   6.562   4.455   8.539 -0.7090 -3.0160  0.7327
  597MOL0     H80560   6.654   4.441   8.679 -0.9953 -2.5098 -0.6204
  597MOL0     H80561   6.842   4.557   8.596 -0.0775  2.0249  1.5921
  597MOL0     H80562   6.778   4.555   8.427  0.3865 -1.5780 -0.1838
  597MOL0     H80563   6.602   4.731   8.518  1.4974  3.6694 -2.1441
  597MOL0     H80564   6.664   4.704   8.680 -1.2902  1.6306 -0.0320
  597MOL0     H80565   6.875   4.790   8.508 -1.0918 -1.5419 -1.0094
  597MOL0     H80566   6.825   4.839   8.668 -3.6498 -1.0843  0.9407
  597MOL0     H80567   6.660   4.996   8.584  0.1275  3.1087 -0.7707
  597MOL0     H80568   6.661   4.933   8.424 -2.8323  2.4815  0.9366
  597MOL0     H80569   6.892   5.078   8.590 -0.7718  0.8979 -0.5346
  597MOL0     H80570   6.930   5.024   8.431  1.9581  1.1646  1.8177
  597MOL0     H80571   6.697   5.216   8.494 -0.4119 -0.3945  1.6875
  597MOL0     H80572   6.769   5.172   8.341  5.0414  1.8247 -1.2495
  597MOL0     H80573   6.957   5.292   8.540 -1.9676 -0.4517  1.8435
  597MOL0     H80574   6.953   5.296   8.361 -0.1753 -2.0329 -0.8376
  597MOL0     H80575   6.775   4.120   8.663  0.1299  0.9220  1.0400
  597MOL0     H80576   6.621   3.910   8.656  2.0009  0.1347  0.6789
  597MOL0     H80577   6.699   3.849   8.344  1.1827  0.1959  0.1356
  597MOL0     H80578   6.928   3.772   8.366  1.3947 -3.4476 -0.5837
  597MOL0     H80579   6.533   1.972   9.397 -0.6037  0.5769  0.4368
  597MOL0     H80580   6.335   1.823   9.388  0.4049  0.4975  0.8445
  597MOL0     H80581   6.101   1.728   8.971 -0.7784 -2.4835 -0.8079
  597MOL0     H80582   5.985   1.591   8.818 -0.6490  0.1708 -0.3188
  597MOL0     H80583   5.574   1.421   8.886  0.1897 -0.7218 -0.8468
  597MOL0     H80584   5.718   1.414   8.982 -2.3626 -0.3872  0.9714
  597MOL0     H80585   5.680   1.302   8.697 -0.6438  6.1816  0.0393
  597MOL0     H80586   5.688   1.210   8.852 -1.0148  1.0384 -0.7318
  597MOL0     H80587   5.924   1.311   8.872  0.8398 -2.3398  0.8195
  597MOL0     H80588   5.910   1.365   8.710  2.9431 -1.1533  0.7349
  597MOL0     H80589   5.914   1.080   8.808 -2.0400  0.0297  0.0431
  597MOL0     H80590   5.866   1.123   8.641 -0.9445  0.2510  0.7919
  597MOL0     H80591   6.302   1.195   8.692  0.4007 -2.7387 -0.2383
  597MOL0     H80592   5.608   1.720   9.000  0.4072  1.5075  2.0128
  597MOL0     H80593   5.709   1.967   9.173 -3.6488  0.6464 -0.1722
  597MOL0     H80594   5.598   1.840   9.190 -0.1413  1.0828  2.8413
  597MOL0     H80595   5.741   1.834   9.292 -2.0871 -0.5623  0.6023
  598MOL0     O80596   4.920  11.061  10.810 -0.0984  0.0457 -0.3664
  598MOL0     C80597   4.848  10.961  10.842 -0.1288 -0.2659  0.6021
  598MOL0     O80598   4.755  10.912  10.751  0.7239 -0.7877 -0.9584
  598MOL0     C80599   4.752  10.975  10.630 -0.4911 -0.0284 -0.0100
  598MOL0     C80600   4.839  10.952  10.519 -0.2495 -0.8985 -0.1171
  598MOL0     C80601   4.835  11.030  10.403 -0.2954 -0.3936 -0.2366
  598MOL0     C80602   4.769  11.152  10.401 -0.8348 -0.3588 -0.2965
  598MOL0     O80603   4.792  11.229  10.288 -0.2066 -0.0692  0.2887
  598MOL0     C80604   4.701  11.334  10.258 -0.0225 -0.0988  0.4958
  598MOL0     C80605   4.577  11.274  10.194  0.5511 -0.2132 -0.4703
  598MOL0     C80606   4.481  11.378  10.138  0.5255 -0.0446  0.2109
  598MOL0     C80607   4.355  11.310  10.099  0.4882 -0.1717  0.1836
  598MOL0     C80608   4.273  11.387   9.999 -0.0049 -0.2482 -0.0960
  598MOL0     C80609   4.132  11.343   9.971 -0.0009  0.5271 -0.1377
  598MOL0     C80610   4.086  11.423   9.846 -0.3498 -0.2911 -0.2057
  598MOL0     C80611   3.940  11.370   9.824 -0.9748  0.1397 -0.3795
  598MOL0     N80612   3.850  11.483   9.836  0.0358 -0.2028  0.6157
  598MOL0     C80613   3.788  11.516   9.949  0.2455 -1.7363 -0.0598
  598MOL0     C80614   3.697  11.612   9.915 -0.6307  0.4810 -0.1032
  598MOL0     C80615   3.602  11.680  10.000 -0.4556 -0.5243 -0.7465
  598MOL0     C80616   3.477  11.597  10.023  0.6160  0.6551 -0.3433
  598MOL0     C80617   3.368  11.623   9.917 -0.1579  0.6621 -0.0536
  598MOL0     C80618   3.236  11.536   9.940  0.5066 -0.1346  0.4393
  598MOL0     O80619   3.158  11.540   9.822  0.3373 -0.8678 -0.0431
  598MOL0     C80620   3.024  11.504   9.829  0.7664 -0.3365  0.2717
  598MOL0     C80621   2.950  11.514   9.717 -0.6066 -0.1892  0.2769
  598MOL0     C80622   2.812  11.478   9.716 -0.6346  0.0308 -0.3907
  598MOL0     C80623   2.751  11.425   9.832  0.9611  0.0479 -0.4218
  598MOL0     C80624   2.606  11.415   9.837 -0.1336  0.1827 -0.5535
  598MOL0     O80625   2.548  11.387   9.957  0.7156  0.0033  0.3751
  598MOL0     C80626   2.421  11.332   9.978  0.4000  0.0099 -1.0290
  598MOL0     C80627   2.371  11.333  10.116 -0.4606  1.2861  0.3149
  598MOL0     C80628   2.242  11.279  10.138 -0.3046  0.1317 -0.3388
  598MOL0     C80629   2.166  11.223  10.036  0.4150 -0.2837  0.5712
  598MOL0     O80630   2.043  11.160  10.051 -0.0791  0.4320  0.0597
  598MOL0     C80631   1.959  11.233  10.142  0.6792 -0.2410  0.7337
  598MOL0     C80632   1.808  11.198  10.114  0.1202  0.2186 -0.3785
  598MOL0     C80633   1.786  11.044  10.156 -0.7764  0.1490 -0.2860
  598MOL0     C80634   1.639  11.015  10.159 -1.1038 -0.0593  1.2743
  598MOL0     C80635   1.625  10.892  10.258  0.5677 -0.7426  0.7950
  598MOL0     C80636   1.682  10.763  10.207 -0.2462  0.4493 -0.1603
  598MOL0     C80637   1.656  10.646  10.308 -0.9539  0.3606 -0.5777
  598MOL0     C80638   1.729  10.509  10.285  0.5144 -1.2965  0.0463
  598MOL0    Cl80639   1.905  10.535  10.301 -0.1606 -0.2577 -0.4287
  598MOL0     C80640   2.212  11.218   9.904  0.2123  0.7946 -0.3434
  598MOL0     C80641   2.340  11.277   9.878  0.3599 -0.0838  0.0163
  598MOL0     O80642   2.552  11.410   9.725  0.2347 -0.1092  0.5582
  598MOL0     C80643   2.832  11.401   9.932 -0.2624 -0.3013 -0.7986
  598MOL0     C80644   2.962  11.445   9.938 -0.1947  0.0794  1.0784
  598MOL0     N80645   3.708  11.627   9.778 -0.0194 -0.1233 -0.3010
  598MOL0     N80646   3.798  11.554   9.734  0.0942 -0.0626  0.0774
  598MOL0     C80647   4.675  11.172  10.503  0.3426 -0.6981 -0.7784
  598MOL0     C80648   4.673  11.089  10.618 -0.0608  0.2720 -0.0757
  598MOL0     C80649   4.854  10.908  10.981 -0.6789  0.1624  0.4272
  598MOL0     C80650   4.748  10.823  11.035  0.1284 -0.4336 -0.1247
  598MOL0     C80651   4.750  10.761  11.160 -0.8007 -0.1804  1.2707
  598MOL0     C80652   4.861  10.786  11.245  0.1192 -0.1341  0.2145
  598MOL0     O80653   4.864  10.727  11.368 -0.2526 -0.1112 -0.4751
  598MOL0     C80654   4.981  10.743  11.454 -0.2960 -0.2082 -0.5225
  598MOL0     C80655   4.961  10.649  11.576 -0.6438  0.7801 -0.1207
  598MOL0     C80656   5.010  10.505  11.544  0.6443  0.1415  0.5541
  598MOL0     C80657   5.160  10.495  11.594  0.4258 -0.5249  0.5814
  598MOL0     C80658   5.207  10.355  11.574  0.5751  0.0137  0.6535
  598MOL0     C80659   5.230  10.239  11.569  0.3963 -0.1447  0.3736
  598MOL0     C80660   4.965  10.866  11.199  0.1592 -0.4780 -0.3185
  598MOL0     C80661   4.963  10.923  11.061 -0.3312  0.8968 -0.7803
  598MOL0     C80662   5.095  10.990  11.020  0.0190 -0.5885  0.1337
  598MOL0     H80663   4.907  10.868  10.529  0.9258  0.0141 -0.2464
  598MOL0     H80664   4.902  10.982  10.333 -0.2253 -0.4569 -0.1288
  598MOL0     H80665   4.673  11.390  10.347  1.7839 -1.5833  2.0639
  598MOL0     H80666   4.743  11.401  10.182 -0.2609 -0.0270  0.4276
  598MOL0     H80667   4.529  11.226  10.280  0.9638 -2.6970 -1.5255
  598MOL0     H80668   4.605  11.198  10.121 -0.7904 -1.1167 -0.0978
  598MOL0     H80669   4.525  11.438  10.057 -0.0032 -0.9474 -0.7661
  598MOL0     H80670   4.453  11.445  10.220 -0.8951  1.2012 -1.2123
  598MOL0     H80671   4.365  11.213  10.051 -3.9125  0.3365 -2.3065
  598MOL0     H80672   4.297  11.299  10.191  0.9697 -0.7909  0.4166
  598MOL0     H80673   4.266  11.487  10.044 -0.9499 -0.2075 -0.2938
  598MOL0     H80674   4.326  11.399   9.905 -0.2882 -1.9348 -0.4933
  598MOL0     H80675   4.130  11.236   9.948 -1.3835  0.4812  0.0703
  598MOL0     H80676   4.069  11.347  10.061  2.4788  2.2940  1.6631
  598MOL0     H80677   4.146  11.397   9.759  1.1835 -0.0089  0.7316
  598MOL0     H80678   4.091  11.532   9.857 -0.6677 -0.0410 -2.1924
  598MOL0     H80679   3.932  11.318   9.728  0.0352 -1.0919  0.1845
  598MOL0     H80680   3.910  11.293   9.895 -1.7804  0.5917 -0.2170
  598MOL0     H80681   3.797  11.471  10.047  1.0079 -0.1966  0.6118
  598MOL0     H80682   3.654  11.688  10.096 -2.2587 -1.4322  0.3461
  598MOL0     H80683   3.592  11.776   9.948  2.5930 -0.6761 -1.8472
  598MOL0     H80684   3.504  11.492  10.022 -2.8189 -0.3607 -1.8450
  598MOL0     H80685   3.440  11.617  10.124  0.3371 -1.9387  0.1265
  598MOL0     H80686   3.413  11.593   9.821  1.2513  0.2329  0.7178
  598MOL0     H80687   3.341  11.729   9.920  0.4666  0.8487 -0.6431
  598MOL0     H80688   3.178  11.576  10.023 -1.1240 -4.2451  1.5157
  598MOL0     H80689   3.269  11.435   9.965 -3.3771 -0.9620  3.0387
  598MOL0     H80690   2.998  11.556   9.629 -2.0958 -2.2989 -1.6467
  598MOL0     H80691   2.756  11.507   9.628  2.5726  3.3751 -1.6234
  598MOL0     H80692   2.436  11.378  10.190  1.8069  1.0795 -1.4396
  598MOL0     H80693   2.208  11.273  10.241 -1.8320 -2.3155 -0.8834
  598MOL0     H80694   1.990  11.203  10.243  1.2698  1.5567  1.1167
  598MOL0     H80695   1.964  11.342  10.130 -1.5550 -0.3368 -1.7153
  598MOL0     H80696   1.742  11.252  10.182 -0.1339  0.5537 -0.8854
  598MOL0     H80697   1.782  11.207  10.008  0.0747 -1.9236 -0.5971
  598MOL0     H80698   1.835  10.978  10.083 -0.7903 -0.2926  0.0966
  598MOL0     H80699   1.833  11.030  10.254 -0.3538  1.5927 -0.2572
  598MOL0     H80700   1.614  10.990  10.055  3.2018  4.3086 -1.2372
  598MOL0     H80701   1.584  11.101  10.199  1.4979  0.5900  3.7751
  598MOL0     H80702   1.517  10.874  10.265  0.7572 -3.0275 -1.0230
  598MOL0     H80703   1.664  10.921  10.356  0.9627 -0.7693  0.6441
  598MOL0     H80704   1.647  10.733  10.108  5.0114  1.5570 -2.7363
  598MOL0     H80705   1.791  10.765  10.203 -0.2352  0.4451  0.1001
  598MOL0     H80706   1.547  10.638  10.313 -1.1303  2.5827  2.4731
  598MOL0     H80707   1.685  10.687  10.406 -1.3253  1.1538 -0.7880
  598MOL0     H80708   1.698  10.423  10.345  4.6602 -0.9453  3.0592
  598MOL0     H80709   1.698  10.489  10.182 -0.5323  0.3324  0.0032
  598MOL0     H80710   2.148  11.179   9.825 -1.0454  0.9261  0.5805
  598MOL0     H80711   2.369  11.276   9.774  0.1013 -0.6698 -0.0530
  598MOL0     H80712   2.791  11.344  10.014 -0.2249  2.2405  1.1137
  598MOL0     H80713   3.015  11.420  10.030 -1.0447 -1.8858  1.0846
  598MOL0     H80714   4.595  11.245  10.502  0.6040 -0.1903  2.7602
  598MOL0     H80715   4.604  11.116  10.698 -0.9042  1.0533 -1.0409
  598MOL0     H80716   4.665  10.808  10.967  1.0735  2.9473 -2.2757
  598MOL0     H80717   4.682  10.694  11.211  0.0271  0.0075  2.6807
  598MOL0     H80718   4.991  10.848  11.483 -1.7884 -0.7041  2.0466
  598MOL0     H80719   5.070  10.706  11.402 -0.4775  0.6927 -1.4982
  598MOL0     H80720   4.858  10.648  11.612 -1.2454 -5.0185 -1.0922
  598MOL0     H80721   5.028  10.694  11.650  0.5470 -0.0334 -0.6682
  598MOL0     H80722   4.991  10.482  11.439  1.1121  0.0968  0.4761
  598MOL0     H80723   4.929  10.444  11.586 -1.1380  1.0167 -1.4082
  598MOL0     H80724   5.233  10.573  11.570  1.0907 -1.6744 -1.3694
  598MOL0     H80725   5.149  10.501  11.703 -3.0352 -1.4733  0.4107
  598MOL0     H80726   5.243  10.134  11.557  2.4349  0.1959 -1.0296
  598MOL0     H80727   5.058  10.873  11.254  2.0211  0.6338 -3.3977
  598MOL0     H80728   5.151  10.929  10.949 -1.3858  0.4981 -2.0205
  598MOL0     H80729   5.067  11.085  10.973  3.0295  1.7286  2.6166
  598MOL0     H80730   5.169  11.001  11.100 -0.1603  2.7789 -0.0302
  599MOL0     O80731   4.777   7.058   4.107  0.7361  0.0133  0.5766
  599MOL0     C80732   4.745   7.016   4.002  0.8134  0.7506  0.6683
  599MOL0     O80733   4.687   7.087   3.896 -0.1376 -0.0576 -0.1274
  599MOL0     C80734   4.664   7.220   3.909 -0.4096 -0.2407 -0.8929
  599MOL0     C80735   4.643   7.293   4.033  0.5673  0.0047  0.6111
  599MOL0     C80736   4.612   7.430   4.026  0.4659  0.3964  0.5774
  599MOL0     C80737   4.591   7.488   3.899  0.2186 -0.3533  0.6596
  599MOL0     O80738   4.557   7.619   3.878  0.1096 -0.8222  0.5302
  599MOL0     C80739   4.534   7.712   3.984  0.9116 -0.5254 -0.3624
  599MOL0     C80740   4.469   7.831   3.913 -0.7002  0.5100 -0.6159
  599MOL0     C80741   4.462   7.970   3.970 -0.3021  0.0139 -0.5341
  599MOL0     C80742   4.603   8.035   4.006 -0.6328  0.4990 -0.2197
  599MOL0     C80743   4.595   8.174   4.069  0.8252  0.0290  0.3744
  599MOL0     C80744   4.667   8.280   3.978  0.3583  0.0151 -0.5534
  599MOL0     C80745   4.690   8.418   4.054 -0.4796  0.6428  0.1639
  599MOL0     C80746   4.835   8.412   4.089 -0.3422  0.0863 -1.0130
  599MOL0     N80747   4.861   8.493   4.215 -0.4385  0.3170  0.5272
  599MOL0     C80748   4.921   8.617   4.218  0.0016 -0.0940 -0.8310
  599MOL0     C80749   4.926   8.657   4.349 -0.5155  0.2356 -0.1776
  599MOL0     C80750   4.981   8.791   4.395  0.0775  0.0846 -0.4946
  599MOL0     C80751   4.981   8.814   4.546  1.6432 -0.6575 -0.4861
  599MOL0     C80752   5.091   8.746   4.615  0.1912  0.1450 -0.0743
  599MOL0     C80753   5.131   8.802   4.751 -0.9487  0.3954 -0.4088
  599MOL0     O80754   5.125   8.942   4.768  0.8976 -0.6665  0.3141
  599MOL0     C80755   5.145   9.002   4.890  0.0089 -0.4390 -0.5667
  599MOL0     C80756   5.175   8.927   5.005 -1.0628  0.1428 -0.4029
  599MOL0     C80757   5.197   8.978   5.128  1.1342 -0.7256  0.2290
  599MOL0     C80758   5.198   9.126   5.135  0.2218  0.3200  0.1347
  599MOL0     C80759   5.210   9.173   5.268 -0.4712  0.4121 -0.2206
  599MOL0     O80760   5.228   9.084   5.371 -1.0508 -0.5753 -0.3036
  599MOL0     C80761   5.195   9.109   5.504 -0.0790 -0.1453  1.2211
  599MOL0     C80762   5.290   9.158   5.593  0.4659  0.3460 -0.3412
  599MOL0     C80763   5.249   9.194   5.724  0.0693  0.5896  0.0221
  599MOL0     C80764   5.111   9.184   5.767 -0.1561 -0.1109 -0.4824
  599MOL0     O80765   5.087   9.219   5.901 -0.3426 -0.6039 -0.3657
  599MOL0     C80766   5.010   9.120   5.975 -0.6031 -0.0635 -0.3866
  599MOL0     C80767   5.015   9.136   6.128 -0.2916  0.0779  0.5991
  599MOL0     C80768   4.878   9.123   6.190 -0.5265  0.9959  0.4813
  599MOL0     C80769   4.890   9.116   6.345 -0.0389  0.0064 -0.3720
  599MOL0     C80770   4.751   9.123   6.406 -0.1916 -0.3931  0.5988
  599MOL0     C80771   4.647   9.238   6.361 -0.7438  0.0785  1.1899
  599MOL0     C80772   4.682   9.365   6.429  1.1988  0.2595  0.9190
  599MOL0     C80773   4.568   9.462   6.484 -0.2863 -0.1592 -0.3885
  599MOL0    Cl80774   4.523   9.402   6.643  0.0494  0.0956  0.2428
  599MOL0     C80775   5.019   9.129   5.675 -0.3349  0.5353  0.1988
  599MOL0     C80776   5.066   9.100   5.543  0.6014 -0.0933 -0.0404
  599MOL0     O80777   5.170   9.290   5.282 -0.1814 -0.2157 -0.0034
  599MOL0     C80778   5.175   9.211   5.024 -1.7645  0.8755  0.8340
  599MOL0     C80779   5.141   9.142   4.901  0.9612 -0.1308 -0.5458
  599MOL0     N80780   4.876   8.555   4.426  0.5554 -0.1561  0.7212
  599MOL0     N80781   4.846   8.456   4.350 -0.4433 -0.0754 -0.5451
  599MOL0     C80782   4.604   7.408   3.783  0.0694  0.7618 -0.3405
  599MOL0     C80783   4.643   7.275   3.784  0.2933 -0.0701  0.5465
  599MOL0     C80784   4.750   6.865   3.977  0.9329 -0.3372 -0.7018
  599MOL0     C80785   4.682   6.805   3.871 -0.4760 -0.1211 -0.1102
  599MOL0     C80786   4.703   6.673   3.839 -0.0252  0.3878 -0.0392
  599MOL0     C80787   4.781   6.587   3.925  0.7011  0.4566  0.6983
  599MOL0     O80788   4.786   6.447   3.909 -0.0446 -1.1766  0.5906
  599MOL0     C80789   4.680   6.389   3.831  0.6110  0.4773 -0.6367
  599MOL0     C80790   4.668   6.245   3.874  0.0544  0.9268  0.6121
  599MOL0     C80791   4.787   6.154   3.834  0.0202  0.5499  0.5291
  599MOL0     C80792   4.766   6.009   3.905  0.1592 -0.1419 -0.5094
  599MOL0     C80793   4.885   5.929   3.915 -0.2746 -0.1375  0.5860
  599MOL0     C80794   4.996   5.883   3.933 -0.0321 -0.4170 -0.3286
  599MOL0     C80795   4.827   6.636   4.042  0.0872 -0.2518  0.1483
  599MOL0     C80796   4.818   6.780   4.064  0.1531  1.2603 -0.0124
  599MOL0     C80797   4.901   6.816   4.189  0.8134  0.6175  0.1833
  599MOL0     H80798   4.648   7.243   4.129  1.7919 -1.2140 -0.0533
  599MOL0     H80799   4.603   7.482   4.121 -4.0294  2.0760 -0.5504
  599MOL0     H80800   4.485   7.663   4.069  0.4432 -2.1781 -1.5380
  599MOL0     H80801   4.629   7.748   4.025  1.2890 -0.6903 -1.0959
  599MOL0     H80802   4.365   7.804   3.892 -0.3131 -0.2065 -1.6981
  599MOL0     H80803   4.520   7.851   3.819 -0.4018  0.6122 -0.4325
  599MOL0     H80804   4.392   7.970   4.054 -0.4564 -1.6052 -0.6126
  599MOL0     H80805   4.413   8.034   3.896  0.3868 -0.0258 -1.0251
  599MOL0     H80806   4.661   7.968   4.069  0.4205  2.6476  1.2409
  599MOL0     H80807   4.666   8.046   3.917  0.2917  1.2860  0.5080
  599MOL0     H80808   4.488   8.189   4.081  0.8088  0.6610 -0.4745
  599MOL0     H80809   4.630   8.176   4.173 -0.0122 -1.0486  0.6896
  599MOL0     H80810   4.760   8.245   3.933  0.7201  1.6882 -1.1369
  599MOL0     H80811   4.590   8.311   3.907 -1.8791 -0.8650  1.3724
  599MOL0     H80812   4.632   8.440   4.144 -2.4256  0.3436 -0.9815
  599MOL0     H80813   4.669   8.499   3.984  1.0661  1.9382  1.1449
  599MOL0     H80814   4.856   8.312   4.127 -0.5210  0.4229 -0.0150
  599MOL0     H80815   4.898   8.437   4.003  0.4627  2.5499  0.2080
  599MOL0     H80816   4.964   8.675   4.137  1.3211  0.0804 -0.0230
  599MOL0     H80817   5.077   8.816   4.350  0.3940  1.1066  0.6815
  599MOL0     H80818   4.910   8.864   4.355 -0.0211  1.1377  1.4392
  599MOL0     H80819   4.992   8.921   4.565  0.0232 -0.2935 -1.4424
  599MOL0     H80820   4.889   8.776   4.590  1.5066  0.5224  0.2887
  599MOL0     H80821   5.180   8.745   4.552 -0.7036 -2.3108 -1.4471
  599MOL0     H80822   5.073   8.638   4.622 -0.7492  0.1607 -1.6351
  599MOL0     H80823   5.225   8.760   4.787 -0.3573  3.6241  2.2572
  599MOL0     H80824   5.062   8.761   4.826 -0.3931 -0.2925 -0.2590
  599MOL0     H80825   5.174   8.819   5.004 -0.1361  0.1266 -0.1949
  599MOL0     H80826   5.213   8.912   5.212  2.3920  0.2215  0.7648
  599MOL0     H80827   5.395   9.160   5.566  0.5053 -1.3201 -0.4038
  599MOL0     H80828   5.321   9.221   5.801  2.7057 -0.6274 -1.8543
  599MOL0     H80829   4.905   9.119   5.945 -1.5597 -1.8866  2.5433
  599MOL0     H80830   5.051   9.026   5.938 -2.2289 -0.4823 -1.2332
  599MOL0     H80831   5.075   9.058   6.175 -1.7620 -0.6578  1.3264
  599MOL0     H80832   5.050   9.239   6.140 -1.0833  0.5069 -0.5639
  599MOL0     H80833   4.822   9.213   6.164  0.3171  1.1366 -0.9251
  599MOL0     H80834   4.820   9.036   6.158 -1.7281  1.7279  0.6024
  599MOL0     H80835   4.958   9.192   6.385  2.9835 -1.4247 -2.3379
  599MOL0     H80836   4.937   9.021   6.374 -2.2992 -1.0610  0.0003
  599MOL0     H80837   4.759   9.113   6.515 -2.1135  0.9644  0.9201
  599MOL0     H80838   4.708   9.029   6.370  2.3437 -0.5931 -2.3177
  599MOL0     H80839   4.642   9.257   6.253 -1.9715  2.2645  1.5660
  599MOL0     H80840   4.546   9.202   6.380 -0.2959 -0.7211  2.1530
  599MOL0     H80841   4.746   9.430   6.369  0.4808 -0.7998 -1.1116
  599MOL0     H80842   4.753   9.345   6.509  1.1226 -1.6788  0.5743
  599MOL0     H80843   4.600   9.566   6.492  0.6172 -0.3823 -0.9020
  599MOL0     H80844   4.476   9.457   6.425 -0.0799 -1.4365 -0.6273
  599MOL0     H80845   4.913   9.120   5.698 -0.1481  0.4091  1.0182
  599MOL0     H80846   5.000   9.080   5.459  0.0957 -1.5015  0.6601
  599MOL0     H80847   5.187   9.318   5.030  1.8857  0.6002  0.5861
  599MOL0     H80848   5.130   9.209   4.816  1.1243  0.0643 -0.4139
  599MOL0     H80849   4.596   7.449   3.683 -0.1952 -0.8078 -1.0023
  599MOL0     H80850   4.657   7.212   3.696  1.0491  0.3572  0.3577
  599MOL0     H80851   4.619   6.862   3.803  0.7296  0.0930 -1.0947
  599MOL0     H80852   4.651   6.638   3.751  0.4774  3.4550 -1.7123
  599MOL0     H80853   4.695   6.406   3.724  1.1118  2.1111 -0.3306
  599MOL0     H80854   4.581   6.421   3.866  0.4418 -0.4681 -0.1955
  599MOL0     H80855   4.575   6.203   3.836 -0.3236  2.1742  0.0824
  599MOL0     H80856   4.661   6.238   3.983  0.2354 -1.5058  0.4998
  599MOL0     H80857   4.880   6.198   3.873  1.7770 -0.9525 -1.6675
  599MOL0     H80858   4.813   6.141   3.729  0.8455 -1.5049  0.9249
  599MOL0     H80859   4.757   6.010   4.014  3.5256 -4.1670  0.0904
  599MOL0     H80860   4.679   5.950   3.875 -0.7409  1.6083 -1.4848
  599MOL0     H80861   5.085   5.836   3.971 -2.4470 -1.3318  5.3890
  599MOL0     H80862   4.883   6.564   4.102  5.2857  2.2556 -1.1097
  599MOL0     H80863   4.969   6.898   4.163 -0.3503  0.8943 -2.2076
  599MOL0     H80864   4.832   6.859   4.263 -0.7122  1.6604 -1.7468
  599MOL0     H80865   4.958   6.732   4.229 -1.3915 -1.3376 -0.6091
  600MOL0     O80866   8.275   2.240   6.048  0.2073  0.1739  0.1317
  600MOL0     C80867   8.299   2.154   6.135  0.2378 -0.8021 -0.3100
  600MOL0     O80868   8.242   2.025   6.141  0.2731 -0.2629 -0.3101
  600MOL0     C80869   8.119   1.991   6.076 -0.4846  0.3178  0.3316
  600MOL0     C80870   8.105   1.857   6.037 -0.2428 -0.4305  0.0768
  600MOL0     C80871   8.000   1.814   5.957  1.0252 -0.2075 -0.5304
  600MOL0     C80872   7.889   1.897   5.944  0.5295 -0.5211 -0.0034
  600MOL0     O80873   7.771   1.843   5.902 -0.2945  0.8601 -0.5864
  600MOL0     C80874   7.757   1.851   5.764  0.3911 -0.6294  0.1907
  600MOL0     C80875   7.616   1.795   5.713  1.1491  0.6146 -0.0863
  600MOL0     C80876   7.504   1.826   5.814  0.3201  0.3552 -0.3312
  600MOL0     C80877   7.362   1.784   5.775 -0.2212 -0.1570  0.0515
  600MOL0     C80878   7.268   1.772   5.892 -0.5990 -0.3510 -0.6002
  600MOL0     C80879   7.122   1.741   5.831 -1.0560  0.6383  0.2749
  600MOL0     C80880   7.010   1.736   5.922 -0.0220 -0.2740 -0.9261
  600MOL0     C80881   6.874   1.712   5.855  0.2409  0.6462  0.7422
  600MOL0     N80882   6.840   1.815   5.760 -0.4678 -0.2935  1.0618
  600MOL0     C80883   6.737   1.796   5.671  0.7239 -0.1565  0.1613
  600MOL0     C80884   6.703   1.922   5.628 -0.7074  0.0889 -0.8248
  600MOL0     C80885   6.594   1.962   5.520  0.6374  0.1658 -0.0152
  600MOL0     C80886   6.653   1.971   5.374 -0.1668  0.5711  0.1433
  600MOL0     C80887   6.733   1.843   5.326  0.4606  0.2473 -0.3202
  600MOL0     C80888   6.634   1.731   5.279  0.2675  0.0424  0.8012
  600MOL0     O80889   6.554   1.768   5.166 -0.3408 -0.6807  0.2783
  600MOL0     C80890   6.438   1.696   5.143  0.3696 -0.5120 -0.4249
  600MOL0     C80891   6.385   1.588   5.221  0.1216  0.9735 -0.0497
  600MOL0     C80892   6.271   1.527   5.176  0.3865 -0.8205  0.5430
  600MOL0     C80893   6.210   1.560   5.048 -0.1207  0.5980 -0.0777
  600MOL0     C80894   6.085   1.496   4.998 -0.7530 -0.4357 -0.1533
  600MOL0     O80895   6.040   1.533   4.872 -0.2741  0.0815 -0.6362
  600MOL0     C80896   5.931   1.461   4.821 -1.0511 -0.0646  0.7347
  600MOL0     C80897   5.837   1.393   4.895 -0.3271 -0.3287 -0.0380
  600MOL0     C80898   5.734   1.328   4.837 -0.8998 -0.4558  0.1855
  600MOL0     C80899   5.702   1.353   4.702 -0.5283  0.9053  0.7269
  600MOL0     O80900   5.586   1.291   4.656  0.6774  0.0462 -0.5995
  600MOL0     C80901   5.517   1.330   4.535 -0.1178 -0.2320  0.1353
  600MOL0     C80902   5.570   1.268   4.410 -0.5687 -0.6619  0.0868
  600MOL0     C80903   5.515   1.134   4.367 -0.1752  0.0046  0.3949
  600MOL0     C80904   5.594   1.022   4.441  0.3449  0.1466 -0.6527
  600MOL0     C80905   5.503   0.906   4.482  0.0230  0.6803 -1.0641
  600MOL0     C80906   5.434   0.832   4.370  0.4840  0.2097 -0.5760
  600MOL0     C80907   5.289   0.813   4.389  0.3726 -0.4739 -0.3848
  600MOL0     C80908   5.231   0.718   4.283 -0.2233  0.0336 -0.1491
  600MOL0    Cl80909   5.244   0.796   4.123  0.2274 -0.1674  0.2049
  600MOL0     C80910   5.775   1.437   4.630  0.0969 -0.6988 -0.0909
  600MOL0     C80911   5.889   1.485   4.694 -0.1952  0.9900  0.9998
  600MOL0     O80912   6.042   1.407   5.066 -1.1873 -0.1346  0.2650
  600MOL0     C80913   6.273   1.664   4.977 -0.0825 -0.4565  0.3027
  600MOL0     C80914   6.383   1.729   5.018  0.6988 -0.3109 -0.8912
  600MOL0     N80915   6.787   2.015   5.687 -0.3526  0.4076  0.2606
  600MOL0     N80916   6.870   1.954   5.762 -0.3086  0.6765  0.4876
  600MOL0     C80917   7.903   2.041   5.971  0.6162  0.4340 -0.2056
  600MOL0     C80918   8.023   2.087   6.032 -0.4622 -0.3910 -0.5353
  600MOL0     C80919   8.419   2.178   6.231 -1.0347 -0.1029 -0.1767
  600MOL0     C80920   8.478   2.074   6.302 -0.2988  0.1383 -0.5567
  600MOL0     C80921   8.599   2.087   6.374  0.3237 -0.2124  0.0558
  600MOL0     C80922   8.661   2.210   6.376 -0.1881 -0.8663  0.2668
  600MOL0     O80923   8.776   2.208   6.457  0.8594 -0.6455  0.4040
  600MOL0     C80924   8.831   2.326   6.495  0.2175 -0.4843  0.2909
  600MOL0     C80925   8.949   2.306   6.586  0.6811  0.7561 -0.1165
  600MOL0     C80926   9.033   2.427   6.597 -0.3448  0.1032 -0.6013
  600MOL0     C80927   9.142   2.402   6.705  0.5572 -0.1846 -1.0941
  600MOL0     C80928   9.242   2.505   6.708  0.3503 -0.1198  0.8381
  600MOL0     C80929   9.327   2.593   6.695 -0.5776  0.2566  0.9269
  600MOL0     C80930   8.597   2.323   6.320  0.6928  0.2355  0.0162
  600MOL0     C80931   8.482   2.310   6.244 -0.3751 -0.5245 -0.2480
  600MOL0     C80932   8.400   2.437   6.233 -0.6461  0.3643  0.4755
  600MOL0     H80933   8.181   1.782   6.056 -2.0969 -1.8527  2.4392
  600MOL0     H80934   7.978   1.711   5.934 -2.5085 -0.4474  2.8204
  600MOL0     H80935   7.774   1.957   5.740  2.7598 -0.2657  3.0063
  600MOL0     H80936   7.824   1.787   5.706 -1.5989 -4.5581  1.8426
  600MOL0     H80937   7.620   1.686   5.704  0.1186  0.7096 -2.8267
  600MOL0     H80938   7.591   1.844   5.619  2.4223  3.1208  0.7964
  600MOL0     H80939   7.507   1.927   5.855 -0.9077  0.2906 -0.0333
  600MOL0     H80940   7.510   1.750   5.892  0.7996  1.5561  0.8345
  600MOL0     H80941   7.332   1.870   5.715  0.8586  0.1551 -0.0631
  600MOL0     H80942   7.367   1.693   5.714  2.6284  0.0195 -0.1311
  600MOL0     H80943   7.312   1.695   5.954 -0.0996  0.6451  0.3015
  600MOL0     H80944   7.261   1.866   5.947  2.1096  0.8067 -2.0607
  600MOL0     H80945   7.105   1.816   5.754 -2.9264  1.1091  1.0787
  600MOL0     H80946   7.129   1.642   5.784 -2.4986 -0.8424  2.9190
  600MOL0     H80947   7.003   1.835   5.968 -1.2687  0.2267 -2.1276
  600MOL0     H80948   7.009   1.664   6.004  0.9687 -2.5879 -2.8116
  600MOL0     H80949   6.882   1.616   5.804 -1.3140  0.3861  0.9273
  600MOL0     H80950   6.791   1.710   5.927 -0.9810  2.7627 -0.5160
  600MOL0     H80951   6.694   1.699   5.648  1.1808  0.0943 -2.0350
  600MOL0     H80952   6.509   1.893   5.526  0.1753  0.7627  0.3334
  600MOL0     H80953   6.558   2.059   5.554  2.0817  1.2553 -1.4478
  600MOL0     H80954   6.582   1.990   5.293  0.9614  2.5889 -0.4336
  600MOL0     H80955   6.710   2.064   5.368  0.3351  0.3243  0.8409
  600MOL0     H80956   6.799   1.810   5.407 -1.1158  1.0635  1.3713
  600MOL0     H80957   6.792   1.881   5.242 -0.1676  2.8811  0.3102
  600MOL0     H80958   6.569   1.702   5.362  0.6025 -3.9397 -0.1018
  600MOL0     H80959   6.689   1.638   5.260 -1.6342 -1.4275  2.0472
  600MOL0     H80960   6.422   1.537   5.309 -1.6849 -2.7262 -1.2150
  600MOL0     H80961   6.227   1.451   5.239  2.6332 -1.8473  0.9675
  600MOL0     H80962   5.836   1.388   5.004 -1.1743  2.1493  0.1335
  600MOL0     H80963   5.661   1.272   4.895 -2.6291  1.3320 -0.1693
  600MOL0     H80964   5.410   1.306   4.545 -0.0019 -0.1351  1.8425
  600MOL0     H80965   5.522   1.439   4.525  2.1922 -0.2168  0.8514
  600MOL0     H80966   5.550   1.344   4.334 -2.2309  0.0685  1.1766
  600MOL0     H80967   5.679   1.261   4.415 -0.3532  1.2434 -0.9233
  600MOL0     H80968   5.407   1.142   4.382 -0.5269 -3.4976  0.6930
  600MOL0     H80969   5.529   1.127   4.259  3.0981  0.6717  0.6678
  600MOL0     H80970   5.631   1.062   4.536 -3.7574 -1.1916  1.7390
  600MOL0     H80971   5.677   0.972   4.389  0.3535 -2.6427  1.7691
  600MOL0     H80972   5.425   0.943   4.550 -0.6534  1.1397 -2.0653
  600MOL0     H80973   5.567   0.833   4.534  0.0026  0.4727 -1.3316
  600MOL0     H80974   5.451   0.861   4.265 -0.0100 -2.1657 -1.3913
  600MOL0     H80975   5.470   0.729   4.385  0.3817  0.1496 -0.7379
  600MOL0     H80976   5.245   0.912   4.371  3.4757  1.2258  0.6304
  600MOL0     H80977   5.257   0.790   4.491  1.4785  3.7000  1.1000
  600MOL0     H80978   5.274   0.617   4.283  0.9077  0.5012  0.0954
  600MOL0     H80979   5.124   0.710   4.304 -0.1137 -2.8040 -0.3083
  600MOL0     H80980   5.765   1.450   4.523  0.2632 -0.9437 -0.1363
  600MOL0     H80981   5.959   1.536   4.629  0.3505 -0.4554  0.4118
  600MOL0     H80982   6.237   1.712   4.886 -1.1284  3.2563  2.4528
  600MOL0     H80983   6.423   1.809   4.956  1.7256 -0.0145  0.1208
  600MOL0     H80984   7.814   2.102   5.958 -0.1585 -0.7117 -0.4681
  600MOL0     H80985   8.024   2.191   6.063 -3.0285 -1.3917  3.6869
  600MOL0     H80986   8.424   1.980   6.296  1.3321 -1.1427  2.2411
  600MOL0     H80987   8.636   1.999   6.426 -0.5889 -1.8106 -1.8770
  600MOL0     H80988   8.759   2.389   6.548 -0.5609 -0.0990 -1.1635
  600MOL0     H80989   8.857   2.373   6.399 -1.0781 -0.7950 -0.2271
  600MOL0     H80990   9.007   2.221   6.551 -1.1258 -0.0406 -1.3566
  600MOL0     H80991   8.912   2.267   6.681  0.9718  0.5741 -0.0768
  600MOL0     H80992   8.973   2.515   6.623 -0.3354  0.0032 -0.2385
  600MOL0     H80993   9.081   2.445   6.500  1.5173 -3.1027 -0.3851
  600MOL0     H80994   9.099   2.413   6.805  2.0519 -2.3879 -0.1362
  600MOL0     H80995   9.191   2.305   6.698  1.5680  0.1091  1.2149
  600MOL0     H80996   9.384   2.680   6.670 -2.5642  1.0112 -1.3645
  600MOL0     H80997   8.631   2.420   6.356 -2.6312  1.8662 -0.8107
  600MOL0     H80998   8.419   2.501   6.320  1.2197 -2.2019  2.0869
  600MOL0     H80999   8.419   2.494   6.142  0.0696 -1.4264 -0.5343
  600MOL0     H81000   8.292   2.422   6.232 -0.4961 -0.9233 -0.9481
  601MOL0     O81001   8.835   0.964   3.934  0.0586  0.0530 -0.2486
  601MOL0     C81002   8.712   0.996   3.941  0.4653 -0.3552 -0.2258
  601MOL0     O81003   8.643   1.040   3.830  0.1494 -0.9830 -0.6377
  601MOL0     C81004   8.706   1.040   3.704 -0.8414  0.8560 -0.0956
  601MOL0     C81005   8.733   0.915   3.634 -0.1809  0.4511 -1.2960
  601MOL0     C81006   8.805   0.915   3.524  0.0386  0.3231  0.0919
  601MOL0     C81007   8.839   1.036   3.463  0.5163 -0.1757  0.1986
  601MOL0     O81008   8.909   1.049   3.349  0.0222 -0.8890 -0.8934
  601MOL0     C81009   9.000   0.944   3.310  0.0054  0.2750 -1.2973
  601MOL0     C81010   8.950   0.815   3.247 -0.0975  0.2435 -0.0550
  601MOL0     C81011   9.065   0.718   3.232  0.3067 -0.2238 -0.4731
  601MOL0     C81012   9.108   0.671   3.375  0.3919 -0.0688  0.3988
  601MOL0     C81013   9.148   0.527   3.380  0.2079 -0.3016 -0.0393
  601MOL0     C81014   9.238   0.475   3.500 -0.2186 -1.1055 -0.5362
  601MOL0     C81015   9.319   0.357   3.432  0.7292 -0.1084  1.0761
  601MOL0     C81016   9.234   0.230   3.389 -0.2954 -0.4300  0.8503
  601MOL0     N81017   9.206   0.161   3.513  0.2161 -0.2804  0.0504
  601MOL0     C81018   9.078   0.166   3.575 -1.2623  1.1159 -0.2751
  601MOL0     C81019   9.095   0.096   3.694  0.3835 -0.4432 -0.1667
  601MOL0     C81020   8.989   0.077   3.806 -0.1600 -0.7010 -0.5239
  601MOL0     C81021   8.928  -0.060   3.775  0.6776  0.5455 -0.7242
  601MOL0     C81022   8.827  -0.122   3.879 -0.1479  0.8366  0.6635
  601MOL0     C81023   8.696  -0.046   3.888 -0.6820  0.1897 -0.1522
  601MOL0     O81024   8.625  -0.107   3.993 -0.1027 -0.0859  0.0281
  601MOL0     C81025   8.513  -0.188   3.967  0.1309 -0.2765  0.0346
  601MOL0     C81026   8.485  -0.253   3.846  0.3183  0.5131 -0.1648
  601MOL0     C81027   8.382  -0.354   3.835 -1.3376 -1.2363 -0.3015
  601MOL0     C81028   8.310  -0.385   3.950 -0.1251 -0.8799  0.1415
  601MOL0     C81029   8.197  -0.476   3.944 -1.0069 -0.1990 -0.5012
  601MOL0     O81030   8.132  -0.497   4.062 -0.2005  0.2958  0.2119
  601MOL0     C81031   8.044  -0.606   4.067  0.8449  0.0899 -1.1701
  601MOL0     C81032   8.087  -0.734   4.096 -0.1310 -0.0681 -0.6457
  601MOL0     C81033   7.997  -0.843   4.096 -0.2893  0.3886 -0.2903
  601MOL0     C81034   7.868  -0.824   4.047 -0.4662 -0.6406 -0.7961
  601MOL0     O81035   7.801  -0.939   4.028  0.6862 -0.7441  0.2408
  601MOL0     C81036   7.657  -0.942   4.013  0.5042  0.1485 -0.0957
  601MOL0     C81037   7.618  -1.090   4.002  0.6733  0.3918 -0.7968
  601MOL0     C81038   7.643  -1.132   3.859 -0.2841  0.3846  0.3758
  601MOL0     C81039   7.610  -1.280   3.845  0.0287  0.8688  0.3659
  601MOL0     C81040   7.675  -1.340   3.719  0.1771  0.4231 -0.3196
  601MOL0     C81041   7.832  -1.353   3.714 -0.0779  0.7379  1.0506
  601MOL0     C81042   7.905  -1.388   3.586 -0.0836 -0.0931  0.6441
  601MOL0     C81043   7.883  -1.539   3.547 -0.7191  0.3978 -0.5461
  601MOL0    Cl81044   7.953  -1.555   3.383  0.4097  0.1946  0.6393
  601MOL0     C81045   7.819  -0.694   4.015  0.1557  0.6805 -0.6645
  601MOL0     C81046   7.913  -0.582   4.024 -0.0490  0.5211  0.2706
  601MOL0     O81047   8.174  -0.528   3.842  0.3529  0.1753 -0.2802
  601MOL0     C81048   8.337  -0.327   4.071  0.2738  0.3274  0.0774
  601MOL0     C81049   8.441  -0.229   4.076 -0.1473  0.2650  0.9390
  601MOL0     N81050   9.227   0.054   3.690  0.3631 -1.2211  0.0740
  601MOL0     N81051   9.301   0.087   3.591  1.6378 -0.5603 -0.0841
  601MOL0     C81052   8.796   1.156   3.520  0.1556  0.3616 -0.1593
  601MOL0     C81053   8.748   1.156   3.647 -0.6590  0.9603 -0.5403
  601MOL0     C81054   8.650   0.996   4.077  0.3391 -0.7390  0.4385
  601MOL0     C81055   8.571   1.106   4.106 -0.3233  0.7969 -0.4403
  601MOL0     C81056   8.493   1.110   4.220  0.1003  0.5312 -0.3812
  601MOL0     C81057   8.506   1.010   4.320  0.8914  0.0694  0.6357
  601MOL0     O81058   8.427   1.023   4.435  0.2089  0.1451  0.9653
  601MOL0     C81059   8.392   0.915   4.516 -1.0253  0.1273 -0.7078
  601MOL0     C81060   8.284   0.964   4.617 -0.3492  0.4306  0.3376
  601MOL0     C81061   8.154   1.007   4.542  0.7792 -0.9645  0.5576
  601MOL0     C81062   8.050   1.072   4.640 -0.5699  0.7851  0.6004
  601MOL0     C81063   7.970   0.964   4.698 -0.9045 -0.1389  0.6235
  601MOL0     C81064   7.904   0.881   4.745  0.4485  0.7424  0.3292
  601MOL0     C81065   8.588   0.899   4.290  0.1679 -0.6440 -0.6200
  601MOL0     C81066   8.661   0.892   4.169 -0.4487  0.1284  0.8021
  601MOL0     C81067   8.731   0.759   4.140 -0.5234  0.0189 -0.9139
  601MOL0     H81068   8.709   0.821   3.681 -1.3207 -0.0360 -2.7781
  601MOL0     H81069   8.838   0.815   3.498 -1.9319  0.3284 -2.8858
  601MOL0     H81070   9.076   0.990   3.246  2.7729 -1.5646  0.4456
  601MOL0     H81071   9.051   0.911   3.401 -2.0557 -1.0804 -0.5669
  601MOL0     H81072   8.916   0.843   3.147  0.0785  2.2677  0.3980
  601MOL0     H81073   8.869   0.767   3.304 -1.2992  1.0582 -1.0128
  601MOL0     H81074   9.148   0.769   3.183  0.1112 -0.0516 -0.6284
  601MOL0     H81075   9.033   0.637   3.166 -3.2091 -0.8111  1.6635
  601MOL0     H81076   9.191   0.735   3.409  0.3090  0.1292  0.2352
  601MOL0     H81077   9.035   0.681   3.456  0.0948  3.5841 -0.1210
  601MOL0     H81078   9.056   0.469   3.384  0.1078 -0.0887  1.5197
  601MOL0     H81079   9.216   0.507   3.297  2.4644  0.2286  1.5680
  601MOL0     H81080   9.300   0.559   3.532 -0.0645 -1.5706  0.4357
  601MOL0     H81081   9.176   0.449   3.587  0.1863  1.2820  0.5587
  601MOL0     H81082   9.397   0.314   3.496 -0.4275 -3.7547  0.2641
  601MOL0     H81083   9.382   0.391   3.349  0.9367  4.8076  2.8781
  601MOL0     H81084   9.141   0.259   3.340  0.8942  0.5823 -0.9256
  601MOL0     H81085   9.290   0.164   3.322  1.1539  0.6527  0.9486
  601MOL0     H81086   8.983   0.207   3.542 -1.5727 -1.5681 -3.1708
  601MOL0     H81087   9.046   0.082   3.899  4.7858  1.0421 -3.2556
  601MOL0     H81088   8.906   0.148   3.800  1.5532  1.5892  0.8599
  601MOL0     H81089   8.872  -0.058   3.681 -0.9608  2.1433  0.2274
  601MOL0     H81090   9.009  -0.131   3.754  1.3113  1.3298 -0.9662
  601MOL0     H81091   8.869  -0.124   3.980 -1.0273  1.5550  1.0607
  601MOL0     H81092   8.811  -0.226   3.846  2.8926 -0.0670  1.7559
  601MOL0     H81093   8.647  -0.036   3.791  1.1190  2.4038 -0.9399
  601MOL0     H81094   8.712   0.059   3.917 -0.5935  0.1508 -0.0613
  601MOL0     H81095   8.540  -0.251   3.753  1.2652 -2.3218  0.2326
  601MOL0     H81096   8.378  -0.400   3.737  0.3403  1.9364 -1.9880
  601MOL0     H81097   8.191  -0.757   4.115 -0.1194  1.8021  2.0545
  601MOL0     H81098   8.039  -0.940   4.123  0.9162  0.6363 -1.1544
  601MOL0     H81099   7.596  -0.891   4.088  0.9921  1.1705 -0.3772
  601MOL0     H81100   7.623  -0.910   3.914 -1.1146 -1.7613 -0.2237
  601MOL0     H81101   7.665  -1.152   4.079 -1.7845  0.2762  0.7352
  601MOL0     H81102   7.511  -1.112   4.012  0.6703 -0.2782 -2.0608
  601MOL0     H81103   7.576  -1.078   3.792 -2.1970  1.0859  2.7159
  601MOL0     H81104   7.749  -1.115   3.837 -0.9374  5.1205 -0.0203
  601MOL0     H81105   7.503  -1.284   3.826  0.2214 -0.5633 -0.5681
  601MOL0     H81106   7.640  -1.330   3.938 -0.6211  0.5380  0.3974
  601MOL0     H81107   7.637  -1.278   3.638  0.0675  0.3093 -0.3551
  601MOL0     H81108   7.630  -1.439   3.709  1.5198 -0.2143 -0.2546
  601MOL0     H81109   7.881  -1.257   3.733  0.1505  1.2163 -1.5420
  601MOL0     H81110   7.845  -1.441   3.777 -1.2993 -0.2672 -0.0247
  601MOL0     H81111   8.012  -1.366   3.588  0.1632 -1.0753 -0.4796
  601MOL0     H81112   7.858  -1.327   3.508  1.1037  0.6926  0.5195
  601MOL0     H81113   7.936  -1.607   3.615  0.3898 -0.1496 -1.9191
  601MOL0     H81114   7.775  -1.554   3.542 -0.7744  0.8372 -0.6939
  601MOL0     H81115   7.723  -0.681   3.966  0.7284 -1.1644 -2.4356
  601MOL0     H81116   7.892  -0.477   4.010 -2.8112 -0.2103 -1.9271
  601MOL0     H81117   8.286  -0.346   4.165 -2.6095 -1.4466 -1.6751
  601MOL0     H81118   8.469  -0.201   4.177  1.7407  0.8179  0.3207
  601MOL0     H81119   8.819   1.249   3.469 -3.0701  0.5912 -1.4135
  601MOL0     H81120   8.734   1.253   3.693  0.0833  1.0228 -0.4254
  601MOL0     H81121   8.561   1.178   4.026  0.3802 -0.5282 -1.7891
  601MOL0     H81122   8.425   1.192   4.240 -0.2836 -0.4151  2.6319
  601MOL0     H81123   8.475   0.881   4.580 -0.1632 -1.6188 -2.6473
  601MOL0     H81124   8.358   0.829   4.457  0.3054 -0.8180 -0.1565
  601MOL0     H81125   8.328   1.044   4.678 -0.4544  0.0498  0.9119
  601MOL0     H81126   8.254   0.889   4.690  0.5933  0.3822  0.6940
  601MOL0     H81127   8.114   0.919   4.490  0.0550 -0.6714  0.6004
  601MOL0     H81128   8.184   1.080   4.466  1.0029 -3.4706 -1.9591
  601MOL0     H81129   8.104   1.123   4.720 -1.2791  1.3244  0.7399
  601MOL0     H81130   7.984   1.147   4.595 -0.0826  0.4911 -0.6429
  601MOL0     H81131   7.839   0.817   4.801 -0.0921  4.7995  5.1108
  601MOL0     H81132   8.603   0.821   4.363  1.8098 -1.7874 -2.1069
  601MOL0     H81133   8.827   0.763   4.089 -0.0160 -3.6791 -0.5048
  601MOL0     H81134   8.769   0.723   4.236  2.0695  4.0441 -0.1731
  601MOL0     H81135   8.664   0.686   4.094  0.4635 -3.1456  2.1965
  602MOL0     O81136   7.109   2.336   0.299 -0.0305  0.3619  0.2358
  602MOL0     C81137   7.122   2.344   0.180  0.1093 -0.9685  0.0907
  602MOL0     O81138   7.025   2.371   0.091  0.2303 -0.1333  0.0993
  602MOL0     C81139   6.890   2.402   0.121  0.1657 -0.3435 -0.6593
  602MOL0     C81140   6.839   2.425   0.249  1.0992  0.2179  0.0667
  602MOL0     C81141   6.701   2.438   0.263  1.1395  0.5794  0.0197
  602MOL0     C81142   6.610   2.419   0.158  0.3033  0.7306  0.3486
  602MOL0     O81143   6.482   2.412   0.187  0.1150  0.2348  0.5973
  602MOL0     C81144   6.382   2.383   0.088 -0.3198  0.1764  0.2980
  602MOL0     C81145   6.250   2.350   0.162 -0.2798 -0.3160 -1.0669
  602MOL0     C81146   6.200   2.472   0.241  0.1992  0.1057 -0.1394
  602MOL0     C81147   6.043   2.470   0.231 -0.3668 -0.4797  0.0060
  602MOL0     C81148   5.994   2.593   0.314 -0.2125  0.3909  0.3798
  602MOL0     C81149   5.859   2.641   0.248 -0.9262  0.9498  0.4736
  602MOL0     C81150   5.797   2.762   0.315 -0.6468 -0.1287  0.7698
  602MOL0     C81151   5.677   2.813   0.229 -0.3517  0.2304  0.8003
  602MOL0     N81152   5.575   2.710   0.224 -0.6507 -0.1529  0.0963
  602MOL0     C81153   5.521   2.660   0.109 -0.1145 -0.5238 -0.6625
  602MOL0     C81154   5.407   2.596   0.141 -0.0800  0.1943 -0.0315
  602MOL0     C81155   5.310   2.525   0.049 -0.7252  0.1268 -0.1689
  602MOL0     C81156   5.217   2.437   0.134  0.6999  0.0567  0.1043
  602MOL0     C81157   5.104   2.372   0.044  0.1784 -0.0862 -0.5699
  602MOL0     C81158   5.003   2.313   0.128  0.0658  0.1080  0.3664
  602MOL0     O81159   4.929   2.226   0.032 -0.0305  0.6908 -0.6820
  602MOL0     C81160   4.959   2.091   0.003 -1.2009 -0.4542 -0.4178
  602MOL0     C81161   4.899   2.039  -0.107  0.8007  0.1207  0.5379
  602MOL0     C81162   4.919   1.909  -0.138  0.0177  0.8582 -0.2402
  602MOL0     C81163   4.995   1.817  -0.060 -0.0390  0.1411 -0.3401
  602MOL0     C81164   4.987   1.678  -0.102 -0.2531  0.0057 -0.7408
  602MOL0     O81165   4.895   1.635  -0.192  0.6541 -0.0120  0.0222
  602MOL0     C81166   4.831   1.513  -0.191 -0.4399  0.0950  0.6088
  602MOL0     C81167   4.797   1.453  -0.071  0.4271  0.0827 -0.7077
  602MOL0     C81168   4.731   1.337  -0.055  0.2340  0.2569  0.0747
  602MOL0     C81169   4.695   1.260  -0.164 -0.1926  0.7524 -0.1211
  602MOL0     O81170   4.606   1.158  -0.133  0.6297 -0.1565  0.1926
  602MOL0     C81171   4.579   1.056  -0.235 -0.0775 -0.4514 -0.3350
  602MOL0     C81172   4.714   0.980  -0.251 -1.1383  0.1644 -0.6996
  602MOL0     C81173   4.689   0.865  -0.340  0.5354 -0.1088 -0.5284
  602MOL0     C81174   4.815   0.781  -0.368  0.0001  0.0775  0.2596
  602MOL0     C81175   4.784   0.631  -0.416 -0.6300 -0.0493  0.3086
  602MOL0     C81176   4.677   0.630  -0.520  0.1833  0.3933  0.9541
  602MOL0     C81177   4.640   0.491  -0.566 -0.3787  0.5675 -0.4608
  602MOL0     C81178   4.515   0.514  -0.668 -0.7893  0.1781 -0.1652
  602MOL0    Cl81179   4.567   0.585  -0.822 -0.1873  0.2181 -0.3336
  602MOL0     C81180   4.742   1.300  -0.286 -0.7284  0.0914  0.1390
  602MOL0     C81181   4.824   1.425  -0.302  0.6571  0.4423  0.3870
  602MOL0     O81182   5.069   1.610  -0.048  0.0814  0.0157 -0.1236
  602MOL0     C81183   5.053   1.866   0.060 -0.7962 -0.1586 -0.4816
  602MOL0     C81184   5.035   2.007   0.089 -0.0375 -0.4445 -0.0905
  602MOL0     N81185   5.402   2.607   0.284  0.0919  0.8836 -1.0707
  602MOL0     N81186   5.498   2.676   0.328 -0.1448 -0.1407  0.2803
  602MOL0     C81187   6.666   2.410   0.032 -0.2098  0.1260  0.1203
  602MOL0     C81188   6.803   2.403   0.008 -0.0314 -0.0681 -0.8366
  602MOL0     C81189   7.238   2.276   0.116 -0.1518 -0.4647  0.0166
  602MOL0     C81190   7.226   2.244  -0.024  0.5701  0.6551 -0.4745
  602MOL0     C81191   7.321   2.159  -0.080 -0.3536 -0.4662  0.3452
  602MOL0     C81192   7.436   2.129  -0.012  0.1588 -1.1992 -0.6375
  602MOL0     O81193   7.533   2.075  -0.083  0.2833  0.3055 -0.2444
  602MOL0     C81194   7.667   2.063  -0.039  0.1530 -0.1992 -0.5201
  602MOL0     C81195   7.752   2.047  -0.170  0.3570 -0.2225 -0.4938
  602MOL0     C81196   7.727   1.912  -0.250 -0.1331 -0.8699 -0.0596
  602MOL0     C81197   7.613   1.927  -0.352  0.0391 -0.0903 -0.1424
  602MOL0     C81198   7.587   1.798  -0.411 -0.4171 -0.5243  0.2708
  602MOL0     C81199   7.547   1.702  -0.472 -0.8193  0.4219 -0.3291
  602MOL0     C81200   7.445   2.158   0.121  0.4776  0.7040 -0.2146
  602MOL0     C81201   7.348   2.233   0.186 -0.6327 -0.8671  1.0214
  602MOL0     C81202   7.382   2.274   0.328 -0.0351  1.5333 -0.8469
  602MOL0     H81203   6.896   2.418   0.341  1.3810  0.8399 -0.0563
  602MOL0     H81204   6.659   2.452   0.363 -0.9923  1.0012 -0.8872
  602MOL0     H81205   6.364   2.460   0.012 -2.4159 -2.8232 -2.5209
  602MOL0     H81206   6.407   2.293   0.030  0.5615  1.9565 -2.2750
  602MOL0     H81207   6.260   2.269   0.234  0.3733  0.8895  0.2397
  602MOL0     H81208   6.179   2.326   0.082  0.2349  1.6221 -2.1813
  602MOL0     H81209   6.237   2.565   0.195 -0.4225  0.6850  0.5100
  602MOL0     H81210   6.231   2.465   0.346  1.3116  2.1761 -0.2706
  602MOL0     H81211   6.016   2.493   0.127  3.4538 -0.3302 -1.1013
  602MOL0     H81212   6.002   2.381   0.279  1.4233 -0.4154  1.7427
  602MOL0     H81213   5.979   2.549   0.414 -0.5359 -4.0661 -1.4022
  602MOL0     H81214   6.061   2.679   0.314 -1.1861  1.1716 -0.1695
  602MOL0     H81215   5.869   2.664   0.142  2.6259 -1.2498  0.1534
  602MOL0     H81216   5.789   2.558   0.261 -0.0731  0.0405 -0.5448
  602MOL0     H81217   5.875   2.839   0.318  1.4520 -2.0067 -1.2064
  602MOL0     H81218   5.767   2.742   0.418 -0.5301  0.7262  0.9770
  602MOL0     H81219   5.634   2.907   0.266  2.0230  1.0970  1.5079
  602MOL0     H81220   5.709   2.843   0.129  0.9195  0.1338  1.1569
  602MOL0     H81221   5.549   2.681   0.006 -3.0868 -1.3106 -1.7446
  602MOL0     H81222   5.251   2.595  -0.011 -4.0295 -3.6335 -1.7649
  602MOL0     H81223   5.370   2.457  -0.012 -2.8436 -0.2853 -1.9467
  602MOL0     H81224   5.279   2.366   0.191  2.6376  1.9707  0.5006
  602MOL0     H81225   5.169   2.499   0.210 -1.2275 -2.3773  1.0154
  602MOL0     H81226   5.150   2.309  -0.032  0.7202  0.1139 -0.4126
  602MOL0     H81227   5.060   2.462  -0.001 -0.9209  0.0402  0.7181
  602MOL0     H81228   4.938   2.383   0.182 -0.2815 -2.0089  2.9540
  602MOL0     H81229   5.050   2.246   0.202  2.1350  1.9778  0.8474
  602MOL0     H81230   4.844   2.107  -0.171  1.2775 -0.5783 -0.6536
  602MOL0     H81231   4.877   1.870  -0.230  0.7890  1.7691 -0.9995
  602MOL0     H81232   4.821   1.514   0.016 -0.7994 -2.2351  1.3971
  602MOL0     H81233   4.714   1.318   0.051  1.6470  0.1465  0.3058
  602MOL0     H81234   4.498   0.993  -0.197 -1.1312  1.3937  0.5954
  602MOL0     H81235   4.552   1.086  -0.337  1.5413 -0.9868 -0.9473
  602MOL0     H81236   4.792   1.044  -0.294 -1.0207  1.4032  1.2050
  602MOL0     H81237   4.749   0.944  -0.153  1.6017  1.7087 -1.0141
  602MOL0     H81238   4.606   0.809  -0.295 -2.3353  1.6041 -3.3329
  602MOL0     H81239   4.640   0.907  -0.428 -0.0451  0.0748 -0.1276
  602MOL0     H81240   4.865   0.773  -0.271 -1.3374 -0.2884  0.9385
  602MOL0     H81241   4.883   0.836  -0.434 -0.9223  2.0643  0.8681
  602MOL0     H81242   4.758   0.569  -0.330  0.3233  3.2994  3.2354
  602MOL0     H81243   4.875   0.594  -0.465 -0.2677  1.3858 -0.1652
  602MOL0     H81244   4.591   0.680  -0.476  1.0800  0.8269  2.2654
  602MOL0     H81245   4.712   0.692  -0.603  3.0648 -1.4914  0.5763
  602MOL0     H81246   4.622   0.426  -0.480 -1.7885 -0.9869 -1.8646
  602MOL0     H81247   4.721   0.437  -0.617 -0.3067 -0.1942  0.4422
  602MOL0     H81248   4.466   0.417  -0.672  1.3232 -0.9942  1.1695
  602MOL0     H81249   4.444   0.583  -0.620 -1.2594 -1.8617  2.2371
  602MOL0     H81250   4.722   1.226  -0.363 -3.5486 -1.1969  1.9484
  602MOL0     H81251   4.891   1.440  -0.386  0.6921  3.0343  0.8120
  602MOL0     H81252   5.099   1.799   0.131  0.1580  3.1840  2.3559
  602MOL0     H81253   5.075   2.038   0.185  2.3668  1.8155 -1.6624
  602MOL0     H81254   6.620   2.384  -0.062 -1.1398  1.7623  0.0871
  602MOL0     H81255   6.847   2.385  -0.090  2.0305  0.7556 -0.1171
  602MOL0     H81256   7.142   2.287  -0.077 -1.8125 -0.6451  2.0042
  602MOL0     H81257   7.312   2.122  -0.182 -0.8779  0.4830  0.0388
  602MOL0     H81258   7.677   1.970   0.018  2.1373  0.5793  0.5120
  602MOL0     H81259   7.689   2.150   0.023 -0.1105 -0.9343  0.6295
  602MOL0     H81260   7.856   2.031  -0.140  0.5050 -2.0136 -1.8145
  602MOL0     H81261   7.743   2.136  -0.232 -0.8554  1.3440  1.7922
  602MOL0     H81262   7.685   1.837  -0.182 -2.4429 -0.6165 -1.1095
  602MOL0     H81263   7.817   1.886  -0.306  1.2327  2.2107  0.4727
  602MOL0     H81264   7.527   1.967  -0.297  0.4301 -0.2657  0.6102
  602MOL0     H81265   7.639   1.994  -0.434  0.1818  0.1377  0.0875
  602MOL0     H81266   7.513   1.617  -0.528  1.5288 -0.8987  0.1015
  602MOL0     H81267   7.538   2.156   0.177  1.2306  2.7308 -1.2794
  602MOL0     H81268   7.343   2.372   0.357  0.0047  1.3598 -0.1820
  602MOL0     H81269   7.326   2.205   0.393  0.8767 -0.3561 -1.9894
  602MOL0     H81270   7.484   2.255   0.363 -1.0474 -3.3282  0.2379
  603MOL0     O81271   7.490   2.242   8.929  0.5475 -0.0910 -0.1825
  603MOL0     C81272   7.487   2.332   9.009 -1.1720 -0.1670 -0.5455
  603MOL0     O81273   7.383   2.358   9.097 -0.3894  0.4230 -0.1133
  603MOL0     C81274   7.266   2.284   9.084 -0.2492  0.5548 -0.3734
  603MOL0     C81275   7.231   2.196   9.189 -0.1793 -1.2436  0.0976
  603MOL0     C81276   7.121   2.110   9.177  0.5479  1.4065  0.3292
  603MOL0     C81277   7.047   2.106   9.062 -0.8537 -0.5149  0.1941
  603MOL0     O81278   6.960   2.008   9.054  0.5043 -0.3715  0.1345
  603MOL0     C81279   6.824   2.063   9.082 -1.3394  0.2995 -0.7650
  603MOL0     C81280   6.725   1.950   9.068 -0.2473 -0.7713  0.0994
  603MOL0     C81281   6.704   1.924   8.916 -0.3646  0.3027  0.6268
  603MOL0     C81282   6.580   1.841   8.887  0.5929  0.1841  0.0631
  603MOL0     C81283   6.586   1.762   8.759  0.1130 -0.8301 -0.2228
  603MOL0     C81284   6.595   1.845   8.625  0.5430  1.3203 -0.5330
  603MOL0     C81285   6.477   1.948   8.586 -0.7599  0.0291 -0.2965
  603MOL0     C81286   6.528   2.023   8.466  0.5498  0.0349  1.2539
  603MOL0     N81287   6.430   2.134   8.442 -1.2878  0.7865 -0.3529
  603MOL0     C81288   6.305   2.105   8.399 -0.0942  0.7092  0.7409
  603MOL0     C81289   6.232   2.220   8.415 -0.0200 -0.0443  0.6154
  603MOL0     C81290   6.097   2.264   8.371  0.6190  0.2809  0.8017
  603MOL0     C81291   6.094   2.333   8.234 -0.3356  0.8485  0.0954
  603MOL0     C81292   6.172   2.461   8.214  0.2551  0.5623  0.1935
  603MOL0     C81293   6.119   2.540   8.099  0.3063  0.1855 -0.1354
  603MOL0     O81294   6.200   2.655   8.094  0.2313  0.0370 -0.3222
  603MOL0     C81295   6.156   2.757   8.023 -0.5267  0.1445  0.4094
  603MOL0     C81296   6.085   2.732   7.898  0.0517  0.4637 -0.7325
  603MOL0     C81297   6.042   2.828   7.816 -0.4946 -1.0741  0.4149
  603MOL0     C81298   6.051   2.963   7.851  0.8960 -0.2390  0.2306
  603MOL0     C81299   5.999   3.078   7.783 -0.5955  0.0283 -0.0457
  603MOL0     O81300   5.979   3.189   7.854 -0.2932  0.0693 -0.5929
  603MOL0     C81301   5.875   3.275   7.834 -0.1214 -0.2145 -0.6035
  603MOL0     C81302   5.773   3.275   7.737 -0.6693 -0.4248 -0.3815
  603MOL0     C81303   5.668   3.368   7.740  0.4809 -0.2770  1.0397
  603MOL0     C81304   5.655   3.468   7.831 -0.3386  0.1750  0.2812
  603MOL0     O81305   5.557   3.561   7.833  0.3297  1.0267 -0.1850
  603MOL0     C81306   5.428   3.535   7.765 -0.0110 -0.6386  0.1217
  603MOL0     C81307   5.349   3.427   7.831 -0.3556  0.0699 -0.7519
  603MOL0     C81308   5.352   3.455   7.985  0.9621  0.6574  0.7219
  603MOL0     C81309   5.255   3.369   8.062 -0.6931  0.3342  0.1747
  603MOL0     C81310   5.289   3.217   8.056 -0.0040 -0.4674 -0.3320
  603MOL0     C81311   5.423   3.181   8.115  0.1992  0.2576 -0.4193
  603MOL0     C81312   5.431   3.028   8.116 -0.0843 -0.4233  0.6007
  603MOL0     C81313   5.577   2.971   8.146 -0.1830  0.5243 -1.0003
  603MOL0    Cl81314   5.715   3.052   8.070  0.5099  0.0752  0.1365
  603MOL0     C81315   5.759   3.476   7.924  0.5997  0.7193  0.7329
  603MOL0     C81316   5.864   3.384   7.925 -0.8816  0.0135  0.2063
  603MOL0     O81317   5.975   3.065   7.663 -0.4328  0.5415  0.2841
  603MOL0     C81318   6.116   2.996   7.978 -0.2594  1.9264 -0.1640
  603MOL0     C81319   6.178   2.891   8.055  0.6167  0.0623 -0.0197
  603MOL0     N81320   6.317   2.315   8.473 -0.8216 -0.0046  0.4842
  603MOL0     N81321   6.437   2.262   8.481 -0.4588  0.3062  0.3884
  603MOL0     C81322   7.079   2.196   8.958 -0.1065 -0.6174  0.3482
  603MOL0     C81323   7.191   2.286   8.963  0.6350  0.4115 -1.1875
  603MOL0     C81324   7.613   2.429   9.000  0.0824  0.1247  0.0794
  603MOL0     C81325   7.719   2.368   8.937 -0.4945  0.3636  0.4499
  603MOL0     C81326   7.844   2.426   8.914 -0.2181 -0.5430 -0.7045
  603MOL0     C81327   7.863   2.558   8.952 -0.1916  0.4442 -0.5428
  603MOL0     O81328   7.977   2.626   8.908  0.0014 -0.0969 -0.3439
  603MOL0     C81329   8.080   2.574   8.813  0.7001 -0.2722 -0.9261
  603MOL0     C81330   8.205   2.664   8.778 -0.4634  1.0312 -0.1994
  603MOL0     C81331   8.173   2.801   8.744 -0.3397 -0.3723 -0.6022
  603MOL0     C81332   8.077   2.801   8.626  0.1772  0.1252  0.3340
  603MOL0     C81333   8.049   2.944   8.577  0.2452  0.7782  0.2419
  603MOL0     C81334   8.030   3.052   8.530 -0.2620  0.3302  1.2068
  603MOL0     C81335   7.750   2.625   9.014 -0.1023  0.2166 -0.1571
  603MOL0     C81336   7.627   2.560   9.038 -0.5076  0.1874  0.0408
  603MOL0     C81337   7.516   2.634   9.107  0.1543  0.0186 -0.5465
  603MOL0     H81338   7.299   2.182   9.272  2.6774  0.0607 -1.8769
  603MOL0     H81339   7.114   2.023   9.241  3.0611  1.0743  0.2449
  603MOL0     H81340   6.819   2.112   9.180  2.7862 -4.7723  2.4677
  603MOL0     H81341   6.799   2.135   9.003 -1.2498 -1.2093 -2.2351
  603MOL0     H81342   6.624   1.982   9.096  1.1144  2.1942  2.2184
  603MOL0     H81343   6.757   1.855   9.111  4.1812 -0.4783 -1.9945
  603MOL0     H81344   6.786   1.866   8.872 -0.2944  0.2906  0.7738
  603MOL0     H81345   6.695   2.013   8.853  0.7514  2.4667  3.3201
  603MOL0     H81346   6.571   1.775   8.975 -1.1114  1.2649  0.7591
  603MOL0     H81347   6.487   1.898   8.898  1.0366  0.5172  3.1353
  603MOL0     H81348   6.675   1.698   8.769  1.3832  1.1801  3.9455
  603MOL0     H81349   6.497   1.699   8.751 -1.8803  1.8526 -0.3814
  603MOL0     H81350   6.695   1.890   8.617  0.1797  2.2707  0.0952
  603MOL0     H81351   6.599   1.774   8.542  2.0553  2.3721 -1.4152
  603MOL0     H81352   6.450   2.016   8.668 -1.3028 -1.4074  0.7748
  603MOL0     H81353   6.385   1.891   8.566  0.2924 -2.4276  1.2845
  603MOL0     H81354   6.628   2.064   8.483  1.4675 -1.3282 -0.5635
  603MOL0     H81355   6.528   1.955   8.380  2.5975 -0.4035  1.5568
  603MOL0     H81356   6.254   2.013   8.372  2.8397 -0.5785 -0.9253
  603MOL0     H81357   6.025   2.181   8.372 -0.0152  0.8161  0.5653
  603MOL0     H81358   6.046   2.336   8.437 -2.8564 -1.2317  0.0186
  603MOL0     H81359   6.136   2.265   8.160  3.8408  0.5632  2.4055
  603MOL0     H81360   5.991   2.359   8.209 -0.1243  0.9773 -0.6873
  603MOL0     H81361   6.276   2.432   8.192 -0.5467  0.0989 -3.7600
  603MOL0     H81362   6.158   2.523   8.303 -3.9333  0.4151 -0.1738
  603MOL0     H81363   6.014   2.569   8.112  0.0398  0.5061 -2.5027
  603MOL0     H81364   6.120   2.486   8.004 -2.8939 -1.3896  0.5943
  603MOL0     H81365   6.058   2.639   7.850  2.2971 -0.2348 -0.7588
  603MOL0     H81366   5.993   2.797   7.725 -1.1539  1.1489 -0.0396
  603MOL0     H81367   5.772   3.195   7.664  1.6278 -0.2622 -0.6335
  603MOL0     H81368   5.589   3.352   7.667  2.6512 -1.0025 -1.2590
  603MOL0     H81369   5.372   3.628   7.769  0.0738 -0.5797 -0.0337
  603MOL0     H81370   5.434   3.505   7.660  0.3522 -4.9809  1.1758
  603MOL0     H81371   5.245   3.436   7.800 -0.5415 -1.0071 -0.4709
  603MOL0     H81372   5.402   3.332   7.821  1.8985  1.2317 -0.4133
  603MOL0     H81373   5.448   3.430   8.030  0.7994  0.9995  1.2613
  603MOL0     H81374   5.338   3.558   8.018  0.3047  0.3178  1.5281
  603MOL0     H81375   5.155   3.381   8.019 -1.7389 -1.5621  1.8618
  603MOL0     H81376   5.254   3.397   8.167 -0.5882  0.8681  0.0335
  603MOL0     H81377   5.273   3.175   7.957 -3.7514 -3.3379  1.2131
  603MOL0     H81378   5.209   3.177   8.120  1.1256 -1.1578  0.7033
  603MOL0     H81379   5.493   3.229   8.046 -1.1360  1.2923 -1.0947
  603MOL0     H81380   5.440   3.210   8.219  1.0007  0.6127 -0.6430
  603MOL0     H81381   5.392   2.986   8.023 -1.2584  0.4306  0.6881
  603MOL0     H81382   5.366   2.997   8.198 -1.5116  0.0899 -0.3052
  603MOL0     H81383   5.604   2.978   8.252  3.4394  2.2641 -1.8629
  603MOL0     H81384   5.576   2.866   8.115  1.2608  0.8876 -2.3919
  603MOL0     H81385   5.751   3.549   8.004  1.3472  2.1250 -0.4086
  603MOL0     H81386   5.942   3.395   8.000  0.6016 -0.1035 -1.2560
  603MOL0     H81387   6.121   3.100   8.008  0.3118  2.8812 -3.2029
  603MOL0     H81388   6.241   2.910   8.141  2.2524  1.4101 -1.4370
  603MOL0     H81389   7.027   2.182   8.864 -0.6276  0.7592  0.3983
  603MOL0     H81390   7.231   2.331   8.873  3.0943  0.9734  0.0834
  603MOL0     H81391   7.696   2.267   8.904 -3.1809  1.1456 -0.2702
  603MOL0     H81392   7.914   2.368   8.855 -0.3152  2.0814 -3.6679
  603MOL0     H81393   8.033   2.581   8.714  0.9434  3.9102 -0.9273
  603MOL0     H81394   8.110   2.475   8.849 -1.4401  0.2711  2.7600
  603MOL0     H81395   8.266   2.607   8.707 -0.5409 -2.1808  2.0938
  603MOL0     H81396   8.267   2.680   8.867 -0.2302 -0.4148 -0.0804
  603MOL0     H81397   8.259   2.858   8.709  0.3360 -0.5783  0.6449
  603MOL0     H81398   8.132   2.866   8.822 -0.7367  1.8808 -2.5952
  603MOL0     H81399   8.104   2.738   8.541  1.2122 -0.0132  0.7512
  603MOL0     H81400   7.974   2.774   8.650  0.2277  0.6677  1.2201
  603MOL0     H81401   8.011   3.144   8.480 -2.4381 -0.7982 -0.2163
  603MOL0     H81402   7.757   2.731   9.038 -0.1084  0.1099  0.3250
  603MOL0     H81403   7.526   2.742   9.100 -1.0696  0.2248  0.4272
  603MOL0     H81404   7.417   2.611   9.066 -0.4714  0.0656  0.8502
  603MOL0     H81405   7.510   2.619   9.216 -0.0326  3.5231  0.0325
  604MOL0     O81406  10.515   8.895   3.137 -0.3218 -0.0601 -0.5700
  604MOL0     C81407  10.430   8.981   3.150 -0.2718  0.5376 -0.2429
  604MOL0     O81408  10.329   8.980   3.240  0.0934 -0.6793 -0.2807
  604MOL0     C81409  10.330   8.896   3.348 -0.5163  1.0830 -0.3187
  604MOL0     C81410  10.435   8.828   3.413 -0.1183  0.4533 -0.4815
  604MOL0     C81411  10.422   8.748   3.530 -1.5752  0.7310  0.6595
  604MOL0     C81412  10.295   8.728   3.588  0.3904  0.3430 -0.3384
  604MOL0     O81413  10.274   8.653   3.704 -0.2041  0.1969 -0.1547
  604MOL0     C81414  10.341   8.700   3.829  0.5875 -0.8119  0.0418
  604MOL0     C81415  10.468   8.619   3.872  0.3166  0.1815 -0.1098
  604MOL0     C81416  10.531   8.663   4.005  0.4779  0.1247  0.4352
  604MOL0     C81417  10.673   8.608   4.015 -0.4932  0.1825 -0.2377
  604MOL0     C81418  10.739   8.625   4.147 -0.5479 -0.2255  0.3318
  604MOL0     C81419  10.765   8.770   4.178  0.1355  0.6531 -0.8431
  604MOL0     C81420  10.849   8.791   4.305 -0.2078  0.8872  0.3137
  604MOL0     C81421  10.893   8.933   4.330  0.0797 -0.3720  0.1995
  604MOL0     N81422  11.014   8.953   4.417  0.4565  0.2681  0.3512
  604MOL0     C81423  11.012   8.941   4.558  0.5629  0.7065  0.2909
  604MOL0     C81424  11.125   8.989   4.603 -0.2469 -0.2322  0.5027
  604MOL0     C81425  11.152   9.017   4.744  0.7708 -0.0324  0.7670
  604MOL0     C81426  11.050   9.126   4.782  0.2344  0.1535 -0.2314
  604MOL0     C81427  11.071   9.209   4.908 -0.7956  0.4290 -0.8406
  604MOL0     C81428  11.111   9.119   5.028 -0.4728  0.3015 -0.1390
  604MOL0     O81429  11.002   9.034   5.050  0.5810 -0.2867 -0.3505
  604MOL0     C81430  10.941   9.029   5.172 -1.0202 -0.1024  0.3597
  604MOL0     C81431  10.908   8.906   5.239 -0.9955 -0.6596 -0.0264
  604MOL0     C81432  10.842   8.909   5.362  0.1241 -0.2106  0.3561
  604MOL0     C81433  10.793   9.033   5.410 -0.1012  0.3118  1.1890
  604MOL0     C81434  10.713   9.037   5.531  0.5779  0.6781  0.0131
  604MOL0     O81435  10.651   9.160   5.564  0.0057 -0.6837  0.0651
  604MOL0     C81436  10.586   9.182   5.686  0.6645  1.4514 -1.3507
  604MOL0     C81437  10.452   9.221   5.698  1.1020 -0.7067  0.0257
  604MOL0     C81438  10.389   9.243   5.821 -1.1811 -0.2215 -0.2466
  604MOL0     C81439  10.473   9.223   5.935  0.0356  0.5117  0.6120
  604MOL0     O81440  10.415   9.241   6.060 -0.0443 -0.3943 -0.4906
  604MOL0     C81441  10.305   9.153   6.093 -0.0028  0.2631  0.3957
  604MOL0     C81442  10.276   9.182   6.241  0.1908 -0.2557  0.2395
  604MOL0     C81443  10.185   9.314   6.252 -0.1688 -0.6770 -0.4681
  604MOL0     C81444  10.033   9.291   6.220  0.2539 -0.2903 -0.4434
  604MOL0     C81445   9.930   9.405   6.265 -0.0812 -0.0228  0.2227
  604MOL0     C81446   9.786   9.350   6.270  0.5624  0.2332 -0.4857
  604MOL0     C81447   9.787   9.229   6.373  0.4773  0.3450  0.0472
  604MOL0     C81448   9.664   9.207   6.446  0.5653 -0.7894 -1.0007
  604MOL0    Cl81449   9.508   9.176   6.352 -0.1777  0.0278  0.2852
  604MOL0     C81450  10.610   9.194   5.922  1.1969 -0.0872  0.0506
  604MOL0     C81451  10.657   9.170   5.800  0.1525  0.3895 -0.2499
  604MOL0     O81452  10.690   8.930   5.592 -0.2056  0.2621  0.0214
  604MOL0     C81453  10.831   9.156   5.341 -0.2581  0.7468 -0.7137
  604MOL0     C81454  10.903   9.146   5.223  0.0016  0.4375  0.3397
  604MOL0     N81455  11.211   9.009   4.499  0.0391 -0.5394  0.8709
  604MOL0     N81456  11.143   8.982   4.388 -0.3029  0.5046  0.3210
  604MOL0     C81457  10.185   8.790   3.523 -0.4012 -0.9440  0.8956
  604MOL0     C81458  10.196   8.866   3.398  0.4892 -0.3534 -0.1629
  604MOL0     C81459  10.440   9.098   3.058  0.2169  0.8094 -0.1356
  604MOL0     C81460  10.384   9.216   3.091  0.3515 -0.2477 -0.3365
  604MOL0     C81461  10.401   9.333   3.018  0.7863 -0.5800  0.8421
  604MOL0     C81462  10.470   9.339   2.896 -0.5400 -1.7277 -0.3989
  604MOL0     O81463  10.472   9.466   2.829  1.0017 -0.1308 -0.2220
  604MOL0     C81464  10.597   9.497   2.760 -0.1564 -0.6076  1.0403
  604MOL0     C81465  10.636   9.643   2.804 -0.2244  0.3850  0.1214
  604MOL0     C81466  10.517   9.733   2.805 -0.4012 -0.2662  0.1926
  604MOL0     C81467  10.561   9.872   2.851  0.3199  1.2259 -0.3309
  604MOL0     C81468  10.642   9.939   2.752 -1.1976 -0.0226  0.2366
  604MOL0     C81469  10.711   9.987   2.675  1.1485 -0.7649 -0.1134
  604MOL0     C81470  10.532   9.221   2.857  0.6467 -1.5940 -0.4515
  604MOL0     C81471  10.510   9.097   2.932  0.3120 -0.6827 -0.3349
  604MOL0     C81472  10.603   8.986   2.887  0.9164 -0.5666  0.7162
  604MOL0     H81473  10.537   8.843   3.378  0.9306  0.3092  2.3028
  604MOL0     H81474  10.514   8.717   3.578 -1.5976 -0.7356 -0.1626
  604MOL0     H81475  10.363   8.807   3.819 -1.3367 -0.6043 -3.0776
  604MOL0     H81476  10.260   8.685   3.901  0.7763  0.2897  0.5053
  604MOL0     H81477  10.535   8.636   3.787  0.0192 -0.7230 -0.5456
  604MOL0     H81478  10.441   8.515   3.896  2.0319 -0.2933 -0.1405
  604MOL0     H81479  10.479   8.635   4.097  0.6667  1.2427  0.9084
  604MOL0     H81480  10.529   8.772   4.020 -2.4694 -0.1400  2.8573
  604MOL0     H81481  10.664   8.499   4.008  0.8553 -0.1049  1.6264
  604MOL0     H81482  10.732   8.662   3.940  0.5647  1.8982  1.7028
  604MOL0     H81483  10.678   8.593   4.232 -3.0555  3.5168  0.1793
  604MOL0     H81484  10.834   8.570   4.146 -0.7290 -0.5753  1.2347
  604MOL0     H81485  10.823   8.807   4.093 -0.2545  2.7846 -0.2538
  604MOL0     H81486  10.672   8.825   4.191 -0.6460 -0.1624 -2.7362
  604MOL0     H81487  10.942   8.743   4.272 -2.4251 -1.5663 -2.9206
  604MOL0     H81488  10.795   8.747   4.389 -0.9674  1.7643  0.2967
  604MOL0     H81489  10.930   8.974   4.236  2.0024  0.4393  1.2467
  604MOL0     H81490  10.801   8.983   4.362  0.0546 -0.7263  0.6897
  604MOL0     H81491  10.935   8.911   4.629  1.7431 -1.3003  0.7881
  604MOL0     H81492  11.153   8.920   4.796  1.5731  0.1089  1.0297
  604MOL0     H81493  11.246   9.070   4.762 -1.0282  4.3693 -1.3281
  604MOL0     H81494  11.063   9.191   4.695  1.5448  2.1727  1.3919
  604MOL0     H81495  10.954   9.075   4.793 -0.0322  0.4257 -1.2083
  604MOL0     H81496  10.986   9.272   4.938 -0.4922  0.3810  0.1388
  604MOL0     H81497  11.153   9.279   4.889 -0.7652  0.6729  0.1316
  604MOL0     H81498  11.135   9.184   5.113  2.8666 -0.7659 -0.1142
  604MOL0     H81499  11.205   9.071   5.001 -1.6581 -1.7439 -0.8850
  604MOL0     H81500  10.926   8.802   5.215 -3.0445 -0.8488 -0.9233
  604MOL0     H81501  10.828   8.815   5.413 -3.4029 -0.1904 -0.3320
  604MOL0     H81502  10.388   9.246   5.615  0.6419  4.0164  1.5145
  604MOL0     H81503  10.287   9.280   5.825 -1.5265 -1.0378 -1.2016
  604MOL0     H81504  10.217   9.166   6.028  0.7917  0.6235 -0.6346
  604MOL0     H81505  10.327   9.047   6.076  2.2865  0.5949  0.9572
  604MOL0     H81506  10.219   9.099   6.284  0.7082  0.1489  1.7529
  604MOL0     H81507  10.372   9.180   6.293  1.1431 -4.5425 -1.2994
  604MOL0     H81508  10.184   9.361   6.351  3.4972  2.3474 -1.6027
  604MOL0     H81509  10.233   9.391   6.191  1.9359  0.1847  2.0465
  604MOL0     H81510  10.005   9.196   6.268 -0.1459  2.0144  4.4715
  604MOL0     H81511  10.031   9.268   6.113  3.5358  1.9785 -1.1249
  604MOL0     H81512   9.938   9.499   6.210  3.6997  1.1566  2.3774
  604MOL0     H81513   9.969   9.440   6.361 -0.7849  0.6648  0.2602
  604MOL0     H81514   9.730   9.432   6.316  0.9924  0.7238 -0.8248
  604MOL0     H81515   9.736   9.326   6.176  0.5910  0.7702 -0.6385
  604MOL0     H81516   9.871   9.244   6.441  2.9350  0.7836 -2.8707
  604MOL0     H81517   9.813   9.139   6.317 -0.6771 -1.2109  1.8647
  604MOL0     H81518   9.672   9.118   6.509 -1.4213 -1.4640 -1.6200
  604MOL0     H81519   9.647   9.290   6.515 -1.4631 -0.3161 -1.9951
  604MOL0     H81520  10.666   9.185   6.014  0.1491 -1.1710  0.6180
  604MOL0     H81521  10.757   9.128   5.792 -0.5435 -0.9621 -2.8382
  604MOL0     H81522  10.799   9.253   5.378 -3.7479 -0.4756 -0.1692
  604MOL0     H81523  10.936   9.243   5.186  4.5414 -0.8616  0.4146
  604MOL0     H81524  10.084   8.788   3.562 -0.6778 -0.2830  0.2282
  604MOL0     H81525  10.113   8.905   3.340 -0.0689  2.1103  2.0950
  604MOL0     H81526  10.322   9.227   3.180  3.0589 -0.6207  1.7454
  604MOL0     H81527  10.353   9.426   3.046  1.5527  0.2321 -0.4617
  604MOL0     H81528  10.577   9.493   2.652 -2.5505 -1.0458  1.4526
  604MOL0     H81529  10.674   9.425   2.788  0.4842 -0.3640 -0.0314
  604MOL0     H81530  10.713   9.685   2.739  1.5379 -0.5868  1.4659
  604MOL0     H81531  10.673   9.628   2.906 -0.8089 -0.0605  0.2769
  604MOL0     H81532  10.452   9.697   2.885 -1.0801  1.5748  0.5167
  604MOL0     H81533  10.454   9.737   2.715  1.2587  0.5560 -0.9785
  604MOL0     H81534  10.468   9.928   2.864 -0.6111  0.3133 -2.5275
  604MOL0     H81535  10.612   9.878   2.947 -2.1722  4.0795  0.9787
  604MOL0     H81536  10.778  10.028   2.601  0.3722 -1.0120 -0.9646
  604MOL0     H81537  10.600   9.218   2.771  1.7260 -1.3753  0.3725
  604MOL0     H81538  10.692   8.987   2.951  0.6598 -0.1919  1.0726
  604MOL0     H81539  10.558   8.887   2.889  2.1327 -1.1647 -0.0567
  604MOL0     H81540  10.619   8.988   2.778  2.1617 -4.4655  0.6755
  605MOL0     O81541   0.547   5.943   9.853 -0.4523 -0.3276  0.1545
  605MOL0     C81542   0.459   5.888   9.914  0.1020 -0.6144 -0.3418
  605MOL0     O81543   0.348   5.942   9.948  0.1962  0.2982  0.0330
  605MOL0     C81544   0.285   6.056   9.899 -0.1094  0.2243  0.5265
  605MOL0     C81545   0.341   6.149   9.807  0.0525 -0.1378 -0.8199
  605MOL0     C81546   0.256   6.251   9.762 -0.5801 -0.4822 -0.0526
  605MOL0     C81547   0.124   6.271   9.817 -0.7531 -0.3083  0.2943
  605MOL0     O81548   0.034   6.371   9.785 -0.1225 -0.0071  0.1949
  605MOL0     C81549   0.067   6.445   9.663 -0.3411  0.3937 -0.1744
  605MOL0     C81550  -0.038   6.557   9.654  0.6126  0.6334  0.3318
  605MOL0     C81551  -0.187   6.505   9.645  0.2116  0.6632 -0.3346
  605MOL0     C81552  -0.221   6.425   9.512 -0.3645 -0.8264  0.7004
  605MOL0     C81553  -0.298   6.291   9.545 -0.1731 -0.0658 -0.3435
  605MOL0     C81554  -0.214   6.193   9.630  1.2305 -0.9338 -0.2379
  605MOL0     C81555  -0.235   6.046   9.605  0.1648  0.4086  0.5312
  605MOL0     C81556  -0.132   5.949   9.669 -1.0820  0.4035  0.0041
  605MOL0     N81557  -0.183   5.888   9.798 -0.1875 -0.0518 -0.2950
  605MOL0     C81558  -0.205   5.752   9.819 -1.1198 -0.7849  0.5795
  605MOL0     C81559  -0.236   5.735   9.950  0.9414 -0.4173 -0.3855
  605MOL0     C81560  -0.258   5.606  10.017  0.4593 -0.0991  0.5979
  605MOL0     C81561  -0.394   5.582  10.091  0.2899  0.6859  0.1950
  605MOL0     C81562  -0.410   5.440  10.131 -0.9831 -0.0730 -0.7868
  605MOL0     C81563  -0.361   5.395  10.270  0.2982 -0.1097 -0.5952
  605MOL0     O81564  -0.406   5.265  10.295 -0.3316  0.1710  0.4217
  605MOL0     C81565  -0.334   5.159  10.269  0.6443  0.4073 -0.3264
  605MOL0     C81566  -0.399   5.038  10.244  0.4988  0.3580 -0.5802
  605MOL0     C81567  -0.329   4.924  10.237 -0.3979 -0.4032 -0.0115
  605MOL0     C81568  -0.186   4.922  10.245 -0.2440 -1.0002  0.3581
  605MOL0     C81569  -0.117   4.789  10.249 -0.1995 -0.5518  0.5344
  605MOL0     O81570  -0.203   4.673  10.218 -0.8704 -0.6706 -0.4056
  605MOL0     C81571  -0.143   4.564  10.171  0.0998  0.1883  0.0844
  605MOL0     C81572  -0.063   4.551  10.056  0.0792  0.3702  0.6483
  605MOL0     C81573  -0.020   4.430  10.007 -0.0324  0.3422  0.0341
  605MOL0     C81574  -0.069   4.310  10.066 -0.0807  0.0634  0.2355
  605MOL0     O81575  -0.046   4.197   9.992  0.1639  0.2115  0.9371
  605MOL0     C81576  -0.131   4.087  10.031 -0.8303  0.5834 -0.1017
  605MOL0     C81577  -0.123   3.974   9.931 -0.4838  0.4845 -0.3850
  605MOL0     C81578  -0.227   3.862   9.957  0.3466 -0.1980 -0.3966
  605MOL0     C81579  -0.231   3.756   9.849 -0.3437  0.3133 -0.2843
  605MOL0     C81580  -0.349   3.657   9.879 -0.4080  0.2607  0.2582
  605MOL0     C81581  -0.323   3.558   9.993 -0.4084  0.6824 -0.3917
  605MOL0     C81582  -0.442   3.468   9.997 -0.0935  0.0023  0.1306
  605MOL0     C81583  -0.458   3.403  10.135 -0.2105  0.1801  0.1499
  605MOL0    Cl81584  -0.305   3.327  10.185  0.5919 -0.2897  0.7717
  605MOL0     C81585  -0.133   4.324  10.194  0.4838  0.8398  0.1237
  605MOL0     C81586  -0.168   4.449  10.239  0.7995  0.1694 -0.9139
  605MOL0     O81587   0.008   4.782  10.254  0.5586 -0.4699 -0.2066
  605MOL0     C81588  -0.123   5.045  10.270 -0.2878  0.0858  0.2735
  605MOL0     C81589  -0.200   5.159  10.283  0.5565  0.0599  0.3856
  605MOL0     N81590  -0.218   5.857  10.019 -0.7237 -0.0483  1.0539
  605MOL0     N81591  -0.184   5.949   9.925 -0.1098 -0.3465 -0.1000
  605MOL0     C81592   0.079   6.183   9.914 -0.4402  0.8141 -0.4335
  605MOL0     C81593   0.161   6.080   9.953  0.2973  0.0294 -0.3864
  605MOL0     C81594   0.486   5.747   9.958  1.2580  0.0193  0.3022
  605MOL0     C81595   0.406   5.698  10.055  0.1950  0.1621 -0.0256
  605MOL0     C81596   0.409   5.563  10.104  0.6428 -0.6571 -0.4014
  605MOL0     C81597   0.487   5.475  10.035  0.5706  0.5792  0.7901
  605MOL0     O81598   0.481   5.339  10.037 -0.3343  0.1158  0.3646
  605MOL0     C81599   0.548   5.266  10.145 -0.3924  1.0991 -0.6714
  605MOL0     C81600   0.453   5.243  10.269  0.0036 -0.8134 -0.0118
  605MOL0     C81601   0.320   5.176  10.237  0.1967  0.9444  0.4920
  605MOL0     C81602   0.280   5.085  10.358 -0.0171  0.3655  1.0451
  605MOL0     C81603   0.362   4.968  10.393  0.3613  0.1112 -0.1350
  605MOL0     C81604   0.445   4.882  10.414 -0.0995  0.3475 -0.6326
  605MOL0     C81605   0.575   5.510   9.931 -0.0981 -0.9208 -0.2549
  605MOL0     C81606   0.578   5.651   9.896  0.3080  0.0076 -0.1421
  605MOL0     C81607   0.690   5.679   9.798 -0.4673  0.6400  0.0720
  605MOL0     H81608   0.442   6.146   9.769  1.2159  1.0511  1.9065
  605MOL0     H81609   0.297   6.319   9.688 -0.8647  0.1422  0.3583
  605MOL0     H81610   0.156   6.508   9.673 -1.4604  1.8452  0.9599
  605MOL0     H81611   0.063   6.381   9.574 -3.8391  0.3655 -0.1017
  605MOL0     H81612  -0.007   6.612   9.564  1.8507  0.0809  0.3972
  605MOL0     H81613  -0.036   6.628   9.737  1.5339 -0.6048  1.3980
  605MOL0     H81614  -0.250   6.595   9.649  1.2948  1.4137  0.4084
  605MOL0     H81615  -0.212   6.450   9.736  0.2333  1.5123  0.1987
  605MOL0     H81616  -0.293   6.482   9.453 -0.2568  0.3096  1.6166
  605MOL0     H81617  -0.135   6.406   9.448 -0.5329  1.5136 -0.3384
  605MOL0     H81618  -0.395   6.317   9.589  0.1224  0.8517 -0.2079
  605MOL0     H81619  -0.308   6.231   9.454 -1.6417  0.5225 -0.6050
  605MOL0     H81620  -0.109   6.218   9.616  1.5664 -1.3181  1.3323
  605MOL0     H81621  -0.226   6.212   9.737 -0.2694  2.4618 -0.9003
  605MOL0     H81622  -0.234   6.030   9.497 -1.7197  1.0695  0.3704
  605MOL0     H81623  -0.336   6.015   9.632 -0.5856  1.6662 -0.6730
  605MOL0     H81624  -0.116   5.865   9.601 -3.7520 -2.9085  3.0427
  605MOL0     H81625  -0.036   6.003   9.670 -0.7209 -0.2258  0.2000
  605MOL0     H81626  -0.204   5.673   9.745  3.1736  0.9383 -1.5959
  605MOL0     H81627  -0.258   5.533   9.936 -0.3695 -1.1378  1.5122
  605MOL0     H81628  -0.176   5.596  10.089  1.1511  1.0565  0.0076
  605MOL0     H81629  -0.391   5.653  10.174  0.7389 -0.3061  1.0583
  605MOL0     H81630  -0.479   5.603  10.025  1.0728  1.3349 -0.6239
  605MOL0     H81631  -0.368   5.371  10.057  1.5758  0.2034  0.2921
  605MOL0     H81632  -0.516   5.417  10.123 -0.9052 -0.6058 -0.3532
  605MOL0     H81633  -0.402   5.460  10.348  3.4562 -0.8470  1.8914
  605MOL0     H81634  -0.252   5.408  10.271  0.3175 -0.2256 -0.9385
  605MOL0     H81635  -0.507   5.033  10.246  0.5202 -3.2763  1.9804
  605MOL0     H81636  -0.392   4.839  10.215 -1.0122 -0.1426  0.7049
  605MOL0     H81637  -0.016   4.633  10.003  0.1596  1.3485  2.1659
  605MOL0     H81638   0.060   4.411   9.937  1.4643 -1.0442  2.0044
  605MOL0     H81639  -0.112   4.050  10.132 -3.1515  0.6958  0.4313
  605MOL0     H81640  -0.236   4.119  10.023 -1.8292 -2.5225 -1.2646
  605MOL0     H81641  -0.139   4.017   9.832 -1.2219 -1.1607 -1.0290
  605MOL0     H81642  -0.025   3.925   9.934 -2.1822 -3.2339  2.4157
  605MOL0     H81643  -0.193   3.820  10.051  1.3898  1.3368 -0.0441
  605MOL0     H81644  -0.320   3.917   9.973  1.3786  2.0798 -1.6483
  605MOL0     H81645  -0.135   3.703   9.842 -1.0114 -0.8655 -0.8337
  605MOL0     H81646  -0.255   3.807   9.755 -3.0192  2.3283  1.3700
  605MOL0     H81647  -0.369   3.603   9.786  1.0907  0.0591  0.0393
  605MOL0     H81648  -0.446   3.707   9.893 -0.2758  0.2659  1.2351
  605MOL0     H81649  -0.237   3.492   9.975  2.3552  4.2381 -1.4497
  605MOL0     H81650  -0.305   3.617  10.083 -3.2129  0.5201  0.3478
  605MOL0     H81651  -0.443   3.380   9.933  2.6874 -0.9157  1.1821
  605MOL0     H81652  -0.532   3.523   9.967  0.8586  0.8708 -1.2541
  605MOL0     H81653  -0.486   3.476  10.211 -0.5702  1.2507 -0.9681
  605MOL0     H81654  -0.536   3.327  10.142  1.0002 -1.0381  0.8815
  605MOL0     H81655  -0.152   4.238  10.258  2.0953  0.5117  0.2123
  605MOL0     H81656  -0.222   4.456  10.333 -0.5096  1.6633 -1.7320
  605MOL0     H81657  -0.017   5.055  10.292  0.1343  1.7604 -2.0750
  605MOL0     H81658  -0.155   5.243  10.334 -2.8391  2.3959 -0.0864
  605MOL0     H81659  -0.024   6.198   9.943 -0.7416  0.7293 -1.4322
  605MOL0     H81660   0.123   6.008  10.025 -0.1505  2.4515  1.9618
  605MOL0     H81661   0.345   5.768  10.110  2.9096  4.2095 -1.7209
  605MOL0     H81662   0.342   5.532  10.184 -1.4299 -1.4766 -2.3280
  605MOL0     H81663   0.629   5.328  10.185 -0.2243  0.7194 -0.4099
  605MOL0     H81664   0.592   5.170  10.117 -1.6978 -0.4777  2.2018
  605MOL0     H81665   0.430   5.340  10.313 -1.2949 -1.8203  1.6342
  605MOL0     H81666   0.500   5.191  10.353 -2.7160 -0.9294  1.5586
  605MOL0     H81667   0.336   5.113  10.149 -0.5480  2.0002 -0.4255
  605MOL0     H81668   0.242   5.251  10.223  0.1082  0.6512 -0.7053
  605MOL0     H81669   0.289   5.153  10.443 -1.8724  0.6227  1.0893
  605MOL0     H81670   0.177   5.048  10.368  0.4169 -1.8554 -1.4783
  605MOL0     H81671   0.521   4.812  10.441  0.0186 -1.0751 -4.1647
  605MOL0     H81672   0.635   5.434   9.881  1.8469  1.5876 -2.0595
  605MOL0     H81673   0.662   5.772   9.747 -0.9636  2.7733  3.8132
  605MOL0     H81674   0.788   5.705   9.839  0.7557 -2.7287 -0.4366
  605MOL0     H81675   0.717   5.600   9.728 -1.6319  1.3427 -1.2159
  606MOL0     O81676   7.067   3.308   2.081 -0.1775  0.6662  0.2859
  606MOL0     C81677   7.105   3.238   1.989 -0.1294 -0.3029 -0.1263
  606MOL0     O81678   7.237   3.199   1.969  0.0245  0.5263  0.3852
  606MOL0     C81679   7.329   3.205   2.069 -0.3094  0.5065 -0.2151
  606MOL0     C81680   7.461   3.214   2.012  0.5218 -0.4142  0.9434
  606MOL0     C81681   7.571   3.235   2.091 -0.1947 -0.1501 -0.8518
  606MOL0     C81682   7.544   3.234   2.231  0.3520 -0.5247 -0.6639
  606MOL0     O81683   7.645   3.280   2.297  0.3935  1.5755 -0.8765
  606MOL0     C81684   7.645   3.378   2.406  0.7834 -0.1455 -0.3496
  606MOL0     C81685   7.782   3.371   2.475  0.4854 -0.5852 -0.3284
  606MOL0     C81686   7.815   3.493   2.560 -0.3102 -0.4162  0.9286
  606MOL0     C81687   7.724   3.496   2.683  0.8929  0.5017 -0.6189
  606MOL0     C81688   7.799   3.513   2.821  0.1993 -0.0313  0.5809
  606MOL0     C81689   7.698   3.519   2.932 -0.0571 -0.7408 -0.8157
  606MOL0     C81690   7.758   3.572   3.069 -0.0981  0.5122  0.1624
  606MOL0     C81691   7.884   3.495   3.109  0.1477 -0.5681  0.0383
  606MOL0     N81692   7.852   3.427   3.236 -0.4731  0.3308 -0.3741
  606MOL0     C81693   7.885   3.460   3.363  0.2290  0.0112 -0.1491
  606MOL0     C81694   7.829   3.368   3.438 -0.7276  0.6341 -0.1455
  606MOL0     C81695   7.868   3.350   3.585  0.5974 -0.4994 -0.6506
  606MOL0     C81696   7.873   3.486   3.654 -0.7914 -0.2264  0.3871
  606MOL0     C81697   7.916   3.488   3.802 -0.9478 -0.4920  0.1563
  606MOL0     C81698   7.970   3.625   3.852 -0.6978  0.2925  0.0203
  606MOL0     O81699   7.865   3.713   3.872  0.0961 -0.1735 -0.5616
  606MOL0     C81700   7.870   3.786   3.991 -0.3798 -0.0036  1.1095
  606MOL0     C81701   7.836   3.729   4.113  0.2912  0.4389  0.0695
  606MOL0     C81702   7.861   3.801   4.229  0.0536 -0.1155 -0.3416
  606MOL0     C81703   7.912   3.932   4.219  0.4060 -0.7315  0.2438
  606MOL0     C81704   7.934   4.019   4.338 -0.4342  0.2270 -0.0138
  606MOL0     O81705   7.903   4.157   4.329  0.5301 -0.0972  0.0028
  606MOL0     C81706   7.885   4.235   4.441 -0.9325 -0.0397  0.1076
  606MOL0     C81707   7.909   4.377   4.429 -0.8219  0.1444 -0.4345
  606MOL0     C81708   7.892   4.468   4.534 -0.8092  0.3885 -0.3407
  606MOL0     C81709   7.843   4.425   4.651  0.0660  0.4697 -0.1743
  606MOL0     O81710   7.815   4.522   4.750  0.6361  0.3918 -1.0902
  606MOL0     C81711   7.755   4.461   4.872 -0.3727  0.0122  0.8291
  606MOL0     C81712   7.732   4.578   4.966  0.2378  0.0285  0.8063
  606MOL0     C81713   7.636   4.679   4.892 -0.8444 -0.2705 -0.5463
  606MOL0     C81714   7.603   4.791   4.995 -0.0305 -0.5184  0.2074
  606MOL0     C81715   7.545   4.915   4.929  0.2241 -0.3162 -0.4949
  606MOL0     C81716   7.651   5.006   4.869 -0.8969  0.3989 -0.7249
  606MOL0     C81717   7.588   5.118   4.771  0.3670 -0.0450  1.0557
  606MOL0     C81718   7.697   5.200   4.707 -0.5769  0.4427  0.6605
  606MOL0    Cl81719   7.805   5.086   4.624 -0.1960 -0.3712 -0.1804
  606MOL0     C81720   7.807   4.290   4.663 -0.4749  0.0387  0.4682
  606MOL0     C81721   7.835   4.199   4.560  0.5747  0.3243  0.0107
  606MOL0     O81722   7.953   3.953   4.437  0.4957 -0.7801 -0.3077
  606MOL0     C81723   7.954   3.983   4.094  0.2270 -0.6988 -0.1555
  606MOL0     C81724   7.929   3.908   3.975 -0.1251  0.2701 -0.7030
  606MOL0     N81725   7.750   3.285   3.357  0.4840 -0.0861 -0.2670
  606MOL0     N81726   7.761   3.329   3.242 -0.3650 -0.2491  0.5486
  606MOL0     C81727   7.415   3.222   2.289 -0.6610  0.4114 -0.8262
  606MOL0     C81728   7.302   3.200   2.210  0.4039 -1.1089  0.1031
  606MOL0     C81729   7.012   3.221   1.877 -0.5659  1.0524 -0.3760
  606MOL0     C81730   7.065   3.231   1.746  0.0304 -0.6366 -0.0304
  606MOL0     C81731   6.983   3.202   1.631  0.9735 -0.2377 -0.1095
  606MOL0     C81732   6.842   3.188   1.661 -0.0039  0.8487  0.2766
  606MOL0     O81733   6.759   3.146   1.557  0.6602  0.2690 -0.0577
  606MOL0     C81734   6.764   3.008   1.511  0.3022 -0.5305  0.4369
  606MOL0     C81735   6.671   2.922   1.601  0.0832  0.1947  0.9526
  606MOL0     C81736   6.536   2.990   1.598  0.1431 -0.6724  0.2506
  606MOL0     C81737   6.410   2.905   1.616 -0.0196  0.6170  0.0408
  606MOL0     C81738   6.283   2.976   1.618 -0.4634  0.3618 -0.4162
  606MOL0     C81739   6.175   3.030   1.610  0.0488 -0.0544  0.4340
  606MOL0     C81740   6.794   3.186   1.792  0.4332  0.0830 -0.2242
  606MOL0     C81741   6.872   3.197   1.904 -1.1161 -0.5719 -0.6477
  606MOL0     C81742   6.814   3.184   2.045 -0.0869 -0.0800 -0.8122
  606MOL0     H81743   7.469   3.209   1.904 -1.6639  0.2371  0.7014
  606MOL0     H81744   7.670   3.253   2.050  0.9889 -2.7647  0.5942
  606MOL0     H81745   7.628   3.480   2.370  2.9641 -0.3288 -2.1499
  606MOL0     H81746   7.571   3.358   2.484 -0.8675  0.1920 -1.7695
  606MOL0     H81747   7.863   3.348   2.405 -1.1218 -3.1578 -1.4846
  606MOL0     H81748   7.772   3.281   2.536  1.4412 -0.5513 -0.0986
  606MOL0     H81749   7.794   3.584   2.502 -0.7688 -1.5602 -0.7655
  606MOL0     H81750   7.918   3.507   2.597 -0.6026  0.4577  1.4457
  606MOL0     H81751   7.654   3.579   2.670  0.7813  0.1059 -2.9229
  606MOL0     H81752   7.657   3.411   2.686 -0.2310  1.1285 -4.1656
  606MOL0     H81753   7.857   3.421   2.832 -1.0065 -0.8648  0.1040
  606MOL0     H81754   7.864   3.601   2.811 -1.9016  1.4412 -1.1144
  606MOL0     H81755   7.606   3.572   2.907  0.2411 -0.5994 -1.6616
  606MOL0     H81756   7.661   3.417   2.947 -3.2838  0.3602 -0.6585
  606MOL0     H81757   7.672   3.566   3.137  1.1252  0.9484  1.7967
  606MOL0     H81758   7.786   3.676   3.054  2.6826  0.0604  1.5965
  606MOL0     H81759   7.909   3.426   3.028 -3.2398 -0.7617 -0.9899
  606MOL0     H81760   7.965   3.567   3.127 -0.6070  0.4642 -0.5700
  606MOL0     H81761   7.965   3.527   3.394  1.2367 -1.6621  1.0629
  606MOL0     H81762   7.790   3.294   3.639  1.6417  0.6881  2.2975
  606MOL0     H81763   7.962   3.294   3.594 -0.5999 -2.6562 -0.7258
  606MOL0     H81764   7.930   3.550   3.586 -1.5819  0.6428  0.5220
  606MOL0     H81765   7.773   3.530   3.665 -0.4268  0.4290  1.2527
  606MOL0     H81766   7.995   3.415   3.823  1.3899  1.8747  0.0533
  606MOL0     H81767   7.838   3.452   3.870 -0.8538  0.4396  0.7712
  606MOL0     H81768   8.043   3.668   3.783 -0.2327 -2.1144 -1.0610
  606MOL0     H81769   8.015   3.602   3.950  0.1211 -1.1039 -0.6613
  606MOL0     H81770   7.805   3.625   4.113  2.7319 -0.3545  0.5421
  606MOL0     H81771   7.821   3.761   4.322 -1.3925  3.1560  0.6053
  606MOL0     H81772   7.953   4.432   4.346 -2.2344  0.5128 -0.9655
  606MOL0     H81773   7.917   4.573   4.525  2.8644 -0.5428 -4.7547
  606MOL0     H81774   7.666   4.407   4.840 -0.0665  0.9156 -1.7998
  606MOL0     H81775   7.823   4.398   4.931  1.5504 -0.9136 -2.1639
  606MOL0     H81776   7.697   4.537   5.061  1.4793 -1.8602  0.5048
  606MOL0     H81777   7.832   4.619   4.982 -0.7268  2.1910  1.5760
  606MOL0     H81778   7.676   4.729   4.804 -1.3088  0.6449 -0.2606
  606MOL0     H81779   7.537   4.641   4.865 -2.3543  1.0371  2.5418
  606MOL0     H81780   7.696   4.803   5.050  1.5842 -5.7422 -0.7998
  606MOL0     H81781   7.521   4.753   5.058 -0.8556  0.2632 -0.3602
  606MOL0     H81782   7.489   4.982   4.995  1.9066  2.5362 -1.7827
  606MOL0     H81783   7.471   4.886   4.854 -2.0039 -0.2158  1.5532
  606MOL0     H81784   7.706   5.058   4.947  0.7052 -0.8982 -0.9354
  606MOL0     H81785   7.724   4.948   4.812 -0.1585 -0.2010  0.7901
  606MOL0     H81786   7.517   5.192   4.809  0.5625  2.4561 -2.9488
  606MOL0     H81787   7.528   5.065   4.697 -1.1908  1.8138  0.9152
  606MOL0     H81788   7.658   5.271   4.634  2.2826  1.1310 -0.3233
  606MOL0     H81789   7.754   5.255   4.783  0.6204  0.3633 -0.1588
  606MOL0     H81790   7.787   4.243   4.759 -2.1040  0.7508  0.5094
  606MOL0     H81791   7.818   4.093   4.578 -0.3113  0.4903  0.1855
  606MOL0     H81792   7.992   4.083   4.075 -0.8175 -0.4038 -0.8163
  606MOL0     H81793   7.939   3.944   3.873  0.6522 -0.2642 -0.8246
  606MOL0     H81794   7.405   3.227   2.397  2.0400 -0.0443 -0.4834
  606MOL0     H81795   7.201   3.185   2.249 -0.7286  0.9074 -1.8424
  606MOL0     H81796   7.172   3.242   1.737  0.2421 -0.3475  2.1811
  606MOL0     H81797   7.022   3.187   1.531 -1.3817  0.4097 -1.2081
  606MOL0     H81798   6.867   2.973   1.510  0.7311  0.6969 -0.8347
  606MOL0     H81799   6.718   3.012   1.412  1.1029  2.1189  0.1081
  606MOL0     H81800   6.719   2.939   1.698  1.9731 -1.1552  0.3100
  606MOL0     H81801   6.661   2.818   1.569 -1.1986  1.1771 -2.2978
  606MOL0     H81802   6.522   3.049   1.507  0.5540 -0.5656  0.2581
  606MOL0     H81803   6.537   3.061   1.682  0.3789  1.0317 -1.1293
  606MOL0     H81804   6.406   2.822   1.544  1.2395 -1.4702  2.2146
  606MOL0     H81805   6.419   2.859   1.715 -0.3140 -0.8974 -0.5992
  606MOL0     H81806   6.070   3.052   1.602 -0.3687 -2.3520 -1.6105
  606MOL0     H81807   6.692   3.155   1.813 -0.8637  4.2584  0.5046
  606MOL0     H81808   6.706   3.198   2.036 -0.6980 -1.1184  3.1254
  606MOL0     H81809   6.825   3.084   2.088 -1.5399  0.5921  1.2431
  606MOL0     H81810   6.854   3.252   2.121  1.8703  0.1883 -1.9935
  607MOL0     O81811   7.363   1.204   0.369 -0.6030 -0.3448 -0.1303
  607MOL0     C81812   7.391   1.319   0.403 -1.3085 -0.7022 -0.1343
  607MOL0     O81813   7.511   1.380   0.391  0.3602 -0.5616  0.3638
  607MOL0     C81814   7.611   1.303   0.348  0.4306 -0.1569  0.4472
  607MOL0     C81815   7.606   1.260   0.217  0.2347 -0.0099 -0.9992
  607MOL0     C81816   7.716   1.193   0.157  0.2992 -0.1210  0.1608
  607MOL0     C81817   7.836   1.182   0.236 -0.2925  0.6369  0.6656
  607MOL0     O81818   7.963   1.136   0.197 -0.0907  0.1455 -0.1046
  607MOL0     C81819   7.969   1.054   0.074 -0.2489 -0.5203  0.3719
  607MOL0     C81820   7.984   1.137  -0.048  0.6194 -0.7705 -0.1180
  607MOL0     C81821   8.012   1.056  -0.172 -0.3588  0.1505  0.3974
  607MOL0     C81822   8.162   1.060  -0.211 -0.1478  0.7383  0.4838
  607MOL0     C81823   8.171   0.984  -0.351 -0.3763  0.0447  0.6774
  607MOL0     C81824   8.309   1.018  -0.424 -0.3021  0.4403 -0.2421
  607MOL0     C81825   8.297   0.995  -0.572  0.2305  0.0094 -0.2505
  607MOL0     C81826   8.225   1.093  -0.661  0.9586  0.1798  0.5998
  607MOL0     N81827   8.275   1.232  -0.655  0.2977 -0.0635 -0.1137
  607MOL0     C81828   8.217   1.328  -0.571 -0.0018  0.1817  0.2452
  607MOL0     C81829   8.320   1.411  -0.560  0.6666 -0.5094  0.4389
  607MOL0     C81830   8.323   1.524  -0.465 -0.0687  0.3236 -0.9947
  607MOL0     C81831   8.319   1.487  -0.314 -0.0880 -0.3847  0.4799
  607MOL0     C81832   8.347   1.610  -0.226  0.8461  0.7265  0.3564
  607MOL0     C81833   8.488   1.619  -0.195 -0.1148  0.7309 -0.2400
  607MOL0     O81834   8.512   1.734  -0.118 -0.1047 -0.2048  0.2962
  607MOL0     C81835   8.641   1.763  -0.076  0.2274 -0.2065  0.0206
  607MOL0     C81836   8.660   1.889  -0.033 -1.4118 -0.9525 -0.9860
  607MOL0     C81837   8.791   1.929   0.008 -0.6797 -0.2114  0.5247
  607MOL0     C81838   8.893   1.841   0.020 -1.1522 -0.2035  1.3931
  607MOL0     C81839   9.031   1.884   0.063  0.3670 -0.6905 -0.7999
  607MOL0     O81840   9.056   2.021   0.075  0.3357  0.5620  0.3059
  607MOL0     C81841   9.180   2.079   0.094  0.0598 -0.3461 -0.9023
  607MOL0     C81842   9.307   2.018   0.070 -0.0755  1.0486 -0.1318
  607MOL0     C81843   9.428   2.085   0.088  1.3110 -0.5032 -0.9771
  607MOL0     C81844   9.425   2.222   0.114 -0.9653 -0.1993  0.4540
  607MOL0     O81845   9.545   2.283   0.126 -0.1549 -0.5903 -0.5511
  607MOL0     C81846   9.548   2.391   0.224  1.2258  0.0789 -0.3573
  607MOL0     C81847   9.702   2.412   0.258  0.2182 -0.5550 -0.2049
  607MOL0     C81848   9.757   2.284   0.316  0.9580 -0.4116  0.0969
  607MOL0     C81849   9.906   2.280   0.330  0.4720 -0.2502 -1.4081
  607MOL0     C81850   9.944   2.145   0.405 -0.4899 -0.2949 -0.3210
  607MOL0     C81851  10.097   2.141   0.413 -0.5553  0.2177 -0.4372
  607MOL0     C81852  10.160   2.212   0.539  0.5630 -0.3068  0.0557
  607MOL0     C81853  10.301   2.247   0.520  0.4005 -1.0950  0.7900
  607MOL0    Cl81854  10.362   2.327   0.660  0.2182 -0.3049 -0.5029
  607MOL0     C81855   9.302   2.285   0.120  0.2701 -0.5040 -0.1743
  607MOL0     C81856   9.178   2.219   0.111  0.1729  0.3275 -1.2146
  607MOL0     O81857   9.107   1.793   0.095 -0.2940  0.6698  0.3981
  607MOL0     C81858   8.869   1.706  -0.022 -0.1201 -0.0612 -0.6443
  607MOL0     C81859   8.746   1.668  -0.065  0.9495  0.8291 -0.8959
  607MOL0     N81860   8.426   1.383  -0.646  0.8377  0.4234  0.4106
  607MOL0     N81861   8.392   1.274  -0.699 -0.3133  0.1663  0.3049
  607MOL0     C81862   7.832   1.206   0.371 -0.3156  0.2460  0.0493
  607MOL0     C81863   7.715   1.262   0.427  0.1892 -0.9116 -0.1694
  607MOL0     C81864   7.288   1.398   0.467  0.2818  1.1672  0.3658
  607MOL0     C81865   7.323   1.448   0.588  1.2283 -0.0966  0.0304
  607MOL0     C81866   7.228   1.524   0.652 -0.2847  1.2939 -0.0113
  607MOL0     C81867   7.104   1.548   0.598  0.1860  0.5334  0.1195
  607MOL0     O81868   7.020   1.620   0.674  1.3316 -0.3533 -0.2002
  607MOL0     C81869   6.918   1.545   0.748 -0.6121  0.1791 -0.0140
  607MOL0     C81870   6.780   1.553   0.677 -0.7811  1.5398  0.3272
  607MOL0     C81871   6.740   1.696   0.657  0.1724  0.9034 -0.3097
  607MOL0     C81872   6.594   1.724   0.616  0.1965  0.0760 -0.7288
  607MOL0     C81873   6.490   1.652   0.689  0.1870 -0.0131  0.3428
  607MOL0     C81874   6.400   1.594   0.745  0.1947 -0.6354  1.1486
  607MOL0     C81875   7.069   1.488   0.480  0.3025  0.3129 -0.4820
  607MOL0     C81876   7.158   1.409   0.413 -0.6760  0.4402 -0.1544
  607MOL0     C81877   7.124   1.364   0.270 -0.4243 -0.6415  0.0799
  607MOL0     H81878   7.527   1.287   0.148  1.1880 -1.8797 -2.9366
  607MOL0     H81879   7.729   1.163   0.054  0.6763  2.8450 -0.7505
  607MOL0     H81880   8.052   0.983   0.082  0.0576 -0.0095  2.1869
  607MOL0     H81881   7.878   0.996   0.059 -0.4708 -0.4034  1.1698
  607MOL0     H81882   8.062   1.211  -0.026  0.8587 -0.9426 -0.3816
  607MOL0     H81883   7.895   1.196  -0.072  1.4709  0.1845 -1.0138
  607MOL0     H81884   7.955   1.103  -0.253  0.3830 -1.4276 -1.0940
  607MOL0     H81885   7.969   0.955  -0.170  0.8364 -0.3714  0.5243
  607MOL0     H81886   8.187   1.166  -0.205  0.7203  0.6843 -1.4042
  607MOL0     H81887   8.217   0.998  -0.140  1.2160 -0.2601 -1.3414
  607MOL0     H81888   8.172   0.875  -0.340  1.4381 -0.0777 -0.2575
  607MOL0     H81889   8.095   1.032  -0.413  1.3270  2.1598  0.1127
  607MOL0     H81890   8.327   1.125  -0.414  2.1351  0.1333 -0.7414
  607MOL0     H81891   8.396   0.972  -0.376 -0.0465  1.4843  0.3095
  607MOL0     H81892   8.237   0.906  -0.588 -0.5436  0.4662  0.0783
  607MOL0     H81893   8.400   0.977  -0.605 -0.1736  0.4209 -1.8544
  607MOL0     H81894   8.236   1.061  -0.764  0.1233 -1.1700  0.9119
  607MOL0     H81895   8.121   1.106  -0.628  1.4196  0.4275  2.0388
  607MOL0     H81896   8.123   1.348  -0.520 -0.2389 -1.3922  0.4865
  607MOL0     H81897   8.418   1.578  -0.476  0.6855 -0.9142 -0.7373
  607MOL0     H81898   8.246   1.593  -0.500 -0.1037  1.0156  0.3836
  607MOL0     H81899   8.217   1.452  -0.294  0.0396 -0.7187  0.5448
  607MOL0     H81900   8.384   1.402  -0.294  2.9903  1.7562  0.2242
  607MOL0     H81901   8.303   1.609  -0.126  4.2547 -1.8893  2.0660
  607MOL0     H81902   8.317   1.701  -0.280 -2.0103 -0.4432 -0.1956
  607MOL0     H81903   8.544   1.620  -0.289 -1.7697  1.0796 -1.2648
  607MOL0     H81904   8.507   1.531  -0.134  3.0339  0.2224 -1.7720
  607MOL0     H81905   8.576   1.957  -0.030 -0.9410 -0.1620 -3.4658
  607MOL0     H81906   8.806   2.032   0.040  2.5310  0.2156 -1.8150
  607MOL0     H81907   9.321   1.915   0.038  0.1758  1.4968 -1.5596
  607MOL0     H81908   9.521   2.030   0.081  2.0761  0.7205 -0.5534
  607MOL0     H81909   9.491   2.477   0.191 -1.7385 -1.0422  1.4602
  607MOL0     H81910   9.492   2.357   0.311  0.3905 -1.4799 -1.4381
  607MOL0     H81911   9.750   2.438   0.163  1.3277 -0.0317  0.4846
  607MOL0     H81912   9.723   2.492   0.329  2.1815 -2.9764  2.1725
  607MOL0     H81913   9.717   2.271   0.417  1.1747 -3.0257 -0.0942
  607MOL0     H81914   9.721   2.203   0.252 -3.4884  1.4147 -0.0494
  607MOL0     H81915   9.935   2.371   0.383 -2.1834 -0.2592  0.2278
  607MOL0     H81916   9.948   2.290   0.229 -0.1422 -1.5669 -1.8255
  607MOL0     H81917   9.902   2.070   0.338  0.5141 -1.9140  0.8140
  607MOL0     H81918   9.895   2.124   0.500  0.5582 -2.1747 -0.1693
  607MOL0     H81919  10.128   2.037   0.425 -1.0262  0.2613  1.7402
  607MOL0     H81920  10.137   2.191   0.324  1.1497  4.2755  2.2767
  607MOL0     H81921  10.169   2.130   0.611  4.0550 -3.0793 -3.1118
  607MOL0     H81922  10.100   2.299   0.567  0.6637 -0.9452  2.4176
  607MOL0     H81923  10.360   2.162   0.485 -0.6705 -2.3899  1.9903
  607MOL0     H81924  10.302   2.321   0.439 -0.9268 -3.1868 -1.3064
  607MOL0     H81925   9.291   2.393   0.117  2.1700 -0.3048 -1.6362
  607MOL0     H81926   9.081   2.268   0.108 -1.1129 -1.5766  2.6576
  607MOL0     H81927   8.955   1.641  -0.016  0.6598  1.1068  3.1134
  607MOL0     H81928   8.714   1.573  -0.105 -0.0227  0.5088  0.5576
  607MOL0     H81929   7.907   1.162   0.436 -1.2412 -2.2227 -0.4282
  607MOL0     H81930   7.704   1.283   0.533  1.5885  0.0299 -0.1964
  607MOL0     H81931   7.419   1.426   0.634  0.7965 -0.4721  0.7667
  607MOL0     H81932   7.265   1.574   0.740  2.6916 -2.0725  0.9179
  607MOL0     H81933   6.917   1.578   0.852 -3.8603 -2.8083  1.1073
  607MOL0     H81934   6.946   1.440   0.763 -1.0521 -0.5626 -3.5544
  607MOL0     H81935   6.717   1.486   0.736 -0.6067 -1.2097 -2.3733
  607MOL0     H81936   6.784   1.505   0.578 -0.9578 -1.4406  1.6476
  607MOL0     H81937   6.802   1.739   0.577 -2.1703  1.4710 -1.9211
  607MOL0     H81938   6.765   1.760   0.742 -0.6922  0.8885 -0.0285
  607MOL0     H81939   6.580   1.833   0.616  1.5937  0.2860 -2.1546
  607MOL0     H81940   6.583   1.689   0.513 -1.8371 -1.0804 -0.1734
  607MOL0     H81941   6.306   1.563   0.787 -2.2283  2.4356 -1.4465
  607MOL0     H81942   6.972   1.507   0.434 -0.9409 -3.2219  0.2771
  607MOL0     H81943   7.022   1.386   0.239 -0.0359  0.2278 -0.6099
  607MOL0     H81944   7.195   1.416   0.205 -1.2536  1.0856  0.5091
  607MOL0     H81945   7.135   1.255   0.264 -0.8368 -0.6723 -0.1590
  608MOL0     O81946  10.224   3.702   7.451  0.0073  0.2654  0.5879
  608MOL0     C81947  10.208   3.680   7.567 -0.2354 -0.2064  0.6717
  608MOL0     O81948  10.298   3.704   7.664 -0.2567 -0.0746  0.5147
  608MOL0     C81949  10.415   3.763   7.616  0.5119  0.3719 -0.8865
  608MOL0     C81950  10.429   3.901   7.600  0.6045 -0.1861 -0.5549
  608MOL0     C81951  10.549   3.957   7.560 -0.5499  0.0010  0.5041
  608MOL0     C81952  10.661   3.881   7.543 -0.5298  0.1223  0.1848
  608MOL0     O81953  10.790   3.931   7.525 -0.2042 -0.2602  0.0539
  608MOL0     C81954  10.812   4.055   7.455  0.0006  0.6013  0.7862
  608MOL0     C81955  10.808   4.044   7.301 -1.0928 -0.2375 -0.1169
  608MOL0     C81956  10.930   3.982   7.244 -0.1530 -1.3415 -0.3487
  608MOL0     C81957  10.947   3.841   7.278 -0.3606 -0.1412 -0.1428
  608MOL0     C81958  11.068   3.774   7.195 -0.3935 -0.7978 -0.1296
  608MOL0     C81959  11.202   3.837   7.229 -0.6949  0.6344  0.3996
  608MOL0     C81960  11.332   3.752   7.191  0.1031 -0.3587  0.1071
  608MOL0     C81961  11.346   3.615   7.260  0.3097 -1.9418 -0.2376
  608MOL0     N81962  11.436   3.530   7.188  0.0300  0.0157  0.6370
  608MOL0     C81963  11.561   3.508   7.234  0.4160 -0.2187 -0.5378
  608MOL0     C81964  11.622   3.429   7.139  0.6053  0.2042  0.7925
  608MOL0     C81965  11.760   3.369   7.155 -0.4703 -0.0662  0.6197
  608MOL0     C81966  11.849   3.386   7.030  0.0991  0.0801  0.3737
  608MOL0     C81967  11.874   3.531   6.993 -0.7116 -0.6203  0.1384
  608MOL0     C81968  11.978   3.541   6.888 -0.0918 -0.1738  1.0259
  608MOL0     O81969  12.026   3.673   6.868  0.0613  0.3645  0.7017
  608MOL0     C81970  12.125   3.696   6.780  1.2795  1.1798  0.1410
  608MOL0     C81971  12.183   3.821   6.772  0.0096 -0.0646  0.2049
  608MOL0     C81972  12.282   3.839   6.679 -0.3756 -0.4656 -0.9085
  608MOL0     C81973  12.330   3.747   6.591 -0.4365  0.9892 -0.1061
  608MOL0     C81974  12.440   3.779   6.496 -0.4493  0.0259 -0.1149
  608MOL0     O81975  12.505   3.900   6.524  0.3042  0.6282 -0.4400
  608MOL0     C81976  12.613   3.918   6.436  0.2317  0.2933 -0.0055
  608MOL0     C81977  12.589   4.004   6.321  0.2379 -0.7043  0.0219
  608MOL0     C81978  12.698   4.020   6.229  0.4208  0.1341 -0.0312
  608MOL0     C81979  12.820   3.949   6.263 -0.4063  0.5338 -0.4635
  608MOL0     O81980  12.930   3.966   6.185  0.5333 -0.5970  0.0168
  608MOL0     C81981  12.920   4.050   6.064  0.3925 -0.6804  0.1497
  608MOL0     C81982  12.909   4.202   6.082 -0.2733  0.6995 -0.3551
  608MOL0     C81983  13.032   4.273   6.138  0.8558 -0.6772 -0.8216
  608MOL0     C81984  13.006   4.428   6.173 -0.5615 -0.6184 -0.2631
  608MOL0     C81985  13.133   4.471   6.257 -0.3958  0.1730  0.3101
  608MOL0     C81986  13.135   4.630   6.278  0.1427 -0.0818 -0.6919
  608MOL0     C81987  13.210   4.674   6.402 -1.0918  0.5148 -0.2819
  608MOL0     C81988  13.203   4.825   6.434 -0.3546  0.3504  0.1667
  608MOL0    Cl81989  13.038   4.876   6.418  0.6997  0.0016  0.6673
  608MOL0     C81990  12.831   3.866   6.379  0.1139 -0.4776 -0.1218
  608MOL0     C81991  12.731   3.858   6.467 -0.1227 -0.0133  0.2537
  608MOL0     O81992  12.473   3.702   6.406 -0.0587 -1.0233 -1.1250
  608MOL0     C81993  12.286   3.609   6.606  0.6450 -0.3483 -0.2968
  608MOL0     C81994  12.172   3.592   6.694  1.2140  0.2190 -1.2079
  608MOL0     N81995  11.532   3.431   7.033 -0.0147  0.2232 -0.7001
  608MOL0     N81996  11.424   3.492   7.058 -0.4799  0.2484  0.8649
  608MOL0     C81997  10.649   3.741   7.555  0.0319  0.2002 -1.0454
  608MOL0     C81998  10.523   3.684   7.600 -0.7107  0.0890  0.1807
  608MOL0     C81999  10.081   3.631   7.614 -0.8052 -0.5621 -0.2071
  608MOL0     C82000  10.086   3.508   7.690 -0.6770 -0.1294 -0.6521
  608MOL0     C82001   9.965   3.453   7.728  0.3460  0.0860  0.1455
  608MOL0     C82002   9.845   3.512   7.707  1.3411 -0.7947  0.6382
  608MOL0     O82003   9.726   3.455   7.750 -0.4594  0.1329  0.5005
  608MOL0     C82004   9.647   3.519   7.849 -0.8893  0.1990  0.2387
  608MOL0     C82005   9.518   3.460   7.882  0.2658 -0.8177  0.0738
  608MOL0     C82006   9.524   3.342   7.975  0.1014 -0.3068  0.5118
  608MOL0     C82007   9.385   3.279   8.002 -0.5323  0.4692  0.0275
  608MOL0     C82008   9.290   3.379   8.059  0.8343  0.2341  0.0756
  608MOL0     C82009   9.208   3.456   8.109  0.2031 -0.1453 -0.8638
  608MOL0     C82010   9.847   3.644   7.654 -0.4330 -0.5104  0.2068
  608MOL0     C82011   9.961   3.703   7.604  0.7919  0.0587  0.2066
  608MOL0     C82012   9.960   3.841   7.551 -0.0265  0.7165 -0.6970
  608MOL0     H82013  10.340   3.961   7.614 -0.0343 -1.5114  1.6179
  608MOL0     H82014  10.557   4.065   7.547  2.9172 -0.1029  0.7660
  608MOL0     H82015  10.730   4.120   7.485 -1.6409 -1.9305  2.1111
  608MOL0     H82016  10.911   4.083   7.493  0.2717 -1.3049  1.6309
  608MOL0     H82017  10.810   4.149   7.272  2.2088  0.5245  2.3435
  608MOL0     H82018  10.720   3.998   7.253 -0.3329 -2.2008  0.2570
  608MOL0     H82019  11.010   4.053   7.268 -2.5259  0.4416  3.0100
  608MOL0     H82020  10.905   4.003   7.139 -2.6481  1.5212  0.6918
  608MOL0     H82021  10.985   3.849   7.380 -1.3574  0.7112  0.1731
  608MOL0     H82022  10.854   3.784   7.268 -0.3210 -0.4355  1.0656
  608MOL0     H82023  11.067   3.670   7.229 -0.1738 -0.4940  0.8325
  608MOL0     H82024  11.056   3.786   7.086 -0.1780  1.0064  0.0108
  608MOL0     H82025  11.220   3.927   7.168 -1.0060  0.6224  0.2873
  608MOL0     H82026  11.207   3.879   7.330  0.2285  2.1702 -0.2439
  608MOL0     H82027  11.420   3.814   7.209  1.8812 -2.8391  0.4751
  608MOL0     H82028  11.327   3.730   7.084  2.4433 -1.5938  0.1977
  608MOL0     H82029  11.381   3.642   7.360  0.1459  0.5156 -0.7868
  608MOL0     H82030  11.250   3.563   7.264 -1.7256  1.5457  1.4645
  608MOL0     H82031  11.590   3.548   7.331  0.6423  1.6091 -1.3226
  608MOL0     H82032  11.802   3.417   7.244 -0.1143 -2.1687  1.6527
  608MOL0     H82033  11.752   3.263   7.181  1.4363 -0.2523  0.5990
  608MOL0     H82034  11.948   3.339   7.035  0.9124  1.0811 -3.2684
  608MOL0     H82035  11.790   3.338   6.952 -2.1280  3.6192 -0.3244
  608MOL0     H82036  11.919   3.591   7.073 -1.8195  0.5439 -0.0856
  608MOL0     H82037  11.787   3.583   6.953 -1.1932 -1.7341 -0.2896
  608MOL0     H82038  11.926   3.515   6.795  1.1777 -0.3247  0.3265
  608MOL0     H82039  12.063   3.476   6.910  0.5865  1.0210  2.0848
  608MOL0     H82040  12.145   3.903   6.831 -0.1590 -0.2233  0.3181
  608MOL0     H82041  12.311   3.944   6.675  0.2462 -0.6520 -1.5291
  608MOL0     H82042  12.486   4.037   6.314 -0.0046 -1.6021 -0.8749
  608MOL0     H82043  12.683   4.083   6.142  1.5591 -2.7357 -2.4699
  608MOL0     H82044  13.013   4.042   6.008  0.8439  1.1126  0.5586
  608MOL0     H82045  12.842   4.011   5.997 -1.3837 -1.3906  2.4688
  608MOL0     H82046  12.884   4.246   5.985 -1.7266  1.5483  0.3516
  608MOL0     H82047  12.821   4.232   6.140 -1.2580 -1.9519 -0.3412
  608MOL0     H82048  13.057   4.220   6.231  1.9386 -0.4790 -0.9930
  608MOL0     H82049  13.112   4.272   6.064 -0.3322  1.7280 -2.2576
  608MOL0     H82050  12.919   4.456   6.234 -1.0557 -1.1822 -0.7010
  608MOL0     H82051  12.987   4.482   6.080 -0.7993  3.1737  1.7936
  608MOL0     H82052  13.226   4.440   6.208 -1.0862 -1.0973 -0.2343
  608MOL0     H82053  13.116   4.413   6.348 -2.7476  1.9551  1.1177
  608MOL0     H82054  13.180   4.683   6.194  1.0956  1.2722  0.6211
  608MOL0     H82055  13.031   4.665   6.286  0.1112 -0.2942 -0.1041
  608MOL0     H82056  13.314   4.643   6.393 -1.6710 -2.1244  1.1514
  608MOL0     H82057  13.168   4.627   6.492  0.1234 -2.3214 -1.1026
  608MOL0     H82058  13.239   4.834   6.537  0.4112 -0.4936 -0.0120
  608MOL0     H82059  13.265   4.880   6.363 -0.3148  0.6080  0.4002
  608MOL0     H82060  12.917   3.803   6.402 -1.2849 -2.5530 -0.2355
  608MOL0     H82061  12.723   3.789   6.550  0.5454 -1.7042 -1.0200
  608MOL0     H82062  12.332   3.523   6.559 -1.5008 -0.3903 -2.5017
  608MOL0     H82063  12.123   3.495   6.692 -1.4952  1.2034  3.0694
  608MOL0     H82064  10.739   3.679   7.557 -1.0750 -1.4579  0.3657
  608MOL0     H82065  10.519   3.580   7.632 -2.2539  0.1595  0.2811
  608MOL0     H82066  10.180   3.457   7.711 -0.4310  0.4195 -0.3885
  608MOL0     H82067   9.954   3.355   7.773 -2.6905 -1.1292 -2.8529
  608MOL0     H82068   9.620   3.620   7.815  0.6045 -0.1049 -2.0924
  608MOL0     H82069   9.713   3.539   7.934  0.7316 -0.2190 -0.8657
  608MOL0     H82070   9.476   3.436   7.784  1.9531  2.9387 -1.7755
  608MOL0     H82071   9.459   3.544   7.920 -1.5399 -3.1739  2.8040
  608MOL0     H82072   9.570   3.389   8.062 -0.1674 -0.1719  0.5824
  608MOL0     H82073   9.584   3.261   7.931 -2.2477 -1.1227 -1.4066
  608MOL0     H82074   9.353   3.243   7.904  2.4111  0.2669 -0.9664
  608MOL0     H82075   9.388   3.192   8.068 -2.8055 -0.2352 -0.6835
  608MOL0     H82076   9.138   3.527   8.147 -1.2555 -1.2598 -1.3540
  608MOL0     H82077   9.755   3.701   7.641 -0.4813 -0.2737  1.4382
  608MOL0     H82078   9.993   3.920   7.619  3.7924 -0.0086 -1.4825
  608MOL0     H82079  10.026   3.849   7.464  2.4185  2.5139  1.1828
  608MOL0     H82080   9.862   3.865   7.509 -0.6823 -1.2976 -0.4264
  609MOL0     O82081  11.114   2.233   2.419  0.1409 -0.0362 -0.0572
  609MOL0     C82082  11.024   2.229   2.510  0.5892  1.1514  1.7393
  609MOL0     O82083  11.048   2.193   2.642 -0.4236 -0.1940 -0.3845
  609MOL0     C82084  11.164   2.121   2.667 -0.1080 -0.0659  0.1083
  609MOL0     C82085  11.293   2.165   2.639 -0.9496 -0.0319 -0.3097
  609MOL0     C82086  11.403   2.081   2.679  0.7173  0.0836 -0.3894
  609MOL0     C82087  11.380   1.952   2.732  0.4975  0.0896  0.0191
  609MOL0     O82088  11.494   1.882   2.759  0.0151 -0.0640  1.0012
  609MOL0     C82089  11.469   1.748   2.818 -0.0476 -0.5069 -0.1539
  609MOL0     C82090  11.605   1.686   2.857 -0.1398  0.4192  0.1155
  609MOL0     C82091  11.663   1.745   2.989 -0.3298 -0.7657 -0.5710
  609MOL0     C82092  11.578   1.720   3.115 -0.5786  1.0109  0.0863
  609MOL0     C82093  11.667   1.648   3.230 -0.1087 -0.0145 -0.4486
  609MOL0     C82094  11.581   1.625   3.358  0.5585 -0.2723 -0.3861
  609MOL0     C82095  11.439   1.558   3.332 -0.4986  0.0515 -0.7286
  609MOL0     C82096  11.379   1.496   3.454  0.8980 -0.0770  0.6818
  609MOL0     N82097  11.232   1.475   3.425 -0.5453 -0.7587 -0.4234
  609MOL0     C82098  11.169   1.354   3.404  0.9453  0.0462  0.5279
  609MOL0     C82099  11.039   1.381   3.391  0.4049 -0.0205 -0.1029
  609MOL0     C82100  10.935   1.279   3.374  1.0255  0.0919 -0.9624
  609MOL0     C82101  10.916   1.179   3.488 -0.2214  0.2054 -0.7407
  609MOL0     C82102  10.820   1.243   3.596 -0.0206 -0.6554  0.2670
  609MOL0     C82103  10.873   1.242   3.747 -0.8322 -0.2662  0.0407
  609MOL0     O82104  10.898   1.113   3.788  0.0039  0.9450 -0.6238
  609MOL0     C82105  10.966   1.082   3.905 -0.0559  0.0334  0.0851
  609MOL0     C82106  11.025   1.169   4.003 -0.3221 -0.0575  0.2140
  609MOL0     C82107  11.092   1.116   4.113 -0.0191  0.7935 -1.0308
  609MOL0     C82108  11.103   0.975   4.136 -0.2481 -0.7821  0.2701
  609MOL0     C82109  11.199   0.917   4.232 -0.4060  1.2200  0.9627
  609MOL0     O82110  11.253   0.997   4.330  0.3165  0.6330  0.4011
  609MOL0     C82111  11.356   0.942   4.412  0.0904 -0.6875 -0.2043
  609MOL0     C82112  11.324   0.916   4.545  0.7035  0.7247 -0.4462
  609MOL0     C82113  11.424   0.863   4.630 -0.7855  0.0345 -0.0732
  609MOL0     C82114  11.554   0.840   4.588  0.2571 -0.0891  1.0162
  609MOL0     O82115  11.668   0.800   4.659  0.3296 -0.4303  1.0747
  609MOL0     C82116  11.648   0.733   4.777  0.3172 -0.9759  0.7258
  609MOL0     C82117  11.766   0.754   4.863 -0.1105  0.8192  0.7950
  609MOL0     C82118  11.754   0.711   5.004  1.2642 -0.0119 -0.1123
  609MOL0     C82119  11.868   0.749   5.103  0.3996  0.6280 -0.1130
  609MOL0     C82120  12.014   0.704   5.079  0.0342 -0.2003 -0.0619
  609MOL0     C82121  12.120   0.728   5.185 -0.6490  0.1680 -0.3821
  609MOL0     C82122  12.102   0.647   5.314 -0.2057  0.6560  0.6033
  609MOL0     C82123  12.141   0.723   5.435  0.6103 -0.2819 -0.1274
  609MOL0    Cl82124  12.006   0.830   5.499  0.0762  0.0710 -0.6361
  609MOL0     C82125  11.572   0.850   4.450 -0.5339 -0.4727 -0.5103
  609MOL0     C82126  11.477   0.896   4.357  0.6371 -0.3359 -0.4824
  609MOL0     O82127  11.212   0.796   4.231  0.5376  0.9400  0.0083
  609MOL0     C82128  11.033   0.895   4.054  0.4144 -0.0670 -0.5620
  609MOL0     C82129  10.962   0.946   3.940  0.2609  0.6999  0.0681
  609MOL0     N82130  11.028   1.520   3.410  0.0036 -0.7460 -1.2830
  609MOL0     N82131  11.145   1.579   3.423  0.1910  0.0881  0.0580
  609MOL0     C82132  11.243   1.912   2.746 -0.4320 -0.2578  0.1831
  609MOL0     C82133  11.136   1.998   2.718  0.6282 -0.3912  0.3076
  609MOL0     C82134  10.887   2.287   2.493 -0.2534 -0.2066 -0.4037
  609MOL0     C82135  10.800   2.299   2.602 -0.4441 -0.4280 -0.5005
  609MOL0     C82136  10.671   2.343   2.605  0.2596 -1.0160 -0.0359
  609MOL0     C82137  10.620   2.386   2.482 -0.1052  0.3524 -0.3257
  609MOL0     O82138  10.487   2.426   2.495  0.1747 -0.0192 -1.0458
  609MOL0     C82139  10.419   2.501   2.393 -0.0712 -0.2268 -0.0635
  609MOL0     C82140  10.280   2.548   2.437 -0.8145  0.2098  0.0779
  609MOL0     C82141  10.161   2.451   2.429 -0.3558  0.0473  0.2072
  609MOL0     C82142  10.189   2.321   2.498 -0.1068 -0.6013 -0.1457
  609MOL0     C82143  10.099   2.209   2.459 -0.1999 -0.6635 -1.6034
  609MOL0     C82144  10.027   2.120   2.409 -0.1804  0.6948 -0.2904
  609MOL0     C82145  10.699   2.379   2.359  0.0540  0.2585  0.0966
  609MOL0     C82146  10.834   2.344   2.368 -0.6534  0.1723  0.2450
  609MOL0     C82147  10.920   2.374   2.247  0.4214 -0.6483  0.0491
  609MOL0     H82148  11.313   2.262   2.594 -0.9451  1.2929  2.3834
  609MOL0     H82149  11.504   2.104   2.648 -0.1298  2.3574 -1.7346
  609MOL0     H82150  11.403   1.751   2.906  0.6546  1.4033  0.3546
  609MOL0     H82151  11.416   1.689   2.743 -2.1267  1.7080 -0.5211
  609MOL0     H82152  11.679   1.693   2.777 -0.7953  1.1532 -0.4479
  609MOL0     H82153  11.587   1.579   2.873  0.7493 -0.0733 -1.9270
  609MOL0     H82154  11.677   1.853   2.974 -2.8482 -0.2419  0.3937
  609MOL0     H82155  11.757   1.692   3.008 -0.2090 -0.7638 -1.1518
  609MOL0     H82156  11.541   1.812   3.159  0.3962  1.0169  0.9374
  609MOL0     H82157  11.488   1.665   3.087 -2.2920  3.9257 -0.5287
  609MOL0     H82158  11.721   1.556   3.209 -1.2202 -0.3193 -2.1535
  609MOL0     H82159  11.739   1.723   3.262 -0.4706 -0.1793  0.8487
  609MOL0     H82160  11.638   1.572   3.435 -0.3942 -1.0161 -0.1725
  609MOL0     H82161  11.563   1.723   3.404 -4.4305  0.0512 -2.4373
  609MOL0     H82162  11.462   1.475   3.265  0.9113  0.1178 -0.3546
  609MOL0     H82163  11.379   1.629   3.275  0.8824 -0.5484 -3.0547
  609MOL0     H82164  11.431   1.402   3.473  4.1180  2.1047  3.9163
  609MOL0     H82165  11.381   1.561   3.542  1.8215  1.9291 -0.7450
  609MOL0     H82166  11.214   1.255   3.402  0.1987 -0.3541  1.9563
  609MOL0     H82167  10.836   1.321   3.350 -0.3065 -3.9608 -3.7307
  609MOL0     H82168  10.956   1.230   3.279 -1.1553  1.2267 -2.1145
  609MOL0     H82169  10.861   1.097   3.441  2.7726 -2.1747 -0.4436
  609MOL0     H82170  11.000   1.131   3.539 -1.9414 -0.2079  1.9207
  609MOL0     H82171  10.732   1.177   3.594  1.4962 -2.8035  0.5698
  609MOL0     H82172  10.789   1.345   3.570  0.8876  0.0734  1.9100
  609MOL0     H82173  10.804   1.291   3.816 -0.1328  0.3664  0.3043
  609MOL0     H82174  10.968   1.294   3.763  0.3184 -2.0405 -0.6700
  609MOL0     H82175  11.024   1.277   3.986 -0.5063 -0.0513  0.2607
  609MOL0     H82176  11.150   1.176   4.183 -0.3113 -1.8498  1.6936
  609MOL0     H82177  11.223   0.933   4.581  0.9404 -2.5811  2.2447
  609MOL0     H82178  11.389   0.875   4.732 -2.4492  2.2831 -0.8076
  609MOL0     H82179  11.564   0.773   4.834 -0.9516  0.2955 -1.8785
  609MOL0     H82180  11.624   0.629   4.751 -0.7742 -0.5086 -0.1910
  609MOL0     H82181  11.852   0.712   4.809 -2.0125  0.0071 -1.8087
  609MOL0     H82182  11.774   0.863   4.860 -1.5689  0.9329  0.4377
  609MOL0     H82183  11.671   0.761   5.055  1.1109  0.0290 -0.3956
  609MOL0     H82184  11.747   0.602   5.009  0.0651  0.0503 -0.0690
  609MOL0     H82185  11.843   0.696   5.195  0.7742 -1.0457 -0.9503
  609MOL0     H82186  11.873   0.857   5.121 -2.2533  0.3148  3.9081
  609MOL0     H82187  12.040   0.752   4.984 -3.0804 -1.7027 -1.8376
  609MOL0     H82188  12.005   0.599   5.048 -0.0671  0.4238 -2.3396
  609MOL0     H82189  12.219   0.709   5.143 -1.1505 -0.8337 -1.1580
  609MOL0     H82190  12.113   0.831   5.222  0.2956 -0.0864  0.5648
  609MOL0     H82191  12.166   0.559   5.299  1.1974  1.5643  1.0560
  609MOL0     H82192  12.001   0.607   5.327 -0.0069 -0.6715 -1.5823
  609MOL0     H82193  12.168   0.663   5.522  0.4053 -2.5608 -1.5461
  609MOL0     H82194  12.235   0.777   5.417  2.8759 -3.4922  1.1353
  609MOL0     H82195  11.669   0.813   4.420 -0.6524 -3.4835  2.3267
  609MOL0     H82196  11.482   0.915   4.250  1.8693  3.9733  0.1429
  609MOL0     H82197  11.041   0.790   4.083 -0.5616  0.1669  0.6451
  609MOL0     H82198  10.918   0.871   3.876 -0.5809  1.4445 -0.2460
  609MOL0     H82199  11.213   1.809   2.761 -1.0578 -0.6721 -3.1581
  609MOL0     H82200  11.033   1.965   2.732  0.2983  1.8368  5.9580
  609MOL0     H82201  10.834   2.265   2.700  0.6387 -0.8169 -0.9999
  609MOL0     H82202  10.608   2.337   2.693  2.7757  1.2166  2.1264
  609MOL0     H82203  10.417   2.455   2.293  0.0032 -1.2328  0.3876
  609MOL0     H82204  10.484   2.587   2.375 -1.2139  0.4791 -0.9256
  609MOL0     H82205  10.263   2.649   2.401  0.5629  1.7371  3.3286
  609MOL0     H82206  10.285   2.566   2.545 -3.4533 -1.0762  0.4971
  609MOL0     H82207  10.136   2.433   2.324  3.2402 -1.6724 -0.5261
  609MOL0     H82208  10.071   2.502   2.464  0.9112  1.8282  1.0304
  609MOL0     H82209  10.286   2.283   2.465  0.0788  1.1710 -1.8560
  609MOL0     H82210  10.165   2.326   2.604 -1.8881  0.6376 -0.5601
  609MOL0     H82211   9.959   2.048   2.366 -0.8797 -0.9219  3.2120
  609MOL0     H82212  10.663   2.410   2.262  3.4045 -0.5872 -1.5556
  609MOL0     H82213  10.862   2.431   2.174  1.2344 -0.8656 -0.7718
  609MOL0     H82214  11.007   2.433   2.279  1.4376 -1.8015 -0.5366
  609MOL0     H82215  10.948   2.277   2.207  1.7487 -1.7228  3.2080
  610MOL0     O82216   9.052   9.008   3.242  0.5921 -0.0426 -1.2575
  610MOL0     C82217   9.113   9.081   3.315  0.7723 -0.7975  0.1845
  610MOL0     O82218   9.252   9.077   3.336 -0.1519  0.3504 -0.1937
  610MOL0     C82219   9.344   8.981   3.295  0.4497 -0.4693  0.4150
  610MOL0     C82220   9.321   8.879   3.205 -0.5167 -0.8607 -0.8964
  610MOL0     C82221   9.404   8.773   3.198  0.1827  0.5097 -0.4496
  610MOL0     C82222   9.523   8.769   3.276 -0.0740 -0.0679 -0.1547
  610MOL0     O82223   9.583   8.650   3.285 -0.6155 -0.5258  0.3691
  610MOL0     C82224   9.714   8.641   3.330  0.6434 -0.9443  1.1681
  610MOL0     C82225   9.797   8.565   3.226 -0.8252  0.9856  0.5146
  610MOL0     C82226   9.948   8.595   3.237  0.0849  0.8870  0.4122
  610MOL0     C82227  10.021   8.527   3.114  0.2140 -0.3992 -0.3951
  610MOL0     C82228  10.175   8.556   3.118 -0.1493  0.5367  0.6517
  610MOL0     C82229  10.238   8.500   2.983  0.2224 -0.5580 -0.4223
  610MOL0     C82230  10.377   8.572   2.952  1.7524  0.8948 -0.5980
  610MOL0     C82231  10.481   8.543   3.061  0.8354  0.5500  0.2156
  610MOL0     N82232  10.626   8.541   3.029  0.0797  0.5370 -0.0546
  610MOL0     C82233  10.705   8.652   3.000 -0.0828  0.0405  0.4235
  610MOL0     C82234  10.825   8.598   2.967 -1.4779  0.5965  1.2603
  610MOL0     C82235  10.944   8.688   2.916  0.8978  0.4054  0.2299
  610MOL0     C82236  10.915   8.729   2.764 -0.0659  0.2754 -0.5895
  610MOL0     C82237  11.027   8.803   2.712 -0.6013  0.3550 -0.6175
  610MOL0     C82238  11.029   8.948   2.752 -0.0698  0.4739  0.4176
  610MOL0     O82239  10.908   9.014   2.707 -0.2658  0.3705  0.4301
  610MOL0     C82240  10.913   9.144   2.672 -0.3507 -0.2566 -0.8916
  610MOL0     C82241  10.798   9.181   2.608  0.1425  0.1035  0.1377
  610MOL0     C82242  10.773   9.313   2.557 -0.6991  1.1448  0.0944
  610MOL0     C82243  10.868   9.412   2.585 -0.9331  0.4433  0.2481
  610MOL0     C82244  10.862   9.547   2.530  0.8856  0.0802  1.0533
  610MOL0     O82245  10.943   9.644   2.588 -0.3491 -0.3073  0.1377
  610MOL0     C82246  10.966   9.756   2.518  0.1062 -0.2133  0.5187
  610MOL0     C82247  10.985   9.767   2.376  0.0671 -0.0639  0.0335
  610MOL0     C82248  11.023   9.889   2.309  0.1146  0.3231 -0.8434
  610MOL0     C82249  11.055  10.006   2.380  0.3261 -0.6636 -0.3775
  610MOL0     O82250  11.096  10.111   2.305  0.1565  0.0565  0.3572
  610MOL0     C82251  11.136  10.229   2.376 -0.5837  0.3910  0.5160
  610MOL0     C82252  11.202  10.323   2.271  0.3204 -0.1004 -0.0314
  610MOL0     C82253  11.218  10.466   2.331 -0.4463  0.3033 -0.0252
  610MOL0     C82254  11.249  10.554   2.209  0.0198  0.0127  0.6111
  610MOL0     C82255  11.243  10.712   2.248 -0.1363  0.4902 -0.1588
  610MOL0     C82256  11.241  10.803   2.114  0.4614 -0.0575 -0.1697
  610MOL0     C82257  11.375  10.835   2.057  0.0488  0.0498 -0.4996
  610MOL0     C82258  11.473  10.898   2.162 -0.7477  0.8622  0.6556
  610MOL0    Cl82259  11.407  11.025   2.241 -0.0405 -0.1890 -0.2982
  610MOL0     C82260  11.058   9.992   2.522 -0.0259 -0.6412 -0.8139
  610MOL0     C82261  11.010   9.875   2.583  0.8412  0.0087 -0.2065
  610MOL0     O82262  10.763   9.570   2.465  0.0097 -0.1828  0.1677
  610MOL0     C82263  10.989   9.369   2.654  0.0331 -0.9462  0.7465
  610MOL0     C82264  11.009   9.237   2.701 -0.2480 -0.6159 -0.2826
  610MOL0     N82265  10.825   8.462   2.979 -0.0218  0.4213 -0.0901
  610MOL0     N82266  10.707   8.429   3.022 -0.1833  0.2082 -0.0145
  610MOL0     C82267   9.554   8.873   3.361 -0.0933 -0.1085 -0.3549
  610MOL0     C82268   9.462   8.979   3.375 -0.3848  0.1548 -0.2176
  610MOL0     C82269   9.030   9.181   3.390 -0.2777  0.3299 -0.2737
  610MOL0     C82270   8.902   9.217   3.333  0.4631 -0.5592 -0.4880
  610MOL0     C82271   8.828   9.312   3.398  0.3718 -0.0694  0.3344
  610MOL0     C82272   8.863   9.375   3.513 -0.1339 -0.2898  0.4066
  610MOL0     O82273   8.788   9.473   3.588  0.5274 -0.6832  0.9502
  610MOL0     C82274   8.662   9.531   3.550  0.3700  0.0131 -0.6392
  610MOL0     C82275   8.685   9.656   3.463 -0.7333 -0.2417 -0.6682
  610MOL0     C82276   8.556   9.733   3.436 -0.7007 -0.3111  0.0313
  610MOL0     C82277   8.554   9.880   3.380 -0.1364  0.4519  0.5528
  610MOL0     C82278   8.651   9.969   3.450 -0.9147 -0.2418  0.1572
  610MOL0     C82279   8.735  10.036   3.512  0.5487  0.6724 -0.6443
  610MOL0     C82280   8.988   9.341   3.561  0.6868  0.2437  0.3884
  610MOL0     C82281   9.073   9.246   3.507 -0.2673 -0.7696  0.0950
  610MOL0     C82282   9.213   9.227   3.575 -0.5914  0.0543  0.5871
  610MOL0     H82283   9.236   8.878   3.138  0.2095  0.3043 -1.8710
  610MOL0     H82284   9.382   8.694   3.126  3.3685  0.2931 -1.3313
  610MOL0     H82285   9.763   8.739   3.327  1.7237 -1.4985 -0.3887
  610MOL0     H82286   9.725   8.594   3.428 -1.1549 -3.7177  0.1695
  610MOL0     H82287   9.758   8.589   3.127  1.2114  4.5506  0.4147
  610MOL0     H82288   9.790   8.458   3.248 -0.0716  0.9815  0.7863
  610MOL0     H82289   9.986   8.554   3.331  0.0945 -2.3582 -0.8907
  610MOL0     H82290   9.968   8.703   3.232  2.0273  0.5618  0.2991
  610MOL0     H82291  10.007   8.419   3.105 -0.9380 -0.3851  0.8335
  610MOL0     H82292   9.981   8.580   3.027  2.5204  2.2813  0.0252
  610MOL0     H82293  10.205   8.661   3.124  0.7694  0.2546  1.2779
  610MOL0     H82294  10.221   8.507   3.205 -2.2086  1.7069  2.5095
  610MOL0     H82295  10.253   8.392   2.992  2.5255 -0.1021  3.2759
  610MOL0     H82296  10.165   8.520   2.904  1.8768  2.6619 -1.2841
  610MOL0     H82297  10.360   8.678   2.930 -1.0420  0.3637 -1.4304
  610MOL0     H82298  10.408   8.532   2.855 -2.2997  2.0178 -2.6052
  610MOL0     H82299  10.467   8.620   3.137 -1.1773 -1.0576  1.5771
  610MOL0     H82300  10.456   8.453   3.118  2.9391  2.3410  4.4373
  610MOL0     H82301  10.679   8.755   3.022 -2.3643  0.1815 -2.2868
  610MOL0     H82302  10.941   8.775   2.982 -4.2045  2.1125 -1.7351
  610MOL0     H82303  11.033   8.626   2.925 -0.4313 -1.6315  0.0682
  610MOL0     H82304  10.901   8.642   2.699 -2.8197 -1.0264  1.5076
  610MOL0     H82305  10.817   8.779   2.758 -1.6075 -2.0402  2.3231
  610MOL0     H82306  11.002   8.804   2.606 -1.1337  0.1355 -0.4995
  610MOL0     H82307  11.118   8.747   2.733 -2.3901 -3.6631 -2.3821
  610MOL0     H82308  11.120   8.995   2.713  0.5377 -0.9370  0.0765
  610MOL0     H82309  11.039   8.954   2.861  0.5611 -1.2409  0.4824
  610MOL0     H82310  10.718   9.112   2.585  0.7700 -0.3299 -0.8052
  610MOL0     H82311  10.686   9.337   2.498 -0.0231  3.6105 -0.0054
  610MOL0     H82312  10.985   9.678   2.315 -3.5559  0.1344 -0.4877
  610MOL0     H82313  11.035   9.883   2.202  4.0040 -3.5004 -0.4579
  610MOL0     H82314  11.047  10.270   2.425  0.4575  3.7078 -0.1000
  610MOL0     H82315  11.214  10.208   2.450  1.4462  1.2013 -1.2763
  610MOL0     H82316  11.301  10.287   2.240  0.0521  1.5218 -3.1010
  610MOL0     H82317  11.131  10.326   2.188  2.1393 -0.6633 -1.6793
  610MOL0     H82318  11.135  10.502   2.392 -0.8806  4.2764 -2.6004
  610MOL0     H82319  11.302  10.475   2.401 -0.9989  0.0392  0.6741
  610MOL0     H82320  11.189  10.529   2.121  0.6822  1.2016 -0.1904
  610MOL0     H82321  11.353  10.535   2.180 -0.7929 -3.7526 -0.3981
  610MOL0     H82322  11.322  10.741   2.318 -0.2021 -2.3858  1.2703
  610MOL0     H82323  11.148  10.731   2.298 -0.5976  0.2503 -0.9341
  610MOL0     H82324  11.185  10.743   2.041  0.6311 -0.3621 -0.0493
  610MOL0     H82325  11.191  10.899   2.131 -0.2676 -0.2939 -0.9421
  610MOL0     H82326  11.351  10.900   1.973 -3.2081  1.7244  1.5297
  610MOL0     H82327  11.407  10.739   2.014  0.1793  0.5359 -1.5075
  610MOL0     H82328  11.512  10.823   2.231 -0.1193  1.5409  1.0484
  610MOL0     H82329  11.557  10.945   2.111 -2.4169  1.9503 -1.2341
  610MOL0     H82330  11.087  10.068   2.594 -1.7017 -1.3529  0.6960
  610MOL0     H82331  11.005   9.869   2.691  3.6562 -3.1337 -0.1054
  610MOL0     H82332  11.066   9.444   2.669 -1.1213  0.3646  0.3862
  610MOL0     H82333  11.108   9.212   2.738  1.3988  3.7649 -1.1658
  610MOL0     H82334   9.646   8.871   3.419  1.3045 -6.1124 -2.0681
  610MOL0     H82335   9.486   9.058   3.446 -0.1354  1.9836 -2.2286
  610MOL0     H82336   8.862   9.172   3.242 -0.3130 -0.9066  0.0101
  610MOL0     H82337   8.737   9.338   3.344  2.2326  2.0776 -1.9725
  610MOL0     H82338   8.613   9.566   3.641 -0.9634 -0.3145 -1.2051
  610MOL0     H82339   8.590   9.461   3.507 -1.0956  1.1150 -0.0813
  610MOL0     H82340   8.729   9.639   3.364 -4.1219  0.9687 -2.5539
  610MOL0     H82341   8.751   9.716   3.527 -2.4302 -0.9808  1.9534
  610MOL0     H82342   8.496   9.725   3.527  0.7213 -0.4440  0.9766
  610MOL0     H82343   8.507   9.666   3.366  1.1266 -1.0382 -0.6056
  610MOL0     H82344   8.584   9.876   3.275 -0.3092 -0.5777  0.5227
  610MOL0     H82345   8.450   9.909   3.400 -1.1146 -3.3310  2.0497
  610MOL0     H82346   8.809  10.094   3.564 -0.0514  0.8427  0.0470
  610MOL0     H82347   9.019   9.397   3.649  1.5296 -0.3748  0.5080
  610MOL0     H82348   9.249   9.125   3.593 -0.3275  0.0575  0.1087
  610MOL0     H82349   9.287   9.276   3.511  1.8521 -0.3925  2.9096
  610MOL0     H82350   9.206   9.273   3.674 -2.3447  2.6790 -0.6291
  611MOL0     O82351   4.521   3.074   4.698 -0.1285 -0.4277  0.6057
  611MOL0     C82352   4.463   3.029   4.793 -0.4882 -0.0844 -0.6611
  611MOL0     O82353   4.493   3.071   4.922  0.4473  0.2778 -0.1150
  611MOL0     C82354   4.589   3.163   4.934 -0.0361  0.1363  0.8202
  611MOL0     C82355   4.710   3.118   4.988 -0.1612  0.8533  0.0026
  611MOL0     C82356   4.808   3.208   5.022  0.5018 -0.4307  0.2509
  611MOL0     C82357   4.793   3.346   4.987  0.1507 -1.0820 -0.7564
  611MOL0     O82358   4.894   3.427   5.020 -0.3412  0.2442 -0.0569
  611MOL0     C82359   4.878   3.563   5.050  0.4199  0.5064  0.0460
  611MOL0     C82360   5.010   3.604   5.106 -0.9694 -1.2666  0.0515
  611MOL0     C82361   5.027   3.559   5.240  0.4899 -0.6906 -0.3017
  611MOL0     C82362   5.138   3.649   5.296  0.0833 -0.2245 -0.8032
  611MOL0     C82363   5.185   3.607   5.441  1.0633 -0.7834 -0.0494
  611MOL0     C82364   5.298   3.520   5.429 -0.1247 -0.7283 -0.3578
  611MOL0     C82365   5.342   3.492   5.573  0.0356  0.5556 -1.0532
  611MOL0     C82366   5.429   3.602   5.638 -0.5196  0.0280 -0.0389
  611MOL0     N82367   5.460   3.575   5.781 -0.2287 -1.5627  0.7378
  611MOL0     C82368   5.385   3.621   5.890 -0.5098  0.4328  1.1738
  611MOL0     C82369   5.460   3.599   5.995  0.0536 -0.2033 -0.8987
  611MOL0     C82370   5.419   3.640   6.127  0.6351  0.1384 -0.1123
  611MOL0     C82371   5.437   3.789   6.153  0.4217 -0.1496 -0.2120
  611MOL0     C82372   5.582   3.844   6.144  1.1944  0.9643 -0.4208
  611MOL0     C82373   5.679   3.765   6.229 -0.2274 -0.5223  0.2361
  611MOL0     O82374   5.643   3.719   6.363  0.3445 -0.1786 -0.6805
  611MOL0     C82375   5.761   3.688   6.426  0.1010  0.0532  0.0305
  611MOL0     C82376   5.834   3.780   6.506 -0.0419 -0.9072  0.6428
  611MOL0     C82377   5.945   3.723   6.579  0.4699 -1.0148  0.1226
  611MOL0     C82378   5.983   3.591   6.571 -0.2153 -0.2914 -0.0572
  611MOL0     C82379   6.099   3.538   6.651 -0.1479 -0.0817  0.1445
  611MOL0     O82380   6.110   3.402   6.654  0.1613 -0.0853  0.3061
  611MOL0     C82381   6.200   3.335   6.723  0.7434  0.3513 -0.0774
  611MOL0     C82382   6.165   3.202   6.764 -0.2484 -0.0409  0.1195
  611MOL0     C82383   6.242   3.121   6.837 -0.5644  0.2200  0.0003
  611MOL0     C82384   6.365   3.164   6.881 -1.3239 -0.5711 -0.1894
  611MOL0     O82385   6.443   3.087   6.967 -0.1037  1.0759 -0.2442
  611MOL0     C82386   6.586   3.125   7.004  0.0364  0.6536  0.2432
  611MOL0     C82387   6.681   3.010   7.073  0.9123  0.6613  0.6721
  611MOL0     C82388   6.687   2.894   6.966 -0.1157 -0.8667 -0.0072
  611MOL0     C82389   6.765   2.766   7.018  0.5469 -0.5625  0.2407
  611MOL0     C82390   6.923   2.768   7.034 -0.6946 -0.0655 -0.6476
  611MOL0     C82391   6.972   2.624   7.061 -0.1200 -0.1564 -0.6110
  611MOL0     C82392   7.125   2.596   7.073  0.0336 -0.1009  0.5329
  611MOL0     C82393   7.169   2.456   7.120  0.7132 -0.6407 -0.4236
  611MOL0    Cl82394   7.350   2.453   7.183 -0.0658  0.1253  0.4011
  611MOL0     C82395   6.413   3.292   6.849  0.7421 -0.8094  0.2328
  611MOL0     C82396   6.327   3.375   6.772  0.1493 -0.3708  0.2928
  611MOL0     O82397   6.168   3.613   6.720  0.1897 -0.0492 -0.1734
  611MOL0     C82398   5.917   3.512   6.478  0.1686  0.1259  1.1796
  611MOL0     C82399   5.807   3.561   6.415 -0.2059 -0.2828  0.2912
  611MOL0     N82400   5.583   3.551   5.954 -0.6422  0.3881 -0.5459
  611MOL0     N82401   5.576   3.533   5.829 -0.7020  0.3156  0.3038
  611MOL0     C82402   4.682   3.381   4.921  0.6504  1.0601  0.3271
  611MOL0     C82403   4.572   3.298   4.908 -1.5527  0.3525  1.1532
  611MOL0     C82404   4.340   2.946   4.770 -0.3051 -0.0249 -0.3457
  611MOL0     C82405   4.240   2.944   4.867  0.9263  0.3496 -0.1424
  611MOL0     C82406   4.118   2.877   4.850  0.0706 -0.0297  0.0878
  611MOL0     C82407   4.085   2.808   4.737 -0.0426 -0.5140 -0.1718
  611MOL0     O82408   3.967   2.742   4.734 -0.0215 -0.1739 -0.1581
  611MOL0     C82409   3.958   2.643   4.625 -0.4021  0.6958  0.2346
  611MOL0     C82410   3.819   2.579   4.626 -0.5668 -0.0370  0.1345
  611MOL0     C82411   3.810   2.458   4.537  0.3702 -0.9585  0.2122
  611MOL0     C82412   3.838   2.478   4.382 -0.0246  1.1400  0.7646
  611MOL0     C82413   3.977   2.464   4.346  0.4731 -0.1948 -0.5929
  611MOL0     C82414   4.091   2.471   4.308  0.7835  0.0614 -1.1702
  611MOL0     C82415   4.190   2.806   4.637  1.0166  0.0844 -0.1229
  611MOL0     C82416   4.314   2.869   4.647 -0.7126  0.8356  0.2900
  611MOL0     C82417   4.424   2.850   4.540  0.4083 -0.0959  0.3211
  611MOL0     H82418   4.720   3.018   5.029  3.5391  1.5554  1.1850
  611MOL0     H82419   4.890   3.173   5.084  0.2918 -1.9335 -0.2756
  611MOL0     H82420   4.845   3.622   4.964 -2.2279 -1.1415 -0.1852
  611MOL0     H82421   4.802   3.573   5.128 -0.1521  0.6652 -0.5174
  611MOL0     H82422   5.009   3.713   5.099  0.9519 -1.3211 -3.0046
  611MOL0     H82423   5.090   3.574   5.038 -0.2196  2.2839 -0.8382
  611MOL0     H82424   5.047   3.452   5.237 -1.3740 -1.0690 -0.2687
  611MOL0     H82425   4.935   3.559   5.299  0.3738 -1.1374 -0.4835
  611MOL0     H82426   5.224   3.662   5.231  0.8588 -0.2162  0.2018
  611MOL0     H82427   5.093   3.747   5.317 -2.2536 -1.4670  0.4302
  611MOL0     H82428   5.208   3.695   5.501 -1.5379 -0.1207  0.0915
  611MOL0     H82429   5.100   3.550   5.482 -0.7627  1.1473 -0.9621
  611MOL0     H82430   5.267   3.428   5.380 -0.1372 -0.0632 -1.6190
  611MOL0     H82431   5.377   3.562   5.366 -0.3147 -0.4116 -0.3858
  611MOL0     H82432   5.411   3.408   5.560  1.3531  1.4330  0.0212
  611MOL0     H82433   5.260   3.472   5.644  3.7686 -0.2521  3.5567
  611MOL0     H82434   5.514   3.628   5.575 -1.0799  2.8439  0.2158
  611MOL0     H82435   5.369   3.694   5.634  1.5526  1.4181 -0.8458
  611MOL0     H82436   5.280   3.647   5.898 -0.9246 -1.4851  2.6556
  611MOL0     H82437   5.313   3.615   6.127  0.6799 -0.0677 -0.5448
  611MOL0     H82438   5.468   3.582   6.206 -0.0086  3.7713  3.2636
  611MOL0     H82439   5.376   3.841   6.079  1.1176  0.6055 -0.2686
  611MOL0     H82440   5.397   3.805   6.253 -0.8293 -1.6047 -0.4440
  611MOL0     H82441   5.583   3.945   6.186 -2.5872  0.9469  0.0176
  611MOL0     H82442   5.623   3.852   6.042 -0.9713  2.0280 -1.2718
  611MOL0     H82443   5.774   3.817   6.212 -2.4146  2.9405 -2.7307
  611MOL0     H82444   5.701   3.673   6.174 -2.5356 -0.6754 -0.5215
  611MOL0     H82445   5.783   3.875   6.517 -1.2723 -1.3643 -0.6474
  611MOL0     H82446   6.003   3.784   6.647  2.1200 -2.2775 -0.0830
  611MOL0     H82447   6.066   3.175   6.727  0.5718 -1.3259 -1.2384
  611MOL0     H82448   6.208   3.024   6.872 -3.0195  1.8633  2.6255
  611MOL0     H82449   6.646   3.151   6.916 -1.0274 -1.9505 -1.3678
  611MOL0     H82450   6.588   3.205   7.078  3.1577 -0.3014  1.3353
  611MOL0     H82451   6.777   3.053   7.103  2.0532  0.5659 -2.4430
  611MOL0     H82452   6.623   2.991   7.164 -0.4520  1.0774 -0.0753
  611MOL0     H82453   6.583   2.868   6.948 -0.9071  1.7958  0.3165
  611MOL0     H82454   6.731   2.923   6.871 -1.6991  0.5634 -0.3502
  611MOL0     H82455   6.747   2.696   6.937  1.8372 -1.6447  0.8550
  611MOL0     H82456   6.714   2.735   7.110 -1.1002 -1.6439 -0.9721
  611MOL0     H82457   6.963   2.836   7.109 -0.8552 -1.5108  0.8222
  611MOL0     H82458   6.959   2.807   6.939  0.8141 -0.9883 -0.4941
  611MOL0     H82459   6.916   2.583   7.146 -2.9787  1.0678 -1.7602
  611MOL0     H82460   6.934   2.555   6.986 -2.3201 -1.4089  1.4959
  611MOL0     H82461   7.162   2.670   7.145 -0.1602  3.5182 -2.7956
  611MOL0     H82462   7.174   2.618   6.978 -0.2996 -1.6558 -0.0336
  611MOL0     H82463   7.102   2.424   7.200  0.5140  1.7788  0.4460
  611MOL0     H82464   7.171   2.383   7.038  1.8109 -1.8832  0.6690
  611MOL0     H82465   6.508   3.322   6.893  3.4500 -2.7897 -3.6582
  611MOL0     H82466   6.346   3.480   6.753 -3.9943  0.5771  0.3448
  611MOL0     H82467   5.965   3.418   6.456 -0.5511  0.3422 -1.6343
  611MOL0     H82468   5.761   3.500   6.338  0.2979  0.1703 -0.3889
  611MOL0     H82469   4.651   3.483   4.900 -0.4396  0.7820  0.5402
  611MOL0     H82470   4.478   3.333   4.867 -0.5206  1.1931 -0.6232
  611MOL0     H82471   4.261   2.999   4.958  0.7903  1.4728 -0.7632
  611MOL0     H82472   4.049   2.868   4.934 -1.5223 -5.0925 -1.4197
  611MOL0     H82473   4.033   2.564   4.638 -2.2440 -1.0492  0.7981
  611MOL0     H82474   3.974   2.687   4.526 -2.6689  0.1032 -0.4529
  611MOL0     H82475   3.738   2.648   4.598 -1.1058  1.0096  3.7923
  611MOL0     H82476   3.806   2.558   4.732 -1.1258  1.0872  0.3017
  611MOL0     H82477   3.708   2.420   4.550 -0.8778  2.1764  0.4072
  611MOL0     H82478   3.876   2.381   4.578  0.3391 -1.6683 -1.0327
  611MOL0     H82479   3.776   2.402   4.335 -1.6888  1.6555  2.0500
  611MOL0     H82480   3.791   2.567   4.341  0.2481  0.8623 -0.1779
  611MOL0     H82481   4.197   2.477   4.298  1.3658  0.4010  3.2697
  611MOL0     H82482   4.167   2.744   4.552  1.6914 -0.0620 -0.2036
  611MOL0     H82483   4.419   2.759   4.479 -1.1224  0.8685 -1.0920
  611MOL0     H82484   4.428   2.938   4.474  0.5676  0.7541  1.4467
  611MOL0     H82485   4.516   2.849   4.599  1.8701  1.7896 -1.7301
  612MOL0     O82486   8.265   5.225   3.486  0.6418 -0.1859 -0.5387
  612MOL0     C82487   8.205   5.304   3.412  0.0440  0.1687 -0.2259
  612MOL0     O82488   8.080   5.284   3.361  0.4262 -0.4806  0.0592
  612MOL0     C82489   8.036   5.154   3.349  0.1249 -0.1032  0.6595
  612MOL0     C82490   7.900   5.132   3.392  0.0645  0.1831 -0.2235
  612MOL0     C82491   7.852   4.999   3.400 -0.7039 -0.3507  0.4505
  612MOL0     C82492   7.916   4.896   3.329 -0.8699 -1.0038 -0.0433
  612MOL0     O82493   7.859   4.775   3.350  0.5167  1.0009 -0.2736
  612MOL0     C82494   7.869   4.694   3.227 -0.3164 -0.7200  0.0051
  612MOL0     C82495   7.790   4.570   3.234  0.2112 -1.2427  0.8223
  612MOL0     C82496   7.838   4.478   3.345 -0.0896  0.4954 -0.1570
  612MOL0     C82497   7.743   4.362   3.338  0.0788 -0.4855  0.0114
  612MOL0     C82498   7.751   4.262   3.456  0.3555  0.3780 -0.1059
  612MOL0     C82499   7.878   4.181   3.451 -0.8241  0.2238  0.3558
  612MOL0     C82500   7.906   4.112   3.587 -1.0977 -0.1724 -0.0459
  612MOL0     C82501   8.051   4.061   3.581  0.3346 -0.1103  0.6200
  612MOL0     N82502   8.060   3.962   3.474  0.0769  0.4833  1.0643
  612MOL0     C82503   8.101   3.991   3.346 -0.4232 -0.4040 -0.3789
  612MOL0     C82504   8.123   3.869   3.287  0.1140 -0.4157 -0.3724
  612MOL0     C82505   8.205   3.843   3.155 -0.1911 -0.7508  0.4747
  612MOL0     C82506   8.120   3.853   3.030 -0.4089  0.2809 -0.1315
  612MOL0     C82507   8.217   3.816   2.916 -0.2800  0.6457  1.0151
  612MOL0     C82508   8.140   3.851   2.783  0.7286  0.2198  0.4846
  612MOL0     O82509   8.237   3.834   2.674 -0.0443 -0.0280  0.0905
  612MOL0     C82510   8.179   3.795   2.552 -0.2198 -0.9247  0.5805
  612MOL0     C82511   8.092   3.885   2.480  0.2055  0.3142 -0.6875
  612MOL0     C82512   8.025   3.846   2.373 -0.1838  0.3564  1.5784
  612MOL0     C82513   8.043   3.716   2.314  0.8736 -0.4451  0.8128
  612MOL0     C82514   7.968   3.690   2.187  1.2470 -0.0227  0.5346
  612MOL0     O82515   8.000   3.571   2.135 -0.4053  0.0273 -1.1369
  612MOL0     C82516   7.934   3.512   2.031  0.1708  0.0339  1.5909
  612MOL0     C82517   8.004   3.467   1.917  0.3657 -0.3488 -0.8546
  612MOL0     C82518   7.939   3.436   1.798  0.2824  0.6456 -0.4323
  612MOL0     C82519   7.801   3.441   1.786 -0.1195 -0.2250 -0.1822
  612MOL0     O82520   7.751   3.395   1.674 -0.2691  0.4931 -0.2577
  612MOL0     C82521   7.621   3.325   1.673 -0.0532 -0.4820 -0.0802
  612MOL0     C82522   7.615   3.226   1.561 -0.4644 -0.6118 -0.7854
  612MOL0     C82523   7.500   3.131   1.593 -0.2523  0.2992 -0.0577
  612MOL0     C82524   7.551   3.010   1.669  0.0422  0.2242  0.1016
  612MOL0     C82525   7.431   2.910   1.667 -0.1411  0.6428  0.1313
  612MOL0     C82526   7.323   2.932   1.763  0.2418  0.3119  0.4801
  612MOL0     C82527   7.214   2.825   1.731  0.9200 -0.4280  0.3816
  612MOL0     C82528   7.085   2.859   1.822  0.1019  0.2069  0.5183
  612MOL0    Cl82529   6.964   2.718   1.810 -0.7061 -0.1706 -0.0602
  612MOL0     C82530   7.729   3.476   1.904 -0.4471 -1.3114 -0.1701
  612MOL0     C82531   7.794   3.522   2.018 -0.2500 -0.1908  0.1315
  612MOL0     O82532   7.892   3.777   2.139  0.8169 -0.3548  0.0105
  612MOL0     C82533   8.127   3.627   2.380  0.0200  0.3953  0.7712
  612MOL0     C82534   8.189   3.662   2.500  0.3676 -0.0678  0.4828
  612MOL0     N82535   8.076   3.772   3.378  0.0973 -0.6214  0.1266
  612MOL0     N82536   8.027   3.827   3.487 -0.3993  0.0498  0.4484
  612MOL0     C82537   8.053   4.918   3.279  0.7141  0.4521  0.5500
  612MOL0     C82538   8.104   5.047   3.286 -0.3190 -0.8132 -0.1910
  612MOL0     C82539   8.258   5.436   3.376  0.3338 -0.1993 -0.7647
  612MOL0     C82540   8.165   5.536   3.330 -0.1999 -0.5943 -0.1937
  612MOL0     C82541   8.217   5.667   3.313  0.0993  0.1196  0.0213
  612MOL0     C82542   8.353   5.699   3.341  0.0930  0.9146  0.4413
  612MOL0     O82543   8.384   5.834   3.343 -0.0911 -0.0136 -0.1607
  612MOL0     C82544   8.514   5.877   3.332 -0.6365  0.2455 -0.5085
  612MOL0     C82545   8.525   6.032   3.309 -0.5113  0.2006 -0.5304
  612MOL0     C82546   8.437   6.100   3.416 -0.9435 -0.4050  0.3298
  612MOL0     C82547   8.455   6.249   3.427  0.1751  0.4640 -0.0018
  612MOL0     C82548   8.571   6.305   3.479 -0.3933 -0.2877  0.3741
  612MOL0     C82549   8.662   6.351   3.543 -0.9128  0.7480 -0.8061
  612MOL0     C82550   8.443   5.598   3.374 -0.3238  0.4355 -0.0232
  612MOL0     C82551   8.394   5.470   3.388  0.2336  0.6244  0.8014
  612MOL0     C82552   8.495   5.361   3.405 -0.1053  0.8452  0.0040
  612MOL0     H82553   7.838   5.217   3.420 -0.4671 -0.8962  2.1431
  612MOL0     H82554   7.746   4.988   3.421 -1.8981  2.2782 -3.2416
  612MOL0     H82555   7.835   4.750   3.139 -0.7195  0.3180  0.7962
  612MOL0     H82556   7.975   4.669   3.228  0.4889  2.0460 -2.2474
  612MOL0     H82557   7.802   4.520   3.138  1.6793 -2.9310  1.8116
  612MOL0     H82558   7.683   4.589   3.245 -0.5840 -4.3895 -0.3139
  612MOL0     H82559   7.841   4.522   3.445 -1.7900  1.1596 -0.3712
  612MOL0     H82560   7.937   4.441   3.318 -0.6647 -0.1662 -1.4646
  612MOL0     H82561   7.637   4.390   3.330  0.2475  0.1776  0.0519
  612MOL0     H82562   7.755   4.313   3.241  1.1920  0.7663 -0.5230
  612MOL0     H82563   7.743   4.331   3.540 -0.5575  1.1252 -0.7860
  612MOL0     H82564   7.663   4.199   3.471  0.2799  1.2157  4.0861
  612MOL0     H82565   7.868   4.097   3.381 -1.4682  1.4586 -1.0919
  612MOL0     H82566   7.965   4.240   3.424 -2.3387  1.0768 -3.3279
  612MOL0     H82567   7.838   4.030   3.611 -0.5920 -0.3503  0.8526
  612MOL0     H82568   7.900   4.180   3.672 -1.2251 -3.0780  2.4601
  612MOL0     H82569   8.120   4.146   3.577  1.3267 -0.9406 -0.3443
  612MOL0     H82570   8.074   4.023   3.681  1.7703 -0.3052  0.2325
  612MOL0     H82571   8.119   4.087   3.299 -1.2972 -0.0724 -0.0470
  612MOL0     H82572   8.286   3.916   3.150 -0.5108 -0.4053  0.2572
  612MOL0     H82573   8.248   3.743   3.157  1.1666 -0.1842  2.5794
  612MOL0     H82574   8.039   3.781   3.031  0.3415 -0.5943 -0.7469
  612MOL0     H82575   8.078   3.953   3.018  2.6381  1.9712  1.9087
  612MOL0     H82576   8.230   3.708   2.920 -0.6851  0.5990  1.1213
  612MOL0     H82577   8.312   3.871   2.919 -0.3606  1.3612 -3.3412
  612MOL0     H82578   8.099   3.952   2.788  0.8516  0.3268 -0.4613
  612MOL0     H82579   8.044   3.799   2.776  1.8047 -1.8946  0.6313
  612MOL0     H82580   8.095   3.992   2.499  2.0964  0.8487 -3.3775
  612MOL0     H82581   7.953   3.916   2.331 -0.9289 -0.0356  2.1874
  612MOL0     H82582   8.111   3.454   1.929  0.3174  0.6571  1.0205
  612MOL0     H82583   8.008   3.417   1.716  2.1103 -0.1149  1.1921
  612MOL0     H82584   7.622   3.269   1.766 -0.0687  2.3734  1.7499
  612MOL0     H82585   7.531   3.388   1.672  0.0517 -0.1797  2.5477
  612MOL0     H82586   7.596   3.280   1.468  0.1783  0.6109 -0.2364
  612MOL0     H82587   7.710   3.174   1.548 -0.6008 -1.0748  0.0431
  612MOL0     H82588   7.414   3.178   1.642  1.8581  2.7163  1.6156
  612MOL0     H82589   7.463   3.104   1.493 -2.9419 -0.6344  1.1075
  612MOL0     H82590   7.579   3.028   1.773 -2.9901  0.7750  0.9069
  612MOL0     H82591   7.633   2.968   1.611 -0.7430  0.5579 -1.2910
  612MOL0     H82592   7.478   2.818   1.703 -2.3057 -0.6483 -0.1551
  612MOL0     H82593   7.379   2.887   1.574 -5.1488 -1.4081  3.0436
  612MOL0     H82594   7.355   2.928   1.868  1.0425 -0.8834  0.2125
  612MOL0     H82595   7.290   3.036   1.752 -0.6760  0.0389  0.5807
  612MOL0     H82596   7.241   2.729   1.775  0.2428 -0.4807  0.6909
  612MOL0     H82597   7.195   2.800   1.626  3.8894 -4.5700  0.5667
  612MOL0     H82598   7.116   2.856   1.927  0.9330  1.5036  0.3293
  612MOL0     H82599   7.048   2.957   1.789  1.1626  1.2897  2.4063
  612MOL0     H82600   7.623   3.481   1.884 -0.4590 -1.3379 -0.1119
  612MOL0     H82601   7.726   3.545   2.100 -1.3247 -3.4408  0.3272
  612MOL0     H82602   8.133   3.526   2.340  2.2284  0.9786 -0.5340
  612MOL0     H82603   8.241   3.584   2.555  1.6474  0.2271 -0.2649
  612MOL0     H82604   8.121   4.848   3.232  0.9990  1.2974 -0.3230
  612MOL0     H82605   8.207   5.068   3.255 -0.8644  3.5248  0.2746
  612MOL0     H82606   8.059   5.516   3.321  0.2017 -1.7729 -3.1879
  612MOL0     H82607   8.150   5.746   3.280 -1.1724 -0.4989  1.0372
  612MOL0     H82608   8.552   5.827   3.243 -3.4104 -0.9649 -1.1184
  612MOL0     H82609   8.569   5.849   3.422  1.6411  2.0421 -1.2363
  612MOL0     H82610   8.487   6.065   3.211 -3.2372 -0.3524  0.2659
  612MOL0     H82611   8.631   6.059   3.316 -0.5785  0.6017 -0.9734
  612MOL0     H82612   8.454   6.054   3.514  2.9018  0.1950  0.0917
  612MOL0     H82613   8.335   6.078   3.384 -1.3674 -1.4564  2.2352
  612MOL0     H82614   8.436   6.282   3.324 -0.9408 -2.8698 -1.0027
  612MOL0     H82615   8.381   6.274   3.503 -0.4849 -1.5629  0.0866
  612MOL0     H82616   8.732   6.393   3.612 -1.8771 -1.0847  1.3980
  612MOL0     H82617   8.549   5.619   3.390 -0.2612  0.5335 -0.5696
  612MOL0     H82618   8.485   5.282   3.329  0.5465 -1.9548  2.6321
  612MOL0     H82619   8.599   5.394   3.404  0.0547  0.3448 -0.8009
  612MOL0     H82620   8.490   5.317   3.505  0.2588 -0.4200 -0.5125
  613MOL0     O82621   6.193   4.415   6.617 -0.9593  0.1400 -0.1581
  613MOL0     C82622   6.285   4.368   6.691 -0.2751  0.0317  0.0594
  613MOL0     O82623   6.402   4.436   6.719  0.0385 -0.6211  0.0405
  613MOL0     C82624   6.431   4.554   6.663 -0.5919 -0.4876  0.2842
  613MOL0     C82625   6.444   4.564   6.522 -0.1705  0.8682 -0.7052
  613MOL0     C82626   6.485   4.686   6.464 -0.9481  0.0492 -0.3232
  613MOL0     C82627   6.504   4.806   6.543  0.4601  0.4733 -0.2588
  613MOL0     O82628   6.546   4.926   6.487  0.6414  0.6527  0.6870
  613MOL0     C82629   6.526   5.060   6.542  0.5420  0.5347 -0.2645
  613MOL0     C82630   6.544   5.171   6.438  0.9301 -0.4688 -0.3380
  613MOL0     C82631   6.431   5.187   6.334 -0.0240 -0.2630 -0.6487
  613MOL0     C82632   6.476   5.280   6.220 -0.0166 -0.3621 -0.4758
  613MOL0     C82633   6.366   5.372   6.173 -0.1200  0.0472 -0.3617
  613MOL0     C82634   6.354   5.506   6.247  0.4311 -0.3424 -0.0592
  613MOL0     C82635   6.237   5.597   6.217 -0.4711 -0.1963 -0.9162
  613MOL0     C82636   6.260   5.741   6.250 -0.4015 -0.4483 -0.9534
  613MOL0     N82637   6.351   5.808   6.157 -0.2070 -0.3725 -0.0433
  613MOL0     C82638   6.475   5.854   6.171 -1.8417 -0.4041  0.5058
  613MOL0     C82639   6.505   5.913   6.046 -0.4207  0.6535 -0.0391
  613MOL0     C82640   6.626   5.975   5.979  0.3470 -0.7445  0.3445
  613MOL0     C82641   6.593   6.092   5.886  0.6617 -0.5612  0.2764
  613MOL0     C82642   6.628   6.051   5.743 -0.3573 -0.3060  0.6177
  613MOL0     C82643   6.651   6.177   5.657  0.2175  0.0995  1.0169
  613MOL0     O82644   6.569   6.288   5.703 -0.2667  0.4077  0.1166
  613MOL0     C82645   6.572   6.393   5.622  0.0436 -0.4151  0.1128
  613MOL0     C82646   6.486   6.492   5.669 -0.3918  1.0764  0.5205
  613MOL0     C82647   6.479   6.608   5.606 -0.0258 -0.4225  0.0599
  613MOL0     C82648   6.553   6.639   5.486  0.2875  0.4526 -1.2013
  613MOL0     C82649   6.551   6.779   5.437  0.5688  1.4359  0.4587
  613MOL0     O82650   6.447   6.852   5.465  0.6108 -0.0006 -0.3883
  613MOL0     C82651   6.416   6.953   5.374 -0.5972 -0.9497 -1.1896
  613MOL0     C82652   6.478   7.085   5.393 -0.7134 -0.6109  1.1439
  613MOL0     C82653   6.455   7.184   5.303  0.5354 -0.6059  0.8021
  613MOL0     C82654   6.369   7.169   5.194 -0.5330  0.0936 -0.5886
  613MOL0     O82655   6.362   7.276   5.109  0.1315  0.9198  0.3573
  613MOL0     C82656   6.253   7.286   5.012 -0.8126  0.4366 -0.1667
  613MOL0     C82657   6.298   7.372   4.898 -0.1979 -0.4256 -1.1653
  613MOL0     C82658   6.188   7.396   4.799  0.2945  1.0009  0.1777
  613MOL0     C82659   6.247   7.494   4.686  0.1888  0.8986 -0.6855
  613MOL0     C82660   6.265   7.631   4.739  0.0227  0.0748  0.0457
  613MOL0     C82661   6.326   7.722   4.627 -0.3275 -0.1193 -0.9203
  613MOL0     C82662   6.265   7.732   4.490 -0.2182 -0.6654 -0.3745
  613MOL0     C82663   6.371   7.791   4.395  0.2890 -0.3245 -0.3303
  613MOL0    Cl82664   6.503   7.675   4.361 -0.3751  0.0160  0.4215
  613MOL0     C82665   6.304   7.049   5.181  0.4622  1.0501 -0.8660
  613MOL0     C82666   6.326   6.946   5.271 -1.0768  0.5806 -0.3966
  613MOL0     O82667   6.647   6.806   5.356  0.3979  0.5248  0.2113
  613MOL0     C82668   6.635   6.540   5.435 -1.4364  0.5644 -0.7577
  613MOL0     C82669   6.651   6.426   5.508 -0.2578  0.0028 -0.3532
  613MOL0     N82670   6.393   5.903   5.972 -0.0683 -1.0716  0.2521
  613MOL0     N82671   6.303   5.849   6.039 -0.1047 -0.1074 -0.5315
  613MOL0     C82672   6.501   4.792   6.683 -0.0700  0.0094  0.7686
  613MOL0     C82673   6.469   4.668   6.741  0.1714  0.4227  0.1569
  613MOL0     C82674   6.264   4.244   6.772  0.5064 -0.1180  0.2173
  613MOL0     C82675   6.342   4.224   6.883  1.2375  0.0341  0.3585
  613MOL0     C82676   6.338   4.112   6.978 -0.5194 -0.7024  0.1936
  613MOL0     C82677   6.254   4.009   6.949  0.0050  1.0756 -0.3016
  613MOL0     O82678   6.250   3.903   7.039  0.6718 -0.2239 -0.2617
  613MOL0     C82679   6.161   3.803   7.005  0.0515 -0.6855 -0.7976
  613MOL0     C82680   6.153   3.700   7.124 -0.3588  0.2096 -0.9375
  613MOL0     C82681   6.247   3.585   7.094 -0.0211 -0.0602  0.4379
  613MOL0     C82682   6.393   3.602   7.121  0.0308 -0.1074  0.5846
  613MOL0     C82683   6.443   3.619   7.261  0.3558 -0.6697  0.2353
  613MOL0     C82684   6.493   3.614   7.371  0.7134  0.8630 -0.0055
  613MOL0     C82685   6.180   4.021   6.834  1.1401  0.2767  0.9932
  613MOL0     C82686   6.177   4.138   6.748 -0.4266 -0.0478 -0.4532
  613MOL0     C82687   6.076   4.142   6.633 -0.9119  0.1648 -0.0121
  613MOL0     H82688   6.418   4.478   6.461  0.3682 -1.5587  2.1707
  613MOL0     H82689   6.486   4.675   6.356  0.3339  1.8165 -0.5377
  613MOL0     H82690   6.425   5.064   6.582  0.4155  2.3517 -0.6681
  613MOL0     H82691   6.584   5.092   6.629  0.9836  2.1506 -1.1135
  613MOL0     H82692   6.632   5.142   6.380  0.2200  0.0965 -1.7724
  613MOL0     H82693   6.571   5.270   6.475 -2.5598  0.7005 -0.5254
  613MOL0     H82694   6.349   5.239   6.385 -0.0781 -0.9598 -0.0040
  613MOL0     H82695   6.399   5.092   6.291 -1.3915  0.0808 -0.4452
  613MOL0     H82696   6.558   5.350   6.239  2.1008 -2.1233 -2.5027
  613MOL0     H82697   6.505   5.213   6.138  0.3557 -2.4794  1.3039
  613MOL0     H82698   6.400   5.405   6.074 -0.4672 -0.4990 -0.6689
  613MOL0     H82699   6.277   5.307   6.167  2.0578 -3.3725  1.1303
  613MOL0     H82700   6.364   5.483   6.353  4.2776  1.1772  0.0384
  613MOL0     H82701   6.448   5.561   6.236  0.9935 -1.2570  0.0602
  613MOL0     H82702   6.158   5.556   6.280 -0.8297  3.2163  1.0987
  613MOL0     H82703   6.211   5.596   6.111 -0.4269 -1.1983 -0.9301
  613MOL0     H82704   6.165   5.794   6.261  1.2157  2.2070  1.8515
  613MOL0     H82705   6.320   5.742   6.341 -1.7050  1.7892 -0.0229
  613MOL0     H82706   6.545   5.841   6.253 -2.8470 -3.2034  1.0227
  613MOL0     H82707   6.690   6.020   6.055 -0.0490 -0.0069  0.2474
  613MOL0     H82708   6.673   5.890   5.929  1.9875  0.6800 -0.6697
  613MOL0     H82709   6.492   6.133   5.900  0.5598 -1.2591  1.7359
  613MOL0     H82710   6.671   6.161   5.920 -0.1491  0.8315 -0.5910
  613MOL0     H82711   6.543   5.993   5.707  0.0587 -1.5657  1.6115
  613MOL0     H82712   6.719   5.991   5.748  0.1648  0.5758  3.2751
  613MOL0     H82713   6.620   6.154   5.555  0.1321  0.3580  0.9862
  613MOL0     H82714   6.755   6.212   5.659  0.1487  0.3000  1.1161
  613MOL0     H82715   6.417   6.474   5.750  0.4588  0.2907  1.0894
  613MOL0     H82716   6.417   6.689   5.643  3.0360  1.1897  2.0580
  613MOL0     H82717   6.550   7.105   5.472  0.8460  1.2921 -0.6458
  613MOL0     H82718   6.492   7.283   5.327 -1.6704  0.8069 -1.2651
  613MOL0     H82719   6.214   7.197   4.963 -2.7580  2.0634 -1.7204
  613MOL0     H82720   6.166   7.332   5.058 -0.2440  1.5344 -0.1559
  613MOL0     H82721   6.346   7.460   4.941 -0.5761  0.1636 -1.9278
  613MOL0     H82722   6.376   7.318   4.844 -0.6601 -2.1626 -0.1790
  613MOL0     H82723   6.163   7.299   4.756 -0.3204 -0.5800  3.8209
  613MOL0     H82724   6.098   7.438   4.845  0.7216  0.1678  1.8079
  613MOL0     H82725   6.176   7.505   4.603  2.2285  1.6984 -2.3930
  613MOL0     H82726   6.341   7.456   4.647  0.2817  0.7487 -0.3187
  613MOL0     H82727   6.324   7.640   4.831  0.4869 -3.9400  0.2876
  613MOL0     H82728   6.165   7.670   4.762  0.0805 -0.3173  0.9962
  613MOL0     H82729   6.340   7.821   4.672  1.9713 -0.6868 -0.2736
  613MOL0     H82730   6.430   7.694   4.609  0.6088  1.6975  1.1669
  613MOL0     H82731   6.171   7.787   4.494  0.3916  0.3315  2.2722
  613MOL0     H82732   6.220   7.640   4.451  0.0394  0.0758 -2.5389
  613MOL0     H82733   6.320   7.798   4.298  2.8865 -2.5053 -2.0237
  613MOL0     H82734   6.418   7.881   4.434 -0.4113  1.0402 -2.4421
  613MOL0     H82735   6.218   7.029   5.116 -1.6972 -1.6510  2.4632
  613MOL0     H82736   6.266   6.856   5.278 -0.6884  0.2640 -1.0881
  613MOL0     H82737   6.694   6.575   5.351 -1.1175  2.3708  0.1509
  613MOL0     H82738   6.734   6.364   5.475  1.0582  0.0534  2.5758
  613MOL0     H82739   6.519   4.876   6.748 -0.9531 -1.9957  3.8325
  613MOL0     H82740   6.470   4.650   6.848  1.2608  2.2105  0.4932
  613MOL0     H82741   6.411   4.304   6.907 -1.3663  2.2485  0.9762
  613MOL0     H82742   6.392   4.109   7.072 -1.2103  0.2111  0.6242
  613MOL0     H82743   6.181   3.748   6.913 -1.8619 -0.5513 -1.3260
  613MOL0     H82744   6.059   3.838   6.989  0.6797  0.4889 -2.5065
  613MOL0     H82745   6.050   3.663   7.131  0.4053 -1.7157  2.9406
  613MOL0     H82746   6.194   3.748   7.213  1.3697  1.1014 -2.1501
  613MOL0     H82747   6.228   3.569   6.987 -0.1284 -2.0508  0.7246
  613MOL0     H82748   6.214   3.491   7.138 -3.5428  0.1398 -1.4453
  613MOL0     H82749   6.440   3.509   7.088 -0.5938 -1.4612  3.2149
  613MOL0     H82750   6.427   3.684   7.059 -1.0224 -1.6585 -2.2136
  613MOL0     H82751   6.527   3.593   7.470 -1.3498 -2.9293  0.0681
  613MOL0     H82752   6.111   3.940   6.813  0.6724  0.0907  3.0482
  613MOL0     H82753   6.038   4.042   6.612 -2.4552 -0.3268  4.1213
  613MOL0     H82754   6.004   4.219   6.662  0.7387  1.3717  1.1056
  613MOL0     H82755   6.134   4.172   6.545  0.8594 -0.3183  0.9271
  614MOL0     O82756   5.872   0.858  10.662 -0.3358 -0.0513  0.2676
  614MOL0     C82757   5.918   0.755  10.710  0.6344 -1.2561  0.4336
  614MOL0     O82758   5.850   0.642  10.734 -0.5335 -0.6240  0.1767
  614MOL0     C82759   5.714   0.663  10.723  0.3986 -0.2302  0.2241
  614MOL0     C82760   5.650   0.664  10.849  0.6393  0.5960 -0.8938
  614MOL0     C82761   5.511   0.690  10.861  0.6878  1.2765 -0.1071
  614MOL0     C82762   5.438   0.713  10.751  0.0278 -0.5599  0.0874
  614MOL0     O82763   5.304   0.749  10.749  0.7307  0.3727  0.4857
  614MOL0     C82764   5.239   0.821  10.860 -0.2040 -0.1605 -0.5930
  614MOL0     C82765   5.279   0.967  10.842  0.0891 -0.5870  0.1765
  614MOL0     C82766   5.204   1.053  10.937  0.4023  1.5991  0.7418
  614MOL0     C82767   5.235   1.193  10.922 -0.3870  1.1849 -0.2164
  614MOL0     C82768   5.149   1.278  11.025 -0.2572  0.1137 -0.6374
  614MOL0     C82769   5.185   1.422  11.038 -0.7865  0.6479  1.5255
  614MOL0     C82770   5.322   1.452  11.094 -0.1048 -0.1883 -0.1506
  614MOL0     C82771   5.363   1.596  11.129 -0.1269 -0.3669  0.7855
  614MOL0     N82772   5.457   1.615  11.243  1.2583  0.8197 -0.1673
  614MOL0     C82773   5.416   1.642  11.372 -0.0689 -0.4499  0.0981
  614MOL0     C82774   5.522   1.615  11.446 -0.4871 -0.3848  0.5537
  614MOL0     C82775   5.541   1.652  11.587  0.6141  0.3110  0.8497
  614MOL0     C82776   5.586   1.530  11.674 -0.0822  0.2087 -0.4398
  614MOL0     C82777   5.569   1.563  11.828 -0.1914 -0.4597 -0.2395
  614MOL0     C82778   5.622   1.453  11.912  0.2944 -0.7037 -0.3565
  614MOL0     O82779   5.542   1.334  11.909 -0.8829 -0.0518  0.1602
  614MOL0     C82780   5.455   1.314  12.016 -0.2642 -0.4531  0.1663
  614MOL0     C82781   5.503   1.286  12.146 -0.4237 -0.6313  0.1526
  614MOL0     C82782   5.409   1.263  12.244 -0.2919 -0.1503 -0.2691
  614MOL0     C82783   5.269   1.259  12.217  0.3245 -0.1013 -0.6031
  614MOL0     C82784   5.162   1.246  12.325 -0.6686  0.2843  0.5173
  614MOL0     O82785   5.211   1.222  12.450 -0.5838 -0.7392  0.3267
  614MOL0     C82786   5.133   1.206  12.558  0.0460 -0.3179  0.2820
  614MOL0     C82787   5.174   1.122  12.661 -0.0944  0.8309 -0.3673
  614MOL0     C82788   5.096   1.106  12.783  0.9392 -1.0909  0.9431
  614MOL0     C82789   4.986   1.186  12.804  0.2078 -0.0357 -0.4660
  614MOL0     O82790   4.910   1.153  12.917  0.2099 -0.1446 -0.1297
  614MOL0     C82791   4.804   1.242  12.952 -0.5865  0.5902  0.5914
  614MOL0     C82792   4.669   1.225  12.868  0.7930  0.3766  0.3221
  614MOL0     C82793   4.594   1.079  12.880  0.2335  0.3656  0.2048
  614MOL0     C82794   4.511   1.060  13.005  0.7132 -0.6578  0.8655
  614MOL0     C82795   4.603   1.044  13.129  0.4396  0.2322 -0.2140
  614MOL0     C82796   4.616   0.889  13.167 -0.2306  0.4593 -0.0889
  614MOL0     C82797   4.707   0.871  13.296 -0.7039  0.3448  0.2908
  614MOL0     C82798   4.865   0.898  13.292  0.3162  0.3660  0.1400
  614MOL0    Cl82799   4.942   0.778  13.194  0.2575  0.2988  0.3244
  614MOL0     C82800   4.954   1.275  12.706  0.7125  0.1376  0.2155
  614MOL0     C82801   5.023   1.286  12.581 -0.7190 -0.3937 -0.4459
  614MOL0     O82802   5.046   1.242  12.292  0.3697 -0.4517  0.8065
  614MOL0     C82803   5.227   1.288  12.086 -0.4792 -0.9760  0.3575
  614MOL0     C82804   5.319   1.312  11.987  0.4429  0.2661 -0.1171
  614MOL0     N82805   5.625   1.576  11.358  0.1843  1.1383 -0.3517
  614MOL0     N82806   5.578   1.575  11.238 -0.1520  0.1912  0.1517
  614MOL0     C82807   5.494   0.702  10.626  0.0969 -0.3226  0.2398
  614MOL0     C82808   5.635   0.688  10.609  0.0013  0.5869  1.1144
  614MOL0     C82809   6.058   0.751  10.761  0.2281 -1.0622  0.3633
  614MOL0     C82810   6.164   0.810  10.681  0.5739 -0.3613 -0.0733
  614MOL0     C82811   6.305   0.775  10.697 -0.2850  0.7202 -0.2338
  614MOL0     C82812   6.341   0.695  10.808 -0.5266 -0.7722 -0.3242
  614MOL0     O82813   6.467   0.642  10.838  0.0760 -0.0841  0.5515
  614MOL0     C82814   6.594   0.695  10.789  0.2350  1.6256  0.4097
  614MOL0     C82815   6.716   0.631  10.860 -0.5033  0.1741 -1.1901
  614MOL0     C82816   6.738   0.483  10.830  0.6418 -0.5531 -0.3318
  614MOL0     C82817   6.766   0.457  10.685  0.0368 -0.1654  0.3537
  614MOL0     C82818   6.788   0.313  10.667 -0.6296  0.7009 -0.3039
  614MOL0     C82819   6.801   0.196  10.647 -0.2297  0.4515  0.8086
  614MOL0     C82820   6.239   0.666  10.902 -0.9560 -0.1691 -0.0421
  614MOL0     C82821   6.097   0.685  10.878 -0.4841 -0.9461 -0.5547
  614MOL0     C82822   6.009   0.604  10.975  0.6669 -0.1705 -0.0112
  614MOL0     H82823   5.709   0.642  10.937  1.7521 -0.6476 -1.9245
  614MOL0     H82824   5.461   0.678  10.957  1.4536  1.4371  0.3164
  614MOL0     H82825   5.130   0.823  10.868 -0.1977  2.5274 -0.1822
  614MOL0     H82826   5.284   0.773  10.947 -1.7284 -1.8951 -0.7160
  614MOL0     H82827   5.247   1.012  10.748 -1.1104 -2.0032 -0.1193
  614MOL0     H82828   5.386   0.989  10.853 -0.5603  2.9078  0.9747
  614MOL0     H82829   5.216   1.021  11.041 -0.4868  3.6098  1.5131
  614MOL0     H82830   5.097   1.042  10.916  0.6435  2.5781 -1.1879
  614MOL0     H82831   5.342   1.214  10.938 -0.4118  0.5479  0.9213
  614MOL0     H82832   5.227   1.222  10.817  0.3444  2.1548 -0.0226
  614MOL0     H82833   5.045   1.267  10.995 -1.1798  2.4517  1.3973
  614MOL0     H82834   5.140   1.237  11.127 -1.7664 -0.7960 -1.1030
  614MOL0     H82835   5.166   1.464  10.938  2.4368 -0.8964  0.1113
  614MOL0     H82836   5.115   1.471  11.106 -3.4135 -3.9376  2.5155
  614MOL0     H82837   5.402   1.403  11.037 -0.3210  0.4350 -1.0188
  614MOL0     H82838   5.325   1.399  11.189 -0.6582 -1.3201 -0.7573
  614MOL0     H82839   5.417   1.619  11.037  1.3546  0.6810  1.8776
  614MOL0     H82840   5.283   1.670  11.136 -2.1692 -2.1687 -1.6372
  614MOL0     H82841   5.324   1.690  11.405 -0.2809 -0.4739 -0.4385
  614MOL0     H82842   5.615   1.732  11.595 -0.0542  1.2970 -1.7972
  614MOL0     H82843   5.448   1.690  11.628 -0.7989 -1.2972 -0.6976
  614MOL0     H82844   5.521   1.444  11.655 -1.4394  1.4847 -1.8556
  614MOL0     H82845   5.693   1.510  11.663  0.1145  0.2760  1.0676
  614MOL0     H82846   5.466   1.590  11.850 -0.6494  0.7478 -3.2910
  614MOL0     H82847   5.636   1.648  11.846  1.1302 -1.4678 -0.1973
  614MOL0     H82848   5.642   1.486  12.014  0.5965 -0.6693 -0.4262
  614MOL0     H82849   5.724   1.436  11.877 -0.0548  1.2600 -2.5253
  614MOL0     H82850   5.606   1.293  12.178  0.5680 -0.0105 -2.8483
  614MOL0     H82851   5.454   1.242  12.341 -0.8173  0.8341  0.2036
  614MOL0     H82852   5.253   1.048  12.660  0.7252  1.6081  1.7296
  614MOL0     H82853   5.136   1.042  12.862 -1.0708 -3.2132  0.3521
  614MOL0     H82854   4.788   1.256  13.059  2.3622  1.0686  1.0682
  614MOL0     H82855   4.843   1.342  12.934  0.0123  0.1414 -0.7692
  614MOL0     H82856   4.590   1.295  12.895 -2.1733 -2.7218  0.3872
  614MOL0     H82857   4.696   1.238  12.763 -2.7541 -1.0052 -0.9026
  614MOL0     H82858   4.530   1.069  12.792 -2.3498  3.2762  1.5341
  614MOL0     H82859   4.666   0.997  12.871 -1.9928 -1.7595  0.4656
  614MOL0     H82860   4.461   0.964  12.992 -1.4654  0.5617 -0.2436
  614MOL0     H82861   4.433   1.131  13.035  0.7542 -1.5507  3.3896
  614MOL0     H82862   4.561   1.107  13.208 -1.5273  0.0044 -0.9998
  614MOL0     H82863   4.709   1.068  13.117  1.7155 -3.1405  2.4853
  614MOL0     H82864   4.514   0.854  13.181 -0.5864  1.6983  0.5388
  614MOL0     H82865   4.645   0.824  13.084 -1.1081  1.4363 -1.1798
  614MOL0     H82866   4.704   0.767  13.332  1.9952  0.2291  0.3989
  614MOL0     H82867   4.659   0.928  13.375 -2.0380 -0.6971  0.2607
  614MOL0     H82868   4.880   0.999  13.253  4.2976  0.3311  1.1835
  614MOL0     H82869   4.895   0.899  13.397 -3.2949  1.5586  1.3157
  614MOL0     H82870   4.879   1.350  12.727 -0.7016 -1.0303 -0.5218
  614MOL0     H82871   4.995   1.366  12.513  1.1122  0.5828 -0.1223
  614MOL0     H82872   5.122   1.293  12.061 -0.2679 -0.3460 -0.4647
  614MOL0     H82873   5.277   1.317  11.887 -0.9982 -1.5898  0.3427
  614MOL0     H82874   5.426   0.734  10.547  0.6498  0.5701  0.1046
  614MOL0     H82875   5.662   0.700  10.505 -0.8190 -1.5139  0.6125
  614MOL0     H82876   6.133   0.861  10.590  0.4807 -1.8144 -0.8770
  614MOL0     H82877   6.385   0.800  10.628  0.3202 -1.1621 -0.2670
  614MOL0     H82878   6.598   0.804  10.801  1.2534  1.4693  1.6918
  614MOL0     H82879   6.595   0.675  10.682  1.6334 -0.3433  0.7321
  614MOL0     H82880   6.687   0.632  10.965 -0.0145 -1.2899 -1.0170
  614MOL0     H82881   6.813   0.677  10.838 -0.1792  1.3896  2.2245
  614MOL0     H82882   6.652   0.428  10.871 -0.4068  1.8491  0.9180
  614MOL0     H82883   6.823   0.450  10.890  0.8491  0.1379 -0.2406
  614MOL0     H82884   6.692   0.490  10.612  1.6016  0.1183 -1.1678
  614MOL0     H82885   6.854   0.511  10.648  0.4515 -1.4650 -0.6555
  614MOL0     H82886   6.817   0.097  10.611  1.2299  0.5871  1.0245
  614MOL0     H82887   6.251   0.604  10.990  0.2565 -0.1330 -0.1672
  614MOL0     H82888   6.015   0.499  10.945 -3.6383 -1.1194  1.6195
  614MOL0     H82889   6.041   0.619  11.078 -0.7921  0.5320  0.3809
  614MOL0     H82890   5.901   0.622  10.972  1.0088  2.0453 -1.0127
  615MOL0     O82891   0.962   6.559   5.933 -0.2303  0.0453 -0.0739
  615MOL0     C82892   0.911   6.519   6.040 -0.5945  0.1750  0.1880
  615MOL0     O82893   0.907   6.584   6.152  0.2243 -0.0017 -0.4932
  615MOL0     C82894   0.928   6.713   6.153 -0.4280  0.5899  0.7669
  615MOL0     C82895   1.047   6.767   6.181 -0.8372  0.0479  0.0148
  615MOL0     C82896   1.079   6.903   6.183  0.6140 -1.0966 -0.4293
  615MOL0     C82897   0.971   6.995   6.162  0.8516  0.5098  0.0270
  615MOL0     O82898   0.987   7.129   6.180  0.5765 -0.0858  0.5915
  615MOL0     C82899   1.117   7.173   6.221  0.6553 -0.0616 -0.1459
  615MOL0     C82900   1.102   7.323   6.266 -0.6687 -0.7825 -0.6999
  615MOL0     C82901   1.008   7.362   6.385 -0.1812 -0.7162  0.9417
  615MOL0     C82902   1.051   7.492   6.452  0.3036  0.5954  1.0937
  615MOL0     C82903   0.992   7.470   6.597 -0.1337  0.4075  0.3787
  615MOL0     C82904   0.975   7.612   6.663 -0.6536 -0.6192  0.0854
  615MOL0     C82905   0.902   7.602   6.799  0.3938  0.2553 -0.1197
  615MOL0     C82906   0.875   7.742   6.856 -0.2634 -0.3975 -0.2281
  615MOL0     N82907   0.755   7.796   6.801  0.9846 -0.0615  0.2143
  615MOL0     C82908   0.633   7.812   6.878  0.1023  0.9534 -0.1942
  615MOL0     C82909   0.550   7.857   6.780 -0.1480 -0.1658 -0.3098
  615MOL0     C82910   0.401   7.899   6.802 -0.4038 -0.2822  0.2334
  615MOL0     C82911   0.385   7.936   6.954 -0.0297 -0.6903 -0.4838
  615MOL0     C82912   0.265   8.021   6.980 -0.1921 -0.6272  0.5334
  615MOL0     C82913   0.255   8.061   7.134 -0.3141  0.0525  0.0270
  615MOL0     O82914   0.244   7.937   7.216  0.3005  0.0596  0.3710
  615MOL0     C82915   0.273   7.943   7.348 -0.5366  0.0666 -0.2519
  615MOL0     C82916   0.298   7.821   7.410 -1.0334  0.2957  0.4674
  615MOL0     C82917   0.322   7.814   7.551  0.0581 -0.4074  0.2215
  615MOL0     C82918   0.314   7.929   7.629 -0.4286  1.0044 -0.3063
  615MOL0     C82919   0.359   7.929   7.772  0.0912 -0.3267  0.1588
  615MOL0     O82920   0.365   8.050   7.838 -0.6676  0.1648  0.4466
  615MOL0     C82921   0.404   8.077   7.965  0.1398 -0.5453  0.5721
  615MOL0     C82922   0.349   7.998   8.070  1.0488 -0.5923  0.3701
  615MOL0     C82923   0.380   8.024   8.203 -0.3411 -0.4574  0.5171
  615MOL0     C82924   0.481   8.125   8.228 -0.1677  0.2457 -0.6806
  615MOL0     O82925   0.536   8.141   8.356  0.3872 -0.3237 -0.0334
  615MOL0     C82926   0.456   8.129   8.472 -0.0319 -0.1208  0.4800
  615MOL0     C82927   0.506   8.206   8.582 -0.6153 -0.5369 -0.7006
  615MOL0     C82928   0.484   8.365   8.587  0.2113  0.2920  0.2383
  615MOL0     C82929   0.585   8.442   8.503  1.0158 -0.2323  0.6118
  615MOL0     C82930   0.554   8.589   8.509  0.0684  0.1765  0.2492
  615MOL0     C82931   0.668   8.668   8.439 -0.3761 -0.6451 -0.3033
  615MOL0     C82932   0.614   8.806   8.382 -0.3658 -0.1578 -0.7584
  615MOL0     C82933   0.702   8.921   8.406 -0.1324 -0.0515  0.1036
  615MOL0    Cl82934   0.622   9.068   8.330 -0.3719  0.0672 -0.0531
  615MOL0     C82935   0.524   8.202   8.119  0.0027  0.0543  0.3334
  615MOL0     C82936   0.494   8.180   7.986  0.3081 -0.1331 -0.5377
  615MOL0     O82937   0.385   7.828   7.827 -0.5363  0.4771  0.5262
  615MOL0     C82938   0.278   8.053   7.571 -0.0590 -0.0209  0.9072
  615MOL0     C82939   0.264   8.058   7.430  0.5171  0.0852  1.0630
  615MOL0     N82940   0.599   7.863   6.656  0.7822 -0.8027 -0.6644
  615MOL0     N82941   0.728   7.836   6.669 -0.2019  0.1383 -0.4434
  615MOL0     C82942   0.842   6.949   6.122 -1.0191 -0.8971  0.4531
  615MOL0     C82943   0.826   6.806   6.116 -0.4880  0.2423 -0.2454
  615MOL0     C82944   0.880   6.376   6.064  0.0135  0.0231 -0.3314
  615MOL0     C82945   0.923   6.316   6.179  0.0415 -0.0202 -0.4663
  615MOL0     C82946   0.935   6.183   6.195  0.3224  0.1677  0.2756
  615MOL0     C82947   0.883   6.091   6.094 -0.1222  0.0123 -0.7571
  615MOL0     O82948   0.901   5.955   6.089  0.1173  0.0393  0.5008
  615MOL0     C82949   0.920   5.886   6.211 -0.3912 -0.7331 -0.4566
  615MOL0     C82950   0.824   5.776   6.241 -0.0006  0.0950 -0.3207
  615MOL0     C82951   0.669   5.821   6.253  0.8053 -0.3994 -0.0891
  615MOL0     C82952   0.625   5.859   6.399  1.0286  0.1485  0.7762
  615MOL0     C82953   0.508   5.947   6.402 -0.3073  0.0605  0.3339
  615MOL0     C82954   0.407   6.012   6.405 -0.9833  0.2506 -0.7439
  615MOL0     C82955   0.816   6.151   5.989 -0.5094 -0.1466  0.3151
  615MOL0     C82956   0.808   6.287   5.977  0.0004 -0.2160 -0.1687
  615MOL0     C82957   0.739   6.334   5.853  0.4418  0.9976 -0.0037
  615MOL0     H82958   1.122   6.695   6.212  1.5684  2.3125 -0.1564
  615MOL0     H82959   1.178   6.939   6.211 -0.5565 -0.0629  2.8653
  615MOL0     H82960   1.154   7.117   6.308 -0.2334  0.2538  0.4590
  615MOL0     H82961   1.190   7.152   6.143  0.1250  2.7568 -1.5226
  615MOL0     H82962   1.078   7.376   6.173  2.9409  0.5458 -1.0480
  615MOL0     H82963   1.203   7.361   6.284 -1.2256  0.9733 -1.0591
  615MOL0     H82964   0.988   7.277   6.451  0.4100 -1.8642 -0.2926
  615MOL0     H82965   0.913   7.375   6.332  1.6872  0.7581 -2.3250
  615MOL0     H82966   1.160   7.502   6.452  0.5142 -1.1273 -0.9990
  615MOL0     H82967   1.003   7.575   6.398  0.0131  0.6283  1.4026
  615MOL0     H82968   0.892   7.427   6.590 -1.1732  2.2763  2.5973
  615MOL0     H82969   1.068   7.416   6.655  2.1757  2.3763 -0.6037
  615MOL0     H82970   1.074   7.660   6.666 -1.7122  1.9411 -1.9426
  615MOL0     H82971   0.911   7.674   6.599 -0.1398  1.7937  1.7524
  615MOL0     H82972   0.951   7.533   6.868  1.0589 -3.3183 -3.7891
  615MOL0     H82973   0.808   7.551   6.776 -2.1817  4.1100  0.8058
  615MOL0     H82974   0.870   7.728   6.965  1.7623 -1.9306 -0.2773
  615MOL0     H82975   0.961   7.808   6.848  0.9885 -1.7492  1.2229
  615MOL0     H82976   0.623   7.804   6.985  1.7720 -1.9026 -0.1357
  615MOL0     H82977   0.375   7.982   6.736 -2.0739  0.0790  1.2885
  615MOL0     H82978   0.350   7.805   6.780 -1.1859  0.6940 -2.5620
  615MOL0     H82979   0.368   7.838   7.001 -3.2598 -0.5414 -1.0816
  615MOL0     H82980   0.475   7.977   7.001 -1.0030 -1.0445  1.8524
  615MOL0     H82981   0.175   7.968   6.948  0.9752 -2.8325  0.7635
  615MOL0     H82982   0.273   8.119   6.932 -0.6988  0.8941  3.3361
  615MOL0     H82983   0.162   8.119   7.143  0.2959  0.7099  3.2569
  615MOL0     H82984   0.342   8.120   7.164 -1.0114  0.6314  1.0118
  615MOL0     H82985   0.301   7.737   7.342  0.7108 -0.7227  1.6953
  615MOL0     H82986   0.349   7.717   7.594  1.9433 -0.2253 -0.4725
  615MOL0     H82987   0.274   7.926   8.042 -1.9498  1.5548  2.3356
  615MOL0     H82988   0.328   7.965   8.278 -2.5562 -1.5056 -1.6814
  615MOL0     H82989   0.358   8.172   8.449  0.9525  0.6458 -2.8044
  615MOL0     H82990   0.443   8.022   8.492  0.0666 -0.8978 -2.9889
  615MOL0     H82991   0.452   8.164   8.668  1.1506  0.0011  0.7361
  615MOL0     H82992   0.613   8.182   8.588 -0.7683 -1.1014 -0.0322
  615MOL0     H82993   0.380   8.393   8.566  1.0724  2.2746 -1.7013
  615MOL0     H82994   0.490   8.401   8.691 -2.2657 -0.4891  0.7309
  615MOL0     H82995   0.581   8.410   8.399  0.4055  1.3944  0.0940
  615MOL0     H82996   0.690   8.423   8.526  1.1417 -0.7048 -0.3431
  615MOL0     H82997   0.536   8.622   8.611 -2.2297 -0.5838  0.1325
  615MOL0     H82998   0.461   8.613   8.458  2.3079  2.8075 -3.1137
  615MOL0     H82999   0.753   8.679   8.506  1.4416 -0.4295 -2.5355
  615MOL0     H83000   0.702   8.615   8.349  1.6053  1.5767 -0.9404
  615MOL0     H83001   0.521   8.831   8.435  0.6562  1.8419  0.2010
  615MOL0     H83002   0.588   8.799   8.276 -1.5349 -1.0472 -0.4342
  615MOL0     H83003   0.701   8.937   8.514 -5.0550 -1.2489  0.4788
  615MOL0     H83004   0.804   8.919   8.366 -1.3828  1.1024 -3.4346
  615MOL0     H83005   0.585   8.290   8.137 -1.1666  0.8681  0.4112
  615MOL0     H83006   0.519   8.251   7.907 -3.0152  1.0813 -0.6588
  615MOL0     H83007   0.268   8.146   7.626 -3.0924  0.0691  0.3750
  615MOL0     H83008   0.244   8.155   7.385 -1.1320 -0.5863  0.2749
  615MOL0     H83009   0.765   7.018   6.089 -0.4035 -0.2277  0.3917
  615MOL0     H83010   0.725   6.773   6.093 -0.3618 -1.3597  1.2425
  615MOL0     H83011   0.972   6.375   6.256  2.2800 -1.4270 -0.7168
  615MOL0     H83012   0.979   6.162   6.292  2.4020 -0.6250 -0.7906
  615MOL0     H83013   0.922   5.947   6.302  3.5544  1.2145 -1.6403
  615MOL0     H83014   1.013   5.828   6.216 -1.7330 -2.9099  2.6083
  615MOL0     H83015   0.848   5.722   6.333  1.1271  2.1811  0.6963
  615MOL0     H83016   0.831   5.698   6.165 -4.0849  0.5391 -1.3553
  615MOL0     H83017   0.610   5.734   6.221 -1.2136  0.3971  1.2589
  615MOL0     H83018   0.652   5.901   6.181 -0.0909 -0.1471  0.3893
  615MOL0     H83019   0.605   5.764   6.449  0.2156 -0.3100 -0.3958
  615MOL0     H83020   0.708   5.910   6.449  2.4123 -2.2281  1.0452
  615MOL0     H83021   0.318   6.071   6.411  0.3984  2.3101  2.9282
  615MOL0     H83022   0.769   6.082   5.921 -1.7283 -0.5533  1.5252
  615MOL0     H83023   0.657   6.263   5.840  0.1666  0.2064  4.3950
  615MOL0     H83024   0.715   6.440   5.852  1.0441  1.1430 -1.2742
  615MOL0     H83025   0.812   6.316   5.774  0.8911  1.2279  0.3519
  616MOL0     O83026  10.431   2.888   3.109 -0.3141  0.8445  0.4519
  616MOL0     C83027  10.435   2.991   3.039  0.1159 -0.2746 -0.1818
  616MOL0     O83028  10.324   3.074   3.019 -0.2917 -0.9927 -0.2818
  616MOL0     C83029  10.200   3.028   3.061 -0.3361  0.5129 -0.4263
  616MOL0     C83030  10.175   2.986   3.191 -0.4614  0.1246 -0.1920
  616MOL0     C83031  10.048   2.946   3.232  0.3209  0.2635 -0.0297
  616MOL0     C83032   9.947   2.954   3.130  0.1051  0.1231  0.5527
  616MOL0     O83033   9.821   2.897   3.138 -0.4346 -0.2689  0.9411
  616MOL0     C83034   9.766   2.861   3.267 -0.0256 -0.2541  0.8103
  616MOL0     C83035   9.736   2.983   3.348  0.4136  0.5274  0.2869
  616MOL0     C83036   9.641   2.954   3.466  0.2225  0.3354 -0.8857
  616MOL0     C83037   9.499   2.987   3.440  0.5486 -0.5826  0.0364
  616MOL0     C83038   9.399   2.864   3.444 -0.4535 -0.8936  0.6467
  616MOL0     C83039   9.362   2.819   3.592 -0.3252  0.0923 -0.6229
  616MOL0     C83040   9.252   2.704   3.602  0.1364  0.3521  0.1907
  616MOL0     C83041   9.265   2.601   3.726 -0.5430  0.4816 -0.1255
  616MOL0     N83042   9.196   2.476   3.706 -0.0396  1.0131 -0.2465
  616MOL0     C83043   9.058   2.470   3.698  0.3149 -1.1530  0.0700
  616MOL0     C83044   9.024   2.337   3.709 -0.7987 -0.1192 -0.8538
  616MOL0     C83045   8.892   2.264   3.688  0.0912  0.6302  1.1425
  616MOL0     C83046   8.784   2.341   3.604 -0.6412 -0.4325  0.3012
  616MOL0     C83047   8.810   2.342   3.447 -0.2943 -0.6401  0.7214
  616MOL0     C83048   8.761   2.481   3.396  0.3590  0.0045  0.0548
  616MOL0     O83049   8.832   2.595   3.444  0.1407  0.5508 -0.0179
  616MOL0     C83050   8.946   2.641   3.387  0.0074  0.1011 -0.9625
  616MOL0     C83051   8.964   2.783   3.388  0.7195  0.7911  0.3715
  616MOL0     C83052   9.055   2.834   3.289  0.1933  0.6248  0.7054
  616MOL0     C83053   9.127   2.756   3.200 -0.9068 -0.9624 -0.2383
  616MOL0     C83054   9.229   2.810   3.105 -0.9348 -0.0864  0.9140
  616MOL0     O83055   9.258   2.941   3.117 -0.0891  0.0089  0.2040
  616MOL0     C83056   9.338   3.004   3.027  0.0238 -0.1530 -0.3919
  616MOL0     C83057   9.279   3.053   2.911  0.5279 -1.4513  0.7118
  616MOL0     C83058   9.364   3.117   2.818  0.3210 -0.3919 -0.6961
  616MOL0     C83059   9.509   3.128   2.840  0.1423  0.1477  0.7348
  616MOL0     O83060   9.601   3.179   2.756  0.4369 -1.1419 -0.2115
  616MOL0     C83061   9.609   3.319   2.711  0.3101  0.2798 -1.5928
  616MOL0     C83062   9.530   3.412   2.802  0.3490 -0.4067 -0.0192
  616MOL0     C83063   9.566   3.560   2.778  0.2157  0.2562  0.3956
  616MOL0     C83064   9.492   3.645   2.879 -0.1355  0.6494  0.4105
  616MOL0     C83065   9.536   3.789   2.869 -0.3525 -0.7535  1.3303
  616MOL0     C83066   9.469   3.875   2.760 -0.0677  0.3945  0.3345
  616MOL0     C83067   9.315   3.892   2.770  0.6980 -0.2689 -0.3039
  616MOL0     C83068   9.249   3.907   2.633 -0.4946  0.3920  0.6257
  616MOL0    Cl83069   9.332   4.030   2.520 -0.4461 -0.2222  0.1357
  616MOL0     C83070   9.563   3.075   2.952  0.4920 -0.5287 -0.4930
  616MOL0     C83071   9.476   3.017   3.048 -0.6171 -0.8320  0.2969
  616MOL0     O83072   9.270   2.735   3.020 -0.7090  0.3136 -0.4269
  616MOL0     C83073   9.114   2.618   3.223 -0.7041  0.4364 -0.3470
  616MOL0     C83074   9.027   2.568   3.308  0.0041  0.0841 -0.0434
  616MOL0     N83075   9.149   2.264   3.730 -0.0102 -0.0836  1.0876
  616MOL0     N83076   9.248   2.350   3.724  0.1758 -0.3280  0.8424
  616MOL0     C83077   9.980   2.996   3.000 -0.4705 -0.0355 -0.3565
  616MOL0     C83078  10.106   3.037   2.962  0.5655 -0.5765 -1.1971
  616MOL0     C83079  10.559   3.024   2.965  0.4896 -0.9247 -0.3554
  616MOL0     C83080  10.546   3.083   2.844  0.3784  0.2802 -0.1843
  616MOL0     C83081  10.647   3.098   2.750  0.4651  0.4604  0.4178
  616MOL0     C83082  10.776   3.068   2.783 -0.1333  0.2485  0.0934
  616MOL0     O83083  10.873   3.068   2.686  0.5577 -0.5350 -0.1791
  616MOL0     C83084  10.986   3.162   2.699 -0.5813 -0.5097  0.3410
  616MOL0     C83085  11.104   3.102   2.622 -0.4226  0.2080 -0.3182
  616MOL0     C83086  11.080   3.073   2.471 -0.8221 -0.3221  0.6857
  616MOL0     C83087  11.213   3.095   2.380 -0.2495  0.0838  0.7124
  616MOL0     C83088  11.280   3.220   2.417  0.2954 -0.0486  0.7254
  616MOL0     C83089  11.323   3.325   2.445  1.0171 -0.2454  0.3956
  616MOL0     C83090  10.800   3.012   2.910  0.4390 -0.1279 -0.1268
  616MOL0     C83091  10.690   2.985   2.996 -0.5779  0.7417  0.5818
  616MOL0     C83092  10.718   2.915   3.133  0.5278 -0.3001  0.5588
  616MOL0     H83093  10.254   2.976   3.264  0.8470  0.8832 -1.4472
  616MOL0     H83094  10.018   2.903   3.327 -1.6840  0.3311 -0.5889
  616MOL0     H83095   9.673   2.814   3.234  0.8853  0.9183 -4.2262
  616MOL0     H83096   9.826   2.788   3.323 -0.3284  0.5450  2.2279
  616MOL0     H83097   9.685   3.055   3.283  0.5280 -0.5397 -1.0484
  616MOL0     H83098   9.832   3.028   3.376 -1.2093  4.1018  0.5761
  616MOL0     H83099   9.675   3.000   3.559 -0.8776  0.0566 -0.3283
  616MOL0     H83100   9.659   2.849   3.493  1.7856  0.8517  0.1883
  616MOL0     H83101   9.464   3.059   3.515  3.5262  1.6946 -0.5541
  616MOL0     H83102   9.490   3.038   3.343  1.1059 -1.6735 -0.6051
  616MOL0     H83103   9.300   2.879   3.400 -1.7267 -3.7910  2.1955
  616MOL0     H83104   9.442   2.784   3.383 -1.5899  0.4160 -2.0186
  616MOL0     H83105   9.459   2.793   3.635 -0.7963 -0.1900  0.3008
  616MOL0     H83106   9.322   2.902   3.651  0.1427 -0.7393  0.9446
  616MOL0     H83107   9.268   2.639   3.516 -1.7981  0.4083 -0.2615
  616MOL0     H83108   9.146   2.732   3.604 -2.2708 -6.4122 -2.2366
  616MOL0     H83109   9.371   2.581   3.743  0.0695  1.2119 -2.5525
  616MOL0     H83110   9.232   2.657   3.814  2.4722  2.8991 -0.3583
  616MOL0     H83111   8.991   2.551   3.673 -1.0722 -1.5090  2.3693
  616MOL0     H83112   8.921   2.175   3.631 -1.4990  0.9979 -0.3273
  616MOL0     H83113   8.849   2.244   3.787  2.0576 -1.3224  1.6837
  616MOL0     H83114   8.690   2.286   3.617 -2.0614  0.9243 -3.0326
  616MOL0     H83115   8.762   2.440   3.645  1.2013  0.8154 -1.5074
  616MOL0     H83116   8.754   2.275   3.382 -0.5611  1.2840 -1.1545
  616MOL0     H83117   8.916   2.329   3.423 -0.4978  0.6633 -1.1075
  616MOL0     H83118   8.657   2.488   3.431  0.5217  1.0549  0.3736
  616MOL0     H83119   8.758   2.478   3.287  0.7206 -0.0283  0.0439
  616MOL0     H83120   8.901   2.847   3.449 -0.0752 -0.3055  0.7226
  616MOL0     H83121   9.069   2.942   3.293 -0.3438  0.7373 -0.2643
  616MOL0     H83122   9.180   3.031   2.873  1.8685 -0.6274 -3.7529
  616MOL0     H83123   9.317   3.164   2.732 -0.8620  1.5312  0.9059
  616MOL0     H83124   9.715   3.339   2.729 -0.2250  0.6061  1.8021
  616MOL0     H83125   9.588   3.339   2.606  2.3129  0.3387 -2.0236
  616MOL0     H83126   9.423   3.398   2.781  0.6280 -2.0975 -0.4290
  616MOL0     H83127   9.544   3.386   2.907  2.1102 -0.0536 -0.1366
  616MOL0     H83128   9.671   3.585   2.797  0.0382  1.1865  0.1548
  616MOL0     H83129   9.542   3.588   2.675  2.9726 -0.4660 -0.5521
  616MOL0     H83130   9.507   3.603   2.979 -1.4929 -0.9368  0.0027
  616MOL0     H83131   9.383   3.642   2.868 -0.2049  0.9970  0.9313
  616MOL0     H83132   9.644   3.803   2.855 -0.3465 -0.4819  1.6564
  616MOL0     H83133   9.510   3.829   2.967 -0.5737 -1.8650  1.7351
  616MOL0     H83134   9.508   3.977   2.759  0.4181  0.2088  0.1410
  616MOL0     H83135   9.491   3.827   2.664 -5.6630 -0.1898 -1.0197
  616MOL0     H83136   9.297   3.987   2.821 -1.5979  0.7213 -2.6981
  616MOL0     H83137   9.280   3.809   2.832  1.6443 -0.6587 -0.2784
  616MOL0     H83138   9.247   3.812   2.579  1.2483  2.1489 -2.8587
  616MOL0     H83139   9.141   3.921   2.645 -0.7006 -0.6722  0.1187
  616MOL0     H83140   9.670   3.071   2.971  0.0826 -1.7916  2.0097
  616MOL0     H83141   9.519   2.957   3.127  2.7481  1.8552  0.7047
  616MOL0     H83142   9.172   2.552   3.159  4.2386 -0.7811  4.5997
  616MOL0     H83143   9.011   2.462   3.293  3.3097 -0.8659  2.1086
  616MOL0     H83144   9.893   3.005   2.935 -1.6460 -0.1135  1.1578
  616MOL0     H83145  10.131   3.083   2.867 -1.7077  2.1691 -0.6045
  616MOL0     H83146  10.447   3.118   2.819 -0.2296  1.1763  3.1004
  616MOL0     H83147  10.618   3.112   2.646 -0.9663  3.5962  1.1124
  616MOL0     H83148  11.022   3.177   2.802  0.2063  3.8046 -0.3950
  616MOL0     H83149  10.963   3.263   2.665  0.9271 -1.6173 -4.8723
  616MOL0     H83150  11.145   3.014   2.672 -0.6058 -0.0104 -0.5492
  616MOL0     H83151  11.180   3.180   2.628 -0.1304 -0.1455  0.7580
  616MOL0     H83152  11.007   3.150   2.443  1.4964  1.8423  0.2630
  616MOL0     H83153  11.032   2.977   2.449 -3.4119  1.3593 -1.8495
  616MOL0     H83154  11.285   3.012   2.386  1.4496  1.3371 -0.9840
  616MOL0     H83155  11.182   3.102   2.276 -1.4272 -0.4777  1.0105
  616MOL0     H83156  11.372   3.419   2.457  0.6973 -0.1598  1.0711
  616MOL0     H83157  10.902   2.984   2.935  0.0032 -1.2309  0.4926
  616MOL0     H83158  10.647   2.841   3.171 -3.0616  2.3475 -0.4406
  616MOL0     H83159  10.816   2.868   3.124  1.0645  0.9646 -0.6265
  616MOL0     H83160  10.727   2.987   3.215 -1.3922 -1.3129  1.7228
  617MOL0     O83161   0.034   7.796   1.671 -0.4513 -0.2109  0.0492
  617MOL0     C83162  -0.039   7.705   1.716  0.1590 -0.0279 -0.1112
  617MOL0     O83163  -0.059   7.582   1.668 -0.6394 -0.7050  0.1850
  617MOL0     C83164  -0.012   7.531   1.549 -0.4348 -0.0005  0.1584
  617MOL0     C83165  -0.015   7.395   1.535 -0.2329  0.1601 -0.3887
  617MOL0     C83166  -0.006   7.331   1.415  0.5778 -1.1212 -0.4342
  617MOL0     C83167   0.020   7.411   1.303 -0.1218  1.4395 -0.0128
  617MOL0     O83168   0.017   7.335   1.190 -0.5379 -0.8507  0.1610
  617MOL0     C83169  -0.034   7.396   1.072  0.3165 -0.8645  0.9779
  617MOL0     C83170  -0.187   7.406   1.077 -0.1972  0.2872  0.1393
  617MOL0     C83171  -0.231   7.521   0.976  0.3731 -0.6687  0.0357
  617MOL0     C83172  -0.232   7.500   0.828 -0.5727  1.5912  1.1372
  617MOL0     C83173  -0.321   7.606   0.760  0.0032  0.1548  0.2194
  617MOL0     C83174  -0.294   7.610   0.607 -0.1364 -0.0154 -0.8569
  617MOL0     C83175  -0.416   7.670   0.523  0.2836  0.1206  0.1576
  617MOL0     C83176  -0.394   7.611   0.385  0.0875  0.3787  0.0293
  617MOL0     N83177  -0.520   7.585   0.330  1.0931  0.1041 -0.5110
  617MOL0     C83178  -0.606   7.680   0.275 -1.0746 -0.0161  0.6508
  617MOL0     C83179  -0.697   7.612   0.196 -0.0569  0.5680  0.0610
  617MOL0     C83180  -0.815   7.664   0.118  0.9880  0.0572  1.0818
  617MOL0     C83181  -0.829   7.638  -0.032 -0.5410  0.6573  0.8174
  617MOL0     C83182  -0.895   7.509  -0.074  0.6388  0.3648 -0.0654
  617MOL0     C83183  -0.908   7.493  -0.217  0.4354 -0.4590  0.1957
  617MOL0     O83184  -0.781   7.487  -0.277 -0.4160  0.2140  0.3348
  617MOL0     C83185  -0.772   7.461  -0.415 -0.2269  0.5392  0.9381
  617MOL0     C83186  -0.652   7.435  -0.474  0.0444  0.9505  0.0114
  617MOL0     C83187  -0.631   7.425  -0.617 -0.3660 -1.3095  1.0019
  617MOL0     C83188  -0.748   7.429  -0.699  0.3209 -0.1523  1.0692
  617MOL0     C83189  -0.748   7.395  -0.845  0.1079 -0.6335  0.2728
  617MOL0     O83190  -0.854   7.451  -0.922 -0.6760  0.4116 -0.0698
  617MOL0     C83191  -0.839   7.425  -1.059  0.2839  0.3528 -0.2359
  617MOL0     C83192  -0.922   7.330  -1.119 -0.0291 -0.2368 -0.1068
  617MOL0     C83193  -0.908   7.306  -1.260  0.2074  0.0697  0.0714
  617MOL0     C83194  -0.818   7.375  -1.335 -0.3768 -0.2792  0.2330
  617MOL0     O83195  -0.805   7.368  -1.468 -0.4870  0.6517 -0.0173
  617MOL0     C83196  -0.870   7.266  -1.545  0.6729  0.5588 -0.1178
  617MOL0     C83197  -0.801   7.225  -1.674  0.0320 -0.7227  0.3066
  617MOL0     C83198  -0.773   7.338  -1.774  0.7103  0.2469 -0.3585
  617MOL0     C83199  -0.684   7.295  -1.883  0.7703 -0.3667 -0.4185
  617MOL0     C83200  -0.689   7.393  -1.996 -0.4063 -0.1698 -0.6265
  617MOL0     C83201  -0.665   7.536  -1.943 -0.3351 -0.0827 -0.1436
  617MOL0     C83202  -0.633   7.629  -2.060  0.2200 -0.5470 -0.0892
  617MOL0     C83203  -0.634   7.779  -2.019 -0.8527 -0.2681 -0.3817
  617MOL0    Cl83204  -0.556   7.874  -2.151  0.1085 -0.2064 -0.3118
  617MOL0     C83205  -0.746   7.473  -1.268 -0.4869  0.3700  0.1700
  617MOL0     C83206  -0.755   7.498  -1.134 -0.4213  0.2464  0.1598
  617MOL0     O83207  -0.646   7.343  -0.891  0.0628 -0.0377  0.1187
  617MOL0     C83208  -0.875   7.450  -0.639 -0.3839  0.3055  0.0890
  617MOL0     C83209  -0.883   7.473  -0.502  0.8588  0.5158 -0.1393
  617MOL0     N83210  -0.664   7.479   0.206  0.8426 -1.1595 -0.1664
  617MOL0     N83211  -0.565   7.465   0.289 -0.5263 -0.1561 -0.3496
  617MOL0     C83212   0.041   7.550   1.320  0.5780  0.0387  0.1073
  617MOL0     C83213   0.028   7.606   1.443  0.3196  0.3096  0.0780
  617MOL0     C83214  -0.127   7.749   1.834 -0.1567  0.9180  0.6582
  617MOL0     C83215  -0.250   7.688   1.843  0.1585  0.0846 -0.0119
  617MOL0     C83216  -0.336   7.726   1.945  0.2725  0.3257  0.2434
  617MOL0     C83217  -0.304   7.814   2.044  0.0254  0.1761 -0.6404
  617MOL0     O83218  -0.396   7.830   2.147 -0.4191 -0.0896  0.3356
  617MOL0     C83219  -0.369   7.925   2.247  0.5805  0.1654 -0.0177
  617MOL0     C83220  -0.488   7.914   2.354 -0.3313  0.4704 -0.4262
  617MOL0     C83221  -0.614   8.008   2.324  0.0241 -1.0270 -0.1069
  617MOL0     C83222  -0.730   7.921   2.261  0.8982 -0.4034  0.0003
  617MOL0     C83223  -0.842   8.012   2.241 -0.6364  0.1666 -0.0567
  617MOL0     C83224  -0.940   8.082   2.248 -0.8080  0.0310  0.3882
  617MOL0     C83225  -0.181   7.879   2.036  0.1138 -0.9940  0.2148
  617MOL0     C83226  -0.093   7.855   1.926 -1.2843 -0.1912 -0.0501
  617MOL0     C83227   0.039   7.921   1.940  0.2286 -0.1962 -0.1062
  617MOL0     H83228  -0.036   7.353   1.633 -0.9451  3.6605  1.1257
  617MOL0     H83229  -0.014   7.224   1.399 -2.7221 -1.0728  0.3181
  617MOL0     H83230   0.006   7.493   1.044 -0.7191 -0.5258  0.6157
  617MOL0     H83231  -0.008   7.327   0.991 -2.6318 -0.9957 -0.0019
  617MOL0     H83232  -0.220   7.418   1.181  0.6729 -1.3616  0.6515
  617MOL0     H83233  -0.231   7.313   1.040 -1.5670 -0.1162  2.5415
  617MOL0     H83234  -0.178   7.615   0.996  0.5963 -0.6081 -0.7849
  617MOL0     H83235  -0.331   7.551   1.008  0.9054  3.5525 -1.5366
  617MOL0     H83236  -0.128   7.492   0.795 -1.2882 -3.6633 -0.7089
  617MOL0     H83237  -0.257   7.395   0.811  2.9088  0.5443  1.6536
  617MOL0     H83238  -0.424   7.570   0.773  0.4498 -1.3425 -0.1373
  617MOL0     H83239  -0.281   7.701   0.796  1.9153 -1.1988  1.9011
  617MOL0     H83240  -0.202   7.657   0.572 -1.1813  0.4872 -3.1659
  617MOL0     H83241  -0.285   7.503   0.583 -1.9001 -0.4293  0.1389
  617MOL0     H83242  -0.431   7.777   0.505  4.0109  0.8671  0.6784
  617MOL0     H83243  -0.509   7.619   0.551 -0.1589 -0.1006 -1.6164
  617MOL0     H83244  -0.328   7.673   0.322  4.3122 -3.6988 -0.1580
  617MOL0     H83245  -0.344   7.514   0.397 -0.1180  0.0991 -1.2042
  617MOL0     H83246  -0.606   7.789   0.271  0.6360 -0.0492 -1.0348
  617MOL0     H83247  -0.908   7.641   0.172  1.1599 -2.0172  0.5707
  617MOL0     H83248  -0.809   7.773   0.115 -1.2286  0.2350 -1.4763
  617MOL0     H83249  -0.889   7.716  -0.080 -1.3639 -0.2705  0.2785
  617MOL0     H83250  -0.732   7.629  -0.080 -2.5138 -2.5612 -3.2645
  617MOL0     H83251  -0.996   7.514  -0.031  1.3458 -1.5485  2.0720
  617MOL0     H83252  -0.837   7.420  -0.047  0.9812  0.5438 -0.2195
  617MOL0     H83253  -0.979   7.571  -0.248 -2.5123 -2.2188  2.0565
  617MOL0     H83254  -0.957   7.397  -0.230 -0.4377 -0.2603  1.7857
  617MOL0     H83255  -0.564   7.440  -0.412  1.4648 -0.3233 -1.7685
  617MOL0     H83256  -0.531   7.414  -0.657 -0.2065 -0.0229  0.9996
  617MOL0     H83257  -0.996   7.279  -1.059 -0.3674 -1.6939 -1.6723
  617MOL0     H83258  -0.958   7.216  -1.295  0.4541 -0.1926  0.3881
  617MOL0     H83259  -0.875   7.171  -1.490 -1.3789 -0.3897 -1.8227
  617MOL0     H83260  -0.973   7.294  -1.568  1.2569 -0.1805 -4.5003
  617MOL0     H83261  -0.709   7.168  -1.657  0.3274 -1.2223 -2.4467
  617MOL0     H83262  -0.873   7.159  -1.724 -0.5138 -0.0867  0.2445
  617MOL0     H83263  -0.872   7.362  -1.814  0.4618 -1.8352 -1.0809
  617MOL0     H83264  -0.744   7.426  -1.717  1.8242 -0.7971  0.7351
  617MOL0     H83265  -0.710   7.191  -1.905  1.7413 -1.1338  1.7796
  617MOL0     H83266  -0.578   7.297  -1.856  1.1432  5.6139 -0.8600
  617MOL0     H83267  -0.783   7.379  -2.050 -1.1978  0.2913  0.5848
  617MOL0     H83268  -0.609   7.371  -2.067  1.4168  0.3626  1.1467
  617MOL0     H83269  -0.754   7.568  -1.890 -0.3248  3.3272 -1.9093
  617MOL0     H83270  -0.583   7.550  -1.872 -0.4824  2.6534 -0.4152
  617MOL0     H83271  -0.711   7.622  -2.136 -2.8279  3.2088  2.3303
  617MOL0     H83272  -0.532   7.615  -2.100  0.1734  0.9923 -0.8401
  617MOL0     H83273  -0.740   7.806  -2.011 -1.0864 -0.9623 -1.0606
  617MOL0     H83274  -0.580   7.788  -1.924 -0.0895 -0.2570 -0.8101
  617MOL0     H83275  -0.668   7.529  -1.319 -1.3645  1.0501 -0.4534
  617MOL0     H83276  -0.691   7.573  -1.089 -0.4340 -0.0602  0.6944
  617MOL0     H83277  -0.968   7.461  -0.694 -0.0332  0.7442 -0.4267
  617MOL0     H83278  -0.981   7.490  -0.459  0.0910 -0.2002 -1.5285
  617MOL0     H83279   0.052   7.613   1.232  1.9750  0.5642  0.6125
  617MOL0     H83280   0.045   7.713   1.437 -1.0665  0.6529  1.5171
  617MOL0     H83281  -0.270   7.611   1.769  1.6799 -0.7001  0.3592
  617MOL0     H83282  -0.435   7.682   1.949  0.2228  0.0423 -2.4616
  617MOL0     H83283  -0.378   8.024   2.201 -3.7065  0.2748  0.7107
  617MOL0     H83284  -0.272   7.895   2.288  0.0726 -4.3807 -1.5993
  617MOL0     H83285  -0.432   7.966   2.433 -1.7281  0.5635  0.5299
  617MOL0     H83286  -0.506   7.808   2.372 -0.4894  0.2108 -2.0425
  617MOL0     H83287  -0.584   8.092   2.260 -1.4331  0.3525  0.9496
  617MOL0     H83288  -0.650   8.035   2.424  0.4334 -1.0025  0.0360
  617MOL0     H83289  -0.687   7.883   2.168  2.3389  1.4819 -0.1812
  617MOL0     H83290  -0.765   7.841   2.326 -2.7508 -0.3868 -1.6996
  617MOL0     H83291  -1.036   8.130   2.235 -0.6334  0.3177  0.1280
  617MOL0     H83292  -0.154   7.954   2.110 -0.1344 -1.4107  0.7318
  617MOL0     H83293   0.112   7.842   1.961  0.4560  0.2980  1.0578
  617MOL0     H83294   0.077   7.975   1.853  0.6435 -3.3231 -2.0163
  617MOL0     H83295   0.035   7.993   2.023 -2.6739  0.0701 -0.3707
  618MOL0     O83296  11.270   1.780   4.704 -0.6035 -0.2983  1.0600
  618MOL0     C83297  11.146   1.793   4.692 -0.4780  0.1416  0.0588
  618MOL0     O83298  11.069   1.873   4.774  0.0678 -0.3049 -0.4204
  618MOL0     C83299  11.092   1.919   4.899  0.3626 -0.2815 -0.0662
  618MOL0     C83300  11.211   1.900   4.986  1.0470 -0.0018 -0.0226
  618MOL0     C83301  11.219   1.949   5.116 -0.0640  0.6908  0.5493
  618MOL0     C83302  11.105   2.019   5.163 -0.3642 -1.0757  1.1076
  618MOL0     O83303  11.092   2.061   5.293 -0.5009  0.4527 -0.0958
  618MOL0     C83304  11.098   1.960   5.393 -0.0141 -0.3012  0.3652
  618MOL0     C83305  11.034   2.005   5.530 -0.3153  0.2692  0.4270
  618MOL0     C83306  10.887   2.059   5.517  0.6035 -0.0502 -0.0975
  618MOL0     C83307  10.788   1.956   5.549 -0.1821  0.7870 -0.6080
  618MOL0     C83308  10.649   2.009   5.531  0.3001 -0.6778  0.2048
  618MOL0     C83309  10.538   1.902   5.537 -0.2875 -0.0076  0.5565
  618MOL0     C83310  10.410   1.989   5.535  0.4863  0.7228  0.0223
  618MOL0     C83311  10.278   1.910   5.508  0.1499 -0.4554  0.3619
  618MOL0     N83312  10.248   1.808   5.611 -0.4794 -0.1591 -0.3374
  618MOL0     C83313  10.163   1.823   5.723  0.0420 -0.9035 -0.2778
  618MOL0     C83314  10.145   1.700   5.775 -0.1030  1.0856 -0.0542
  618MOL0     C83315  10.056   1.674   5.905  0.7429  0.2561 -0.0724
  618MOL0     C83316   9.917   1.606   5.879 -0.1019  0.5226 -0.4206
  618MOL0     C83317   9.945   1.465   5.813  0.0658  0.1895 -0.1636
  618MOL0     C83318   9.824   1.384   5.810  0.6267 -0.2862  0.4079
  618MOL0     O83319   9.717   1.453   5.739  0.3399  0.1365  0.5602
  618MOL0     C83320   9.591   1.388   5.730 -0.2336  1.4635 -0.1022
  618MOL0     C83321   9.489   1.462   5.682  0.9846 -0.1103 -0.0039
  618MOL0     C83322   9.357   1.414   5.675  0.1241 -0.6472  0.3216
  618MOL0     C83323   9.332   1.287   5.718  0.8001 -0.7483  0.0197
  618MOL0     C83324   9.195   1.227   5.729 -0.0950  0.2794  0.2355
  618MOL0     O83325   9.199   1.111   5.798 -0.0494 -0.8043 -0.0144
  618MOL0     C83326   9.098   1.022   5.800  0.2852  0.1795 -0.3648
  618MOL0     C83327   9.122   0.884   5.779 -0.0824 -0.2485  0.2506
  618MOL0     C83328   9.018   0.799   5.804  0.3859 -0.1925  0.0969
  618MOL0     C83329   8.882   0.842   5.820 -0.4677 -0.7008 -0.4229
  618MOL0     O83330   8.765   0.777   5.814  0.1047 -0.0649 -0.4635
  618MOL0     C83331   8.762   0.634   5.780  0.4792 -0.7716 -0.2660
  618MOL0     C83332   8.609   0.605   5.760 -0.2702 -0.0372 -0.5405
  618MOL0     C83333   8.595   0.458   5.765 -0.1504  0.3387 -0.2809
  618MOL0     C83334   8.449   0.423   5.766 -0.8977 -0.3896  0.3090
  618MOL0     C83335   8.400   0.278   5.764 -0.1639  0.5534  0.1184
  618MOL0     C83336   8.485   0.190   5.853  0.3452 -0.0358 -0.4805
  618MOL0     C83337   8.433   0.047   5.869  0.9750 -0.2904 -0.0557
  618MOL0     C83338   8.534  -0.035   5.952  0.1740 -0.9050  0.4497
  618MOL0    Cl83339   8.532   0.021   6.128  0.0245  0.1611  0.4450
  618MOL0     C83340   8.858   0.980   5.839  0.0548  0.1277  0.3560
  618MOL0     C83341   8.968   1.065   5.843 -0.1224 -0.8442  0.0259
  618MOL0     O83342   9.098   1.287   5.682 -0.0165 -0.5552 -0.2863
  618MOL0     C83343   9.446   1.213   5.764  0.2265  0.8267  0.3409
  618MOL0     C83344   9.570   1.262   5.767  0.3563  0.3348  1.0365
  618MOL0     N83345  10.223   1.615   5.695  0.8878  0.1868 -0.3753
  618MOL0     N83346  10.293   1.684   5.616  0.5403  0.3833  0.7694
  618MOL0     C83347  11.000   2.044   5.078 -0.4571 -0.1565 -0.6827
  618MOL0     C83348  10.984   1.996   4.948 -0.8617  0.0447  0.3378
  618MOL0     C83349  11.078   1.706   4.595  0.7923  0.2059 -0.0587
  618MOL0     C83350  10.948   1.668   4.632 -0.5427  0.0744  0.0348
  618MOL0     C83351  10.868   1.597   4.540  0.2290  0.2979 -0.7661
  618MOL0     C83352  10.905   1.565   4.414  0.3069 -0.4074  0.0665
  618MOL0     O83353  10.812   1.496   4.336 -0.4851  0.0247  0.0880
  618MOL0     C83354  10.847   1.434   4.212  0.7074  0.1849  0.4451
  618MOL0     C83355  10.867   1.532   4.102 -0.3640  0.0594  0.1318
  618MOL0     C83356  10.751   1.632   4.095 -0.0351  0.3773 -0.0875
  618MOL0     C83357  10.777   1.758   4.010  0.1167  0.5005  0.3346
  618MOL0     C83358  10.800   1.711   3.872 -0.7679  0.2849  0.8551
  618MOL0     C83359  10.794   1.701   3.750 -0.7932  0.4758  0.1151
  618MOL0     C83360  11.036   1.612   4.382 -0.0277 -0.2131  0.8670
  618MOL0     C83361  11.124   1.683   4.467 -0.7311 -0.1679  0.8156
  618MOL0     C83362  11.253   1.711   4.408  0.0478 -0.2487 -0.4472
  618MOL0     H83363  11.300   1.854   4.946  2.4959  1.5913  1.2024
  618MOL0     H83364  11.301   1.942   5.187  2.5132  1.1092 -2.2228
  618MOL0     H83365  11.043   1.872   5.357 -1.9064 -0.2431  2.8428
  618MOL0     H83366  11.205   1.945   5.412  0.2199  2.7332  1.9720
  618MOL0     H83367  11.107   2.076   5.568 -0.4531  0.2835  0.6675
  618MOL0     H83368  11.041   1.914   5.590  1.2146  0.7789  1.0667
  618MOL0     H83369  10.855   2.116   5.430  0.0363  0.1528  0.2358
  618MOL0     H83370  10.875   2.140   5.590 -1.2196  0.7166 -1.1760
  618MOL0     H83371  10.796   1.869   5.483 -1.6930 -1.0505  1.5142
  618MOL0     H83372  10.817   1.904   5.641  1.5746  0.7815 -1.1164
  618MOL0     H83373  10.634   2.092   5.601  2.0788  2.6000 -2.9621
  618MOL0     H83374  10.657   2.052   5.430  0.5975 -0.7281  0.2052
  618MOL0     H83375  10.546   1.843   5.445 -1.6367  3.2198 -1.8670
  618MOL0     H83376  10.536   1.838   5.625 -0.0933 -0.2377  0.3947
  618MOL0     H83377  10.411   2.067   5.459  3.4686  0.1632 -0.6471
  618MOL0     H83378  10.405   2.029   5.637 -1.8853 -1.8532  1.0404
  618MOL0     H83379  10.195   1.979   5.491 -0.1472 -0.4084  1.8342
  618MOL0     H83380  10.296   1.851   5.418  2.1304  0.8068 -0.1332
  618MOL0     H83381  10.128   1.917   5.763  2.7583  0.2084 -0.2735
  618MOL0     H83382  10.105   1.624   5.989  0.8606  1.5121  0.6405
  618MOL0     H83383  10.014   1.767   5.946 -5.4766 -2.2559  0.3393
  618MOL0     H83384   9.852   1.606   5.967 -0.3339  2.1466 -0.5591
  618MOL0     H83385   9.857   1.659   5.804 -2.5100 -5.0353 -2.9670
  618MOL0     H83386  10.012   1.407   5.877 -1.1130 -1.0294  0.0210
  618MOL0     H83387   9.969   1.466   5.706 -1.7482  3.7683 -0.6831
  618MOL0     H83388   9.792   1.374   5.915 -1.7664  0.4835 -0.1727
  618MOL0     H83389   9.834   1.284   5.769 -1.2879 -0.1376 -0.5257
  618MOL0     H83390   9.511   1.561   5.644  1.1548 -0.5404 -1.0557
  618MOL0     H83391   9.271   1.470   5.639 -0.7721  0.2975  3.5852
  618MOL0     H83392   9.223   0.862   5.746 -0.7726 -0.7477 -1.6076
  618MOL0     H83393   9.041   0.693   5.811 -0.4893 -0.7295 -3.5078
  618MOL0     H83394   8.821   0.630   5.688  1.8321  0.0932  0.5323
  618MOL0     H83395   8.818   0.573   5.851  4.5932  2.1379 -0.6627
  618MOL0     H83396   8.548   0.647   5.842  0.9226  0.8820 -0.0959
  618MOL0     H83397   8.568   0.646   5.667  1.0905  1.5506 -0.4850
  618MOL0     H83398   8.644   0.410   5.679 -0.3707 -0.8135  0.2208
  618MOL0     H83399   8.646   0.422   5.855  1.0905 -1.5326 -1.6482
  618MOL0     H83400   8.402   0.480   5.685 -0.4682 -2.9182 -1.8780
  618MOL0     H83401   8.410   0.463   5.860 -0.4456 -1.2478  0.8804
  618MOL0     H83402   8.423   0.236   5.665 -0.1506 -0.1423  0.4083
  618MOL0     H83403   8.294   0.280   5.789  0.3261 -1.4935  2.8581
  618MOL0     H83404   8.582   0.189   5.803  0.6985 -0.7314  0.1978
  618MOL0     H83405   8.499   0.238   5.951  3.4937 -1.6930  0.0337
  618MOL0     H83406   8.422   0.011   5.767 -2.5171 -1.9009  0.7640
  618MOL0     H83407   8.334   0.045   5.916  1.2862 -2.9463  0.6214
  618MOL0     H83408   8.506  -0.139   5.931  0.4639 -0.6278 -1.5067
  618MOL0     H83409   8.633  -0.034   5.905 -0.9311  0.1106 -2.0287
  618MOL0     H83410   8.755   1.004   5.864 -0.9939 -2.1956 -1.3640
  618MOL0     H83411   8.946   1.168   5.869 -0.3989 -0.8695 -0.1108
  618MOL0     H83412   9.438   1.109   5.793 -2.8367  1.4082  2.0879
  618MOL0     H83413   9.645   1.199   5.814 -0.6985 -1.2991  0.6293
  618MOL0     H83414  10.930   2.116   5.119 -2.0634 -2.0303  0.0404
  618MOL0     H83415  10.895   2.016   4.890 -0.8445 -2.2253 -0.5699
  618MOL0     H83416  10.908   1.690   4.730  0.6340  1.7393  0.1864
  618MOL0     H83417  10.769   1.571   4.576  0.5342 -2.3961 -1.6459
  618MOL0     H83418  10.775   1.355   4.192  2.8461 -1.9542  0.7165
  618MOL0     H83419  10.939   1.376   4.223  0.2920 -0.6893 -0.5750
  618MOL0     H83420  10.885   1.475   4.010  1.2478 -2.1769  1.7111
  618MOL0     H83421  10.957   1.590   4.120 -1.1919  1.3502  0.2497
  618MOL0     H83422  10.723   1.669   4.195 -0.2502  0.9028 -0.3389
  618MOL0     H83423  10.661   1.584   4.054 -0.2645  1.2803 -0.6589
  618MOL0     H83424  10.687   1.819   4.008 -1.5589 -1.8449 -0.3313
  618MOL0     H83425  10.854   1.817   4.061 -0.7367  0.5542  1.6178
  618MOL0     H83426  10.797   1.697   3.643  2.3128  1.1653  0.0922
  618MOL0     H83427  11.070   1.584   4.283 -0.0428 -2.9144  1.5360
  618MOL0     H83428  11.322   1.630   4.432 -1.3954 -1.1037  0.9913
  618MOL0     H83429  11.251   1.716   4.299  0.0845 -2.2503 -0.5756
  618MOL0     H83430  11.285   1.802   4.461 -0.8655 -0.7916  1.1158
  619MOL0     O83431   4.981  10.444   6.115  0.0699 -0.5502  0.2601
  619MOL0     C83432   4.876  10.377   6.101  0.1138  0.4375 -0.6037
  619MOL0     O83433   4.869  10.248   6.068 -0.0599  0.0039  0.1617
  619MOL0     C83434   4.986  10.174   6.068 -0.9328  0.2425 -0.4304
  619MOL0     C83435   5.075  10.175   6.178  0.8751  0.3652 -0.1043
  619MOL0     C83436   5.195  10.113   6.175  0.1682  1.0008 -0.0817
  619MOL0     C83437   5.231  10.040   6.049  0.3442  0.0478 -0.3663
  619MOL0     O83438   5.354   9.976   6.034 -0.2687 -0.0747  0.1510
  619MOL0     C83439   5.381   9.887   6.139  0.0262  0.0121 -0.8258
  619MOL0     C83440   5.472   9.777   6.096  0.9281 -0.3571  0.7038
  619MOL0     C83441   5.380   9.655   6.035  0.9454  0.5169  0.3622
  619MOL0     C83442   5.277   9.691   5.931 -0.0030  0.4398 -0.6793
  619MOL0     C83443   5.239   9.581   5.842  0.1181  0.0609 -0.0391
  619MOL0     C83444   5.115   9.614   5.756  0.6167 -0.3719  0.7027
  619MOL0     C83445   5.106   9.516   5.637 -0.2061  0.7057 -0.8024
  619MOL0     C83446   4.968   9.522   5.564 -0.5651 -1.1781 -0.3414
  619MOL0     N83447   4.855   9.521   5.647  0.2084 -0.3286 -0.3383
  619MOL0     C83448   4.835   9.431   5.746  0.2620 -1.1809  0.2574
  619MOL0     C83449   4.705   9.442   5.774 -1.0450  0.0691  0.7858
  619MOL0     C83450   4.643   9.363   5.882  0.2999  0.5340  0.1691
  619MOL0     C83451   4.537   9.266   5.826  0.2243 -1.2171  0.9497
  619MOL0     C83452   4.607   9.169   5.724 -0.1578 -0.6119 -0.3260
  619MOL0     C83453   4.627   9.209   5.583  0.1293 -0.3873 -0.0670
  619MOL0     O83454   4.680   9.105   5.499  0.3292  0.0952  0.2165
  619MOL0     C83455   4.642   9.115   5.364 -1.0687  0.1564  0.3884
  619MOL0     C83456   4.742   9.161   5.274  0.6261 -0.2189 -0.7759
  619MOL0     C83457   4.704   9.172   5.136 -0.3343 -0.2659  0.9562
  619MOL0     C83458   4.582   9.117   5.080 -1.4109 -0.1184 -0.1243
  619MOL0     C83459   4.566   9.098   4.932  0.4983 -0.4801 -0.0903
  619MOL0     O83460   4.690   9.088   4.867  0.3005 -0.1799  0.0700
  619MOL0     C83461   4.709   9.103   4.733  0.1070  0.9881  0.1269
  619MOL0     C83462   4.618   9.056   4.637 -0.2097 -0.3879  0.1860
  619MOL0     C83463   4.651   9.069   4.502  0.0602  1.2714  0.6836
  619MOL0     C83464   4.756   9.149   4.460 -0.2799  0.0419 -0.2543
  619MOL0     O83465   4.791   9.193   4.332  0.2283 -0.0776 -0.0933
  619MOL0     C83466   4.707   9.160   4.216 -0.3573 -0.0038  0.4947
  619MOL0     C83467   4.565   9.226   4.221  0.0257  0.2407  0.5277
  619MOL0     C83468   4.551   9.370   4.244  0.8497  0.0108 -0.8557
  619MOL0     C83469   4.406   9.419   4.205  0.4131  0.6465 -0.3521
  619MOL0     C83470   4.393   9.567   4.248  0.0432  0.3861  0.6020
  619MOL0     C83471   4.441   9.666   4.140  0.1634 -0.0997 -0.7776
  619MOL0     C83472   4.482   9.798   4.197  0.0167 -0.4787  0.0941
  619MOL0     C83473   4.522   9.896   4.089 -1.1946 -1.5407 -0.1107
  619MOL0    Cl83474   4.652   9.831   3.977  0.3405  0.1353  0.2062
  619MOL0     C83475   4.849   9.191   4.564 -0.4552 -0.6137 -0.2545
  619MOL0     C83476   4.828   9.161   4.696  0.5390 -0.5974 -0.0435
  619MOL0     O83477   4.452   9.107   4.882  0.4577 -0.4374 -0.5526
  619MOL0     C83478   4.487   9.072   5.178 -0.2111  0.2867 -0.5158
  619MOL0     C83479   4.518   9.076   5.319 -0.3735 -0.0574 -0.3315
  619MOL0     N83480   4.648   9.547   5.701  0.3897  0.9174 -0.8678
  619MOL0     N83481   4.743   9.588   5.628  0.1598 -0.6886  0.5315
  619MOL0     C83482   5.137  10.039   5.949  0.1364  0.1153 -0.2297
  619MOL0     C83483   5.021  10.107   5.951 -0.2150  0.2905 -0.2324
  619MOL0     C83484   4.758  10.460   6.123 -1.3653  0.6861 -0.2697
  619MOL0     C83485   4.642  10.388   6.168  0.2295 -0.5476 -0.5426
  619MOL0     C83486   4.530  10.458   6.213  1.1652 -0.7228  0.1498
  619MOL0     C83487   4.530  10.597   6.230 -0.2782 -0.1644 -0.9085
  619MOL0     O83488   4.423  10.668   6.277  0.2869  0.1125  0.3698
  619MOL0     C83489   4.441  10.775   6.358  0.5423 -0.1456 -0.8737
  619MOL0     C83490   4.306  10.833   6.405 -0.0980  0.1700  1.0482
  619MOL0     C83491   4.337  10.932   6.510  0.4990  0.4075 -0.8719
  619MOL0     C83492   4.206  10.996   6.579  0.6901  0.1143 -0.3894
  619MOL0     C83493   4.141  10.917   6.678  0.6580  0.1966 -0.0751
  619MOL0     C83494   4.095  10.868   6.777 -0.0120  0.1588 -0.1275
  619MOL0     C83495   4.634  10.662   6.164  0.1403 -0.8616 -0.2121
  619MOL0     C83496   4.747  10.597   6.108 -0.1813  0.8661  0.1229
  619MOL0     C83497   4.845  10.683   6.034  1.3951  0.1816  0.3142
  619MOL0     H83498   5.067  10.230   6.271 -0.1763 -4.3465  2.9890
  619MOL0     H83499   5.252  10.127   6.266 -2.8847  1.9177  1.8404
  619MOL0     H83500   5.422   9.940   6.226  0.0748 -2.9226  1.0888
  619MOL0     H83501   5.293   9.831   6.174 -1.3749  1.9204 -1.1182
  619MOL0     H83502   5.538   9.729   6.169 -2.0161  0.9936  4.5907
  619MOL0     H83503   5.533   9.812   6.013  1.2741 -1.8322  0.3050
  619MOL0     H83504   5.331   9.602   6.118  1.5348 -1.3667 -0.4356
  619MOL0     H83505   5.451   9.583   5.993  1.3107  1.6223 -0.9608
  619MOL0     H83506   5.191   9.738   5.980  0.4900  2.6984 -1.8429
  619MOL0     H83507   5.320   9.773   5.872 -1.8041  2.1401  0.2281
  619MOL0     H83508   5.328   9.554   5.784  1.0347  0.1839  1.2419
  619MOL0     H83509   5.214   9.489   5.895  0.6723 -0.4681 -0.6745
  619MOL0     H83510   5.030   9.601   5.824 -0.0849  4.4068  1.1247
  619MOL0     H83511   5.119   9.719   5.725 -0.0668 -0.2024  1.1531
  619MOL0     H83512   5.115   9.416   5.681 -2.5959  1.3297  1.3826
  619MOL0     H83513   5.185   9.539   5.566  1.5303  3.0331  1.7097
  619MOL0     H83514   4.945   9.608   5.500  0.1443 -1.8766 -1.5844
  619MOL0     H83515   4.965   9.442   5.490 -1.8242 -0.8652 -0.6545
  619MOL0     H83516   4.905   9.353   5.776  2.0985 -0.3480 -1.6168
  619MOL0     H83517   4.709   9.304   5.946 -0.9222 -0.0724  0.9100
  619MOL0     H83518   4.594   9.425   5.958 -0.8519 -3.1623  2.7217
  619MOL0     H83519   4.477   9.222   5.906 -2.0831  1.1093  0.6186
  619MOL0     H83520   4.465   9.327   5.772  1.0974  0.2492  1.3922
  619MOL0     H83521   4.535   9.087   5.711  1.1961 -1.6746 -1.5382
  619MOL0     H83522   4.701   9.134   5.768  0.8223  2.4469  0.2275
  619MOL0     H83523   4.681   9.303   5.568 -1.3109  0.2659 -1.4379
  619MOL0     H83524   4.529   9.226   5.538  0.4613 -1.3050 -1.1889
  619MOL0     H83525   4.842   9.178   5.312  0.3976 -1.4481  0.4521
  619MOL0     H83526   4.776   9.211   5.064  3.1567 -0.3719  4.0968
  619MOL0     H83527   4.539   8.986   4.663  1.8139 -1.6214  3.7551
  619MOL0     H83528   4.590   9.028   4.422 -1.6227 -0.2589  2.6668
  619MOL0     H83529   4.755   9.195   4.125 -1.4581  0.8117  0.2068
  619MOL0     H83530   4.685   9.053   4.211 -2.7019  0.4354  0.0624
  619MOL0     H83531   4.528   9.224   4.119 -1.9940 -0.3182  1.2179
  619MOL0     H83532   4.506   9.157   4.282 -1.6156  0.6111 -0.5655
  619MOL0     H83533   4.573   9.391   4.349 -0.2328  1.8165 -0.9388
  619MOL0     H83534   4.622   9.428   4.184  2.1580 -0.6717 -0.0267
  619MOL0     H83535   4.328   9.358   4.252  0.3213 -0.7696 -2.2276
  619MOL0     H83536   4.380   9.411   4.099 -1.9713 -1.2320  0.2766
  619MOL0     H83537   4.455   9.580   4.337  0.3209  0.1951  0.4362
  619MOL0     H83538   4.287   9.592   4.261 -0.4711 -0.6405 -1.2605
  619MOL0     H83539   4.527   9.620   4.092 -0.1196  1.2568 -2.6858
  619MOL0     H83540   4.378   9.698   4.057  1.9250 -0.5262 -2.3368
  619MOL0     H83541   4.567   9.776   4.262  0.8356 -2.3100 -1.4912
  619MOL0     H83542   4.394   9.833   4.252 -0.5085 -0.8633 -0.4875
  619MOL0     H83543   4.442   9.930   4.023  0.8077 -0.8170 -2.3595
  619MOL0     H83544   4.558   9.987   4.137  1.4806 -1.7646 -1.4799
  619MOL0     H83545   4.931   9.259   4.544 -3.5589  3.6439  0.2604
  619MOL0     H83546   4.892   9.191   4.778  0.8622 -5.8123  2.0280
  619MOL0     H83547   4.393   9.035   5.137  1.0428  1.3918 -4.8763
  619MOL0     H83548   4.443   9.048   5.394 -0.6442  0.1593 -0.5185
  619MOL0     H83549   5.159   9.981   5.860 -1.2596 -0.5043 -0.2152
  619MOL0     H83550   4.941  10.097   5.879 -1.1197  0.9937  0.6373
  619MOL0     H83551   4.650  10.280   6.173 -0.6443 -0.5690  3.0459
  619MOL0     H83552   4.446  10.394   6.242  3.2082 -3.3494  0.6857
  619MOL0     H83553   4.499  10.848   6.300 -1.0535  1.6195 -0.3624
  619MOL0     H83554   4.499  10.749   6.447 -0.3623 -0.0403 -0.2376
  619MOL0     H83555   4.242  10.753   6.444 -2.5379 -1.0835 -4.6017
  619MOL0     H83556   4.250  10.874   6.320 -0.2910 -1.3571  0.4061
  619MOL0     H83557   4.379  11.025   6.470 -0.2504  1.6415  1.0429
  619MOL0     H83558   4.400  10.890   6.590 -1.5893 -0.9997  0.1263
  619MOL0     H83559   4.237  11.084   6.636  0.3705 -0.3923  0.5976
  619MOL0     H83560   4.125  11.011   6.507 -1.1993 -1.6568  1.2363
  619MOL0     H83561   4.050  10.852   6.873  0.2131  0.6630  0.0628
  619MOL0     H83562   4.612  10.767   6.157 -0.0281 -0.9089 -0.4127
  619MOL0     H83563   4.918  10.633   5.969 -0.0996 -2.1468  0.2869
  619MOL0     H83564   4.782  10.743   5.967 -0.9514 -1.1535  1.1851
  619MOL0     H83565   4.904  10.736   6.108  1.8394 -1.2572  1.0305
  620MOL0     O83566  10.656  10.324   5.113  0.5586  0.1163 -0.8992
  620MOL0     C83567  10.697  10.218   5.057 -0.6521  0.1154 -1.5553
  620MOL0     O83568  10.664  10.181   4.935  0.6910 -0.0452 -1.0176
  620MOL0     C83569  10.559  10.229   4.856 -0.2721  0.5251  0.2695
  620MOL0     C83570  10.508  10.151   4.744  0.8521 -0.5910 -0.5518
  620MOL0     C83571  10.425  10.207   4.656  0.7938 -0.0935 -0.3992
  620MOL0     C83572  10.383  10.338   4.665 -0.3264 -0.5043  0.4843
  620MOL0     O83573  10.294  10.379   4.573  0.7305 -0.6126 -0.2200
  620MOL0     C83574  10.323  10.508   4.512 -0.4092  0.9640  0.7795
  620MOL0     C83575  10.262  10.540   4.383 -0.0294  0.2968  0.5274
  620MOL0     C83576  10.251  10.418   4.289 -0.0534  0.3063  0.3033
  620MOL0     C83577  10.218  10.459   4.152  0.1483 -0.2552 -0.1435
  620MOL0     C83578  10.190  10.337   4.061 -0.8185 -0.2909 -0.0081
  620MOL0     C83579  10.111  10.374   3.936  0.2084 -1.4254 -0.7113
  620MOL0     C83580  10.083  10.258   3.845  0.1758  0.6089 -0.1316
  620MOL0     C83581   9.991  10.159   3.914 -0.2860  0.6922  0.6973
  620MOL0     N83582   9.909  10.090   3.815  0.3130  0.3889 -0.2899
  620MOL0     C83583   9.974  10.007   3.726  0.6839 -0.2433  0.4550
  620MOL0     C83584   9.875   9.977   3.641  0.0140 -0.0613 -0.0495
  620MOL0     C83585   9.883   9.878   3.529  1.3255 -0.7504  0.1628
  620MOL0     C83586  10.017   9.824   3.498 -0.2672  0.4820  0.4278
  620MOL0     C83587  10.066   9.704   3.584 -0.0618 -0.5648 -0.6407
  620MOL0     C83588  10.007   9.567   3.542  0.1104  0.9389  0.2287
  620MOL0     O83589  10.060   9.535   3.411  0.8762 -0.4690  0.2495
  620MOL0     C83590  10.021   9.411   3.361 -0.4718 -0.3677  0.0547
  620MOL0     C83591  10.070   9.380   3.234  0.0997  0.2125 -0.5540
  620MOL0     C83592  10.037   9.257   3.178 -0.0440  0.6122 -0.2246
  620MOL0     C83593   9.952   9.166   3.239  0.4348 -0.5226 -0.4691
  620MOL0     C83594   9.899   9.039   3.183  0.7221  1.2786  0.0499
  620MOL0     O83595   9.931   9.012   3.051 -0.0778  0.3669  1.2478
  620MOL0     C83596   9.868   8.910   2.976  1.0381 -0.0629 -0.5243
  620MOL0     C83597   9.936   8.867   2.862 -0.0074 -0.2829 -0.5498
  620MOL0     C83598   9.880   8.767   2.787 -0.8245 -0.1442 -0.7023
  620MOL0     C83599   9.757   8.699   2.825  0.4753 -0.6835 -0.5058
  620MOL0     O83600   9.712   8.587   2.757 -0.1558 -1.0129 -0.2675
  620MOL0     C83601   9.806   8.499   2.697  0.2853  0.2877  0.0009
  620MOL0     C83602   9.751   8.360   2.653  1.1352 -0.2667 -0.0262
  620MOL0     C83603   9.843   8.267   2.594 -0.0045 -0.7424 -0.2328
  620MOL0     C83604   9.788   8.128   2.577  0.7356 -0.5220  0.2938
  620MOL0     C83605   9.679   8.103   2.474  0.7610  0.7037 -0.3426
  620MOL0     C83606   9.597   7.977   2.501  0.4989 -0.0819  0.5832
  620MOL0     C83607   9.478   7.999   2.607  0.0327  1.1616  0.1598
  620MOL0     C83608   9.395   7.871   2.622 -0.2519 -0.8727  0.1919
  620MOL0    Cl83609   9.265   7.874   2.745  0.2752  0.0173  0.5426
  620MOL0     C83610   9.692   8.739   2.945  0.2401 -1.6806  0.8984
  620MOL0     C83611   9.739   8.857   3.011 -0.4938  0.7348  0.2549
  620MOL0     O83612   9.871   8.949   3.260  0.8111 -0.3491 -0.4954
  620MOL0     C83613   9.898   9.204   3.367  0.3877 -0.2609  0.5490
  620MOL0     C83614   9.933   9.322   3.424 -0.7598  0.6786 -1.0328
  620MOL0     N83615   9.755  10.052   3.675 -0.8211 -0.1017  0.1948
  620MOL0     N83616   9.787  10.121   3.775  0.3790 -0.1538  0.1880
  620MOL0     C83617  10.431  10.411   4.776 -0.3344 -0.2780 -0.6487
  620MOL0     C83618  10.517  10.360   4.862  0.2384  0.1538 -1.0495
  620MOL0     C83619  10.770  10.114   5.139 -0.2804  0.3643  1.2436
  620MOL0     C83620  10.857  10.031   5.070  0.6032  0.3151 -0.3781
  620MOL0     C83621  10.931   9.930   5.142  0.5471 -0.0862  0.2355
  620MOL0     C83622  10.914   9.918   5.280  0.0594 -0.0637 -0.0974
  620MOL0     O83623  10.966   9.822   5.363  0.5974  0.0807  0.2970
  620MOL0     C83624  11.068   9.736   5.316  0.4671  0.0558 -0.3514
  620MOL0     C83625  11.172   9.718   5.433  0.9651  0.4813  0.5630
  620MOL0     C83626  11.246   9.852   5.443  0.8551 -0.1284 -0.1841
  620MOL0     C83627  11.355   9.860   5.341 -0.8600 -0.8554  0.4723
  620MOL0     C83628  11.477   9.933   5.380 -0.0951 -0.8724 -0.4518
  620MOL0     C83629  11.583   9.979   5.415 -0.3337 -0.1416  0.5812
  620MOL0     C83630  10.834  10.011   5.351 -0.2095  0.8294  0.8163
  620MOL0     C83631  10.772  10.113   5.283  0.6763 -0.4163 -0.6198
  620MOL0     C83632  10.686  10.198   5.376 -0.3039  0.0927  1.0134
  620MOL0     H83633  10.527  10.044   4.734  0.0429 -0.9347  1.3126
  620MOL0     H83634  10.368  10.136   4.598 -2.0970  0.4805  1.5304
  620MOL0     H83635  10.296  10.593   4.575 -1.7856  3.0540 -2.3799
  620MOL0     H83636  10.431  10.514   4.492 -0.8686 -0.1517 -2.7081
  620MOL0     H83637  10.315  10.618   4.329  0.4360  1.3175  2.3708
  620MOL0     H83638  10.166  10.590   4.402 -1.2713 -0.7820 -2.3358
  620MOL0     H83639  10.171  10.349   4.318  1.9209 -2.5078 -0.5418
  620MOL0     H83640  10.335  10.349   4.277 -0.1868  0.0086  1.0247
  620MOL0     H83641  10.127  10.519   4.158  0.6256  0.5956 -1.0954
  620MOL0     H83642  10.300  10.520   4.113 -0.3404  0.4310 -0.1197
  620MOL0     H83643  10.281  10.291   4.021 -2.5670 -1.6929 -2.6647
  620MOL0     H83644  10.136  10.261   4.118 -0.0153  0.2986  1.6026
  620MOL0     H83645  10.011  10.414   3.953 -0.0559 -1.3567 -2.2593
  620MOL0     H83646  10.169  10.449   3.883  0.8258 -0.4487  1.2370
  620MOL0     H83647  10.176  10.208   3.818  2.3352  1.8400  4.0997
  620MOL0     H83648  10.026  10.295   3.759 -1.3489 -3.8152 -1.3162
  620MOL0     H83649  10.060  10.090   3.964  2.7335  2.5079 -0.6188
  620MOL0     H83650   9.926  10.212   3.984 -0.8272  0.4053  0.4194
  620MOL0     H83651  10.080   9.981   3.722  0.5346 -1.2724  2.2281
  620MOL0     H83652   9.808   9.802   3.553  0.6939  0.2317  1.3770
  620MOL0     H83653   9.850   9.932   3.440  2.8885 -0.3783 -0.2113
  620MOL0     H83654  10.022   9.792   3.393  0.7001 -0.9568  0.8844
  620MOL0     H83655  10.088   9.906   3.506 -0.7802  0.7635  2.3970
  620MOL0     H83656  10.059   9.727   3.691 -1.6610 -0.8691 -0.6536
  620MOL0     H83657  10.172   9.687   3.567  0.0347 -2.3413  1.3307
  620MOL0     H83658   9.898   9.575   3.540  0.0748  1.1155  1.6119
  620MOL0     H83659  10.033   9.487   3.612  0.2730 -1.3662 -2.3228
  620MOL0     H83660  10.144   9.444   3.187  2.5010 -2.6642 -0.9680
  620MOL0     H83661  10.083   9.232   3.083 -1.1795  2.1922 -1.2338
  620MOL0     H83662  10.037   8.898   2.837 -0.8756  1.1082 -2.5788
  620MOL0     H83663   9.944   8.723   2.711  0.0173  1.9133 -1.2612
  620MOL0     H83664   9.862   8.544   2.614  1.2852  2.8903  1.9756
  620MOL0     H83665   9.879   8.480   2.775 -1.4825  1.3002  2.0199
  620MOL0     H83666   9.712   8.314   2.744 -0.6350 -0.9200 -1.0704
  620MOL0     H83667   9.669   8.370   2.581  3.1198 -0.3132 -2.4511
  620MOL0     H83668   9.860   8.301   2.491 -1.8530 -0.5969 -0.5165
  620MOL0     H83669   9.936   8.253   2.650  0.5094 -2.7587 -1.4808
  620MOL0     H83670   9.762   8.106   2.681  0.0107  1.3835  0.5500
  620MOL0     H83671   9.861   8.051   2.551 -2.6428 -3.8736 -0.3094
  620MOL0     H83672   9.733   8.084   2.381  0.4266  0.5790 -0.5124
  620MOL0     H83673   9.615   8.191   2.463  1.1885  0.7800 -2.9793
  620MOL0     H83674   9.545   7.967   2.405  0.2219  1.2403  0.5677
  620MOL0     H83675   9.643   7.885   2.538  0.0032 -0.4046  0.4122
  620MOL0     H83676   9.414   8.083   2.579  1.1029  2.4642  1.4550
  620MOL0     H83677   9.526   8.022   2.703  0.3347  3.6318 -0.5293
  620MOL0     H83678   9.349   7.853   2.525 -1.5917 -1.1774  0.8618
  620MOL0     H83679   9.471   7.793   2.630  1.4235  0.6002 -0.6764
  620MOL0     H83680   9.599   8.689   2.969 -1.8747  1.1703 -0.7219
  620MOL0     H83681   9.677   8.893   3.093 -1.8170  1.8481 -1.1808
  620MOL0     H83682   9.825   9.146   3.423  0.5411  0.4396  1.5118
  620MOL0     H83683   9.899   9.347   3.524 -1.8877  0.5254 -1.3631
  620MOL0     H83684  10.401  10.514   4.796  0.0370 -0.1442 -0.7652
  620MOL0     H83685  10.543  10.435   4.936 -0.8447 -2.4534  2.2931
  620MOL0     H83686  10.862  10.027   4.962  1.4904 -0.2678 -0.3323
  620MOL0     H83687  10.979   9.856   5.079  1.5357  0.8348 -0.1146
  620MOL0     H83688  11.105   9.776   5.221 -0.4963  0.9634 -0.3603
  620MOL0     H83689  11.036   9.632   5.307  3.5525 -0.8853 -2.2652
  620MOL0     H83690  11.245   9.639   5.412  2.5592  1.9940  0.1500
  620MOL0     H83691  11.127   9.689   5.528  1.3741  0.8433  0.8716
  620MOL0     H83692  11.291   9.854   5.543  1.6727  0.7646 -0.5617
  620MOL0     H83693  11.177   9.936   5.437  0.4382 -0.4916 -0.6473
  620MOL0     H83694  11.397   9.761   5.321  3.2239  1.0059 -1.3450
  620MOL0     H83695  11.321   9.912   5.251  2.7931  2.1359  0.6170
  620MOL0     H83696  11.674  10.024   5.447  0.5721 -2.1802  1.0343
  620MOL0     H83697  10.840   9.998   5.458  3.3098 -3.7177  0.3508
  620MOL0     H83698  10.717  10.303   5.378  2.2452 -0.5981  1.4886
  620MOL0     H83699  10.579  10.189   5.354  0.1469 -2.7931 -0.4688
  620MOL0     H83700  10.701  10.163   5.478 -0.5553 -2.7754  0.1495
  621MOL0     O83701   8.328   6.405   0.370 -0.6842  0.1294 -0.5256
  621MOL0     C83702   8.428   6.426   0.303  0.5833  0.0264 -0.1597
  621MOL0     O83703   8.551   6.364   0.305  0.7477  0.0766 -0.3884
  621MOL0     C83704   8.572   6.261   0.396 -0.2762 -0.3717 -0.3128
  621MOL0     C83705   8.535   6.281   0.528  0.2724  0.2235 -0.3327
  621MOL0     C83706   8.547   6.166   0.616 -0.3320 -0.0003 -0.0169
  621MOL0     C83707   8.599   6.046   0.567 -0.2165 -0.4250  0.2116
  621MOL0     O83708   8.619   5.945   0.651 -0.5820  0.3137 -0.2834
  621MOL0     C83709   8.741   5.874   0.635 -0.0231 -0.1000 -0.0967
  621MOL0     C83710   8.713   5.739   0.582  0.4724 -0.2639 -0.0104
  621MOL0     C83711   8.771   5.617   0.652 -0.5872  0.5797 -0.3402
  621MOL0     C83712   8.910   5.583   0.576 -0.1771  1.0485  0.3692
  621MOL0     C83713   8.967   5.461   0.648  0.4740  0.1707  0.2639
  621MOL0     C83714   8.896   5.323   0.613  0.4593 -0.3858 -0.3541
  621MOL0     C83715   8.990   5.217   0.650  0.2096  0.4458  0.4067
  621MOL0     C83716   8.915   5.086   0.640  1.2197  0.2990 -0.1280
  621MOL0     N83717   9.016   4.986   0.667 -0.1802  0.5391  0.5175
  621MOL0     C83718   9.111   4.949   0.571 -0.1594  0.2143  0.0429
  621MOL0     C83719   9.183   4.855   0.636  0.5345 -0.4129  0.9806
  621MOL0     C83720   9.282   4.755   0.580  0.0078 -1.0039 -0.3839
  621MOL0     C83721   9.240   4.602   0.606 -0.2914  0.1773 -0.2417
  621MOL0     C83722   9.339   4.516   0.521 -0.3434 -0.3331 -0.5058
  621MOL0     C83723   9.483   4.527   0.574  0.7270 -0.4918 -0.7539
  621MOL0     O83724   9.576   4.458   0.488 -0.6288 -0.4653 -0.5728
  621MOL0     C83725   9.708   4.435   0.543  0.8899 -0.2358 -0.2067
  621MOL0     C83726   9.792   4.339   0.491 -0.4916  0.5258  0.6043
  621MOL0     C83727   9.922   4.330   0.518  0.2135  0.4518 -0.9734
  621MOL0     C83728   9.979   4.427   0.605  0.5013  0.9123 -0.6358
  621MOL0     C83729  10.121   4.411   0.638  0.1758  0.5231  0.0987
  621MOL0     O83730  10.182   4.290   0.621 -0.9017 -0.1723 -0.5720
  621MOL0     C83731  10.319   4.271   0.638  0.2123 -0.0197  0.3227
  621MOL0     C83732  10.380   4.177   0.566  0.4263  0.3827  0.0801
  621MOL0     C83733  10.525   4.171   0.561  0.2362 -0.1995  0.1440
  621MOL0     C83734  10.606   4.237   0.657 -1.6341  0.8185  0.8068
  621MOL0     O83735  10.745   4.222   0.683  0.6872 -0.1950  0.7637
  621MOL0     C83736  10.815   4.121   0.599  0.0928 -0.2169  0.1961
  621MOL0     C83737  10.967   4.125   0.635  1.0097 -0.3623  0.3683
  621MOL0     C83738  11.035   3.993   0.597 -0.1818 -0.3037 -0.8247
  621MOL0     C83739  11.023   3.955   0.446  0.7283 -0.2260 -0.1032
  621MOL0     C83740  11.119   3.842   0.423  0.0930 -0.5647  0.0880
  621MOL0     C83741  11.128   3.788   0.279 -0.2678 -0.0915 -0.1464
  621MOL0     C83742  11.011   3.704   0.221 -0.8514 -0.4294 -0.4540
  621MOL0     C83743  10.901   3.793   0.165  0.3896  0.4347 -0.0625
  621MOL0    Cl83744  10.768   3.688   0.097  0.2938 -0.3095 -0.1909
  621MOL0     C83745  10.536   4.321   0.739  0.5288 -0.3323 -0.5886
  621MOL0     C83746  10.399   4.342   0.725  0.9107  0.2798  0.4328
  621MOL0     O83747  10.170   4.515   0.695  0.0185 -0.3361  0.9453
  621MOL0     C83748   9.895   4.519   0.668 -0.0897  0.3507  0.8721
  621MOL0     C83749   9.761   4.519   0.644  0.0948 -0.6434 -0.1432
  621MOL0     N83750   9.143   4.843   0.766  0.5380 -0.3401  0.2381
  621MOL0     N83751   9.042   4.921   0.786 -0.1147 -0.1922 -0.0544
  621MOL0     C83752   8.613   6.031   0.432  0.1849  0.6313 -0.3492
  621MOL0     C83753   8.604   6.138   0.340 -0.0780  0.9153 -0.1588
  621MOL0     C83754   8.426   6.548   0.223 -0.1023 -0.0599  0.8503
  621MOL0     C83755   8.537   6.638   0.246  0.2015  0.5570  1.2487
  621MOL0     C83756   8.532   6.753   0.161  0.9143 -0.0484 -0.0148
  621MOL0     C83757   8.439   6.781   0.064  0.3718  0.3266  0.0772
  621MOL0     O83758   8.454   6.885  -0.030  0.7304  0.5143 -0.7694
  621MOL0     C83759   8.434   6.847  -0.167  0.0774  0.0724 -0.3133
  621MOL0     C83760   8.541   6.740  -0.208  0.7809 -0.0972  0.3736
  621MOL0     C83761   8.531   6.717  -0.359 -0.0084  0.2849  0.1300
  621MOL0     C83762   8.392   6.665  -0.413 -0.3101 -0.4430 -0.3391
  621MOL0     C83763   8.327   6.563  -0.322  0.2011 -0.2123  0.1844
  621MOL0     C83764   8.267   6.479  -0.255  0.2558  0.2176  0.4845
  621MOL0     C83765   8.332   6.687   0.051  0.4302 -0.6558 -0.5264
  621MOL0     C83766   8.331   6.569   0.127  0.3231 -0.5574  0.0365
  621MOL0     C83767   8.214   6.479   0.099  0.6384  0.1924  0.3087
  621MOL0     H83768   8.515   6.378   0.573 -1.4517 -0.8644  1.3774
  621MOL0     H83769   8.527   6.189   0.720  2.4857  3.3631 -0.0609
  621MOL0     H83770   8.810   5.922   0.565 -2.4975  0.4849 -2.2559
  621MOL0     H83771   8.794   5.858   0.730  0.9874  1.5304 -0.3521
  621MOL0     H83772   8.734   5.732   0.475 -3.5185  0.4597 -1.0226
  621MOL0     H83773   8.606   5.727   0.600  0.5335  0.6251  1.0494
  621MOL0     H83774   8.701   5.534   0.640 -0.0886 -0.1629  1.5122
  621MOL0     H83775   8.780   5.650   0.756 -4.5294  2.1469 -0.3175
  621MOL0     H83776   8.894   5.570   0.468  3.1439  1.5507 -0.3130
  621MOL0     H83777   8.969   5.674   0.591 -0.8545  1.8169 -1.3425
  621MOL0     H83778   9.072   5.452   0.618  0.0564  0.9873 -1.5784
  621MOL0     H83779   8.968   5.483   0.755 -1.3165 -2.5310  0.9300
  621MOL0     H83780   8.794   5.325   0.652 -0.7151  1.5000 -3.1704
  621MOL0     H83781   8.878   5.320   0.505 -2.1196  1.3714 -0.0508
  621MOL0     H83782   9.029   5.224   0.751 -1.0710 -0.0136  0.9556
  621MOL0     H83783   9.067   5.213   0.573  0.5886 -0.9091  0.8329
  621MOL0     H83784   8.829   5.080   0.707 -0.1305 -0.8766 -1.8726
  621MOL0     H83785   8.878   5.079   0.538 -0.4104  1.0914  0.3773
  621MOL0     H83786   9.125   4.979   0.468 -0.5295  2.3618  0.5504
  621MOL0     H83787   9.298   4.770   0.473  0.3726 -5.5319 -1.1719
  621MOL0     H83788   9.373   4.776   0.638  0.0710  1.3392 -1.2445
  621MOL0     H83789   9.249   4.580   0.712 -1.6357 -1.3303 -0.4063
  621MOL0     H83790   9.136   4.581   0.578 -0.7604  1.3128  0.5910
  621MOL0     H83791   9.339   4.560   0.421 -3.0191  3.9905  1.1101
  621MOL0     H83792   9.301   4.414   0.528 -2.0249  0.3700  1.5597
  621MOL0     H83793   9.475   4.498   0.679 -1.7872  1.3917 -0.3189
  621MOL0     H83794   9.518   4.630   0.567 -2.9577  0.9280 -0.7384
  621MOL0     H83795   9.752   4.259   0.429  1.7620  2.3787 -3.6268
  621MOL0     H83796   9.977   4.244   0.481  3.2795  0.4586  2.8880
  621MOL0     H83797  10.324   4.119   0.493 -2.4284  0.4310  2.0849
  621MOL0     H83798  10.559   4.082   0.509 -0.1480 -1.5967  2.1668
  621MOL0     H83799  10.771   4.022   0.614  0.2409 -0.3827 -0.4468
  621MOL0     H83800  10.805   4.138   0.491 -1.2112 -0.5299  0.2483
  621MOL0     H83801  11.009   4.214   0.587 -1.8523  0.9934  0.1948
  621MOL0     H83802  10.973   4.146   0.743 -3.5618  1.1068  0.5197
  621MOL0     H83803  11.138   4.016   0.626 -0.5602  3.3901 -1.9444
  621MOL0     H83804  10.987   3.916   0.659 -1.8787  1.6013  0.3425
  621MOL0     H83805  11.046   4.045   0.388 -2.8486  1.1498  0.4028
  621MOL0     H83806  10.919   3.941   0.417  0.2870  0.0276  1.2973
  621MOL0     H83807  11.089   3.762   0.491  0.6479  0.7737  1.9933
  621MOL0     H83808  11.220   3.875   0.450 -0.1214 -2.1564  3.2490
  621MOL0     H83809  11.153   3.871   0.212 -3.6687 -0.0906 -1.5930
  621MOL0     H83810  11.217   3.725   0.290 -0.3814 -0.0738  1.0431
  621MOL0     H83811  10.980   3.622   0.287 -2.2531 -0.3159 -0.9399
  621MOL0     H83812  11.053   3.654   0.133  1.0215 -3.4461  1.9222
  621MOL0     H83813  10.860   3.847   0.251 -0.7169 -1.0260  0.3464
  621MOL0     H83814  10.945   3.866   0.096 -1.5910  1.5812 -0.1721
  621MOL0     H83815  10.600   4.370   0.812  1.7123  2.2986 -3.1643
  621MOL0     H83816  10.348   4.403   0.799  0.0742  0.3009 -0.1363
  621MOL0     H83817   9.929   4.606   0.723 -0.5583  2.5153 -2.0461
  621MOL0     H83818   9.709   4.602   0.689  1.0790 -1.5691  3.0197
  621MOL0     H83819   8.630   5.941   0.373  3.2133  0.1066  1.1464
  621MOL0     H83820   8.608   6.112   0.235 -2.4463 -0.7842  0.0879
  621MOL0     H83821   8.626   6.626   0.307 -0.4058 -0.2242  1.9886
  621MOL0     H83822   8.614   6.825   0.157  1.3305 -0.5450 -0.6960
  621MOL0     H83823   8.434   6.939  -0.225  5.1116  1.2316  0.9812
  621MOL0     H83824   8.337   6.807  -0.195  0.8483  0.1491 -3.4002
  621MOL0     H83825   8.530   6.646  -0.153 -0.6812  0.5517  1.2494
  621MOL0     H83826   8.643   6.773  -0.185  2.0965 -4.2314  1.3558
  621MOL0     H83827   8.596   6.634  -0.389 -2.2095 -0.5401 -2.9169
  621MOL0     H83828   8.563   6.806  -0.415  0.7974 -0.6593 -0.9833
  621MOL0     H83829   8.329   6.752  -0.432  2.2807  1.4835 -0.6086
  621MOL0     H83830   8.403   6.616  -0.510  4.1618 -0.1224 -0.2043
  621MOL0     H83831   8.190   6.425  -0.202  0.7222  1.4806  2.5683
  621MOL0     H83832   8.248   6.716  -0.011 -2.0810 -1.7303  2.1150
  621MOL0     H83833   8.143   6.519   0.027 -1.5975 -0.8928  1.7801
  621MOL0     H83834   8.234   6.375   0.072 -0.1461 -0.0682  0.7172
  621MOL0     H83835   8.157   6.479   0.193 -1.8217  1.0647 -1.0999
  622MOL0     O83836   4.299   3.395   6.392 -0.9002 -0.0361  0.0893
  622MOL0     C83837   4.208   3.372   6.474 -0.1053  0.4247 -0.3497
  622MOL0     O83838   4.078   3.410   6.459 -0.0644  0.3421  0.2954
  622MOL0     C83839   4.027   3.443   6.341  0.2433  0.1548  1.1671
  622MOL0     C83840   3.970   3.563   6.330 -0.8649  0.0983  0.8219
  622MOL0     C83841   3.946   3.620   6.203 -0.1162 -0.7573 -0.3345
  622MOL0     C83842   3.942   3.532   6.088  0.5319 -0.1406 -0.1512
  622MOL0     O83843   3.914   3.569   5.959  0.3914  0.3192 -0.0637
  622MOL0     C83844   3.884   3.706   5.940 -0.0875  0.2592  0.2847
  622MOL0     C83845   3.834   3.735   5.791  0.3630  0.1980 -0.0725
  622MOL0     C83846   3.953   3.752   5.682  0.9816 -0.3641 -0.6384
  622MOL0     C83847   3.894   3.761   5.539  0.8921 -0.7422 -0.1825
  622MOL0     C83848   3.751   3.827   5.514 -0.4348  0.7763  0.1698
  622MOL0     C83849   3.723   3.815   5.358  0.3539 -0.5390  0.2060
  622MOL0     C83850   3.584   3.867   5.329  0.0358 -0.2653 -0.3710
  622MOL0     C83851   3.537   3.848   5.180  0.0085 -0.4319  0.4566
  622MOL0     N83852   3.411   3.922   5.161 -0.0923 -0.5448  0.9359
  622MOL0     C83853   3.407   4.052   5.119 -0.4853 -0.7263  0.0364
  622MOL0     C83854   3.276   4.079   5.108 -0.2982  0.5961  0.5045
  622MOL0     C83855   3.207   4.210   5.080  0.2739 -0.1792 -0.0939
  622MOL0     C83856   3.197   4.238   4.925  0.5200 -0.4363  0.4747
  622MOL0     C83857   3.069   4.304   4.885 -0.5561  0.4931  0.0304
  622MOL0     C83858   3.044   4.439   4.949  0.0053  0.4893  0.0202
  622MOL0     O83859   2.921   4.497   4.942 -0.8679  0.4855 -0.4417
  622MOL0     C83860   2.846   4.474   4.830  0.1341 -0.1341 -0.0372
  622MOL0     C83861   2.742   4.382   4.848 -0.1197  0.8039 -0.0640
  622MOL0     C83862   2.653   4.343   4.743  1.7799 -0.0569  1.1768
  622MOL0     C83863   2.652   4.400   4.623 -0.4012  0.1870 -0.5212
  622MOL0     C83864   2.560   4.362   4.511 -1.3926 -1.0767  0.2156
  622MOL0     O83865   2.486   4.253   4.534 -0.3249  0.1400 -0.1214
  622MOL0     C83866   2.391   4.225   4.433 -0.4059 -0.4904 -0.9449
  622MOL0     C83867   2.390   4.090   4.405 -0.0209 -0.1332 -0.8344
  622MOL0     C83868   2.311   4.039   4.302 -0.4243  0.8482  0.2767
  622MOL0     C83869   2.218   4.114   4.230 -0.5786 -0.9160  0.3365
  622MOL0     O83870   2.134   4.055   4.136  0.1250 -0.0614 -0.4416
  622MOL0     C83871   2.071   4.131   4.035 -0.4443  0.1143 -0.6272
  622MOL0     C83872   1.988   4.028   3.960  0.2145 -0.0649 -0.8429
  622MOL0     C83873   1.900   4.098   3.855 -0.1297 -1.2209  0.2942
  622MOL0     C83874   1.779   4.182   3.911 -0.1897 -0.3020  0.7085
  622MOL0     C83875   1.655   4.178   3.815 -0.3063  1.1545 -0.0185
  622MOL0     C83876   1.689   4.277   3.705 -0.1202  0.4287 -0.7143
  622MOL0     C83877   1.564   4.286   3.609 -0.5209  0.4605  0.0186
  622MOL0     C83878   1.561   4.165   3.511  0.3673  0.1687  0.9793
  622MOL0    Cl83879   1.706   4.136   3.421  1.2363  0.0126 -0.3259
  622MOL0     C83880   2.210   4.247   4.266 -0.7144  1.1291 -0.3248
  622MOL0     C83881   2.302   4.303   4.357 -0.0274  0.0405  0.5570
  622MOL0     O83882   2.554   4.437   4.418  0.2324 -0.2084  0.7784
  622MOL0     C83883   2.746   4.505   4.609 -0.3997  1.0540  0.2289
  622MOL0     C83884   2.845   4.538   4.708 -0.6889 -0.0988  1.1101
  622MOL0     N83885   3.202   3.956   5.138 -0.0229 -0.2018  0.2201
  622MOL0     N83886   3.293   3.868   5.174 -0.0789 -0.6175 -0.5537
  622MOL0     C83887   3.989   3.399   6.105  0.5293  1.0162 -0.1200
  622MOL0     C83888   4.034   3.353   6.229  0.4945 -0.8716  0.2675
  622MOL0     C83889   4.243   3.309   6.606  0.5258 -0.2516 -0.0160
  622MOL0     C83890   4.147   3.215   6.661  1.0546  0.5045  0.0413
  622MOL0     C83891   4.166   3.156   6.787 -0.0936  0.2143  0.5908
  622MOL0     C83892   4.295   3.168   6.850  0.3689  0.6042  0.6302
  622MOL0     O83893   4.345   3.087   6.948  0.1583  0.7572 -0.6302
  622MOL0     C83894   4.253   2.985   7.008 -0.6479  0.2663 -0.1526
  622MOL0     C83895   4.278   2.845   6.945 -0.4752  0.0112  0.3801
  622MOL0     C83896   4.437   2.797   6.930  0.4662  0.3817  0.0818
  622MOL0     C83897   4.536   2.832   7.054 -0.0690 -0.1925 -0.2535
  622MOL0     C83898   4.658   2.754   7.056 -0.0282  0.6685  0.3049
  622MOL0     C83899   4.757   2.686   7.064  0.0799  0.5005  1.0626
  622MOL0     C83900   4.389   3.256   6.792  0.1467  0.2928  0.3881
  622MOL0     C83901   4.367   3.327   6.672 -0.5267  0.0270  0.0557
  622MOL0     C83902   4.461   3.433   6.629 -0.6151 -0.0234 -0.6850
  622MOL0     H83903   3.955   3.631   6.413 -2.1485 -1.0481  1.5927
  622MOL0     H83904   3.918   3.724   6.189 -3.1741 -0.5801  4.7940
  622MOL0     H83905   3.799   3.733   6.003 -0.5610  0.8352 -0.5718
  622MOL0     H83906   3.970   3.773   5.945 -1.6989  2.3678  1.2316
  622MOL0     H83907   3.785   3.832   5.789 -3.4922 -1.5567  0.4066
  622MOL0     H83908   3.768   3.652   5.766  1.9700 -1.2695  0.3450
  622MOL0     H83909   4.019   3.665   5.676  1.9793  0.2593  0.6584
  622MOL0     H83910   4.012   3.843   5.692  1.0790 -0.4403 -0.5090
  622MOL0     H83911   3.966   3.815   5.477  0.2137 -0.2343 -0.5458
  622MOL0     H83912   3.897   3.659   5.501  0.1120  0.1888 -3.0302
  622MOL0     H83913   3.676   3.767   5.565  0.8963 -0.1660  1.1102
  622MOL0     H83914   3.747   3.931   5.547 -1.6328  1.6273 -2.3884
  622MOL0     H83915   3.798   3.872   5.302 -1.0170 -0.7350 -1.8977
  622MOL0     H83916   3.729   3.710   5.330 -0.7201 -0.0583 -1.9967
  622MOL0     H83917   3.571   3.972   5.356 -0.7381 -0.5196  0.2786
  622MOL0     H83918   3.509   3.821   5.394 -0.0863  0.3299 -0.0862
  622MOL0     H83919   3.609   3.865   5.100 -0.0066  0.4520  0.6183
  622MOL0     H83920   3.526   3.739   5.172  1.2817 -0.4757 -1.0212
  622MOL0     H83921   3.491   4.114   5.089 -0.3276 -0.4197  1.0568
  622MOL0     H83922   3.106   4.212   5.122  0.3566  0.3432  0.0844
  622MOL0     H83923   3.257   4.291   5.133 -2.4006  0.4436  1.6608
  622MOL0     H83924   3.280   4.301   4.892 -0.2994  1.3929  1.7774
  622MOL0     H83925   3.222   4.145   4.873  0.3199 -0.3991  0.3090
  622MOL0     H83926   2.986   4.233   4.893  2.2499 -2.9701  1.1694
  622MOL0     H83927   3.068   4.316   4.776  0.6164  1.8008  0.1414
  622MOL0     H83928   3.104   4.511   4.893 -0.7054 -0.2388 -1.7469
  622MOL0     H83929   3.083   4.444   5.051 -1.3499  1.9063  0.5032
  622MOL0     H83930   2.734   4.330   4.943 -0.0119  2.1127  0.7035
  622MOL0     H83931   2.584   4.264   4.770  1.6323 -0.1763  0.4806
  622MOL0     H83932   2.453   4.022   4.461  0.0203  0.6928  0.1524
  622MOL0     H83933   2.305   3.933   4.282 -0.9220  0.3847  2.5670
  622MOL0     H83934   2.013   4.215   4.074  0.8060  0.1734  1.2434
  622MOL0     H83935   2.147   4.185   3.977  1.1201  0.4367  1.5953
  622MOL0     H83936   2.058   3.951   3.926 -2.6291 -3.4831  0.3467
  622MOL0     H83937   1.918   3.986   4.033  1.5331  1.0293  1.1604
  622MOL0     H83938   1.957   4.163   3.788 -1.7788  1.2512  1.1792
  622MOL0     H83939   1.867   4.008   3.801  2.0392 -2.0080  0.1842
  622MOL0     H83940   1.826   4.277   3.937  2.6105 -0.9781 -1.3258
  622MOL0     H83941   1.747   4.136   4.005 -2.2892 -3.1998 -1.2458
  622MOL0     H83942   1.572   4.222   3.871 -1.6807  0.8395 -1.7264
  622MOL0     H83943   1.631   4.075   3.786 -3.8109  1.2658  1.8480
  622MOL0     H83944   1.697   4.378   3.747 -0.4024  1.0248 -2.0403
  622MOL0     H83945   1.782   4.248   3.655  0.2314  1.1679 -0.5099
  622MOL0     H83946   1.573   4.378   3.550  0.0823  0.8603  0.7148
  622MOL0     H83947   1.472   4.288   3.667 -1.6879  0.4577 -1.7540
  622MOL0     H83948   1.561   4.076   3.575  0.0416  0.7719  1.8340
  622MOL0     H83949   1.473   4.157   3.446  0.9763  2.4227 -0.2043
  622MOL0     H83950   2.137   4.320   4.232 -0.9078  0.4594 -1.3933
  622MOL0     H83951   2.300   4.411   4.373 -0.5000 -0.1625  2.0617
  622MOL0     H83952   2.757   4.559   4.515  1.3238  0.3609  0.0115
  622MOL0     H83953   2.912   4.622   4.693 -0.0419 -0.8117 -0.0896
  622MOL0     H83954   4.010   3.328   6.026  2.2697 -1.3811  2.2923
  622MOL0     H83955   4.085   3.258   6.237  1.6252 -0.1323  2.9895
  622MOL0     H83956   4.055   3.188   6.611  2.0875  0.9549 -2.2730
  622MOL0     H83957   4.087   3.091   6.823  2.3459 -0.6791  5.0738
  622MOL0     H83958   4.148   3.014   7.006 -0.5186  0.7414 -0.3583
  622MOL0     H83959   4.288   2.970   7.111  0.6881  1.8276 -0.3336
  622MOL0     H83960   4.222   2.837   6.852  1.8442  2.8522 -1.4272
  622MOL0     H83961   4.227   2.784   7.020 -1.4124 -1.1085 -1.1359
  622MOL0     H83962   4.471   2.835   6.833  2.0685  1.9296  1.1769
  622MOL0     H83963   4.430   2.688   6.927  0.8143  0.3326  0.8052
  622MOL0     H83964   4.557   2.940   7.059 -0.8663  0.0540 -1.5719
  622MOL0     H83965   4.469   2.809   7.137 -1.5631  3.9626 -0.0467
  622MOL0     H83966   4.842   2.621   7.070  0.9701  0.8930 -3.6991
  622MOL0     H83967   4.482   3.271   6.845 -1.3719  2.1944  2.6846
  622MOL0     H83968   4.530   3.455   6.711 -0.7126  0.0036 -0.6100
  622MOL0     H83969   4.518   3.385   6.548 -2.1968 -2.9832 -0.1991
  622MOL0     H83970   4.406   3.524   6.603  1.0815  0.0978 -4.4732
  623MOL0     O83971   0.041   5.471   8.369  0.4897  0.1249  0.7439
  623MOL0     C83972   0.108   5.429   8.274  0.7361  0.1893 -0.1154
  623MOL0     O83973   0.058   5.397   8.148  0.6188 -0.0773  0.1815
  623MOL0     C83974  -0.076   5.422   8.135  0.0297 -0.4942  0.7618
  623MOL0     C83975  -0.169   5.328   8.082  0.3345 -0.6710 -0.1771
  623MOL0     C83976  -0.310   5.353   8.077  0.1904 -0.3836 -0.1179
  623MOL0     C83977  -0.358   5.476   8.106  0.4542  0.2380  0.5777
  623MOL0     O83978  -0.486   5.527   8.086 -0.2987 -0.1340 -0.7128
  623MOL0     C83979  -0.583   5.431   8.039  1.5184 -0.1078  0.3460
  623MOL0     C83980  -0.723   5.490   8.023  0.8940 -0.2402 -0.4150
  623MOL0     C83981  -0.828   5.377   7.978 -0.2613 -0.0192  0.7467
  623MOL0     C83982  -0.835   5.332   7.827  0.2633  0.4202 -0.1332
  623MOL0     C83983  -0.839   5.178   7.795  0.5879 -0.4024  0.3249
  623MOL0     C83984  -0.710   5.097   7.829 -0.0808 -0.8225  0.9637
  623MOL0     C83985  -0.690   4.967   7.740 -0.7070  0.0125  0.0273
  623MOL0     C83986  -0.548   4.903   7.760 -0.0942 -0.6895  0.1507
  623MOL0     N83987  -0.429   4.983   7.733 -0.4418  0.1199  0.4283
  623MOL0     C83988  -0.377   4.990   7.606 -1.0002  0.4556  1.0070
  623MOL0     C83989  -0.249   5.018   7.629 -0.7147  0.4807  0.2258
  623MOL0     C83990  -0.151   5.044   7.520 -0.5851 -0.2235 -1.2370
  623MOL0     C83991  -0.005   5.055   7.573  0.5056 -0.5285  0.3964
  623MOL0     C83992   0.022   5.198   7.619 -0.6177 -0.0107 -0.9590
  623MOL0     C83993   0.145   5.206   7.699  0.1343  0.2574  0.3147
  623MOL0     O83994   0.143   5.343   7.736  0.2444  0.3013  0.0691
  623MOL0     C83995   0.250   5.398   7.793  0.1638 -0.2115 -0.5056
  623MOL0     C83996   0.241   5.532   7.848 -0.5010  0.3587 -1.4212
  623MOL0     C83997   0.345   5.596   7.915  0.5587  0.1270 -0.3023
  623MOL0     C83998   0.470   5.522   7.930 -0.6781 -0.1173  0.3179
  623MOL0     C83999   0.576   5.582   8.014  0.4834 -0.5917  0.2798
  623MOL0     O84000   0.544   5.704   8.070 -0.1985 -0.3753 -0.5272
  623MOL0     C84001   0.625   5.763   8.158  0.5530 -0.0721 -0.3638
  623MOL0     C84002   0.562   5.806   8.281  0.8407 -0.5586  0.2233
  623MOL0     C84003   0.637   5.854   8.388  0.8584 -0.4214 -0.2094
  623MOL0     C84004   0.772   5.882   8.368  0.1664  0.5580  0.0636
  623MOL0     O84005   0.839   5.924   8.476 -0.2894 -0.3219 -0.4095
  623MOL0     C84006   0.936   6.033   8.467  0.1676 -0.3290 -0.6160
  623MOL0     C84007   0.906   6.118   8.596 -0.0358 -0.9527  0.6142
  623MOL0     C84008   0.789   6.206   8.567  0.6217 -0.2162  0.5624
  623MOL0     C84009   0.753   6.304   8.672  0.2751  0.6048 -0.0582
  623MOL0     C84010   0.628   6.385   8.628 -0.1855 -0.3595 -0.3217
  623MOL0     C84011   0.586   6.501   8.721  0.1500  0.0080 -0.0924
  623MOL0     C84012   0.484   6.600   8.641  0.1808 -0.3202  0.7820
  623MOL0     C84013   0.449   6.712   8.741  0.1596  0.3876  0.2865
  623MOL0    Cl84014   0.329   6.820   8.678  0.0342  0.0598 -0.1850
  623MOL0     C84015   0.834   5.842   8.248  0.3008  0.4291 -0.6395
  623MOL0     C84016   0.761   5.781   8.142  0.8213  0.6256 -0.3285
  623MOL0     O84017   0.691   5.541   8.009 -0.8782 -0.5878 -0.7500
  623MOL0     C84018   0.486   5.394   7.876 -0.6022  0.2063 -0.5703
  623MOL0     C84019   0.374   5.332   7.815 -1.1306 -1.2256 -0.9692
  623MOL0     N84020  -0.218   5.036   7.763  0.0552 -0.3371  0.8300
  623MOL0     N84021  -0.330   5.011   7.829  0.2394  0.0177  0.2846
  623MOL0     C84022  -0.265   5.573   8.139 -0.0920 -0.4762 -0.2229
  623MOL0     C84023  -0.125   5.548   8.158  0.2891  0.0584  0.3141
  623MOL0     C84024   0.252   5.403   8.293  1.1726  1.0490 -0.4519
  623MOL0     C84025   0.317   5.327   8.189 -0.0353  1.0176  0.6985
  623MOL0     C84026   0.451   5.278   8.194 -1.0365 -0.8287  0.1113
  623MOL0     C84027   0.522   5.290   8.316  0.7684 -1.0413  0.8639
  623MOL0     O84028   0.645   5.244   8.327 -0.1718  1.1343  0.0319
  623MOL0     C84029   0.751   5.314   8.255  0.2808 -0.7965 -0.0570
  623MOL0     C84030   0.784   5.454   8.317  0.4526 -0.6385  0.5141
  623MOL0     C84031   0.840   5.448   8.459 -1.2977 -0.2998  0.4914
  623MOL0     C84032   0.937   5.557   8.508  0.0500  0.0370  0.3450
  623MOL0     C84033   1.048   5.561   8.408 -0.1898  0.5220  0.0305
  623MOL0     C84034   1.136   5.562   8.333 -0.1318 -0.8734  0.2406
  623MOL0     C84035   0.460   5.344   8.430  0.2180 -0.1025  0.7535
  623MOL0     C84036   0.327   5.405   8.421 -0.4980 -0.3139 -0.2059
  623MOL0     C84037   0.271   5.461   8.544 -0.2563 -0.0612 -0.8984
  623MOL0     H84038  -0.123   5.237   8.045  3.1101  0.3543  0.5406
  623MOL0     H84039  -0.375   5.278   8.032 -2.1889  0.8456  1.0893
  623MOL0     H84040  -0.562   5.401   7.936 -1.0536  0.1514 -0.3312
  623MOL0     H84041  -0.580   5.342   8.103 -1.7522 -0.7577 -0.2527
  623MOL0     H84042  -0.724   5.576   7.955  1.6940  1.2398  1.3655
  623MOL0     H84043  -0.750   5.523   8.124 -0.9952 -1.1592 -0.5757
  623MOL0     H84044  -0.929   5.402   8.011 -0.9619 -2.1720  0.4307
  623MOL0     H84045  -0.805   5.284   8.030 -1.0619  0.0816  1.3009
  623MOL0     H84046  -0.922   5.380   7.782  0.0263  0.9932  0.8958
  623MOL0     H84047  -0.759   5.387   7.771  2.2723  0.2073  2.2311
  623MOL0     H84048  -0.929   5.141   7.844  0.0507 -1.7754 -1.5663
  623MOL0     H84049  -0.851   5.176   7.686  1.0811  0.8258  0.2315
  623MOL0     H84050  -0.631   5.170   7.808  0.0561 -1.1747  0.2630
  623MOL0     H84051  -0.707   5.081   7.938 -2.0351  0.3895  1.2654
  623MOL0     H84052  -0.690   4.984   7.632  3.2489  0.1393 -0.1188
  623MOL0     H84053  -0.765   4.891   7.762 -0.9756 -0.0091 -0.9276
  623MOL0     H84054  -0.549   4.880   7.867  3.2446  2.4550  1.0647
  623MOL0     H84055  -0.543   4.805   7.711  0.1828 -0.2737 -0.6631
  623MOL0     H84056  -0.429   4.971   7.513 -0.6430  0.0420  0.8863
  623MOL0     H84057  -0.151   4.955   7.457 -2.8442 -1.0178 -0.2403
  623MOL0     H84058  -0.173   5.134   7.461 -1.8040  0.2914 -0.0669
  623MOL0     H84059   0.010   4.983   7.653  0.2447  0.1682  1.0885
  623MOL0     H84060   0.048   5.034   7.480 -0.0887  1.9044 -0.5921
  623MOL0     H84061  -0.061   5.226   7.684  0.5963 -0.0225  0.6358
  623MOL0     H84062   0.035   5.268   7.535  2.1338  0.9222  0.1427
  623MOL0     H84063   0.234   5.174   7.643  0.7767  0.9686  0.9066
  623MOL0     H84064   0.141   5.143   7.788  0.3827 -0.4952 -0.1982
  623MOL0     H84065   0.141   5.572   7.836 -1.7130 -2.2352 -0.7902
  623MOL0     H84066   0.339   5.702   7.940  1.5307 -0.7309  4.5247
  623MOL0     H84067   0.454   5.797   8.290  0.3864  2.2798 -1.3840
  623MOL0     H84068   0.589   5.886   8.480  0.0344  1.0372 -1.1033
  623MOL0     H84069   1.035   5.986   8.472  0.5743  0.4488 -1.2097
  623MOL0     H84070   0.915   6.075   8.369 -2.4979  0.1085  0.0631
  623MOL0     H84071   0.896   6.062   8.689 -3.1778  0.1332  1.0699
  623MOL0     H84072   0.999   6.172   8.617 -2.1112  2.8821  0.9414
  623MOL0     H84073   0.813   6.259   8.474  3.2632  1.7020  2.1738
  623MOL0     H84074   0.706   6.136   8.554 -0.2579  1.0238 -0.8555
  623MOL0     H84075   0.835   6.368   8.706  0.9991 -0.9608  1.2873
  623MOL0     H84076   0.736   6.242   8.761  4.2716 -2.6165 -1.2252
  623MOL0     H84077   0.541   6.319   8.624  0.7898 -2.0548  2.7722
  623MOL0     H84078   0.668   6.425   8.534  0.4691  0.2568  0.2063
  623MOL0     H84079   0.534   6.465   8.810 -0.6943  0.3722 -0.4341
  623MOL0     H84080   0.674   6.558   8.752  0.2710 -1.2681  2.0794
  623MOL0     H84081   0.400   6.535   8.619  1.8455 -2.2693 -0.1532
  623MOL0     H84082   0.541   6.649   8.561  0.9586 -1.0366  0.8771
  623MOL0     H84083   0.409   6.647   8.820  0.1039 -1.9577 -1.5576
  623MOL0     H84084   0.537   6.771   8.768  0.2711  0.2647  0.1905
  623MOL0     H84085   0.938   5.865   8.226 -0.6123  1.5677 -4.7167
  623MOL0     H84086   0.796   5.745   8.046 -0.4165 -1.6163 -0.0019
  623MOL0     H84087   0.581   5.346   7.891 -1.5814 -1.6467  0.0058
  623MOL0     H84088   0.386   5.230   7.781 -0.8999 -0.8428 -2.0546
  623MOL0     H84089  -0.302   5.674   8.152  1.4107 -0.1024  1.6030
  623MOL0     H84090  -0.066   5.633   8.190 -0.5703  0.7779  0.0319
  623MOL0     H84091   0.276   5.307   8.090 -0.3383 -0.6356  1.1244
  623MOL0     H84092   0.501   5.226   8.113 -0.2230 -1.0672  0.7516
  623MOL0     H84093   0.728   5.326   8.149 -3.1344 -1.1155  0.5282
  623MOL0     H84094   0.845   5.259   8.268 -0.0116 -1.3916 -0.4027
  623MOL0     H84095   0.698   5.519   8.300 -1.5584 -3.0824  0.8436
  623MOL0     H84096   0.864   5.483   8.248  0.2282 -2.5558 -0.6237
  623MOL0     H84097   0.894   5.353   8.464  1.6506  1.2913  1.4848
  623MOL0     H84098   0.753   5.437   8.524 -0.2232 -3.4956  1.5718
  623MOL0     H84099   0.883   5.653   8.511  0.1897  0.1744 -1.0577
  623MOL0     H84100   0.988   5.530   8.600 -0.2900  0.3489  0.6303
  623MOL0     H84101   1.228   5.567   8.279  0.0702  0.2896  0.6647
  623MOL0     H84102   0.514   5.347   8.524  0.6834 -0.6516  0.5078
  623MOL0     H84103   0.356   5.494   8.605  1.2314 -1.8756 -1.8557
  623MOL0     H84104   0.206   5.542   8.511  2.3155  1.0588 -3.7429
  623MOL0     H84105   0.227   5.380   8.602  0.9274 -0.8107 -0.9918
  624MOL0     O84106   1.733   1.373   8.168 -0.2292 -0.7025 -1.4487
  624MOL0     C84107   1.780   1.307   8.264 -0.3313  0.1135 -0.4818
  624MOL0     O84108   1.736   1.317   8.397  0.0463 -0.6519 -0.4430
  624MOL0     C84109   1.629   1.406   8.428 -0.7209  0.7778  0.4166
  624MOL0     C84110   1.510   1.350   8.466  0.0380  0.7618  0.1039
  624MOL0     C84111   1.403   1.435   8.507  0.8813  0.4757  0.4943
  624MOL0     C84112   1.416   1.571   8.484 -0.0565 -1.1049  0.6038
  624MOL0     O84113   1.317   1.657   8.514  0.6573 -0.2243  0.1758
  624MOL0     C84114   1.181   1.612   8.517 -0.4902 -0.1862 -0.4342
  624MOL0     C84115   1.096   1.735   8.551  0.4193  0.3573  0.3682
  624MOL0     C84116   0.958   1.680   8.592 -0.0699 -0.8367  1.0886
  624MOL0     C84117   0.865   1.797   8.612 -0.1593  0.2021 -0.1850
  624MOL0     C84118   0.735   1.744   8.666 -0.2990  1.0495 -0.1657
  624MOL0     C84119   0.624   1.854   8.668  0.4405 -0.6356  0.1169
  624MOL0     C84120   0.493   1.831   8.753  0.4409  0.0401  0.1552
  624MOL0     C84121   0.404   1.731   8.682  0.6627  0.5224  0.0309
  624MOL0     N84122   0.270   1.741   8.737  0.1361  0.3399 -0.0900
  624MOL0     C84123   0.226   1.679   8.850 -0.6001  0.5394  0.4162
  624MOL0     C84124   0.091   1.691   8.849  0.1854  0.5394 -1.3377
  624MOL0     C84125  -0.000   1.648   8.965 -0.2291 -0.4194  0.3922
  624MOL0     C84126  -0.133   1.581   8.918  0.5241  0.1312  0.6389
  624MOL0     C84127  -0.234   1.690   8.860  1.5815  0.3176  1.2791
  624MOL0     C84128  -0.381   1.665   8.890  0.3295 -0.1689 -0.2116
  624MOL0     O84129  -0.385   1.646   9.040 -0.5962 -0.1459  0.4349
  624MOL0     C84130  -0.504   1.624   9.094  0.2912  0.1906  0.7975
  624MOL0     C84131  -0.633   1.647   9.042  0.1571 -0.2818  0.8426
  624MOL0     C84132  -0.747   1.612   9.107  0.1434 -0.8569  0.0331
  624MOL0     C84133  -0.736   1.568   9.240 -0.6558 -0.2606  0.3772
  624MOL0     C84134  -0.860   1.538   9.306  0.1540 -0.4161  0.5943
  624MOL0     O84135  -0.847   1.494   9.428 -0.1877  1.0771  0.8051
  624MOL0     C84136  -0.913   1.544   9.535 -1.1098  0.9797  0.0827
  624MOL0     C84137  -0.917   1.448   9.637  0.4976 -0.2248  0.4208
  624MOL0     C84138  -0.988   1.479   9.757 -0.2321 -0.2317  0.8985
  624MOL0     C84139  -1.025   1.603   9.779  0.6982  0.2573 -0.6637
  624MOL0     O84140  -1.083   1.626   9.899  0.4362 -0.8674 -0.2068
  624MOL0     C84141  -1.030   1.744   9.963 -0.4130 -0.6411  0.4388
  624MOL0     C84142  -0.874   1.746   9.979  0.7969  0.0311  0.3195
  624MOL0     C84143  -0.819   1.668  10.096 -0.5909  0.2073  0.2309
  624MOL0     C84144  -0.663   1.666  10.087  0.1189 -0.5743  0.6701
  624MOL0     C84145  -0.581   1.793  10.120  0.3787 -0.4365 -0.6742
  624MOL0     C84146  -0.429   1.764  10.107  0.3699  0.2976  0.8793
  624MOL0     C84147  -0.378   1.744   9.963 -0.4522  0.3222  0.3032
  624MOL0     C84148  -0.229   1.785   9.942  0.4819  0.3136  0.2282
  624MOL0    Cl84149  -0.128   1.686  10.053 -0.8864 -0.1020  0.2829
  624MOL0     C84150  -1.018   1.695   9.676  0.4873 -0.4002  0.1023
  624MOL0     C84151  -0.976   1.667   9.546 -0.3286  0.6725 -0.1087
  624MOL0     O84152  -0.966   1.563   9.251  0.3275  0.5048  0.5907
  624MOL0     C84153  -0.609   1.555   9.299 -0.1683 -0.2883 -0.7366
  624MOL0     C84154  -0.498   1.579   9.221  1.2108  0.1957 -0.9610
  624MOL0     N84155   0.054   1.769   8.742 -0.0300  0.5104 -0.0640
  624MOL0     N84156   0.160   1.804   8.686 -1.1095 -0.1543  0.7928
  624MOL0     C84157   1.541   1.632   8.455  0.1518  0.0198  0.4398
  624MOL0     C84158   1.650   1.546   8.421  0.3464  0.3486  1.3946
  624MOL0     C84159   1.901   1.223   8.250 -0.3891 -0.4053 -0.5947
  624MOL0     C84160   1.897   1.100   8.325  0.8012  0.2569  0.4990
  624MOL0     C84161   2.010   1.011   8.312  0.0246 -0.3667 -0.0286
  624MOL0     C84162   2.124   1.041   8.252 -0.3263  0.3058  0.4345
  624MOL0     O84163   2.223   0.948   8.263 -0.0797  0.0917  1.0126
  624MOL0     C84164   2.340   0.976   8.186 -0.4436  0.0411  0.3987
  624MOL0     C84165   2.420   0.844   8.164 -0.9249  0.1003 -0.4053
  624MOL0     C84166   2.509   0.833   8.297  0.2756  0.3537  0.0576
  624MOL0     C84167   2.620   0.735   8.275 -0.0508  0.9815  0.1502
  624MOL0     C84168   2.701   0.788   8.164 -0.3120 -0.7665 -0.5656
  624MOL0     C84169   2.771   0.833   8.074  0.6436 -0.4451 -0.2542
  624MOL0     C84170   2.126   1.164   8.180 -0.1691 -0.8152  0.2917
  624MOL0     C84171   2.014   1.248   8.176  0.0451  0.7824  0.0796
  624MOL0     C84172   2.026   1.379   8.100  0.4990 -0.1375  0.3018
  624MOL0     H84173   1.504   1.242   8.476 -2.3632  0.5729 -2.1890
  624MOL0     H84174   1.306   1.398   8.538 -1.1725  2.7952 -2.5838
  624MOL0     H84175   1.174   1.566   8.419  1.9224 -2.3812  0.3079
  624MOL0     H84176   1.170   1.536   8.595  3.5378 -0.6252 -0.0586
  624MOL0     H84177   1.090   1.796   8.460 -2.9382  1.0964  0.9627
  624MOL0     H84178   1.151   1.782   8.633  2.5087  0.6808 -1.1446
  624MOL0     H84179   0.964   1.634   8.691 -2.7108  3.1665  3.3924
  624MOL0     H84180   0.913   1.610   8.521  2.5400 -1.7429  0.1962
  624MOL0     H84181   0.910   1.862   8.688 -2.3718 -1.0378  2.3382
  624MOL0     H84182   0.839   1.855   8.522 -1.7227  0.3418  0.3353
  624MOL0     H84183   0.713   1.652   8.611  0.7536  0.7867 -0.1694
  624MOL0     H84184   0.743   1.709   8.770  3.4943  2.9333  0.3272
  624MOL0     H84185   0.671   1.939   8.719 -1.3731 -0.4995  1.7051
  624MOL0     H84186   0.610   1.887   8.565  1.6154 -2.4043 -0.6505
  624MOL0     H84187   0.448   1.930   8.762  3.7523  2.0200 -2.5545
  624MOL0     H84188   0.519   1.798   8.854  0.6442 -0.6300 -0.1095
  624MOL0     H84189   0.394   1.745   8.574  1.2630 -0.9592 -0.2382
  624MOL0     H84190   0.452   1.635   8.699  1.6490  0.8817 -0.6276
  624MOL0     H84191   0.289   1.637   8.927  0.4257 -0.0728 -0.7178
  624MOL0     H84192   0.051   1.575   9.028  2.4257  1.4155  0.5254
  624MOL0     H84193  -0.026   1.728   9.035 -1.0170 -0.4282  0.1267
  624MOL0     H84194  -0.109   1.508   8.840 -3.1710 -0.8464  0.2434
  624MOL0     H84195  -0.181   1.532   9.003 -0.9948 -3.6116 -2.0746
  624MOL0     H84196  -0.219   1.692   8.751  3.2219 -6.4095  0.9215
  624MOL0     H84197  -0.220   1.792   8.899 -3.0903  0.4004  3.2907
  624MOL0     H84198  -0.407   1.567   8.846 -0.6585  0.1880 -0.4580
  624MOL0     H84199  -0.450   1.742   8.855 -1.5011 -1.2481  0.8503
  624MOL0     H84200  -0.638   1.686   8.941  0.1816  1.7105  1.5749
  624MOL0     H84201  -0.839   1.620   9.050  1.4521 -1.0159 -2.2252
  624MOL0     H84202  -0.871   1.349   9.634 -0.7185 -0.8269  0.8695
  624MOL0     H84203  -0.998   1.396   9.827  0.4495 -3.3871 -2.4343
  624MOL0     H84204  -1.061   1.827   9.899  0.8593 -0.3661  0.1326
  624MOL0     H84205  -1.071   1.757  10.063  0.6240  0.4200  0.7543
  624MOL0     H84206  -0.824   1.705   9.891 -2.0397 -3.2202  0.0586
  624MOL0     H84207  -0.831   1.846   9.995 -0.1773  0.1097  2.9392
  624MOL0     H84208  -0.847   1.708  10.194 -2.1619 -1.5817  0.5753
  624MOL0     H84209  -0.849   1.563  10.095  0.0461 -0.0454 -3.1974
  624MOL0     H84210  -0.634   1.634   9.987  4.3667 -2.0799  2.1915
  624MOL0     H84211  -0.631   1.584  10.152 -1.5978 -2.7422 -1.0270
  624MOL0     H84212  -0.599   1.824  10.223  3.9011 -1.7239  0.4727
  624MOL0     H84213  -0.598   1.887  10.068 -3.2801  1.3425  3.1722
  624MOL0     H84214  -0.383   1.858  10.140 -2.3569  2.0587  0.0105
  624MOL0     H84215  -0.394   1.685  10.173 -0.1510 -0.0603  0.7320
  624MOL0     H84216  -0.440   1.796   9.890 -1.9437 -0.6940  0.7991
  624MOL0     H84217  -0.394   1.637   9.947  0.3698  0.6065 -3.3816
  624MOL0     H84218  -0.203   1.775   9.836 -1.9459  0.1148 -0.4079
  624MOL0     H84219  -0.228   1.891   9.966  1.6903  0.6013 -0.9991
  624MOL0     H84220  -1.060   1.795   9.686 -1.6091 -1.1461 -0.6891
  624MOL0     H84221  -0.958   1.735   9.463  1.2010  1.8322  1.1267
  624MOL0     H84222  -0.592   1.526   9.403 -2.3014  1.7174  0.2659
  624MOL0     H84223  -0.397   1.557   9.254  0.6844 -0.8552  0.0466
  624MOL0     H84224   1.545   1.740   8.442  1.7176 -0.2238 -1.7215
  624MOL0     H84225   1.735   1.598   8.377 -0.4671 -0.0614 -0.8236
  624MOL0     H84226   1.810   1.075   8.385  0.6979 -0.2671  0.1355
  624MOL0     H84227   2.015   0.916   8.363  0.4721 -0.4113 -0.1488
  624MOL0     H84228   2.399   1.047   8.244  0.4098 -2.0294  2.2061
  624MOL0     H84229   2.331   1.024   8.089  1.7846  2.6317  1.3604
  624MOL0     H84230   2.485   0.859   8.078  0.5602 -0.7182  0.5346
  624MOL0     H84231   2.363   0.755   8.133 -0.6585 -0.2725  0.1598
  624MOL0     H84232   2.442   0.806   8.379  0.4801 -2.0463 -0.4766
  624MOL0     H84233   2.552   0.929   8.325 -0.4965  1.0390 -1.0647
  624MOL0     H84234   2.681   0.731   8.365  2.3806 -0.3047 -1.4458
  624MOL0     H84235   2.588   0.631   8.259 -3.0202  1.9517 -0.9763
  624MOL0     H84236   2.825   0.888   7.999 -0.5119  0.5926 -0.3625
  624MOL0     H84237   2.216   1.198   8.131 -0.6208  0.4113  0.2836
  624MOL0     H84238   1.940   1.394   8.033  0.1363  0.9326  0.9901
  624MOL0     H84239   2.038   1.464   8.167  0.5506  1.0064 -1.0965
  624MOL0     H84240   2.111   1.371   8.031 -1.9786 -5.5530 -2.8566
  625MOL0     O84241   6.999   9.491  10.233  0.2585  0.6617 -0.2864
  625MOL0     C84242   6.967   9.553  10.138  0.1363 -0.2851 -0.1414
  625MOL0     O84243   7.047   9.573  10.020  0.0778 -0.1012  0.5593
  625MOL0     C84244   7.170   9.503  10.026  0.2180  0.1054  0.0440
  625MOL0     C84245   7.195   9.403   9.936 -0.1619  0.9900  0.0858
  625MOL0     C84246   7.322   9.337   9.936  0.1602 -0.4404  0.8759
  625MOL0     C84247   7.419   9.371  10.031 -0.1054  0.3861  0.2661
  625MOL0     O84248   7.540   9.316  10.019  0.2006 -0.1762 -0.0228
  625MOL0     C84249   7.610   9.280  10.138 -0.1101  0.4538 -1.0765
  625MOL0     C84250   7.731   9.186  10.097 -0.3856 -0.5853 -0.3987
  625MOL0     C84251   7.806   9.126  10.212 -0.6215 -0.1288  0.2654
  625MOL0     C84252   7.875   8.998  10.163  0.4204  0.8644 -0.8766
  625MOL0     C84253   7.968   8.948  10.280 -0.2749  0.3097  0.3323
  625MOL0     C84254   8.064   8.834  10.226  0.0715 -0.8211  0.5000
  625MOL0     C84255   8.162   8.889  10.127 -0.2248 -0.2570  0.1358
  625MOL0     C84256   8.244   9.004  10.169  0.2120 -0.6833 -0.1362
  625MOL0     N84257   8.308   8.991  10.298  0.3200 -0.1261  0.0646
  625MOL0     C84258   8.419   8.909  10.320 -0.4128 -0.1112  0.0975
  625MOL0     C84259   8.460   8.948  10.435 -0.7858  0.2594 -1.1200
  625MOL0     C84260   8.572   8.888  10.510  0.6004  1.0067 -0.7111
  625MOL0     C84261   8.698   8.901  10.441  0.4997 -0.0196 -0.8138
  625MOL0     C84262   8.801   8.797  10.476 -0.2394  0.1751  0.1936
  625MOL0     C84263   8.945   8.837  10.430 -0.6988 -0.2511  0.0910
  625MOL0     O84264   8.944   8.853  10.289 -0.3155  0.0618  0.0579
  625MOL0     C84265   9.068   8.852  10.226  0.3914 -0.0852  0.6962
  625MOL0     C84266   9.064   8.848  10.081  0.2669 -0.6490 -0.2300
  625MOL0     C84267   9.185   8.857  10.020  0.6239  0.4444 -0.6745
  625MOL0     C84268   9.309   8.866  10.083  0.5235  0.5163 -0.5582
  625MOL0     C84269   9.438   8.875  10.005  0.5864  0.2475 -0.2810
  625MOL0     O84270   9.550   8.926  10.060 -1.2594 -0.2635  0.3297
  625MOL0     C84271   9.666   8.896   9.990  0.8265  0.4665  0.5913
  625MOL0     C84272   9.701   8.753   9.997 -0.2883 -0.8135 -0.2045
  625MOL0     C84273   9.810   8.712   9.926 -0.0122  0.0861 -0.4770
  625MOL0     C84274   9.882   8.796   9.843 -0.6420  0.4744 -1.2091
  625MOL0     O84275   9.987   8.735   9.780 -0.3358 -0.2792 -0.4927
  625MOL0     C84276  10.077   8.818   9.687 -0.2254 -0.0248 -0.4168
  625MOL0     C84277  10.175   8.705   9.636 -0.4996  0.6048 -0.2721
  625MOL0     C84278  10.315   8.748   9.607  0.5348 -0.0050 -0.3169
  625MOL0     C84279  10.413   8.675   9.705 -0.3392  0.6217  0.6802
  625MOL0     C84280  10.559   8.713   9.678 -1.1027  0.1051  0.0495
  625MOL0     C84281  10.597   8.859   9.668 -1.1182 -0.3197 -0.6656
  625MOL0     C84282  10.746   8.880   9.657 -0.2091 -1.0567  0.1891
  625MOL0     C84283  10.789   9.026   9.662 -0.1084 -0.4725 -0.4033
  625MOL0    Cl84284  10.783   9.075   9.842 -0.1904  0.1775 -0.1158
  625MOL0     C84285   9.848   8.929   9.844 -0.2359  0.6343 -0.5122
  625MOL0     C84286   9.737   8.978   9.912 -0.3845  0.9512 -0.2316
  625MOL0     O84287   9.431   8.813   9.903 -0.6987  0.7782  0.6678
  625MOL0     C84288   9.316   8.874  10.223 -0.1408 -0.7483 -0.5826
  625MOL0     C84289   9.194   8.869  10.291  0.9398 -0.8220 -0.3390
  625MOL0     N84290   8.359   9.039  10.493 -0.4835 -0.9120  0.6630
  625MOL0     N84291   8.280   9.076  10.405 -0.1139  0.3851  0.1482
  625MOL0     C84292   7.390   9.470  10.122  0.1566 -0.3125 -0.3485
  625MOL0     C84293   7.268   9.538  10.122 -0.4510 -0.1755 -0.5783
  625MOL0     C84294   6.837   9.616  10.157  0.1140 -0.0430 -0.2807
  625MOL0     C84295   6.803   9.674  10.290 -0.3914 -0.1206 -0.2202
  625MOL0     C84296   6.673   9.715  10.319 -1.1142  0.8929 -0.7220
  625MOL0     C84297   6.576   9.700  10.223  0.6976  0.3457  0.8910
  625MOL0     O84298   6.445   9.737  10.241  0.3203 -0.1405  0.6651
  625MOL0     C84299   6.418   9.819  10.357 -0.5397 -0.0444  1.4120
  625MOL0     C84300   6.270   9.855  10.357 -0.6166  0.4834 -0.5624
  625MOL0     C84301   6.171   9.735  10.386  0.9150 -0.4426  0.0785
  625MOL0     C84302   6.175   9.705  10.538  0.6748 -0.0706  0.1053
  625MOL0     C84303   6.114   9.795  10.638  0.2016 -0.7062 -0.1169
  625MOL0     C84304   6.078   9.882  10.718 -0.6470 -0.3248  0.1999
  625MOL0     C84305   6.603   9.647  10.096  0.9456  1.1823  0.2312
  625MOL0     C84306   6.732   9.610  10.060 -0.1789 -0.5453 -0.5002
  625MOL0     C84307   6.762   9.553   9.923  0.1390 -0.9134 -0.6961
  625MOL0     H84308   7.109   9.377   9.875  1.1183  0.5813 -1.6330
  625MOL0     H84309   7.346   9.260   9.863 -0.6970  0.5534 -0.5078
  625MOL0     H84310   7.636   9.371  10.193  1.1225 -0.7833  0.5053
  625MOL0     H84311   7.552   9.220  10.209  1.6776 -1.0097 -0.7502
  625MOL0     H84312   7.807   9.235  10.035  0.7289  0.0341  1.3529
  625MOL0     H84313   7.690   9.104  10.038  3.3466 -5.5001  2.9892
  625MOL0     H84314   7.742   9.109  10.299  0.3087 -0.8338  0.8308
  625MOL0     H84315   7.891   9.187  10.244  0.7023 -2.1592  0.8312
  625MOL0     H84316   7.800   8.920  10.150 -0.3878  1.1882  1.4149
  625MOL0     H84317   7.930   9.000  10.069 -0.6342 -2.4905 -1.6983
  625MOL0     H84318   8.021   9.034  10.323  2.2134 -1.7460  1.6498
  625MOL0     H84319   7.906   8.910  10.362  0.3981 -3.0071 -0.5286
  625MOL0     H84320   8.118   8.794  10.313  0.6972 -3.0914 -0.8671
  625MOL0     H84321   8.009   8.748  10.188  0.8631 -1.4244  0.6963
  625MOL0     H84322   8.117   8.898  10.028  0.0894 -1.2518 -0.1128
  625MOL0     H84323   8.239   8.813  10.109 -1.3278 -1.9477  2.0552
  625MOL0     H84324   8.316   9.033  10.091 -0.8866  3.5236  0.1784
  625MOL0     H84325   8.177   9.090  10.168 -0.6581 -1.3509 -0.2029
  625MOL0     H84326   8.452   8.835  10.248 -3.0913  1.5925 -3.2000
  625MOL0     H84327   8.578   8.919  10.615  2.7054 -1.4470  0.0088
  625MOL0     H84328   8.547   8.782  10.527 -2.0093  0.8848 -4.1546
  625MOL0     H84329   8.688   8.896  10.332 -2.9909  2.7558 -0.8146
  625MOL0     H84330   8.734   9.001  10.466 -0.7125 -0.3013  2.4297
  625MOL0     H84331   8.766   8.701  10.438 -1.2280  0.9089 -0.8131
  625MOL0     H84332   8.802   8.778  10.584 -1.3989 -0.0341  0.1742
  625MOL0     H84333   9.012   8.755  10.458 -3.5044 -2.6500  0.1914
  625MOL0     H84334   8.961   8.930  10.485 -2.6985  0.8091 -0.9813
  625MOL0     H84335   8.973   8.866  10.025 -0.6453  2.5876  1.9747
  625MOL0     H84336   9.183   8.861   9.912  0.0234  3.5711 -0.6324
  625MOL0     H84337   9.652   8.689  10.070  0.0123  0.0607  0.7847
  625MOL0     H84338   9.813   8.603   9.926 -2.6541 -0.0483 -0.0693
  625MOL0     H84339  10.023   8.854   9.598  0.7149 -1.1867 -1.5056
  625MOL0     H84340  10.124   8.896   9.747 -2.2661 -0.3819  1.7842
  625MOL0     H84341  10.179   8.624   9.708  2.5944  0.3397 -0.6265
  625MOL0     H84342  10.128   8.678   9.541 -4.3381  4.4294  0.2054
  625MOL0     H84343  10.337   8.726   9.502 -2.5028 -0.0322 -1.0497
  625MOL0     H84344  10.338   8.853   9.626  2.1043 -0.1810 -1.0943
  625MOL0     H84345  10.398   8.569   9.685 -0.5416  0.9607 -1.0765
  625MOL0     H84346  10.381   8.708   9.805 -3.0201 -0.1736  0.1749
  625MOL0     H84347  10.596   8.673   9.584  1.8878  0.7134  0.8698
  625MOL0     H84348  10.623   8.666   9.753  1.4543  2.6247 -0.3743
  625MOL0     H84349  10.548   8.898   9.579  1.1959  1.4146 -1.2725
  625MOL0     H84350  10.542   8.900   9.753 -1.1032  0.7072 -1.1353
  625MOL0     H84351  10.776   8.854   9.555 -2.4272  1.1454 -1.1410
  625MOL0     H84352  10.800   8.825   9.735 -0.2550  0.5803  1.4210
  625MOL0     H84353  10.887   9.044   9.616 -0.9046  1.0815 -1.6258
  625MOL0     H84354  10.722   9.087   9.600  1.3196  0.5836 -0.9533
  625MOL0     H84355   9.900   8.995   9.775 -0.9375  1.6650 -0.0721
  625MOL0     H84356   9.709   9.083   9.914  2.7477  1.9001 -1.1398
  625MOL0     H84357   9.413   8.885  10.271 -0.6564 -2.6947  1.0439
  625MOL0     H84358   9.204   8.875  10.399  1.7248  4.9452 -0.4008
  625MOL0     H84359   7.456   9.490  10.206 -0.5435  0.5135  0.0213
  625MOL0     H84360   7.244   9.620  10.189 -3.2174 -2.0236  0.8652
  625MOL0     H84361   6.884   9.679  10.363 -0.5375  3.2358 -0.1094
  625MOL0     H84362   6.658   9.750  10.421 -1.0851  0.2012 -0.4735
  625MOL0     H84363   6.485   9.900  10.328  0.8228 -2.2396 -2.3243
  625MOL0     H84364   6.447   9.765  10.447 -0.1431 -2.5547 -0.1199
  625MOL0     H84365   6.241   9.906  10.264  2.2419 -1.8983 -2.9943
  625MOL0     H84366   6.256   9.933  10.432  0.7726  3.3115 -2.9953
  625MOL0     H84367   6.216   9.649  10.335  1.2861  0.7895 -1.7427
  625MOL0     H84368   6.072   9.758  10.347  1.8417 -0.0730 -2.1805
  625MOL0     H84369   6.116   9.613  10.542  1.4564 -0.5818 -0.0595
  625MOL0     H84370   6.272   9.674  10.577  0.2178 -0.3498  1.0571
  625MOL0     H84371   6.043   9.967  10.773  1.1862 -0.3194  1.4424
  625MOL0     H84372   6.516   9.632  10.033  1.1973 -1.8756  0.4465
  625MOL0     H84373   6.831   9.621   9.873 -0.8282  0.0912 -0.6997
  625MOL0     H84374   6.805   9.452   9.923 -2.2531 -2.0002 -0.9227
  625MOL0     H84375   6.669   9.546   9.866 -0.4315  3.0326 -0.5372
  626MOL0     O84376  11.209   6.630   7.330  0.3044 -0.7296 -0.2220
  626MOL0     C84377  11.208   6.691   7.223 -0.6822  0.2484 -0.2205
  626MOL0     O84378  11.295   6.790   7.192 -0.5422  0.6645 -0.2238
  626MOL0     C84379  11.354   6.848   7.297  0.0759  0.5820 -0.7690
  626MOL0     C84380  11.274   6.927   7.375  1.0359  0.3982  1.0531
  626MOL0     C84381  11.317   6.994   7.482 -0.6402  0.2405 -0.1136
  626MOL0     C84382  11.458   6.991   7.524  0.1678  0.2986  0.4038
  626MOL0     O84383  11.498   7.064   7.637 -0.3658  0.0618  0.9647
  626MOL0     C84384  11.597   6.994   7.713 -0.1562  0.2922 -1.1201
  626MOL0     C84385  11.628   7.063   7.845  0.1027 -0.6742 -0.0105
  626MOL0     C84386  11.505   7.092   7.930 -0.0817  0.0271 -0.2486
  626MOL0     C84387  11.529   7.112   8.086 -1.2576 -0.4899  0.8933
  626MOL0     C84388  11.401   7.150   8.160  0.9405  1.0094  0.3455
  626MOL0     C84389  11.305   7.039   8.184  0.7238  0.0645 -0.3555
  626MOL0     C84390  11.179   7.100   8.247  0.1351 -0.1215 -0.2624
  626MOL0     C84391  11.057   7.009   8.239 -0.1613  0.0682 -1.5764
  626MOL0     N84392  11.067   6.888   8.327 -0.1623 -0.0129 -1.0662
  626MOL0     C84393  11.086   6.758   8.282  0.2337  0.6897  0.4620
  626MOL0     C84394  11.076   6.676   8.393 -0.6346  0.2454 -0.2457
  626MOL0     C84395  11.099   6.514   8.409 -1.1805 -0.4676  1.3385
  626MOL0     C84396  11.253   6.489   8.398 -0.4631  0.1660  0.1088
  626MOL0     C84397  11.328   6.529   8.526  0.3495  0.7575  0.4613
  626MOL0     C84398  11.277   6.479   8.657  0.6923  0.0362 -0.7687
  626MOL0     O84399  11.257   6.334   8.652  0.0306  0.3624 -0.0238
  626MOL0     C84400  11.264   6.267   8.770 -0.1017 -1.0356  0.2913
  626MOL0     C84401  11.367   6.176   8.766  1.3950  0.2225 -0.3283
  626MOL0     C84402  11.395   6.106   8.882  0.4928 -0.0376  0.0378
  626MOL0     C84403  11.351   6.142   9.014  0.2953 -0.2485  0.1691
  626MOL0     C84404  11.406   6.085   9.138 -0.2010  0.5143 -0.2502
  626MOL0     O84405  11.499   5.989   9.113 -0.1278  0.2827 -0.8010
  626MOL0     C84406  11.546   5.939   9.232 -0.4852 -0.3595 -0.1596
  626MOL0     C84407  11.628   6.008   9.322  0.1165  1.0656  0.2689
  626MOL0     C84408  11.659   5.945   9.446  0.6020 -0.1723 -0.4234
  626MOL0     C84409  11.609   5.821   9.472 -1.0502 -0.0166 -0.7322
  626MOL0     O84410  11.631   5.783   9.609 -0.4168  0.0402 -0.2771
  626MOL0     C84411  11.587   5.651   9.638  0.7139  1.1239  0.4181
  626MOL0     C84412  11.627   5.646   9.791 -0.8282  0.3339 -0.2116
  626MOL0     C84413  11.557   5.543   9.884  0.8186  1.0643 -0.4784
  626MOL0     C84414  11.538   5.411   9.816 -0.4386 -0.2884  0.4521
  626MOL0     C84415  11.469   5.311   9.910  0.0707 -0.7181 -0.2989
  626MOL0     C84416  11.405   5.186   9.844 -0.3848 -0.6027 -0.6612
  626MOL0     C84417  11.362   5.085   9.949 -0.0619 -0.4872 -0.7081
  626MOL0     C84418  11.291   4.960   9.897 -0.9497  0.4586  0.0836
  626MOL0    Cl84419  11.419   4.862   9.841  0.2232  0.0224  0.2386
  626MOL0     C84420  11.528   5.754   9.385  0.3613  0.6896  0.0040
  626MOL0     C84421  11.492   5.820   9.270 -0.6443 -0.7747  0.5258
  626MOL0     O84422  11.358   6.119   9.247  0.0326 -0.5847  0.3098
  626MOL0     C84423  11.247   6.238   9.006 -0.1171 -0.1945 -0.0496
  626MOL0     C84424  11.201   6.305   8.893 -0.3174  0.2484 -0.1753
  626MOL0     N84425  11.060   6.759   8.505  0.8987  0.3243  1.0018
  626MOL0     N84426  11.056   6.880   8.464 -0.0712  0.0298 -0.6582
  626MOL0     C84427  11.539   6.903   7.455  0.3777  0.3974 -0.6091
  626MOL0     C84428  11.488   6.840   7.342 -0.5123 -0.2187 -0.0225
  626MOL0     C84429  11.114   6.654   7.115  0.3564 -0.0767  0.1779
  626MOL0     C84430  11.096   6.513   7.104  0.7541 -0.0235  0.1778
  626MOL0     C84431  11.012   6.470   7.002 -0.0958  0.9717  1.0072
  626MOL0     C84432  10.951   6.550   6.908 -0.4264 -0.4976 -0.4322
  626MOL0     O84433  10.894   6.490   6.801 -0.3071 -0.2510  0.0996
  626MOL0     C84434  10.823   6.553   6.697 -0.0493  0.4965  0.4405
  626MOL0     C84435  10.899   6.599   6.573 -0.4774 -0.9474  0.5428
  626MOL0     C84436  10.984   6.493   6.510 -0.0795  0.2789  0.4004
  626MOL0     C84437  11.076   6.537   6.390  0.3246 -0.6535 -0.7080
  626MOL0     C84438  11.001   6.538   6.264  0.3834  0.3436 -0.6890
  626MOL0     C84439  10.970   6.531   6.152  0.4042  1.0272 -0.8897
  626MOL0     C84440  10.955   6.688   6.939 -0.5628 -0.5089 -0.4180
  626MOL0     C84441  11.041   6.743   7.035 -0.1726 -0.5785 -0.3848
  626MOL0     C84442  11.054   6.896   7.041  1.0565  0.6607 -0.5445
  626MOL0     H84443  11.168   6.942   7.355  0.5045 -3.9464 -0.3387
  626MOL0     H84444  11.249   7.053   7.543 -0.0205 -0.4437  1.2885
  626MOL0     H84445  11.561   6.893   7.735  1.2329  0.2108  1.1242
  626MOL0     H84446  11.694   7.008   7.663  1.5661 -1.8032  1.3442
  626MOL0     H84447  11.695   7.149   7.839 -2.3343  1.2637 -1.8564
  626MOL0     H84448  11.676   6.986   7.905 -1.5777 -0.9708  1.0410
  626MOL0     H84449  11.428   7.015   7.927 -1.3312  1.2448 -0.6071
  626MOL0     H84450  11.458   7.184   7.893 -2.2076 -0.2729  1.5284
  626MOL0     H84451  11.569   7.020   8.129  0.8462 -0.7771 -1.4234
  626MOL0     H84452  11.603   7.192   8.098  1.5013 -2.9889  1.9446
  626MOL0     H84453  11.432   7.193   8.256 -3.0475  2.3475  1.1914
  626MOL0     H84454  11.349   7.227   8.103 -0.6908 -2.1535 -2.8368
  626MOL0     H84455  11.280   6.972   8.102 -0.9124 -0.1240  0.2586
  626MOL0     H84456  11.354   6.973   8.256 -1.4382  0.4562  1.6074
  626MOL0     H84457  11.156   7.193   8.195  1.3290  2.7792  3.8505
  626MOL0     H84458  11.195   7.125   8.352 -2.6132  1.0759 -0.0635
  626MOL0     H84459  10.966   7.061   8.270  0.6094  0.2177  0.5872
  626MOL0     H84460  11.052   6.968   8.138 -1.6207  0.2057 -1.5821
  626MOL0     H84461  11.103   6.721   8.182  2.9639 -1.2339  1.5105
  626MOL0     H84462  11.065   6.489   8.510  1.4558  2.6411  3.1967
  626MOL0     H84463  11.039   6.475   8.327  0.2501  2.2376 -1.1744
  626MOL0     H84464  11.282   6.391   8.359  0.0342  0.5625 -0.5523
  626MOL0     H84465  11.295   6.548   8.315  0.6037 -1.4849 -0.5838
  626MOL0     H84466  11.340   6.637   8.535 -3.8737  1.3931  0.7640
  626MOL0     H84467  11.434   6.503   8.520  1.5761  4.3431  3.3827
  626MOL0     H84468  11.183   6.530   8.680  0.1913 -0.5268 -1.5359
  626MOL0     H84469  11.353   6.496   8.735 -1.9153 -1.4042  2.3523
  626MOL0     H84470  11.431   6.149   8.683  0.7503  0.5492 -0.9461
  626MOL0     H84471  11.463   6.026   8.854 -0.5646 -1.3798  1.1561
  626MOL0     H84472  11.667   6.107   9.300  1.7573  0.2675 -0.6308
  626MOL0     H84473  11.713   5.991   9.528 -3.2447 -1.0652  2.9072
  626MOL0     H84474  11.479   5.638   9.639  0.7857  0.4658  0.1423
  626MOL0     H84475  11.636   5.570   9.583 -1.3723 -2.4405  3.3458
  626MOL0     H84476  11.735   5.634   9.796 -0.8062  0.6742  0.1309
  626MOL0     H84477  11.608   5.743   9.838  1.1978 -0.9023  3.5326
  626MOL0     H84478  11.622   5.520   9.969 -0.4025  3.1384  1.1303
  626MOL0     H84479  11.461   5.576   9.925 -0.2858 -1.3836 -0.9101
  626MOL0     H84480  11.637   5.373   9.791 -0.1910  0.8003 -0.3093
  626MOL0     H84481  11.476   5.410   9.725 -0.0170  1.3039  0.1074
  626MOL0     H84482  11.396   5.364   9.972  0.0737 -0.4359 -0.5364
  626MOL0     H84483  11.544   5.270   9.978 -0.6414 -0.4549  0.6620
  626MOL0     H84484  11.322   5.217   9.780 -1.3040 -1.3160  0.1515
  626MOL0     H84485  11.482   5.136   9.785  0.5143 -2.4917  1.9320
  626MOL0     H84486  11.282   5.136  10.004 -1.7847 -1.6476 -2.0312
  626MOL0     H84487  11.442   5.059  10.019 -2.2807 -3.6228  0.9287
  626MOL0     H84488  11.250   4.904   9.982  2.5575  0.2611  1.8610
  626MOL0     H84489  11.223   4.979   9.813 -1.1026 -2.1895 -0.4799
  626MOL0     H84490  11.484   5.656   9.402  0.6113  0.8630  1.9362
  626MOL0     H84491  11.431   5.768   9.197  0.1333 -1.7290  0.5448
  626MOL0     H84492  11.188   6.270   9.091 -0.9935 -1.3784 -0.1834
  626MOL0     H84493  11.142   6.396   8.891 -1.0505 -0.2131  0.2379
  626MOL0     H84494  11.643   6.886   7.478  0.6322 -2.6162 -3.2557
  626MOL0     H84495  11.574   6.801   7.287 -0.2301 -0.6827  0.7255
  626MOL0     H84496  11.138   6.445   7.177 -3.2465 -1.1041  1.7582
  626MOL0     H84497  11.013   6.363   6.986  2.0165  0.4989  3.5634
  626MOL0     H84498  10.756   6.631   6.736 -0.6708 -1.1201  2.8322
  626MOL0     H84499  10.765   6.466   6.665  0.5181 -0.4764  1.9485
  626MOL0     H84500  10.969   6.675   6.610 -1.8553 -0.5086  2.4035
  626MOL0     H84501  10.843   6.656   6.498  0.4435 -2.3968 -1.3329
  626MOL0     H84502  10.928   6.401   6.487 -0.8329  1.2334 -2.0068
  626MOL0     H84503  11.052   6.448   6.582 -0.3830 -0.6236  0.1444
  626MOL0     H84504  11.109   6.641   6.401 -2.4822  0.3286 -0.6325
  626MOL0     H84505  11.159   6.468   6.380 -0.6613 -2.0449  0.3136
  626MOL0     H84506  10.923   6.531   6.056  1.2144  2.0127 -1.3034
  626MOL0     H84507  10.898   6.753   6.874  1.5118  1.4319 -0.4312
  626MOL0     H84508  11.078   6.911   7.146 -3.7523 -4.1961  1.7452
  626MOL0     H84509  11.128   6.934   6.970  0.5648  1.5572 -0.5992
  626MOL0     H84510  10.959   6.948   7.024 -0.0490 -2.0165 -3.6104
  627MOL0     O84511   1.345   0.828   7.660 -0.3918 -0.1345 -0.2041
  627MOL0     C84512   1.358   0.710   7.628  0.5197  1.2731 -0.0447
  627MOL0     O84513   1.293   0.603   7.685 -0.0144  0.6264 -0.2291
  627MOL0     C84514   1.254   0.597   7.817  0.7783  0.4327 -1.2588
  627MOL0     C84515   1.151   0.497   7.830  0.2766  0.8834 -0.3129
  627MOL0     C84516   1.084   0.496   7.953  0.4502  0.9433 -0.4468
  627MOL0     C84517   1.109   0.595   8.056  0.0550 -0.0322  0.2609
  627MOL0     O84518   1.042   0.595   8.169  0.1577 -0.6145 -0.7610
  627MOL0     C84519   0.905   0.538   8.182 -0.5190  0.4051  0.2106
  627MOL0     C84520   0.826   0.628   8.280  0.1944  0.4785 -0.1054
  627MOL0     C84521   0.676   0.634   8.253 -0.8364  0.1671 -0.4695
  627MOL0     C84522   0.576   0.653   8.366  0.2161  0.5711  0.1231
  627MOL0     C84523   0.568   0.553   8.480 -0.3215  0.5674 -0.7830
  627MOL0     C84524   0.469   0.577   8.587  0.8961 -0.0844  0.0155
  627MOL0     C84525   0.508   0.483   8.704 -0.1119  0.4964 -0.0243
  627MOL0     C84526   0.428   0.521   8.832  0.0774 -0.6698  0.9736
  627MOL0     N84527   0.475   0.647   8.893  0.2444  0.0668 -0.4288
  627MOL0     C84528   0.586   0.655   8.977  0.4442  0.4007 -0.1935
  627MOL0     C84529   0.592   0.789   8.998  0.8243  1.4309 -0.1457
  627MOL0     C84530   0.695   0.856   9.082  0.0149 -0.1028 -0.0368
  627MOL0     C84531   0.833   0.793   9.075  0.8699 -0.2796 -0.2191
  627MOL0     C84532   0.938   0.894   9.137 -0.6179  0.9109 -0.1580
  627MOL0     C84533   1.075   0.830   9.168  0.2060  0.3835 -0.2200
  627MOL0     O84534   1.139   0.790   9.044  0.2489 -0.3721 -0.1202
  627MOL0     C84535   1.262   0.730   9.052  0.4098 -0.0232  0.8395
  627MOL0     C84536   1.318   0.699   8.929  0.3923 -0.0341  0.1759
  627MOL0     C84537   1.446   0.649   8.919  0.8495  0.8906  0.3673
  627MOL0     C84538   1.518   0.616   9.036  0.0893 -0.0988 -0.4360
  627MOL0     C84539   1.657   0.573   9.021  0.0887 -0.6571 -0.4152
  627MOL0     O84540   1.689   0.507   8.910  0.1728 -0.3239  0.3651
  627MOL0     C84541   1.820   0.465   8.904 -0.7072 -0.2203  0.0584
  627MOL0     C84542   1.889   0.490   8.784  0.7129  0.8700 -0.7941
  627MOL0     C84543   2.018   0.443   8.752  0.0191  0.4145 -0.0228
  627MOL0     C84544   2.074   0.366   8.844 -0.4557  0.4751 -0.5974
  627MOL0     O84545   2.201   0.301   8.842 -1.4769  0.7027 -0.1686
  627MOL0     C84546   2.257   0.249   8.726  0.7370  0.1006 -0.2003
  627MOL0     C84547   2.357   0.340   8.653 -0.4052  0.6332 -0.2362
  627MOL0     C84548   2.378   0.284   8.527  0.1214 -0.4685  0.8799
  627MOL0     C84549   2.495   0.345   8.451 -0.3074 -0.8654 -0.2475
  627MOL0     C84550   2.478   0.281   8.306 -0.1525  0.0699 -0.3270
  627MOL0     C84551   2.521   0.135   8.273 -0.7054  0.5118  0.0863
  627MOL0     C84552   2.503   0.103   8.122  0.0313 -0.1018  0.4393
  627MOL0     C84553   2.620   0.164   8.043 -0.2181  1.0465 -0.0623
  627MOL0    Cl84554   2.631   0.081   7.887  0.1182 -0.2628 -0.5200
  627MOL0     C84555   2.016   0.341   8.970  0.9712 -0.8740 -0.6749
  627MOL0     C84556   1.890   0.386   9.003  0.2280 -0.0358 -0.1839
  627MOL0     O84557   1.731   0.596   9.118  0.1051 -0.2475 -0.0863
  627MOL0     C84558   1.465   0.656   9.162  0.3889  0.9278 -0.2135
  627MOL0     C84559   1.335   0.703   9.164 -0.2105  0.1273 -0.3764
  627MOL0     N84560   0.483   0.855   8.944 -0.6497  0.1062 -0.3010
  627MOL0     N84561   0.414   0.774   8.885 -0.5793  0.0487  0.0704
  627MOL0     C84562   1.220   0.676   8.046 -0.4825 -0.4918  0.3294
  627MOL0     C84563   1.292   0.685   7.924 -0.0302  0.1728  0.2985
  627MOL0     C84564   1.457   0.668   7.523  0.4870  0.7245 -1.0145
  627MOL0     C84565   1.449   0.536   7.458 -0.1489  0.2174  1.0593
  627MOL0     C84566   1.546   0.496   7.363 -0.2764  0.4311  0.4162
  627MOL0     C84567   1.636   0.587   7.315 -0.9279  0.3390 -0.2180
  627MOL0     O84568   1.720   0.547   7.211 -0.1447  0.5326  0.8652
  627MOL0     C84569   1.707   0.612   7.085  0.9035 -0.0625 -0.6013
  627MOL0     C84570   1.830   0.562   6.995  0.1632 -1.2556 -0.0134
  627MOL0     C84571   1.828   0.624   6.859  0.1397  0.5879 -0.8129
  627MOL0     C84572   1.909   0.541   6.761 -0.0734 -0.0092  0.0672
  627MOL0     C84573   1.879   0.583   6.618 -0.7057  0.5889 -0.0645
  627MOL0     C84574   1.854   0.631   6.508 -0.1873 -0.5412 -0.0979
  627MOL0     C84575   1.649   0.705   7.387 -0.8130 -0.6845  0.2888
  627MOL0     C84576   1.569   0.746   7.492  0.1205 -0.7342  0.7229
  627MOL0     C84577   1.616   0.875   7.560  0.3816  0.1385 -0.5719
  627MOL0     H84578   1.117   0.428   7.753 -4.3778  0.8607  1.4249
  627MOL0     H84579   1.001   0.428   7.963 -1.1500  2.8999  0.4049
  627MOL0     H84580   0.856   0.532   8.085  2.1155 -2.8691 -1.1172
  627MOL0     H84581   0.898   0.433   8.211 -2.7440  0.9324  1.8705
  627MOL0     H84582   0.858   0.733   8.276 -0.1718  0.6653  1.4182
  627MOL0     H84583   0.831   0.594   8.384 -1.9744 -0.4402 -0.2568
  627MOL0     H84584   0.648   0.551   8.187  0.7617 -1.1904  0.4731
  627MOL0     H84585   0.661   0.726   8.196 -0.1746 -0.2222 -1.2931
  627MOL0     H84586   0.602   0.747   8.416  2.8694  0.5882 -1.0926
  627MOL0     H84587   0.479   0.667   8.318  0.6978  0.2372 -0.9883
  627MOL0     H84588   0.553   0.452   8.438  1.6609 -2.6499  5.1195
  627MOL0     H84589   0.667   0.551   8.525  0.7190 -0.8668 -2.9121
  627MOL0     H84590   0.467   0.680   8.623  1.6203 -0.1633  0.3019
  627MOL0     H84591   0.373   0.541   8.547  1.9761 -0.3258 -2.5672
  627MOL0     H84592   0.616   0.492   8.718 -0.1519  2.3462 -0.7230
  627MOL0     H84593   0.492   0.378   8.676 -0.5713  0.6859 -0.4921
  627MOL0     H84594   0.325   0.542   8.803  0.5653  1.0452  0.3318
  627MOL0     H84595   0.424   0.441   8.906 -0.5896  0.0716  1.7595
  627MOL0     H84596   0.655   0.576   9.003 -1.1532 -1.9795 -2.6326
  627MOL0     H84597   0.680   0.958   9.044 -0.7050 -0.7410 -1.5457
  627MOL0     H84598   0.660   0.866   9.185 -6.0899  3.7354 -1.9723
  627MOL0     H84599   0.830   0.702   9.136  0.6985 -1.5628 -2.0632
  627MOL0     H84600   0.853   0.772   8.970 -0.6987  2.2333 -1.1062
  627MOL0     H84601   0.901   0.939   9.229 -3.2254 -0.3563 -0.5087
  627MOL0     H84602   0.956   0.981   9.073 -0.9837  2.5756  1.9013
  627MOL0     H84603   1.046   0.738   9.221  2.7603 -0.6726 -0.4806
  627MOL0     H84604   1.140   0.895   9.227  0.6164 -0.9226  0.8399
  627MOL0     H84605   1.273   0.713   8.831  0.2267 -2.9924 -0.2645
  627MOL0     H84606   1.491   0.642   8.821 -2.0972  0.0710 -1.0668
  627MOL0     H84607   1.842   0.544   8.702  0.3103 -1.1605 -1.9677
  627MOL0     H84608   2.062   0.452   8.653  0.0973 -4.3858 -0.6691
  627MOL0     H84609   2.308   0.154   8.744  2.9478  1.6031  2.0920
  627MOL0     H84610   2.176   0.234   8.654  1.5461  3.0762 -1.8905
  627MOL0     H84611   2.319   0.443   8.647 -0.1954  0.6507 -1.3386
  627MOL0     H84612   2.453   0.335   8.705 -1.3433 -2.5574  1.4247
  627MOL0     H84613   2.386   0.175   8.529 -3.6430 -0.8739  2.4591
  627MOL0     H84614   2.290   0.319   8.471  2.6995  2.0776 -1.9673
  627MOL0     H84615   2.589   0.333   8.505 -0.6825  2.5537  1.4933
  627MOL0     H84616   2.480   0.454   8.447 -0.5636 -0.6908  2.8658
  627MOL0     H84617   2.532   0.336   8.228 -0.5653 -0.5569 -1.0747
  627MOL0     H84618   2.374   0.296   8.278 -0.4060 -3.9302 -2.2233
  627MOL0     H84619   2.626   0.134   8.306 -0.4706  0.3860 -0.6426
  627MOL0     H84620   2.455   0.064   8.323 -2.6011  2.9130  1.2101
  627MOL0     H84621   2.413   0.156   8.089 -0.6561 -1.0457  0.7456
  627MOL0     H84622   2.506  -0.006   8.111 -1.7096 -0.2783  1.3318
  627MOL0     H84623   2.605   0.273   8.039  3.3080  1.6622  0.1495
  627MOL0     H84624   2.711   0.139   8.099 -2.1441 -1.7198  2.0667
  627MOL0     H84625   2.063   0.281   9.047 -0.2417  0.7623  1.4351
  627MOL0     H84626   1.833   0.359   9.091  0.0448 -1.5276 -0.7295
  627MOL0     H84627   1.525   0.646   9.251 -1.8264 -2.2590  1.0957
  627MOL0     H84628   1.291   0.730   9.260 -0.4251  0.4107 -0.5540
  627MOL0     H84629   1.258   0.740   8.124 -1.7684  1.4914 -0.6023
  627MOL0     H84630   1.376   0.753   7.915  2.3666 -2.6992 -0.9498
  627MOL0     H84631   1.383   0.455   7.485  0.9448 -2.1382 -2.5540
  627MOL0     H84632   1.553   0.400   7.313  0.8144  1.1065 -0.7951
  627MOL0     H84633   1.714   0.720   7.098  0.8195 -0.0241 -0.8674
  627MOL0     H84634   1.608   0.589   7.044  0.5428  1.5254 -0.6579
  627MOL0     H84635   1.825   0.454   7.011 -0.5772 -0.7059  5.3473
  627MOL0     H84636   1.921   0.597   7.044 -1.9358  1.5198  2.2632
  627MOL0     H84637   1.866   0.726   6.870  3.8960 -0.8089  1.1742
  627MOL0     H84638   1.730   0.636   6.813 -0.9783  1.2479  1.5930
  627MOL0     H84639   2.016   0.548   6.782  0.2967 -0.9623 -1.3505
  627MOL0     H84640   1.896   0.433   6.773  1.2196 -0.0684  1.1640
  627MOL0     H84641   1.831   0.678   6.414 -1.2495 -1.6801 -0.4314
  627MOL0     H84642   1.736   0.764   7.360  0.5608 -1.1232  3.3186
  627MOL0     H84643   1.713   0.909   7.523  1.0325  0.6933  1.5183
  627MOL0     H84644   1.545   0.957   7.544 -3.3186 -2.0658  2.6846
  627MOL0     H84645   1.618   0.864   7.669  0.6379  0.6513 -0.5175
  628MOL0     O84646   1.384   2.701   2.276 -0.4550 -0.1165  0.3482
  628MOL0     C84647   1.418   2.608   2.349  0.0661  0.8348 -0.3030
  628MOL0     O84648   1.388   2.476   2.325  0.6864  0.1257 -0.3375
  628MOL0     C84649   1.300   2.452   2.226 -0.4579  0.1328  1.1253
  628MOL0     C84650   1.347   2.376   2.113  0.8252 -0.7591 -0.2462
  628MOL0     C84651   1.252   2.342   2.014  0.1391 -0.0177 -0.9109
  628MOL0     C84652   1.118   2.385   2.022 -0.5828 -0.2189 -0.3212
  628MOL0     O84653   1.047   2.346   1.907  0.4242  0.3701  0.2293
  628MOL0     C84654   0.912   2.399   1.895 -0.6084  0.1922 -0.1296
  628MOL0     C84655   0.825   2.296   1.973  0.1433 -0.2285 -0.5645
  628MOL0     C84656   0.832   2.161   1.906  0.2093 -0.3237 -1.0023
  628MOL0     C84657   0.727   2.070   1.980  0.0473  0.4680 -0.3437
  628MOL0     C84658   0.729   1.924   1.919  0.2854 -0.2723  1.0117
  628MOL0     C84659   0.625   1.907   1.808  0.5441 -0.2988  0.1083
  628MOL0     C84660   0.619   1.774   1.747 -0.0494  0.6486  0.0933
  628MOL0     C84661   0.511   1.770   1.646  0.1004 -0.0382  0.6800
  628MOL0     N84662   0.474   1.640   1.584 -0.1024 -0.0429 -0.5714
  628MOL0     C84663   0.405   1.625   1.465 -0.4964  0.3732  0.8367
  628MOL0     C84664   0.423   1.498   1.426  1.0627 -0.1784  1.3701
  628MOL0     C84665   0.367   1.424   1.310  0.1682  0.6307  0.3352
  628MOL0     C84666   0.262   1.326   1.365  0.4391 -0.2891 -0.5398
  628MOL0     C84667   0.234   1.221   1.267  0.6052  0.7423 -0.2849
  628MOL0     C84668   0.160   1.105   1.333 -0.1623 -0.2307 -0.2881
  628MOL0     O84669   0.096   1.010   1.240 -1.1870 -0.2822 -0.0963
  628MOL0     C84670   0.149   0.877   1.235  0.0531  0.2285  0.1171
  628MOL0     C84671   0.280   0.841   1.271 -0.5997  0.0523  0.3490
  628MOL0     C84672   0.325   0.710   1.248  0.1937 -0.4139 -0.1612
  628MOL0     C84673   0.237   0.608   1.207 -0.0151  0.1120  0.0550
  628MOL0     C84674   0.287   0.482   1.170 -0.3628  0.3727 -0.3342
  628MOL0     O84675   0.417   0.454   1.210 -0.2423 -0.4826  0.5229
  628MOL0     C84676   0.476   0.344   1.159 -0.2280  1.1674 -0.1188
  628MOL0     C84677   0.547   0.340   1.038 -0.4323 -0.4819  0.8651
  628MOL0     C84678   0.606   0.224   0.978  1.3299  0.1064 -1.1523
  628MOL0     C84679   0.583   0.106   1.052 -0.2225 -0.5012 -1.1552
  628MOL0     O84680   0.640  -0.015   1.016  0.0289  0.0603 -0.2250
  628MOL0     C84681   0.770  -0.010   0.952 -0.3469 -0.7675  0.2852
  628MOL0     C84682   0.837  -0.150   0.976 -0.6665  0.1419 -0.1616
  628MOL0     C84683   0.963  -0.174   0.901 -0.1708  0.2370 -0.1106
  628MOL0     C84684   1.008  -0.318   0.927  0.4217  0.6598 -0.7077
  628MOL0     C84685   1.155  -0.343   0.869 -0.3468 -1.0235  0.4713
  628MOL0     C84686   1.247  -0.435   0.961 -0.0810 -0.1985 -0.3448
  628MOL0     C84687   1.373  -0.469   0.889  0.0858  0.7346  0.1090
  628MOL0     C84688   1.462  -0.347   0.883 -0.6787 -0.5817 -0.1515
  628MOL0    Cl84689   1.631  -0.360   0.876 -0.3953 -0.0188  0.1565
  628MOL0     C84690   0.515   0.102   1.175 -0.7618  1.0063  0.1144
  628MOL0     C84691   0.457   0.220   1.218 -1.2689 -0.3827 -0.2746
  628MOL0     O84692   0.223   0.409   1.093  0.5440 -0.8515  0.4098
  628MOL0     C84693   0.100   0.639   1.185 -0.0389 -0.6380 -0.4247
  628MOL0     C84694   0.060   0.774   1.196  0.4453  0.4467 -0.0034
  628MOL0     N84695   0.507   1.441   1.516  0.4996  0.3351 -0.4833
  628MOL0     N84696   0.530   1.528   1.615  0.4217  1.0117 -0.4956
  628MOL0     C84697   1.070   2.453   2.126 -0.5571 -0.3035  0.3349
  628MOL0     C84698   1.161   2.486   2.229 -0.3913  0.3657  0.4028
  628MOL0     C84699   1.501   2.638   2.463  0.0533  0.8235  0.1118
  628MOL0     C84700   1.562   2.532   2.533  0.1324 -0.3667  0.8866
  628MOL0     C84701   1.647   2.557   2.642  0.1911 -0.2699 -0.0861
  628MOL0     C84702   1.676   2.676   2.694 -0.5070 -0.0509  0.6107
  628MOL0     O84703   1.779   2.669   2.786  0.3978 -0.4876 -0.5413
  628MOL0     C84704   1.853   2.785   2.824  0.2938  0.2161 -0.8158
  628MOL0     C84705   1.981   2.739   2.901 -0.1464  1.2054 -0.3437
  628MOL0     C84706   1.957   2.676   3.045  0.6389 -0.5298  0.4987
  628MOL0     C84707   2.101   2.631   3.110 -0.0332 -0.1318 -0.0624
  628MOL0     C84708   2.182   2.545   3.031  1.0596 -0.0493  0.6232
  628MOL0     C84709   2.247   2.482   2.956 -0.2077  0.3989  0.1536
  628MOL0     C84710   1.609   2.783   2.634  0.2909 -0.1980 -0.2637
  628MOL0     C84711   1.511   2.766   2.528 -0.1320 -0.5403  0.5843
  628MOL0     C84712   1.470   2.897   2.458 -0.2833  0.1656  0.0873
  628MOL0     H84713   1.452   2.354   2.103  1.0406  0.4713 -0.9774
  628MOL0     H84714   1.286   2.284   1.929  4.6567 -0.9772  1.2025
  628MOL0     H84715   0.890   2.498   1.936  1.5030  0.3899  0.6100
  628MOL0     H84716   0.904   2.410   1.786 -1.4241  1.7867  0.0612
  628MOL0     H84717   0.726   2.342   1.976  0.1748 -0.2033  0.8885
  628MOL0     H84718   0.849   2.281   2.078  0.8629  0.4760 -0.6233
  628MOL0     H84719   0.936   2.126   1.901  0.7252  1.2581 -2.7739
  628MOL0     H84720   0.804   2.173   1.801 -1.6374  1.8300 -0.3446
  628MOL0     H84721   0.745   2.060   2.087  1.9340  0.1560 -0.6606
  628MOL0     H84722   0.627   2.112   1.965 -1.0992 -2.8637 -3.6774
  628MOL0     H84723   0.823   1.888   1.878  0.4089  1.3085 -0.1936
  628MOL0     H84724   0.693   1.859   2.000 -3.0162  0.6034  0.3735
  628MOL0     H84725   0.525   1.942   1.834 -0.4011 -1.6140 -1.5771
  628MOL0     H84726   0.657   1.975   1.728  0.3512 -1.0248 -0.6036
  628MOL0     H84727   0.592   1.699   1.822 -0.3136 -0.0058 -0.6405
  628MOL0     H84728   0.716   1.752   1.700  0.0314  1.2400 -0.0226
  628MOL0     H84729   0.420   1.791   1.704 -0.5694 -2.2455  0.5381
  628MOL0     H84730   0.513   1.851   1.573 -1.9014 -1.9223 -1.6888
  628MOL0     H84731   0.346   1.700   1.414 -1.4999  0.4497  2.0434
  628MOL0     H84732   0.328   1.485   1.229 -3.0828 -3.3033 -1.4293
  628MOL0     H84733   0.455   1.368   1.278 -0.2290 -0.7315  1.4952
  628MOL0     H84734   0.301   1.278   1.456  0.9581 -2.3084 -1.7773
  628MOL0     H84735   0.172   1.383   1.391 -0.6487 -2.4432  0.7133
  628MOL0     H84736   0.326   1.183   1.220 -0.9026  0.9775 -3.7136
  628MOL0     H84737   0.184   1.246   1.173  1.8752 -1.7085 -1.7275
  628MOL0     H84738   0.084   1.143   1.401  0.1643  0.9389 -0.5558
  628MOL0     H84739   0.224   1.052   1.405 -1.7400 -2.3333 -0.3421
  628MOL0     H84740   0.363   0.904   1.301 -0.1986 -1.4281  2.5701
  628MOL0     H84741   0.432   0.700   1.264  0.2517  0.0643 -0.2604
  628MOL0     H84742   0.544   0.437   0.989 -1.3038  0.8381  3.3773
  628MOL0     H84743   0.659   0.235   0.884  2.4823  1.1842 -0.4124
  628MOL0     H84744   0.754   0.003   0.845 -1.4098 -4.0322 -0.0393
  628MOL0     H84745   0.820   0.079   0.992 -0.2352 -0.6688 -0.0680
  628MOL0     H84746   0.849  -0.169   1.083 -1.4543 -0.3014 -0.1500
  628MOL0     H84747   0.762  -0.220   0.938  1.0616 -1.8084 -0.1658
  628MOL0     H84748   0.951  -0.157   0.794 -0.3798  1.7127  0.1289
  628MOL0     H84749   1.038  -0.100   0.930  1.4569 -1.2337 -0.3997
  628MOL0     H84750   0.935  -0.387   0.885 -0.9911  1.5200  0.2491
  628MOL0     H84751   1.006  -0.341   1.034 -1.5543 -1.6485 -1.1512
  628MOL0     H84752   1.203  -0.248   0.845 -1.8123 -0.7397 -1.5888
  628MOL0     H84753   1.157  -0.395   0.772 -0.0343 -0.7246  0.3174
  628MOL0     H84754   1.266  -0.390   1.060 -2.7149 -1.5491  0.8706
  628MOL0     H84755   1.204  -0.533   0.985  2.9274 -1.5804 -0.1096
  628MOL0     H84756   1.347  -0.497   0.787 -0.0967  2.3438 -0.3226
  628MOL0     H84757   1.430  -0.552   0.932 -1.9228 -1.6996 -1.6177
  628MOL0     H84758   1.425  -0.290   0.797 -0.0220 -0.1211 -0.1328
  628MOL0     H84759   1.441  -0.292   0.975 -0.9660  0.0825 -0.6057
  628MOL0     H84760   0.484   0.009   1.222 -2.0664  2.0326  1.3748
  628MOL0     H84761   0.411   0.234   1.316  0.3561 -0.2925  0.5048
  628MOL0     H84762   0.022   0.569   1.154 -1.4184  0.7240 -0.1509
  628MOL0     H84763  -0.036   0.811   1.160 -0.5871 -2.2949 -0.2789
  628MOL0     H84764   0.964   2.475   2.125 -0.3230  0.8858 -0.2307
  628MOL0     H84765   1.137   2.537   2.322  0.6954  1.8953 -0.1093
  628MOL0     H84766   1.552   2.431   2.496 -0.5316  0.8345 -2.6283
  628MOL0     H84767   1.689   2.468   2.688 -3.8800 -2.0886  0.5012
  628MOL0     H84768   1.794   2.859   2.879  0.4177 -1.1526  1.2611
  628MOL0     H84769   1.891   2.833   2.733 -0.2857  0.1940 -1.0675
  628MOL0     H84770   2.059   2.814   2.914  1.0905 -0.3258  1.7891
  628MOL0     H84771   2.017   2.657   2.838  2.6689 -0.2598  2.8278
  628MOL0     H84772   1.886   2.592   3.043  1.3265 -1.1171  0.5576
  628MOL0     H84773   1.919   2.758   3.107 -2.2670  1.4548 -3.4839
  628MOL0     H84774   2.137   2.731   3.139 -3.3860  1.5535 -1.1768
  628MOL0     H84775   2.085   2.576   3.204  0.9184  1.2196  0.9299
  628MOL0     H84776   2.281   2.417   2.877 -0.2163  1.5020 -0.7790
  628MOL0     H84777   1.634   2.887   2.653  1.5508  0.0403 -2.7301
  628MOL0     H84778   1.499   2.980   2.523 -0.1488 -2.5346  3.8264
  628MOL0     H84779   1.527   2.914   2.366 -1.3164  1.7675 -0.3078
  628MOL0     H84780   1.362   2.892   2.441 -0.0119 -1.2167 -1.5365
  629MOL0     O84781   2.615   2.619   1.730 -0.4363 -0.3296  0.2127
  629MOL0     C84782   2.716   2.567   1.691  0.9959 -0.0738  0.1915
  629MOL0     O84783   2.801   2.493   1.770 -0.4449  0.1385  0.7452
  629MOL0     C84784   2.792   2.479   1.906 -0.9549  0.2414 -0.1017
  629MOL0     C84785   2.739   2.578   1.988 -0.3123  0.5629 -0.1161
  629MOL0     C84786   2.719   2.553   2.124 -0.9481  0.0376 -0.0139
  629MOL0     C84787   2.767   2.441   2.188  0.7245 -0.1870 -0.0443
  629MOL0     O84788   2.738   2.427   2.323  0.1100  0.0747 -0.1488
  629MOL0     C84789   2.788   2.309   2.392 -0.5020  0.7476  0.5755
  629MOL0     C84790   2.749   2.298   2.540 -0.0752 -0.5502  0.8042
  629MOL0     C84791   2.814   2.404   2.637 -0.3026  0.3324  0.0171
  629MOL0     C84792   2.740   2.388   2.769  0.1859  0.8720 -1.0291
  629MOL0     C84793   2.813   2.457   2.881 -0.9375 -0.2731 -0.2122
  629MOL0     C84794   2.726   2.457   3.007  0.3909 -0.3559  0.5205
  629MOL0     C84795   2.810   2.530   3.108  0.1189  0.0647 -0.1770
  629MOL0     C84796   2.738   2.532   3.237  0.1320 -1.1007  0.7078
  629MOL0     N84797   2.636   2.645   3.236  0.0890 -0.3366 -0.1767
  629MOL0     C84798   2.673   2.776   3.241 -0.0162 -0.5318  0.8685
  629MOL0     C84799   2.558   2.841   3.226 -0.3291 -0.9222 -0.4558
  629MOL0     C84800   2.521   2.986   3.224 -0.1294  0.4851  0.3150
  629MOL0     C84801   2.552   3.030   3.080 -0.6771 -0.7638  0.4009
  629MOL0     C84802   2.485   3.163   3.049  0.5940  0.7846  0.1191
  629MOL0     C84803   2.480   3.202   2.904 -0.4341  0.8651  0.0641
  629MOL0     O84804   2.419   3.327   2.884  0.3951  0.1689  0.2062
  629MOL0     C84805   2.481   3.439   2.937  0.3310  0.9413 -0.4260
  629MOL0     C84806   2.610   3.482   2.906 -1.3951 -0.2322 -0.6258
  629MOL0     C84807   2.675   3.581   2.971 -0.4820  0.0270 -0.0369
  629MOL0     C84808   2.608   3.652   3.074  0.1390 -0.0696  0.8454
  629MOL0     C84809   2.672   3.751   3.160  0.3476  0.3191  0.3321
  629MOL0     O84810   2.592   3.828   3.237 -0.2134 -0.1172  0.2042
  629MOL0     C84811   2.659   3.928   3.297 -0.0128 -0.2072  0.5542
  629MOL0     C84812   2.654   4.059   3.256  0.5017 -1.2066  0.9490
  629MOL0     C84813   2.713   4.154   3.343  0.4481 -0.1085 -0.7001
  629MOL0     C84814   2.786   4.115   3.455 -0.7356 -0.2589 -0.6086
  629MOL0     O84815   2.828   4.220   3.539  0.7186  0.5150  1.0163
  629MOL0     C84816   2.953   4.205   3.597  0.3927  0.3644 -0.0231
  629MOL0     C84817   2.943   4.177   3.744 -0.3746 -0.3615 -0.0375
  629MOL0     C84818   3.073   4.220   3.812 -0.1715  0.4413 -0.6692
  629MOL0     C84819   3.093   4.374   3.848  0.5545  0.5488  0.0648
  629MOL0     C84820   3.202   4.400   3.943 -0.8912  0.1365  1.1485
  629MOL0     C84821   3.180   4.537   4.001 -0.3252 -0.3465 -0.7916
  629MOL0     C84822   3.307   4.568   4.097  0.4207 -0.4077  0.2976
  629MOL0     C84823   3.293   4.704   4.167 -0.2989  0.4154 -0.8453
  629MOL0    Cl84824   3.428   4.739   4.263  0.3078 -0.2557 -0.3109
  629MOL0     C84825   2.790   3.978   3.496 -0.4809  0.3118  0.2634
  629MOL0     C84826   2.725   3.890   3.413 -0.6918  0.7680  0.2305
  629MOL0     O84827   2.796   3.765   3.147  0.5139  0.2115 -0.4974
  629MOL0     C84828   2.475   3.618   3.096  0.3437 -0.9529 -0.1835
  629MOL0     C84829   2.402   3.519   3.028 -1.0344 -0.5378  0.2355
  629MOL0     N84830   2.458   2.755   3.207  0.2547  1.2069  0.3360
  629MOL0     N84831   2.504   2.635   3.218  0.4284 -0.3299 -0.0556
  629MOL0     C84832   2.817   2.334   2.104 -0.2947 -0.2187 -0.2941
  629MOL0     C84833   2.829   2.353   1.968 -0.3789  0.0127  0.3268
  629MOL0     C84834   2.761   2.581   1.552 -0.2663  0.7527 -0.5942
  629MOL0     C84835   2.888   2.538   1.521 -0.4033  0.1039  0.2941
  629MOL0     C84836   2.957   2.560   1.405  0.0661 -0.0879  0.1600
  629MOL0     C84837   2.884   2.617   1.302 -0.5045 -0.3342  0.2504
  629MOL0     O84838   2.950   2.620   1.175 -0.3464 -0.6592 -0.0627
  629MOL0     C84839   2.868   2.654   1.060  0.0372  0.0807  0.3309
  629MOL0     C84840   2.944   2.674   0.929 -0.7896  0.4717  0.4231
  629MOL0     C84841   2.997   2.543   0.873  0.1802 -0.4117  0.4102
  629MOL0     C84842   3.071   2.581   0.741 -0.5244  0.1872  1.1163
  629MOL0     C84843   3.141   2.469   0.681 -0.3252 -0.2383  0.2023
  629MOL0     C84844   3.213   2.397   0.613 -0.3937 -0.2536  0.9753
  629MOL0     C84845   2.750   2.652   1.323 -0.8201  0.1603 -0.1225
  629MOL0     C84846   2.684   2.628   1.448 -0.1355 -0.1126 -0.6349
  629MOL0     C84847   2.541   2.669   1.467  0.6009  0.2684 -0.0864
  629MOL0     H84848   2.721   2.674   1.941  1.9707  0.6335 -1.0151
  629MOL0     H84849   2.684   2.637   2.183  2.1711  3.5640 -2.6836
  629MOL0     H84850   2.744   2.221   2.344  1.6742 -0.9951  1.5693
  629MOL0     H84851   2.896   2.297   2.381 -0.7956 -0.5979 -1.7280
  629MOL0     H84852   2.774   2.193   2.557  0.0141 -1.1628 -2.5309
  629MOL0     H84853   2.641   2.302   2.558 -0.4849  1.2310 -1.4669
  629MOL0     H84854   2.809   2.508   2.604  3.3420  0.2719 -1.1891
  629MOL0     H84855   2.920   2.381   2.653 -0.2651  1.2229  1.1633
  629MOL0     H84856   2.638   2.426   2.757 -0.8814 -1.6318 -0.5662
  629MOL0     H84857   2.734   2.283   2.799 -2.6368  1.0136 -0.7950
  629MOL0     H84858   2.907   2.405   2.899 -0.0506  0.7400 -1.6877
  629MOL0     H84859   2.837   2.557   2.844 -0.5872  0.8772  2.8268
  629MOL0     H84860   2.637   2.518   2.988 -1.2929 -1.6727  3.5147
  629MOL0     H84861   2.701   2.356   3.040  0.6191 -0.2344  1.0881
  629MOL0     H84862   2.838   2.630   3.073 -2.9526  0.4227 -1.9350
  629MOL0     H84863   2.902   2.476   3.133 -0.2157 -1.7536 -2.5536
  629MOL0     H84864   2.678   2.442   3.251 -0.1415 -0.7062  2.3006
  629MOL0     H84865   2.803   2.546   3.324 -1.6670  0.8362  1.8250
  629MOL0     H84866   2.774   2.814   3.252  0.5519 -2.3534  2.2835
  629MOL0     H84867   2.413   2.981   3.245  0.4539 -0.3284  3.6561
  629MOL0     H84868   2.576   3.054   3.290  1.0502 -0.8339  0.7210
  629MOL0     H84869   2.658   3.046   3.057 -1.0235 -3.6588 -4.9507
  629MOL0     H84870   2.516   2.960   3.004 -1.8201  0.8742 -0.6678
  629MOL0     H84871   2.512   3.245   3.116 -0.4121  3.3660 -2.4026
  629MOL0     H84872   2.380   3.143   3.070  0.9687 -1.2914  0.2824
  629MOL0     H84873   2.435   3.120   2.847 -0.9872  0.6828  0.7463
  629MOL0     H84874   2.580   3.215   2.862 -0.0363  0.6672  0.9181
  629MOL0     H84875   2.670   3.423   2.837 -0.3004 -2.3537  1.9760
  629MOL0     H84876   2.779   3.593   2.942 -0.4772 -0.0085 -0.0346
  629MOL0     H84877   2.603   4.081   3.162 -0.3620 -1.9253  1.2297
  629MOL0     H84878   2.694   4.260   3.331 -2.1816 -0.3798  0.3699
  629MOL0     H84879   3.022   4.136   3.548  1.6572  1.2877  0.4318
  629MOL0     H84880   3.006   4.298   3.576  0.8571  0.1543  0.2022
  629MOL0     H84881   2.866   4.247   3.778  0.5158 -0.2867  1.9472
  629MOL0     H84882   2.923   4.073   3.773  0.8125 -0.1383  1.7306
  629MOL0     H84883   3.086   4.155   3.899 -2.1536  0.3634 -0.3897
  629MOL0     H84884   3.150   4.196   3.738 -0.2430  2.5054 -1.4866
  629MOL0     H84885   2.992   4.399   3.881 -2.1923 -2.4355 -4.7939
  629MOL0     H84886   3.118   4.445   3.768  2.0971 -0.2027 -0.1660
  629MOL0     H84887   3.296   4.386   3.888 -1.5450 -2.3818  0.5428
  629MOL0     H84888   3.191   4.326   4.023 -2.9930 -2.3741 -1.2812
  629MOL0     H84889   3.175   4.610   3.919 -4.1169  1.4959  0.8301
  629MOL0     H84890   3.090   4.557   4.060  0.9980  0.7390  0.9689
  629MOL0     H84891   3.401   4.574   4.042  0.3617  0.7824  0.2948
  629MOL0     H84892   3.324   4.482   4.162  0.0877 -2.1675 -1.8387
  629MOL0     H84893   3.268   4.795   4.112  0.3200  0.1990 -1.4959
  629MOL0     H84894   3.214   4.696   4.243  0.6355 -2.0246 -0.0164
  629MOL0     H84895   2.841   3.943   3.585  1.5372 -1.4571 -1.4741
  629MOL0     H84896   2.728   3.788   3.448  0.7494  0.8776  0.4886
  629MOL0     H84897   2.425   3.666   3.181 -0.4250 -1.5144 -0.3132
  629MOL0     H84898   2.301   3.491   3.056 -1.8481  0.6102 -1.3916
  629MOL0     H84899   2.839   2.237   2.147 -0.1307  0.6232  1.6263
  629MOL0     H84900   2.859   2.267   1.909  0.3124  0.1837  0.4134
  629MOL0     H84901   2.947   2.494   1.601 -0.4356 -1.5859 -0.5622
  629MOL0     H84902   3.062   2.539   1.392  0.1831  1.3361 -1.5947
  629MOL0     H84903   2.806   2.742   1.081 -2.8119 -2.2412  2.4873
  629MOL0     H84904   2.792   2.577   1.050 -0.9276  0.8666  1.3211
  629MOL0     H84905   3.027   2.740   0.956 -1.9786  2.1748  0.0438
  629MOL0     H84906   2.884   2.726   0.854  0.0675  2.6332  1.1547
  629MOL0     H84907   2.904   2.494   0.843  0.2177 -0.2339 -0.0125
  629MOL0     H84908   3.058   2.481   0.939 -1.5943 -1.2991  1.3081
  629MOL0     H84909   3.005   2.631   0.670  0.7266 -1.4753 -1.3859
  629MOL0     H84910   3.150   2.653   0.764  1.2355 -1.1163 -0.4859
  629MOL0     H84911   3.279   2.328   0.565  0.6568  0.0818  1.8948
  629MOL0     H84912   2.681   2.688   1.248 -0.9186  0.5409  0.1472
  629MOL0     H84913   2.478   2.585   1.494  0.8869  0.8505  2.7056
  629MOL0     H84914   2.522   2.752   1.537  0.1867  0.8026 -0.8128
  629MOL0     H84915   2.498   2.717   1.379  0.0674  0.9432  0.5244
  630MOL0     O84916   3.855   7.593   5.740  1.3467  0.9587  0.4034
  630MOL0     C84917   3.908   7.622   5.844  0.5107 -0.8974 -0.6531
  630MOL0     O84918   3.958   7.742   5.881 -0.1155 -0.2777 -0.2053
  630MOL0     C84919   3.921   7.845   5.805 -0.3303  0.0149  0.1885
  630MOL0     C84920   3.822   7.938   5.836  0.0660  0.0231 -0.7169
  630MOL0     C84921   3.793   8.042   5.748 -0.4940  0.0999 -0.1293
  630MOL0     C84922   3.860   8.055   5.626  0.0492  0.0974 -0.4501
  630MOL0     O84923   3.843   8.150   5.527  0.0260 -0.6627  0.0368
  630MOL0     C84924   3.724   8.229   5.534  0.0487  0.1774 -0.4163
  630MOL0     C84925   3.709   8.313   5.405  0.7652 -0.3269  0.3124
  630MOL0     C84926   3.568   8.371   5.375 -0.7969  0.4138 -0.0248
  630MOL0     C84927   3.516   8.321   5.236  0.5275  0.1679  0.0178
  630MOL0     C84928   3.572   8.382   5.104 -0.5278 -0.1497 -0.4649
  630MOL0     C84929   3.634   8.272   5.023  0.1509  1.2043  0.8945
  630MOL0     C84930   3.701   8.328   4.895 -0.5493  0.1930  0.3995
  630MOL0     C84931   3.611   8.415   4.797 -0.5311 -0.0822 -0.6721
  630MOL0     N84932   3.534   8.338   4.697 -0.8698  0.0472  0.6872
  630MOL0     C84933   3.592   8.296   4.576 -0.3755 -0.6939  1.1553
  630MOL0     C84934   3.502   8.206   4.519 -0.3945  0.0701 -0.1654
  630MOL0     C84935   3.510   8.141   4.380 -0.6409  0.0528 -0.6894
  630MOL0     C84936   3.418   8.229   4.280 -0.3009  1.4404 -0.3945
  630MOL0     C84937   3.263   8.230   4.296  0.0094  0.7214 -0.0105
  630MOL0     C84938   3.192   8.243   4.169 -0.7984 -0.8374  0.8070
  630MOL0     O84939   3.174   8.379   4.133  0.7854  0.9452 -0.8731
  630MOL0     C84940   3.078   8.415   4.036  0.2352 -0.2464 -0.0448
  630MOL0     C84941   3.002   8.328   3.962 -1.2531 -0.0682 -0.2678
  630MOL0     C84942   2.918   8.371   3.857 -0.5282 -0.4900  0.1225
  630MOL0     C84943   2.897   8.511   3.831 -0.5246  0.8820 -0.4800
  630MOL0     C84944   2.796   8.568   3.733 -0.0198 -0.8053  0.2168
  630MOL0     O84945   2.779   8.707   3.736  1.0025  0.2066  0.3271
  630MOL0     C84946   2.713   8.770   3.631  0.8282  0.0577  1.3614
  630MOL0     C84947   2.720   8.736   3.492  0.5419  0.4332 -0.3429
  630MOL0     C84948   2.660   8.807   3.392  0.8100 -0.0700 -1.0789
  630MOL0     C84949   2.578   8.919   3.427  0.8684 -0.0062  0.7758
  630MOL0     O84950   2.519   8.985   3.318 -0.4569 -0.0634 -0.4903
  630MOL0     C84951   2.451   9.106   3.340 -0.1509 -0.8861 -0.2973
  630MOL0     C84952   2.370   9.145   3.211  0.3812  0.4489  0.6142
  630MOL0     C84953   2.289   9.269   3.243 -0.2585 -0.0751  0.7965
  630MOL0     C84954   2.171   9.305   3.156  0.0317 -0.1231 -0.3263
  630MOL0     C84955   2.104   9.438   3.205 -0.0286  0.3648  0.2963
  630MOL0     C84956   1.974   9.434   3.126  0.8993 -0.5009  0.3816
  630MOL0     C84957   1.918   9.577   3.108  0.2997  0.1372  1.1520
  630MOL0     C84958   1.761   9.555   3.078  0.9016 -0.3367 -0.2529
  630MOL0    Cl84959   1.729   9.475   2.912  0.3050  0.7538 -0.0530
  630MOL0     C84960   2.566   8.953   3.565  0.3350  0.1398  0.8107
  630MOL0     C84961   2.644   8.882   3.656 -0.5468 -0.5151  0.2821
  630MOL0     O84962   2.751   8.483   3.653  0.0246 -0.2392 -0.6664
  630MOL0     C84963   2.969   8.601   3.910  0.4336  0.1687  1.2999
  630MOL0     C84964   3.046   8.549   4.008  0.0359  0.1784 -0.7420
  630MOL0     N84965   3.398   8.188   4.612 -0.1881  0.0442 -0.1392
  630MOL0     N84966   3.423   8.264   4.714  0.6000 -0.2455  0.0763
  630MOL0     C84967   3.963   7.970   5.594  0.9755  1.1451  0.1728
  630MOL0     C84968   3.993   7.863   5.681  0.2296 -0.0647 -0.8701
  630MOL0     C84969   3.914   7.529   5.961  0.8627 -0.0614  0.9471
  630MOL0     C84970   4.018   7.538   6.055  0.4498 -0.6079 -0.3926
  630MOL0     C84971   4.049   7.441   6.147  0.6474 -0.1808  0.3694
  630MOL0     C84972   3.974   7.323   6.145 -0.4550 -0.2051 -0.5532
  630MOL0     O84973   4.008   7.218   6.235  0.2646 -0.6203  0.1548
  630MOL0     C84974   3.971   7.238   6.371  0.2113 -0.1103 -0.0942
  630MOL0     C84975   3.832   7.277   6.399 -0.4188  0.1829 -0.4551
  630MOL0     C84976   3.729   7.188   6.331  0.2926  0.2806  0.3080
  630MOL0     C84977   3.595   7.195   6.413  0.0937 -0.2839  0.4234
  630MOL0     C84978   3.493   7.100   6.350  0.0910  0.1336 -0.4273
  630MOL0     C84979   3.408   7.014   6.327 -0.4715  0.6815  0.0099
  630MOL0     C84980   3.873   7.310   6.049 -0.3611 -0.7685 -1.0544
  630MOL0     C84981   3.846   7.403   5.951 -1.2430 -0.0249  0.2945
  630MOL0     C84982   3.749   7.369   5.850 -0.6478 -0.4919 -0.7881
  630MOL0     H84983   3.769   7.918   5.929  1.0707 -3.1865 -0.7108
  630MOL0     H84984   3.727   8.125   5.771 -0.5216  0.5365 -1.6447
  630MOL0     H84985   3.628   8.180   5.551  0.5704 -0.5208  0.6252
  630MOL0     H84986   3.726   8.302   5.615 -2.4835 -1.3015  1.1177
  630MOL0     H84987   3.727   8.250   5.318 -0.9780  1.1252 -1.1787
  630MOL0     H84988   3.775   8.400   5.407 -2.0536  1.9803  1.3227
  630MOL0     H84989   3.575   8.479   5.360 -1.7676  0.2347 -2.1314
  630MOL0     H84990   3.506   8.345   5.461 -1.5603 -0.7671 -0.8948
  630MOL0     H84991   3.509   8.212   5.236 -3.5461  0.2033  2.9128
  630MOL0     H84992   3.410   8.345   5.245 -0.2487 -2.2180 -1.7711
  630MOL0     H84993   3.491   8.427   5.046 -4.5852 -1.1485  3.8699
  630MOL0     H84994   3.631   8.471   5.131  0.1358 -0.3475 -1.2255
  630MOL0     H84995   3.702   8.211   5.082 -0.7905 -0.9928 -0.1644
  630MOL0     H84996   3.565   8.197   4.981  1.3366  1.3344 -1.4793
  630MOL0     H84997   3.753   8.251   4.837  0.4472 -0.5698  2.2112
  630MOL0     H84998   3.775   8.388   4.948  1.1318 -2.3010  1.0373
  630MOL0     H84999   3.537   8.470   4.856 -1.5110 -0.7880 -1.2032
  630MOL0     H85000   3.670   8.492   4.747 -0.4313  0.3635  0.1312
  630MOL0     H85001   3.690   8.331   4.545  0.2002 -1.7133  1.7638
  630MOL0     H85002   3.612   8.151   4.342 -1.0226  0.8744 -1.5345
  630MOL0     H85003   3.479   8.036   4.383 -1.1459  0.1098  3.7186
  630MOL0     H85004   3.454   8.332   4.288 -0.7377  1.6744 -1.3503
  630MOL0     H85005   3.452   8.183   4.187 -0.0952  0.7653  0.0075
  630MOL0     H85006   3.230   8.303   4.371 -1.6880 -0.1208  0.1111
  630MOL0     H85007   3.230   8.130   4.328 -2.4767  1.2642 -0.7327
  630MOL0     H85008   3.098   8.188   4.176 -0.7381 -1.1646 -0.7157
  630MOL0     H85009   3.259   8.198   4.095  3.1527  1.2384  2.7345
  630MOL0     H85010   3.005   8.223   3.988  2.0491 -0.1159 -0.4028
  630MOL0     H85011   2.872   8.293   3.797  1.7777 -0.2362 -2.1903
  630MOL0     H85012   2.770   8.647   3.455  1.8027  0.7602  0.4758
  630MOL0     H85013   2.670   8.775   3.289  0.7614  1.4283 -1.5726
  630MOL0     H85014   2.388   9.100   3.429  2.4570 -0.6020  1.6866
  630MOL0     H85015   2.530   9.175   3.370  0.0785 -0.6101 -1.4705
  630MOL0     H85016   2.433   9.144   3.122 -0.9971 -0.6697 -0.4070
  630MOL0     H85017   2.302   9.061   3.194 -3.0661  3.2627 -0.6172
  630MOL0     H85018   2.250   9.251   3.343 -2.1545 -2.4173 -0.2730
  630MOL0     H85019   2.356   9.356   3.245 -1.1923  0.7626 -1.2903
  630MOL0     H85020   2.089   9.232   3.157 -0.4872  0.4546 -0.6042
  630MOL0     H85021   2.202   9.303   3.051  0.8226 -1.7376 -0.0974
  630MOL0     H85022   2.171   9.518   3.170 -0.5318  1.0846  0.9626
  630MOL0     H85023   2.081   9.440   3.312 -0.8882  0.1866  0.1236
  630MOL0     H85024   1.997   9.400   3.025  0.3131  0.1227  0.0284
  630MOL0     H85025   1.901   9.367   3.171  1.2606 -2.9648 -2.4284
  630MOL0     H85026   1.967   9.637   3.031 -1.1592  0.6013  0.5654
  630MOL0     H85027   1.924   9.635   3.201 -0.2968  0.1576  1.1839
  630MOL0     H85028   1.719   9.500   3.162  0.2923  1.8315  0.9465
  630MOL0     H85029   1.713   9.653   3.064  0.6958 -0.5258 -0.9163
  630MOL0     H85030   2.503   9.040   3.578 -0.2834 -0.1038 -0.3971
  630MOL0     H85031   2.643   8.923   3.757 -1.0390  0.4901 -0.1127
  630MOL0     H85032   2.964   8.708   3.893  1.5233  0.0755  0.2255
  630MOL0     H85033   3.097   8.617   4.075 -2.0578  0.3574  0.7595
  630MOL0     H85034   4.008   7.997   5.499 -1.7710 -1.5754 -2.0870
  630MOL0     H85035   4.065   7.788   5.650 -2.8518 -2.6010 -2.4826
  630MOL0     H85036   4.076   7.629   6.064 -0.5591 -0.0403  0.5495
  630MOL0     H85037   4.118   7.460   6.228  0.7122 -2.1656  0.8204
  630MOL0     H85038   4.045   7.304   6.417  1.9259 -2.0400  0.0592
  630MOL0     H85039   3.982   7.144   6.427  0.2862 -0.1452 -0.1672
  630MOL0     H85040   3.811   7.383   6.380 -2.1218 -0.1442 -0.6071
  630MOL0     H85041   3.822   7.257   6.506 -1.6002  3.5645  0.1934
  630MOL0     H85042   3.767   7.086   6.321  1.7429  0.9784 -2.1846
  630MOL0     H85043   3.705   7.218   6.228  0.5334 -0.9706 -0.1385
  630MOL0     H85044   3.609   7.164   6.517 -0.8576  0.1739  0.6973
  630MOL0     H85045   3.553   7.296   6.422 -0.6061 -0.5517  0.2062
  630MOL0     H85046   3.332   6.944   6.299  1.2390 -1.5176  0.6344
  630MOL0     H85047   3.809   7.223   6.058 -1.1864  0.0392  1.9627
  630MOL0     H85048   3.804   7.343   5.759  0.1570  0.7610 -0.6746
  630MOL0     H85049   3.687   7.286   5.886  1.1651 -0.9076  1.6286
  630MOL0     H85050   3.683   7.454   5.830  1.9772  1.6776 -0.6677
  631MOL0     O85051   9.312   0.633   1.260 -0.7483 -0.5532  0.1993
  631MOL0     C85052   9.407   0.569   1.222 -0.1886  0.6683 -0.5442
  631MOL0     O85053   9.418   0.484   1.117  0.0349 -0.1181 -0.1408
  631MOL0     C85054   9.300   0.434   1.051  0.6964  0.0223  0.2071
  631MOL0     C85055   9.303   0.297   1.016 -0.2821 -0.0373 -0.8309
  631MOL0     C85056   9.190   0.230   0.973 -0.6844  0.2958 -0.6425
  631MOL0     C85057   9.066   0.298   0.966  0.7192 -0.8421 -0.4047
  631MOL0     O85058   8.954   0.218   0.927  0.8852 -0.6502 -0.5109
  631MOL0     C85059   8.821   0.273   0.945  0.1374 -0.4396  0.4481
  631MOL0     C85060   8.709   0.180   0.917 -0.2613  0.6578 -0.5823
  631MOL0     C85061   8.575   0.243   0.924 -0.4261 -0.2831 -0.3048
  631MOL0     C85062   8.469   0.143   0.899  0.2522 -0.3020  0.1781
  631MOL0     C85063   8.333   0.213   0.898  0.7710 -1.1810  0.1398
  631MOL0     C85064   8.289   0.279   1.033  0.2146 -0.5504  0.7013
  631MOL0     C85065   8.266   0.170   1.139  0.0949 -0.0520 -0.3877
  631MOL0     C85066   8.218   0.231   1.270 -0.2785 -0.2050  0.6851
  631MOL0     N85067   8.193   0.123   1.375 -0.4813  0.2495 -0.4432
  631MOL0     C85068   8.086   0.033   1.396 -0.5017  0.6222  0.0559
  631MOL0     C85069   8.132  -0.055   1.492 -0.7540  0.2031  0.3594
  631MOL0     C85070   8.043  -0.153   1.555 -0.7312  0.2522 -0.3845
  631MOL0     C85071   8.111  -0.286   1.606  0.3490 -0.4502  0.4153
  631MOL0     C85072   8.005  -0.381   1.667  0.0349 -0.6955 -0.0640
  631MOL0     C85073   7.936  -0.467   1.559 -0.1282 -0.8387  0.4994
  631MOL0     O85074   7.841  -0.549   1.624  0.1679  0.0085 -0.6859
  631MOL0     C85075   7.867  -0.684   1.639  0.0017 -0.2185 -0.7852
  631MOL0     C85076   7.754  -0.762   1.671  0.2177 -0.6780 -0.1177
  631MOL0     C85077   7.762  -0.894   1.684 -0.7841  0.1224  0.6707
  631MOL0     C85078   7.890  -0.958   1.693 -0.1130  0.2772  0.6039
  631MOL0     C85079   7.903  -1.103   1.731  0.3854  0.3053 -1.0148
  631MOL0     O85080   8.024  -1.158   1.727 -0.1268 -0.0345  0.4849
  631MOL0     C85081   8.027  -1.295   1.694  0.3216 -0.2462  0.5209
  631MOL0     C85082   8.080  -1.332   1.570  0.7784 -0.2022 -0.2274
  631MOL0     C85083   8.071  -1.465   1.536 -0.3434  0.7451  0.7110
  631MOL0     C85084   8.004  -1.558   1.611  0.7913 -0.3001  0.2092
  631MOL0     O85085   7.994  -1.682   1.554 -0.5508  0.0900  0.5034
  631MOL0     C85086   7.941  -1.798   1.621  0.6223 -1.0695  0.1721
  631MOL0     C85087   7.869  -1.905   1.525 -0.5948 -0.4174 -0.3691
  631MOL0     C85088   7.770  -1.831   1.441  0.9854 -0.3797  0.4360
  631MOL0     C85089   7.650  -1.926   1.401  0.0585 -0.6195 -0.0713
  631MOL0     C85090   7.562  -1.871   1.289 -0.9936  0.5714  0.3241
  631MOL0     C85091   7.502  -1.731   1.298 -0.2420 -0.1029 -0.5026
  631MOL0     C85092   7.448  -1.691   1.153 -0.2081  0.4726  0.9515
  631MOL0     C85093   7.554  -1.664   1.054 -0.6481  0.1332  0.7478
  631MOL0    Cl85094   7.503  -1.564   0.914 -0.1241 -0.2278  0.2312
  631MOL0     C85095   7.964  -1.517   1.736 -0.7073  1.1209 -0.7517
  631MOL0     C85096   7.974  -1.392   1.780  0.1877 -0.3628 -0.2271
  631MOL0     O85097   7.799  -1.157   1.775  0.2164 -0.4574  0.5627
  631MOL0     C85098   8.007  -0.880   1.686 -0.9453 -1.5100  0.2957
  631MOL0     C85099   7.993  -0.740   1.652  0.0711 -0.0838 -0.4274
  631MOL0     N85100   8.266  -0.030   1.521 -0.6512  0.3027  0.0677
  631MOL0     N85101   8.300   0.069   1.446  0.0514 -0.2689  0.4474
  631MOL0     C85102   9.066   0.437   0.996  0.6950 -0.1809 -0.0561
  631MOL0     C85103   9.177   0.510   1.041 -0.3690  0.2549 -0.1528
  631MOL0     C85104   9.538   0.609   1.300  0.3365 -0.5193  1.0395
  631MOL0     C85105   9.651   0.570   1.224  0.1192 -0.5953 -0.4579
  631MOL0     C85106   9.777   0.608   1.272 -1.2251  0.5208  0.1356
  631MOL0     C85107   9.802   0.667   1.388  0.4484  0.6176  0.3690
  631MOL0     O85108   9.933   0.662   1.431  0.5023 -0.6931 -0.3528
  631MOL0     C85109   9.966   0.653   1.570 -0.9305  0.7516  0.2245
  631MOL0     C85110   9.976   0.792   1.634  0.9276 -0.1747 -0.5385
  631MOL0     C85111  10.081   0.886   1.569 -1.6295  0.4560  0.1761
  631MOL0     C85112  10.111   1.020   1.650  0.0677  0.5930  0.5546
  631MOL0     C85113  10.179   0.967   1.768 -0.0932  1.0106 -0.4308
  631MOL0     C85114  10.254   0.925   1.860 -0.1560 -0.9698  0.9340
  631MOL0     C85115   9.687   0.704   1.465  0.2679 -0.0678 -0.3067
  631MOL0     C85116   9.556   0.688   1.419 -0.2838 -0.5952 -0.2277
  631MOL0     C85117   9.443   0.746   1.504 -0.2837  0.6296  1.5931
  631MOL0     H85118   9.395   0.240   1.017 -0.2611 -0.0207  0.6258
  631MOL0     H85119   9.191   0.127   0.940  2.3073  0.5612 -1.7194
  631MOL0     H85120   8.804   0.310   1.046 -2.7321  2.1083 -0.8188
  631MOL0     H85121   8.812   0.356   0.875 -3.6122 -0.6575  0.4595
  631MOL0     H85122   8.723   0.104   0.993 -0.2285  0.2223 -1.0200
  631MOL0     H85123   8.720   0.138   0.816  1.0509 -2.3628  0.7201
  631MOL0     H85124   8.570   0.333   0.862  0.1167  0.9211  1.3275
  631MOL0     H85125   8.569   0.288   1.023  1.5064  2.6625 -1.3651
  631MOL0     H85126   8.502   0.113   0.799  1.8062  3.0532 -0.4452
  631MOL0     H85127   8.460   0.069   0.979 -0.7903  2.9774  3.3871
  631MOL0     H85128   8.338   0.292   0.823 -1.1564  0.3020  1.4775
  631MOL0     H85129   8.261   0.135   0.870 -0.5844 -0.2443  0.9119
  631MOL0     H85130   8.361   0.357   1.058 -0.9546  1.3647 -1.5728
  631MOL0     H85131   8.192   0.320   1.006 -0.6185 -2.0611  1.3011
  631MOL0     H85132   8.356   0.109   1.150  0.4706  0.8502  1.9487
  631MOL0     H85133   8.183   0.113   1.094  0.8199 -0.7802 -0.8379
  631MOL0     H85134   8.299   0.293   1.309  1.1926 -1.1424 -0.7551
  631MOL0     H85135   8.136   0.297   1.240  0.9437  1.0929  0.0608
  631MOL0     H85136   7.985   0.034   1.357  0.0723 -2.8508 -1.9393
  631MOL0     H85137   7.981  -0.106   1.632  1.2344 -0.4865  1.7714
  631MOL0     H85138   7.966  -0.190   1.486 -0.3555  0.4625 -0.9172
  631MOL0     H85139   8.175  -0.328   1.529  1.3147 -0.8465  1.4075
  631MOL0     H85140   8.178  -0.267   1.690 -0.6497  0.7793  0.9651
  631MOL0     H85141   7.943  -0.326   1.738 -0.7986  0.4768 -1.6367
  631MOL0     H85142   8.062  -0.452   1.728 -0.4006 -0.3176  0.7956
  631MOL0     H85143   8.014  -0.513   1.498  2.9992  3.5120  0.6837
  631MOL0     H85144   7.871  -0.408   1.493  2.9242  4.0453  1.3180
  631MOL0     H85145   7.659  -0.718   1.642 -0.0989 -1.1947  0.1378
  631MOL0     H85146   7.673  -0.955   1.670  0.4431 -1.3408 -1.3895
  631MOL0     H85147   8.114  -1.252   1.504 -3.1383  2.4313  0.6068
  631MOL0     H85148   8.121  -1.484   1.441 -1.2989  0.2174  0.2964
  631MOL0     H85149   8.021  -1.851   1.674  1.5054 -1.6445 -1.6428
  631MOL0     H85150   7.863  -1.764   1.689  1.1188  3.8947 -1.3057
  631MOL0     H85151   7.939  -1.950   1.454 -0.0810  1.9304 -1.4340
  631MOL0     H85152   7.821  -1.980   1.589 -0.6701 -0.8600 -0.9374
  631MOL0     H85153   7.714  -1.751   1.489 -1.2538 -0.9428 -1.0714
  631MOL0     H85154   7.817  -1.784   1.354  1.0614  0.1942  0.7858
  631MOL0     H85155   7.587  -1.944   1.489  1.4392 -2.0784  0.6782
  631MOL0     H85156   7.698  -2.021   1.375  3.0483  0.3798  1.3999
  631MOL0     H85157   7.472  -1.932   1.280 -1.6491  0.7807  4.0107
  631MOL0     H85158   7.641  -1.869   1.213 -2.3452  0.4904 -1.1210
  631MOL0     H85159   7.429  -1.730   1.379 -0.9435 -1.2738 -1.0960
  631MOL0     H85160   7.578  -1.660   1.333  1.7440 -2.2577 -0.2483
  631MOL0     H85161   7.385  -1.603   1.165 -1.4705 -0.3685  0.6573
  631MOL0     H85162   7.385  -1.763   1.101  2.0784 -1.8673  1.1883
  631MOL0     H85163   7.638  -1.617   1.107 -0.9006 -1.2229  2.4592
  631MOL0     H85164   7.588  -1.758   1.009 -2.0498  0.3535 -0.8467
  631MOL0     H85165   7.920  -1.592   1.800  1.7814 -0.0792 -0.2971
  631MOL0     H85166   7.932  -1.359   1.874 -2.0127  0.5318 -1.4556
  631MOL0     H85167   8.105  -0.924   1.702 -0.6982 -1.1099 -0.1020
  631MOL0     H85168   8.087  -0.687   1.648  0.6869 -1.1536 -0.4337
  631MOL0     H85169   8.969   0.484   0.987 -0.1219 -1.4086  1.6760
  631MOL0     H85170   9.183   0.616   1.064  1.2528  0.2821 -0.5407
  631MOL0     H85171   9.638   0.533   1.123  0.9181  0.7334 -1.0801
  631MOL0     H85172   9.861   0.590   1.205  1.0742  0.6373  2.7896
  631MOL0     H85173  10.058   0.595   1.581 -0.4716  1.0469 -1.7227
  631MOL0     H85174   9.889   0.609   1.634  0.5917 -1.6125  0.5663
  631MOL0     H85175  10.005   0.777   1.738  0.2406  1.4520 -0.0822
  631MOL0     H85176   9.876   0.836   1.635  0.5677 -0.9722 -0.4558
  631MOL0     H85177  10.047   0.923   1.472 -1.5950  1.5887  0.5756
  631MOL0     H85178  10.178   0.836   1.561 -1.6007  0.4625  0.5033
  631MOL0     H85179  10.173   1.078   1.582  0.0798  1.0188  0.9274
  631MOL0     H85180  10.027   1.083   1.681  0.5069  0.1381  2.8357
  631MOL0     H85181  10.326   0.877   1.923 -0.0294 -2.0309  0.0100
  631MOL0     H85182   9.702   0.756   1.559 -2.1193 -0.9207  0.6155
  631MOL0     H85183   9.361   0.677   1.524 -0.6403  0.8453  0.8972
  631MOL0     H85184   9.481   0.779   1.602  1.6291 -0.0841  1.1289
  631MOL0     H85185   9.391   0.825   1.449 -2.0587  0.7317  3.3008
  632MOL0     O85186   2.567   2.530   3.842 -0.6980  0.6526 -0.0175
  632MOL0     C85187   2.662   2.458   3.812  0.1779  0.1948  0.8691
  632MOL0     O85188   2.671   2.376   3.709  0.3168  0.0474  0.2170
  632MOL0     C85189   2.562   2.333   3.639 -0.3954 -0.3135  0.3228
  632MOL0     C85190   2.454   2.268   3.703  1.0049 -0.4275 -0.4340
  632MOL0     C85191   2.347   2.230   3.627  0.6239  0.1423  0.1152
  632MOL0     C85192   2.353   2.243   3.485  0.4154  0.2987  0.2209
  632MOL0     O85193   2.254   2.176   3.404 -0.1519 -0.9860  0.3203
  632MOL0     C85194   2.154   2.272   3.377 -0.9445  0.6562 -0.3616
  632MOL0     C85195   2.049   2.182   3.327 -0.0611 -0.2793  0.2083
  632MOL0     C85196   1.925   2.262   3.288 -0.3125  0.2373  0.1679
  632MOL0     C85197   1.803   2.173   3.256  0.9830 -0.1235 -0.9547
  632MOL0     C85198   1.688   2.250   3.182 -0.4921  0.6199 -0.0347
  632MOL0     C85199   1.622   2.370   3.258  1.4696 -0.5287  0.2589
  632MOL0     C85200   1.521   2.456   3.177  1.6072 -0.0194  0.1873
  632MOL0     C85201   1.582   2.510   3.041 -0.7631 -0.2173 -0.3041
  632MOL0     N85202   1.487   2.604   2.975  0.0659  0.1497  0.7526
  632MOL0     C85203   1.458   2.734   3.001  0.1480  0.6323  0.5071
  632MOL0     C85204   1.385   2.792   2.903  0.0146 -0.0238  0.7402
  632MOL0     C85205   1.329   2.932   2.886 -0.5863  0.4400  0.2145
  632MOL0     C85206   1.431   3.032   2.941  0.0633  0.6391  0.1192
  632MOL0     C85207   1.398   3.172   2.907 -0.4681  0.0022 -0.3393
  632MOL0     C85208   1.505   3.281   2.938  0.7408 -0.3763 -0.5724
  632MOL0     O85209   1.459   3.403   2.886 -0.4403  0.3734  0.7740
  632MOL0     C85210   1.491   3.450   2.753  0.8014 -0.0868  0.3144
  632MOL0     C85211   1.572   3.385   2.668 -0.2017  0.0847 -0.1504
  632MOL0     C85212   1.588   3.418   2.533 -0.2985  0.0638 -0.0762
  632MOL0     C85213   1.529   3.532   2.482 -0.4312  1.0722 -0.2957
  632MOL0     C85214   1.530   3.572   2.344  0.2440 -0.2236 -0.2275
  632MOL0     O85215   1.577   3.480   2.256  0.0210 -0.0235  0.8831
  632MOL0     C85216   1.569   3.515   2.131 -0.4384 -0.8340 -0.0028
  632MOL0     C85217   1.442   3.521   2.068 -0.0478  0.0515  0.8867
  632MOL0     C85218   1.437   3.540   1.930  0.4949  0.5255 -1.0053
  632MOL0     C85219   1.555   3.567   1.861 -0.6952  0.5602  0.3014
  632MOL0     O85220   1.570   3.580   1.725  0.3042 -0.2876  0.0999
  632MOL0     C85221   1.450   3.599   1.647  0.5879 -0.2001 -0.0899
  632MOL0     C85222   1.467   3.597   1.495  0.7239 -0.1881  0.5013
  632MOL0     C85223   1.488   3.742   1.428  0.1797  0.3019 -0.9137
  632MOL0     C85224   1.371   3.838   1.441  0.9376  0.0204  0.5828
  632MOL0     C85225   1.389   3.976   1.375 -0.3735  0.3532 -0.3807
  632MOL0     C85226   1.509   4.057   1.424  0.1997 -0.2556 -0.0797
  632MOL0     C85227   1.504   4.088   1.572 -1.1309 -0.8199 -0.7824
  632MOL0     C85228   1.600   4.200   1.621  0.3196  0.5128  0.9000
  632MOL0    Cl85229   1.589   4.348   1.512  0.4293 -0.6354 -0.2696
  632MOL0     C85230   1.673   3.580   1.930  0.0516  0.5733 -0.2713
  632MOL0     C85231   1.679   3.558   2.062 -0.5867  1.1605  0.9696
  632MOL0     O85232   1.477   3.677   2.317 -0.2294 -0.6244 -0.2899
  632MOL0     C85233   1.456   3.615   2.577 -0.0937  0.4270  0.5112
  632MOL0     C85234   1.441   3.576   2.711  0.1983  0.6483 -0.0866
  632MOL0     N85235   1.369   2.687   2.817  0.9059  0.0788  0.0782
  632MOL0     N85236   1.422   2.578   2.864 -0.6467 -0.4796  0.0589
  632MOL0     C85237   2.465   2.306   3.428  0.4515 -0.1195 -0.4782
  632MOL0     C85238   2.575   2.356   3.503  0.7736 -0.2531 -0.5908
  632MOL0     C85239   2.776   2.443   3.891 -0.3234 -0.0955  0.4317
  632MOL0     C85240   2.841   2.323   3.909 -0.3771 -0.0533  1.1164
  632MOL0     C85241   2.961   2.298   3.969 -0.4409 -0.2554 -0.6750
  632MOL0     C85242   3.025   2.412   4.011  0.6432  0.3710  0.0488
  632MOL0     O85243   3.142   2.395   4.078 -0.5790  0.1005 -0.3235
  632MOL0     C85244   3.259   2.402   3.995  1.3059  0.3119  0.1882
  632MOL0     C85245   3.347   2.280   4.032 -0.9056 -0.1912  0.2275
  632MOL0     C85246   3.388   2.282   4.186  0.8553 -0.0281  0.1210
  632MOL0     C85247   3.447   2.146   4.217 -0.2216 -0.4926  0.9932
  632MOL0     C85248   3.517   2.153   4.348 -0.1475 -0.2060 -0.3509
  632MOL0     C85249   3.587   2.153   4.445 -0.6467  0.7280 -0.8860
  632MOL0     C85250   2.965   2.535   4.004  0.6267  0.2635 -0.2087
  632MOL0     C85251   2.847   2.554   3.938  0.5253 -0.4017  0.8945
  632MOL0     C85252   2.811   2.699   3.902 -0.0009  0.7217 -0.9667
  632MOL0     H85253   2.441   2.259   3.810  1.6350  1.1006 -0.2080
  632MOL0     H85254   2.261   2.183   3.674  1.2295 -0.8069  0.3075
  632MOL0     H85255   2.117   2.306   3.474 -0.8444  0.6044 -0.3068
  632MOL0     H85256   2.178   2.343   3.297 -1.4810 -2.0148 -3.0635
  632MOL0     H85257   2.028   2.124   3.418 -0.2853  0.0104  0.3444
  632MOL0     H85258   2.083   2.121   3.243 -2.7768 -1.6456 -0.0132
  632MOL0     H85259   1.956   2.323   3.203 -0.7286 -0.3613 -0.4185
  632MOL0     H85260   1.900   2.331   3.370  2.9300 -0.6402  2.1158
  632MOL0     H85261   1.843   2.087   3.201  3.3133 -0.0216  0.4121
  632MOL0     H85262   1.759   2.144   3.352  0.6104 -1.0695 -1.4010
  632MOL0     H85263   1.728   2.274   3.083 -1.2269 -0.4161 -0.6033
  632MOL0     H85264   1.613   2.175   3.155  0.2778 -0.4980  0.8309
  632MOL0     H85265   1.569   2.340   3.348  0.5038  0.8115  0.1619
  632MOL0     H85266   1.702   2.441   3.282 -0.2980  1.5664  0.3045
  632MOL0     H85267   1.496   2.541   3.241  2.0623  0.7526 -0.6342
  632MOL0     H85268   1.435   2.391   3.161  0.7116 -0.2714  4.7974
  632MOL0     H85269   1.682   2.551   3.061 -0.8302 -1.0617  2.1829
  632MOL0     H85270   1.597   2.423   2.977  0.1792  0.7924 -1.4975
  632MOL0     H85271   1.509   2.782   3.084  1.2400  0.8084 -0.2390
  632MOL0     H85272   1.305   2.940   2.779 -2.4448  0.4365  0.5987
  632MOL0     H85273   1.231   2.933   2.935 -0.4733 -4.2724  0.9425
  632MOL0     H85274   1.430   3.016   3.049  0.2806  0.9789  0.1753
  632MOL0     H85275   1.535   3.010   2.915 -0.4257 -2.2445  0.3122
  632MOL0     H85276   1.306   3.210   2.952 -0.0103 -0.2469  0.8595
  632MOL0     H85277   1.373   3.174   2.801 -1.9487  2.8381 -0.0327
  632MOL0     H85278   1.598   3.237   2.901  1.9857 -0.2037  2.1339
  632MOL0     H85279   1.517   3.303   3.045  1.2285  4.2794 -1.3751
  632MOL0     H85280   1.631   3.297   2.690  0.7859  0.9588  0.8218
  632MOL0     H85281   1.651   3.354   2.470 -2.3818 -0.9614 -1.2182
  632MOL0     H85282   1.359   3.496   2.132  1.3787 -0.7862  2.4853
  632MOL0     H85283   1.341   3.539   1.879  0.0477  3.5543 -0.4132
  632MOL0     H85284   1.384   3.513   1.664 -0.5343  0.2610 -1.8222
  632MOL0     H85285   1.394   3.686   1.681  1.2885  0.4644 -0.6031
  632MOL0     H85286   1.553   3.533   1.476  0.7495  0.5231 -2.3362
  632MOL0     H85287   1.377   3.552   1.452 -0.7133 -0.1456  3.2662
  632MOL0     H85288   1.580   3.778   1.473 -0.3373 -1.7044  1.9991
  632MOL0     H85289   1.502   3.724   1.321  3.6836 -1.8861 -0.2325
  632MOL0     H85290   1.349   3.841   1.548  5.3829 -1.0090  1.7642
  632MOL0     H85291   1.278   3.811   1.390 -0.5377  1.3819  2.4136
  632MOL0     H85292   1.307   4.049   1.378 -0.8595 -0.1648 -0.8032
  632MOL0     H85293   1.405   3.948   1.271  0.3077 -0.7769  0.0083
  632MOL0     H85294   1.599   3.996   1.410  0.6086 -1.1804  4.7073
  632MOL0     H85295   1.498   4.153   1.374  0.4478 -0.5956 -0.7978
  632MOL0     H85296   1.537   3.999   1.626  1.1259  0.3726 -0.0485
  632MOL0     H85297   1.404   4.115   1.608 -0.7885 -0.1172 -0.3366
  632MOL0     H85298   1.569   4.235   1.720  0.5139 -0.4205  1.3011
  632MOL0     H85299   1.704   4.168   1.633  0.1368  0.3835  2.2678
  632MOL0     H85300   1.748   3.632   1.871 -0.3891  0.0846 -1.2929
  632MOL0     H85301   1.780   3.547   2.100  0.2260 -1.2612 -1.5299
  632MOL0     H85302   1.408   3.706   2.542 -0.5243 -0.4669 -1.3529
  632MOL0     H85303   1.383   3.643   2.775 -0.4646  2.3607 -2.3639
  632MOL0     H85304   2.458   2.313   3.320  1.8422  3.3369 -0.4542
  632MOL0     H85305   2.670   2.395   3.468  1.2564 -2.0365 -1.4169
  632MOL0     H85306   2.794   2.233   3.870  0.4759 -0.4183  0.9155
  632MOL0     H85307   3.006   2.199   3.967  1.7967  0.5516  2.2733
  632MOL0     H85308   3.314   2.495   4.012  0.6288  0.9904 -1.1528
  632MOL0     H85309   3.252   2.404   3.886  0.8462 -0.2046  0.2025
  632MOL0     H85310   3.439   2.308   3.982 -3.0206  2.5616 -2.5333
  632MOL0     H85311   3.293   2.190   3.999 -3.3485  2.0597 -2.4595
  632MOL0     H85312   3.304   2.302   4.253  1.7061 -1.7099  1.7920
  632MOL0     H85313   3.464   2.360   4.189  1.1868 -0.3703  2.1759
  632MOL0     H85314   3.377   2.063   4.205  2.7016 -2.9564 -0.3853
  632MOL0     H85315   3.516   2.113   4.139  0.7552 -0.2395  1.7200
  632MOL0     H85316   3.652   2.159   4.530 -0.3168 -3.6307 -0.5933
  632MOL0     H85317   3.016   2.625   4.035 -1.0944  0.8660  0.9921
  632MOL0     H85318   2.723   2.727   3.960  1.4599  0.8111  1.3633
  632MOL0     H85319   2.891   2.772   3.919  0.8497 -0.7578  2.1092
  632MOL0     H85320   2.777   2.703   3.798 -0.5745 -0.4216 -0.8314
  633MOL0     O85321   8.313   9.648   2.204 -0.5727 -0.7807  0.4262
  633MOL0     C85322   8.339   9.544   2.156 -0.0825  0.4310  0.7153
  633MOL0     O85323   8.246   9.453   2.103 -1.0489 -0.0162  0.5732
  633MOL0     C85324   8.112   9.481   2.098  0.2485 -1.3076  0.6859
  633MOL0     C85325   8.023   9.372   2.084  0.9120  0.5725  0.5666
  633MOL0     C85326   7.891   9.396   2.048  0.6617  1.4261  0.0175
  633MOL0     C85327   7.837   9.523   2.019 -0.8237  0.0349  0.1530
  633MOL0     O85328   7.711   9.551   1.978  0.3877 -0.0631  0.6767
  633MOL0     C85329   7.597   9.483   2.033  0.4940 -0.5549  0.0795
  633MOL0     C85330   7.578   9.491   2.185  0.2229  0.4222  0.1602
  633MOL0     C85331   7.594   9.631   2.239 -0.3883 -0.2842 -0.1944
  633MOL0     C85332   7.540   9.647   2.386 -0.1907  0.1400 -0.1624
  633MOL0     C85333   7.392   9.667   2.403  0.2942  0.0990  0.4995
  633MOL0     C85334   7.303   9.559   2.357 -0.0450  0.2078  0.3788
  633MOL0     C85335   7.161   9.559   2.427  0.2299 -0.3366  0.0665
  633MOL0     C85336   7.067   9.454   2.375 -0.4989  0.2533  0.2153
  633MOL0     N85337   7.130   9.320   2.397 -0.3395  0.4199  0.4193
  633MOL0     C85338   7.088   9.255   2.509 -0.2025 -0.0557 -0.0845
  633MOL0     C85339   7.100   9.125   2.469 -0.0847 -0.3465  0.0695
  633MOL0     C85340   7.051   9.024   2.570  0.5330  0.4777 -0.0597
  633MOL0     C85341   7.135   9.028   2.703  0.3041  0.0915  0.4560
  633MOL0     C85342   7.286   9.016   2.668 -0.9471 -0.0831  0.2944
  633MOL0     C85343   7.380   8.956   2.779 -0.8787 -0.5249  0.0135
  633MOL0     O85344   7.328   8.834   2.836 -0.1557 -0.6749  0.6885
  633MOL0     C85345   7.368   8.718   2.775  0.1487  0.4196 -0.1213
  633MOL0     C85346   7.325   8.603   2.841 -0.1190  0.3492  0.3670
  633MOL0     C85347   7.351   8.474   2.787  0.9274  0.2136 -1.3562
  633MOL0     C85348   7.405   8.462   2.653 -0.2235  0.1827  0.0669
  633MOL0     C85349   7.396   8.326   2.586 -0.3024 -0.7304  0.1781
  633MOL0     O85350   7.425   8.319   2.458  0.7034 -0.5319 -0.4531
  633MOL0     C85351   7.452   8.194   2.405  0.2117 -0.0571  0.2163
  633MOL0     C85352   7.563   8.182   2.329  0.7512 -0.2818  1.5265
  633MOL0     C85353   7.615   8.059   2.287  0.1224 -0.4654  0.7009
  633MOL0     C85354   7.547   7.935   2.318  0.0334  0.8097  0.9016
  633MOL0     O85355   7.600   7.810   2.291  0.6601 -0.4497 -0.2826
  633MOL0     C85356   7.530   7.733   2.195  0.7778 -0.3340 -0.5445
  633MOL0     C85357   7.620   7.607   2.153 -1.3946 -0.0637 -1.3960
  633MOL0     C85358   7.685   7.630   2.015  0.6631  0.2829 -1.1025
  633MOL0     C85359   7.791   7.518   1.980 -0.3401  0.0126 -0.9044
  633MOL0     C85360   7.849   7.523   1.838 -0.8796  1.0597  0.0463
  633MOL0     C85361   7.776   7.413   1.761  0.4993  1.0608  0.1696
  633MOL0     C85362   7.802   7.436   1.617 -0.2244 -0.5537  0.8109
  633MOL0     C85363   7.682   7.490   1.533  1.4033  1.5008 -0.4516
  633MOL0    Cl85364   7.719   7.628   1.425 -0.1354 -0.3682 -0.4054
  633MOL0     C85365   7.419   7.945   2.380 -0.0377  0.0085  0.0996
  633MOL0     C85366   7.370   8.071   2.417 -0.1231 -0.0110  0.2394
  633MOL0     O85367   7.362   8.225   2.651 -0.0191 -0.2700 -0.6441
  633MOL0     C85368   7.437   8.585   2.590 -0.6375 -0.3949  0.5372
  633MOL0     C85369   7.430   8.702   2.655 -0.8274 -0.1987  0.8805
  633MOL0     N85370   7.120   9.111   2.335  0.2229 -0.6647 -0.5218
  633MOL0     N85371   7.150   9.232   2.291 -0.0241 -0.8822 -0.6013
  633MOL0     C85372   7.928   9.628   2.028  0.3077  0.4966 -0.0410
  633MOL0     C85373   8.060   9.604   2.068  0.3808 -0.3416  0.2168
  633MOL0     C85374   8.479   9.507   2.169  0.4720 -0.1042  0.1586
  633MOL0     C85375   8.506   9.373   2.167  0.2662  0.0274 -0.3115
  633MOL0     C85376   8.642   9.322   2.173  0.9972 -0.2072  0.0733
  633MOL0     C85377   8.754   9.415   2.179  0.2307  0.1392  0.2808
  633MOL0     O85378   8.876   9.349   2.166  0.4301 -0.3748 -0.3473
  633MOL0     C85379   8.994   9.416   2.117  0.9870 -0.3340 -0.8567
  633MOL0     C85380   8.985   9.416   1.969  0.3805 -0.4689 -0.0011
  633MOL0     C85381   8.940   9.281   1.915  0.7526  0.6235 -0.1509
  633MOL0     C85382   9.036   9.161   1.963 -0.1905 -0.6372 -0.7688
  633MOL0     C85383   9.166   9.141   1.891  0.7523 -0.1759 -0.0807
  633MOL0     C85384   9.270   9.121   1.829  0.5137  0.6590 -0.3532
  633MOL0     C85385   8.724   9.550   2.180  0.3872  0.6708  1.0892
  633MOL0     C85386   8.594   9.593   2.175 -0.2339  0.4620 -0.2035
  633MOL0     C85387   8.582   9.746   2.174 -0.5693  0.4887  0.2000
  633MOL0     H85388   8.060   9.271   2.090 -2.0708 -0.7439 -1.1474
  633MOL0     H85389   7.824   9.314   2.024  2.9293  0.0481 -2.0402
  633MOL0     H85390   7.505   9.521   1.988 -0.5176 -1.2455  1.4979
  633MOL0     H85391   7.602   9.376   2.009 -1.3512 -0.3668 -1.4854
  633MOL0     H85392   7.660   9.443   2.239  0.9456  1.3460 -0.0984
  633MOL0     H85393   7.481   9.449   2.214  0.1388  0.0550 -0.6356
  633MOL0     H85394   7.546   9.710   2.180  1.0255  0.7254 -0.0543
  633MOL0     H85395   7.701   9.655   2.248 -0.3055 -1.2741  2.3730
  633MOL0     H85396   7.580   9.564   2.444 -2.4485 -0.9342 -0.0230
  633MOL0     H85397   7.582   9.741   2.425  0.2343  0.0683 -0.4416
  633MOL0     H85398   7.374   9.702   2.505 -2.4395 -0.0428  0.1436
  633MOL0     H85399   7.370   9.760   2.348 -1.6497 -0.9925 -0.6929
  633MOL0     H85400   7.286   9.566   2.249  3.0781 -3.1792 -0.5338
  633MOL0     H85401   7.352   9.464   2.377  2.0322  0.9096 -1.0099
  633MOL0     H85402   7.126   9.657   2.392  3.8207 -0.6963 -5.7278
  633MOL0     H85403   7.157   9.561   2.537 -3.1619  0.7267  0.0507
  633MOL0     H85404   6.976   9.464   2.435 -0.5991 -1.1314  0.3375
  633MOL0     H85405   7.044   9.466   2.269 -1.2403  1.4414  0.4961
  633MOL0     H85406   7.089   9.291   2.611 -0.6719  3.7231 -1.2731
  633MOL0     H85407   6.944   9.041   2.587  0.3890  1.2337 -1.6061
  633MOL0     H85408   7.052   8.922   2.532  1.7291  1.0643 -1.7042
  633MOL0     H85409   7.111   9.122   2.754  3.1957  0.6322  1.0088
  633MOL0     H85410   7.093   8.940   2.753  0.2734 -0.3552 -0.3377
  633MOL0     H85411   7.334   9.109   2.636 -1.9004  0.2034 -0.3508
  633MOL0     H85412   7.287   8.943   2.587 -2.8659 -0.3626  0.4863
  633MOL0     H85413   7.364   9.037   2.851 -1.8274 -0.4627 -0.2553
  633MOL0     H85414   7.485   8.934   2.761 -1.7520 -3.0425 -2.8005
  633MOL0     H85415   7.253   8.616   2.921 -0.5486  0.9571 -0.1138
  633MOL0     H85416   7.305   8.389   2.834 -2.7192  2.9604  0.5072
  633MOL0     H85417   7.624   8.271   2.310 -0.3469  1.0199  3.7221
  633MOL0     H85418   7.708   8.054   2.231  1.2945  0.9263  2.4351
  633MOL0     H85419   7.432   7.693   2.224  1.3978 -2.1453 -0.8544
  633MOL0     H85420   7.507   7.793   2.106 -4.7570  1.9613  1.9427
  633MOL0     H85421   7.703   7.588   2.221 -1.5796 -0.5667 -1.3053
  633MOL0     H85422   7.562   7.515   2.146 -0.5046 -0.6965 -0.6304
  633MOL0     H85423   7.611   7.649   1.937 -0.0287  0.7421 -0.3419
  633MOL0     H85424   7.741   7.722   2.031 -0.3616  0.3978  2.7942
  633MOL0     H85425   7.748   7.421   2.006 -1.1596  0.6283  0.1321
  633MOL0     H85426   7.876   7.531   2.048 -0.2256  1.4158 -1.2804
  633MOL0     H85427   7.958   7.506   1.838 -0.7653  1.5071 -2.0560
  633MOL0     H85428   7.821   7.622   1.802  1.4825  2.3340  1.4316
  633MOL0     H85429   7.828   7.321   1.790 -0.2438  0.7019  0.3711
  633MOL0     H85430   7.672   7.409   1.792  0.2065 -0.6720 -0.8970
  633MOL0     H85431   7.831   7.339   1.576  2.4813 -0.2605  1.8149
  633MOL0     H85432   7.878   7.513   1.600 -0.9995 -0.0629 -0.5314
  633MOL0     H85433   7.645   7.412   1.465 -2.0447  0.4689  2.3286
  633MOL0     H85434   7.605   7.524   1.602  0.5754  1.1840 -1.1937
  633MOL0     H85435   7.370   7.849   2.391  2.9025 -1.6014  0.2696
  633MOL0     H85436   7.272   8.080   2.462 -0.8634 -1.5919 -0.9579
  633MOL0     H85437   7.480   8.578   2.490 -1.9410 -1.9531  0.0336
  633MOL0     H85438   7.472   8.792   2.614  2.8875 -0.8603  2.7969
  633MOL0     H85439   7.898   9.729   2.003  0.2823  0.6151  0.4605
  633MOL0     H85440   8.112   9.699   2.063  2.0782 -1.2816 -0.7223
  633MOL0     H85441   8.428   9.298   2.158  0.9826 -0.6633 -0.9172
  633MOL0     H85442   8.659   9.215   2.175  0.7754 -0.2332  2.3831
  633MOL0     H85443   9.087   9.370   2.153  0.5754 -1.8351 -1.6500
  633MOL0     H85444   8.991   9.522   2.144  3.2393 -0.8522  1.9997
  633MOL0     H85445   9.085   9.443   1.933  0.6473 -0.0017  1.0681
  633MOL0     H85446   8.917   9.495   1.935  0.3301 -0.5112  0.0017
  633MOL0     H85447   8.941   9.281   1.806 -0.3015 -1.3543 -0.1966
  633MOL0     H85448   8.842   9.250   1.951  0.4783  2.0531  0.3954
  633MOL0     H85449   9.059   9.166   2.069  0.2314  2.4468 -0.9155
  633MOL0     H85450   8.975   9.070   1.958 -2.1883  0.6274 -0.6949
  633MOL0     H85451   9.352   9.093   1.766  0.1429 -1.0838 -0.1118
  633MOL0     H85452   8.800   9.627   2.185  0.6301  0.4802  0.4610
  633MOL0     H85453   8.677   9.793   2.143 -0.4594  1.4395  1.8390
  633MOL0     H85454   8.493   9.786   2.124 -0.5782 -1.1885 -1.2156
  633MOL0     H85455   8.573   9.769   2.280  2.8341 -4.1681  1.8487
  634MOL0     O85456   1.053   1.081   2.903  0.8229  0.0530 -0.0112
  634MOL0     C85457   1.086   1.171   2.824  0.9175 -0.5691 -0.7140
  634MOL0     O85458   1.058   1.176   2.686 -0.3261  0.1274 -0.1806
  634MOL0     C85459   0.976   1.089   2.624  0.7199  0.6144 -0.4421
  634MOL0     C85460   0.938   1.125   2.492 -0.0539 -0.3216  0.4033
  634MOL0     C85461   0.847   1.054   2.413  0.5399  0.0080  0.7336
  634MOL0     C85462   0.792   0.939   2.460  0.1075  0.1873 -0.2708
  634MOL0     O85463   0.694   0.880   2.378 -0.4107 -0.1177 -0.9123
  634MOL0     C85464   0.622   0.774   2.428 -0.0467 -1.4925 -0.4069
  634MOL0     C85465   0.552   0.705   2.318  0.3430  0.1115  0.7801
  634MOL0     C85466   0.463   0.595   2.355 -0.2315  0.8418 -0.2167
  634MOL0     C85467   0.325   0.663   2.379  0.4375  0.8491 -0.1629
  634MOL0     C85468   0.229   0.556   2.422  0.5687  0.4115 -0.6379
  634MOL0     C85469   0.096   0.613   2.375  0.2662  0.2654 -0.0296
  634MOL0     C85470  -0.020   0.529   2.429 -1.1787  0.2350  0.2179
  634MOL0     C85471  -0.154   0.581   2.381  0.7843 -0.2699 -0.2699
  634MOL0     N85472  -0.274   0.529   2.446  0.3871  0.5689 -0.1593
  634MOL0     C85473  -0.327   0.575   2.568  0.5159 -0.1860 -0.2264
  634MOL0     C85474  -0.434   0.496   2.590  1.0759 -0.0256  0.0302
  634MOL0     C85475  -0.523   0.503   2.714  0.4608  0.2266  0.2407
  634MOL0     C85476  -0.453   0.545   2.839  0.4049 -0.0493 -0.6297
  634MOL0     C85477  -0.323   0.458   2.861 -0.5163  0.5927  0.0446
  634MOL0     C85478  -0.346   0.310   2.910 -0.9316 -0.7905 -0.3403
  634MOL0     O85479  -0.213   0.245   2.961  0.2455  0.8979 -0.3597
  634MOL0     C85480  -0.207   0.109   2.984 -0.5191 -1.4764 -0.3418
  634MOL0     C85481  -0.081   0.044   2.992  0.7501 -0.0392 -0.7675
  634MOL0     C85482  -0.069  -0.091   2.994  0.1486  0.1389 -0.5914
  634MOL0     C85483  -0.183  -0.172   2.983 -0.6312 -0.6834 -0.2404
  634MOL0     C85484  -0.172  -0.316   3.001  0.3165  1.5691  0.2937
  634MOL0     O85485  -0.276  -0.403   2.958 -0.5832  0.0302 -0.0995
  634MOL0     C85486  -0.261  -0.535   2.970  0.1164  0.4041  0.0654
  634MOL0     C85487  -0.218  -0.601   3.086  0.8971  0.7516 -0.5783
  634MOL0     C85488  -0.227  -0.745   3.093 -0.0870 -0.8675 -0.5729
  634MOL0     C85489  -0.273  -0.815   2.985  0.1012  0.1287 -0.1104
  634MOL0     O85490  -0.265  -0.951   2.963 -0.3114  0.3087  0.3434
  634MOL0     C85491  -0.170  -0.984   2.863  1.0041  0.5888  0.1139
  634MOL0     C85492  -0.217  -1.110   2.793  0.3407  0.6257  1.1391
  634MOL0     C85493  -0.186  -1.249   2.866  0.5833  0.2638  0.3714
  634MOL0     C85494  -0.250  -1.270   3.011 -0.0406  1.2020 -0.0259
  634MOL0     C85495  -0.214  -1.415   3.048  0.3929  0.1896 -1.0031
  634MOL0     C85496  -0.279  -1.455   3.185  0.3672  0.1074  0.0831
  634MOL0     C85497  -0.212  -1.578   3.250 -0.1977 -0.3137 -0.2572
  634MOL0     C85498  -0.088  -1.535   3.327  0.2361  0.2554 -0.4180
  634MOL0    Cl85499  -0.021  -1.661   3.441 -0.1860  0.1566  0.2504
  634MOL0     C85500  -0.331  -0.742   2.876 -0.9461  0.7256 -0.4546
  634MOL0     C85501  -0.333  -0.607   2.878 -0.4174  1.0468  0.3819
  634MOL0     O85502  -0.062  -0.355   3.042  0.0613 -0.3545 -0.6673
  634MOL0     C85503  -0.309  -0.117   2.978  0.1170  0.1468 -1.6998
  634MOL0     C85504  -0.321   0.024   2.982 -0.6548 -0.5430 -0.0582
  634MOL0     N85505  -0.448   0.404   2.496 -0.5903  0.8304 -0.0457
  634MOL0     N85506  -0.349   0.419   2.413  0.2492  0.7393 -0.3129
  634MOL0     C85507   0.830   0.897   2.584 -0.0749  1.3128 -0.6518
  634MOL0     C85508   0.911   0.972   2.669 -0.1469 -1.2857 -0.9517
  634MOL0     C85509   1.171   1.282   2.875  0.3243  0.0604  0.3136
  634MOL0     C85510   1.234   1.362   2.775  0.5651  0.4394 -1.2057
  634MOL0     C85511   1.322   1.461   2.804  0.0566  0.7827 -0.0356
  634MOL0     C85512   1.349   1.498   2.936 -0.6999 -0.3491  0.7060
  634MOL0     O85513   1.430   1.612   2.951 -1.3262 -0.1441  0.2918
  634MOL0     C85514   1.456   1.658   3.082  0.0922  0.0503  0.5303
  634MOL0     C85515   1.555   1.771   3.067  0.0552 -0.2038 -0.5897
  634MOL0     C85516   1.586   1.829   3.210  0.0578  0.4290 -0.0503
  634MOL0     C85517   1.457   1.887   3.264  0.5259 -0.2516 -0.6768
  634MOL0     C85518   1.477   1.997   3.370  1.2631  0.3527 -0.6026
  634MOL0     C85519   1.481   2.061   3.474  0.2917 -0.4010  0.5325
  634MOL0     C85520   1.294   1.414   3.037  0.2554  0.3401 -0.8337
  634MOL0     C85521   1.194   1.311   3.008  0.2973 -0.0632  0.9233
  634MOL0     C85522   1.123   1.237   3.121  0.6310  0.5027  0.3056
  634MOL0     H85523   0.992   1.217   2.470  0.6758 -0.1174  2.8021
  634MOL0     H85524   0.827   1.087   2.312 -2.6392 -1.3557  0.7847
  634MOL0     H85525   0.689   0.699   2.471  0.2918 -0.3392  1.1940
  634MOL0     H85526   0.555   0.813   2.505  0.9651 -1.4904  0.4997
  634MOL0     H85527   0.623   0.667   2.245  1.8324  0.6333  1.9007
  634MOL0     H85528   0.511   0.794   2.270  2.8170  1.1497  0.4508
  634MOL0     H85529   0.510   0.554   2.444 -0.6788  0.1225 -0.3023
  634MOL0     H85530   0.459   0.523   2.273 -2.7707 -1.1267  1.4658
  634MOL0     H85531   0.342   0.741   2.454 -2.2840 -1.9088  3.7485
  634MOL0     H85532   0.300   0.712   2.285  0.1856  0.1679 -0.4561
  634MOL0     H85533   0.245   0.454   2.386 -1.7418 -0.6920  1.2042
  634MOL0     H85534   0.237   0.546   2.531  2.2826  2.2776 -0.5193
  634MOL0     H85535   0.090   0.717   2.405  1.4826 -0.0842  1.5639
  634MOL0     H85536   0.079   0.617   2.267 -0.1100  1.4069  0.0657
  634MOL0     H85537  -0.012   0.525   2.538  0.1209 -0.7345  0.1105
  634MOL0     H85538  -0.008   0.427   2.390 -3.5427  0.4034 -1.1742
  634MOL0     H85539  -0.157   0.690   2.391  2.4524  0.1079 -2.9613
  634MOL0     H85540  -0.165   0.559   2.275 -0.2614  2.1706 -0.7402
  634MOL0     H85541  -0.284   0.651   2.634  2.8096 -0.4641 -1.3052
  634MOL0     H85542  -0.604   0.571   2.686 -0.5480 -0.6002  1.0744
  634MOL0     H85543  -0.574   0.407   2.726  0.6849 -0.1021 -1.2373
  634MOL0     H85544  -0.430   0.651   2.830 -0.4802  0.3110  0.8806
  634MOL0     H85545  -0.516   0.529   2.927  0.9792  0.8591 -0.0347
  634MOL0     H85546  -0.279   0.492   2.955  1.7603 -1.9687  0.0078
  634MOL0     H85547  -0.249   0.452   2.781  0.2776 -0.2569  0.8345
  634MOL0     H85548  -0.395   0.261   2.826 -0.7196  0.4423 -1.2146
  634MOL0     H85549  -0.421   0.308   2.990 -1.2021 -1.4910 -0.6065
  634MOL0     H85550   0.003   0.113   2.985 -0.2139  1.0435 -2.4373
  634MOL0     H85551   0.033  -0.126   3.004 -0.5346 -2.4440 -1.7525
  634MOL0     H85552  -0.180  -0.541   3.168  0.0256  0.5765 -0.0445
  634MOL0     H85553  -0.186  -0.799   3.177 -1.4352 -1.9926 -0.5930
  634MOL0     H85554  -0.160  -0.902   2.791  1.5388 -0.8294 -1.4967
  634MOL0     H85555  -0.066  -1.000   2.892  1.4111 -0.8854 -1.9622
  634MOL0     H85556  -0.323  -1.097   2.768  0.2516  0.8598  1.6227
  634MOL0     H85557  -0.166  -1.112   2.696  2.6116  3.3888  2.1251
  634MOL0     H85558  -0.228  -1.322   2.797  2.7189 -2.3155  1.6453
  634MOL0     H85559  -0.079  -1.272   2.866  0.0357 -3.0513 -2.3954
  634MOL0     H85560  -0.358  -1.251   3.015 -0.5523 -1.2216 -0.9767
  634MOL0     H85561  -0.186  -1.209   3.075  2.8009 -1.5123 -0.0442
  634MOL0     H85562  -0.105  -1.426   3.050  0.4632 -0.2238  3.3783
  634MOL0     H85563  -0.258  -1.471   2.965  1.6932  2.6632 -3.5277
  634MOL0     H85564  -0.276  -1.361   3.240  4.1147 -1.4555  2.9299
  634MOL0     H85565  -0.380  -1.487   3.156  0.7841  0.8953 -2.5458
  634MOL0     H85566  -0.184  -1.631   3.159  2.8636 -0.1505  0.4785
  634MOL0     H85567  -0.282  -1.631   3.314  1.2471  2.8252  4.4566
  634MOL0     H85568  -0.013  -1.495   3.258 -1.4103 -2.2604 -3.9676
  634MOL0     H85569  -0.124  -1.458   3.395  2.4850  1.4149 -0.4597
  634MOL0     H85570  -0.380  -0.811   2.807  1.1076 -0.2833 -0.9731
  634MOL0     H85571  -0.395  -0.554   2.806 -3.2241 -1.1489  1.0178
  634MOL0     H85572  -0.404  -0.169   2.973  2.1508 -4.0123 -1.1082
  634MOL0     H85573  -0.420   0.067   2.970 -0.3777  0.9721  2.3619
  634MOL0     H85574   0.797   0.802   2.625  1.1513  0.0585 -2.4403
  634MOL0     H85575   0.911   0.945   2.775 -0.3991 -0.3578 -0.7035
  634MOL0     H85576   1.202   1.349   2.672 -0.2193 -0.8606 -0.8215
  634MOL0     H85577   1.378   1.509   2.726 -0.8530 -0.6950 -1.6649
  634MOL0     H85578   1.499   1.575   3.138  0.1934 -1.6067 -1.8259
  634MOL0     H85579   1.360   1.702   3.112 -0.7363  0.7982 -2.7601
  634MOL0     H85580   1.523   1.849   2.997 -1.3950 -1.2218 -1.1169
  634MOL0     H85581   1.637   1.717   3.019 -0.6367  0.1852 -2.2840
  634MOL0     H85582   1.657   1.912   3.215  1.6580 -0.8810 -0.0745
  634MOL0     H85583   1.624   1.756   3.282  2.0629  3.0348  1.7114
  634MOL0     H85584   1.398   1.933   3.184  1.2955  1.6443 -0.2074
  634MOL0     H85585   1.391   1.812   3.308 -1.1914  2.3575  1.4406
  634MOL0     H85586   1.469   2.106   3.570  2.2160  5.3254 -1.4829
  634MOL0     H85587   1.326   1.435   3.139  0.0850 -2.1366 -0.1965
  634MOL0     H85588   1.149   1.298   3.208 -0.7816  1.9385 -0.2423
  634MOL0     H85589   1.015   1.238   3.101  0.7406  1.1239 -0.2794
  634MOL0     H85590   1.168   1.140   3.147 -2.7547 -1.7249 -1.4599
  635MOL0     O85591   7.070   9.375   7.740 -0.0387 -0.1216 -0.8113
  635MOL0     C85592   7.180   9.338   7.720 -1.1562  0.5703  0.4132
  635MOL0     O85593   7.242   9.238   7.793 -0.4329  0.6612 -0.0787
  635MOL0     C85594   7.173   9.170   7.893  0.0232  0.1156  0.0436
  635MOL0     C85595   7.073   9.225   7.974 -0.7841  0.3323 -0.3219
  635MOL0     C85596   7.008   9.149   8.068  0.8243 -0.6729  0.1084
  635MOL0     C85597   7.044   9.012   8.090 -0.1716  0.3066 -0.3131
  635MOL0     O85598   6.985   8.949   8.191 -0.2955 -0.0692  0.2726
  635MOL0     C85599   6.981   8.797   8.199 -0.9764 -0.3563  0.1727
  635MOL0     C85600   6.873   8.734   8.283 -0.0647  0.7677 -0.7338
  635MOL0     C85601   6.730   8.719   8.222 -0.7470  0.1352 -0.9239
  635MOL0     C85602   6.666   8.857   8.199 -0.2051  0.4596  0.4880
  635MOL0     C85603   6.511   8.840   8.177 -0.3446 -0.1936  0.8133
  635MOL0     C85604   6.430   8.920   8.284 -0.1567  0.2928 -0.0499
  635MOL0     C85605   6.278   8.893   8.270  0.0375 -0.1586 -0.5474
  635MOL0     C85606   6.197   9.023   8.301 -0.5124 -0.4475 -0.3394
  635MOL0     N85607   6.053   8.985   8.290 -1.4471 -0.0884 -0.4450
  635MOL0     C85608   5.984   8.972   8.168  0.3019 -0.8567 -0.3068
  635MOL0     C85609   5.862   8.918   8.208  0.8489  0.6406  0.5101
  635MOL0     C85610   5.746   8.858   8.128 -0.9870 -0.1207  0.2565
  635MOL0     C85611   5.660   8.756   8.203  0.1435  0.4240 -0.7910
  635MOL0     C85612   5.565   8.665   8.110  0.2850 -0.2010 -0.7105
  635MOL0     C85613   5.649   8.586   8.001 -0.2129  1.0481 -0.2347
  635MOL0     O85614   5.569   8.480   7.946  0.9392 -0.2088 -0.6985
  635MOL0     C85615   5.472   8.513   7.856 -0.6945  0.1841  1.3848
  635MOL0     C85616   5.468   8.628   7.773  0.6356  0.1871  0.8235
  635MOL0     C85617   5.358   8.651   7.689 -0.1380 -0.6947  0.2851
  635MOL0     C85618   5.252   8.557   7.670 -0.1392  0.0107 -1.1511
  635MOL0     C85619   5.140   8.588   7.580 -0.9454  0.0513  0.7333
  635MOL0     O85620   5.032   8.502   7.565  0.4131  0.4540 -0.5094
  635MOL0     C85621   4.933   8.526   7.481  0.4334  0.0608 -0.6610
  635MOL0     C85622   4.871   8.421   7.415 -1.7540 -0.1926  0.6712
  635MOL0     C85623   4.777   8.439   7.320  0.0581 -0.2264  0.3571
  635MOL0     C85624   4.726   8.566   7.297  0.1564  0.3452 -0.1227
  635MOL0     O85625   4.622   8.571   7.205 -0.9792 -0.6019  0.4052
  635MOL0     C85626   4.542   8.690   7.188 -0.2418 -0.0064  1.0287
  635MOL0     C85627   4.417   8.644   7.106  0.4773  0.2262 -0.6525
  635MOL0     C85628   4.418   8.695   6.966 -0.3916 -0.8897 -0.5624
  635MOL0     C85629   4.299   8.673   6.876 -0.0554  0.5598  0.1346
  635MOL0     C85630   4.168   8.755   6.898 -0.0548  0.3503  0.7690
  635MOL0     C85631   4.076   8.701   7.016  0.7016 -0.1642  0.9666
  635MOL0     C85632   3.967   8.809   7.044 -0.5476 -0.4303 -0.3201
  635MOL0     C85633   3.841   8.736   7.071 -0.7864 -0.4693 -0.2299
  635MOL0    Cl85634   3.733   8.867   7.104 -0.2233  0.1990 -0.0045
  635MOL0     C85635   4.777   8.676   7.362  0.2042  0.3079 -0.0861
  635MOL0     C85636   4.889   8.649   7.447 -0.1721  0.1013 -0.6573
  635MOL0     O85637   5.162   8.691   7.517  0.1464 -0.6910  0.6457
  635MOL0     C85638   5.267   8.434   7.736 -0.4144  0.0179 -0.2094
  635MOL0     C85639   5.374   8.411   7.825 -0.9942 -0.4021 -0.1187
  635MOL0     N85640   5.857   8.905   8.345 -0.7568 -0.2174  0.4003
  635MOL0     N85641   5.968   8.947   8.393 -0.0924 -0.8401  0.2698
  635MOL0     C85642   7.154   8.962   8.012 -0.0641  0.1790  0.5736
  635MOL0     C85643   7.212   9.037   7.911  0.5031  0.5186  0.0355
  635MOL0     C85644   7.263   9.408   7.620 -0.4208  0.0273  0.0181
  635MOL0     C85645   7.372   9.332   7.557  0.2872  0.4710 -0.2317
  635MOL0     C85646   7.445   9.376   7.456  0.1183 -0.5527  0.8670
  635MOL0     C85647   7.417   9.500   7.398 -0.4118  0.0241  0.2086
  635MOL0     O85648   7.476   9.544   7.283 -0.1910 -0.6005 -0.2474
  635MOL0     C85649   7.582   9.477   7.220 -0.9314  0.4133  0.8586
  635MOL0     C85650   7.707   9.518   7.302  0.4408 -0.2749 -0.0881
  635MOL0     C85651   7.843   9.458   7.236  0.9986  0.2733 -0.8538
  635MOL0     C85652   7.959   9.492   7.330  0.7146  0.4035 -0.1593
  635MOL0     C85653   8.086   9.422   7.293 -1.0050  0.1746  0.2444
  635MOL0     C85654   8.188   9.385   7.250  0.6826 -0.0292  0.0123
  635MOL0     C85655   7.317   9.579   7.456 -0.8058  0.1973 -0.9193
  635MOL0     C85656   7.252   9.536   7.574 -0.0458  0.0477 -0.0772
  635MOL0     C85657   7.148   9.635   7.629  0.6329  0.4129  0.4469
  635MOL0     H85658   7.049   9.331   7.970  0.2053  0.5492 -0.8573
  635MOL0     H85659   6.926   9.183   8.130  3.1330  0.8003  2.6107
  635MOL0     H85660   6.982   8.746   8.102  1.0444 -1.8365  0.8985
  635MOL0     H85661   7.075   8.771   8.248  0.6360  3.2727 -0.6123
  635MOL0     H85662   6.863   8.793   8.375 -0.2905 -0.0011 -0.2612
  635MOL0     H85663   6.914   8.636   8.309  0.2985  0.9556 -0.5995
  635MOL0     H85664   6.668   8.666   8.294 -2.2154 -0.6130 -2.6737
  635MOL0     H85665   6.736   8.654   8.134  4.0410  2.2341 -2.5009
  635MOL0     H85666   6.686   8.933   8.275  3.6912  2.7888 -2.4654
  635MOL0     H85667   6.713   8.900   8.110 -0.6113 -1.4515 -0.7192
  635MOL0     H85668   6.474   8.861   8.077  0.7179 -2.2466 -0.0753
  635MOL0     H85669   6.493   8.734   8.200  0.9399 -0.3528  1.1905
  635MOL0     H85670   6.463   8.901   8.386  2.0692  0.6303 -0.6382
  635MOL0     H85671   6.456   9.023   8.258  1.7653 -0.0287  0.4052
  635MOL0     H85672   6.244   8.804   8.323  0.8527 -1.0061 -1.3977
  635MOL0     H85673   6.248   8.883   8.166  0.3339  3.1482 -1.0741
  635MOL0     H85674   6.216   9.061   8.402 -1.8698 -0.8912  0.1153
  635MOL0     H85675   6.217   9.104   8.231  2.0620 -0.9301 -0.2651
  635MOL0     H85676   6.033   8.982   8.072 -0.3313 -2.2269 -0.8023
  635MOL0     H85677   5.684   8.948   8.120 -0.0489  0.6658  1.4055
  635MOL0     H85678   5.788   8.802   8.044  0.9986 -1.0930  1.7911
  635MOL0     H85679   5.721   8.697   8.271  2.9256  3.2769 -0.5787
  635MOL0     H85680   5.603   8.817   8.273  0.2761 -0.0040 -0.3098
  635MOL0     H85681   5.491   8.725   8.056 -0.7529  1.2607  2.1165
  635MOL0     H85682   5.513   8.591   8.172  1.3812  0.5312  1.1882
  635MOL0     H85683   5.733   8.536   8.049 -0.7647  1.7203  1.5331
  635MOL0     H85684   5.700   8.648   7.927  1.0402  2.5126  1.7563
  635MOL0     H85685   5.542   8.708   7.765  0.8938 -0.2513 -3.2081
  635MOL0     H85686   5.356   8.747   7.639 -0.8466 -0.7020  0.2867
  635MOL0     H85687   4.903   8.320   7.438  0.3142 -0.3035 -2.2239
  635MOL0     H85688   4.728   8.359   7.265 -2.1558  0.7981  0.7218
  635MOL0     H85689   4.522   8.751   7.277  0.6357  2.2903 -0.2627
  635MOL0     H85690   4.598   8.759   7.125  0.8222 -3.4262 -2.1457
  635MOL0     H85691   4.412   8.535   7.100 -0.6776  0.0301  2.3367
  635MOL0     H85692   4.330   8.693   7.150  1.1772  1.8150 -0.9472
  635MOL0     H85693   4.455   8.798   6.971  0.2155 -1.1432  0.4977
  635MOL0     H85694   4.495   8.632   6.920  0.5921  1.2386 -2.0106
  635MOL0     H85695   4.262   8.570   6.867  0.0556  0.3963  1.4095
  635MOL0     H85696   4.332   8.693   6.774 -0.9051  0.0902 -0.2403
  635MOL0     H85697   4.108   8.757   6.807  1.5690 -1.4827 -0.4450
  635MOL0     H85698   4.196   8.859   6.916  3.1874 -0.0773 -0.9902
  635MOL0     H85699   4.030   8.608   6.981  0.9949 -2.5375  6.0202
  635MOL0     H85700   4.129   8.695   7.111  0.6616  0.5733  1.0437
  635MOL0     H85701   3.963   8.875   6.957  0.5274  0.0484 -0.0185
  635MOL0     H85702   4.000   8.878   7.122 -0.8673  0.7996 -1.2437
  635MOL0     H85703   3.805   8.669   6.993 -2.7342 -0.5311  0.6469
  635MOL0     H85704   3.857   8.677   7.162  1.1152 -1.9886 -1.4778
  635MOL0     H85705   4.741   8.774   7.335 -0.4598 -0.0947 -0.7151
  635MOL0     H85706   4.924   8.737   7.499  0.2500 -0.1038 -0.5831
  635MOL0     H85707   5.194   8.355   7.718 -0.0268  0.0521 -2.1501
  635MOL0     H85708   5.384   8.319   7.882  0.1659 -0.0607  0.2420
  635MOL0     H85709   7.198   8.865   8.033  1.7181  0.5363 -1.1748
  635MOL0     H85710   7.291   8.995   7.848  0.8570  1.8607 -0.4427
  635MOL0     H85711   7.374   9.226   7.582 -1.0964 -0.1084 -2.3221
  635MOL0     H85712   7.519   9.308   7.415 -0.4140 -1.3314  1.1942
  635MOL0     H85713   7.576   9.509   7.115  0.6782 -3.2671 -0.5385
  635MOL0     H85714   7.586   9.368   7.220 -0.3731  0.3008 -2.8538
  635MOL0     H85715   7.674   9.462   7.391 -1.9787 -1.2411 -1.5032
  635MOL0     H85716   7.714   9.626   7.319  1.9057 -0.1783 -1.1274
  635MOL0     H85717   7.867   9.497   7.137  1.5653 -2.5368 -1.9123
  635MOL0     H85718   7.819   9.353   7.223  0.1401  0.4890 -1.0864
  635MOL0     H85719   7.978   9.599   7.340  0.9854  0.5947 -2.1198
  635MOL0     H85720   7.940   9.451   7.429 -0.8524 -0.8458 -0.9362
  635MOL0     H85721   8.280   9.351   7.208  1.0990 -2.6895  2.7955
  635MOL0     H85722   7.322   9.679   7.412  1.3796  0.3057 -0.5364
  635MOL0     H85723   7.180   9.675   7.726 -0.6766 -1.2950  1.6516
  635MOL0     H85724   7.142   9.721   7.563  0.5047  1.6238  1.9816
  635MOL0     H85725   7.052   9.583   7.640  1.8532 -1.8678  1.0976
  636MOL0     O85726  11.300   5.619   4.944 -0.2309 -0.0942  0.0078
  636MOL0     C85727  11.358   5.731   4.940  0.5738  1.2771 -0.4539
  636MOL0     O85728  11.324   5.826   4.848  0.0842  0.0922 -0.1701
  636MOL0     C85729  11.213   5.804   4.777  0.5662 -0.6556 -0.4692
  636MOL0     C85730  11.110   5.885   4.809 -0.1639 -0.4171 -0.1448
  636MOL0     C85731  10.992   5.871   4.738  0.5653 -1.4204 -1.2147
  636MOL0     C85732  10.970   5.773   4.643  0.6960  0.0633  0.1587
  636MOL0     O85733  10.870   5.777   4.557  0.4985  0.1139 -0.5123
  636MOL0     C85734  10.742   5.723   4.604 -1.4868 -0.4445 -0.2979
  636MOL0     C85735  10.647   5.830   4.650  0.0768 -0.1890  0.1035
  636MOL0     C85736  10.661   5.953   4.557  0.3480 -0.6911 -0.1353
  636MOL0     C85737  10.551   6.055   4.584  0.8365 -0.5021 -0.7139
  636MOL0     C85738  10.573   6.178   4.491  0.1750 -0.4452 -0.1579
  636MOL0     C85739  10.474   6.297   4.524  0.5840 -0.8629 -0.6985
  636MOL0     C85740  10.541   6.412   4.474  0.3624  0.3409  0.4187
  636MOL0     C85741  10.457   6.533   4.516 -0.4414 -0.2670 -0.4645
  636MOL0     N85742  10.511   6.654   4.453  0.1227  0.8816  0.8620
  636MOL0     C85743  10.503   6.688   4.317  0.5078 -0.3539 -0.7316
  636MOL0     C85744  10.604   6.775   4.307 -0.5784  0.1386  0.3783
  636MOL0     C85745  10.668   6.829   4.170  0.1528  0.9677 -1.1090
  636MOL0     C85746  10.746   6.951   4.205  0.6287  0.5033  0.5360
  636MOL0     C85747  10.675   7.074   4.257 -0.2275  0.4295  0.1937
  636MOL0     C85748  10.757   7.194   4.236 -0.1033 -0.7194 -0.1323
  636MOL0     O85749  10.678   7.314   4.266 -0.1081  0.3543 -0.2368
  636MOL0     C85750  10.746   7.432   4.271 -0.0599  0.8853 -0.3490
  636MOL0     C85751  10.881   7.452   4.248 -0.3600  0.7041  0.4873
  636MOL0     C85752  10.941   7.578   4.236  0.3839 -0.0464  0.0718
  636MOL0     C85753  10.851   7.695   4.241  0.4041  0.3301 -0.2789
  636MOL0     C85754  10.904   7.832   4.254  0.2805 -0.2734 -0.3278
  636MOL0     O85755  10.999   7.862   4.170 -0.2988  0.0168 -0.2373
  636MOL0     C85756  11.033   7.994   4.161  1.0721 -0.2252 -0.7847
  636MOL0     C85757  10.956   8.085   4.086 -0.5100 -0.5326  0.7650
  636MOL0     C85758  11.007   8.210   4.076  1.7153 -0.8871 -0.6075
  636MOL0     C85759  11.122   8.259   4.135 -1.3573 -0.1499  0.2904
  636MOL0     O85760  11.165   8.387   4.146 -0.2611  0.3308  0.3210
  636MOL0     C85761  11.104   8.480   4.044  0.0364 -0.1540 -0.2341
  636MOL0     C85762  11.162   8.616   4.053 -0.2423  0.8940  0.0509
  636MOL0     C85763  11.111   8.711   3.946  0.4169 -0.3124  0.4876
  636MOL0     C85764  11.164   8.849   3.988 -0.0826  0.1107  0.6072
  636MOL0     C85765  11.144   8.957   3.863 -0.7439 -0.3430  0.3079
  636MOL0     C85766  10.999   9.020   3.873 -0.4940  0.1539 -0.0738
  636MOL0     C85767  10.990   9.138   3.781  0.1250 -0.0619 -0.2550
  636MOL0     C85768  10.841   9.174   3.765 -0.0992  0.7391  0.9432
  636MOL0    Cl85769  10.755   9.192   3.929 -0.1249 -0.3875 -0.1497
  636MOL0     C85770  11.202   8.166   4.197  0.4244 -0.1997 -0.8441
  636MOL0     C85771  11.152   8.028   4.211 -0.0470 -0.2357  0.1319
  636MOL0     O85772  10.852   7.915   4.331  0.8040  0.5489  0.2302
  636MOL0     C85773  10.714   7.683   4.261  0.7063  0.1420 -0.5214
  636MOL0     C85774  10.666   7.552   4.278  0.2101  0.3028 -0.4815
  636MOL0     N85775  10.663   6.796   4.433 -0.0948  0.8645  0.3304
  636MOL0     N85776  10.603   6.725   4.522 -0.9937 -0.1249 -0.0772
  636MOL0     C85777  11.073   5.692   4.613  0.0383 -1.3715 -1.0700
  636MOL0     C85778  11.194   5.704   4.680 -0.0821  0.1266  0.5270
  636MOL0     C85779  11.486   5.744   4.996 -0.7303  0.1168  0.5959
  636MOL0     C85780  11.540   5.619   5.036  0.0684 -0.1220 -0.8046
  636MOL0     C85781  11.660   5.625   5.112 -0.5615 -0.8855  0.4822
  636MOL0     C85782  11.715   5.742   5.161  0.4771  0.2683  0.3146
  636MOL0     O85783  11.833   5.728   5.224 -0.5333 -0.0270 -0.1774
  636MOL0     C85784  11.823   5.733   5.369  0.4997 -0.0008  0.6502
  636MOL0     C85785  11.958   5.700   5.434  0.3428  0.2816  0.4698
  636MOL0     C85786  12.059   5.799   5.371 -0.2142  0.1252 -0.2753
  636MOL0     C85787  12.202   5.784   5.428 -0.1743  0.3228 -0.1794
  636MOL0     C85788  12.216   5.844   5.565 -0.2825  0.6762 -0.4772
  636MOL0     C85789  12.203   5.877   5.686  0.1090 -0.4882  0.0661
  636MOL0     C85790  11.660   5.866   5.128  0.5801  0.4568 -0.4311
  636MOL0     C85791  11.553   5.867   5.032 -0.9007 -0.1092 -1.3272
  636MOL0     C85792  11.505   6.001   4.992  0.2237 -0.1404  0.2284
  636MOL0     H85793  11.120   5.958   4.889  2.0941 -0.8332  0.0175
  636MOL0     H85794  10.916   5.938   4.778 -0.7601 -2.7607 -1.4252
  636MOL0     H85795  10.696   5.675   4.517  3.1869 -1.6898 -2.3968
  636MOL0     H85796  10.758   5.654   4.688 -3.1478 -0.2133  0.2533
  636MOL0     H85797  10.659   5.862   4.753 -2.6010  1.3485  0.0334
  636MOL0     H85798  10.545   5.791   4.651 -0.5154  1.1089 -2.1642
  636MOL0     H85799  10.658   5.919   4.453 -0.8232 -2.5785  0.4605
  636MOL0     H85800  10.745   6.012   4.593 -0.1563  2.4876 -3.5464
  636MOL0     H85801  10.451   6.015   4.564  0.3876  1.0421 -1.7524
  636MOL0     H85802  10.552   6.093   4.687 -2.0462  2.6193 -1.6648
  636MOL0     H85803  10.676   6.214   4.502  0.3053 -0.9997  0.5559
  636MOL0     H85804  10.572   6.151   4.385  5.1320 -2.4760  0.0279
  636MOL0     H85805  10.372   6.275   4.489 -2.2325  1.6033  4.6483
  636MOL0     H85806  10.459   6.316   4.631 -0.9761 -0.6394 -0.9309
  636MOL0     H85807  10.562   6.406   4.367  4.0581  2.2545  0.8696
  636MOL0     H85808  10.640   6.416   4.521  1.3927 -2.4079 -1.2493
  636MOL0     H85809  10.352   6.513   4.494 -0.4783  1.1822 -1.7465
  636MOL0     H85810  10.472   6.549   4.623  0.2325 -0.0618 -0.5819
  636MOL0     H85811  10.451   6.638   4.236  1.6437 -0.9458 -1.1349
  636MOL0     H85812  10.744   6.758   4.135  1.0252  1.3414 -0.0205
  636MOL0     H85813  10.586   6.850   4.100 -3.1699 -1.0015  1.8665
  636MOL0     H85814  10.830   6.925   4.271 -0.2123 -1.4897  0.9020
  636MOL0     H85815  10.791   6.979   4.109 -1.2041  2.8302  0.2580
  636MOL0     H85816  10.648   7.082   4.363  0.7131 -0.1701  0.5003
  636MOL0     H85817  10.579   7.087   4.207 -1.7946  1.2134  3.1732
  636MOL0     H85818  10.794   7.209   4.134  0.6334  1.7769  0.4137
  636MOL0     H85819  10.840   7.188   4.307 -2.0491 -0.1749  2.3487
  636MOL0     H85820  10.946   7.368   4.229 -1.2571  0.0232  0.3699
  636MOL0     H85821  11.048   7.594   4.241  0.6880 -2.0757  3.1114
  636MOL0     H85822  10.856   8.065   4.048  0.3753 -2.2890 -0.8374
  636MOL0     H85823  10.938   8.284   4.037  2.6111  0.7674  0.8379
  636MOL0     H85824  11.115   8.457   3.937  0.9822  0.3271 -0.2485
  636MOL0     H85825  10.996   8.485   4.058  0.1746  2.5154  0.3343
  636MOL0     H85826  11.151   8.654   4.155 -0.4598  1.7137 -0.2680
  636MOL0     H85827  11.267   8.602   4.025 -0.9570 -1.5751 -1.7943
  636MOL0     H85828  11.137   8.690   3.842 -0.1441  3.5558 -0.5740
  636MOL0     H85829  11.002   8.709   3.947  0.3345  0.7161 -1.3968
  636MOL0     H85830  11.271   8.837   4.002  0.0065  0.6386  0.4011
  636MOL0     H85831  11.131   8.881   4.087  1.4110 -0.1037  1.1962
  636MOL0     H85832  11.161   8.903   3.770  2.8223  1.7562 -0.4394
  636MOL0     H85833  11.225   9.031   3.873  2.8607 -3.5418 -2.3938
  636MOL0     H85834  10.923   8.948   3.841  2.4102 -2.2730 -2.0591
  636MOL0     H85835  10.982   9.045   3.978  2.1288 -2.5605  1.1351
  636MOL0     H85836  11.024   9.116   3.679 -1.8421 -0.0593 -0.9622
  636MOL0     H85837  11.049   9.219   3.824  1.8417 -0.8550 -1.0278
  636MOL0     H85838  10.842   9.273   3.718 -1.7852  0.0461 -0.6634
  636MOL0     H85839  10.783   9.116   3.693 -0.1011  2.7763 -0.8119
  636MOL0     H85840  11.296   8.206   4.234 -0.5327  0.5899  0.7831
  636MOL0     H85841  11.220   7.956   4.255  0.5870 -0.1046 -0.6160
  636MOL0     H85842  10.645   7.766   4.277  0.2583 -0.6687  2.1189
  636MOL0     H85843  10.559   7.533   4.272  0.4886 -1.0937 -1.4481
  636MOL0     H85844  11.067   5.627   4.526 -0.8558  1.6192 -3.3815
  636MOL0     H85845  11.273   5.634   4.654 -1.3743 -0.5338 -1.9796
  636MOL0     H85846  11.501   5.518   5.029  0.6169 -0.3478 -0.6805
  636MOL0     H85847  11.696   5.525   5.137 -0.9622 -1.3436 -0.7084
  636MOL0     H85848  11.761   5.657   5.418  2.3553 -2.7829 -1.0198
  636MOL0     H85849  11.777   5.828   5.398  0.2739  0.9294 -2.4113
  636MOL0     H85850  11.972   5.593   5.420 -1.7029 -0.0443  0.6694
  636MOL0     H85851  11.955   5.730   5.539  2.5699  0.2624  0.5933
  636MOL0     H85852  12.044   5.903   5.403  3.0715  0.1300  1.6848
  636MOL0     H85853  12.073   5.791   5.263  0.7400 -0.7174 -0.1008
  636MOL0     H85854  12.242   5.682   5.421  2.3515  1.1526  0.7052
  636MOL0     H85855  12.258   5.851   5.362 -0.5309 -1.3007 -2.2478
  636MOL0     H85856  12.191   5.897   5.790 -1.8425  0.3874 -0.2880
  636MOL0     H85857  11.713   5.956   5.158 -3.3481  2.9502 -0.2207
  636MOL0     H85858  11.596   6.061   4.991  1.8695 -2.4414  1.5953
  636MOL0     H85859  11.465   6.003   4.890 -1.0861  1.9221  0.7445
  636MOL0     H85860  11.434   6.046   5.062 -0.6499 -0.5703 -0.3621
  637MOL0     O85861   8.629   8.940  11.231  0.6922  0.0376  0.1806
  637MOL0     C85862   8.646   8.836  11.165 -0.8623  0.4605 -0.0357
  637MOL0     O85863   8.581   8.814  11.042  0.5515 -0.1644 -0.2860
  637MOL0     C85864   8.486   8.908  11.004 -0.5317  0.1823 -0.3911
  637MOL0     C85865   8.372   8.926  11.080  0.7646 -0.5616 -0.5639
  637MOL0     C85866   8.277   9.026  11.059  0.1737  0.5752  0.3396
  637MOL0     C85867   8.300   9.101  10.942  0.4060 -0.4447  0.6701
  637MOL0     O85868   8.197   9.191  10.912 -0.4857 -0.4287  0.2895
  637MOL0     C85869   8.232   9.300  10.821  0.1138 -0.0672 -0.3799
  637MOL0     C85870   8.106   9.383  10.789 -0.0003  0.5212 -1.0819
  637MOL0     C85871   8.049   9.465  10.905  0.3520 -0.4181 -0.2449
  637MOL0     C85872   7.946   9.566  10.852 -0.3065 -0.3103  0.1991
  637MOL0     C85873   7.870   9.645  10.957  0.6449  0.2681  0.2457
  637MOL0     C85874   7.770   9.737  10.898  0.5252 -0.1277 -0.2229
  637MOL0     C85875   7.627   9.682  10.908 -0.7435 -0.2840 -0.3121
  637MOL0     C85876   7.612   9.551  10.819  0.6168  0.5447 -0.1568
  637MOL0     N85877   7.480   9.503  10.826  0.3464  0.4416 -0.1947
  637MOL0     C85878   7.393   9.531  10.723  0.4123  0.6972 -0.2777
  637MOL0     C85879   7.297   9.428  10.723 -0.2029  0.0855 -0.6999
  637MOL0     C85880   7.185   9.404  10.641  0.3091 -0.0163 -0.2212
  637MOL0     C85881   7.220   9.306  10.531  0.3269 -0.1072 -1.4445
  637MOL0     C85882   7.096   9.229  10.460 -0.3997 -0.6202  0.3105
  637MOL0     C85883   7.151   9.163  10.339 -0.0678  0.2549  0.0725
  637MOL0     O85884   7.219   9.048  10.387 -0.4069 -0.1041 -0.1215
  637MOL0     C85885   7.296   8.977  10.301 -0.5532  0.4757  0.7027
  637MOL0     C85886   7.365   8.874  10.364 -0.6188  0.8848 -1.0081
  637MOL0     C85887   7.453   8.795  10.296  0.4193 -0.3028 -1.2306
  637MOL0     C85888   7.468   8.812  10.157  0.7952  0.8940  0.4269
  637MOL0     C85889   7.552   8.713  10.067  0.0405 -0.4148  0.7402
  637MOL0     O85890   7.568   8.750   9.934 -1.4421 -0.1711  0.4990
  637MOL0     C85891   7.641   8.667   9.853  0.3425 -0.6527 -0.0482
  637MOL0     C85892   7.571   8.564   9.788 -0.4685  0.2081  0.6258
  637MOL0     C85893   7.640   8.472   9.709 -0.6887  0.6565 -0.4117
  637MOL0     C85894   7.777   8.481   9.692 -0.3466 -0.2685 -1.0294
  637MOL0     O85895   7.859   8.393   9.632 -0.0750  0.5967 -0.7613
  637MOL0     C85896   7.807   8.287   9.560 -0.3850  0.5687  1.0394
  637MOL0     C85897   7.913   8.208   9.483  0.9833 -0.5950  0.4230
  637MOL0     C85898   7.972   8.284   9.353  0.2562 -0.0524  0.1559
  637MOL0     C85899   8.027   8.185   9.254 -0.3567 -0.0095  0.4485
  637MOL0     C85900   8.087   8.241   9.123  0.5468  0.1123 -0.7329
  637MOL0     C85901   8.161   8.135   9.048  0.1718  0.1992  0.0321
  637MOL0     C85902   8.184   8.196   8.908  0.9253  0.1412  0.3626
  637MOL0     C85903   8.259   8.088   8.825  0.7060 -0.4673 -0.4294
  637MOL0    Cl85904   8.271   8.137   8.654  0.1346  0.0575  0.3875
  637MOL0     C85905   7.844   8.583   9.763  0.5693 -0.1128  0.5378
  637MOL0     C85906   7.784   8.672   9.846 -0.3409  0.2566  0.8601
  637MOL0     O85907   7.582   8.607  10.116  0.3560 -0.3133 -0.0696
  637MOL0     C85908   7.394   8.909  10.091 -0.2306  0.2243  0.2301
  637MOL0     C85909   7.302   8.989  10.158  0.7713  0.2680  0.0956
  637MOL0     N85910   7.323   9.348  10.834 -0.3487 -0.7197  0.4720
  637MOL0     N85911   7.443   9.381  10.882 -0.8070  0.1957 -0.5947
  637MOL0     C85912   8.420   9.089  10.870  0.4621  0.0361  0.4204
  637MOL0     C85913   8.518   8.992  10.900 -0.0052  0.0742  0.6469
  637MOL0     C85914   8.757   8.740  11.195  0.6237  0.0485  0.7079
  637MOL0     C85915   8.823   8.687  11.085 -0.4790  0.1623 -0.4573
  637MOL0     C85916   8.932   8.601  11.102 -0.0541  0.4509 -0.1900
  637MOL0     C85917   8.954   8.547  11.229 -1.6789 -0.1260  0.2158
  637MOL0     O85918   9.063   8.460  11.243  0.6449 -0.0999  0.5853
  637MOL0     C85919   9.034   8.349  11.325 -0.6911  0.1892 -0.4905
  637MOL0     C85920   8.932   8.248  11.278  0.3712  0.1127  0.0042
  637MOL0     C85921   8.981   8.132  11.201 -0.2652  0.9262 -0.0260
  637MOL0     C85922   8.871   8.024  11.183 -0.6500 -0.4007  0.5517
  637MOL0     C85923   8.846   7.952  11.304  0.4027  0.8225 -0.6987
  637MOL0     C85924   8.829   7.905  11.412  0.1640  0.4955 -0.4657
  637MOL0     C85925   8.888   8.597  11.337  0.1672  0.0321 -0.3493
  637MOL0     C85926   8.787   8.693  11.324 -0.5311 -0.5017 -0.1812
  637MOL0     C85927   8.722   8.739  11.454 -0.3128  0.2122  0.0087
  637MOL0     H85928   8.346   8.854  11.157 -2.6882 -2.1792 -2.9617
  637MOL0     H85929   8.185   9.038  11.115 -1.1742  0.8563 -1.8230
  637MOL0     H85930   8.314   9.362  10.858  0.3472  0.9838 -2.4728
  637MOL0     H85931   8.261   9.250  10.728 -0.6145  0.1876 -0.7476
  637MOL0     H85932   8.032   9.316  10.743  1.3123 -2.3959  0.8188
  637MOL0     H85933   8.130   9.454  10.709  3.5567  1.3087  0.5048
  637MOL0     H85934   8.137   9.509  10.952  1.4552 -2.2103 -0.5208
  637MOL0     H85935   7.996   9.417  10.988  0.0312 -1.0277 -0.7901
  637MOL0     H85936   8.003   9.636  10.791  2.3846 -2.6373 -0.1463
  637MOL0     H85937   7.880   9.509  10.786  3.0802 -2.7796 -1.4002
  637MOL0     H85938   7.817   9.573  11.021 -2.9444  0.5517 -2.0815
  637MOL0     H85939   7.943   9.700  11.017  0.5131 -0.3260  0.9660
  637MOL0     H85940   7.763   9.833  10.949 -0.9766  0.3284 -1.2426
  637MOL0     H85941   7.796   9.758  10.794  0.4500 -0.7083 -0.3665
  637MOL0     H85942   7.569   9.766  10.869 -0.4872 -1.0598 -2.5295
  637MOL0     H85943   7.579   9.669  11.006 -2.0235  0.5070 -0.8097
  637MOL0     H85944   7.648   9.571  10.717  0.4283  2.0719  0.0556
  637MOL0     H85945   7.678   9.473  10.859  1.2340  0.7174 -0.8093
  637MOL0     H85946   7.404   9.613  10.653  3.7834 -0.0057 -0.7620
  637MOL0     H85947   7.102   9.352  10.690 -0.1161 -0.0539 -0.9635
  637MOL0     H85948   7.148   9.498  10.598 -1.6989  0.2823  1.9768
  637MOL0     H85949   7.287   9.342  10.452  2.6081 -1.4617 -0.2502
  637MOL0     H85950   7.274   9.224  10.580 -1.8294 -0.8375 -0.1531
  637MOL0     H85951   7.020   9.303  10.433  1.1306  0.9402  0.0973
  637MOL0     H85952   7.049   9.152  10.522 -3.0442  0.0857 -0.6475
  637MOL0     H85953   7.208   9.233  10.277 -1.8299 -0.8928 -3.0820
  637MOL0     H85954   7.061   9.136  10.284  0.8121 -0.2474 -1.1626
  637MOL0     H85955   7.364   8.851  10.470  1.4508  0.8663 -0.9440
  637MOL0     H85956   7.497   8.708  10.344 -2.0876 -1.7177 -1.3116
  637MOL0     H85957   7.462   8.559   9.787 -0.4699  0.2405  0.5800
  637MOL0     H85958   7.595   8.386   9.659  2.5229 -1.8392  0.6204
  637MOL0     H85959   7.756   8.216   9.627  2.2448 -1.7951  0.7292
  637MOL0     H85960   7.729   8.318   9.489 -1.6034 -1.2194  1.5101
  637MOL0     H85961   7.997   8.185   9.549  1.9577  0.1981 -0.5086
  637MOL0     H85962   7.865   8.115   9.453 -1.0960  0.5414  0.0315
  637MOL0     H85963   7.896   8.337   9.295  1.1959  1.1997  0.0299
  637MOL0     H85964   8.047   8.360   9.378 -1.2135  0.5351  3.3842
  637MOL0     H85965   7.944   8.122   9.221  0.5386 -0.6697 -0.6270
  637MOL0     H85966   8.112   8.125   9.289  1.6710 -0.0364 -3.8208
  637MOL0     H85967   8.163   8.317   9.148  1.1241 -0.2182 -1.4392
  637MOL0     H85968   8.006   8.281   9.061 -0.5871  1.7419  1.6427
  637MOL0     H85969   8.253   8.101   9.096  1.2264  2.7185 -0.0486
  637MOL0     H85970   8.106   8.041   9.038 -2.5054  1.4394  2.1295
  637MOL0     H85971   8.254   8.280   8.910  0.6861  0.4854 -2.1806
  637MOL0     H85972   8.090   8.235   8.868 -0.5378 -2.7996  0.6647
  637MOL0     H85973   8.351   8.052   8.873 -1.3821 -3.3351  1.7742
  637MOL0     H85974   8.191   8.003   8.818  0.8152 -0.5711 -0.2581
  637MOL0     H85975   7.952   8.585   9.749  0.4132 -2.1382 -1.6651
  637MOL0     H85976   7.832   8.752   9.902  1.0022  1.3217 -1.6366
  637MOL0     H85977   7.403   8.927   9.984 -2.6756  2.1767  0.2400
  637MOL0     H85978   7.234   9.058  10.108  1.4054  1.7847  1.2403
  637MOL0     H85979   8.422   9.141  10.775  0.1932 -1.6320 -0.5384
  637MOL0     H85980   8.606   8.981  10.838 -0.3347  1.2244 -0.0643
  637MOL0     H85981   8.806   8.737  10.990  2.7085 -2.0937 -2.4154
  637MOL0     H85982   8.983   8.567  11.013  2.8453  2.6046  0.5052
  637MOL0     H85983   9.003   8.393  11.420 -2.6644  3.2094 -2.3932
  637MOL0     H85984   9.126   8.293  11.342  0.6335  2.3075 -0.4049
  637MOL0     H85985   8.843   8.293  11.232  0.6082  0.0311 -0.5330
  637MOL0     H85986   8.902   8.193  11.368  1.7904 -1.5556 -0.4942
  637MOL0     H85987   9.074   8.085  11.233  0.2930 -2.3605 -5.1851
  637MOL0     H85988   9.006   8.168  11.100  4.0045  0.9371  0.8751
  637MOL0     H85989   8.778   8.070  11.147  0.7474  2.2286  0.0803
  637MOL0     H85990   8.909   7.962  11.102  3.7987  2.4393  0.1076
  637MOL0     H85991   8.799   7.858  11.504 -1.9244 -0.2263 -1.4509
  637MOL0     H85992   8.920   8.553  11.430  0.9462 -0.0874 -0.6706
  637MOL0     H85993   8.732   8.847  11.470 -1.2392  0.3412 -0.2231
  637MOL0     H85994   8.617   8.708  11.459  0.1034 -1.0990  3.2963
  637MOL0     H85995   8.761   8.694  11.546 -0.0289  0.7789  0.1682
  638MOL0     O85996   6.033   8.343   0.485  0.5847  0.7567  0.0997
  638MOL0     C85997   5.942   8.377   0.411 -0.7218 -0.1361 -0.1499
  638MOL0     O85998   5.846   8.470   0.443  0.0847 -0.1301 -0.6002
  638MOL0     C85999   5.869   8.584   0.517 -0.4004 -0.1957 -0.0232
  638MOL0     C86000   5.769   8.675   0.509 -0.6632  0.2143 -0.2997
  638MOL0     C86001   5.767   8.796   0.573  0.2177 -0.1159 -0.2109
  638MOL0     C86002   5.886   8.838   0.632  0.5187 -1.5121  0.0548
  638MOL0     O86003   5.870   8.970   0.678 -0.4696  0.0478  0.8881
  638MOL0     C86004   5.945   9.005   0.798 -0.9188  0.5764 -0.6440
  638MOL0     C86005   5.880   9.132   0.841  0.5082  0.9996 -0.0310
  638MOL0     C86006   5.931   9.247   0.755 -0.2728 -0.4809 -0.3072
  638MOL0     C86007   5.876   9.384   0.806 -0.6217 -0.4894  0.3653
  638MOL0     C86008   5.951   9.508   0.768 -0.4015 -0.0956 -0.8125
  638MOL0     C86009   6.091   9.507   0.831  0.4394 -0.4435 -0.8223
  638MOL0     C86010   6.161   9.647   0.841  0.2246 -0.5562  0.2653
  638MOL0     C86011   6.110   9.708   0.969  0.7203  0.2108  0.7542
  638MOL0     N86012   6.185   9.836   1.016  0.1760  0.1055  0.0462
  638MOL0     C86013   6.186   9.961   0.944  0.0672 -0.1051 -0.0003
  638MOL0     C86014   6.254  10.041   1.039  0.2375  0.1176 -0.9036
  638MOL0     C86015   6.261  10.196   1.033  0.0664  0.7282  0.0071
  638MOL0     C86016   6.267  10.238   0.881 -0.0852 -1.3407  0.6779
  638MOL0     C86017   6.273  10.394   0.879 -0.3496  0.2958  0.4006
  638MOL0     C86018   6.282  10.446   0.737  0.4572 -0.4720 -0.3099
  638MOL0     O86019   6.148  10.450   0.692 -0.9295  0.6111  0.4393
  638MOL0     C86020   6.116  10.517   0.573 -0.4068 -0.2971 -0.5751
  638MOL0     C86021   5.977  10.533   0.551  0.2576 -0.7565  0.4202
  638MOL0     C86022   5.928  10.616   0.452  0.1537 -0.2080 -0.8623
  638MOL0     C86023   6.015  10.688   0.360 -0.3522  0.1719 -0.3442
  638MOL0     C86024   5.957  10.786   0.264 -0.7003  0.3646 -0.7330
  638MOL0     O86025   6.054  10.875   0.205  0.6185  0.7210  0.4342
  638MOL0     C86026   6.011  10.977   0.113  0.3873  0.3762 -0.0224
  638MOL0     C86027   5.887  10.997   0.051  0.1060  0.1777  0.2822
  638MOL0     C86028   5.869  11.096  -0.051 -0.5126 -0.3542 -0.1409
  638MOL0     C86029   5.978  11.175  -0.093  0.6989  0.3602 -0.0611
  638MOL0     O86030   5.973  11.264  -0.195 -0.3162 -0.5268 -0.0272
  638MOL0     C86031   5.851  11.286  -0.267 -0.8023 -0.7629  0.1265
  638MOL0     C86032   5.854  11.416  -0.345  0.4419 -0.2123 -0.4064
  638MOL0     C86033   5.955  11.401  -0.460  1.9672  0.0422 -0.0714
  638MOL0     C86034   5.978  11.530  -0.541  0.4845  0.5010 -0.1980
  638MOL0     C86035   5.962  11.504  -0.689 -0.8729 -0.0459 -0.4781
  638MOL0     C86036   5.939  11.632  -0.782  0.2572  0.7568  0.5762
  638MOL0     C86037   5.848  11.740  -0.731 -0.3397  0.1006 -0.2786
  638MOL0     C86038   5.704  11.704  -0.693  0.4797 -0.3790 -0.6794
  638MOL0    Cl86039   5.612  11.629  -0.815 -0.1485  0.2517 -0.2191
  638MOL0     C86040   6.100  11.167  -0.023 -0.4126 -0.1201 -0.6341
  638MOL0     C86041   6.114  11.066   0.078 -0.1707 -0.0313 -0.1591
  638MOL0     O86042   5.843  10.771   0.237  0.4212  0.3684  0.9662
  638MOL0     C86043   6.146  10.671   0.378 -0.3874  1.3472 -1.0682
  638MOL0     C86044   6.201  10.593   0.485  0.1049  0.1160  0.1498
  638MOL0     N86045   6.287   9.974   1.159 -0.2412 -0.1281  1.0299
  638MOL0     N86046   6.236   9.852   1.145 -0.5276  0.2023 -0.0319
  638MOL0     C86047   5.999   8.759   0.637  0.5584  0.4222 -0.0526
  638MOL0     C86048   5.989   8.626   0.582  0.0979 -0.3691 -0.4615
  638MOL0     C86049   5.940   8.313   0.273  0.2772  0.6100 -0.0998
  638MOL0     C86050   5.821   8.298   0.211  1.0197 -0.0496  0.3050
  638MOL0     C86051   5.803   8.238   0.092  1.4856 -0.5143 -0.4485
  638MOL0     C86052   5.918   8.187   0.038 -0.1449  0.0525  0.3694
  638MOL0     O86053   5.884   8.127  -0.081 -0.3892 -0.4191  0.2245
  638MOL0     C86054   5.995   8.059  -0.151 -0.8659 -0.2058  0.0283
  638MOL0     C86055   6.094   8.133  -0.228  0.3543 -1.1745 -0.5085
  638MOL0     C86056   6.225   8.054  -0.234  0.4475 -0.4985  0.4552
  638MOL0     C86057   6.340   8.150  -0.290  0.0455 -0.3779 -0.7216
  638MOL0     C86058   6.359   8.270  -0.202 -0.1023 -0.3402  0.0259
  638MOL0     C86059   6.385   8.375  -0.139 -0.8327 -0.9315 -0.6194
  638MOL0     C86060   6.048   8.203   0.103 -0.7935 -1.1415  0.0067
  638MOL0     C86061   6.061   8.266   0.219 -0.2950 -0.3923 -0.8288
  638MOL0     C86062   6.197   8.307   0.273  0.1665 -0.4833  0.2483
  638MOL0     H86063   5.679   8.649   0.455 -1.6658  2.0472  0.3932
  638MOL0     H86064   5.684   8.864   0.556  0.4697 -0.0631 -1.2889
  638MOL0     H86065   5.943   8.931   0.878  0.9403  0.0593 -1.0153
  638MOL0     H86066   6.049   9.026   0.771 -1.2796  1.0629 -1.7177
  638MOL0     H86067   5.903   9.154   0.946  3.2306 -0.7116 -0.1857
  638MOL0     H86068   5.771   9.117   0.839  0.7413 -1.0058  0.5069
  638MOL0     H86069   5.880   9.232   0.659 -2.0087 -0.3635  0.5605
  638MOL0     H86070   6.040   9.256   0.751 -0.4155  1.2349 -1.4925
  638MOL0     H86071   5.780   9.399   0.757 -1.1572  2.6745  2.1581
  638MOL0     H86072   5.855   9.387   0.913 -0.4991 -2.0285  0.4556
  638MOL0     H86073   5.974   9.524   0.663 -0.3436  2.0104 -0.5281
  638MOL0     H86074   5.897   9.595   0.806 -1.5648 -2.2477  3.1392
  638MOL0     H86075   6.085   9.471   0.934 -0.0435 -0.2281 -0.7743
  638MOL0     H86076   6.146   9.439   0.765  1.9139 -0.7288  0.6546
  638MOL0     H86077   6.131   9.693   0.746 -0.7945 -2.0813 -0.1780
  638MOL0     H86078   6.268   9.626   0.844  0.1392 -0.8402  2.4378
  638MOL0     H86079   6.004   9.730   0.955  0.7525 -0.3649 -0.6283
  638MOL0     H86080   6.116   9.639   1.053 -0.5764 -1.2838 -0.3231
  638MOL0     H86081   6.134   9.998   0.856  2.4730  0.5014 -1.2488
  638MOL0     H86082   6.169  10.242   1.072  0.5875  3.7568 -2.0040
  638MOL0     H86083   6.339  10.231   1.101 -2.3320 -1.6801  4.4887
  638MOL0     H86084   6.347  10.188   0.825 -1.1261 -0.1325 -2.1179
  638MOL0     H86085   6.177  10.219   0.822 -0.6618  1.3844  0.5450
  638MOL0     H86086   6.360  10.445   0.923 -0.7103  2.3521 -1.1100
  638MOL0     H86087   6.181  10.433   0.923 -0.0819 -1.2354  2.4420
  638MOL0     H86088   6.356  10.392   0.678  0.2067 -1.9784  0.7080
  638MOL0     H86089   6.310  10.551   0.748 -2.0115  0.1778  0.5963
  638MOL0     H86090   5.915  10.487   0.628  1.7192 -1.2989  1.3138
  638MOL0     H86091   5.821  10.633   0.455  0.1665 -0.3045  0.7471
  638MOL0     H86092   5.802  10.931   0.063  0.8512 -0.8702  0.0009
  638MOL0     H86093   5.774  11.096  -0.104 -1.2538 -2.5331  1.0493
  638MOL0     H86094   5.814  11.204  -0.328 -1.8924 -0.5602  0.4996
  638MOL0     H86095   5.779  11.308  -0.188 -2.0588  2.0559 -1.6378
  638MOL0     H86096   5.751  11.444  -0.369 -1.1741 -4.2874  0.9553
  638MOL0     H86097   5.896  11.490  -0.277 -1.2647 -0.7257  1.3018
  638MOL0     H86098   6.050  11.377  -0.412  1.4382 -2.2867 -0.0753
  638MOL0     H86099   5.933  11.315  -0.524  0.8471  1.3872 -1.5903
  638MOL0     H86100   6.080  11.567  -0.530  1.6042 -1.6676 -2.4749
  638MOL0     H86101   5.899  11.598  -0.507  0.2537 -1.1958  2.9920
  638MOL0     H86102   5.870  11.444  -0.690 -0.5129 -0.6039 -0.9227
  638MOL0     H86103   6.037  11.435  -0.730 -0.0358 -0.4415  1.5994
  638MOL0     H86104   6.036  11.677  -0.806  0.5110  0.3695  0.8729
  638MOL0     H86105   5.899  11.603  -0.880 -0.7579  3.6756  0.0262
  638MOL0     H86106   5.842  11.811  -0.813  1.1655 -0.7775 -1.1945
  638MOL0     H86107   5.892  11.782  -0.640 -0.9055  1.9631 -0.8143
  638MOL0     H86108   5.702  11.636  -0.607  3.1699 -0.8450 -0.8963
  638MOL0     H86109   5.639  11.790  -0.676  0.2741 -0.7031  0.2587
  638MOL0     H86110   6.189  11.221  -0.054  0.0385  0.7145  1.8855
  638MOL0     H86111   6.210  11.046   0.125 -0.8176  2.7549  2.6870
  638MOL0     H86112   6.217  10.718   0.310  3.2538  1.1273  2.1929
  638MOL0     H86113   6.307  10.575   0.479  0.3974  0.7607  2.3837
  638MOL0     H86114   6.099   8.796   0.654 -0.3742  1.6275  3.6591
  638MOL0     H86115   6.075   8.561   0.584 -0.4590 -1.1557 -1.4383
  638MOL0     H86116   5.732   8.330   0.264  2.5182 -1.7894  4.2396
  638MOL0     H86117   5.705   8.238   0.045  0.3493  1.2526  1.7466
  638MOL0     H86118   5.944   8.001  -0.229  1.8237 -1.8840 -0.5893
  638MOL0     H86119   6.047   7.999  -0.077  1.0490  1.2870 -0.0116
  638MOL0     H86120   6.120   8.225  -0.175  0.0114 -1.4842  0.2040
  638MOL0     H86121   6.051   8.168  -0.323 -2.8771  0.2630  1.2985
  638MOL0     H86122   6.218   7.970  -0.304 -0.2561  1.6026 -2.1576
  638MOL0     H86123   6.245   8.017  -0.133 -3.4912 -5.2401 -0.1465
  638MOL0     H86124   6.439   8.105  -0.296 -0.9095 -2.5487 -1.2258
  638MOL0     H86125   6.304   8.176  -0.390 -1.0208  2.0240  0.2011
  638MOL0     H86126   6.423   8.465  -0.095  1.5870 -1.4009 -1.5752
  638MOL0     H86127   6.132   8.167   0.045 -0.5876  0.3247 -0.6522
  638MOL0     H86128   6.277   8.319   0.199  0.7280  1.5127  1.1105
  638MOL0     H86129   6.192   8.405   0.322  2.1056  0.4895 -1.3367
  638MOL0     H86130   6.229   8.236   0.349  1.9145 -1.3708 -1.2286
  639MOL0     O86131   4.292   8.074   7.742 -0.1829 -0.2887 -0.6647
  639MOL0     C86132   4.274   7.959   7.720 -0.1652  0.8981 -0.2709
  639MOL0     O86133   4.353   7.856   7.774 -0.5822  0.4923 -0.3200
  639MOL0     C86134   4.449   7.884   7.868  1.3371 -0.2956  0.5517
  639MOL0     C86135   4.426   7.962   7.984 -0.2703  0.0567 -0.1592
  639MOL0     C86136   4.531   7.964   8.078  0.1972  0.9330  0.2901
  639MOL0     C86137   4.648   7.891   8.066 -0.1814 -0.6430  0.5548
  639MOL0     O86138   4.746   7.895   8.161 -0.5284 -0.4736  0.0512
  639MOL0     C86139   4.887   7.885   8.125 -0.1698  0.3324  0.2834
  639MOL0     C86140   4.990   7.906   8.245  0.1613 -0.4630  0.4457
  639MOL0     C86141   4.981   7.805   8.363 -0.8262 -0.0005 -0.7594
  639MOL0     C86142   5.106   7.807   8.455 -0.1648 -0.4869 -0.2444
  639MOL0     C86143   5.083   7.722   8.579  1.1975  0.2964  1.0784
  639MOL0     C86144   5.210   7.679   8.650 -0.0227  0.0700 -0.7654
  639MOL0     C86145   5.192   7.568   8.750  0.2060  0.7372 -0.3809
  639MOL0     C86146   5.135   7.606   8.888  0.3879 -0.5896 -0.9328
  639MOL0     N86147   5.145   7.506   8.999 -0.5916 -0.5130  0.1689
  639MOL0     C86148   5.049   7.416   9.033  0.9321  0.2689 -0.7182
  639MOL0     C86149   5.064   7.393   9.170 -0.2414 -1.1675 -0.0603
  639MOL0     C86150   4.977   7.310   9.261  0.1605  0.8530  0.7656
  639MOL0     C86151   5.057   7.186   9.304 -0.3752 -0.4733 -0.1190
  639MOL0     C86152   4.968   7.093   9.390 -1.1353  0.5134  0.2138
  639MOL0     C86153   5.034   6.961   9.419 -0.1671  0.6664  0.4097
  639MOL0     O86154   5.170   6.967   9.466 -0.7806  0.9581  0.0591
  639MOL0     C86155   5.196   6.989   9.601  0.4596  0.3576 -0.0591
  639MOL0     C86156   5.329   7.025   9.633 -0.0469  0.0874 -1.1755
  639MOL0     C86157   5.360   7.058   9.776 -0.1368 -0.8740  0.8704
  639MOL0     C86158   5.256   7.058   9.871 -0.4876 -0.2311 -0.0482
  639MOL0     C86159   5.282   7.090  10.011  0.1258  0.8284 -0.9171
  639MOL0     O86160   5.399   7.151  10.030 -0.1334 -0.3713  0.1647
  639MOL0     C86161   5.424   7.181  10.160 -0.1846 -0.0203  0.6128
  639MOL0     C86162   5.529   7.119  10.221 -0.1100 -0.6384 -0.1818
  639MOL0     C86163   5.551   7.142  10.362 -0.2316 -0.3753  0.6011
  639MOL0     C86164   5.495   7.253  10.426 -0.1489  0.2908  0.5473
  639MOL0     O86165   5.553   7.281  10.549 -0.7295  0.4740 -0.3559
  639MOL0     C86166   5.521   7.403  10.612 -0.4828 -0.3118 -0.0386
  639MOL0     C86167   5.396   7.400  10.689  0.8612 -0.8244  0.1884
  639MOL0     C86168   5.396   7.304  10.807 -0.7616  0.3141  0.3973
  639MOL0     C86169   5.330   7.168  10.787  0.7405 -0.5557 -0.0273
  639MOL0     C86170   5.176   7.179  10.807  0.3963  0.3205 -0.7563
  639MOL0     C86171   5.102   7.044  10.827 -0.3348 -0.1376  1.0351
  639MOL0     C86172   5.074   7.018  10.972 -0.3224 -0.0334  0.0212
  639MOL0     C86173   5.036   6.873  10.977 -0.0403 -0.5797 -0.3396
  639MOL0    Cl86174   4.880   6.862  10.897  0.0425  0.1344  0.0668
  639MOL0     C86175   5.403   7.327  10.353 -0.1681 -0.7301 -0.0522
  639MOL0     C86176   5.355   7.287  10.224 -0.8524 -0.2944  0.3250
  639MOL0     O86177   5.200   7.057  10.098  0.4146  0.2447  0.7098
  639MOL0     C86178   5.128   7.022   9.828  0.2478  0.6534  0.0607
  639MOL0     C86179   5.099   6.987   9.703 -0.5742  0.4213 -0.2195
  639MOL0     N86180   5.182   7.464   9.206 -0.6271  0.1060 -0.1634
  639MOL0     N86181   5.231   7.525   9.104 -0.1651 -1.0053 -0.2710
  639MOL0     C86182   4.675   7.838   7.940  0.3584 -0.7932 -0.2134
  639MOL0     C86183   4.575   7.832   7.840 -0.1817  0.0135  0.1683
  639MOL0     C86184   4.171   7.914   7.615 -0.2480  0.1723 -0.2254
  639MOL0     C86185   4.188   7.787   7.565 -0.8444  0.6353  0.6734
  639MOL0     C86186   4.106   7.745   7.458  0.4518  0.1393  0.1038
  639MOL0     C86187   4.009   7.824   7.410  1.1934 -0.1353  0.0994
  639MOL0     O86188   3.916   7.784   7.312  0.2742  0.4725  0.5049
  639MOL0     C86189   3.804   7.704   7.361 -0.3698  0.1631 -0.0786
  639MOL0     C86190   3.840   7.552   7.378  0.3175  0.0948 -0.1128
  639MOL0     C86191   3.860   7.486   7.236  0.4060  0.2870 -0.0061
  639MOL0     C86192   3.948   7.364   7.250  0.8783 -0.2057  0.2558
  639MOL0     C86193   3.885   7.238   7.206  0.5450  0.9578 -0.2541
  639MOL0     C86194   3.855   7.137   7.153  1.0351  0.1516 -0.2163
  639MOL0     C86195   3.998   7.951   7.459  0.2379  0.3576 -0.5804
  639MOL0     C86196   4.071   7.999   7.569 -0.1666  0.2108 -0.2032
  639MOL0     C86197   4.050   8.143   7.614  0.1860 -0.2417  0.6289
  639MOL0     H86198   4.339   8.026   7.999 -2.4894 -3.2639  2.8063
  639MOL0     H86199   4.520   8.030   8.163 -2.7085  1.5619 -0.4897
  639MOL0     H86200   4.917   7.788   8.084  1.6256  1.4320 -1.1349
  639MOL0     H86201   4.911   7.961   8.051  0.2755 -0.8967 -0.8777
  639MOL0     H86202   4.975   8.008   8.282 -0.3902  0.7978 -2.9400
  639MOL0     H86203   5.092   7.907   8.205 -0.7934 -0.9312 -2.2160
  639MOL0     H86204   4.992   7.701   8.330  4.2959  0.3880 -1.0866
  639MOL0     H86205   4.887   7.817   8.418  0.8407 -0.0551  2.3525
  639MOL0     H86206   5.185   7.753   8.402 -2.1505 -3.6583 -0.2021
  639MOL0     H86207   5.140   7.910   8.472  2.0487 -1.5381  2.3084
  639MOL0     H86208   5.020   7.782   8.647 -2.1720 -0.8071 -0.8366
  639MOL0     H86209   5.034   7.633   8.539  0.8487 -0.1493  2.4221
  639MOL0     H86210   5.273   7.642   8.568 -1.7686 -2.3871 -1.0918
  639MOL0     H86211   5.256   7.765   8.701 -2.2139  1.2268 -0.6244
  639MOL0     H86212   5.285   7.514   8.772  1.2444  2.4551 -0.3457
  639MOL0     H86213   5.128   7.489   8.710 -1.3891  0.0323  3.1170
  639MOL0     H86214   5.190   7.695   8.919  0.2695 -0.2321 -1.7411
  639MOL0     H86215   5.029   7.633   8.892  0.3087 -0.7469 -1.7906
  639MOL0     H86216   4.970   7.387   8.965  2.2755 -0.3483 -2.0570
  639MOL0     H86217   4.936   7.371   9.342  4.3376  3.4680  1.2620
  639MOL0     H86218   4.896   7.282   9.193  0.0904  2.2709  0.2170
  639MOL0     H86219   5.089   7.137   9.211 -2.5803  0.3980 -1.3980
  639MOL0     H86220   5.136   7.217   9.373  1.7985  0.0237 -2.6369
  639MOL0     H86221   4.876   7.080   9.333  0.0001 -0.1190 -1.5578
  639MOL0     H86222   4.951   7.141   9.487 -0.5773  0.3298  0.4079
  639MOL0     H86223   5.040   6.905   9.324  0.3431 -0.4240  1.0619
  639MOL0     H86224   4.973   6.903   9.488  1.9161 -2.7408 -0.3380
  639MOL0     H86225   5.412   7.010   9.564  1.7197  0.1399  0.8541
  639MOL0     H86226   5.458   7.083   9.814  1.2336 -3.1846 -0.8494
  639MOL0     H86227   5.580   7.029  10.189 -0.3571 -1.4431  1.5860
  639MOL0     H86228   5.632   7.089  10.410 -0.2394 -1.3637 -0.4293
  639MOL0     H86229   5.604   7.408  10.683 -1.1287 -2.9497  1.0251
  639MOL0     H86230   5.513   7.488  10.543 -3.8904 -2.8233 -3.1928
  639MOL0     H86231   5.374   7.494  10.741 -2.8092 -2.3794  1.7994
  639MOL0     H86232   5.308   7.392  10.624  0.9152  4.1032 -0.9331
  639MOL0     H86233   5.495   7.277  10.844 -1.9883 -2.0147  2.3303
  639MOL0     H86234   5.363   7.348  10.902 -1.0370  0.0701  0.4185
  639MOL0     H86235   5.372   7.100  10.862 -0.5095 -1.1645  0.1432
  639MOL0     H86236   5.362   7.125  10.691  1.3561 -0.0764 -0.0448
  639MOL0     H86237   5.149   7.225  10.711  4.8759  4.3796 -0.4175
  639MOL0     H86238   5.145   7.246  10.887  1.5779 -0.9976  0.8734
  639MOL0     H86239   5.012   7.035  10.767  0.6343 -2.9925 -0.1578
  639MOL0     H86240   5.175   6.969  10.793 -1.6372 -1.0507  0.1920
  639MOL0     H86241   4.992   7.079  11.010 -1.4743  1.1062 -3.8717
  639MOL0     H86242   5.163   7.043  11.031  1.2906 -1.1710 -1.8065
  639MOL0     H86243   5.112   6.804  10.940  1.0252 -0.9780  2.4067
  639MOL0     H86244   5.026   6.839  11.080 -0.7256 -0.0830 -0.2376
  639MOL0     H86245   5.366   7.421  10.393 -3.1357 -0.0530 -3.8813
  639MOL0     H86246   5.277   7.344  10.173 -1.3305 -1.7184 -0.6102
  639MOL0     H86247   5.047   7.020   9.900 -0.2954  0.9302 -0.5451
  639MOL0     H86248   4.999   6.945   9.689 -0.8754  0.6140  1.1849
  639MOL0     H86249   4.760   7.777   7.915  2.6971  2.0697  0.2194
  639MOL0     H86250   4.591   7.768   7.753  1.7457  3.5456 -2.3167
  639MOL0     H86251   4.259   7.710   7.595 -3.1796 -0.6423  3.4406
  639MOL0     H86252   4.119   7.647   7.413 -2.9971 -0.2483 -0.3400
  639MOL0     H86253   3.724   7.710   7.286  2.3069  2.1061 -3.0529
  639MOL0     H86254   3.764   7.745   7.454 -0.0212  0.2742  0.0262
  639MOL0     H86255   3.759   7.498   7.428  1.8521 -3.5671 -1.2650
  639MOL0     H86256   3.929   7.557   7.440 -0.4904 -2.1092  1.3283
  639MOL0     H86257   3.892   7.555   7.157  0.7022 -3.0469 -3.0466
  639MOL0     H86258   3.764   7.457   7.191  0.3758 -1.0652  0.8701
  639MOL0     H86259   4.050   7.379   7.212  1.3574 -2.4921  0.5090
  639MOL0     H86260   3.974   7.351   7.355  4.9066 -0.0414 -0.5407
  639MOL0     H86261   3.821   7.039   7.129 -0.6119  0.6814 -0.1385
  639MOL0     H86262   3.941   8.015   7.392 -0.2172 -0.3669 -0.8941
  639MOL0     H86263   3.975   8.188   7.549 -0.9922 -2.6449  0.1985
  639MOL0     H86264   4.032   8.156   7.721 -2.3634 -0.9795  0.3671
  639MOL0     H86265   4.141   8.195   7.583  0.8772 -2.2757 -0.9324
  640MOL0     O86266   8.261   1.378   6.256 -0.3934  0.7368 -0.6687
  640MOL0     C86267   8.302   1.269   6.301  0.4871 -0.4793  0.7037
  640MOL0     O86268   8.219   1.161   6.324 -0.5156 -0.4991  0.5328
  640MOL0     C86269   8.085   1.179   6.318 -0.3302  0.0595 -0.0969
  640MOL0     C86270   8.016   1.077   6.257  0.1764  0.4214  0.8830
  640MOL0     C86271   7.869   1.089   6.248 -1.1666 -0.5073 -0.3066
  640MOL0     C86272   7.798   1.193   6.308  0.9126  0.3339  0.2881
  640MOL0     O86273   7.665   1.210   6.306  1.0468 -0.4484 -0.0462
  640MOL0     C86274   7.569   1.149   6.221  0.3170  0.7172  0.5449
  640MOL0     C86275   7.470   1.246   6.168  0.3549  0.0455 -0.1568
  640MOL0     C86276   7.544   1.374   6.123 -0.5079 -0.0031 -0.1706
  640MOL0     C86277   7.640   1.362   6.000  0.7874 -1.0303 -0.1813
  640MOL0     C86278   7.723   1.480   5.971  0.5321 -0.2219  0.5279
  640MOL0     C86279   7.848   1.442   5.883 -0.1177 -1.1575  0.2396
  640MOL0     C86280   7.946   1.359   5.962 -0.9846 -0.1910  0.6521
  640MOL0     C86281   8.080   1.331   5.890 -0.9325  0.2189 -0.8026
  640MOL0     N86282   8.156   1.456   5.855  0.6587  0.6111 -0.1058
  640MOL0     C86283   8.235   1.523   5.934 -0.6704 -0.5547 -1.3226
  640MOL0     C86284   8.310   1.600   5.849 -0.0814 -0.0870 -0.1419
  640MOL0     C86285   8.415   1.706   5.877  0.1633  0.7894  0.1392
  640MOL0     C86286   8.449   1.724   6.025 -0.0909  0.2278  0.0085
  640MOL0     C86287   8.587   1.786   6.030 -0.1206  0.0974 -1.1141
  640MOL0     C86288   8.703   1.688   6.014 -0.3706 -0.3085  0.1002
  640MOL0     O86289   8.724   1.617   6.135 -0.2050  0.0975  0.4885
  640MOL0     C86290   8.837   1.541   6.150 -0.6942 -0.4269 -0.0628
  640MOL0     C86291   8.907   1.490   6.042 -0.0764  0.1079 -0.2073
  640MOL0     C86292   9.012   1.399   6.069  0.6831 -0.8102  0.3619
  640MOL0     C86293   9.054   1.352   6.193 -0.1702  0.1106 -0.3387
  640MOL0     C86294   9.162   1.262   6.208  1.2737 -0.1239 -0.7300
  640MOL0     O86295   9.237   1.251   6.104  0.4532 -0.5572 -0.4141
  640MOL0     C86296   9.333   1.149   6.097  0.2532 -0.0507 -0.5881
  640MOL0     C86297   9.472   1.174   6.124  0.1588  0.2911  0.4602
  640MOL0     C86298   9.562   1.075   6.120 -0.2407 -0.6770 -0.2919
  640MOL0     C86299   9.520   0.946   6.079  0.4959  1.3498 -0.2917
  640MOL0     O86300   9.597   0.840   6.071  0.2058 -0.5960  0.0582
  640MOL0     C86301   9.741   0.836   6.095  0.6610 -0.5195 -0.1885
  640MOL0     C86302   9.775   0.688   6.102  0.9835 -0.5580  0.3260
  640MOL0     C86303   9.707   0.618   6.233  0.5636  0.0536 -0.7185
  640MOL0     C86304   9.578   0.544   6.203  0.3906  0.5761 -0.2138
  640MOL0     C86305   9.497   0.533   6.321  0.4756  0.7494 -0.0763
  640MOL0     C86306   9.395   0.416   6.297  0.1465  0.5269  0.5020
  640MOL0     C86307   9.289   0.449   6.192  0.1950 -1.1031  1.1760
  640MOL0     C86308   9.213   0.577   6.220  0.2422 -0.4507  0.3815
  640MOL0    Cl86309   9.124   0.613   6.067  0.3149  0.3127 -0.4431
  640MOL0     C86310   9.386   0.920   6.047 -0.2030  0.6749 -0.0368
  640MOL0     C86311   9.293   1.025   6.057  0.1288  0.5664  1.3634
  640MOL0     O86312   9.190   1.215   6.319 -0.6948 -0.1790 -0.0659
  640MOL0     C86313   8.970   1.400   6.301 -0.2059  0.7228 -0.7026
  640MOL0     C86314   8.866   1.488   6.276  0.3267  0.1452  0.0926
  640MOL0     N86315   8.282   1.568   5.717  0.7244  0.1374  0.9754
  640MOL0     N86316   8.183   1.480   5.725 -0.2967  0.7671  0.3701
  640MOL0     C86317   7.877   1.287   6.371  1.1745 -0.2096 -0.2940
  640MOL0     C86318   8.013   1.285   6.378  0.6153  0.3659  0.7551
  640MOL0     C86319   8.438   1.246   6.311 -0.1325 -0.5449  0.4989
  640MOL0     C86320   8.519   1.268   6.200 -0.5209 -0.1279 -0.0125
  640MOL0     C86321   8.647   1.215   6.197  0.5429  0.2188  0.5424
  640MOL0     C86322   8.708   1.165   6.313  0.5417  0.3879 -0.6014
  640MOL0     O86323   8.836   1.124   6.319 -0.6499 -0.7876 -0.2246
  640MOL0     C86324   8.896   1.029   6.225 -0.5555 -0.9869 -1.1302
  640MOL0     C86325   8.837   0.894   6.248 -1.0509  0.5253 -0.3873
  640MOL0     C86326   8.858   0.844   6.400  0.5330 -0.0001 -0.0780
  640MOL0     C86327   8.781   0.722   6.441  0.0013  0.4789 -0.2578
  640MOL0     C86328   8.652   0.753   6.502  0.5819 -0.4778  0.2641
  640MOL0     C86329   8.538   0.763   6.551 -0.1578  0.0674  0.0215
  640MOL0     C86330   8.629   1.149   6.428 -0.4175  0.0248 -1.1915
  640MOL0     C86331   8.495   1.178   6.427  0.1120 -0.0566  0.2189
  640MOL0     C86332   8.405   1.121   6.538 -0.5734 -0.2511 -0.5973
  640MOL0     H86333   8.071   0.995   6.215  0.5922  0.6299  1.0135
  640MOL0     H86334   7.804   1.026   6.188 -2.0070  1.9102 -2.1068
  640MOL0     H86335   7.623   1.110   6.134 -0.8906  0.2191 -0.0091
  640MOL0     H86336   7.511   1.067   6.265 -1.4119  0.9354 -1.1870
  640MOL0     H86337   7.399   1.275   6.246  2.5086 -1.8597  2.7143
  640MOL0     H86338   7.417   1.203   6.083  0.5502 -2.3275  0.8300
  640MOL0     H86339   7.609   1.419   6.199  1.8613 -0.7803 -1.6478
  640MOL0     H86340   7.476   1.457   6.098 -0.2624 -0.0210 -0.9161
  640MOL0     H86341   7.697   1.271   6.020  2.0525 -0.6117 -1.6678
  640MOL0     H86342   7.576   1.345   5.913 -2.4011 -1.8963  2.1596
  640MOL0     H86343   7.666   1.556   5.917  0.8428 -1.5593 -1.8502
  640MOL0     H86344   7.756   1.526   6.064 -2.1950  1.1314  0.9082
  640MOL0     H86345   7.806   1.381   5.802 -3.0788  0.6410  0.2969
  640MOL0     H86346   7.897   1.532   5.846 -2.0646  0.3801  1.2269
  640MOL0     H86347   7.901   1.265   5.997 -2.4995  0.7017  1.2036
  640MOL0     H86348   7.964   1.422   6.050  1.1337  2.0473 -1.2424
  640MOL0     H86349   8.143   1.269   5.955 -0.0156  0.4742 -1.4304
  640MOL0     H86350   8.075   1.270   5.799  4.1254 -1.5459 -0.2188
  640MOL0     H86351   8.250   1.521   6.041  1.1311  2.3300 -1.4020
  640MOL0     H86352   8.504   1.668   5.825 -0.6632 -0.6453 -0.2974
  640MOL0     H86353   8.390   1.799   5.825  0.6637  1.6370  1.3744
  640MOL0     H86354   8.376   1.791   6.071 -0.1896  0.3439 -0.3118
  640MOL0     H86355   8.442   1.635   6.089 -0.5829 -1.6854 -2.5435
  640MOL0     H86356   8.586   1.822   6.134  0.7680  1.3238 -1.5120
  640MOL0     H86357   8.595   1.867   5.957 -0.1328  0.5822 -0.5828
  640MOL0     H86358   8.796   1.732   5.977  1.1434  1.2180  4.8989
  640MOL0     H86359   8.674   1.621   5.933  0.5226  0.7591 -1.1311
  640MOL0     H86360   8.885   1.507   5.937 -1.1753 -3.1780 -0.6388
  640MOL0     H86361   9.056   1.362   5.977 -4.1984 -0.3988 -2.4953
  640MOL0     H86362   9.500   1.266   6.174 -2.9808  1.0182  1.1382
  640MOL0     H86363   9.663   1.106   6.143 -0.2776 -1.1498  0.5608
  640MOL0     H86364   9.803   0.895   6.027 -1.5675  1.3435 -0.7140
  640MOL0     H86365   9.772   0.869   6.194  0.9239  1.5123 -0.8959
  640MOL0     H86366   9.758   0.639   6.005 -3.2078  0.1662  0.5008
  640MOL0     H86367   9.882   0.676   6.120  1.2412 -0.3196 -0.9252
  640MOL0     H86368   9.787   0.548   6.260 -0.5253 -0.8858  0.1718
  640MOL0     H86369   9.699   0.691   6.314 -2.6702 -0.6184 -0.3109
  640MOL0     H86370   9.606   0.443   6.174 -0.9198  1.1061 -3.9314
  640MOL0     H86371   9.526   0.589   6.117  0.1492  1.4584  0.3806
  640MOL0     H86372   9.446   0.628   6.334  0.1942  0.7664 -1.2110
  640MOL0     H86373   9.553   0.522   6.415 -0.2150  1.1108  0.3895
  640MOL0     H86374   9.441   0.324   6.262 -1.2548  0.9366 -2.8464
  640MOL0     H86375   9.346   0.396   6.393  0.9214 -0.6567  0.6647
  640MOL0     H86376   9.213   0.370   6.186  0.7185 -1.5088 -0.7939
  640MOL0     H86377   9.342   0.458   6.096  1.1370  0.8653  1.8294
  640MOL0     H86378   9.128   0.534   6.274 -0.4804 -3.4385 -2.7557
  640MOL0     H86379   9.260   0.668   6.257  3.8816 -3.3124  3.5410
  640MOL0     H86380   9.359   0.818   6.024  1.0950  0.0788  1.0113
  640MOL0     H86381   9.189   1.004   6.034  0.6510  0.7874 -1.6421
  640MOL0     H86382   8.989   1.357   6.399 -0.6019 -2.0147 -1.7107
  640MOL0     H86383   8.798   1.524   6.353  0.2293 -1.7391  0.9452
  640MOL0     H86384   7.831   1.372   6.420  1.4033 -0.0312 -0.3852
  640MOL0     H86385   8.057   1.371   6.427  1.4780 -0.8249  2.1992
  640MOL0     H86386   8.471   1.307   6.111 -0.9224 -0.5306  0.0244
  640MOL0     H86387   8.702   1.209   6.103 -3.0730 -1.3199 -1.6725
  640MOL0     H86388   9.003   1.018   6.248 -0.3140 -0.2435 -1.8275
  640MOL0     H86389   8.887   1.079   6.128  1.2667  2.2244  0.1830
  640MOL0     H86390   8.890   0.825   6.181 -2.2791 -1.8526  0.9546
  640MOL0     H86391   8.730   0.901   6.228 -0.8456  1.6483 -1.1398
  640MOL0     H86392   8.820   0.927   6.461 -0.1534  0.9498 -1.7077
  640MOL0     H86393   8.963   0.835   6.429  0.5193  0.4271  0.1210
  640MOL0     H86394   8.762   0.657   6.355 -1.4445 -1.1101  1.1980
  640MOL0     H86395   8.852   0.672   6.508  1.9829  1.0632 -1.8168
  640MOL0     H86396   8.442   0.788   6.591 -0.3612  0.5455 -0.7427
  640MOL0     H86397   8.675   1.094   6.510 -1.7284 -1.3032 -1.3111
  640MOL0     H86398   8.463   1.119   6.631 -3.5131 -0.5718  1.3665
  640MOL0     H86399   8.323   1.191   6.561  0.5796  1.0992 -0.4708
  640MOL0     H86400   8.363   1.022   6.515  0.6016 -0.9172  0.0355
  641MOL0     O86401   9.847   9.912   2.204  0.2851 -0.1205 -0.4130
  641MOL0     C86402   9.849   9.885   2.325 -0.7730  1.0702  0.3903
  641MOL0     O86403   9.844   9.971   2.425  0.6627  0.3144 -0.1185
  641MOL0     C86404   9.873  10.102   2.399  0.2587 -0.0181 -0.1619
  641MOL0     C86405  10.009  10.147   2.390  0.1314 -0.8709 -0.4062
  641MOL0     C86406  10.028  10.288   2.355 -0.3490 -0.0040  0.0506
  641MOL0     C86407   9.923  10.368   2.336  0.7697 -0.8052 -0.1976
  641MOL0     O86408   9.951  10.492   2.301 -0.9253  0.4281  0.5663
  641MOL0     C86409   9.915  10.578   2.405 -0.8320  0.1764 -0.9528
  641MOL0     C86410   9.999  10.714   2.381 -0.5948 -0.1909 -0.1767
  641MOL0     C86411   9.949  10.828   2.471  0.8302  0.7030 -0.6114
  641MOL0     C86412  10.004  10.961   2.434 -0.5052 -0.7168  0.5323
  641MOL0     C86413   9.974  11.068   2.539  0.0300 -0.0580 -0.2828
  641MOL0     C86414  10.017  11.211   2.512 -0.4693  0.3755  0.6490
  641MOL0     C86415   9.976  11.311   2.630  0.4762  0.4202 -0.8028
  641MOL0     C86416  10.015  11.454   2.625  0.7587  0.3735  0.1744
  641MOL0     N86417   9.932  11.529   2.535  0.4184  0.2780  0.5345
  641MOL0     C86418   9.953  11.538   2.399  1.0698 -0.3067  0.0199
  641MOL0     C86419   9.876  11.649   2.367 -0.1909  0.3000  0.2071
  641MOL0     C86420   9.868  11.718   2.240 -0.4109 -0.1658  0.8541
  641MOL0     C86421   9.730  11.726   2.166 -0.4932 -0.4583 -0.0991
  641MOL0     C86422   9.706  11.614   2.060 -0.0021  0.0588 -0.4017
  641MOL0     C86423   9.787  11.485   2.090 -0.2006  0.0420  1.7539
  641MOL0     O86424   9.738  11.385   2.000 -0.7477  0.0444  0.0131
  641MOL0     C86425   9.794  11.261   2.008 -0.5081 -1.3022  0.7122
  641MOL0     C86426   9.711  11.165   1.960 -0.6021 -1.5635 -0.7823
  641MOL0     C86427   9.758  11.034   1.946 -0.3766 -0.3552  0.6010
  641MOL0     C86428   9.893  10.998   1.981  0.3097 -0.3204  1.6184
  641MOL0     C86429   9.950  10.862   1.959  0.3980 -0.8168  0.5671
  641MOL0     O86430  10.085  10.844   1.978 -0.0166 -0.4439 -0.5101
  641MOL0     C86431  10.139  10.724   2.008 -0.0665 -0.2148  0.2699
  641MOL0     C86432  10.278  10.716   1.984  0.3793  0.3333  0.5912
  641MOL0     C86433  10.345  10.588   1.996 -0.3792  0.1831 -0.3887
  641MOL0     C86434  10.271  10.477   2.021 -0.2219 -0.0710 -1.5736
  641MOL0     O86435  10.348  10.356   2.025 -0.0130 -0.3359  0.3608
  641MOL0     C86436  10.301  10.228   1.982  0.4796 -0.5939 -0.8988
  641MOL0     C86437  10.431  10.140   1.955  0.7185 -0.3395  0.4475
  641MOL0     C86438  10.378  10.001   1.916  0.4913  0.9044  0.1399
  641MOL0     C86439  10.501   9.918   1.875 -0.5720  0.5871  0.4740
  641MOL0     C86440  10.487   9.762   1.871  0.4062 -1.1582  0.0694
  641MOL0     C86441  10.596   9.677   1.804 -0.0429 -0.5817 -0.6232
  641MOL0     C86442  10.585   9.528   1.821 -0.0679 -0.1436 -0.5540
  641MOL0     C86443  10.453   9.474   1.763 -1.1339 -0.5323  0.3343
  641MOL0    Cl86444  10.489   9.479   1.584 -0.3716 -0.0346 -0.0780
  641MOL0     C86445  10.140  10.484   2.056  0.0501  0.1623 -0.2505
  641MOL0     C86446  10.070  10.612   2.052  0.3407  0.1433  0.1787
  641MOL0     O86447   9.872  10.780   1.915  0.8390  0.6314 -0.3673
  641MOL0     C86448   9.961  11.095   2.051 -0.0588 -0.4384  0.3696
  641MOL0     C86449   9.916  11.223   2.064  0.0904 -0.7008  0.4286
  641MOL0     N86450   9.813  11.694   2.484 -0.6082 -0.5491 -0.5460
  641MOL0     N86451   9.848  11.624   2.583  0.2227 -0.8823 -0.1300
  641MOL0     C86452   9.797  10.329   2.357  1.0403  0.8859  0.4277
  641MOL0     C86453   9.774  10.199   2.400  0.6860  0.3034 -0.5252
  641MOL0     C86454   9.868   9.737   2.369 -0.6496  0.4064  0.2173
  641MOL0     C86455   9.929   9.703   2.496 -0.3074 -0.3694  0.2742
  641MOL0     C86456   9.932   9.580   2.532  0.3211  1.1682 -0.2737
  641MOL0     C86457   9.887   9.475   2.452 -0.7479  0.5790 -0.8659
  641MOL0     O86458   9.918   9.353   2.498  0.4304 -0.1212 -0.8801
  641MOL0     C86459   9.884   9.236   2.428 -0.1027  0.9678 -0.5307
  641MOL0     C86460   9.985   9.225   2.304  0.4982  0.1457  1.1539
  641MOL0     C86461  10.032   9.081   2.283  1.1518 -0.7878  0.6449
  641MOL0     C86462  10.125   9.057   2.154  0.2696 -0.5530 -0.1978
  641MOL0     C86463  10.235   9.153   2.153 -0.1488  0.3966 -0.2028
  641MOL0     C86464  10.324   9.235   2.159 -0.0337  0.6913  0.2123
  641MOL0     C86465   9.822   9.506   2.335 -0.7355  0.6293 -0.0527
  641MOL0     C86466   9.825   9.635   2.285  0.6455 -0.0489  0.6961
  641MOL0     C86467   9.758   9.652   2.147  0.1466  0.3935 -0.7902
  641MOL0     H86468  10.088  10.073   2.399  3.7926  2.7460  0.6878
  641MOL0     H86469  10.120  10.334   2.319  0.1739 -0.1333  1.1717
  641MOL0     H86470   9.807  10.588   2.418 -0.6170  1.8601 -0.1427
  641MOL0     H86471   9.954  10.539   2.500  0.4616 -1.1698 -1.9914
  641MOL0     H86472   9.984  10.747   2.278 -0.3988 -1.8134 -0.7458
  641MOL0     H86473  10.103  10.701   2.411 -1.0571  3.6524  4.3865
  641MOL0     H86474   9.975  10.815   2.577  2.3445  0.6441 -0.9626
  641MOL0     H86475   9.841  10.845   2.465  0.9365  3.3710  2.4416
  641MOL0     H86476  10.112  10.943   2.432 -0.5566 -1.3485 -2.7538
  641MOL0     H86477   9.995  10.996   2.331  3.1264  0.3729  0.4305
  641MOL0     H86478   9.865  11.065   2.553  0.3016 -2.0744  2.1083
  641MOL0     H86479  10.021  11.038   2.633  1.5167 -0.2380 -1.0563
  641MOL0     H86480  10.125  11.199   2.499 -0.5809  0.4505 -0.5006
  641MOL0     H86481   9.973  11.256   2.422  1.7135  0.7996 -0.2717
  641MOL0     H86482  10.018  11.276   2.725 -5.3103 -3.0501  0.9555
  641MOL0     H86483   9.868  11.311   2.647  0.4778 -0.9003 -0.7157
  641MOL0     H86484  10.013  11.492   2.728 -0.8531 -3.7449  1.8749
  641MOL0     H86485  10.113  11.471   2.578  0.5833 -0.8353 -0.6734
  641MOL0     H86486  10.012  11.466   2.343 -1.8201 -2.2123 -0.7815
  641MOL0     H86487   9.902  11.822   2.242 -0.8628 -0.0201  0.9893
  641MOL0     H86488   9.940  11.666   2.177 -0.7734  4.0247 -3.5406
  641MOL0     H86489   9.643  11.711   2.231  2.3071 -1.5443  3.8293
  641MOL0     H86490   9.706  11.826   2.128 -1.5660  0.1181  1.9053
  641MOL0     H86491   9.723  11.639   1.955 -4.6985 -1.3392 -1.7650
  641MOL0     H86492   9.602  11.580   2.066  1.1132 -3.5412  3.1337
  641MOL0     H86493   9.774  11.443   2.190  0.2623 -0.2675  1.6843
  641MOL0     H86494   9.893  11.500   2.073 -0.1250  0.1074  2.2815
  641MOL0     H86495   9.618  11.200   1.917  0.0559 -0.8684 -1.6821
  641MOL0     H86496   9.696  10.958   1.899  0.2908 -0.7090  0.2865
  641MOL0     H86497  10.320  10.809   1.946  1.0262 -0.4610 -0.7056
  641MOL0     H86498  10.450  10.575   1.972 -0.0442 -1.8384  1.7650
  641MOL0     H86499  10.233  10.182   2.054  0.9242 -0.8691 -0.6465
  641MOL0     H86500  10.244  10.233   1.889 -0.6581  0.0194 -0.1858
  641MOL0     H86501  10.477  10.193   1.872  0.0827 -0.9717 -0.3209
  641MOL0     H86502  10.493  10.156   2.044  0.9132  4.5862 -0.3482
  641MOL0     H86503  10.330   9.958   2.006  1.1906  1.3529  0.7333
  641MOL0     H86504  10.301  10.010   1.839 -2.1425  0.2983  2.5047
  641MOL0     H86505  10.578   9.944   1.949  1.0848 -2.2591 -0.0810
  641MOL0     H86506  10.538   9.957   1.780  1.5601 -1.7915  0.2302
  641MOL0     H86507  10.389   9.759   1.824  0.7714  0.9928 -0.9157
  641MOL0     H86508  10.476   9.723   1.973 -1.9174 -1.2884 -0.1792
  641MOL0     H86509  10.616   9.708   1.701  1.6638  1.0212  0.1348
  641MOL0     H86510  10.688   9.710   1.853 -0.4296 -1.4534  0.7371
  641MOL0     H86511  10.592   9.505   1.927  2.0571  3.0350  0.1406
  641MOL0     H86512  10.673   9.477   1.779  2.2863  1.4613  2.1008
  641MOL0     H86513  10.438   9.373   1.802  3.3119 -0.4578  2.9687
  641MOL0     H86514  10.369   9.538   1.795 -0.3980  0.2713  0.7012
  641MOL0     H86515  10.082  10.394   2.074  0.3792 -0.1537 -0.7412
  641MOL0     H86516   9.965  10.631   2.073  0.5624 -0.3678  1.8868
  641MOL0     H86517  10.053  11.068   2.102 -0.8924 -0.1076  2.1115
  641MOL0     H86518   9.984  11.292   2.113  0.8886 -1.0189 -0.1963
  641MOL0     H86519   9.714  10.396   2.339  1.0698  1.8033  3.2004
  641MOL0     H86520   9.669  10.172   2.413  0.3161  2.1824  0.9626
  641MOL0     H86521   9.968   9.780   2.561  0.5640 -0.3628 -0.2301
  641MOL0     H86522   9.972   9.554   2.630 -0.7274  3.2035  0.7661
  641MOL0     H86523   9.779   9.226   2.397 -0.1287 -0.0250 -0.1238
  641MOL0     H86524   9.905   9.167   2.509 -1.0636 -0.4232 -1.4225
  641MOL0     H86525  10.071   9.291   2.320 -1.2048  2.9261 -0.2229
  641MOL0     H86526   9.937   9.260   2.211  1.3693 -2.8229 -0.5439
  641MOL0     H86527   9.937   9.032   2.261  0.0221  1.1968  0.8119
  641MOL0     H86528  10.076   9.041   2.375 -0.7304  0.7810  2.3156
  641MOL0     H86529  10.153   8.953   2.172 -0.4226 -0.5882  0.7466
  641MOL0     H86530  10.061   9.067   2.066 -2.3290 -3.7045  1.1414
  641MOL0     H86531  10.410   9.297   2.174 -0.0101  1.2538 -1.9192
  641MOL0     H86532   9.769   9.423   2.290 -0.6551  0.3230  0.4142
  641MOL0     H86533   9.665   9.708   2.161  0.4230  0.4493  1.0109
  641MOL0     H86534   9.822   9.696   2.070 -2.1087 -0.0500 -3.0312
  641MOL0     H86535   9.743   9.550   2.110 -0.9293 -0.5380  1.9823
  642MOL0     O86536   9.025   5.064   2.892  0.4191  0.1871  0.9181
  642MOL0     C86537   9.141   5.059   2.859  0.0474  0.9053 -0.1990
  642MOL0     O86538   9.171   5.015   2.735 -0.5511  0.8958  0.4063
  642MOL0     C86539   9.094   4.952   2.642  0.1293 -0.1813 -0.4271
  642MOL0     C86540   9.002   4.848   2.672 -0.1056 -1.1206  0.3904
  642MOL0     C86541   8.930   4.771   2.586 -0.4212 -0.6176 -0.1179
  642MOL0     C86542   8.950   4.791   2.446  0.3035  0.1000 -0.0829
  642MOL0     O86543   8.874   4.723   2.348 -0.0252  0.7060  0.0830
  642MOL0     C86544   8.737   4.706   2.377 -0.0235  0.5634 -1.0805
  642MOL0     C86545   8.663   4.629   2.268  0.0542 -0.1349 -0.6986
  642MOL0     C86546   8.516   4.664   2.276  0.0920  0.5120  0.1023
  642MOL0     C86547   8.438   4.563   2.181 -0.1876  0.6803 -0.4531
  642MOL0     C86548   8.296   4.611   2.166 -0.2115  1.0852 -0.0066
  642MOL0     C86549   8.229   4.547   2.038 -0.0400 -0.4016  0.3295
  642MOL0     C86550   8.080   4.589   2.035 -0.0972 -0.4381  0.2562
  642MOL0     C86551   8.049   4.724   1.990  0.7406 -1.1613 -0.9857
  642MOL0     N86552   7.909   4.728   1.940 -0.2806 -0.2015 -0.1370
  642MOL0     C86553   7.873   4.763   1.813  0.6453 -1.2099  0.2277
  642MOL0     C86554   7.741   4.748   1.805  0.4341  0.4242 -0.6685
  642MOL0     C86555   7.668   4.786   1.672 -0.0321 -0.2288  0.5251
  642MOL0     C86556   7.511   4.804   1.699 -0.1713 -0.2624 -0.9352
  642MOL0     C86557   7.443   4.883   1.588 -0.0640  0.2987  0.1185
  642MOL0     C86558   7.293   4.891   1.623 -0.6268  0.3762  1.1000
  642MOL0     O86559   7.230   4.758   1.628 -0.1677 -0.1199  0.4729
  642MOL0     C86560   7.091   4.763   1.675 -0.8072  0.5733 -0.2025
  642MOL0     C86561   7.015   4.869   1.707  0.2234  0.7620  0.4747
  642MOL0     C86562   6.883   4.856   1.756  0.1845  0.3302  0.4917
  642MOL0     C86563   6.824   4.731   1.770 -0.5371 -0.4269  0.1639
  642MOL0     C86564   6.688   4.719   1.794 -0.8903  0.0532  0.5379
  642MOL0     O86565   6.591   4.816   1.762 -0.2068 -0.2234  0.7504
  642MOL0     C86566   6.459   4.768   1.747 -0.7314  0.0430 -0.3330
  642MOL0     C86567   6.369   4.790   1.843  0.9880  0.5720 -0.1789
  642MOL0     C86568   6.227   4.766   1.832  0.2677  0.2081 -0.4227
  642MOL0     C86569   6.172   4.714   1.718 -0.7070  0.1133 -0.4269
  642MOL0     O86570   6.040   4.692   1.699  0.0633 -0.8067 -0.8295
  642MOL0     C86571   5.957   4.678   1.809  1.1816 -0.3862  0.2382
  642MOL0     C86572   5.818   4.653   1.757 -0.5172 -0.8164  0.2945
  642MOL0     C86573   5.724   4.631   1.873  0.3241 -1.1418 -0.2402
  642MOL0     C86574   5.587   4.569   1.831 -0.9434  0.6437 -0.1810
  642MOL0     C86575   5.509   4.516   1.958 -0.1480 -0.1035 -0.2615
  642MOL0     C86576   5.381   4.422   1.924  0.5611 -0.1981  0.7574
  642MOL0     C86577   5.276   4.487   1.844  0.4704  0.4110 -0.3928
  642MOL0     C86578   5.232   4.628   1.886 -0.5577 -0.0825 -0.2046
  642MOL0    Cl86579   5.140   4.632   2.042  0.0656  0.0546  0.3292
  642MOL0     C86580   6.263   4.699   1.608 -0.7532  0.0639  0.2332
  642MOL0     C86581   6.409   4.721   1.625 -0.2087  0.3570  0.4599
  642MOL0     O86582   6.658   4.608   1.844 -1.4095  0.8305 -0.2871
  642MOL0     C86583   6.907   4.622   1.749 -0.3331  0.7624 -0.0202
  642MOL0     C86584   7.035   4.634   1.701  0.4221 -0.2970 -0.4590
  642MOL0     N86585   7.689   4.702   1.920 -0.1030 -0.3962 -0.7283
  642MOL0     N86586   7.789   4.692   2.005  0.0415 -0.2815  0.1660
  642MOL0     C86587   9.051   4.886   2.414 -0.1164  0.4373  0.1687
  642MOL0     C86588   9.121   4.958   2.510 -0.3189 -0.7336  0.8456
  642MOL0     C86589   9.242   5.133   2.925 -0.2116 -1.4199  0.3133
  642MOL0     C86590   9.374   5.143   2.881  0.2056 -0.0796  0.1242
  642MOL0     C86591   9.478   5.204   2.942 -0.4169  0.1105  0.5868
  642MOL0     C86592   9.457   5.284   3.057  0.6527  0.4735 -0.1815
  642MOL0     O86593   9.550   5.369   3.113 -0.6970 -0.1295  0.3268
  642MOL0     C86594   9.666   5.297   3.166  0.1143 -0.2270  0.6756
  642MOL0     C86595   9.780   5.384   3.207 -0.5118  0.4006 -0.4793
  642MOL0     C86596   9.877   5.409   3.095 -0.0970 -0.4493 -1.3475
  642MOL0     C86597  10.008   5.458   3.155 -0.9308 -0.1025  0.0410
  642MOL0     C86598  10.089   5.499   3.043 -0.5102 -0.3792  0.5116
  642MOL0     C86599  10.158   5.532   2.948  0.3036 -0.1427 -0.9858
  642MOL0     C86600   9.330   5.259   3.118  0.1438  0.2821  0.4451
  642MOL0     C86601   9.227   5.201   3.046  0.3410 -0.5426  0.8530
  642MOL0     C86602   9.096   5.223   3.107  1.1808  0.3747 -0.8813
  642MOL0     H86603   9.005   4.825   2.778  1.2697  2.1639  1.2127
  642MOL0     H86604   8.864   4.701   2.636 -0.7949  0.4733  0.9732
  642MOL0     H86605   8.716   4.661   2.475 -0.5740 -0.9886 -1.8815
  642MOL0     H86606   8.690   4.804   2.378 -7.0761 -2.2109 -0.5028
  642MOL0     H86607   8.668   4.521   2.282 -2.1478 -0.0488  1.5404
  642MOL0     H86608   8.695   4.669   2.172 -2.6131  0.9937 -1.2250
  642MOL0     H86609   8.511   4.767   2.241  1.5904  1.5150  2.5652
  642MOL0     H86610   8.487   4.659   2.381 -4.1269  0.9486 -0.8781
  642MOL0     H86611   8.487   4.547   2.084 -0.0675 -3.1413  0.1019
  642MOL0     H86612   8.426   4.462   2.220 -0.5855  0.4414 -1.1702
  642MOL0     H86613   8.249   4.588   2.262  3.0402 -1.2654  1.1835
  642MOL0     H86614   8.288   4.720   2.153 -2.3484  0.9628 -0.1541
  642MOL0     H86615   8.281   4.584   1.949  1.2985  2.9276  2.3028
  642MOL0     H86616   8.227   4.438   2.047  3.1245 -0.3888  6.2426
  642MOL0     H86617   8.033   4.569   2.131 -2.5750 -1.4329 -1.0556
  642MOL0     H86618   8.035   4.514   1.969 -2.5458  1.7438 -0.7242
  642MOL0     H86619   8.047   4.799   2.069 -2.9401  1.4018 -3.1707
  642MOL0     H86620   8.110   4.762   1.908  0.5140  0.0728 -0.5946
  642MOL0     H86621   7.924   4.810   1.730 -2.2203 -0.8310 -1.4400
  642MOL0     H86622   7.709   4.882   1.640  1.0193 -0.7041  0.4269
  642MOL0     H86623   7.674   4.702   1.602 -1.1592  0.9321 -1.0695
  642MOL0     H86624   7.476   4.700   1.696  1.2368 -0.8459  1.0495
  642MOL0     H86625   7.487   4.854   1.793 -2.0066  0.3688 -1.6821
  642MOL0     H86626   7.462   4.833   1.493  1.3866 -1.3994  1.2508
  642MOL0     H86627   7.480   4.986   1.596 -0.1776  0.2180  1.9056
  642MOL0     H86628   7.233   4.940   1.546 -2.7502 -1.4732  1.4869
  642MOL0     H86629   7.280   4.949   1.715  1.3692 -1.3112  2.5633
  642MOL0     H86630   7.058   4.965   1.682 -0.0862  0.3520 -1.8891
  642MOL0     H86631   6.826   4.948   1.764  0.6093  0.6102  0.3139
  642MOL0     H86632   6.407   4.821   1.940 -2.3639 -0.9896  1.8022
  642MOL0     H86633   6.168   4.770   1.923  0.2851  0.3703 -0.4169
  642MOL0     H86634   5.986   4.592   1.870 -0.6040 -0.7879  0.6016
  642MOL0     H86635   5.962   4.770   1.868  1.2839 -1.1708  1.4854
  642MOL0     H86636   5.781   4.738   1.698 -0.6763  0.8193  2.6412
  642MOL0     H86637   5.824   4.564   1.694 -1.6085  1.4901 -3.4343
  642MOL0     H86638   5.778   4.557   1.933  1.8356 -1.0744 -1.4803
  642MOL0     H86639   5.704   4.724   1.927  0.0931 -0.2429 -1.8244
  642MOL0     H86640   5.591   4.492   1.753 -1.4504  0.6961 -0.2594
  642MOL0     H86641   5.533   4.654   1.788 -3.3812 -1.3237 -1.3075
  642MOL0     H86642   5.479   4.593   2.030 -2.7238  0.1184 -1.4754
  642MOL0     H86643   5.580   4.445   2.002 -3.0408 -4.7434 -2.4310
  642MOL0     H86644   5.412   4.333   1.870  1.0050  0.3070  0.1630
  642MOL0     H86645   5.335   4.397   2.020  2.3558  3.7398  2.9233
  642MOL0     H86646   5.187   4.425   1.851 -0.8931  2.4723  2.0342
  642MOL0     H86647   5.320   4.499   1.744  2.3824  2.7740  0.6185
  642MOL0     H86648   5.323   4.688   1.899  0.7858 -1.9602 -0.6843
  642MOL0     H86649   5.172   4.676   1.807  0.9668  0.9436 -0.7859
  642MOL0     H86650   6.224   4.660   1.514  0.7257 -2.3757  0.5495
  642MOL0     H86651   6.479   4.719   1.542  2.1276 -1.3394  2.2865
  642MOL0     H86652   6.871   4.520   1.759  1.6560 -0.2967 -2.6015
  642MOL0     H86653   7.083   4.544   1.665 -1.0240 -1.4673  0.4471
  642MOL0     H86654   9.065   4.901   2.307 -1.8584 -0.6591 -0.2622
  642MOL0     H86655   9.204   5.021   2.481  2.2325 -3.9542  0.7009
  642MOL0     H86656   9.394   5.097   2.784  0.8624  0.4798 -0.0138
  642MOL0     H86657   9.578   5.193   2.900 -2.1168 -0.3043 -3.9288
  642MOL0     H86658   9.683   5.221   3.090 -0.4590  0.1574  0.1567
  642MOL0     H86659   9.634   5.243   3.256 -2.2590 -1.3934 -0.7659
  642MOL0     H86660   9.835   5.341   3.292 -0.4261  3.3141  1.0863
  642MOL0     H86661   9.745   5.482   3.239 -0.4486  1.6809 -3.8971
  642MOL0     H86662   9.827   5.483   3.032 -3.3152  0.1537  1.6453
  642MOL0     H86663   9.899   5.318   3.037  2.4415 -1.4761  1.0116
  642MOL0     H86664  10.013   5.544   3.223  2.1224  0.2378 -0.4556
  642MOL0     H86665  10.058   5.371   3.199  2.0201  0.9045 -1.0888
  642MOL0     H86666  10.215   5.549   2.859 -1.7031 -1.8570 -2.7083
  642MOL0     H86667   9.303   5.321   3.203  2.5524  1.0677  0.7175
  642MOL0     H86668   9.023   5.266   3.038 -0.8280  0.1852  1.0172
  642MOL0     H86669   9.056   5.127   3.143  0.7745 -0.3754 -3.1355
  642MOL0     H86670   9.097   5.294   3.190 -3.0287  0.2647 -0.5096
  643MOL0     O86671   5.623   6.798   9.979 -0.1392 -0.4252 -0.1547
  643MOL0     C86672   5.513   6.756   9.945 -0.1748  0.4475 -0.0836
  643MOL0     O86673   5.416   6.726  10.032  0.0411 -1.1023  0.0915
  643MOL0     C86674   5.444   6.729  10.172  0.2885 -0.1756  0.6292
  643MOL0     C86675   5.351   6.797  10.255 -0.1717 -0.0513 -0.2521
  643MOL0     C86676   5.379   6.821  10.391 -0.6290 -0.2389 -0.0372
  643MOL0     C86677   5.498   6.773  10.446 -0.4855  0.3266 -0.1383
  643MOL0     O86678   5.529   6.816  10.574  0.7249  0.4310  0.3065
  643MOL0     C86679   5.660   6.791  10.628 -0.6094 -0.1777 -0.7355
  643MOL0     C86680   5.686   6.879  10.746  0.7595  0.1506  0.3862
  643MOL0     C86681   5.750   6.813  10.871 -0.0177  0.3222  0.2833
  643MOL0     C86682   5.897   6.796  10.849  0.1846 -0.9574 -0.9074
  643MOL0     C86683   5.965   6.716  10.968  0.2325 -0.4329  0.3221
  643MOL0     C86684   6.118   6.714  10.963 -0.2972  0.0326  0.3191
  643MOL0     C86685   6.178   6.595  11.040 -0.0798 -0.8106 -0.7445
  643MOL0     C86686   6.140   6.449  10.983  0.6433  0.0625  1.3344
  643MOL0     N86687   6.143   6.455  10.840 -0.7657 -0.8457 -0.0441
  643MOL0     C86688   6.034   6.480  10.766 -0.1341 -0.2652  0.9467
  643MOL0     C86689   6.085   6.493  10.635  0.3356 -0.4806 -0.8069
  643MOL0     C86690   6.005   6.535  10.519  0.7300  0.1653 -0.2937
  643MOL0     C86691   6.041   6.442  10.400 -0.3683 -0.2003 -0.7940
  643MOL0     C86692   5.951   6.483  10.275 -0.3947  0.5522 -0.0853
  643MOL0     C86693   6.004   6.435  10.141 -0.3867 -0.1528 -2.0536
  643MOL0     O86694   6.060   6.302  10.147  0.1086 -1.0264  0.3911
  643MOL0     C86695   6.057   6.239  10.027  0.0554 -0.2143 -0.2700
  643MOL0     C86696   6.141   6.280   9.928 -0.4671 -0.3989 -0.6124
  643MOL0     C86697   6.159   6.197   9.815  0.6918 -0.0409  0.2357
  643MOL0     C86698   6.111   6.061   9.823  0.6096 -0.1581  0.1946
  643MOL0     C86699   6.130   5.956   9.714 -0.2766  0.4364  0.2831
  643MOL0     O86700   6.113   5.824   9.740  0.4624  0.2983  0.0005
  643MOL0     C86701   6.118   5.741   9.633  0.4209  0.0930 -0.0604
  643MOL0     C86702   6.237   5.700   9.561 -0.3210 -0.7553 -0.5444
  643MOL0     C86703   6.233   5.608   9.449  1.3343 -0.0490 -0.1975
  643MOL0     C86704   6.113   5.571   9.396  0.3283 -0.1823 -0.1450
  643MOL0     O86705   6.113   5.490   9.282  0.0615  0.0778 -0.8924
  643MOL0     C86706   5.992   5.493   9.213  0.6042  0.0040  0.4819
  643MOL0     C86707   6.017   5.443   9.065 -0.8435  0.0840  1.0018
  643MOL0     C86708   6.074   5.299   9.065  0.4184 -0.8868 -0.5490
  643MOL0     C86709   6.169   5.275   8.946  0.6896 -0.2494  0.7058
  643MOL0     C86710   6.216   5.136   8.939 -0.6743 -0.0691 -0.0987
  643MOL0     C86711   6.301   5.103   8.816  0.0927 -0.3231 -0.5780
  643MOL0     C86712   6.352   4.963   8.806 -0.1493  0.5669 -0.0713
  643MOL0     C86713   6.475   4.937   8.895  0.4408 -0.0734  0.4845
  643MOL0    Cl86714   6.431   4.896   9.070  0.2442  0.0327  0.0705
  643MOL0     C86715   5.996   5.621   9.460  0.8006  0.7114 -0.1528
  643MOL0     C86716   5.996   5.701   9.576  0.7547 -0.0474 -0.3197
  643MOL0     O86717   6.162   6.004   9.603 -0.7379  0.1195 -0.0531
  643MOL0     C86718   6.037   6.014   9.936 -0.2000  0.4487  0.2538
  643MOL0     C86719   5.997   6.103  10.032 -0.8815 -0.0843 -0.7396
  643MOL0     N86720   6.217   6.470  10.636 -0.2431  0.2653  0.3882
  643MOL0     N86721   6.254   6.437  10.761 -0.3304 -0.1732  0.0338
  643MOL0     C86722   5.577   6.687  10.367 -0.5446 -0.3448 -0.5759
  643MOL0     C86723   5.553   6.670  10.236 -0.6661 -1.2452 -0.4781
  643MOL0     C86724   5.472   6.728   9.803  0.3371 -0.1026  0.3524
  643MOL0     C86725   5.336   6.724   9.770  0.0688  1.1078 -0.4801
  643MOL0     C86726   5.291   6.679   9.647  0.1535  0.4422  0.4499
  643MOL0     C86727   5.374   6.649   9.540 -0.0817  0.9069  0.6769
  643MOL0     O86728   5.329   6.603   9.414  0.0365  0.0004 -0.3275
  643MOL0     C86729   5.358   6.695   9.313 -0.0686  0.2045 -0.1935
  643MOL0     C86730   5.307   6.632   9.176  0.7291 -0.2619 -0.2745
  643MOL0     C86731   5.316   6.738   9.060 -0.0432 -0.1683  0.2901
  643MOL0     C86732   5.277   6.667   8.930  1.1895  0.2052 -0.0479
  643MOL0     C86733   5.290   6.776   8.831 -0.3740  1.3190 -0.4778
  643MOL0     C86734   5.295   6.861   8.745  0.6229  0.5503 -0.0962
  643MOL0     C86735   5.509   6.667   9.567  0.4785  1.2688  0.6085
  643MOL0     C86736   5.560   6.695   9.694  0.2638  0.3166 -0.2817
  643MOL0     C86737   5.709   6.704   9.711 -0.8244 -0.4401 -0.6043
  643MOL0     H86738   5.261   6.839  10.212 -1.1444  0.9556  2.5231
  643MOL0     H86739   5.303   6.875  10.447 -1.8194  0.3831 -2.1210
  643MOL0     H86740   5.664   6.689  10.669  3.3681  1.2527  3.3382
  643MOL0     H86741   5.745   6.809  10.561  0.3732  3.2206  1.1581
  643MOL0     H86742   5.591   6.925  10.775  1.5284  2.7037 -0.9098
  643MOL0     H86743   5.748   6.957  10.702  0.1922  0.5320  0.2489
  643MOL0     H86744   5.710   6.713  10.893  1.0556 -0.7235 -2.1501
  643MOL0     H86745   5.728   6.868  10.962 -0.6154 -2.2452  1.8016
  643MOL0     H86746   5.922   6.756  10.751  4.2440  1.7564 -1.2277
  643MOL0     H86747   5.938   6.897  10.842 -1.7057 -0.1536 -0.7734
  643MOL0     H86748   5.929   6.754  11.064  1.8556  0.9331  0.4367
  643MOL0     H86749   5.925   6.615  10.964 -0.0230 -0.3609  0.8872
  643MOL0     H86750   6.145   6.711  10.858  0.8087 -0.1651  0.5974
  643MOL0     H86751   6.159   6.807  11.004  2.2453 -1.7017  2.0026
  643MOL0     H86752   6.147   6.602  11.145 -0.7980 -2.8390 -0.7751
  643MOL0     H86753   6.287   6.595  11.046 -0.1365 -0.7874  0.7043
  643MOL0     H86754   6.210   6.371  11.015 -0.2518 -0.7158  1.4417
  643MOL0     H86755   6.045   6.421  11.028  1.0818 -1.0393  1.6095
  643MOL0     H86756   5.930   6.490  10.797  0.1753 -1.3622  2.4315
  643MOL0     H86757   5.899   6.545  10.545  0.9245  0.8317  0.2847
  643MOL0     H86758   6.038   6.635  10.490  0.0563  0.3442 -0.4635
  643MOL0     H86759   6.146   6.465  10.378 -0.6238  2.0153  0.0531
  643MOL0     H86760   6.038   6.336  10.430  1.2113  0.3634  1.7305
  643MOL0     H86761   5.932   6.591  10.276 -1.5156  0.3972  1.9521
  643MOL0     H86762   5.859   6.424  10.284  0.7036 -1.2704 -0.3255
  643MOL0     H86763   6.086   6.499  10.105 -1.0422  2.6475  0.9656
  643MOL0     H86764   5.919   6.448  10.074 -1.8425 -1.3099 -0.5186
  643MOL0     H86765   6.193   6.376   9.928  1.1156 -1.0906  2.8429
  643MOL0     H86766   6.217   6.222   9.727  1.3889  0.2814  0.7705
  643MOL0     H86767   6.339   5.710   9.596 -0.2525 -1.5360 -0.5058
  643MOL0     H86768   6.324   5.565   9.408  2.0485 -0.3410  1.6002
  643MOL0     H86769   5.918   5.424   9.254 -1.2042 -0.3181 -2.9312
  643MOL0     H86770   5.949   5.593   9.211  2.6405  0.9582  1.6597
  643MOL0     H86771   5.918   5.434   9.018  0.7782  0.1386 -2.8202
  643MOL0     H86772   6.080   5.515   9.011  0.6260 -1.2251  0.9126
  643MOL0     H86773   6.122   5.278   9.161 -2.0749  1.3480  1.3227
  643MOL0     H86774   5.986   5.234   9.073 -0.8353  0.9469  1.4269
  643MOL0     H86775   6.253   5.345   8.951  0.6781 -0.1595 -0.1780
  643MOL0     H86776   6.104   5.290   8.859  0.6725 -2.8573  0.1782
  643MOL0     H86777   6.127   5.072   8.940 -0.9972  0.3678  0.2521
  643MOL0     H86778   6.277   5.101   9.023  2.5985  0.3179 -2.1610
  643MOL0     H86779   6.260   5.135   8.720  1.1410 -0.9205 -1.2494
  643MOL0     H86780   6.386   5.170   8.833 -0.5301  0.4662 -0.4961
  643MOL0     H86781   6.375   4.933   8.703 -0.5497 -0.0907  0.0241
  643MOL0     H86782   6.271   4.901   8.847  2.9184 -2.5790  1.7171
  643MOL0     H86783   6.524   4.846   8.859 -0.4176 -1.1653  1.9977
  643MOL0     H86784   6.546   5.019   8.884 -2.4073  2.5988  0.7372
  643MOL0     H86785   5.898   5.597   9.421 -0.9954  6.4631 -0.0564
  643MOL0     H86786   5.907   5.747   9.617  1.4025  0.1395  0.9020
  643MOL0     H86787   6.001   5.912   9.939 -1.3072  0.6246 -2.8375
  643MOL0     H86788   5.951   6.056  10.118 -0.4156 -2.2573 -1.5849
  643MOL0     H86789   5.660   6.637  10.416  0.8500  1.8397 -0.5725
  643MOL0     H86790   5.613   6.617  10.163 -1.5877  0.0547 -2.2829
  643MOL0     H86791   5.261   6.753   9.843  1.0519 -0.6395  1.3194
  643MOL0     H86792   5.185   6.656   9.648  0.7227 -2.5601  0.3343
  643MOL0     H86793   5.464   6.718   9.300 -0.2739 -0.0926 -3.0741
  643MOL0     H86794   5.305   6.790   9.322  1.2082  1.0610 -1.4240
  643MOL0     H86795   5.202   6.602   9.185 -0.0433  2.0566 -1.0290
  643MOL0     H86796   5.362   6.542   9.147  2.7702  0.8328  0.0237
  643MOL0     H86797   5.422   6.765   9.067 -0.2204  0.0932  2.6454
  643MOL0     H86798   5.270   6.835   9.083  1.9327  1.6025 -2.5130
  643MOL0     H86799   5.355   6.595   8.904  1.8936  1.4957 -1.6645
  643MOL0     H86800   5.178   6.622   8.920 -0.2354  2.3943  2.6691
  643MOL0     H86801   5.285   6.942   8.676 -2.0076  1.6833  1.4859
  643MOL0     H86802   5.584   6.648   9.490 -0.4867 -1.7911  0.2736
  643MOL0     H86803   5.739   6.803   9.746  1.5248 -1.8813  1.8294
  643MOL0     H86804   5.718   6.627   9.788 -1.7186 -3.0727 -2.9395
  643MOL0     H86805   5.774   6.661   9.634 -2.4387  1.7849 -3.3987
  644MOL0     O86806  11.010   5.002   5.732 -0.3687  0.5172  0.4721
  644MOL0     C86807  11.134   4.998   5.698 -1.1285 -0.0159  0.4464
  644MOL0     O86808  11.235   5.058   5.771  0.4495 -0.3880 -0.2541
  644MOL0     C86809  11.209   5.126   5.886  0.2967  0.5425  0.3791
  644MOL0     C86810  11.285   5.096   5.992  0.1119 -0.3026 -0.2891
  644MOL0     C86811  11.269   5.148   6.121  0.7723 -0.1642 -0.4756
  644MOL0     C86812  11.158   5.235   6.135  0.0241 -0.0285  0.8653
  644MOL0     O86813  11.141   5.277   6.263 -0.2214  0.8323  0.2167
  644MOL0     C86814  11.072   5.400   6.273  0.2049 -0.0193  0.1687
  644MOL0     C86815  11.067   5.443   6.424 -0.2197 -0.5232  1.1476
  644MOL0     C86816  11.009   5.343   6.520 -0.5083 -0.1062 -0.3639
  644MOL0     C86817  10.862   5.310   6.488  0.0516 -0.2904  0.6354
  644MOL0     C86818  10.810   5.183   6.547  0.0727 -0.1475  0.5743
  644MOL0     C86819  10.668   5.160   6.496  0.2087 -0.2025 -0.5551
  644MOL0     C86820  10.600   5.026   6.558  0.2726 -0.0008  0.3724
  644MOL0     C86821  10.477   4.973   6.475 -0.3047 -0.0664  0.0393
  644MOL0     N86822  10.366   5.067   6.472  0.1379  0.0442  0.3098
  644MOL0     C86823  10.303   5.120   6.584 -0.9168 -0.3032 -0.7656
  644MOL0     C86824  10.219   5.212   6.527  0.4590 -0.6232  0.1637
  644MOL0     C86825  10.109   5.291   6.591 -1.3755 -0.5325  0.2880
  644MOL0     C86826   9.982   5.204   6.593 -0.2296  0.1263  0.0463
  644MOL0     C86827  10.006   5.072   6.667 -0.6435 -1.2858 -0.2513
  644MOL0     C86828  10.058   5.070   6.811 -0.3675  0.8478 -0.4959
  644MOL0     O86829  10.075   4.929   6.862  0.2322  0.1671  0.8112
  644MOL0     C86830  10.209   4.900   6.883 -0.1374  0.6174  0.0029
  644MOL0     C86831  10.278   4.957   6.992 -0.2018 -0.4690  0.6005
  644MOL0     C86832  10.414   4.936   7.006 -0.1699 -0.2711 -0.1035
  644MOL0     C86833  10.482   4.864   6.908 -0.5255 -0.8123 -0.2057
  644MOL0     C86834  10.633   4.856   6.929 -0.1634  0.4902  0.3999
  644MOL0     O86835  10.708   4.816   6.821 -0.3511  0.0856 -0.5017
  644MOL0     C86836  10.837   4.778   6.844  0.1065  0.3285 -0.4902
  644MOL0     C86837  10.876   4.664   6.929  0.1764 -0.4748 -0.4818
  644MOL0     C86838  11.012   4.634   6.945  0.6251 -0.2034  0.9127
  644MOL0     C86839  11.104   4.713   6.886  0.0136  0.8893  0.3602
  644MOL0     O86840  11.246   4.700   6.906  0.5199  0.1756  0.0263
  644MOL0     C86841  11.284   4.654   7.029  0.7529  0.0716  0.4440
  644MOL0     C86842  11.337   4.511   7.018  0.7145 -0.7460  0.1223
  644MOL0     C86843  11.464   4.487   6.942  0.7003  0.3047  0.1701
  644MOL0     C86844  11.584   4.525   7.015  0.7855  0.3743  0.0407
  644MOL0     C86845  11.704   4.461   6.935 -1.3174 -0.6937 -0.1657
  644MOL0     C86846  11.718   4.509   6.786  0.6659  0.1480 -0.0786
  644MOL0     C86847  11.846   4.448   6.730 -0.6498  0.4607  0.3559
  644MOL0     C86848  11.872   4.464   6.579  0.0652 -0.4522 -0.3636
  644MOL0    Cl86849  11.844   4.641   6.520  0.0495 -0.1702  0.2809
  644MOL0     C86850  11.069   4.812   6.799  0.4813 -0.5307  0.6269
  644MOL0     C86851  10.937   4.851   6.787 -0.3499  1.3891  0.2903
  644MOL0     O86852  10.674   4.874   7.046 -0.3964 -0.0309 -0.2456
  644MOL0     C86853  10.409   4.796   6.806  0.8221  0.3295  0.2986
  644MOL0     C86854  10.274   4.822   6.788  0.6419 -0.0236 -0.6613
  644MOL0     N86855  10.241   5.217   6.394  0.2273 -0.3433  0.5838
  644MOL0     N86856  10.331   5.125   6.355  0.4309  0.0258 -0.1108
  644MOL0     C86857  11.087   5.275   6.020 -0.0168 -0.9939 -0.1480
  644MOL0     C86858  11.119   5.226   5.896  0.3191 -0.1088  1.5750
  644MOL0     C86859  11.185   4.933   5.574  0.8004 -0.1083 -0.8824
  644MOL0     C86860  11.301   4.982   5.520 -0.4840 -0.1051 -0.5293
  644MOL0     C86861  11.362   4.922   5.406 -0.6272 -0.5113  0.1162
  644MOL0     C86862  11.296   4.826   5.332 -0.8100  0.0738  0.6818
  644MOL0     O86863  11.351   4.775   5.221  0.1949  1.2184  0.1813
  644MOL0     C86864  11.254   4.753   5.113  0.8547  0.2503 -0.9389
  644MOL0     C86865  11.335   4.727   4.992  0.4805 -0.4538 -0.0526
  644MOL0     C86866  11.412   4.849   4.929  0.2333  0.2428 -0.8260
  644MOL0     C86867  11.517   4.915   5.019 -0.0789  1.0784  0.2269
  644MOL0     C86868  11.577   5.041   4.964 -0.2919 -0.0780  0.3080
  644MOL0     C86869  11.634   5.130   4.899 -0.8460  1.0801 -0.0843
  644MOL0     C86870  11.172   4.781   5.380 -0.4754 -0.2924  0.1181
  644MOL0     C86871  11.119   4.832   5.502 -0.4087 -0.1754 -0.2545
  644MOL0     C86872  10.984   4.785   5.543 -0.1130 -0.3491  0.7227
  644MOL0     H86873  11.364   5.029   5.959 -0.8078  0.0319 -3.4368
  644MOL0     H86874  11.343   5.115   6.193  0.8549  1.5421  0.2891
  644MOL0     H86875  11.117   5.485   6.220  0.4196  0.0369  0.4457
  644MOL0     H86876  10.970   5.384   6.236  0.5408 -0.6178 -0.5191
  644MOL0     H86877  11.024   5.543   6.438 -2.8907 -1.6242  1.4983
  644MOL0     H86878  11.174   5.458   6.442  0.1652 -1.8540  0.0544
  644MOL0     H86879  11.028   5.372   6.624 -0.6383  1.3326 -0.7111
  644MOL0     H86880  11.072   5.254   6.514  1.8659  1.1734  2.7087
  644MOL0     H86881  10.798   5.393   6.518  1.4230  1.5623 -1.2481
  644MOL0     H86882  10.842   5.312   6.380 -2.3746  0.7705  1.0413
  644MOL0     H86883  10.871   5.097   6.516 -0.1553 -1.2357  2.9381
  644MOL0     H86884  10.798   5.190   6.655  1.4566  0.1077  0.7282
  644MOL0     H86885  10.600   5.244   6.509 -1.0683 -0.9928 -1.7322
  644MOL0     H86886  10.678   5.137   6.389 -0.7239 -0.7905 -0.5304
  644MOL0     H86887  10.565   5.036   6.661  1.8586 -4.2736  1.5296
  644MOL0     H86888  10.672   4.945   6.571 -0.4818 -0.5030  1.5822
  644MOL0     H86889  10.506   4.939   6.375  2.0904 -0.2612  0.7341
  644MOL0     H86890  10.450   4.885   6.534  0.9709 -1.3756 -1.2275
  644MOL0     H86891  10.333   5.106   6.687 -1.6207  0.0067 -0.5207
  644MOL0     H86892  10.146   5.313   6.692 -2.7511 -0.3628  0.7763
  644MOL0     H86893  10.088   5.390   6.550 -0.4145 -0.4012  0.0800
  644MOL0     H86894   9.904   5.258   6.647 -0.2954 -1.2540  1.3820
  644MOL0     H86895   9.949   5.184   6.491  0.2079 -1.8575  0.2559
  644MOL0     H86896  10.067   5.009   6.601  1.6528  1.1262 -0.6113
  644MOL0     H86897   9.906   5.031   6.652 -1.3571  0.7135 -1.3261
  644MOL0     H86898   9.979   5.110   6.876 -1.5969 -1.7362 -0.2622
  644MOL0     H86899  10.146   5.133   6.822  0.9177 -0.8554 -0.6811
  644MOL0     H86900  10.218   5.023   7.054  0.5779  0.5704  0.2854
  644MOL0     H86901  10.468   4.976   7.091  0.1241 -2.7495  0.9881
  644MOL0     H86902  10.813   4.594   6.983 -2.3464 -0.4976 -3.1809
  644MOL0     H86903  11.046   4.557   7.014 -1.5876 -0.9055  1.3030
  644MOL0     H86904  11.358   4.721   7.074  1.9533 -0.3596 -0.8391
  644MOL0     H86905  11.203   4.643   7.102  1.7724 -4.2114  1.2107
  644MOL0     H86906  11.364   4.485   7.121  0.9647  3.6078  1.3948
  644MOL0     H86907  11.268   4.436   6.981  0.5365  0.1535 -1.4407
  644MOL0     H86908  11.472   4.381   6.914  2.5053  0.5489 -0.3456
  644MOL0     H86909  11.460   4.527   6.841  2.4635  0.8545  0.2781
  644MOL0     H86910  11.585   4.485   7.117  3.5227  2.1517  0.7980
  644MOL0     H86911  11.594   4.633   7.021  0.2486  0.5176 -1.4336
  644MOL0     H86912  11.698   4.352   6.932  0.9201 -0.8436 -2.1188
  644MOL0     H86913  11.795   4.491   6.988 -0.5675  1.6724 -2.5860
  644MOL0     H86914  11.630   4.477   6.729 -2.0280  3.2867  1.9818
  644MOL0     H86915  11.731   4.617   6.790  2.3014  0.0827 -1.9858
  644MOL0     H86916  11.860   4.341   6.750  2.7403  0.2109 -2.4008
  644MOL0     H86917  11.927   4.490   6.790 -1.7285 -0.5257  2.6434
  644MOL0     H86918  11.968   4.430   6.539 -1.0641 -0.7631 -2.9812
  644MOL0     H86919  11.797   4.401   6.530 -1.7666  1.2656  0.0672
  644MOL0     H86920  11.140   4.883   6.758 -2.0735  3.8591  2.9961
  644MOL0     H86921  10.910   4.943   6.736 -0.2759  1.5684  0.5775
  644MOL0     H86922  10.479   4.751   6.736  1.1090  1.1753  0.0266
  644MOL0     H86923  10.220   4.814   6.694  0.4692  4.1848 -1.1556
  644MOL0     H86924  11.016   5.357   6.022  0.2657 -0.7277 -0.8218
  644MOL0     H86925  11.062   5.260   5.810  2.5604  0.5139  0.2721
  644MOL0     H86926  11.353   5.070   5.558  0.7823 -1.1779  0.3153
  644MOL0     H86927  11.453   4.961   5.360  0.3912 -1.7536  0.9864
  644MOL0     H86928  11.197   4.843   5.091 -2.6779 -1.4775  0.3151
  644MOL0     H86929  11.186   4.670   5.134  0.7298  0.8848  1.4542
  644MOL0     H86930  11.278   4.699   4.903  0.2162 -0.7581  0.2073
  644MOL0     H86931  11.401   4.641   5.012  1.6491 -0.0433 -1.9580
  644MOL0     H86932  11.334   4.926   4.927  0.2647  0.3781  1.1942
  644MOL0     H86933  11.451   4.831   4.829 -2.4488  1.8209 -2.2801
  644MOL0     H86934  11.466   4.950   5.109 -3.1493  2.4070 -1.8703
  644MOL0     H86935  11.591   4.838   5.045 -1.8561 -1.5701 -1.9731
  644MOL0     H86936  11.695   5.204   4.851 -1.5301  2.7396  1.5149
  644MOL0     H86937  11.113   4.705   5.328 -1.3026  1.9768 -2.5282
  644MOL0     H86938  10.920   4.873   5.527  1.8490  1.2623  1.2381
  644MOL0     H86939  10.948   4.695   5.494  0.9401 -3.2068  4.7115
  644MOL0     H86940  10.990   4.751   5.647  5.5232 -0.0037  0.8314
  645MOL0     O86941   8.533  11.414   3.591  0.5600 -0.0020 -0.1168
  645MOL0     C86942   8.422  11.473   3.562  0.7309 -0.1412 -0.6289
  645MOL0     O86943   8.403  11.605   3.588  0.0779 -0.5128 -0.5743
  645MOL0     C86944   8.523  11.672   3.625  0.5229 -0.2395  0.5972
  645MOL0     C86945   8.616  11.697   3.522 -0.8065 -0.3555  0.6319
  645MOL0     C86946   8.731  11.761   3.550  0.7763  0.1136 -0.1197
  645MOL0     C86947   8.751  11.814   3.668 -0.1823  0.2318 -0.4743
  645MOL0     O86948   8.872  11.880   3.681  0.4431  1.0310  0.3718
  645MOL0     C86949   8.868  12.017   3.725  0.7292 -0.1023 -0.0124
  645MOL0     C86950   8.853  12.035   3.884 -1.0841  0.0120  0.4214
  645MOL0     C86951   8.967  11.959   3.955 -0.8039 -0.1905 -0.0608
  645MOL0     C86952   8.935  11.891   4.085 -0.1197  0.6652 -0.0427
  645MOL0     C86953   9.055  11.841   4.166  0.3766  0.2889 -0.4790
  645MOL0     C86954   9.128  11.960   4.238  0.2412 -0.8555  0.2776
  645MOL0     C86955   9.055  12.002   4.366  0.0419 -0.4974 -0.3527
  645MOL0     C86956   9.142  12.111   4.422 -0.3055 -0.1768  0.2986
  645MOL0     N86957   9.084  12.175   4.547 -0.1484 -0.7648  0.5687
  645MOL0     C86958   8.997  12.271   4.544  0.3491 -0.3396 -1.2565
  645MOL0     C86959   8.988  12.312   4.669  0.2428 -0.6181  0.3768
  645MOL0     C86960   8.896  12.431   4.715 -0.7313  0.4423 -0.1384
  645MOL0     C86961   8.791  12.379   4.810 -0.4391  0.0689 -0.4661
  645MOL0     C86962   8.677  12.486   4.835 -0.0922  0.0667  0.6877
  645MOL0     C86963   8.553  12.428   4.897 -0.1459  0.8451 -0.7977
  645MOL0     O86964   8.460  12.534   4.943 -0.8187  0.2292 -0.3981
  645MOL0     C86965   8.335  12.503   4.982 -0.0117 -0.4420  0.1420
  645MOL0     C86966   8.290  12.367   4.997 -0.1569 -0.1240  0.4600
  645MOL0     C86967   8.163  12.336   5.040  0.6714 -0.2404  0.4816
  645MOL0     C86968   8.080  12.431   5.084  0.9483 -0.6754 -0.6883
  645MOL0     C86969   7.951  12.401   5.151  0.5508  0.8324  1.0030
  645MOL0     O86970   7.909  12.275   5.152  0.2459  0.0430  0.3160
  645MOL0     C86971   7.777  12.266   5.182 -0.2239  1.5672 -0.2962
  645MOL0     C86972   7.679  12.242   5.085 -0.5401 -0.0748  0.6541
  645MOL0     C86973   7.551  12.203   5.122  0.5444 -0.2102  0.0399
  645MOL0     C86974   7.508  12.217   5.253  0.0274 -0.0374  0.1482
  645MOL0     O86975   7.377  12.175   5.288 -0.0236 -0.0473 -0.5376
  645MOL0     C86976   7.322  12.193   5.421  0.7562 -0.6250  0.1455
  645MOL0     C86977   7.349  12.058   5.482 -0.9649 -0.2170  0.5546
  645MOL0     C86978   7.306  12.058   5.624 -0.2004 -0.5336  0.5123
  645MOL0     C86979   7.382  12.155   5.717 -0.4076 -0.4858 -0.2686
  645MOL0     C86980   7.377  12.123   5.867 -0.2317 -0.2183 -0.3989
  645MOL0     C86981   7.236  12.137   5.935 -0.2895 -0.4266  0.3282
  645MOL0     C86982   7.181  12.281   5.952 -0.8397  0.7944 -0.7576
  645MOL0     C86983   7.273  12.367   6.034  0.4888 -0.5004 -0.9079
  645MOL0    Cl86984   7.274  12.296   6.203  0.2398 -0.2691  0.0531
  645MOL0     C86985   7.599  12.258   5.345  0.3024  0.2650  0.5251
  645MOL0     C86986   7.735  12.280   5.313 -0.4795 -0.2369  0.5665
  645MOL0     O86987   7.892  12.500   5.193  0.5297 -0.9137  0.4720
  645MOL0     C86988   8.124  12.562   5.067 -0.0661 -0.2800 -0.1855
  645MOL0     C86989   8.243  12.611   5.004  0.4818 -0.8065  0.2883
  645MOL0     N86990   9.063  12.228   4.746  0.7196 -0.1236 -0.3748
  645MOL0     N86991   9.138  12.151   4.671  0.6025 -0.0354 -0.0773
  645MOL0     C86992   8.668  11.781   3.783  0.0387  0.2396  0.6229
  645MOL0     C86993   8.549  11.709   3.758  0.4355  0.4623  0.7438
  645MOL0     C86994   8.304  11.398   3.506 -0.3756 -0.0628  0.4915
  645MOL0     C86995   8.175  11.465   3.502 -0.7039 -0.3431 -1.0289
  645MOL0     C86996   8.055  11.402   3.474  0.3505 -0.0929  1.1797
  645MOL0     C86997   8.056  11.261   3.453 -0.3003 -1.0014 -0.4932
  645MOL0     O86998   7.943  11.198   3.443 -0.3528 -0.4746  0.5264
  645MOL0     C86999   7.920  11.104   3.554 -0.0490 -0.4891  0.2391
  645MOL0     C87000   7.767  11.075   3.554 -0.4319 -0.4366  0.1663
  645MOL0     C87001   7.727  10.944   3.613  0.2032 -0.2361 -0.6108
  645MOL0     C87002   7.577  10.924   3.615  0.0943  0.1829  0.3056
  645MOL0     C87003   7.528  10.862   3.734  0.0773  0.1530  0.1103
  645MOL0     C87004   7.499  10.816   3.839 -0.6611 -0.2055  0.5490
  645MOL0     C87005   8.176  11.196   3.437 -0.4969  0.3285 -0.1814
  645MOL0     C87006   8.303  11.255   3.472  0.1843  0.4726  0.6608
  645MOL0     C87007   8.427  11.168   3.449  0.0002 -0.8049  0.0654
  645MOL0     H87008   8.585  11.673   3.420 -3.0918  1.8489  0.7047
  645MOL0     H87009   8.804  11.770   3.469  0.0123 -0.0507 -0.8407
  645MOL0     H87010   8.966  12.053   3.693  1.2300 -0.2578  1.2955
  645MOL0     H87011   8.792  12.070   3.667  0.2863 -0.4013  0.2862
  645MOL0     H87012   8.755  12.010   3.924 -1.9597  1.7461 -0.5074
  645MOL0     H87013   8.845  12.142   3.905  2.0155  0.7576 -1.4282
  645MOL0     H87014   9.046  12.033   3.975  1.2204 -0.7762 -4.5289
  645MOL0     H87015   9.017  11.888   3.888  0.9092  1.3009 -0.4481
  645MOL0     H87016   8.865  11.951   4.143  0.5621  0.9506  0.5012
  645MOL0     H87017   8.870  11.805   4.065  0.3594  0.0586  0.9556
  645MOL0     H87018   9.019  11.775   4.246 -1.4874  2.7243  0.8500
  645MOL0     H87019   9.130  11.793   4.103  0.4554 -0.4229  0.1301
  645MOL0     H87020   9.222  11.917   4.274  0.0601 -1.8907 -0.4405
  645MOL0     H87021   9.147  12.050   4.179  2.4901  1.0364  3.6032
  645MOL0     H87022   9.063  11.916   4.433  1.7173 -1.1358 -1.3148
  645MOL0     H87023   8.951  12.033   4.356  0.1647  1.3032  2.7728
  645MOL0     H87024   9.236  12.067   4.458  0.3081  1.1649  0.3866
  645MOL0     H87025   9.154  12.186   4.344  0.5153 -0.5340  0.0699
  645MOL0     H87026   8.940  12.317   4.464 -0.4940 -0.0177 -0.4969
  645MOL0     H87027   8.958  12.507   4.764  1.2389  2.9709 -5.7045
  645MOL0     H87028   8.844  12.478   4.632 -7.2648 -5.7457 -0.5366
  645MOL0     H87029   8.757  12.281   4.776  1.9451 -0.4735 -1.5168
  645MOL0     H87030   8.835  12.373   4.910 -0.5346  1.8037 -0.2866
  645MOL0     H87031   8.653  12.552   4.751 -2.4920 -2.4426 -0.7626
  645MOL0     H87032   8.707  12.559   4.910 -1.9782 -0.3692  1.9401
  645MOL0     H87033   8.575  12.365   4.983 -3.7476  0.4360 -0.0026
  645MOL0     H87034   8.508  12.363   4.822 -0.1820 -0.8124  0.6096
  645MOL0     H87035   8.361  12.290   4.971  0.1894  1.1838 -3.0021
  645MOL0     H87036   8.131  12.234   5.057 -1.2980  0.1139 -0.7714
  645MOL0     H87037   7.702  12.257   4.980  1.5162  1.5244  1.2630
  645MOL0     H87038   7.478  12.168   5.049  2.6858 -0.8639 -1.9314
  645MOL0     H87039   7.375  12.278   5.465 -1.8187  2.4215 -2.2785
  645MOL0     H87040   7.216  12.217   5.409  0.4577 -1.1935  1.3853
  645MOL0     H87041   7.310  11.981   5.416 -1.9836  2.6919 -2.4850
  645MOL0     H87042   7.457  12.042   5.495 -0.3604  2.6975 -0.0674
  645MOL0     H87043   7.197  12.071   5.634 -0.1082  0.0531  0.7725
  645MOL0     H87044   7.302  11.958   5.669 -0.5221  0.3803  2.6659
  645MOL0     H87045   7.355  12.260   5.705 -1.8388 -1.0068 -2.2236
  645MOL0     H87046   7.488  12.147   5.693 -0.0795  1.0029  0.5453
  645MOL0     H87047   7.454  12.178   5.921 -0.2837 -0.5201 -0.0215
  645MOL0     H87048   7.411  12.021   5.882 -1.9518 -0.8744 -0.7071
  645MOL0     H87049   7.168  12.082   5.870  0.5395  1.2324 -2.1234
  645MOL0     H87050   7.227  12.090   6.033  0.9627 -0.1463  0.6023
  645MOL0     H87051   7.083  12.266   5.998  0.8656 -0.4861  2.8363
  645MOL0     H87052   7.169  12.318   5.850  1.8370 -1.9126 -2.2500
  645MOL0     H87053   7.378  12.359   6.004  1.2396 -1.9364  1.7793
  645MOL0     H87054   7.232  12.469   6.037  2.2693  0.2531  2.5716
  645MOL0     H87055   7.567  12.262   5.449  1.5833 -1.2537  1.0214
  645MOL0     H87056   7.797  12.317   5.394 -0.0065  2.0901 -0.7517
  645MOL0     H87057   8.061  12.648   5.087 -1.7552 -0.5627 -3.5061
  645MOL0     H87058   8.274  12.715   4.995  1.6248 -0.5993  4.4129
  645MOL0     H87059   8.690  11.813   3.884  2.2598  0.0513  0.2588
  645MOL0     H87060   8.489  11.690   3.846 -0.3770  3.1642  0.8714
  645MOL0     H87061   8.187  11.566   3.541  3.2121 -1.7377  2.1149
  645MOL0     H87062   7.970  11.467   3.492 -0.4587 -0.8284  0.1686
  645MOL0     H87063   7.954  11.147   3.649 -4.1937  0.0304  1.6947
  645MOL0     H87064   7.980  11.015   3.534  1.6971  0.8066 -0.5231
  645MOL0     H87065   7.737  11.071   3.449 -3.1352 -2.0165  0.9146
  645MOL0     H87066   7.717  11.160   3.602 -0.5367 -0.7981  0.7033
  645MOL0     H87067   7.780  10.949   3.709 -1.1017  2.7787  0.0616
  645MOL0     H87068   7.766  10.858   3.557  1.2964  0.3693 -0.8081
  645MOL0     H87069   7.531  11.022   3.603 -1.3573 -0.3990  0.8729
  645MOL0     H87070   7.539  10.859   3.536 -1.2966 -2.2921  2.8192
  645MOL0     H87071   7.461  10.776   3.931  0.2919 -1.4391  0.4382
  645MOL0     H87072   8.180  11.090   3.419 -2.2115 -0.5525  3.6563
  645MOL0     H87073   8.504  11.233   3.406 -0.1393  1.2153  2.5915
  645MOL0     H87074   8.457  11.135   3.549  1.1496  1.4509  0.5258
  645MOL0     H87075   8.411  11.095   3.369  1.9085  1.0247 -2.1547
  646MOL0     O87076   9.905   3.417   4.234 -0.0842  0.5485 -0.4030
  646MOL0     C87077   9.796   3.432   4.291  0.9194 -0.1314  0.9277
  646MOL0     O87078   9.709   3.339   4.341 -0.1078 -0.8567  0.6119
  646MOL0     C87079   9.732   3.205   4.316 -0.1461 -0.4411  0.0614
  646MOL0     C87080   9.784   3.137   4.425  0.1475  0.7568  0.1614
  646MOL0     C87081   9.811   3.002   4.400  0.8659 -0.3301 -0.8187
  646MOL0     C87082   9.781   2.935   4.286  0.4383 -0.1033 -0.0411
  646MOL0     O87083   9.791   2.799   4.261 -0.5228 -0.4667 -0.0980
  646MOL0     C87084   9.845   2.729   4.376  0.4315 -0.7201  0.6791
  646MOL0     C87085   9.878   2.582   4.361 -0.3295  1.2079 -0.1308
  646MOL0     C87086   9.777   2.495   4.270 -0.3170  0.1626  0.3821
  646MOL0     C87087   9.848   2.379   4.192  0.7082  0.3579 -0.4031
  646MOL0     C87088   9.745   2.288   4.128  0.1713 -0.5549  0.8447
  646MOL0     C87089   9.800   2.162   4.061 -0.7118  0.8947  0.7832
  646MOL0     C87090   9.851   2.043   4.147  0.9252  0.1618  0.1263
  646MOL0     C87091   9.935   1.936   4.075  0.4398 -0.2850  0.0189
  646MOL0     N87092   9.867   1.851   3.990 -0.1285  0.0919  0.1122
  646MOL0     C87093   9.748   1.784   4.014 -0.9623  0.1036  0.0033
  646MOL0     C87094   9.697   1.750   3.900 -0.4779  0.3334  0.0299
  646MOL0     C87095   9.574   1.670   3.876  0.3473  0.5181 -0.3714
  646MOL0     C87096   9.454   1.734   3.946 -0.4038 -0.1314 -0.0630
  646MOL0     C87097   9.417   1.863   3.864  0.5538  0.0645 -0.3617
  646MOL0     C87098   9.293   1.933   3.939  0.4727 -0.0037  0.8552
  646MOL0     O87099   9.333   1.975   4.070  0.0330  0.3436  0.0066
  646MOL0     C87100   9.364   2.107   4.088  0.7936  0.1671  0.0729
  646MOL0     C87101   9.402   2.200   3.992 -0.7308 -0.1120 -0.6444
  646MOL0     C87102   9.407   2.341   4.023 -0.7378  0.7645 -0.1893
  646MOL0     C87103   9.363   2.385   4.146  0.5847  0.0333  1.0314
  646MOL0     C87104   9.354   2.525   4.169  0.0338  0.3538 -1.2130
  646MOL0     O87105   9.368   2.558   4.302  0.7006  0.7207 -0.8279
  646MOL0     C87106   9.323   2.674   4.350  0.4927 -0.0995 -0.4701
  646MOL0     C87107   9.404   2.787   4.343 -0.4059 -0.8119 -0.3566
  646MOL0     C87108   9.356   2.910   4.405  0.4301  0.4968 -0.0448
  646MOL0     C87109   9.229   2.911   4.467  0.5704 -0.2761 -1.1763
  646MOL0     O87110   9.205   3.024   4.544  0.3513 -0.6192  0.0303
  646MOL0     C87111   9.139   3.012   4.674  0.3409  0.3463  0.2296
  646MOL0     C87112   9.173   2.888   4.757 -0.7006 -0.5634  0.4857
  646MOL0     C87113   9.135   2.893   4.915 -0.7641 -1.3237  0.1357
  646MOL0     C87114   8.995   2.855   4.952  0.0554 -0.0690  0.2245
  646MOL0     C87115   8.989   2.856   5.099  0.4748  0.1783 -0.8832
  646MOL0     C87116   8.845   2.791   5.136 -0.8450 -0.8538 -0.4193
  646MOL0     C87117   8.842   2.792   5.290  0.3624  0.5400 -0.2733
  646MOL0     C87118   8.708   2.740   5.340  0.3747  0.9643  0.1691
  646MOL0    Cl87119   8.567   2.842   5.287  0.0896 -0.0959 -0.0992
  646MOL0     C87120   9.144   2.799   4.467  0.0595  0.2939  0.8929
  646MOL0     C87121   9.193   2.683   4.406 -0.0040  0.8496 -0.0926
  646MOL0     O87122   9.335   2.609   4.079 -0.2882 -0.5688  0.0790
  646MOL0     C87123   9.309   2.295   4.237 -0.1715  0.6745 -1.0596
  646MOL0     C87124   9.311   2.158   4.203  0.1389 -0.0152 -0.5715
  646MOL0     N87125   9.778   1.795   3.800  0.5602  0.2485 -0.1287
  646MOL0     N87126   9.871   1.866   3.856 -0.1817 -0.5929 -0.2336
  646MOL0     C87127   9.722   3.009   4.189  0.3710 -0.4581  0.2497
  646MOL0     C87128   9.699   3.145   4.196 -0.2600 -0.0504 -1.2588
  646MOL0     C87129   9.725   3.565   4.284  0.3141 -0.0239  0.4865
  646MOL0     C87130   9.585   3.575   4.280  0.0825  0.1258  0.0855
  646MOL0     C87131   9.510   3.696   4.290 -0.5205 -0.0467  0.9181
  646MOL0     C87132   9.580   3.810   4.297  0.1351 -0.4772  1.0881
  646MOL0     O87133   9.506   3.920   4.298  0.2021 -0.5970  0.4108
  646MOL0     C87134   9.559   4.048   4.252  0.5812 -0.2612 -0.3023
  646MOL0     C87135   9.450   4.137   4.196 -0.8821 -0.5933  0.3442
  646MOL0     C87136   9.325   4.155   4.276 -0.4811  0.1152  0.5202
  646MOL0     C87137   9.276   4.292   4.260 -0.5168 -1.2442  0.2937
  646MOL0     C87138   9.374   4.392   4.321  0.2316  1.0994  0.4335
  646MOL0     C87139   9.453   4.480   4.361 -0.1694 -0.2475  0.3537
  646MOL0     C87140   9.720   3.809   4.309 -0.1926 -0.9382 -0.0522
  646MOL0     C87141   9.795   3.691   4.305  0.2870  0.1181  0.4350
  646MOL0     C87142   9.946   3.697   4.320 -0.4800 -0.4021 -0.6044
  646MOL0     H87143   9.807   3.183   4.521  2.2989  1.0381 -0.4253
  646MOL0     H87144   9.849   2.950   4.488 -2.8244  1.1912  1.9533
  646MOL0     H87145   9.929   2.787   4.415 -0.9289  0.7715  1.5657
  646MOL0     H87146   9.770   2.735   4.457  2.0423  2.0842  2.1124
  646MOL0     H87147   9.877   2.545   4.464 -0.9582  1.3098 -0.0987
  646MOL0     H87148   9.981   2.567   4.327 -0.6408  3.8464 -2.6354
  646MOL0     H87149   9.717   2.556   4.203 -3.3597 -0.5097  2.3149
  646MOL0     H87150   9.703   2.455   4.340 -0.1389 -0.3770  0.2717
  646MOL0     H87151   9.925   2.426   4.129  0.2469 -0.9599 -2.0002
  646MOL0     H87152   9.888   2.312   4.269  0.8549  0.2078 -0.6077
  646MOL0     H87153   9.669   2.257   4.201 -2.3980  1.7394 -0.6883
  646MOL0     H87154   9.685   2.347   4.059 -0.4096 -1.8930  0.1598
  646MOL0     H87155   9.722   2.109   4.006 -0.1359 -0.3932  1.1647
  646MOL0     H87156   9.878   2.193   3.992 -0.6884  0.1614  0.4770
  646MOL0     H87157   9.767   1.999   4.202 -0.3801  1.6868 -0.5583
  646MOL0     H87158   9.917   2.086   4.223  2.5727 -2.7874  0.5135
  646MOL0     H87159  10.007   2.002   4.025 -1.4156  2.4404  0.6967
  646MOL0     H87160   9.999   1.884   4.146  0.4042 -0.0931  0.1956
  646MOL0     H87161   9.714   1.751   4.111 -0.2795 -2.9567 -0.6947
  646MOL0     H87162   9.553   1.677   3.769 -1.4812  1.8281  0.0136
  646MOL0     H87163   9.576   1.562   3.893  0.7165  0.7191  1.0151
  646MOL0     H87164   9.366   1.669   3.954 -0.1077 -0.6279 -0.7200
  646MOL0     H87165   9.473   1.765   4.049 -1.0370  0.1487 -0.0233
  646MOL0     H87166   9.395   1.843   3.758 -2.1646 -0.6026  0.2391
  646MOL0     H87167   9.497   1.936   3.875  0.1635  0.1265  3.0591
  646MOL0     H87168   9.222   1.850   3.933  3.1617 -2.6725  2.4742
  646MOL0     H87169   9.260   2.017   3.878  0.9637 -1.4345 -1.4904
  646MOL0     H87170   9.423   2.178   3.888 -0.8018 -0.9368 -0.4847
  646MOL0     H87171   9.437   2.419   3.953 -5.7674  3.2815 -0.0161
  646MOL0     H87172   9.495   2.787   4.284 -1.3525  2.2636 -2.0512
  646MOL0     H87173   9.412   3.002   4.396  0.4205  0.6803  1.6146
  646MOL0     H87174   9.171   3.098   4.735 -0.7885  0.7819  0.2311
  646MOL0     H87175   9.032   3.021   4.656  0.7905  0.1741 -3.1189
  646MOL0     H87176   9.129   2.801   4.707  1.3012 -2.2244  1.4923
  646MOL0     H87177   9.280   2.867   4.753 -0.2409  0.7277  3.3569
  646MOL0     H87178   9.207   2.835   4.974  1.5169  0.0924 -1.1109
  646MOL0     H87179   9.153   2.993   4.955 -1.4648 -0.1227 -2.3623
  646MOL0     H87180   8.970   2.757   4.910  1.5675 -0.2754 -0.2758
  646MOL0     H87181   8.928   2.934   4.916 -0.3220 -1.2665 -1.8661
  646MOL0     H87182   8.991   2.958   5.139  0.6271  0.8148 -2.4345
  646MOL0     H87183   9.056   2.783   5.144 -0.2768 -1.1278 -1.8135
  646MOL0     H87184   8.768   2.857   5.095 -0.3106  0.0185 -0.0565
  646MOL0     H87185   8.851   2.691   5.092  1.8953 -0.1865 -1.8098
  646MOL0     H87186   8.845   2.889   5.340 -0.7353 -0.4840  1.9138
  646MOL0     H87187   8.929   2.734   5.321  3.0519  2.5394 -3.3518
  646MOL0     H87188   8.695   2.636   5.310  1.2920  0.6623  0.7924
  646MOL0     H87189   8.717   2.732   5.449  0.1693  0.1599  0.1272
  646MOL0     H87190   9.048   2.793   4.517 -1.2363  0.6755 -1.4059
  646MOL0     H87191   9.126   2.598   4.406  0.7558  0.1949  1.8597
  646MOL0     H87192   9.271   2.324   4.334 -0.0525 -0.4852 -0.6569
  646MOL0     H87193   9.250   2.081   4.250 -1.5053  0.9398 -1.0589
  646MOL0     H87194   9.688   2.953   4.103 -2.3438 -1.4266  1.8573
  646MOL0     H87195   9.659   3.207   4.117 -4.1265 -1.8269 -0.9592
  646MOL0     H87196   9.528   3.483   4.290 -1.6104  0.8763 -1.8517
  646MOL0     H87197   9.402   3.684   4.293 -0.8115  2.0569  0.1443
  646MOL0     H87198   9.634   4.028   4.175  0.8271  0.0321 -0.1432
  646MOL0     H87199   9.602   4.103   4.336 -2.0299  2.3868 -0.5076
  646MOL0     H87200   9.421   4.095   4.099 -2.3802  0.7303  0.1777
  646MOL0     H87201   9.500   4.233   4.177 -3.0468  0.6751  0.6794
  646MOL0     H87202   9.349   4.131   4.380 -2.2587  2.5720  1.5772
  646MOL0     H87203   9.250   4.080   4.249 -1.0345  0.6450  0.5718
  646MOL0     H87204   9.254   4.310   4.155 -1.3934  4.3549  1.1091
  646MOL0     H87205   9.179   4.302   4.311 -0.9764  1.2876 -0.9170
  646MOL0     H87206   9.511   4.551   4.416 -0.9074  1.2579 -0.7339
  646MOL0     H87207   9.758   3.905   4.342 -1.1072 -0.6647  0.2581
  646MOL0     H87208   9.982   3.600   4.357 -2.0393 -0.1032  1.9470
  646MOL0     H87209   9.977   3.718   4.218 -0.3562 -1.1641 -0.7353
  646MOL0     H87210   9.975   3.775   4.391 -0.7184 -2.2625  1.6826
  647MOL0     O87211   4.194   4.667   6.257 -0.6146  0.0061  0.5499
  647MOL0     C87212   4.249   4.771   6.221  0.2315 -0.2634 -0.7482
  647MOL0     O87213   4.347   4.770   6.126 -1.2981  0.2590 -0.1087
  647MOL0     C87214   4.362   4.650   6.064 -0.1605  0.0300  0.0309
  647MOL0     C87215   4.397   4.536   6.137 -1.2119 -0.0449  1.4232
  647MOL0     C87216   4.383   4.409   6.072  0.3470  0.3817  0.0828
  647MOL0     C87217   4.347   4.400   5.940  0.5434 -0.3823  0.1660
  647MOL0     O87218   4.353   4.288   5.858 -0.7505 -0.3544 -0.8435
  647MOL0     C87219   4.458   4.197   5.887 -0.4956 -0.5635  1.0559
  647MOL0     C87220   4.484   4.093   5.781  0.6659 -0.1683  0.0321
  647MOL0     C87221   4.366   4.036   5.699 -0.0966  0.5543  0.2121
  647MOL0     C87222   4.409   3.937   5.599  0.3398  0.5279 -0.1850
  647MOL0     C87223   4.289   3.849   5.558  0.1350  0.4042  0.4482
  647MOL0     C87224   4.334   3.717   5.486 -0.8975  0.6257 -0.7010
  647MOL0     C87225   4.425   3.751   5.357  0.5187 -0.6247 -0.8828
  647MOL0     C87226   4.478   3.626   5.285 -0.0113 -0.0939  0.5483
  647MOL0     N87227   4.373   3.530   5.242  0.7501 -0.0256  0.1670
  647MOL0     C87228   4.329   3.511   5.120  0.8271 -0.7575  0.7385
  647MOL0     C87229   4.252   3.392   5.123  0.5950 -0.4697 -1.1440
  647MOL0     C87230   4.204   3.309   5.007 -0.0499  0.0864  0.1506
  647MOL0     C87231   4.064   3.358   4.959 -0.8645 -0.5654 -0.3084
  647MOL0     C87232   4.018   3.263   4.851  0.3372  0.5544 -0.2598
  647MOL0     C87233   3.905   3.349   4.779 -0.2022  0.7385  0.1903
  647MOL0     O87234   3.784   3.346   4.859 -0.3490 -0.5071 -0.0433
  647MOL0     C87235   3.708   3.233   4.842  0.1357  0.1620 -0.8710
  647MOL0     C87236   3.756   3.114   4.785  0.1484  0.7736  0.3389
  647MOL0     C87237   3.685   2.991   4.806 -0.9427 -0.4925 -0.0921
  647MOL0     C87238   3.559   2.986   4.875 -0.6237  0.9863 -0.3935
  647MOL0     C87239   3.482   2.860   4.898  0.2304  0.4476 -0.4520
  647MOL0     O87240   3.365   2.860   4.962  0.5059 -0.7488  1.1032
  647MOL0     C87241   3.290   2.750   4.960  0.1678 -1.5555 -0.4429
  647MOL0     C87242   3.324   2.653   5.051  0.2215  0.0459  0.0125
  647MOL0     C87243   3.244   2.535   5.046  0.2813 -1.0903  0.3508
  647MOL0     C87244   3.128   2.525   4.963  0.0534 -0.2252  0.0411
  647MOL0     O87245   3.047   2.409   4.954 -0.5542 -0.8244  0.9569
  647MOL0     C87246   3.091   2.287   4.999 -0.0689 -0.2308  0.1242
  647MOL0     C87247   3.006   2.177   4.930 -0.5531  0.4739  0.2139
  647MOL0     C87248   2.876   2.126   5.001  0.8905 -0.1203  0.1530
  647MOL0     C87249   2.782   2.248   5.012  0.5860  0.4884 -0.6207
  647MOL0     C87250   2.647   2.204   5.075  0.8742 -0.0501  0.0321
  647MOL0     C87251   2.575   2.333   5.123  0.1321  0.3292  0.7152
  647MOL0     C87252   2.457   2.306   5.201  0.9275 -1.0987 -1.3549
  647MOL0     C87253   2.418   2.450   5.262  0.4010 -0.2438  1.1028
  647MOL0    Cl87254   2.338   2.571   5.150  0.4060  0.0462 -0.1614
  647MOL0     C87255   3.089   2.641   4.895 -0.3641 -0.9890 -0.4332
  647MOL0     C87256   3.174   2.754   4.885  0.5669 -0.6172 -0.3995
  647MOL0     O87257   3.532   2.756   4.844 -0.3554  1.2605 -0.4032
  647MOL0     C87258   3.523   3.099   4.948  0.5591 -0.4124  0.6036
  647MOL0     C87259   3.592   3.221   4.924 -0.0042  0.1382  0.4929
  647MOL0     N87260   4.243   3.356   5.253  0.3868  0.9339 -0.0159
  647MOL0     N87261   4.307   3.441   5.323 -0.6820  0.3164 -0.0658
  647MOL0     C87262   4.312   4.511   5.870 -0.3646 -0.9664  0.1332
  647MOL0     C87263   4.312   4.631   5.937 -0.0587 -0.5702  0.2737
  647MOL0     C87264   4.213   4.891   6.279  0.0330  0.0626 -0.0325
  647MOL0     C87265   4.259   5.013   6.220 -0.7957  0.3879 -0.8077
  647MOL0     C87266   4.215   5.138   6.263 -0.0405 -0.3114 -0.0520
  647MOL0     C87267   4.120   5.141   6.363 -0.4554 -0.2598 -0.6134
  647MOL0     O87268   4.076   5.273   6.370  0.1111 -0.6889  0.2884
  647MOL0     C87269   3.992   5.299   6.474  0.3437 -0.0878  0.2679
  647MOL0     C87270   3.925   5.429   6.469 -0.1925 -1.0382 -0.0419
  647MOL0     C87271   3.822   5.423   6.354 -1.4700 -0.2442 -0.0160
  647MOL0     C87272   3.677   5.430   6.412 -0.0617  0.3676  0.0782
  647MOL0     C87273   3.660   5.326   6.516 -0.2588  0.3250 -0.3660
  647MOL0     C87274   3.637   5.238   6.602  0.2745 -0.4379  0.3472
  647MOL0     C87275   4.071   5.023   6.426 -0.3565  0.2534  0.0756
  647MOL0     C87276   4.126   4.903   6.392 -0.0399 -0.1911 -0.0348
  647MOL0     C87277   4.084   4.797   6.492  0.7748  0.5352  0.5975
  647MOL0     H87278   4.430   4.544   6.240 -0.1826  0.6589  1.0558
  647MOL0     H87279   4.411   4.316   6.120 -1.6389 -0.6090 -0.5658
  647MOL0     H87280   4.551   4.253   5.901  0.5883 -2.1451  0.4503
  647MOL0     H87281   4.433   4.164   5.988  0.2604 -0.1770  1.3832
  647MOL0     H87282   4.537   4.015   5.836 -1.6391 -0.9333  1.3055
  647MOL0     H87283   4.556   4.134   5.710 -0.9249  3.2920  0.1733
  647MOL0     H87284   4.308   4.114   5.650 -0.4213 -0.5727 -1.2950
  647MOL0     H87285   4.310   3.986   5.778  1.2804 -4.4496 -1.5689
  647MOL0     H87286   4.455   3.988   5.514  3.6281 -1.3055  0.3421
  647MOL0     H87287   4.486   3.868   5.634 -0.5084 -1.0762 -1.3613
  647MOL0     H87288   4.247   3.808   5.650 -0.6155 -1.0230 -0.5055
  647MOL0     H87289   4.212   3.892   5.493 -1.1966  1.7192  2.7789
  647MOL0     H87290   4.374   3.646   5.560 -1.7608  2.3668  1.5420
  647MOL0     H87291   4.242   3.665   5.459 -3.0863  4.9065 -2.3840
  647MOL0     H87292   4.514   3.806   5.388 -1.6251  1.9497  1.1777
  647MOL0     H87293   4.362   3.819   5.299 -1.8464  0.0907  2.2252
  647MOL0     H87294   4.533   3.655   5.195  0.5315  0.6122  1.0942
  647MOL0     H87295   4.553   3.578   5.349 -0.2769 -1.0757  0.1459
  647MOL0     H87296   4.357   3.563   5.029  0.4004 -0.7658  0.5985
  647MOL0     H87297   4.274   3.305   4.923 -0.8866 -0.9526 -0.5244
  647MOL0     H87298   4.178   3.208   5.038 -2.8123  1.2059  1.8751
  647MOL0     H87299   3.997   3.381   5.042 -0.6548  1.9357 -0.7573
  647MOL0     H87300   4.072   3.459   4.917 -0.9271  0.6536  2.4028
  647MOL0     H87301   3.981   3.172   4.901 -0.1603 -1.0155 -3.2125
  647MOL0     H87302   4.096   3.232   4.781 -0.2629 -1.8921  0.0402
  647MOL0     H87303   3.880   3.310   4.680  0.8102 -0.8670  0.5125
  647MOL0     H87304   3.940   3.451   4.761 -0.6406  0.3469 -3.8965
  647MOL0     H87305   3.841   3.112   4.716 -1.3577 -1.7483 -1.6386
  647MOL0     H87306   3.733   2.903   4.762 -0.3895  1.2478 -3.2757
  647MOL0     H87307   3.405   2.664   5.122  1.7704  0.0394 -1.6949
  647MOL0     H87308   3.276   2.459   5.117 -0.7506  0.5497  2.6931
  647MOL0     H87309   3.192   2.269   4.961 -0.9650 -1.4069 -1.8643
  647MOL0     H87310   3.094   2.287   5.108  0.2680  1.3811  0.1318
  647MOL0     H87311   2.983   2.201   4.825  1.2507  1.0773 -0.0813
  647MOL0     H87312   3.066   2.087   4.912  1.9738  2.2482 -0.7548
  647MOL0     H87313   2.831   2.042   4.947  1.1710  1.0280 -1.9730
  647MOL0     H87314   2.886   2.078   5.100  0.1366 -1.8394 -0.5567
  647MOL0     H87315   2.742   2.270   4.912 -1.2178  0.5898  0.0879
  647MOL0     H87316   2.825   2.335   5.063 -0.4890  0.6606  0.0308
  647MOL0     H87317   2.659   2.135   5.159  1.2022 -1.2704 -0.9890
  647MOL0     H87318   2.590   2.150   4.999 -0.1505 -0.4256  1.0371
  647MOL0     H87319   2.645   2.381   5.191  1.3433 -2.8316  1.9084
  647MOL0     H87320   2.547   2.402   5.043 -2.9188  1.0316  2.2708
  647MOL0     H87321   2.492   2.241   5.281  1.6267 -1.1546 -1.6969
  647MOL0     H87322   2.366   2.263   5.158 -2.4470  0.4938  3.3841
  647MOL0     H87323   2.350   2.449   5.348 -0.8461  0.4240  0.1733
  647MOL0     H87324   2.505   2.502   5.302  0.5140 -0.7459  1.5150
  647MOL0     H87325   3.003   2.650   4.829 -0.9555 -3.0565 -0.0342
  647MOL0     H87326   3.129   2.831   4.823 -2.9504 -1.2238  1.1302
  647MOL0     H87327   3.446   3.095   5.025  0.2339  3.2898  0.6610
  647MOL0     H87328   3.584   3.308   4.989  4.1270  0.0936  1.3235
  647MOL0     H87329   4.296   4.517   5.763  1.7350  0.3121 -0.1725
  647MOL0     H87330   4.271   4.717   5.886 -0.4086  0.1052  1.6672
  647MOL0     H87331   4.338   4.997   6.147 -0.4545 -2.5095  0.0359
  647MOL0     H87332   4.248   5.232   6.220 -0.0755  0.9957  2.5603
  647MOL0     H87333   4.044   5.284   6.569 -0.8788 -0.4959  0.8914
  647MOL0     H87334   3.913   5.224   6.483  1.9953 -1.8709  0.5378
  647MOL0     H87335   3.999   5.509   6.455 -0.5499 -0.3516  1.7314
  647MOL0     H87336   3.881   5.463   6.563 -0.2721  1.9281 -1.0322
  647MOL0     H87337   3.814   5.334   6.292  0.1305 -0.7282  0.4367
  647MOL0     H87338   3.844   5.505   6.284  1.7052 -1.0721 -0.1550
  647MOL0     H87339   3.658   5.528   6.455 -1.3299  0.7141 -1.1969
  647MOL0     H87340   3.595   5.425   6.339 -0.4708  1.0132  0.4905
  647MOL0     H87341   3.609   5.159   6.668 -5.2234  1.3682  0.6783
  647MOL0     H87342   3.994   5.034   6.502  0.2116 -0.6127  0.7818
  647MOL0     H87343   3.990   4.745   6.471  0.4192  0.8466  1.3444
  647MOL0     H87344   4.163   4.722   6.494 -0.2069 -0.5495 -0.3798
  647MOL0     H87345   4.079   4.845   6.591  1.7152  0.4025  0.7146
  648MOL0     O87346  11.433   4.713   5.839 -0.2207 -0.0895  0.3744
  648MOL0     C87347  11.470   4.770   5.938 -0.6837 -0.0398  0.0672
  648MOL0     O87348  11.405   4.757   6.057 -0.1575  0.0966 -0.0473
  648MOL0     C87349  11.289   4.682   6.060 -1.0384  0.0785 -0.9199
  648MOL0     C87350  11.182   4.712   5.980  0.8059 -0.8543  0.2868
  648MOL0     C87351  11.071   4.622   5.976 -0.3992  0.9816 -0.1468
  648MOL0     C87352  11.086   4.499   6.053  0.3865  0.6565  0.8074
  648MOL0     O87353  10.991   4.397   6.055  0.5178 -0.1567 -0.1220
  648MOL0     C87354  10.856   4.417   6.005  0.4472  1.0863  0.9738
  648MOL0     C87355  10.757   4.318   6.070  0.1040 -0.3565 -0.0140
  648MOL0     C87356  10.805   4.177   6.063  0.4830  0.1138  0.5727
  648MOL0     C87357  10.688   4.090   6.099  0.0763  0.5332  0.3083
  648MOL0     C87358  10.708   3.945   6.063 -0.0724  0.5438  0.2293
  648MOL0     C87359  10.709   3.930   5.899  0.2176  0.6679 -0.0705
  648MOL0     C87360  10.656   3.796   5.855 -0.0440 -0.0421 -0.3792
  648MOL0     C87361  10.757   3.679   5.859 -0.1651  0.4409 -0.0179
  648MOL0     N87362  10.877   3.712   5.777  0.7990  0.0029  0.4254
  648MOL0     C87363  11.003   3.696   5.796 -0.4703 -0.1835  0.3053
  648MOL0     C87364  11.073   3.725   5.682 -0.3047 -0.3029  0.7765
  648MOL0     C87365  11.222   3.723   5.658 -0.8295  0.7015  0.6053
  648MOL0     C87366  11.257   3.862   5.606 -0.0909 -0.6723 -0.0939
  648MOL0     C87367  11.407   3.882   5.574 -0.2425 -0.6967 -0.0757
  648MOL0     C87368  11.511   3.887   5.694 -0.1847  0.5770 -0.2420
  648MOL0     O87369  11.640   3.917   5.631 -0.0682 -0.3211 -0.2531
  648MOL0     C87370  11.656   4.057   5.605 -0.3041  0.2483  0.0576
  648MOL0     C87371  11.639   4.164   5.689  0.1457  0.9292 -1.0464
  648MOL0     C87372  11.674   4.300   5.650  0.4949 -0.4809 -0.3361
  648MOL0     C87373  11.693   4.330   5.517  0.0819 -1.1222  0.1644
  648MOL0     C87374  11.686   4.466   5.471  0.4455 -1.1520  0.5108
  648MOL0     O87375  11.804   4.500   5.413 -0.3243 -0.4263  0.5064
  648MOL0     C87376  11.833   4.631   5.386 -0.0164 -0.7106 -0.5221
  648MOL0     C87377  11.955   4.685   5.435  0.9452 -0.1308  0.0395
  648MOL0     C87378  11.967   4.824   5.423  0.2187  0.1596  0.6720
  648MOL0     C87379  11.879   4.903   5.355 -1.2288 -0.7768 -0.6957
  648MOL0     O87380  11.899   5.037   5.349 -0.2242  0.2070 -0.8745
  648MOL0     C87381  11.885   5.087   5.211 -0.4356 -0.1864  0.9129
  648MOL0     C87382  11.914   5.236   5.211  0.1685 -1.1896  0.2256
  648MOL0     C87383  12.053   5.262   5.195 -0.1836  0.4929  0.2767
  648MOL0     C87384  12.132   5.262   5.327 -0.0151  0.0700 -0.1467
  648MOL0     C87385  12.278   5.289   5.295 -0.2534  0.2200  0.4269
  648MOL0     C87386  12.308   5.431   5.232  0.0906 -0.0410 -0.1317
  648MOL0     C87387  12.354   5.430   5.085  0.1325 -0.1363 -0.9147
  648MOL0     C87388  12.408   5.576   5.050  0.3950  0.2437 -0.0942
  648MOL0    Cl87389  12.288   5.702   5.096  0.0145 -0.4913  0.4518
  648MOL0     C87390  11.759   4.847   5.304 -0.1829 -0.1174 -0.4610
  648MOL0     C87391  11.736   4.713   5.320 -0.6042  0.9551 -0.0004
  648MOL0     O87392  11.599   4.545   5.509 -0.5615 -0.4855  0.5967
  648MOL0     C87393  11.707   4.219   5.434 -0.5188  0.2855 -1.0445
  648MOL0     C87394  11.689   4.082   5.478 -0.7860 -0.0469 -0.1700
  648MOL0     N87395  10.984   3.751   5.586 -0.0416 -1.5845  0.5335
  648MOL0     N87396  10.864   3.752   5.646  0.1180 -0.6893 -0.4437
  648MOL0     C87397  11.197   4.472   6.118 -0.4319 -0.5131 -1.3038
  648MOL0     C87398  11.307   4.561   6.129  0.1113 -0.3592 -1.4346
  648MOL0     C87399  11.582   4.863   5.930 -0.4047  1.5369  1.0482
  648MOL0     C87400  11.611   4.942   6.045 -0.0343 -0.4077 -0.3208
  648MOL0     C87401  11.716   5.034   6.055 -0.1746  0.8735 -0.0207
  648MOL0     C87402  11.802   5.043   5.946 -1.1551 -0.5865  0.0653
  648MOL0     O87403  11.910   5.136   5.930  0.1002  0.1366  1.0581
  648MOL0     C87404  11.948   5.229   6.030  0.3789  0.0146 -0.1380
  648MOL0     C87405  12.005   5.353   5.958  0.6024 -0.4188 -0.2228
  648MOL0     C87406  12.153   5.325   5.920  0.6778 -0.4731  0.2841
  648MOL0     C87407  12.189   5.409   5.801  0.5884 -0.5050 -0.1189
  648MOL0     C87408  12.242   5.544   5.832  0.3693  0.0712  0.4429
  648MOL0     C87409  12.307   5.641   5.870 -0.2914 -0.0523  0.1187
  648MOL0     C87410  11.778   4.978   5.824 -0.5500  0.3134 -0.0932
  648MOL0     C87411  11.677   4.877   5.823 -0.0387  0.0154 -0.2054
  648MOL0     C87412  11.673   4.771   5.708  0.0087 -0.2301  0.8513
  648MOL0     H87413  11.186   4.803   5.920  0.8628  1.5039  3.5406
  648MOL0     H87414  10.985   4.636   5.910 -2.5810 -0.6695  2.1672
  648MOL0     H87415  10.819   4.518   6.026  0.6255  0.9075  2.1728
  648MOL0     H87416  10.861   4.394   5.898  3.7766 -2.7439  1.7394
  648MOL0     H87417  10.665   4.323   6.011 -0.1124  0.2261  0.3646
  648MOL0     H87418  10.759   4.352   6.174  2.0325  0.3838 -0.2362
  648MOL0     H87419  10.889   4.153   6.129 -0.3274 -0.2153  1.5110
  648MOL0     H87420  10.821   4.159   5.956 -0.6954  0.1765  0.3713
  648MOL0     H87421  10.683   4.092   6.208  4.3590 -5.9104  1.1621
  648MOL0     H87422  10.591   4.121   6.060  0.0627  0.5481  0.3500
  648MOL0     H87423  10.794   3.896   6.109  1.3594  0.4428 -2.3210
  648MOL0     H87424  10.609   3.906   6.087  0.5932 -2.4615 -1.4101
  648MOL0     H87425  10.647   4.004   5.848 -1.3912 -0.6113 -0.0590
  648MOL0     H87426  10.811   3.944   5.863  0.7564 -0.8057  0.7902
  648MOL0     H87427  10.620   3.816   5.753 -3.6625  3.6970  1.3612
  648MOL0     H87428  10.568   3.773   5.915  1.0792  0.1134  1.4071
  648MOL0     H87429  10.782   3.658   5.964 -1.2170  1.4965  0.4769
  648MOL0     H87430  10.709   3.588   5.823  0.8160 -0.2060  0.2555
  648MOL0     H87431  11.049   3.671   5.891  0.0097  2.3847  0.8230
  648MOL0     H87432  11.285   3.706   5.745 -3.0643 -3.2850  1.7100
  648MOL0     H87433  11.234   3.637   5.592 -0.7923 -0.4151  2.0229
  648MOL0     H87434  11.202   3.889   5.515  3.3839  1.5962 -1.7887
  648MOL0     H87435  11.230   3.946   5.672  2.3677  1.4622 -1.5686
  648MOL0     H87436  11.421   3.981   5.528  4.5504 -0.1106  2.0389
  648MOL0     H87437  11.445   3.804   5.507  0.2663 -0.1507 -0.4317
  648MOL0     H87438  11.518   3.789   5.740  0.6526  1.8257  2.4729
  648MOL0     H87439  11.484   3.960   5.771 -1.5325  0.6753 -0.7741
  648MOL0     H87440  11.615   4.141   5.792 -0.5947 -0.3547 -1.4855
  648MOL0     H87441  11.656   4.386   5.715  0.0998 -0.0908 -0.9479
  648MOL0     H87442  12.035   4.630   5.484  0.8544 -0.4126 -0.1266
  648MOL0     H87443  12.056   4.866   5.468  2.0379 -1.0455 -1.5800
  648MOL0     H87444  11.950   5.028   5.147  0.0486  2.3872 -1.1259
  648MOL0     H87445  11.779   5.084   5.182 -0.0950 -2.2419 -0.2706
  648MOL0     H87446  11.855   5.277   5.128  0.5888 -2.6820 -0.8522
  648MOL0     H87447  11.879   5.296   5.296  1.0765  0.2333 -0.3721
  648MOL0     H87448  12.105   5.208   5.116  0.9844 -0.7452  1.8380
  648MOL0     H87449  12.062   5.365   5.159  0.6106  0.6885  0.9917
  648MOL0     H87450  12.112   5.164   5.373  0.3202 -0.2504 -0.6662
  648MOL0     H87451  12.101   5.339   5.398 -1.5625 -1.1630  0.5900
  648MOL0     H87452  12.350   5.222   5.247 -0.8373  1.7970 -2.9424
  648MOL0     H87453  12.327   5.293   5.393 -0.6075  1.2142  0.5795
  648MOL0     H87454  12.217   5.493   5.227 -0.2644 -0.6632 -1.9030
  648MOL0     H87455  12.385   5.473   5.298 -0.7883  1.3475  0.0502
  648MOL0     H87456  12.273   5.403   5.016  0.4114  0.5380 -1.5187
  648MOL0     H87457  12.439   5.362   5.077 -0.6089 -1.3581  0.9345
  648MOL0     H87458  12.502   5.595   5.101 -0.8922  2.1722  1.6885
  648MOL0     H87459  12.435   5.586   4.944  2.5564 -0.1461  0.3723
  648MOL0     H87460  11.687   4.920   5.268 -0.3340  1.0543  1.9771
  648MOL0     H87461  11.649   4.656   5.287  1.2218 -1.2873 -1.2597
  648MOL0     H87462  11.710   4.240   5.328  1.5389  2.1963 -0.6750
  648MOL0     H87463  11.700   4.004   5.404 -0.9138  1.5289 -1.9229
  648MOL0     H87464  11.209   4.376   6.167 -2.5860 -0.1548  0.0532
  648MOL0     H87465  11.388   4.532   6.195 -1.8005 -1.2076  0.6803
  648MOL0     H87466  11.548   4.937   6.133 -1.4709  1.8156 -1.1476
  648MOL0     H87467  11.732   5.078   6.153 -3.6879 -1.7116  1.9685
  648MOL0     H87468  12.016   5.184   6.102 -0.0853  1.7337  1.4531
  648MOL0     H87469  11.857   5.260   6.082 -0.2559 -0.6400 -0.8125
  648MOL0     H87470  12.002   5.449   6.011 -1.8218 -0.9969  0.7966
  648MOL0     H87471  11.941   5.377   5.872 -2.5896 -2.3543  1.4213
  648MOL0     H87472  12.160   5.223   5.882  0.8841  0.5092 -2.5576
  648MOL0     H87473  12.220   5.341   6.005  0.3586 -0.4026  0.5230
  648MOL0     H87474  12.266   5.361   5.739 -1.6725  1.1284 -4.7274
  648MOL0     H87475  12.103   5.423   5.734  0.2401  1.5555  0.7074
  648MOL0     H87476  12.360   5.728   5.903  2.1893 -0.8197 -1.5910
  648MOL0     H87477  11.848   4.991   5.743  2.7178 -0.5610  2.3341
  648MOL0     H87478  11.669   4.666   5.738  0.1243  0.1825  2.3781
  648MOL0     H87479  11.592   4.793   5.638 -0.1808 -0.7984  0.8826
  648MOL0     H87480  11.761   4.775   5.643 -0.9956  2.3831 -0.5191
  649MOL0     O87481   0.652   7.371  10.433  0.2305  0.4831  0.0097
  649MOL0     C87482   0.698   7.415  10.532 -0.6155 -0.0019  0.6499
  649MOL0     O87483   0.621   7.460  10.634 -0.3045  1.0480  0.4524
  649MOL0     C87484   0.518   7.548  10.594 -0.9378 -0.3275  0.1705
  649MOL0     C87485   0.392   7.544  10.649 -0.6902 -0.1964  0.7349
  649MOL0     C87486   0.285   7.609  10.585  0.4908 -0.7645  0.2219
  649MOL0     C87487   0.309   7.692  10.476  0.6820  0.5418 -0.3077
  649MOL0     O87488   0.198   7.761  10.420 -0.5422  0.4710 -0.2471
  649MOL0     C87489   0.221   7.839  10.298  0.1348  0.2954 -0.2891
  649MOL0     C87490   0.089   7.901  10.249  0.8709  0.0304 -0.1323
  649MOL0     C87491   0.074   8.045  10.263 -0.3184 -0.3112 -0.0916
  649MOL0     C87492  -0.043   8.112  10.182 -0.1445 -0.0945 -0.7620
  649MOL0     C87493  -0.050   8.264  10.200 -0.0222  0.2224  0.0479
  649MOL0     C87494   0.057   8.333  10.115 -0.0161 -0.0571  1.0042
  649MOL0     C87495   0.032   8.483  10.104  0.2168 -0.5136 -0.3529
  649MOL0     C87496   0.067   8.570  10.230  0.5030  0.2323 -0.0325
  649MOL0     N87497   0.213   8.611  10.250 -0.0984  0.2124  0.4130
  649MOL0     C87498   0.270   8.732  10.232 -0.1021 -0.2710 -0.0790
  649MOL0     C87499   0.403   8.698  10.247 -0.2629 -0.7130  0.2722
  649MOL0     C87500   0.525   8.800  10.240 -0.4797  0.2167  0.7343
  649MOL0     C87501   0.607   8.797  10.372  0.3129  0.1316 -1.7283
  649MOL0     C87502   0.518   8.757  10.499 -0.0332  0.1771 -0.3778
  649MOL0     C87503   0.573   8.806  10.631  0.8162  0.0977 -1.0318
  649MOL0     O87504   0.579   8.953  10.639 -0.2226 -0.4858 -0.0495
  649MOL0     C87505   0.655   9.007  10.735 -0.7041 -0.6348 -0.0515
  649MOL0     C87506   0.662   9.150  10.736  0.7033  0.0454 -0.1804
  649MOL0     C87507   0.741   9.219  10.825  0.1983 -0.3601  0.2079
  649MOL0     C87508   0.833   9.148  10.905  0.9503  0.2212 -1.0857
  649MOL0     C87509   0.908   9.214  11.016  0.1396  0.1065  0.0638
  649MOL0     O87510   0.925   9.140  11.134  1.1932  0.1147 -0.9952
  649MOL0     C87511   1.020   9.173  11.230  0.0284 -0.6277 -0.3329
  649MOL0     C87512   1.151   9.138  11.202 -0.3649 -0.7474 -0.5629
  649MOL0     C87513   1.258   9.184  11.281 -0.6808  0.0312  0.8656
  649MOL0     C87514   1.236   9.261  11.395  0.2062  0.0667 -1.0258
  649MOL0     O87515   1.337   9.311  11.481 -0.2393 -0.1328  0.0152
  649MOL0     C87516   1.468   9.264  11.469  0.0603  0.1921  0.7249
  649MOL0     C87517   1.529   9.269  11.602 -0.4327 -0.3000 -1.3233
  649MOL0     C87518   1.480   9.148  11.681 -0.1028 -0.5822 -0.2052
  649MOL0     C87519   1.530   9.153  11.820  0.3584  0.4010 -1.3274
  649MOL0     C87520   1.414   9.205  11.913  1.1327 -0.3965  0.4571
  649MOL0     C87521   1.464   9.230  12.051  0.4806 -0.8309  0.3228
  649MOL0     C87522   1.349   9.253  12.149 -0.2778 -0.2014 -0.3043
  649MOL0     C87523   1.386   9.312  12.278 -0.1294 -0.4288 -0.0592
  649MOL0    Cl87524   1.528   9.235  12.359 -0.0816  0.0400  0.0685
  649MOL0     C87525   1.103   9.305  11.419  1.3718  0.7781 -0.3678
  649MOL0     C87526   0.992   9.269  11.340 -1.4505  0.6911 -0.3436
  649MOL0     O87527   0.920   9.334  11.016  0.4284  0.6708 -0.1520
  649MOL0     C87528   0.838   9.007  10.907 -0.0114 -0.2381  0.1861
  649MOL0     C87529   0.748   8.940  10.827  0.7267  0.3316 -0.5096
  649MOL0     N87530   0.416   8.564  10.265  0.3567  0.5194 -0.2155
  649MOL0     N87531   0.303   8.505  10.272  0.7757 -0.0506  0.0703
  649MOL0     C87532   0.440   7.701  10.421 -1.3236  0.9645  0.8643
  649MOL0     C87533   0.545   7.634  10.486 -0.3590 -0.0149  0.5977
  649MOL0     C87534   0.845   7.435  10.537  0.3148 -0.2583 -0.3370
  649MOL0     C87535   0.890   7.542  10.598  0.4038 -0.5079  0.1193
  649MOL0     C87536   1.018   7.598  10.578  0.0360 -1.0412 -0.0648
  649MOL0     C87537   1.108   7.520  10.492 -0.4287 -1.1029 -0.1537
  649MOL0     O87538   1.236   7.569  10.440 -0.1046 -0.9497  0.4330
  649MOL0     C87539   1.293   7.694  10.496 -0.5469 -0.4749  0.1258
  649MOL0     C87540   1.416   7.743  10.430 -0.1207 -0.2012 -0.4986
  649MOL0     C87541   1.441   7.895  10.435  0.2947  0.1941 -0.2391
  649MOL0     C87542   1.548   7.950  10.337 -0.3553  1.4884  1.0069
  649MOL0     C87543   1.580   8.089  10.345 -0.2496  0.8233 -0.5234
  649MOL0     C87544   1.621   8.202  10.336 -1.1230  0.1606  0.4925
  649MOL0     C87545   1.060   7.396  10.453  0.1931  0.6605  0.9692
  649MOL0     C87546   0.935   7.351  10.475 -0.6937  1.2181  0.5576
  649MOL0     C87547   0.913   7.213  10.418 -0.3808  0.0267 -0.1507
  649MOL0     H87548   0.376   7.491  10.742  1.4869 -0.5250  0.9834
  649MOL0     H87549   0.185   7.605  10.628  0.2747  0.6247 -0.0974
  649MOL0     H87550   0.294   7.917  10.323  3.0335 -2.0456 -0.8024
  649MOL0     H87551   0.263   7.794  10.208 -1.1886 -4.1121  1.0373
  649MOL0     H87552   0.012   7.841  10.299  0.3045  1.2688  0.5317
  649MOL0     H87553   0.084   7.882  10.141  4.8125 -2.8848 -0.0275
  649MOL0     H87554   0.158   8.107  10.229  0.6718 -1.2640  0.5848
  649MOL0     H87555   0.052   8.054  10.370  0.9199 -1.3858  0.2709
  649MOL0     H87556  -0.030   8.101  10.074  0.8991  1.1583 -0.8019
  649MOL0     H87557  -0.140   8.072  10.213 -0.9218  1.2345 -1.3732
  649MOL0     H87558  -0.150   8.295  10.166 -0.8285  1.1049  2.9687
  649MOL0     H87559  -0.028   8.294  10.303 -0.8172  1.7519 -0.2065
  649MOL0     H87560   0.155   8.336  10.165  1.1800  1.5577 -1.2292
  649MOL0     H87561   0.061   8.284  10.017  0.3062  3.0196 -0.6501
  649MOL0     H87562  -0.075   8.487  10.078 -0.0939  0.3065  0.9674
  649MOL0     H87563   0.077   8.533  10.018  2.9754 -1.4018  0.4770
  649MOL0     H87564   0.004   8.659  10.236  2.2634  1.5113  0.3113
  649MOL0     H87565   0.044   8.507  10.317 -0.7509 -0.8701 -1.1127
  649MOL0     H87566   0.229   8.828  10.203 -1.4247 -0.6556  0.4889
  649MOL0     H87567   0.586   8.779  10.152 -1.5946 -1.3620  0.2886
  649MOL0     H87568   0.499   8.907  10.239 -0.2837  0.2610  0.4326
  649MOL0     H87569   0.694   8.732  10.370  0.8190  0.8050 -2.3972
  649MOL0     H87570   0.637   8.900  10.394 -1.9709  0.7312 -1.1047
  649MOL0     H87571   0.510   8.648  10.501 -1.1168  0.1637 -2.4007
  649MOL0     H87572   0.421   8.808  10.506 -0.6572 -1.1637  1.8005
  649MOL0     H87573   0.673   8.764  10.640  0.2174 -1.3095 -0.7693
  649MOL0     H87574   0.519   8.757  10.712  0.1329  1.8793 -0.3483
  649MOL0     H87575   0.619   9.205  10.652  0.0372 -1.7009 -1.0204
  649MOL0     H87576   0.768   9.324  10.825  2.6027 -0.9113 -1.2843
  649MOL0     H87577   1.174   9.073  11.117 -1.5475 -1.3176 -0.4634
  649MOL0     H87578   1.357   9.150  11.251 -2.0217 -4.2286  0.6938
  649MOL0     H87579   1.466   9.160  11.436  2.4949  0.3730 -0.2722
  649MOL0     H87580   1.517   9.326  11.393 -1.4657  2.4005  1.4518
  649MOL0     H87581   1.637   9.279  11.593 -0.6896  1.8099 -2.8503
  649MOL0     H87582   1.494   9.364  11.645  0.3932 -0.6288  0.1506
  649MOL0     H87583   1.373   9.125  11.684  0.1788 -1.9510  0.9673
  649MOL0     H87584   1.516   9.061  11.625 -0.5117 -1.1224  0.3516
  649MOL0     H87585   1.621   9.209  11.842  0.4538 -0.3080  0.2316
  649MOL0     H87586   1.555   9.053  11.857  3.6701  1.5865  0.0580
  649MOL0     H87587   1.326   9.141  11.911 -0.8714  1.8866  4.1765
  649MOL0     H87588   1.380   9.303  11.879  2.5698  1.0785  2.9423
  649MOL0     H87589   1.522   9.142  12.081  2.3980 -0.5655 -2.2283
  649MOL0     H87590   1.541   9.308  12.047 -1.2448  1.1200  2.0286
  649MOL0     H87591   1.293   9.164  12.180 -2.2465  1.2664  0.5704
  649MOL0     H87592   1.273   9.319  12.105  1.8214  2.2066 -0.5198
  649MOL0     H87593   1.413   9.414  12.250 -1.0106 -0.5805 -1.6040
  649MOL0     H87594   1.306   9.317  12.353  1.0532  1.2485  1.1545
  649MOL0     H87595   1.082   9.383  11.492 -0.8300  1.5508 -1.7212
  649MOL0     H87596   0.898   9.320  11.357 -1.8465 -0.1663  0.0457
  649MOL0     H87597   0.902   8.953  10.976 -0.0204 -1.2314 -0.5664
  649MOL0     H87598   0.757   8.832  10.814  0.6536 -0.2008  2.8952
  649MOL0     H87599   0.458   7.772  10.341 -0.0680  1.0988  1.2329
  649MOL0     H87600   0.650   7.642  10.457 -0.4273 -0.6360  0.1403
  649MOL0     H87601   0.812   7.593  10.654  2.4422  0.6270  2.0253
  649MOL0     H87602   1.040   7.699  10.609  0.7848 -1.5619  1.2047
  649MOL0     H87603   1.314   7.683  10.602  1.7806  0.7055 -0.1604
  649MOL0     H87604   1.213   7.767  10.482 -0.7579 -1.0017 -1.7081
  649MOL0     H87605   1.406   7.707  10.327 -0.1881 -2.6747  0.2940
  649MOL0     H87606   1.506   7.696  10.472  0.4438  1.5522  0.3176
  649MOL0     H87607   1.464   7.914  10.541  2.1937 -0.7952 -0.4396
  649MOL0     H87608   1.345   7.941  10.407 -0.2700  0.1200  1.4478
  649MOL0     H87609   1.633   7.885  10.356  0.4504  0.7461 -3.7657
  649MOL0     H87610   1.508   7.932  10.236  2.9582 -2.1544  0.1200
  649MOL0     H87611   1.659   8.300  10.317  0.2605 -0.3054  0.7495
  649MOL0     H87612   1.128   7.332  10.397 -1.1273  0.6304 -0.6802
  649MOL0     H87613   1.007   7.163  10.392  0.3108 -0.4271  2.8468
  649MOL0     H87614   0.882   7.161  10.509  0.7198  1.2822  0.9787
  649MOL0     H87615   0.834   7.228  10.343 -4.7089  2.0885  4.2740
  650MOL0     O87616   1.236   3.097  10.223 -0.0984 -0.4538  0.6151
  650MOL0     C87617   1.311   3.173  10.165  1.0873  0.9392 -0.2350
  650MOL0     O87618   1.302   3.191  10.029 -0.1102  0.0863 -0.1635
  650MOL0     C87619   1.194   3.160   9.956 -0.0114 -0.1028  0.0243
  650MOL0     C87620   1.209   3.090   9.836 -0.4829  0.0981  0.9636
  650MOL0     C87621   1.102   3.047   9.757 -1.3921 -0.5937  0.3216
  650MOL0     C87622   0.971   3.091   9.785 -0.4238 -1.5060 -0.3648
  650MOL0     O87623   0.866   3.041   9.704  0.6684 -0.8553 -0.2899
  650MOL0     C87624   0.795   2.927   9.752  0.3622  1.2282 -0.3421
  650MOL0     C87625   0.655   2.917   9.691  0.0307 -0.2087  0.0251
  650MOL0     C87626   0.665   2.890   9.540 -0.1612  0.6975  0.9374
  650MOL0     C87627   0.527   2.841   9.485  0.5706  0.0541 -0.2325
  650MOL0     C87628   0.505   2.869   9.340 -0.4859 -0.2310 -0.5222
  650MOL0     C87629   0.605   2.804   9.253 -0.5951  0.1378 -0.5543
  650MOL0     C87630   0.571   2.820   9.102  0.9214 -0.1063 -0.6286
  650MOL0     C87631   0.682   2.775   9.010 -0.6377 -0.9454  0.5028
  650MOL0     N87632   0.680   2.633   8.985 -0.1092 -0.1042  0.4416
  650MOL0     C87633   0.724   2.577   8.860  0.5017 -0.6088 -0.6421
  650MOL0     C87634   0.686   2.451   8.871  0.5250 -0.5657 -0.1913
  650MOL0     C87635   0.715   2.342   8.771  0.5458 -0.4757  0.0500
  650MOL0     C87636   0.842   2.359   8.688  0.8058 -0.8178  0.4113
  650MOL0     C87637   0.876   2.244   8.598 -0.5492 -0.1502  0.2188
  650MOL0     C87638   1.018   2.236   8.570 -0.5338  0.1144 -0.3351
  650MOL0     O87639   1.048   2.115   8.491 -0.4597 -0.3896 -0.4168
  650MOL0     C87640   1.171   2.113   8.430  0.2714  0.8286 -0.0282
  650MOL0     C87641   1.195   2.192   8.323  0.2454 -0.5978 -0.1671
  650MOL0     C87642   1.321   2.191   8.252  0.4004  0.5514 -0.4330
  650MOL0     C87643   1.429   2.108   8.300  0.8942  0.7929 -0.0276
  650MOL0     C87644   1.559   2.116   8.236  0.1791 -0.5801  0.1662
  650MOL0     O87645   1.594   2.229   8.185 -0.1974 -0.4098  0.3170
  650MOL0     C87646   1.717   2.247   8.115 -0.7038  0.2845  0.3751
  650MOL0     C87647   1.819   2.340   8.153 -0.6880  0.1391  0.0918
  650MOL0     C87648   1.943   2.340   8.095 -0.0584  1.1646 -0.9515
  650MOL0     C87649   1.964   2.263   7.973 -0.3349  0.0606  0.2795
  650MOL0     O87650   2.076   2.267   7.893  0.8725 -0.0602 -0.5163
  650MOL0     C87651   2.165   2.371   7.914  0.0213  0.9164  0.9423
  650MOL0     C87652   2.308   2.334   7.851  0.7557 -0.4983  0.5272
  650MOL0     C87653   2.306   2.334   7.703  0.0827  0.0234 -0.2609
  650MOL0     C87654   2.431   2.266   7.638 -0.8421 -0.2660 -0.2957
  650MOL0     C87655   2.573   2.321   7.683  0.1850  0.4339  0.3261
  650MOL0     C87656   2.620   2.442   7.607 -0.4145 -0.0992  0.4081
  650MOL0     C87657   2.772   2.466   7.621  0.1623 -0.1434 -0.4761
  650MOL0     C87658   2.846   2.544   7.505  0.7964 -0.6662  0.0896
  650MOL0    Cl87659   2.810   2.458   7.340 -0.2288  0.1104 -0.1478
  650MOL0     C87660   1.860   2.180   7.934  0.4807  0.3767  0.2757
  650MOL0     C87661   1.743   2.176   8.002  0.7184 -0.5492  1.0678
  650MOL0     O87662   1.624   2.013   8.240 -0.0637 -0.2670  0.2474
  650MOL0     C87663   1.409   2.029   8.413  1.2573 -0.1852  0.0155
  650MOL0     C87664   1.274   2.027   8.472  0.7869 -0.3591 -0.6939
  650MOL0     N87665   0.616   2.427   8.988  0.7808  0.8622 -0.1622
  650MOL0     N87666   0.623   2.535   9.063 -0.1398  1.8105  0.4009
  650MOL0     C87667   0.952   3.162   9.911  0.2555 -0.3464 -0.3722
  650MOL0     C87668   1.055   3.197   9.990 -0.0547 -0.3868  0.2863
  650MOL0     C87669   1.423   3.239  10.235  0.8125 -0.2024  0.6188
  650MOL0     C87670   1.480   3.177  10.348  0.4751 -1.8503 -0.2283
  650MOL0     C87671   1.581   3.244  10.417  0.6941  0.0603 -0.5282
  650MOL0     C87672   1.639   3.364  10.376 -0.6855  1.2930 -0.0790
  650MOL0     O87673   1.731   3.429  10.463  0.7706  0.2411 -0.1112
  650MOL0     C87674   1.775   3.570  10.449 -0.1811 -0.4478  0.2132
  650MOL0     C87675   1.902   3.583  10.547 -0.9373  0.0398  0.8855
  650MOL0     C87676   1.954   3.719  10.582  0.8646  0.4788  0.1454
  650MOL0     C87677   2.047   3.784  10.480 -0.1221 -0.4590 -0.3903
  650MOL0     C87678   1.984   3.807  10.342  0.4863  0.4006 -1.1657
  650MOL0     C87679   1.937   3.822  10.230  0.1623 -0.5400 -1.0214
  650MOL0     C87680   1.601   3.414  10.256 -0.7334 -0.2259  1.1372
  650MOL0     C87681   1.490   3.361  10.190 -0.8951 -0.1686  0.4607
  650MOL0     C87682   1.437   3.437  10.071  0.3741 -1.2077  0.7199
  650MOL0     H87683   1.306   3.054   9.805 -1.3092 -2.1965  0.7986
  650MOL0     H87684   1.107   2.976   9.675 -1.0708 -0.3346  0.1176
  650MOL0     H87685   0.844   2.831   9.733 -1.7927  0.1815 -1.0409
  650MOL0     H87686   0.779   2.927   9.861  0.2225 -1.3312 -0.3002
  650MOL0     H87687   0.596   3.009   9.687 -0.3515 -0.4586 -3.1619
  650MOL0     H87688   0.604   2.837   9.745  0.1422  0.1903  0.7223
  650MOL0     H87689   0.732   2.804   9.529 -1.9903 -0.3899 -4.6280
  650MOL0     H87690   0.701   2.980   9.489  1.1578 -0.1468  0.3270
  650MOL0     H87691   0.496   2.744   9.524 -0.2862  1.4126  2.7496
  650MOL0     H87692   0.463   2.911   9.540  3.2591  0.9999  1.9366
  650MOL0     H87693   0.415   2.814   9.312 -0.3244 -1.6501  1.5187
  650MOL0     H87694   0.493   2.976   9.322 -1.1547 -0.0210  1.0394
  650MOL0     H87695   0.700   2.850   9.279 -0.9754  1.0424 -0.7343
  650MOL0     H87696   0.621   2.699   9.280  3.4471  1.6055  4.1318
  650MOL0     H87697   0.546   2.925   9.082 -1.2732 -1.1792 -4.6423
  650MOL0     H87698   0.482   2.765   9.070 -0.9595  2.1462  0.5252
  650MOL0     H87699   0.675   2.821   8.911  2.1534  1.1529  1.1373
  650MOL0     H87700   0.783   2.792   9.049 -0.5933  0.6792 -0.2433
  650MOL0     H87701   0.776   2.626   8.778 -3.1317 -0.7840 -3.3237
  650MOL0     H87702   0.714   2.244   8.818 -3.7236 -1.6676 -2.0480
  650MOL0     H87703   0.623   2.338   8.712  0.9227  1.1928 -0.7205
  650MOL0     H87704   0.830   2.446   8.622 -2.4692 -0.0357  1.8727
  650MOL0     H87705   0.911   2.359   8.773 -0.7185 -3.1677  1.7356
  650MOL0     H87706   0.838   2.261   8.497 -3.7824  1.3567  1.5582
  650MOL0     H87707   0.835   2.147   8.629  1.3800 -0.5811  1.5982
  650MOL0     H87708   1.064   2.218   8.668 -3.2849  2.6663  1.6112
  650MOL0     H87709   1.056   2.326   8.521 -2.4855  1.3671  0.3565
  650MOL0     H87710   1.106   2.242   8.285  0.0157 -2.5228 -2.3643
  650MOL0     H87711   1.335   2.256   8.166 -1.9045  1.1365 -0.4178
  650MOL0     H87712   1.798   2.396   8.244 -3.9338 -0.9888  0.1691
  650MOL0     H87713   2.017   2.402   8.145 -0.2383  0.6445 -0.0206
  650MOL0     H87714   2.122   2.455   7.859  2.4710  2.6187  1.4681
  650MOL0     H87715   2.181   2.391   8.021 -3.1946 -0.9490  1.9216
  650MOL0     H87716   2.384   2.402   7.892  0.2889 -0.4186  1.2799
  650MOL0     H87717   2.335   2.239   7.897 -2.3279 -0.1689  3.3894
  650MOL0     H87718   2.220   2.280   7.661 -1.1678  2.3160 -0.8560
  650MOL0     H87719   2.309   2.436   7.663  0.4507  0.0357 -0.2013
  650MOL0     H87720   2.438   2.272   7.529  3.0593 -5.6133 -0.7628
  650MOL0     H87721   2.421   2.162   7.672 -2.5634  0.2787  1.0219
  650MOL0     H87722   2.639   2.234   7.673 -1.2452 -0.7777  1.0038
  650MOL0     H87723   2.561   2.344   7.789 -2.7656 -0.4032  0.2627
  650MOL0     H87724   2.600   2.436   7.500 -0.8216 -3.0139  0.5687
  650MOL0     H87725   2.574   2.535   7.640 -1.1939 -0.6710  0.9947
  650MOL0     H87726   2.831   2.374   7.633  2.1741  1.2611  1.1314
  650MOL0     H87727   2.793   2.523   7.712  2.3981 -1.3497 -0.1480
  650MOL0     H87728   2.801   2.643   7.507 -0.0312 -0.9603 -2.0172
  650MOL0     H87729   2.952   2.563   7.526  0.1670  2.2578  1.0502
  650MOL0     H87730   1.881   2.116   7.849 -2.2903  1.5449 -1.4415
  650MOL0     H87731   1.667   2.104   7.971 -0.7300  1.0347  0.7390
  650MOL0     H87732   1.492   1.970   8.452  2.0664  0.3389 -0.8678
  650MOL0     H87733   1.258   1.969   8.562  2.3660  0.2082 -0.0124
  650MOL0     H87734   0.857   3.208   9.935  1.5743  3.0811 -1.1311
  650MOL0     H87735   1.032   3.255  10.079 -1.6698 -0.2454 -0.1998
  650MOL0     H87736   1.437   3.087  10.390 -1.3675 -0.7107  0.4660
  650MOL0     H87737   1.607   3.198  10.511 -1.4394  0.6709  0.4154
  650MOL0     H87738   1.683   3.625  10.472 -0.4350 -1.4229  1.6301
  650MOL0     H87739   1.798   3.609  10.349  1.1896  1.0744  1.0770
  650MOL0     H87740   1.987   3.533  10.500  0.9446  4.5913 -1.2210
  650MOL0     H87741   1.876   3.526  10.636  0.3021 -3.2000 -0.6546
  650MOL0     H87742   2.023   3.716  10.667  1.3658 -0.6356 -0.2817
  650MOL0     H87743   1.873   3.790  10.603  1.9744  1.9351 -0.4114
  650MOL0     H87744   2.068   3.878  10.532  1.1119 -0.5394 -0.6948
  650MOL0     H87745   2.143   3.732  10.468 -0.7577 -2.0554  1.1837
  650MOL0     H87746   1.910   3.804  10.127 -0.8495 -0.9944 -0.6922
  650MOL0     H87747   1.649   3.504  10.221  1.5779 -2.2385 -1.3167
  650MOL0     H87748   1.334   3.473  10.059  0.8183 -0.0888  0.0386
  650MOL0     H87749   1.500   3.527  10.071 -1.3644  0.2092 -2.7803
  650MOL0     H87750   1.468   3.392   9.977 -0.4775  0.3971 -0.4011
  651MOL0     O87751   3.144  10.443   3.168  0.5347 -0.3057  0.4447
  651MOL0     C87752   3.240  10.498   3.119  0.6036  0.1435  0.4714
  651MOL0     O87753   3.254  10.628   3.132 -1.6520 -0.2256 -0.2701
  651MOL0     C87754   3.172  10.733   3.169  1.0506 -0.2959  0.3909
  651MOL0     C87755   3.231  10.861   3.184 -0.0125 -0.1198  0.1538
  651MOL0     C87756   3.143  10.968   3.212 -1.0591 -0.2227  0.5988
  651MOL0     C87757   3.004  10.950   3.216  0.8652 -0.4030  0.3015
  651MOL0     O87758   2.925  11.061   3.242 -0.7065 -0.4741  0.6009
  651MOL0     C87759   2.803  11.043   3.323 -0.5043  0.9695 -0.2631
  651MOL0     C87760   2.833  11.020   3.469 -0.1798  0.1641 -0.7433
  651MOL0     C87761   2.700  11.008   3.554 -0.1813  0.2205  0.0191
  651MOL0     C87762   2.663  11.137   3.632 -0.0623  0.2254 -0.8066
  651MOL0     C87763   2.589  11.111   3.766 -0.3480  0.8112 -0.8058
  651MOL0     C87764   2.678  11.077   3.885 -0.2664 -0.6922 -0.3745
  651MOL0     C87765   2.675  10.935   3.914 -0.1029  0.2422  0.8360
  651MOL0     C87766   2.747  10.918   4.047 -0.1521  0.3524  0.7699
  651MOL0     N87767   2.787  10.793   4.099  1.3071  0.3171  0.5377
  651MOL0     C87768   2.866  10.778   4.204  0.4062  0.2457  0.6262
  651MOL0     C87769   2.934  10.667   4.185 -0.2181 -0.0591 -0.6277
  651MOL0     C87770   3.046  10.619   4.274 -0.4968 -0.1013  0.3862
  651MOL0     C87771   2.990  10.596   4.411  0.4121  0.0986  0.2279
  651MOL0     C87772   2.899  10.474   4.419 -0.1322 -0.1609  0.8674
  651MOL0     C87773   2.846  10.461   4.560  0.4434  0.1806  0.0207
  651MOL0     O87774   2.750  10.357   4.554 -0.0715  0.1082  0.0874
  651MOL0     C87775   2.704  10.320   4.672 -0.8739  0.5238 -0.5904
  651MOL0     C87776   2.729  10.376   4.796  1.0626  0.1640 -0.2206
  651MOL0     C87777   2.674  10.316   4.905  0.2087  0.6167 -0.3458
  651MOL0     C87778   2.574  10.214   4.896  0.2122 -0.0238  0.5064
  651MOL0     C87779   2.503  10.172   5.024  0.4857 -0.0726 -0.9564
  651MOL0     O87780   2.520  10.247   5.134  0.1106  1.1172  0.1920
  651MOL0     C87781   2.451  10.210   5.248 -0.7847 -0.7318 -0.6078
  651MOL0     C87782   2.358  10.294   5.300 -0.3719 -0.1104  0.0830
  651MOL0     C87783   2.302  10.259   5.420 -0.2020 -0.1580 -0.4855
  651MOL0     C87784   2.358  10.163   5.504 -0.4205  0.1178  0.5253
  651MOL0     O87785   2.322  10.156   5.640 -0.1526  0.1035  0.6320
  651MOL0     C87786   2.411  10.074   5.727  0.4133  0.1003  0.1758
  651MOL0     C87787   2.404  10.123   5.873  0.1853 -1.2715 -0.7166
  651MOL0     C87788   2.446  10.270   5.884 -0.3967  0.3301 -0.3152
  651MOL0     C87789   2.434  10.313   6.033 -0.4960  0.1550 -0.3407
  651MOL0     C87790   2.516  10.449   6.057 -0.1857  0.6153  0.4289
  651MOL0     C87791   2.514  10.486   6.199 -1.8767  0.0980  0.1938
  651MOL0     C87792   2.603  10.617   6.213 -0.8827 -0.6045 -0.6853
  651MOL0     C87793   2.751  10.588   6.228  0.5579  0.9344 -0.3975
  651MOL0    Cl87794   2.784  10.472   6.356  0.0110 -0.6942  0.0321
  651MOL0     C87795   2.436  10.057   5.443  0.1440 -1.2150  0.0605
  651MOL0     C87796   2.492  10.097   5.325  0.1839 -0.2978  0.1478
  651MOL0     O87797   2.448  10.063   5.022 -0.4353  0.5209 -0.3637
  651MOL0     C87798   2.534  10.171   4.767  0.5853  0.4568 -0.1164
  651MOL0     C87799   2.610  10.213   4.659  1.1895  0.5887 -1.0527
  651MOL0     N87800   2.887  10.601   4.075  0.1646  0.5385  1.4759
  651MOL0     N87801   2.801  10.681   4.017  0.0649 -0.3520  0.0394
  651MOL0     C87802   2.948  10.821   3.193 -0.0357 -0.1211  0.2647
  651MOL0     C87803   3.032  10.718   3.174 -0.3435  0.4230  0.2920
  651MOL0     C87804   3.363  10.423   3.076 -1.8708 -0.2772  0.2857
  651MOL0     C87805   3.363  10.276   3.102 -0.0518  0.1971 -0.5480
  651MOL0     C87806   3.475  10.198   3.071  0.5600 -0.4310 -0.0149
  651MOL0     C87807   3.585  10.252   3.015  1.0660 -0.4319 -0.1482
  651MOL0     O87808   3.701  10.183   2.993  0.4039 -0.1071 -0.0969
  651MOL0     C87809   3.762  10.104   3.091  0.1452  0.6664  0.3693
  651MOL0     C87810   3.861  10.009   3.033 -0.6423 -0.1783 -0.1779
  651MOL0     C87811   3.802   9.865   3.014 -0.1602 -1.1869 -0.6569
  651MOL0     C87812   3.891   9.769   2.948 -0.4427 -0.3354 -0.3702
  651MOL0     C87813   3.835   9.638   2.945  0.7933  0.5813  0.0657
  651MOL0     C87814   3.773   9.531   2.947 -0.0370 -0.6383 -0.7142
  651MOL0     C87815   3.594  10.389   2.992  0.5760  0.0741  0.1022
  651MOL0     C87816   3.489  10.481   3.031  1.0812 -0.3660  0.0779
  651MOL0     C87817   3.523  10.626   3.019  0.2415  0.1514  0.2331
  651MOL0     H87818   3.334  10.889   3.166 -0.3170  0.4255 -0.8191
  651MOL0     H87819   3.181  11.068   3.231 -0.0686 -0.3257 -0.7018
  651MOL0     H87820   2.742  11.133   3.313  1.5517  2.7838  2.0694
  651MOL0     H87821   2.746  10.957   3.289  0.4702 -0.6037  1.8550
  651MOL0     H87822   2.891  11.107   3.500 -1.9485  2.1245 -2.5898
  651MOL0     H87823   2.891  10.928   3.479  3.2888  2.3761  1.5205
  651MOL0     H87824   2.722  10.930   3.628  2.4648  1.9915  1.2412
  651MOL0     H87825   2.610  10.976   3.502  0.3247 -0.3171 -0.5428
  651MOL0     H87826   2.753  11.194   3.655  0.1170 -0.8113  1.3107
  651MOL0     H87827   2.598  11.189   3.562 -0.4454  1.5266  0.4772
  651MOL0     H87828   2.554  11.207   3.807 -0.8948  0.0732  0.5208
  651MOL0     H87829   2.505  11.042   3.752 -0.6360  0.4160  2.2587
  651MOL0     H87830   2.776  11.123   3.869 -0.8156  2.3479  3.5568
  651MOL0     H87831   2.636  11.130   3.971 -2.3347 -0.9218 -1.1833
  651MOL0     H87832   2.743  10.892   3.840  0.3934 -0.5802  1.7478
  651MOL0     H87833   2.581  10.879   3.905  0.1555  0.0597 -1.4235
  651MOL0     H87834   2.844  10.968   4.043  2.2298 -3.8963 -1.8118
  651MOL0     H87835   2.686  10.965   4.125 -0.2687 -1.2637  1.6968
  651MOL0     H87836   2.875  10.856   4.279  1.9073  0.6158  0.0819
  651MOL0     H87837   3.082  10.523   4.237 -1.2779  0.1977 -1.2889
  651MOL0     H87838   3.132  10.684   4.255 -1.6698  0.7872 -2.4961
  651MOL0     H87839   3.073  10.580   4.481  2.0333  1.6563 -1.2142
  651MOL0     H87840   2.939  10.687   4.442 -0.1731 -0.1517  0.0124
  651MOL0     H87841   2.957  10.386   4.389 -2.4332 -0.4059 -3.6198
  651MOL0     H87842   2.821  10.486   4.344 -0.2442  0.4530  1.0771
  651MOL0     H87843   2.795  10.555   4.580  2.0588  1.0906  0.0212
  651MOL0     H87844   2.928  10.453   4.632  1.7868 -2.4678 -1.6406
  651MOL0     H87845   2.793  10.463   4.803  0.2126  0.9094 -1.4226
  651MOL0     H87846   2.698  10.361   5.000 -0.9171  0.7300 -0.1057
  651MOL0     H87847   2.318  10.384   5.256 -1.3264  1.4764  3.7791
  651MOL0     H87848   2.215  10.319   5.446  0.3315  1.0668 -1.4395
  651MOL0     H87849   2.373   9.972   5.729 -1.9835  0.9349  0.6510
  651MOL0     H87850   2.516  10.078   5.696  0.8095 -0.9333  1.3478
  651MOL0     H87851   2.302  10.113   5.910  0.0762  4.3839  1.3902
  651MOL0     H87852   2.473  10.067   5.936  0.9048 -0.8775 -1.1426
  651MOL0     H87853   2.553  10.285   5.866  0.4835  0.5860  3.9504
  651MOL0     H87854   2.387  10.331   5.815 -1.8451  0.0163  0.5869
  651MOL0     H87855   2.465  10.234   6.102 -2.4140 -1.2241 -0.9457
  651MOL0     H87856   2.331  10.327   6.065 -0.7474  1.2626 -1.5387
  651MOL0     H87857   2.454  10.524   6.007 -4.0366  0.0610  3.8550
  651MOL0     H87858   2.617  10.457   6.017 -0.9120 -0.5649 -1.8073
  651MOL0     H87859   2.410  10.507   6.226 -2.0335 -0.3663 -0.0400
  651MOL0     H87860   2.547  10.407   6.267  2.0629  1.1439 -0.2194
  651MOL0     H87861   2.569  10.678   6.297  1.5621  2.8014 -1.9175
  651MOL0     H87862   2.597  10.678   6.122  1.0911 -0.9246 -1.0650
  651MOL0     H87863   2.795  10.548   6.135  0.0682 -0.6315  0.0053
  651MOL0     H87864   2.814  10.671   6.262  0.6727  1.1250 -1.0556
  651MOL0     H87865   2.463   9.969   5.500 -2.4796 -1.5468  0.9222
  651MOL0     H87866   2.581  10.046   5.289  1.8528  2.6389 -0.2516
  651MOL0     H87867   2.459  10.093   4.758 -0.2864  1.2369  0.2060
  651MOL0     H87868   2.602  10.160   4.564  1.0349 -3.0514  0.8235
  651MOL0     H87869   2.842  10.814   3.169  0.0673  5.1425 -3.3437
  651MOL0     H87870   2.981  10.623   3.178 -1.8671  1.1475 -0.7248
  651MOL0     H87871   3.277  10.223   3.143 -1.1998  2.3158 -0.0508
  651MOL0     H87872   3.456  10.091   3.080  0.7346 -0.5655 -1.0507
  651MOL0     H87873   3.689  10.061   3.160  0.6417  2.7622  2.3142
  651MOL0     H87874   3.817  10.174   3.155  4.3298 -0.2753 -1.8279
  651MOL0     H87875   3.944  10.003   3.105  1.5933 -0.9988 -2.6684
  651MOL0     H87876   3.899  10.064   2.946 -3.9689  4.0741  0.7090
  651MOL0     H87877   3.714   9.874   2.950 -0.5184  3.9345  0.1884
  651MOL0     H87878   3.789   9.822   3.114  2.0856  0.0580  0.2366
  651MOL0     H87879   3.911   9.810   2.848  0.9992 -3.2529 -1.3643
  651MOL0     H87880   3.993   9.766   2.988 -0.3262 -0.4065 -0.6657
  651MOL0     H87881   3.725   9.437   2.935  1.4774 -1.6933  0.9565
  651MOL0     H87882   3.677  10.427   2.933  0.4447 -1.1045 -0.8834
  651MOL0     H87883   3.479  10.678   2.933  2.5749  1.1104 -0.4594
  651MOL0     H87884   3.498  10.675   3.113  0.4214  0.2297  0.2411
  651MOL0     H87885   3.632  10.629   3.008  0.1097  0.2126 -1.3234
  652MOL0     O87886   3.087   3.391   2.028  0.0847  1.0666 -0.6129
  652MOL0     C87887   3.066   3.314   2.125  0.4800 -0.5957  1.0738
  652MOL0     O87888   3.140   3.208   2.158  0.4774  0.0045 -0.5131
  652MOL0     C87889   3.266   3.181   2.092  0.7378 -0.0924  0.0497
  652MOL0     C87890   3.295   3.047   2.080 -1.3549  0.0631 -0.6595
  652MOL0     C87891   3.411   3.003   2.012 -1.0514 -0.1936 -0.9548
  652MOL0     C87892   3.496   3.095   1.957 -0.2427 -0.1210 -0.0538
  652MOL0     O87893   3.587   3.067   1.856  0.7983  0.1864 -0.2063
  652MOL0     C87894   3.637   2.931   1.834 -0.0291 -0.2018  1.1778
  652MOL0     C87895   3.724   2.880   1.948 -0.1715 -0.3118 -0.1419
  652MOL0     C87896   3.742   2.726   1.951  0.1899 -0.0802  0.6241
  652MOL0     C87897   3.819   2.686   1.823  0.0021  0.6539 -0.1988
  652MOL0     C87898   3.910   2.557   1.830 -0.6410 -0.1760 -0.2421
  652MOL0     C87899   4.013   2.559   1.948 -1.0030 -0.0158  0.3912
  652MOL0     C87900   4.096   2.428   1.951  0.5939 -0.0728  0.1748
  652MOL0     C87901   4.174   2.420   2.087  0.7259 -0.1380  0.4266
  652MOL0     N87902   4.218   2.281   2.086  0.7117 -0.9908 -0.5879
  652MOL0     C87903   4.129   2.175   2.124 -0.3737 -0.2810  0.1110
  652MOL0     C87904   4.206   2.066   2.115 -0.1535  0.4953 -0.7177
  652MOL0     C87905   4.168   1.925   2.145 -0.0233  0.1638  1.2027
  652MOL0     C87906   4.148   1.836   2.020 -0.1331  0.2114 -0.0446
  652MOL0     C87907   4.080   1.712   2.068 -0.1955  0.8074  0.1269
  652MOL0     C87908   4.080   1.592   1.970  0.0248  1.0929  0.0430
  652MOL0     O87909   4.015   1.636   1.846 -0.0480 -0.3201  0.6173
  652MOL0     C87910   4.097   1.664   1.741  1.0999  1.0236 -0.3180
  652MOL0     C87911   4.073   1.768   1.657  1.4288 -0.4885  0.5084
  652MOL0     C87912   4.160   1.811   1.563  0.3858  0.2821 -0.3959
  652MOL0     C87913   4.275   1.733   1.535 -0.1718  1.4194 -0.7151
  652MOL0     C87914   4.377   1.760   1.428  0.2766 -0.1289 -1.3619
  652MOL0     O87915   4.450   1.656   1.389  0.7818  0.0728  0.3664
  652MOL0     C87916   4.565   1.669   1.328 -1.5808 -0.5166  0.6821
  652MOL0     C87917   4.662   1.767   1.353  0.2640 -0.9951  0.1782
  652MOL0     C87918   4.786   1.772   1.291 -1.6266  0.4112 -0.0747
  652MOL0     C87919   4.831   1.666   1.212  0.0488  0.4278  0.5504
  652MOL0     O87920   4.961   1.650   1.161  0.3816 -0.6001 -0.5033
  652MOL0     C87921   5.061   1.708   1.245  0.9700  0.1708 -0.5044
  652MOL0     C87922   5.181   1.619   1.230 -0.2161 -0.5908 -0.2925
  652MOL0     C87923   5.227   1.603   1.089  0.3765  0.1789 -0.4612
  652MOL0     C87924   5.309   1.725   1.036  1.2353 -0.4026 -0.1099
  652MOL0     C87925   5.367   1.706   0.892 -0.3848 -0.4459  0.2341
  652MOL0     C87926   5.438   1.835   0.843  0.8285 -0.2677  0.9699
  652MOL0     C87927   5.534   1.795   0.732  0.3182  1.0060  0.2577
  652MOL0     C87928   5.575   1.921   0.654 -0.1820 -0.6644 -0.0389
  652MOL0    Cl87929   5.691   2.008   0.755 -0.2442 -0.4107  0.3509
  652MOL0     C87930   4.738   1.556   1.196 -0.8042 -0.9101 -1.3725
  652MOL0     C87931   4.607   1.563   1.253  0.0386  0.5151  0.0510
  652MOL0     O87932   4.386   1.876   1.394  0.2716 -0.1844 -0.2518
  652MOL0     C87933   4.288   1.611   1.606  0.8421  0.7861 -0.0503
  652MOL0     C87934   4.194   1.580   1.706 -0.8645  0.0339  0.8047
  652MOL0     N87935   4.329   2.104   2.073  0.2665 -0.4098  0.3187
  652MOL0     N87936   4.339   2.235   2.052 -0.0793 -0.2467 -0.8714
  652MOL0     C87937   3.478   3.235   1.978  0.0407  0.7700 -0.3792
  652MOL0     C87938   3.362   3.279   2.057 -1.2049  1.2247  0.1008
  652MOL0     C87939   2.931   3.326   2.185 -0.7376 -0.2492 -0.3347
  652MOL0     C87940   2.927   3.292   2.322  0.0964  0.4365 -0.1027
  652MOL0     C87941   2.804   3.291   2.400 -0.7307  0.9932  0.5126
  652MOL0     C87942   2.688   3.323   2.339 -0.7242 -0.3094 -0.0551
  652MOL0     O87943   2.570   3.325   2.401  0.4439 -0.3480  0.8251
  652MOL0     C87944   2.479   3.431   2.377  0.5797  0.4650 -0.3995
  652MOL0     C87945   2.524   3.576   2.416  0.7382 -0.0391  0.4739
  652MOL0     C87946   2.587   3.592   2.561  0.8950 -0.4185  0.1085
  652MOL0     C87947   2.522   3.712   2.631 -0.3183 -0.3052 -0.2744
  652MOL0     C87948   2.547   3.843   2.565  0.0170  0.1041  0.2502
  652MOL0     C87949   2.586   3.947   2.528  0.8904 -0.9357  0.5253
  652MOL0     C87950   2.696   3.363   2.195  0.6076  0.4225  0.2058
  652MOL0     C87951   2.811   3.364   2.121 -0.3044 -0.2548  0.2523
  652MOL0     C87952   2.809   3.396   1.969 -0.5615  0.2747 -0.5021
  652MOL0     H87953   3.228   2.980   2.133 -1.9888  2.5420  1.9204
  652MOL0     H87954   3.434   2.897   2.003  2.6252  0.1903  1.4347
  652MOL0     H87955   3.553   2.869   1.805 -0.0907  1.7188 -3.7591
  652MOL0     H87956   3.691   2.954   1.742 -3.7641  0.5429 -1.0305
  652MOL0     H87957   3.683   2.919   2.042 -0.8753 -0.7302 -0.2660
  652MOL0     H87958   3.821   2.929   1.939  0.1200 -0.8057  0.2580
  652MOL0     H87959   3.640   2.687   1.946 -1.1094  3.1888 -1.9627
  652MOL0     H87960   3.799   2.690   2.037  1.2815 -1.6856 -0.6910
  652MOL0     H87961   3.743   2.665   1.747 -1.5210 -1.2894  1.7667
  652MOL0     H87962   3.886   2.768   1.794  2.1229 -0.4622  1.2867
  652MOL0     H87963   3.852   2.464   1.838  1.0796 -1.2532  0.2987
  652MOL0     H87964   3.970   2.534   1.742  3.2018 -0.1446  2.1722
  652MOL0     H87965   4.075   2.646   1.924  0.0456 -0.1285  2.4601
  652MOL0     H87966   3.965   2.574   2.045  1.0737  0.2505  1.4273
  652MOL0     H87967   4.174   2.431   1.875  0.5096 -5.4812 -0.4833
  652MOL0     H87968   4.032   2.341   1.934 -2.2891  1.9425 -0.0910
  652MOL0     H87969   4.262   2.485   2.089 -1.4108  3.0314  3.4120
  652MOL0     H87970   4.107   2.443   2.170 -1.9393  0.3448 -1.7163
  652MOL0     H87971   4.028   2.188   2.163 -0.2148  0.1224  0.3935
  652MOL0     H87972   4.225   1.870   2.221  1.8178  0.9319  0.4392
  652MOL0     H87973   4.067   1.936   2.187 -1.3857 -0.7566 -1.6165
  652MOL0     H87974   4.082   1.892   1.954  0.2466  0.0559 -0.5607
  652MOL0     H87975   4.245   1.823   1.970 -0.0073 -2.7626  0.7562
  652MOL0     H87976   3.979   1.746   2.090 -0.3642  0.3180  0.1306
  652MOL0     H87977   4.114   1.679   2.166 -0.9612  0.1666  0.1839
  652MOL0     H87978   4.023   1.508   2.010  0.9669 -0.2132 -1.2249
  652MOL0     H87979   4.183   1.556   1.958 -0.2441  0.5689 -0.7663
  652MOL0     H87980   3.985   1.831   1.664  2.1515  0.8481 -1.4599
  652MOL0     H87981   4.141   1.899   1.502  0.0234 -1.0070 -2.2214
  652MOL0     H87982   4.643   1.840   1.431 -0.0258  2.3881 -2.7666
  652MOL0     H87983   4.860   1.845   1.325 -0.5462 -0.8967  0.4793
  652MOL0     H87984   5.084   1.810   1.213 -0.5472  1.0081  0.9123
  652MOL0     H87985   5.045   1.710   1.353 -1.4153 -2.4434 -0.6979
  652MOL0     H87986   5.258   1.677   1.282 -1.0776  0.6704 -0.3684
  652MOL0     H87987   5.153   1.527   1.282  2.8018 -0.0485  2.6182
  652MOL0     H87988   5.282   1.509   1.096 -2.8142 -1.8373 -0.3038
  652MOL0     H87989   5.146   1.579   1.019 -2.4983  2.5422  1.7940
  652MOL0     H87990   5.394   1.753   1.098 -0.3062  0.1192  1.8797
  652MOL0     H87991   5.241   1.810   1.037 -0.4802 -1.6351 -2.1762
  652MOL0     H87992   5.285   1.682   0.823 -1.2545  2.1986  0.2178
  652MOL0     H87993   5.434   1.619   0.896 -1.9401 -1.6870  0.4194
  652MOL0     H87994   5.369   1.918   0.820 -0.6084 -0.9099  2.6693
  652MOL0     H87995   5.495   1.872   0.929  2.2638 -1.3160  0.4991
  652MOL0     H87996   5.481   1.721   0.671 -3.2876  1.1621  2.8105
  652MOL0     H87997   5.621   1.750   0.782 -0.1651  2.3382  2.4451
  652MOL0     H87998   5.633   1.891   0.566  2.3447  0.1506  1.2331
  652MOL0     H87999   5.484   1.979   0.635  0.5927  0.4250 -0.5854
  652MOL0     H88000   4.782   1.475   1.139 -1.2408 -2.9325  1.0394
  652MOL0     H88001   4.538   1.483   1.225 -0.1622 -0.0481  2.0052
  652MOL0     H88002   4.365   1.538   1.586  1.5772  1.4753  0.2023
  652MOL0     H88003   4.213   1.487   1.758 -2.2231 -1.4066 -1.1560
  652MOL0     H88004   3.545   3.310   1.938 -0.6911  1.4602 -0.3380
  652MOL0     H88005   3.346   3.386   2.066 -0.2972  1.4648 -0.9092
  652MOL0     H88006   3.018   3.263   2.373 -0.2064 -0.9855 -0.3228
  652MOL0     H88007   2.807   3.280   2.508  0.5243  0.6966  0.4581
  652MOL0     H88008   2.390   3.408   2.436 -1.3485  3.5727 -1.8139
  652MOL0     H88009   2.448   3.434   2.272 -4.4788  3.1833  0.8246
  652MOL0     H88010   2.437   3.640   2.399 -0.6742 -2.2549 -1.1379
  652MOL0     H88011   2.594   3.603   2.336  2.2044 -1.6055  1.1572
  652MOL0     H88012   2.692   3.618   2.541 -0.3970  5.4593 -0.9748
  652MOL0     H88013   2.570   3.507   2.628  1.2265  1.3432  2.5545
  652MOL0     H88014   2.412   3.706   2.637 -0.6646  3.0345 -0.9453
  652MOL0     H88015   2.559   3.723   2.733  2.1218  1.4632 -1.2530
  652MOL0     H88016   2.620   4.045   2.502  1.4599 -0.6561  2.2207
  652MOL0     H88017   2.605   3.401   2.151 -1.1726 -1.1196  2.3085
  652MOL0     H88018   2.706   3.406   1.936 -1.0583  0.3694  0.9694
  652MOL0     H88019   2.844   3.497   1.951  1.6156 -0.2882  0.2575
  652MOL0     H88020   2.855   3.312   1.916 -3.3689 -1.1349 -0.9106
  653MOL0     O88021   6.826   8.824  10.413  0.3590 -0.6308  0.3964
  653MOL0     C88022   6.904   8.791  10.499 -0.0424 -0.1087 -0.4478
  653MOL0     O88023   7.004   8.698  10.476 -0.3297  0.1261 -0.1390
  653MOL0     C88024   6.972   8.591  10.407  1.1103  0.0415  0.7955
  653MOL0     C88025   7.072   8.530  10.326  0.1638 -0.4697 -0.4441
  653MOL0     C88026   7.050   8.411  10.258 -0.3359 -0.0110  0.3192
  653MOL0     C88027   6.920   8.349  10.265  0.3807 -0.6570  0.0935
  653MOL0     O88028   6.895   8.228  10.192  1.1263  0.3921 -0.9954
  653MOL0     C88029   6.786   8.134  10.218  0.6696  0.1194 -0.1314
  653MOL0     C88030   6.800   7.992  10.157  0.4387  0.2300  0.4894
  653MOL0     C88031   6.895   7.895  10.227 -0.0571 -0.0715 -0.2700
  653MOL0     C88032   6.865   7.750  10.188  0.0618 -0.1665 -0.4317
  653MOL0     C88033   6.961   7.643  10.252 -0.6084  0.0984  0.3056
  653MOL0     C88034   7.107   7.675  10.241 -0.4555  0.0417  0.4309
  653MOL0     C88035   7.205   7.559  10.295 -0.0318 -0.0051  0.3643
  653MOL0     C88036   7.190   7.545  10.445 -0.2012 -0.4645  0.1162
  653MOL0     N88037   7.292   7.447  10.486  0.0140 -0.1954 -0.1647
  653MOL0     C88038   7.270   7.313  10.484 -0.1617  0.7122 -0.3309
  653MOL0     C88039   7.391   7.258  10.470 -0.6918  0.4521 -0.2544
  653MOL0     C88040   7.417   7.110  10.444 -0.5844 -0.1721 -0.7701
  653MOL0     C88041   7.442   7.090  10.297  0.1950 -0.3714  0.4041
  653MOL0     C88042   7.458   6.947  10.242  0.3009  0.4782 -0.0280
  653MOL0     C88043   7.488   6.954  10.094  0.5555  0.7863 -0.0322
  653MOL0     O88044   7.381   7.002  10.001  0.0653  0.2543 -0.0077
  653MOL0     C88045   7.360   7.134   9.972  0.0873 -0.6606  1.2510
  653MOL0     C88046   7.440   7.245   9.984  0.4430 -0.3255 -0.1773
  653MOL0     C88047   7.395   7.373   9.949  0.5456 -0.3492 -0.1990
  653MOL0     C88048   7.272   7.391   9.887  0.3992  0.3361  0.7937
  653MOL0     C88049   7.215   7.525   9.871 -0.5177  0.0137  0.0035
  653MOL0     O88050   7.090   7.539   9.824  0.6428  0.5213 -0.7206
  653MOL0     C88051   7.021   7.657   9.816  0.4598  0.3595 -0.9966
  653MOL0     C88052   6.918   7.648   9.731  0.1445  0.0485 -0.2312
  653MOL0     C88053   6.841   7.752   9.679 -0.0084 -1.1265  0.3830
  653MOL0     C88054   6.869   7.887   9.720  0.3250 -0.1901 -0.0679
  653MOL0     O88055   6.812   8.003   9.672  0.1626 -0.2687  0.2749
  653MOL0     C88056   6.686   7.999   9.619  0.9364  0.4881  0.5284
  653MOL0     C88057   6.630   8.142   9.639  0.6215  0.4763 -0.4444
  653MOL0     C88058   6.638   8.197   9.782  0.7588 -0.4799 -0.6644
  653MOL0     C88059   6.633   8.364   9.774 -0.1012  1.0129 -0.4945
  653MOL0     C88060   6.642   8.427   9.916 -0.4426 -0.9557 -0.7769
  653MOL0     C88061   6.604   8.570   9.912 -0.4874  0.3870  0.8347
  653MOL0     C88062   6.602   8.623  10.051 -0.2359 -0.1258  0.5504
  653MOL0     C88063   6.741   8.667  10.106 -0.7739  0.9353  0.1663
  653MOL0    Cl88064   6.790   8.830  10.043 -0.2794  0.2037 -0.6241
  653MOL0     C88065   6.956   7.902   9.828  0.2483 -1.0321  0.3557
  653MOL0     C88066   7.040   7.787   9.872  0.3767 -0.2597 -0.2273
  653MOL0     O88067   7.293   7.615   9.878  0.3315 -0.1575 -0.1112
  653MOL0     C88068   7.200   7.272   9.851 -0.2535  0.3207  0.3317
  653MOL0     C88069   7.241   7.151   9.904  0.5385  0.2122  0.7019
  653MOL0     N88070   7.488   7.363  10.485 -0.5035 -0.1698  0.3947
  653MOL0     N88071   7.428   7.479  10.489  0.3169  1.1130  0.5437
  653MOL0     C88072   6.820   8.414  10.336  0.4560  0.0200  0.2049
  653MOL0     C88073   6.842   8.532  10.410  0.2938  0.6721 -0.1961
  653MOL0     C88074   6.917   8.871  10.615  0.9810 -0.1317 -0.1794
  653MOL0     C88075   7.042   8.928  10.642 -0.9459  0.0638  0.2938
  653MOL0     C88076   7.064   8.996  10.768  0.6661 -0.3338  0.3346
  653MOL0     C88077   6.958   9.001  10.859  0.6911 -0.9580 -0.1437
  653MOL0     O88078   6.963   9.055  10.990 -0.7427 -0.1034 -0.3310
  653MOL0     C88079   7.098   9.067  11.042 -0.1295  0.0678  0.1674
  653MOL0     C88080   7.085   9.134  11.173 -0.0992  0.2230 -0.5072
  653MOL0     C88081   7.026   9.283  11.163 -0.0308 -0.1054 -0.0309
  653MOL0     C88082   7.123   9.371  11.088 -0.6661 -0.0597  0.8848
  653MOL0     C88083   7.071   9.508  11.056 -0.5001  0.6992 -0.3915
  653MOL0     C88084   7.043   9.623  11.037  0.0724  0.2437 -0.1737
  653MOL0     C88085   6.830   8.952  10.828 -1.1371 -0.2416  0.2364
  653MOL0     C88086   6.810   8.886  10.707 -0.0851 -1.2123 -0.5450
  653MOL0     C88087   6.675   8.829  10.693  0.2017 -0.1896  0.8428
  653MOL0     H88088   7.161   8.592  10.324 -0.4990  0.6537  1.6996
  653MOL0     H88089   7.126   8.374  10.189 -0.3073  1.4116 -0.4510
  653MOL0     H88090   6.775   8.131  10.326 -0.3678  1.3320 -0.1807
  653MOL0     H88091   6.692   8.176  10.181  3.3392  5.0238 -2.2888
  653MOL0     H88092   6.833   8.002  10.053 -3.8537  0.2763 -1.0747
  653MOL0     H88093   6.699   7.950  10.147  0.7098  0.0610 -4.8348
  653MOL0     H88094   6.879   7.908  10.335 -0.4065  0.0608 -0.3366
  653MOL0     H88095   6.997   7.922  10.199  1.3648 -2.6976  1.8944
  653MOL0     H88096   6.764   7.741  10.229 -1.4935  0.7118 -3.7604
  653MOL0     H88097   6.859   7.733  10.080  0.8341 -1.6134 -0.2768
  653MOL0     H88098   6.921   7.612  10.349  0.1380  1.4346  1.0773
  653MOL0     H88099   6.951   7.554  10.189 -1.7975  1.2086 -1.1554
  653MOL0     H88100   7.132   7.689  10.136 -2.9739 -1.1892 -0.4191
  653MOL0     H88101   7.126   7.766  10.299  2.0538 -0.7467  0.9779
  653MOL0     H88102   7.307   7.586  10.267  0.7424 -1.7484  1.3598
  653MOL0     H88103   7.178   7.462  10.252  1.1242  1.1814 -3.3743
  653MOL0     H88104   7.209   7.645  10.486 -1.3746 -0.9255  1.8571
  653MOL0     H88105   7.095   7.513  10.489 -0.5783  1.5871  0.8981
  653MOL0     H88106   7.170   7.277  10.462 -0.9110  0.0970  3.3816
  653MOL0     H88107   7.505   7.087  10.505 -3.1496  0.5831  3.6174
  653MOL0     H88108   7.327   7.055  10.473 -1.2932  1.2212 -0.2412
  653MOL0     H88109   7.348   7.129  10.255  0.1632 -1.2734 -0.3941
  653MOL0     H88110   7.530   7.145  10.263  0.9104 -1.4760  0.4222
  653MOL0     H88111   7.378   6.876  10.260  0.4871 -0.9871 -3.9983
  653MOL0     H88112   7.549   6.905  10.286  0.3382  0.3602 -0.2179
  653MOL0     H88113   7.508   6.851  10.062  0.2879  0.5205  0.6346
  653MOL0     H88114   7.583   7.007  10.083  1.3635 -0.4964  0.5377
  653MOL0     H88115   7.532   7.243  10.042  0.6346  1.2042 -0.3922
  653MOL0     H88116   7.463   7.455   9.969 -1.8733  1.2754  2.0440
  653MOL0     H88117   6.896   7.548   9.692  1.0740 -0.0184 -0.6039
  653MOL0     H88118   6.766   7.726   9.604  0.2993 -0.6020 -0.1188
  653MOL0     H88119   6.686   7.980   9.511 -1.2458 -0.8644  0.7064
  653MOL0     H88120   6.618   7.930   9.670 -0.3073  2.0146  0.9839
  653MOL0     H88121   6.682   8.204   9.566 -1.7088  0.4440 -2.2286
  653MOL0     H88122   6.524   8.142   9.610  0.7808 -0.0783 -1.0315
  653MOL0     H88123   6.548   8.176   9.841  2.2454 -0.8397  1.6219
  653MOL0     H88124   6.720   8.159   9.843  0.5912  1.4586  0.8786
  653MOL0     H88125   6.539   8.398   9.731 -0.6776 -0.4135 -0.4407
  653MOL0     H88126   6.720   8.403   9.721  2.2615  0.4965  2.6627
  653MOL0     H88127   6.744   8.416   9.954 -0.4585  1.6140  0.2199
  653MOL0     H88128   6.580   8.369   9.985  0.5893 -0.3277  0.7392
  653MOL0     H88129   6.673   8.631   9.854  0.2316 -2.3278 -1.3565
  653MOL0     H88130   6.507   8.572   9.863  0.3138 -0.5111 -0.8629
  653MOL0     H88131   6.554   8.562  10.128 -1.1897  1.3708  1.1994
  653MOL0     H88132   6.541   8.713  10.054  1.5914  1.2166 -0.4445
  653MOL0     H88133   6.751   8.662  10.215  0.4183 -1.7181  0.0171
  653MOL0     H88134   6.821   8.600  10.075 -1.1219  0.4822  0.2426
  653MOL0     H88135   6.961   7.997   9.880  0.1183  0.2156 -1.8076
  653MOL0     H88136   7.113   7.804   9.951 -0.7425 -1.2594  1.0582
  653MOL0     H88137   7.107   7.275   9.796  0.4886 -2.0908 -1.2314
  653MOL0     H88138   7.183   7.060   9.886 -1.0337  1.4662 -0.9866
  653MOL0     H88139   6.722   8.369  10.347  0.6255 -0.5181 -0.4435
  653MOL0     H88140   6.761   8.568  10.473  0.5754 -0.8034  1.0592
  653MOL0     H88141   7.130   8.939  10.580 -0.1800 -0.0732  1.3351
  653MOL0     H88142   7.162   9.040  10.784  1.7422 -2.9296  1.3625
  653MOL0     H88143   7.172   9.119  10.982  1.7705 -1.0509  1.4522
  653MOL0     H88144   7.144   8.974  11.075  2.5469  1.8328  1.8271
  653MOL0     H88145   7.182   9.164  11.214 -1.0122  1.4137  0.9186
  653MOL0     H88146   7.035   9.068  11.244  2.3812  0.1112  1.2998
  653MOL0     H88147   7.006   9.309  11.268 -1.7320  1.1975 -0.6311
  653MOL0     H88148   6.930   9.282  11.111 -0.4232 -0.4970  0.6795
  653MOL0     H88149   7.211   9.389  11.151  0.0492 -0.2477 -0.0339
  653MOL0     H88150   7.149   9.332  10.989 -2.1669 -0.7149  0.7261
  653MOL0     H88151   7.017   9.726  11.023  2.3652  0.7139 -1.4564
  653MOL0     H88152   6.752   8.967  10.901 -0.9556  1.3117  0.1450
  653MOL0     H88153   6.598   8.852  10.767 -1.7159  1.7786 -1.5804
  653MOL0     H88154   6.632   8.869  10.601  0.6298 -2.2144 -0.3009
  653MOL0     H88155   6.674   8.721  10.675 -1.5197 -0.5860  3.0052
  654MOL0     O88156   9.124   3.190   1.180  0.3245 -1.0879 -0.0090
  654MOL0     C88157   9.176   3.241   1.276 -0.0724 -0.6778 -0.0107
  654MOL0     O88158   9.140   3.369   1.324 -0.2289  0.7015  0.6382
  654MOL0     C88159   9.039   3.433   1.250 -0.5066  0.4466  0.1506
  654MOL0     C88160   8.911   3.430   1.306  0.4648 -1.2315  0.1936
  654MOL0     C88161   8.801   3.489   1.243  0.0825 -0.3199 -0.9585
  654MOL0     C88162   8.826   3.551   1.119  0.5929 -0.5191 -0.4973
  654MOL0     O88163   8.717   3.601   1.050  0.4048 -0.0939 -0.2883
  654MOL0     C88164   8.651   3.698   1.127  0.6583 -0.1053  0.5824
  654MOL0     C88165   8.518   3.749   1.064  0.3019 -0.0634  0.4336
  654MOL0     C88166   8.437   3.632   1.013 -0.0611  0.8033 -0.1822
  654MOL0     C88167   8.297   3.664   0.954 -1.0506  0.6170  0.5670
  654MOL0     C88168   8.304   3.767   0.837 -1.3281 -0.5182  0.3265
  654MOL0     C88169   8.161   3.775   0.790 -0.1292 -0.6921 -0.3028
  654MOL0     C88170   8.052   3.840   0.885  0.4015  0.0769 -0.1562
  654MOL0     C88171   8.098   3.980   0.944  0.8141 -0.0777 -0.1443
  654MOL0     N88172   7.984   4.061   0.987  0.3755  0.5145 -0.3345
  654MOL0     C88173   7.919   4.047   1.108  0.3139  0.5406  0.2906
  654MOL0     C88174   7.824   4.140   1.106  0.1544  0.2193  0.0515
  654MOL0     C88175   7.732   4.177   1.216 -0.5660  0.0240 -0.4522
  654MOL0     C88176   7.787   4.290   1.304  0.6606 -0.1804 -0.4756
  654MOL0     C88177   7.692   4.311   1.429  0.6389 -0.5071 -0.0141
  654MOL0     C88178   7.570   4.406   1.404 -1.3533  1.1037 -0.4570
  654MOL0     O88179   7.481   4.347   1.305  0.0127 -0.6008 -0.1175
  654MOL0     C88180   7.347   4.383   1.313 -0.1482  0.0697  0.3679
  654MOL0     C88181   7.256   4.296   1.262  0.2016  0.6299  0.1478
  654MOL0     C88182   7.119   4.316   1.266  0.7701  0.6312  0.8818
  654MOL0     C88183   7.073   4.442   1.313  0.2609  0.0942  0.2969
  654MOL0     C88184   6.929   4.476   1.307  0.9201 -0.2683 -0.7359
  654MOL0     O88185   6.853   4.413   1.217  0.4833  0.2653  0.6064
  654MOL0     C88186   6.718   4.437   1.217  0.4059 -0.3385  0.4368
  654MOL0     C88187   6.659   4.545   1.141 -0.2381 -0.8479 -0.0512
  654MOL0     C88188   6.520   4.566   1.156 -0.7759  0.7669 -0.4729
  654MOL0     C88189   6.445   4.485   1.247 -0.3832  0.1285  0.1313
  654MOL0     O88190   6.309   4.508   1.236  0.1400 -0.5426  0.5838
  654MOL0     C88191   6.216   4.431   1.316  0.4156 -0.0750  0.4027
  654MOL0     C88192   6.084   4.418   1.235 -0.0312  0.2313 -0.0814
  654MOL0     C88193   6.016   4.559   1.216  0.1230  0.0939  0.8378
  654MOL0     C88194   5.916   4.558   1.103  0.1767 -1.0890 -0.1045
  654MOL0     C88195   5.990   4.557   0.966 -0.1212 -1.0989 -0.1692
  654MOL0     C88196   5.900   4.566   0.842  0.0249 -0.0418 -0.3876
  654MOL0     C88197   5.968   4.556   0.712  0.2241 -1.0225 -0.3027
  654MOL0     C88198   6.038   4.689   0.691 -0.3983 -0.0374  0.2374
  654MOL0    Cl88199   6.119   4.670   0.530  0.1516 -0.6013 -0.5830
  654MOL0     C88200   6.504   4.384   1.315  0.1619  0.4500  0.3007
  654MOL0     C88201   6.637   4.352   1.297 -0.5831 -0.2199  0.0329
  654MOL0     O88202   6.889   4.556   1.392 -0.0551  0.9737  0.3139
  654MOL0     C88203   7.157   4.534   1.363  0.7909  0.2517 -0.0834
  654MOL0     C88204   7.292   4.500   1.371  0.2070  0.0188  0.9031
  654MOL0     N88205   7.840   4.210   0.989 -0.7105  0.5898 -0.3392
  654MOL0     N88206   7.921   4.148   0.916 -0.0508  0.8737  1.3677
  654MOL0     C88207   8.955   3.560   1.070 -0.3351 -0.2417 -0.1192
  654MOL0     C88208   9.062   3.503   1.127 -0.2631 -0.0552 -0.4065
  654MOL0     C88209   9.278   3.165   1.353  0.3619  0.5090 -0.4738
  654MOL0     C88210   9.355   3.238   1.449 -0.7748 -0.5334  0.1630
  654MOL0     C88211   9.467   3.188   1.513 -0.4627  0.2520  0.1602
  654MOL0     C88212   9.484   3.048   1.497 -0.0813  0.1941 -0.5681
  654MOL0     O88213   9.590   2.981   1.547 -0.2538  0.1698  0.3076
  654MOL0     C88214   9.716   3.053   1.573  0.5422  0.2637 -0.0492
  654MOL0     C88215   9.825   2.947   1.563  0.4073  0.5779  0.1451
  654MOL0     C88216   9.962   3.014   1.578  0.1873  0.3983  0.9709
  654MOL0     C88217   9.985   3.025   1.730 -0.2036 -0.3115  0.1453
  654MOL0     C88218  10.121   3.071   1.762 -0.0473  0.0695  0.2560
  654MOL0     C88219  10.233   3.093   1.776  0.1874 -0.0744 -0.5556
  654MOL0     C88220   9.389   2.974   1.425 -0.0746 -0.1994  0.5764
  654MOL0     C88221   9.284   3.024   1.345  0.5156 -0.2053 -0.8068
  654MOL0     C88222   9.203   2.930   1.260 -0.1473 -0.1688 -0.7109
  654MOL0     H88223   8.885   3.367   1.390 -2.5623 -0.0452  0.2544
  654MOL0     H88224   8.702   3.466   1.282  1.1934 -1.2816  1.4456
  654MOL0     H88225   8.607   3.665   1.222 -0.1705  1.8830  0.9547
  654MOL0     H88226   8.721   3.778   1.154 -0.0319  0.8926 -0.5108
  654MOL0     H88227   8.539   3.809   0.975  1.0659  2.0650  1.9736
  654MOL0     H88228   8.448   3.802   1.129 -1.9570 -0.8104 -1.2322
  654MOL0     H88229   8.433   3.559   1.094  0.8314  1.6425  0.6503
  654MOL0     H88230   8.500   3.597   0.931  1.6419  2.1324  0.4944
  654MOL0     H88231   8.250   3.571   0.921  0.2988 -0.4726  1.5743
  654MOL0     H88232   8.238   3.695   1.041  1.9678 -0.4314  3.2281
  654MOL0     H88233   8.343   3.866   0.864 -0.8718 -0.9017  1.1418
  654MOL0     H88234   8.358   3.736   0.747 -3.6708  0.9065 -1.6924
  654MOL0     H88235   8.153   3.845   0.707 -1.9828  0.0267  0.4157
  654MOL0     H88236   8.144   3.672   0.756 -0.6670 -0.7543  0.1425
  654MOL0     H88237   8.037   3.775   0.972  1.1112  0.6608  0.4141
  654MOL0     H88238   7.955   3.851   0.836 -1.8894 -0.8496  3.7948
  654MOL0     H88239   8.159   3.973   1.035 -1.7842  2.9614  2.0834
  654MOL0     H88240   8.144   4.036   0.862  0.3828 -1.3951 -1.3309
  654MOL0     H88241   7.938   3.984   1.194  0.9804 -1.1490 -1.0532
  654MOL0     H88242   7.638   4.212   1.172 -0.4674  1.4449  0.4094
  654MOL0     H88243   7.707   4.088   1.275 -2.8761 -0.3378 -1.8560
  654MOL0     H88244   7.885   4.256   1.339  0.1164 -1.7943 -0.4328
  654MOL0     H88245   7.810   4.378   1.242  0.2566  0.2448 -0.0344
  654MOL0     H88246   7.755   4.358   1.505 -0.0592  1.5352 -0.6602
  654MOL0     H88247   7.662   4.214   1.470 -2.6276  0.3953 -0.0534
  654MOL0     H88248   7.609   4.504   1.375  3.5588 -0.5757 -0.5328
  654MOL0     H88249   7.523   4.410   1.503 -1.2134 -1.7768 -0.1839
  654MOL0     H88250   7.297   4.218   1.199  1.4313 -0.5061  2.2191
  654MOL0     H88251   7.046   4.244   1.227  0.6650  2.1399 -1.9785
  654MOL0     H88252   6.726   4.600   1.076 -3.8578  1.8015 -1.9180
  654MOL0     H88253   6.469   4.654   1.117  0.9158  1.7446 -0.5904
  654MOL0     H88254   6.256   4.332   1.341  2.4727  0.6514  0.1746
  654MOL0     H88255   6.201   4.469   1.418 -3.5867 -0.7214  0.2399
  654MOL0     H88256   6.110   4.377   1.137  4.1284  3.2330 -0.5048
  654MOL0     H88257   6.017   4.349   1.287  0.1057 -4.1580 -4.9375
  654MOL0     H88258   5.970   4.584   1.312  1.4704  2.5924  0.8986
  654MOL0     H88259   6.087   4.640   1.196 -2.2518  2.1168  0.0617
  654MOL0     H88260   5.849   4.645   1.110 -0.5589 -1.6635  0.0864
  654MOL0     H88261   5.865   4.462   1.107 -1.0194 -0.5452 -1.3537
  654MOL0     H88262   6.035   4.458   0.960 -0.1889 -1.0596 -1.6520
  654MOL0     H88263   6.066   4.635   0.960 -0.1237 -1.0834 -0.0202
  654MOL0     H88264   5.820   4.491   0.847 -0.7421  0.5702 -2.5004
  654MOL0     H88265   5.838   4.656   0.848 -0.6805 -0.5487  0.1222
  654MOL0     H88266   5.888   4.544   0.638  1.3524 -1.1438 -1.5514
  654MOL0     H88267   6.043   4.478   0.701  1.2964 -0.1479  0.5070
  654MOL0     H88268   5.971   4.773   0.711  0.5260  0.9873 -0.8199
  654MOL0     H88269   6.114   4.706   0.768 -2.8904 -2.8208  3.5933
  654MOL0     H88270   6.448   4.318   1.381 -1.5197  1.4397 -0.0730
  654MOL0     H88271   6.680   4.278   1.365 -0.1457  0.7170  0.8079
  654MOL0     H88272   7.118   4.629   1.398 -1.7190 -0.3332 -1.0850
  654MOL0     H88273   7.364   4.559   1.426  3.7912 -1.7338 -1.5365
  654MOL0     H88274   8.967   3.614   0.977  1.9346 -0.8761 -0.2586
  654MOL0     H88275   9.159   3.495   1.079  0.1283 -0.5844  0.4681
  654MOL0     H88276   9.346   3.346   1.445 -3.4351 -0.5916  2.1888
  654MOL0     H88277   9.538   3.264   1.544 -0.9517  0.9657 -0.4364
  654MOL0     H88278   9.721   3.092   1.675  3.8277  2.1145 -0.7665
  654MOL0     H88279   9.716   3.131   1.496  1.6338  0.4144  0.0859
  654MOL0     H88280   9.814   2.895   1.467 -0.1494 -1.7738  1.3852
  654MOL0     H88281   9.803   2.874   1.641 -0.8076  3.4760  2.7233
  654MOL0     H88282   9.978   3.110   1.529  2.5701 -0.8046 -0.8621
  654MOL0     H88283  10.042   2.957   1.528  1.2178  1.5944  1.2073
  654MOL0     H88284   9.915   3.100   1.769 -1.6073 -1.2177 -0.5596
  654MOL0     H88285   9.966   2.926   1.770  1.2377 -1.6303 -2.1917
  654MOL0     H88286  10.336   3.119   1.786 -0.2205  1.4841 -0.2792
  654MOL0     H88287   9.406   2.867   1.429 -0.7691 -0.2963  2.9525
  654MOL0     H88288   9.098   2.962   1.265  0.3156  1.2254  1.1501
  654MOL0     H88289   9.239   2.944   1.158  0.9585 -0.5012 -0.3782
  654MOL0     H88290   9.202   2.827   1.297 -1.1991  0.5096  1.3116
  655MOL0     O88291   4.376   4.018   1.260  0.2431  0.2359 -0.5379
  655MOL0     C88292   4.339   3.909   1.277  0.9747 -0.1660 -0.3399
  655MOL0     O88293   4.360   3.836   1.388  0.1709  0.0081  1.3939
  655MOL0     C88294   4.340   3.897   1.509  0.5014 -0.6342 -0.5404
  655MOL0     C88295   4.375   3.837   1.628 -0.7799  0.0986 -0.1073
  655MOL0     C88296   4.353   3.898   1.756 -1.1356 -0.7980  0.2560
  655MOL0     C88297   4.284   4.017   1.770  0.0172  0.7194 -0.7085
  655MOL0     O88298   4.257   4.062   1.898 -0.1503 -0.9146 -0.0097
  655MOL0     C88299   4.135   4.140   1.928  0.4421 -0.7706  0.1460
  655MOL0     C88300   4.180   4.261   2.016  0.5537  0.0980  0.1360
  655MOL0     C88301   4.055   4.341   2.070  0.7368 -0.5054  0.2839
  655MOL0     C88302   4.093   4.452   2.164 -0.0232  0.9939  0.1870
  655MOL0     C88303   3.985   4.548   2.175 -0.0389 -0.3150  0.4250
  655MOL0     C88304   4.032   4.676   2.241  0.2841 -0.1513  0.1552
  655MOL0     C88305   4.078   4.646   2.383 -0.7293  1.2003 -1.0923
  655MOL0     C88306   4.055   4.762   2.466  0.0977 -0.8979 -0.0202
  655MOL0     N88307   3.917   4.806   2.463 -0.2129 -0.2881  0.1846
  655MOL0     C88308   3.805   4.725   2.469 -1.4173 -0.3603 -0.0754
  655MOL0     C88309   3.704   4.805   2.429  0.3366  0.5484  0.3741
  655MOL0     C88310   3.570   4.770   2.369 -0.0503  0.1535  0.5611
  655MOL0     C88311   3.459   4.873   2.399  0.0906 -0.7108 -0.4611
  655MOL0     C88312   3.323   4.853   2.337  0.5313  0.5156  0.0598
  655MOL0     C88313   3.326   4.848   2.188  1.2007  0.9115  0.2017
  655MOL0     O88314   3.187   4.852   2.145 -0.5017  0.7235  1.0871
  655MOL0     C88315   3.132   4.961   2.073  0.4048 -0.3376  0.1671
  655MOL0     C88316   3.177   5.093   2.097 -0.2590 -0.0225  0.6370
  655MOL0     C88317   3.113   5.205   2.044  0.9924  0.4638  0.5762
  655MOL0     C88318   2.999   5.190   1.962 -0.5592 -0.4457 -0.1012
  655MOL0     C88319   2.932   5.304   1.908  0.1585 -0.3885  0.0085
  655MOL0     O88320   2.808   5.272   1.855  0.1189 -0.0411 -0.4755
  655MOL0     C88321   2.729   5.376   1.804 -0.5660 -0.5443 -0.6422
  655MOL0     C88322   2.689   5.372   1.677  0.5435  0.2169  0.4378
  655MOL0     C88323   2.581   5.452   1.636  0.1549 -0.8747  0.0857
  655MOL0     C88324   2.523   5.551   1.724 -0.4592 -0.6645  0.4071
  655MOL0     O88325   2.412   5.619   1.675 -0.1363  0.2230  0.5973
  655MOL0     C88326   2.431   5.758   1.667  1.0143  0.1635 -0.5797
  655MOL0     C88327   2.307   5.823   1.731 -0.6324  0.4595  0.1644
  655MOL0     C88328   2.185   5.829   1.640  0.3617 -0.2024  0.1343
  655MOL0     C88329   2.066   5.927   1.686  0.8603  0.6984 -0.0468
  655MOL0     C88330   1.972   5.867   1.787 -0.3277 -0.2702 -0.2628
  655MOL0     C88331   1.845   5.956   1.818  0.4411  0.6750 -0.0837
  655MOL0     C88332   1.737   5.896   1.919 -0.3018  0.5651  0.5664
  655MOL0     C88333   1.620   5.993   1.943 -0.4264 -0.1841 -0.4144
  655MOL0    Cl88334   1.516   6.015   1.792 -0.5989 -0.0428 -0.8287
  655MOL0     C88335   2.580   5.567   1.853 -0.3167 -0.1477  0.0974
  655MOL0     C88336   2.690   5.480   1.895 -0.7317  0.1955  0.3421
  655MOL0     O88337   2.982   5.417   1.913  0.0170 -1.4356  0.0763
  655MOL0     C88338   2.959   5.057   1.932 -0.7014 -0.4974  0.7108
  655MOL0     C88339   3.032   4.948   1.983  0.2974  0.2802 -1.0131
  655MOL0     N88340   3.750   4.939   2.428  0.4525  0.2325 -0.1988
  655MOL0     N88341   3.875   4.936   2.435  0.0193  0.1243  0.3516
  655MOL0     C88342   4.258   4.087   1.656  0.7172  0.0181  0.6392
  655MOL0     C88343   4.277   4.026   1.528 -0.1121 -0.6370  0.8284
  655MOL0     C88344   4.279   3.837   1.161  0.2456 -0.0556  0.1058
  655MOL0     C88345   4.331   3.866   1.036 -0.4887 -0.9651 -0.7196
  655MOL0     C88346   4.323   3.788   0.920 -0.8171 -0.0742 -0.8526
  655MOL0     C88347   4.234   3.676   0.925  0.4647  0.6510  0.1874
  655MOL0     O88348   4.203   3.600   0.815  0.3172 -0.0080 -0.9439
  655MOL0     C88349   4.325   3.555   0.746  0.7036  0.1719 -0.1977
  655MOL0     C88350   4.301   3.573   0.594 -0.4364 -0.4944 -0.1002
  655MOL0     C88351   4.242   3.703   0.554 -0.0640 -0.0989  0.0054
  655MOL0     C88352   4.259   3.726   0.405  0.4530  0.0841  0.3262
  655MOL0     C88353   4.192   3.620   0.329 -0.0156  0.5377  1.0474
  655MOL0     C88354   4.115   3.548   0.256 -0.6620  0.8959  0.6174
  655MOL0     C88355   4.186   3.636   1.050 -0.3132  0.0146 -0.2239
  655MOL0     C88356   4.198   3.716   1.161  0.4743  0.4462 -0.4373
  655MOL0     C88357   4.119   3.683   1.287 -0.5688 -0.3307  0.7243
  655MOL0     H88358   4.435   3.747   1.627 -0.2435  0.4372 -1.7449
  655MOL0     H88359   4.403   3.846   1.837  1.8087  0.9460 -0.3231
  655MOL0     H88360   4.091   4.173   1.834 -1.5810  1.2398  1.6998
  655MOL0     H88361   4.056   4.083   1.977  0.6585 -1.3486 -0.1636
  655MOL0     H88362   4.238   4.324   1.948 -2.0454 -0.6314 -3.0508
  655MOL0     H88363   4.232   4.224   2.105 -0.2084  0.6631  0.8374
  655MOL0     H88364   3.977   4.280   2.116 -2.6246  2.9072 -0.4463
  655MOL0     H88365   4.012   4.379   1.977  0.5023 -0.9432  0.2110
  655MOL0     H88366   4.091   4.400   2.261 -2.9459  0.1704 -0.2186
  655MOL0     H88367   4.190   4.498   2.143 -1.1234  2.3589 -2.3131
  655MOL0     H88368   3.965   4.576   2.071  4.0754  0.6962 -0.2997
  655MOL0     H88369   3.894   4.510   2.222  1.4775 -1.8114  2.3322
  655MOL0     H88370   4.118   4.720   2.189  1.5162 -0.4157  1.8512
  655MOL0     H88371   3.965   4.762   2.236  0.6229  0.2614  1.9743
  655MOL0     H88372   4.182   4.612   2.386 -1.5769 -1.7694  2.6553
  655MOL0     H88373   4.016   4.567   2.426 -1.9544  1.8802 -1.5561
  655MOL0     H88374   4.072   4.730   2.569  1.1278 -0.7477 -0.1330
  655MOL0     H88375   4.115   4.849   2.438  0.0325  0.0544  2.5910
  655MOL0     H88376   3.810   4.618   2.485 -0.1404 -0.3100 -0.0388
  655MOL0     H88377   3.583   4.774   2.260 -0.1234 -0.1293  0.5417
  655MOL0     H88378   3.558   4.669   2.407 -1.8372  1.5677  4.2243
  655MOL0     H88379   3.436   4.885   2.505 -0.2270  0.4710 -0.6480
  655MOL0     H88380   3.495   4.973   2.372  1.1912 -1.1856 -0.8554
  655MOL0     H88381   3.247   4.926   2.367 -1.3737 -0.7332 -1.5011
  655MOL0     H88382   3.289   4.760   2.383  1.0697  1.0294  1.5688
  655MOL0     H88383   3.375   4.759   2.149  3.3048  1.7792  0.7017
  655MOL0     H88384   3.374   4.929   2.132  0.1634 -0.3566 -2.6762
  655MOL0     H88385   3.250   5.115   2.174 -0.3870  0.2736  0.6717
  655MOL0     H88386   3.166   5.296   2.070 -0.4063  2.7214 -3.5459
  655MOL0     H88387   2.740   5.304   1.610 -1.1498  0.1684 -0.8882
  655MOL0     H88388   2.540   5.452   1.536 -1.9488 -1.1348  0.9117
  655MOL0     H88389   2.525   5.795   1.710 -0.5642  1.0428  2.3813
  655MOL0     H88390   2.431   5.787   1.562  1.2924  0.6171 -0.4569
  655MOL0     H88391   2.274   5.773   1.822 -0.7105  3.2217  1.7747
  655MOL0     H88392   2.332   5.926   1.759 -1.0862 -0.0420  2.6201
  655MOL0     H88393   2.203   5.859   1.536 -1.4014 -0.1502 -0.1989
  655MOL0     H88394   2.147   5.726   1.639 -1.2295  0.3499  0.0446
  655MOL0     H88395   2.007   5.937   1.595  0.8051  2.9440  0.1795
  655MOL0     H88396   2.112   6.022   1.714  0.0621  0.3074  2.9412
  655MOL0     H88397   2.022   5.849   1.882  1.0701  0.7346 -0.7649
  655MOL0     H88398   1.926   5.776   1.747  0.2050  0.1266 -1.8454
  655MOL0     H88399   1.885   6.043   1.869 -0.1503  0.7296  0.2933
  655MOL0     H88400   1.796   5.989   1.726 -2.0950  1.7421  1.5415
  655MOL0     H88401   1.779   5.884   2.019  1.4559  1.5952 -0.0002
  655MOL0     H88402   1.699   5.801   1.880 -2.7475  0.9427  1.8193
  655MOL0     H88403   1.554   5.976   2.028 -1.2373 -2.7867 -1.4529
  655MOL0     H88404   1.663   6.091   1.963 -1.4185  0.4643 -1.3253
  655MOL0     H88405   2.537   5.644   1.917 -3.4420 -0.4330 -1.4812
  655MOL0     H88406   2.724   5.491   1.997  1.6264  1.4542 -0.5021
  655MOL0     H88407   2.868   5.044   1.873 -0.6387  1.8165  0.0000
  655MOL0     H88408   2.996   4.847   1.966  0.7672  0.0776 -0.8393
  655MOL0     H88409   4.204   4.180   1.671  1.6441  0.2119  3.4138
  655MOL0     H88410   4.238   4.080   1.443  0.4442 -0.2631  0.8096
  655MOL0     H88411   4.407   3.944   1.029  2.2184 -3.3678  0.0268
  655MOL0     H88412   4.368   3.812   0.824  2.6777  0.2403  0.7142
  655MOL0     H88413   4.353   3.452   0.771  4.2799  1.5404  2.3510
  655MOL0     H88414   4.418   3.608   0.768  0.4401  1.4497 -1.9321
  655MOL0     H88415   4.250   3.486   0.553  1.7711 -1.8199 -0.2132
  655MOL0     H88416   4.401   3.579   0.549 -0.9758  2.5606 -1.1189
  655MOL0     H88417   4.291   3.783   0.611 -2.3524  0.6593  0.9983
  655MOL0     H88418   4.137   3.714   0.580 -0.8261 -1.1154 -2.3621
  655MOL0     H88419   4.215   3.824   0.381 -0.6025  0.2457  2.6565
  655MOL0     H88420   4.361   3.728   0.367  0.3177 -0.5687 -0.0851
  655MOL0     H88421   4.064   3.485   0.186 -0.6389  0.9590  0.5439
  655MOL0     H88422   4.121   3.550   1.061 -0.2013  0.1670  2.4687
  655MOL0     H88423   4.187   3.637   1.360  0.6910 -0.0555 -0.2320
  655MOL0     H88424   4.078   3.777   1.325  1.5004  1.9396 -2.1271
  655MOL0     H88425   4.032   3.621   1.264 -1.7468  0.7269  2.1494
  656MOL0     O88426   6.826   8.750   1.103 -0.5775  0.2533 -0.1524
  656MOL0     C88427   6.856   8.860   1.151 -1.4986  0.1269 -1.1854
  656MOL0     O88428   6.878   8.983   1.091 -0.1455  0.5128  0.2878
  656MOL0     C88429   6.840   8.983   0.960 -0.2325 -0.5752 -0.1817
  656MOL0     C88430   6.715   9.034   0.937 -0.2962  0.0866 -0.3831
  656MOL0     C88431   6.665   9.057   0.808  0.8651 -0.0546 -0.1220
  656MOL0     C88432   6.749   9.023   0.698 -0.2240  0.6466 -1.1122
  656MOL0     O88433   6.720   9.045   0.568  1.2172  0.8538  0.4149
  656MOL0     C88434   6.594   8.990   0.528  0.6249  0.7727  0.6952
  656MOL0     C88435   6.599   8.995   0.375 -0.5401  0.0790  0.5019
  656MOL0     C88436   6.458   8.985   0.307 -0.5054  0.0405  0.1501
  656MOL0     C88437   6.477   9.002   0.158  0.5652  0.8660 -0.2787
  656MOL0     C88438   6.339   8.999   0.098  0.0440  0.2247  1.1999
  656MOL0     C88439   6.336   9.023  -0.059  1.0784 -0.1676 -0.1776
  656MOL0     C88440   6.186   9.048  -0.102 -0.2897  0.3840  0.0871
  656MOL0     C88441   6.151   9.196  -0.109  0.7759  0.2143 -0.3611
  656MOL0     N88442   6.014   9.221  -0.149  0.1625  0.8383  0.1133
  656MOL0     C88443   5.969   9.322  -0.226  0.3670  0.2534  0.3214
  656MOL0     C88444   5.833   9.319  -0.237  0.3734 -0.0543  0.2086
  656MOL0     C88445   5.752   9.430  -0.295 -0.2389  0.0179  0.1076
  656MOL0     C88446   5.829   9.518  -0.388 -0.0092  0.0806 -0.0685
  656MOL0     C88447   5.888   9.444  -0.509 -0.3114  0.5470  0.7029
  656MOL0     C88448   5.780   9.402  -0.610 -0.2931 -0.2460  0.0940
  656MOL0     O88449   5.844   9.352  -0.733  0.1805 -0.4802  0.4143
  656MOL0     C88450   5.766   9.351  -0.851 -0.2587  0.4710  0.2027
  656MOL0     C88451   5.626   9.361  -0.864  0.0377 -1.1362 -0.5089
  656MOL0     C88452   5.556   9.329  -0.974 -0.1428 -0.5941  0.1319
  656MOL0     C88453   5.619   9.304  -1.100  0.2529 -0.1589 -0.3350
  656MOL0     C88454   5.553   9.280  -1.228  0.6947 -0.2443 -0.0130
  656MOL0     O88455   5.427   9.312  -1.247  0.3465 -0.0185  0.2691
  656MOL0     C88456   5.394   9.307  -1.379  0.1293  0.2388  0.6409
  656MOL0     C88457   5.298   9.215  -1.415 -0.0493 -0.0055  0.6090
  656MOL0     C88458   5.263   9.204  -1.554 -0.0957  0.5558  0.1711
  656MOL0     C88459   5.306   9.297  -1.641  0.0728  0.5981  0.7917
  656MOL0     O88460   5.272   9.293  -1.782  0.2403  0.1157 -0.4909
  656MOL0     C88461   5.229   9.165  -1.836  0.7455  0.8206  0.2983
  656MOL0     C88462   5.257   9.163  -1.989 -0.5648  0.1748 -0.2785
  656MOL0     C88463   5.410   9.119  -2.008 -0.0827 -1.1975  0.0876
  656MOL0     C88464   5.447   9.131  -2.151 -0.7139  0.2014 -0.3167
  656MOL0     C88465   5.599   9.094  -2.156  0.1200 -0.5415  0.2871
  656MOL0     C88466   5.657   9.155  -2.283  0.0858  0.8231  0.3391
  656MOL0     C88467   5.695   9.300  -2.281 -0.3454  0.2318 -0.3279
  656MOL0     C88468   5.783   9.334  -2.408 -0.2050  0.7490 -0.6245
  656MOL0    Cl88469   5.943   9.256  -2.411  0.0403 -0.1331 -0.0642
  656MOL0     C88470   5.392   9.401  -1.599 -0.7401  0.1474  0.6541
  656MOL0     C88471   5.442   9.402  -1.473  0.4243  0.2506 -0.1045
  656MOL0     O88472   5.621   9.217  -1.320 -0.2824 -0.6921 -0.3369
  656MOL0     C88473   5.761   9.286  -1.083  0.4316  0.9903 -0.6472
  656MOL0     C88474   5.833   9.309  -0.966  0.1785 -0.5367  0.4040
  656MOL0     N88475   5.799   9.193  -0.196  0.5246  0.3931  0.3019
  656MOL0     N88476   5.900   9.138  -0.136  0.4660  0.3058 -0.6915
  656MOL0     C88477   6.877   8.966   0.727 -0.5446 -0.8619 -0.1877
  656MOL0     C88478   6.923   8.950   0.857  0.3399 -0.8091 -0.2977
  656MOL0     C88479   6.914   8.869   1.287 -0.1099 -0.5396 -0.2130
  656MOL0     C88480   7.041   8.924   1.310  1.3376  0.3609  1.0418
  656MOL0     C88481   7.092   8.947   1.440 -0.0767 -0.4857 -0.6706
  656MOL0     C88482   7.024   8.908   1.548  0.0630  0.5122 -0.7622
  656MOL0     O88483   7.060   8.923   1.684  0.2819  0.6010 -0.3620
  656MOL0     C88484   7.165   9.016   1.710 -0.6672 -0.8636  0.0043
  656MOL0     C88485   7.168   9.050   1.862 -1.0134  0.1291 -0.2710
  656MOL0     C88486   7.302   9.113   1.904  0.1641 -0.2275  0.4378
  656MOL0     C88487   7.314   9.262   1.866 -0.4646 -0.3461  0.5380
  656MOL0     C88488   7.212   9.345   1.920  0.7766  0.5640 -0.9219
  656MOL0     C88489   7.125   9.413   1.978 -0.2333 -0.0464  0.0849
  656MOL0     C88490   6.899   8.848   1.520  0.3952 -0.6198  0.0709
  656MOL0     C88491   6.844   8.823   1.400 -0.7744 -0.7328  0.1731
  656MOL0     C88492   6.713   8.744   1.393 -1.0310  1.2333 -0.3927
  656MOL0     H88493   6.659   9.064   1.024  0.7746  3.1060 -0.6327
  656MOL0     H88494   6.566   9.093   0.783  0.8994 -1.0890 -1.9162
  656MOL0     H88495   6.573   8.886   0.558  0.6082  1.0547  1.7084
  656MOL0     H88496   6.511   9.051   0.563 -1.4911 -1.1475 -0.6855
  656MOL0     H88497   6.668   8.918   0.338 -0.7184  0.6735 -1.1497
  656MOL0     H88498   6.636   9.096   0.352  0.5250 -0.6126 -1.0287
  656MOL0     H88499   6.397   9.073   0.329  1.0266  1.1774  0.0590
  656MOL0     H88500   6.400   8.895   0.327  0.2022 -1.2571 -3.0017
  656MOL0     H88501   6.532   9.094   0.143  2.3185 -0.2954 -1.3095
  656MOL0     H88502   6.535   8.920   0.115  0.7959  1.9082 -2.0353
  656MOL0     H88503   6.295   8.900   0.118  0.1066  0.2397  1.4168
  656MOL0     H88504   6.279   9.072   0.153  2.2127  1.8227  1.5683
  656MOL0     H88505   6.389   9.116  -0.080  0.7232  0.2150  0.5596
  656MOL0     H88506   6.382   8.936  -0.107 -1.5566 -0.4179 -2.5109
  656MOL0     H88507   6.112   8.991  -0.044  1.1400 -0.8620  0.7575
  656MOL0     H88508   6.180   9.004  -0.202 -0.0914 -2.2244  1.1500
  656MOL0     H88509   6.172   9.239  -0.011 -0.3911  0.1183 -0.0607
  656MOL0     H88510   6.210   9.250  -0.184 -1.0159 -0.7285 -2.5747
  656MOL0     H88511   6.028   9.400  -0.273  1.4622 -1.7296 -1.8238
  656MOL0     H88512   5.662   9.406  -0.353  0.0885  3.9120 -2.4352
  656MOL0     H88513   5.721   9.495  -0.213 -0.9288  0.7128 -0.6743
  656MOL0     H88514   5.776   9.606  -0.424 -0.6356  0.2608  1.2393
  656MOL0     H88515   5.908   9.565  -0.331 -1.0066 -0.2482  1.6654
  656MOL0     H88516   5.948   9.355  -0.485  0.6682  0.0732 -2.8001
  656MOL0     H88517   5.954   9.513  -0.563 -2.7631  2.0598 -0.5322
  656MOL0     H88518   5.698   9.473  -0.626 -0.6708 -0.9311 -1.1335
  656MOL0     H88519   5.728   9.316  -0.566 -1.1581  0.2956  0.1538
  656MOL0     H88520   5.563   9.385  -0.779  4.7183  0.2723  2.9776
  656MOL0     H88521   5.448   9.316  -0.971  0.0009 -2.3974 -0.9497
  656MOL0     H88522   5.270   9.139  -1.343  1.6036 -0.0657  1.2128
  656MOL0     H88523   5.195   9.127  -1.588  1.2265 -0.4966 -0.2283
  656MOL0     H88524   5.283   9.077  -1.799  0.8807  0.8361  0.1403
  656MOL0     H88525   5.122   9.165  -1.817  0.0352  0.2653 -3.0236
  656MOL0     H88526   5.190   9.097  -2.046  0.8047  0.4563 -2.3321
  656MOL0     H88527   5.249   9.266  -2.023  0.2381  0.4723  0.4280
  656MOL0     H88528   5.472   9.194  -1.958 -0.9987 -0.5699  0.3238
  656MOL0     H88529   5.422   9.020  -1.964 -0.0497 -1.1927  0.0904
  656MOL0     H88530   5.431   9.233  -2.186  0.4197 -0.0653 -1.7009
  656MOL0     H88531   5.386   9.060  -2.208  2.4936 -2.6820 -0.4763
  656MOL0     H88532   5.603   8.985  -2.165  0.3096 -0.7184  2.0346
  656MOL0     H88533   5.656   9.123  -2.067 -1.6791 -1.0323  1.6758
  656MOL0     H88534   5.738   9.086  -2.305 -1.6964 -1.7723  1.4265
  656MOL0     H88535   5.585   9.133  -2.362 -1.3895  0.6039  1.6762
  656MOL0     H88536   5.756   9.319  -2.192 -0.3606 -0.3261 -0.1939
  656MOL0     H88537   5.604   9.360  -2.276  1.4677  3.5925 -3.4966
  656MOL0     H88538   5.721   9.321  -2.497 -3.5790 -1.0293  1.7237
  656MOL0     H88539   5.800   9.442  -2.406 -0.4413  0.7888 -0.6675
  656MOL0     H88540   5.414   9.493  -1.653  1.5399 -1.0493 -0.5978
  656MOL0     H88541   5.501   9.489  -1.443 -1.8787  2.2259 -1.0012
  656MOL0     H88542   5.824   9.267  -1.169  0.6100  0.0076 -0.3157
  656MOL0     H88543   5.939   9.286  -0.962  1.1717  2.8782 -1.7250
  656MOL0     H88544   6.944   8.937   0.647 -1.0551 -0.0061 -0.9462
  656MOL0     H88545   7.022   8.913   0.880 -0.1133 -0.0303  3.4858
  656MOL0     H88546   7.098   8.942   1.220 -2.2198  2.4991 -1.0357
  656MOL0     H88547   7.187   9.000   1.437  1.7074 -3.5402 -1.9457
  656MOL0     H88548   7.144   9.106   1.651  0.5526  0.0059  0.8490
  656MOL0     H88549   7.264   8.986   1.674 -1.1711  0.5529 -2.7964
  656MOL0     H88550   7.155   8.956   1.918  2.5736 -0.2581  0.1248
  656MOL0     H88551   7.082   9.105   1.901 -0.9787 -0.1860  0.2758
  656MOL0     H88552   7.388   9.052   1.875 -0.6692 -1.8982  1.3062
  656MOL0     H88553   7.309   9.128   2.012  0.7536  2.2241  0.1116
  656MOL0     H88554   7.415   9.293   1.893 -0.1309  0.0619 -1.0544
  656MOL0     H88555   7.307   9.283   1.758  0.0453 -2.5070  0.0353
  656MOL0     H88556   7.074   9.477   2.049  0.7435  1.2471 -0.3351
  656MOL0     H88557   6.839   8.827   1.609 -1.5034  0.2723 -0.9370
  656MOL0     H88558   6.661   8.763   1.298 -1.3769  1.4617 -0.1627
  656MOL0     H88559   6.723   8.635   1.399  1.4518  1.4996  3.3993
  656MOL0     H88560   6.653   8.779   1.477  1.2614 -0.2616  1.9838
  657MOL0     O88561   8.155  10.830   8.280 -0.1981 -0.4930 -0.3407
  657MOL0     C88562   8.054  10.873   8.339  0.0207  0.4045  0.1176
  657MOL0     O88563   7.934  10.813   8.331 -0.3828  0.7135  0.1569
  657MOL0     C88564   7.910  10.697   8.261  0.7883 -0.8008  0.3258
  657MOL0     C88565   7.964  10.671   8.133 -0.2333 -0.3114  0.2352
  657MOL0     C88566   7.928  10.562   8.058 -0.2532 -0.7907 -0.2244
  657MOL0     C88567   7.848  10.459   8.105  0.6796 -0.5493  0.4672
  657MOL0     O88568   7.813  10.346   8.040  0.3315 -0.4958  0.5549
  657MOL0     C88569   7.884  10.322   7.914  0.7190 -1.1882  0.4008
  657MOL0     C88570   7.848  10.188   7.875  0.1006  0.4315  0.3395
  657MOL0     C88571   7.949  10.139   7.772 -1.3406  0.7708  0.3278
  657MOL0     C88572   7.908  10.007   7.718  1.0123  0.3213 -0.7928
  657MOL0     C88573   8.023   9.938   7.651 -0.0312  0.0042  0.1516
  657MOL0     C88574   8.025   9.957   7.498 -0.2727 -0.2195  0.2103
  657MOL0     C88575   8.166   9.923   7.432 -0.4105  0.5699 -0.6801
  657MOL0     C88576   8.217   9.771   7.469 -0.4831 -0.0981 -0.0848
  657MOL0     N88577   8.365   9.751   7.464 -0.3554 -0.3324 -0.5012
  657MOL0     C88578   8.466   9.817   7.535 -0.8357 -0.5454  0.6528
  657MOL0     C88579   8.587   9.768   7.488  1.1589  0.6212  0.1362
  657MOL0     C88580   8.719   9.833   7.505 -0.5113 -0.4175  0.7031
  657MOL0     C88581   8.830   9.748   7.458 -0.3718  0.6566 -0.8488
  657MOL0     C88582   8.962   9.822   7.469  0.4321  0.1640  0.3636
  657MOL0     C88583   9.079   9.728   7.425 -0.7641 -0.9374  0.2319
  657MOL0     O88584   9.196   9.807   7.434 -0.6322 -0.2023 -0.9098
  657MOL0     C88585   9.322   9.749   7.461  0.6326 -0.7500  0.1402
  657MOL0     C88586   9.415   9.849   7.482 -0.7692  0.2583 -0.4891
  657MOL0     C88587   9.553   9.810   7.487  0.1024  0.3938 -0.4845
  657MOL0     C88588   9.586   9.669   7.487  0.0689 -0.4259 -0.7603
  657MOL0     C88589   9.718   9.630   7.523  1.0095  0.1952  0.1763
  657MOL0     O88590   9.814   9.730   7.536 -0.2162 -0.3897  0.3334
  657MOL0     C88591   9.943   9.704   7.566 -0.2272  0.1645 -0.2473
  657MOL0     C88592  10.045   9.774   7.508  0.5437 -0.4857  0.0131
  657MOL0     C88593  10.175   9.749   7.550  0.1406  0.1340 -0.1999
  657MOL0     C88594  10.212   9.644   7.628 -0.3417 -0.5533  0.5898
  657MOL0     O88595  10.341   9.639   7.658  0.5928 -0.5777  0.2815
  657MOL0     C88596  10.383   9.546   7.758 -0.6355  0.6691 -0.6166
  657MOL0     C88597  10.421   9.413   7.686  0.9062  0.5126 -0.2787
  657MOL0     C88598  10.488   9.320   7.780 -0.2452 -0.0851  0.9874
  657MOL0     C88599  10.509   9.183   7.716  0.1434  0.1347  0.9466
  657MOL0     C88600  10.563   9.083   7.815  0.9547  0.6583 -0.2971
  657MOL0     C88601  10.551   8.933   7.783  0.0641  0.6409 -0.6145
  657MOL0     C88602  10.609   8.852   7.898 -0.4865 -0.2173 -0.0093
  657MOL0     C88603  10.668   8.720   7.867  1.6662  0.4616 -0.1418
  657MOL0    Cl88604  10.841   8.681   7.922  0.2490 -0.1394 -0.2353
  657MOL0     C88605  10.109   9.569   7.683 -1.1196 -0.8712  0.2941
  657MOL0     C88606   9.983   9.593   7.651  0.1114 -0.8640  0.0150
  657MOL0     O88607   9.738   9.507   7.504  0.2103 -0.6865  0.6416
  657MOL0     C88608   9.486   9.574   7.478 -0.5496  0.0254  0.2090
  657MOL0     C88609   9.356   9.608   7.464 -0.6404 -0.7861  0.4287
  657MOL0     N88610   8.546   9.652   7.427 -0.2642  1.2300  0.3724
  657MOL0     N88611   8.420   9.646   7.403  0.1935 -0.0716  0.5925
  657MOL0     C88612   7.796  10.484   8.234 -0.0019 -0.7939 -0.7184
  657MOL0     C88613   7.815  10.601   8.308 -0.6713  0.2518 -0.1557
  657MOL0     C88614   8.059  10.998   8.420 -0.5811  0.1391 -0.3011
  657MOL0     C88615   7.931  11.049   8.467  0.5071  0.5679 -0.1915
  657MOL0     C88616   7.923  11.166   8.537  0.8203  0.8888  1.1118
  657MOL0     C88617   8.030  11.245   8.552 -0.3345 -0.6722  0.0157
  657MOL0     O88618   8.032  11.366   8.620  0.5983  0.1969 -0.0574
  657MOL0     C88619   7.972  11.471   8.545 -0.5741  0.3441 -0.2034
  657MOL0     C88620   7.839  11.502   8.612 -0.0369  0.3362  0.2945
  657MOL0     C88621   7.760  11.618   8.547  0.1236  0.0533  0.3376
  657MOL0     C88622   7.626  11.634   8.622 -0.4251 -0.2012 -0.8544
  657MOL0     C88623   7.651  11.704   8.750  1.0148 -0.8845  0.1014
  657MOL0     C88624   7.686  11.754   8.850 -0.1801 -1.6814 -0.3287
  657MOL0     C88625   8.153  11.202   8.515 -0.1958 -0.5194  1.1399
  657MOL0     C88626   8.172  11.079   8.455 -0.2036 -0.5259  0.4663
  657MOL0     C88627   8.312  11.044   8.398 -0.0590 -0.6757  0.0098
  657MOL0     H88628   8.028  10.744   8.084  0.2812 -1.1429 -0.3598
  657MOL0     H88629   7.969  10.552   7.958  0.6249 -3.9755  0.3381
  657MOL0     H88630   7.854  10.394   7.837  2.9387  0.9674  1.3992
  657MOL0     H88631   7.992  10.336   7.927  0.0817  2.1488  4.0248
  657MOL0     H88632   7.749  10.186   7.827  0.8791  1.9412 -1.4669
  657MOL0     H88633   7.849  10.124   7.963 -1.0054  0.3309  0.2897
  657MOL0     H88634   8.043  10.124   7.826 -2.0933  1.7118  1.9849
  657MOL0     H88635   7.957  10.215   7.695 -0.7257  0.0599 -0.3313
  657MOL0     H88636   7.873   9.933   7.790 -0.7862  0.1033 -1.8266
  657MOL0     H88637   7.820  10.028   7.655  2.3136  3.2998 -1.8180
  657MOL0     H88638   8.119   9.960   7.699  0.1920 -1.4533  0.4156
  657MOL0     H88639   8.006   9.831   7.664  0.1020  0.3690  5.9005
  657MOL0     H88640   7.952   9.886   7.457 -0.3844 -0.7130  1.2530
  657MOL0     H88641   7.997  10.059   7.473 -0.4584  0.4406  2.8314
  657MOL0     H88642   8.236  10.001   7.463  1.8693 -0.6532 -2.3914
  657MOL0     H88643   8.177   9.924   7.323  6.7069 -3.3746 -0.5859
  657MOL0     H88644   8.185   9.758   7.573 -2.2185 -0.8337 -0.6862
  657MOL0     H88645   8.162   9.696   7.412 -2.0225  1.6296 -0.9571
  657MOL0     H88646   8.436   9.902   7.596 -3.1083 -1.0077  0.2748
  657MOL0     H88647   8.720   9.928   7.451  1.3752 -0.3027  0.8823
  657MOL0     H88648   8.738   9.863   7.608 -0.0091 -1.0110  0.7877
  657MOL0     H88649   8.854   9.656   7.512  0.9140  1.0631 -0.6950
  657MOL0     H88650   8.806   9.714   7.357 -1.2056 -0.5502 -0.2659
  657MOL0     H88651   8.986   9.855   7.570 -0.9578 -0.2915  0.8601
  657MOL0     H88652   8.946   9.903   7.397 -2.7965 -0.0713  0.6925
  657MOL0     H88653   9.052   9.709   7.321 -2.9039  1.4144  0.2581
  657MOL0     H88654   9.089   9.632   7.477  6.0449 -0.7373  0.2299
  657MOL0     H88655   9.384   9.952   7.469 -4.1045 -0.7712 -1.5140
  657MOL0     H88656   9.619   9.896   7.497  0.7748 -0.4117  4.3823
  657MOL0     H88657  10.009   9.851   7.441 -3.7685 -0.6925  1.7474
  657MOL0     H88658  10.250   9.816   7.509  0.2066  1.0581  1.3458
  657MOL0     H88659  10.472   9.587   7.806 -0.4916  0.9767 -1.1451
  657MOL0     H88660  10.315   9.522   7.840  2.3154 -0.2652  1.7458
  657MOL0     H88661  10.329   9.360   7.658  1.4106  0.3465 -1.7252
  657MOL0     H88662  10.478   9.429   7.594 -0.2433  0.9482 -0.9396
  657MOL0     H88663  10.585   9.365   7.801  0.6709 -0.6365 -1.6253
  657MOL0     H88664  10.434   9.313   7.874 -1.9357 -1.5790 -0.0266
  657MOL0     H88665  10.583   9.197   7.637 -0.6989  1.4659  0.3466
  657MOL0     H88666  10.421   9.142   7.666  2.1744 -1.7663 -1.2907
  657MOL0     H88667  10.522   9.093   7.916  0.5845 -3.5887  0.1635
  657MOL0     H88668  10.670   9.103   7.826  1.1284 -0.8032  1.1645
  657MOL0     H88669  10.446   8.903   7.773  0.1876  0.9101 -3.4427
  657MOL0     H88670  10.612   8.905   7.698 -0.6081 -2.4332 -0.2079
  657MOL0     H88671  10.530   8.840   7.973 -1.5480  0.7605 -0.9292
  657MOL0     H88672  10.688   8.910   7.945 -0.7489 -1.4677  2.0722
  657MOL0     H88673  10.597   8.640   7.893  2.2538 -0.1769 -0.4548
  657MOL0     H88674  10.678   8.714   7.758  2.2202 -0.1614 -0.0626
  657MOL0     H88675  10.124   9.487   7.753 -0.2418  0.4918  1.7757
  657MOL0     H88676   9.903   9.533   7.693 -0.8357  0.8108  0.6835
  657MOL0     H88677   9.504   9.467   7.486 -0.6977 -0.0504 -0.4549
  657MOL0     H88678   9.287   9.525   7.461  0.5102 -1.8949  2.6410
  657MOL0     H88679   7.732  10.405   8.271 -2.8593  1.3386 -0.7068
  657MOL0     H88680   7.779  10.610   8.410  1.8495  2.6274  0.6785
  657MOL0     H88681   7.831  11.007   8.460  0.1075  1.2700  1.0296
  657MOL0     H88682   7.826  11.200   8.572  1.0776  3.0044 -0.0362
  657MOL0     H88683   7.958  11.437   8.442 -0.2264 -0.6613  0.0675
  657MOL0     H88684   8.036  11.559   8.533 -1.2346  0.4815 -3.8387
  657MOL0     H88685   7.851  11.536   8.716 -2.6390  0.1621  0.7253
  657MOL0     H88686   7.773  11.414   8.610 -0.0880  0.3748 -2.2718
  657MOL0     H88687   7.735  11.595   8.443 -3.1378  0.2506  0.9726
  657MOL0     H88688   7.820  11.709   8.542 -1.3662  1.2043  1.9682
  657MOL0     H88689   7.561  11.682   8.549 -0.3828 -0.5460 -1.1191
  657MOL0     H88690   7.576  11.539   8.640 -0.1694 -0.8883 -3.4044
  657MOL0     H88691   7.706  11.789   8.949 -2.4655 -1.4093  0.1043
  657MOL0     H88692   8.230  11.276   8.534 -3.9173  3.1815  3.3294
  657MOL0     H88693   8.346  10.948   8.437 -2.2622 -0.8844  1.6435
  657MOL0     H88694   8.309  11.021   8.291  2.1490 -1.4625  0.0633
  657MOL0     H88695   8.383  11.125   8.416  2.0189 -2.4962  0.4012
  658MOL0     O88696   7.389   4.255   2.186 -0.5557 -0.5762  0.3045
  658MOL0     C88697   7.328   4.219   2.085 -0.0667 -0.1921  0.5033
  658MOL0     O88698   7.381   4.213   1.959  0.1968 -0.5866  0.0675
  658MOL0     C88699   7.517   4.210   1.938 -0.1293  0.4475 -1.0445
  658MOL0     C88700   7.585   4.328   1.926  0.3571 -0.1817 -0.2724
  658MOL0     C88701   7.723   4.334   1.913 -0.2573  0.3628 -0.5396
  658MOL0     C88702   7.801   4.216   1.906 -0.2671 -0.1908 -0.2721
  658MOL0     O88703   7.926   4.218   1.864 -0.5751 -0.5553 -0.4664
  658MOL0     C88704   7.956   4.278   1.734 -0.0500  0.3309  0.2550
  658MOL0     C88705   8.094   4.240   1.684 -0.5176  0.0844 -1.2495
  658MOL0     C88706   8.188   4.320   1.769 -0.7064  0.8683 -0.8672
  658MOL0     C88707   8.332   4.290   1.726 -0.8072  0.0093  0.0418
  658MOL0     C88708   8.440   4.343   1.826  0.0452  0.0681  0.0168
  658MOL0     C88709   8.585   4.340   1.772  0.4304  0.7151  0.4794
  658MOL0     C88710   8.689   4.411   1.862 -0.4242 -0.4365 -0.1353
  658MOL0     C88711   8.835   4.373   1.830  0.7371 -0.0350 -0.0161
  658MOL0     N88712   8.870   4.426   1.696  0.8477  0.4833  0.2920
  658MOL0     C88713   8.892   4.552   1.660 -0.4558 -0.1149  0.6417
  658MOL0     C88714   8.892   4.547   1.520 -1.0360  0.4605  0.1067
  658MOL0     C88715   8.900   4.650   1.410  0.0717 -0.3421  0.1006
  658MOL0     C88716   8.933   4.790   1.459 -0.6294  0.2661 -0.6943
  658MOL0     C88717   8.940   4.896   1.341 -0.4536 -0.1167  0.4811
  658MOL0     C88718   8.797   4.952   1.305 -0.0776 -0.5656 -1.0573
  658MOL0     O88719   8.810   5.021   1.175 -0.1749  0.6628  0.2675
  658MOL0     C88720   8.723   5.120   1.136  0.0499 -0.1881 -0.0104
  658MOL0     C88721   8.718   5.150   1.000 -0.1457  0.1017 -0.2106
  658MOL0     C88722   8.674   5.274   0.958 -1.1926  0.0871  0.0204
  658MOL0     C88723   8.613   5.374   1.036  0.3025  0.0990 -1.2668
  658MOL0     C88724   8.546   5.492   0.978  0.0798  0.2404  0.4292
  658MOL0     O88725   8.486   5.577   1.065  0.9327  0.7098 -0.3422
  658MOL0     C88726   8.405   5.673   1.023 -0.0830 -0.8944 -0.3964
  658MOL0     C88727   8.301   5.709   1.106  0.1581  0.0806 -0.0248
  658MOL0     C88728   8.196   5.793   1.076 -0.6807 -0.2509  0.0504
  658MOL0     C88729   8.208   5.877   0.962 -0.4044  0.2595 -0.0499
  658MOL0     O88730   8.121   5.981   0.927 -0.6056  0.0212  0.5998
  658MOL0     C88731   7.983   5.993   0.981 -0.0959 -0.2936 -0.4771
  658MOL0     C88732   7.904   5.879   0.916  0.0708 -0.6290  0.3007
  658MOL0     C88733   7.749   5.905   0.936 -0.7029 -0.6095  0.5558
  658MOL0     C88734   7.662   5.792   0.861 -0.8078 -0.3285 -0.2310
  658MOL0     C88735   7.522   5.844   0.810 -0.1619  0.7711 -0.2983
  658MOL0     C88736   7.428   5.880   0.922  0.4895  0.3554 -0.1177
  658MOL0     C88737   7.313   5.964   0.870 -0.4098  0.8651 -0.6397
  658MOL0     C88738   7.203   5.960   0.980 -0.2925 -0.1746  0.2252
  658MOL0    Cl88739   7.257   6.009   1.141 -0.1223 -0.3533  0.0802
  658MOL0     C88740   8.322   5.862   0.878  0.3966 -0.1269  0.4002
  658MOL0     C88741   8.410   5.748   0.901 -0.2517  0.1011 -0.6688
  658MOL0     O88742   8.558   5.505   0.857 -0.2845  1.0288 -0.5500
  658MOL0     C88743   8.608   5.338   1.171  0.0791  0.1319  0.1153
  658MOL0     C88744   8.684   5.225   1.220 -0.5912  0.0148  0.0821
  658MOL0     N88745   8.861   4.420   1.484  0.8240  0.7994  0.6986
  658MOL0     N88746   8.858   4.344   1.594 -1.1204 -0.7392 -0.3162
  658MOL0     C88747   7.733   4.097   1.917 -0.5541  0.2794 -1.0998
  658MOL0     C88748   7.597   4.089   1.932  0.7340  0.8774 -1.5441
  658MOL0     C88749   7.183   4.202   2.100  0.4205  0.4840  0.7165
  658MOL0     C88750   7.101   4.247   1.996  0.1874 -0.0592  0.8504
  658MOL0     C88751   6.963   4.258   2.007  0.4883  0.1756 -0.0834
  658MOL0     C88752   6.895   4.208   2.114 -1.0642  0.2867 -0.3222
  658MOL0     O88753   6.762   4.215   2.143 -0.5060  0.0271  0.1753
  658MOL0     C88754   6.682   4.329   2.099 -0.9075  0.1742  0.2663
  658MOL0     C88755   6.726   4.475   2.142  0.4385 -0.3139 -0.6980
  658MOL0     C88756   6.750   4.491   2.298 -0.2958  0.3397 -0.5383
  658MOL0     C88757   6.763   4.641   2.329 -0.3157 -0.0553 -0.8264
  658MOL0     C88758   6.636   4.715   2.326 -0.4687  0.2418  0.2143
  658MOL0     C88759   6.531   4.778   2.304  0.1792  0.1217  0.7442
  658MOL0     C88760   6.979   4.143   2.216  1.0205 -0.6616 -0.3132
  658MOL0     C88761   7.122   4.145   2.211 -0.3008 -0.8509 -0.3561
  658MOL0     C88762   7.196   4.112   2.344  0.5972 -0.1733 -0.5418
  658MOL0     H88763   7.527   4.420   1.929  2.4536  1.3970 -2.8405
  658MOL0     H88764   7.767   4.433   1.913 -3.1816  1.9856 -4.6547
  658MOL0     H88765   7.894   4.233   1.656 -0.9641  2.4463 -0.3142
  658MOL0     H88766   7.934   4.385   1.736 -0.4130  0.2940 -0.9898
  658MOL0     H88767   8.104   4.270   1.579 -0.1986  5.8207  0.0410
  658MOL0     H88768   8.120   4.135   1.700  1.5965  0.7204 -0.1213
  658MOL0     H88769   8.172   4.303   1.876  1.9628  1.6695 -0.2735
  658MOL0     H88770   8.163   4.426   1.757 -1.2484  0.7484 -0.8588
  658MOL0     H88771   8.361   4.185   1.718  1.2879  0.2450  2.8830
  658MOL0     H88772   8.348   4.333   1.627 -0.4657  2.4180  1.0575
  658MOL0     H88773   8.408   4.445   1.849  0.7905  0.4457 -0.6005
  658MOL0     H88774   8.450   4.279   1.914  1.7746  1.9611  1.2597
  658MOL0     H88775   8.612   4.234   1.772  2.3849  1.1632 -0.5592
  658MOL0     H88776   8.592   4.380   1.670  3.8427  0.4066  0.4580
  658MOL0     H88777   8.673   4.381   1.966 -2.1844 -2.0302 -0.7985
  658MOL0     H88778   8.672   4.519   1.849  1.1122 -0.2045 -0.3216
  658MOL0     H88779   8.904   4.416   1.903  0.5645  1.1762 -0.5350
  658MOL0     H88780   8.841   4.264   1.836 -0.6267 -0.0985  0.6923
  658MOL0     H88781   8.910   4.640   1.720 -2.9263  1.1473 -0.3436
  658MOL0     H88782   8.976   4.619   1.338  0.1929  0.9757 -0.3773
  658MOL0     H88783   8.806   4.647   1.354 -1.2169  0.5291  2.1252
  658MOL0     H88784   8.872   4.828   1.541  2.3835 -1.2644  2.5180
  658MOL0     H88785   9.031   4.786   1.508 -1.1363  0.6466  0.3553
  658MOL0     H88786   8.988   4.858   1.251  0.0789 -2.1786  1.5801
  658MOL0     H88787   9.000   4.982   1.374 -2.6246  0.8222  2.2528
  658MOL0     H88788   8.774   5.029   1.379  0.8227 -1.4333  0.1715
  658MOL0     H88789   8.717   4.878   1.296  0.0495 -1.6936  3.9810
  658MOL0     H88790   8.766   5.083   0.929  3.2857 -0.6847  2.6067
  658MOL0     H88791   8.693   5.298   0.854  0.2937 -1.3928 -0.0936
  658MOL0     H88792   8.284   5.655   1.198 -2.0577  1.8033  0.6648
  658MOL0     H88793   8.101   5.795   1.130 -1.1099  1.0921 -0.6943
  658MOL0     H88794   7.980   5.999   1.090 -0.0571 -2.9403 -0.2578
  658MOL0     H88795   7.952   6.090   0.943  0.7388  1.4571  2.8856
  658MOL0     H88796   7.925   5.875   0.808  1.2384 -1.8130  0.5486
  658MOL0     H88797   7.923   5.782   0.961 -0.9153 -0.6670  0.6646
  658MOL0     H88798   7.729   5.913   1.043  1.9042  0.5903  1.0178
  658MOL0     H88799   7.725   5.997   0.883 -1.0328 -1.4092 -0.7470
  658MOL0     H88800   7.633   5.731   0.947 -1.5440  2.4255  1.6194
  658MOL0     H88801   7.715   5.737   0.782  0.3281 -3.1307  2.3127
  658MOL0     H88802   7.470   5.772   0.747 -0.4516  1.2067 -0.5666
  658MOL0     H88803   7.539   5.931   0.745 -1.5576  0.3751 -1.2279
  658MOL0     H88804   7.401   5.788   0.974  0.8477  0.7151  0.7217
  658MOL0     H88805   7.486   5.940   0.993  1.1216 -2.8761  2.3029
  658MOL0     H88806   7.270   5.899   0.793 -0.7132 -0.7541  0.8573
  658MOL0     H88807   7.341   6.058   0.822  2.7860 -0.0891 -0.8957
  658MOL0     H88808   7.131   6.031   0.939 -2.9430 -2.8911 -0.2078
  658MOL0     H88809   7.173   5.854   0.979  0.6686 -0.4740 -2.0922
  658MOL0     H88810   8.324   5.927   0.791 -1.5478 -0.5371  0.0034
  658MOL0     H88811   8.502   5.739   0.844 -0.4250 -2.8755 -0.6284
  658MOL0     H88812   8.557   5.411   1.234 -0.1430 -0.1656  0.2807
  658MOL0     H88813   8.697   5.206   1.326 -2.0842  1.6191  0.5884
  658MOL0     H88814   7.796   4.009   1.910 -0.6426  0.1733 -0.5909
  658MOL0     H88815   7.562   3.986   1.935  0.7502  0.8852  1.2238
  658MOL0     H88816   7.158   4.274   1.908  0.1110 -0.5043  0.6653
  658MOL0     H88817   6.908   4.294   1.921 -0.0440  1.4122  0.7524
  658MOL0     H88818   6.577   4.323   2.131 -2.0964 -1.4670 -3.3029
  658MOL0     H88819   6.682   4.316   1.990 -1.1796 -1.5402  0.4405
  658MOL0     H88820   6.649   4.541   2.103 -0.2933 -0.6451  0.1520
  658MOL0     H88821   6.816   4.517   2.096 -0.9798  2.7339 -0.8678
  658MOL0     H88822   6.842   4.437   2.323 -0.8784 -0.9188 -1.0609
  658MOL0     H88823   6.668   4.449   2.356  3.7213 -0.9609  5.1069
  658MOL0     H88824   6.814   4.645   2.426 -0.3371 -0.3471 -0.8021
  658MOL0     H88825   6.831   4.692   2.260  0.0522  2.9947  1.5922
  658MOL0     H88826   6.441   4.835   2.293 -1.8462 -2.0867  4.1403
  658MOL0     H88827   6.934   4.090   2.300 -1.7223 -0.8041 -1.7677
  658MOL0     H88828   7.266   4.032   2.318  0.6886 -0.8474  1.5553
  658MOL0     H88829   7.248   4.201   2.381 -2.6169  2.9055 -2.7879
  658MOL0     H88830   7.134   4.073   2.425 -0.6884  1.5417 -0.6280
  659MOL0     O88831   1.439   9.531   4.948 -0.7653  0.2964 -0.0275
  659MOL0     C88832   1.414   9.593   5.058 -0.3217  0.2102  0.0159
  659MOL0     O88833   1.307   9.680   5.083  0.3650  0.0930  0.0013
  659MOL0     C88834   1.223   9.706   4.976 -0.9066  0.6088 -0.6085
  659MOL0     C88835   1.143   9.601   4.920  0.4991 -1.5107  0.1897
  659MOL0     C88836   1.049   9.636   4.814  0.4297 -0.0471  0.1255
  659MOL0     C88837   1.048   9.761   4.749 -0.4688 -0.4904 -0.7062
  659MOL0     O88838   0.981   9.794   4.638 -0.1975 -0.1053 -0.6478
  659MOL0     C88839   0.939   9.689   4.548 -0.5857 -0.3493  0.5007
  659MOL0     C88840   0.858   9.752   4.439  0.5065  0.3506  0.8412
  659MOL0     C88841   0.777   9.653   4.344 -0.9885 -0.7087 -0.3191
  659MOL0     C88842   0.674   9.718   4.251 -0.0090  0.5381  0.2192
  659MOL0     C88843   0.666   9.632   4.118 -0.1192 -0.2564  0.4154
  659MOL0     C88844   0.576   9.698   4.005 -0.5798  0.2892 -0.4327
  659MOL0     C88845   0.536   9.613   3.885  1.1560  0.4390  0.0118
  659MOL0     C88846   0.461   9.683   3.777 -0.2156 -0.5740 -0.4942
  659MOL0     N88847   0.407   9.589   3.678  0.9329 -0.3758 -0.2384
  659MOL0     C88848   0.297   9.602   3.600  1.1450 -0.1530  0.1190
  659MOL0     C88849   0.287   9.492   3.522 -1.1244  0.0677 -0.8150
  659MOL0     C88850   0.189   9.471   3.412  0.1910 -0.8962  0.4494
  659MOL0     C88851   0.203   9.572   3.301  0.5396 -0.0242 -0.4389
  659MOL0     C88852   0.331   9.564   3.218 -0.3390 -0.9534 -0.4809
  659MOL0     C88853   0.329   9.683   3.128 -0.3613 -0.1527  0.2244
  659MOL0     O88854   0.306   9.807   3.195 -0.6006  0.7737 -0.3257
  659MOL0     C88855   0.407   9.853   3.283  0.9003  0.0606 -1.0771
  659MOL0     C88856   0.545   9.859   3.245  0.3414 -0.2481 -0.5252
  659MOL0     C88857   0.641   9.887   3.333 -0.4286  0.0308 -1.2056
  659MOL0     C88858   0.605   9.926   3.467 -1.3670  0.2537 -0.4630
  659MOL0     C88859   0.716   9.954   3.566 -0.3467 -0.1262  0.9367
  659MOL0     O88860   0.658   9.979   3.693  0.0528  0.4396  0.5340
  659MOL0     C88861   0.734   9.981   3.801  1.3074  0.2433 -0.4405
  659MOL0     C88862   0.707  10.092   3.886 -0.2735  0.7633 -0.1520
  659MOL0     C88863   0.775  10.092   4.012  0.2195  0.3874  0.4720
  659MOL0     C88864   0.861   9.991   4.052  0.5176 -0.7108  0.7444
  659MOL0     O88865   0.936   9.979   4.164 -0.4259 -0.2043 -0.8066
  659MOL0     C88866   0.989  10.100   4.225 -0.0782 -0.0581 -0.0118
  659MOL0     C88867   0.967  10.098   4.379 -0.3546  0.0079  0.3102
  659MOL0     C88868   1.009  10.223   4.449  0.3461  1.1516 -0.2877
  659MOL0     C88869   1.018  10.198   4.601 -0.5804 -0.0728 -0.1797
  659MOL0     C88870   1.081  10.319   4.670 -0.1930 -0.3265 -0.1346
  659MOL0     C88871   1.127  10.298   4.814 -0.4133 -0.2655 -0.0212
  659MOL0     C88872   1.004  10.256   4.898 -0.0623 -0.2822  0.0587
  659MOL0     C88873   1.056  10.207   5.034 -0.1382 -0.1032 -0.0146
  659MOL0    Cl88874   0.924  10.208   5.149 -0.0220 -0.0490 -0.3578
  659MOL0     C88875   0.887   9.888   3.965 -0.4125  0.5320  0.3170
  659MOL0     C88876   0.824   9.884   3.845  0.0265  0.7072 -0.1751
  659MOL0     O88877   0.832   9.964   3.535 -0.0082  0.0500  0.7826
  659MOL0     C88878   0.470   9.934   3.506  0.2979  0.6040  0.0533
  659MOL0     C88879   0.367   9.894   3.417 -0.0619 -0.0268 -0.4370
  659MOL0     N88880   0.387   9.411   3.560 -0.2231  0.7201 -0.0768
  659MOL0     N88881   0.461   9.467   3.650 -0.2748 -0.5089  0.3148
  659MOL0     C88882   1.126   9.856   4.812  0.1816  0.7455  0.2706
  659MOL0     C88883   1.213   9.828   4.918 -0.4418  0.5089 -0.0434
  659MOL0     C88884   1.511   9.556   5.165 -0.8615  0.2119  0.5936
  659MOL0     C88885   1.590   9.441   5.154 -0.7899 -0.3376  0.2820
  659MOL0     C88886   1.674   9.395   5.253 -0.5959 -0.8804  0.9970
  659MOL0     C88887   1.692   9.469   5.374 -0.0660 -0.8797  0.8795
  659MOL0     O88888   1.782   9.438   5.472 -0.2454 -0.1008 -0.6100
  659MOL0     C88889   1.813   9.302   5.503  0.1772  0.5431 -0.3693
  659MOL0     C88890   1.898   9.288   5.636 -0.3955  0.6950 -0.3323
  659MOL0     C88891   1.897   9.144   5.690 -0.2066 -0.2237  0.0419
  659MOL0     C88892   1.931   9.141   5.843 -0.4558  0.2819  0.9575
  659MOL0     C88893   1.899   9.015   5.914  0.8031 -0.5687  0.0388
  659MOL0     C88894   1.907   8.921   5.988  0.2339 -0.4022  0.1045
  659MOL0     C88895   1.627   9.592   5.380 -0.7301 -0.1344  0.2328
  659MOL0     C88896   1.543   9.641   5.278  0.0052  1.6031 -0.1277
  659MOL0     C88897   1.500   9.782   5.301  0.1165 -0.6245 -0.2525
  659MOL0     H88898   1.154   9.504   4.967  0.6044 -0.3787  2.6677
  659MOL0     H88899   0.982   9.558   4.778 -2.4159  2.8756 -1.5228
  659MOL0     H88900   1.031   9.646   4.509  0.9229  0.6418  2.7181
  659MOL0     H88901   0.876   9.616   4.599 -0.2906 -0.2560  1.0088
  659MOL0     H88902   0.913   9.804   4.361 -0.9649 -0.9635 -1.1676
  659MOL0     H88903   0.780   9.815   4.483  1.5303  1.1293  1.5880
  659MOL0     H88904   0.734   9.576   4.408 -0.2667 -3.0526 -2.4904
  659MOL0     H88905   0.856   9.610   4.282  0.9730  1.8803  0.1865
  659MOL0     H88906   0.582   9.711   4.310 -0.0035 -2.9852 -0.0026
  659MOL0     H88907   0.695   9.824   4.230 -0.0652  0.2958 -1.1611
  659MOL0     H88908   0.762   9.638   4.065 -0.7674  2.5935 -0.6155
  659MOL0     H88909   0.639   9.530   4.146 -2.4318  0.7133  2.0418
  659MOL0     H88910   0.483   9.729   4.053 -1.5920 -1.5008 -1.1646
  659MOL0     H88911   0.628   9.788   3.972 -0.1842  0.8185  1.5112
  659MOL0     H88912   0.468   9.540   3.929  1.4859  0.4921  0.6161
  659MOL0     H88913   0.620   9.567   3.833  1.6863  1.4261 -0.0393
  659MOL0     H88914   0.382   9.745   3.821 -2.3690 -4.0229  0.8972
  659MOL0     H88915   0.530   9.750   3.723 -0.7044  0.7359  0.4430
  659MOL0     H88916   0.242   9.693   3.581  0.2296 -0.5525  0.7730
  659MOL0     H88917   0.193   9.372   3.365  1.5382 -1.8761  2.4757
  659MOL0     H88918   0.094   9.477   3.466 -1.1471 -1.3168 -1.7110
  659MOL0     H88919   0.118   9.547   3.237 -0.5891  0.9847  0.5974
  659MOL0     H88920   0.204   9.670   3.351  1.3956 -0.4454  0.4014
  659MOL0     H88921   0.346   9.470   3.164 -0.6484 -2.0121  1.1990
  659MOL0     H88922   0.420   9.571   3.281 -0.1023 -0.7136 -0.8367
  659MOL0     H88923   0.246   9.662   3.060 -0.5325  1.6166 -0.1691
  659MOL0     H88924   0.421   9.686   3.069  0.1282 -1.0911  0.9259
  659MOL0     H88925   0.563   9.831   3.142 -0.1640  2.8184 -1.5554
  659MOL0     H88926   0.744   9.887   3.299 -0.3393 -3.8548 -1.3595
  659MOL0     H88927   0.634  10.171   3.868 -2.9159 -0.4256  4.0435
  659MOL0     H88928   0.744  10.170   4.080 -3.9724  0.1369 -0.8940
  659MOL0     H88929   1.095  10.094   4.200  0.1017 -0.7578  0.8593
  659MOL0     H88930   0.948  10.191   4.179  0.3739  0.0593 -0.1861
  659MOL0     H88931   0.861  10.085   4.400  0.1374 -0.5222  2.8210
  659MOL0     H88932   1.009  10.002   4.411 -0.6881 -0.7368 -1.3765
  659MOL0     H88933   1.098  10.261   4.398 -0.1115 -2.3066 -4.1857
  659MOL0     H88934   0.928  10.296   4.442 -2.1301 -1.5662 -2.9540
  659MOL0     H88935   1.104  10.130   4.608  0.4507  1.3154  1.7655
  659MOL0     H88936   0.925  10.163   4.646 -1.1572 -1.3955 -2.2908
  659MOL0     H88937   1.002  10.394   4.661  0.4782  0.3954 -0.1355
  659MOL0     H88938   1.160  10.356   4.605 -1.3100  1.2125 -0.6750
  659MOL0     H88939   1.205  10.222   4.821  0.3535  0.4132 -0.9185
  659MOL0     H88940   1.166  10.394   4.849 -1.1409 -0.3544  1.0837
  659MOL0     H88941   0.939  10.175   4.861 -1.1696  0.0134  1.2768
  659MOL0     H88942   0.943  10.344   4.920 -0.0364  0.2194 -1.6962
  659MOL0     H88943   1.108  10.111   5.023  1.9196  1.0685 -1.1516
  659MOL0     H88944   1.134  10.275   5.069 -2.6148  2.7715  0.2336
  659MOL0     H88945   0.959   9.814   4.000 -0.5332  0.1841 -0.1649
  659MOL0     H88946   0.843   9.802   3.777 -1.4398 -0.0751  0.3038
  659MOL0     H88947   0.427   9.954   3.603 -1.2780  0.8460 -0.6654
  659MOL0     H88948   0.264   9.910   3.447  0.1141  0.7493 -0.2329
  659MOL0     H88949   1.116   9.954   4.767 -1.4377 -0.4080 -2.1500
  659MOL0     H88950   1.287   9.893   4.964 -1.0932  1.6141 -0.5064
  659MOL0     H88951   1.581   9.370   5.071 -0.4910  0.4155 -0.4101
  659MOL0     H88952   1.733   9.304   5.253  1.0241  0.1181 -0.3331
  659MOL0     H88953   1.866   9.257   5.419 -1.8460 -0.8953 -0.9598
  659MOL0     H88954   1.723   9.242   5.517 -0.5441  1.8426  1.0037
  659MOL0     H88955   1.865   9.360   5.711  1.4726  2.0751 -0.7622
  659MOL0     H88956   1.999   9.325   5.615 -2.3257  6.2273 -1.8100
  659MOL0     H88957   1.957   9.081   5.624  0.6201 -1.0632  1.5361
  659MOL0     H88958   1.792   9.114   5.682 -1.0930  2.6118  0.0191
  659MOL0     H88959   2.039   9.147   5.859 -0.1896 -0.3656 -0.3783
  659MOL0     H88960   1.877   9.221   5.893 -3.0786  0.2444 -1.5105
  659MOL0     H88961   1.914   8.847   6.065  1.6498  0.8549  1.2442
  659MOL0     H88962   1.660   9.666   5.453 -1.3735  0.5847 -0.1876
  659MOL0     H88963   1.573   9.851   5.344 -1.1839  1.8481 -1.7670
  659MOL0     H88964   1.468   9.816   5.202 -0.9470 -2.5869 -0.6358
  659MOL0     H88965   1.413   9.788   5.367  0.9968  0.5761  0.8463
  660MOL0     O88966  10.816  11.308   0.349 -0.1199 -0.8544 -0.5985
  660MOL0     C88967  10.722  11.360   0.283  0.3210 -0.3172 -0.2717
  660MOL0     O88968  10.635  11.290   0.209  0.3969  0.1584 -0.2505
  660MOL0     C88969  10.649  11.156   0.173 -0.1492 -0.8984  0.1653
  660MOL0     C88970  10.529  11.072   0.179  0.1440 -0.2696  0.2155
  660MOL0     C88971  10.534  10.938   0.153 -0.8370 -0.0870  1.6001
  660MOL0     C88972  10.658  10.885   0.114 -0.2152  0.0160 -0.8131
  660MOL0     O88973  10.692  10.757   0.095 -0.8779 -0.4838  0.4710
  660MOL0     C88974  10.586  10.657   0.110 -0.6858 -0.3453  0.5675
  660MOL0     C88975  10.581  10.608   0.254  0.4095  0.3819  0.1417
  660MOL0     C88976  10.442  10.538   0.289 -0.7631 -0.0094  0.3141
  660MOL0     C88977  10.450  10.385   0.274 -0.5058  0.0644  0.6973
  660MOL0     C88978  10.329  10.315   0.335 -0.7799  0.4082  0.5010
  660MOL0     C88979  10.374  10.205   0.433 -0.6502 -0.2243  0.0057
  660MOL0     C88980  10.283  10.087   0.450  0.2817  0.3787  0.4553
  660MOL0     C88981  10.306   9.989   0.564 -0.2511 -0.4812 -0.0350
  660MOL0     N88982  10.309  10.054   0.692  0.0664  0.7304 -0.3373
  660MOL0     C88983  10.419  10.054   0.778  1.0326 -0.1294  0.1929
  660MOL0     C88984  10.367  10.107   0.893 -0.0350 -0.1556  0.6198
  660MOL0     C88985  10.432  10.109   1.035  0.4035 -0.8365  0.1179
  660MOL0     C88986  10.540  10.220   1.021 -0.4869 -0.0398 -0.2193
  660MOL0     C88987  10.610  10.240   1.160 -0.1767  0.5233  0.0023
  660MOL0     C88988  10.721  10.339   1.160  0.1763  0.3032 -0.2518
  660MOL0     O88989  10.790  10.322   1.285 -0.5198 -0.4985 -0.0255
  660MOL0     C88990  10.902  10.402   1.286  0.0060  0.0838  0.1037
  660MOL0     C88991  10.896  10.537   1.262  0.3755  0.8051 -0.4576
  660MOL0     C88992  10.996  10.631   1.279  0.7257  0.3628  0.0707
  660MOL0     C88993  11.124  10.573   1.308  0.6437  0.3213  0.0739
  660MOL0     C88994  11.244  10.665   1.316 -0.2600  2.1229  0.9171
  660MOL0     O88995  11.224  10.794   1.269 -0.1574  0.1975  0.4271
  660MOL0     C88996  11.333  10.885   1.263 -0.5112  0.5693  0.3731
  660MOL0     C88997  11.307  11.017   1.309 -0.1810  0.8603  0.8916
  660MOL0     C88998  11.407  11.111   1.300 -1.3987 -0.5666 -0.6625
  660MOL0     C88999  11.515  11.077   1.225 -0.3335 -0.8224  0.1625
  660MOL0     O89000  11.609  11.175   1.198 -0.7624  0.6954 -0.0496
  660MOL0     C89001  11.563  11.281   1.130 -0.5166 -0.2032 -0.8575
  660MOL0     C89002  11.680  11.339   1.045 -0.4077 -0.8925 -0.0846
  660MOL0     C89003  11.739  11.245   0.938  0.1697  0.4902  0.0333
  660MOL0     C89004  11.637  11.213   0.818 -0.1683 -0.6935 -0.4057
  660MOL0     C89005  11.699  11.206   0.685  0.5091  0.3445 -0.1498
  660MOL0     C89006  11.590  11.179   0.582  0.9095  0.5839  0.2299
  660MOL0     C89007  11.631  11.183   0.436 -0.1220 -0.5787  1.4255
  660MOL0     C89008  11.531  11.138   0.331  0.5250 -0.5972 -0.0087
  660MOL0    Cl89009  11.455  10.993   0.386  0.2495  0.5137  0.1121
  660MOL0     C89010  11.544  10.947   1.180  0.4817  0.0885  0.3428
  660MOL0     C89011  11.459  10.841   1.208  0.3174  0.0845  0.3902
  660MOL0     O89012  11.354  10.622   1.356 -0.2479 -0.3529 -0.2785
  660MOL0     C89013  11.129  10.435   1.340 -0.4565 -0.0103 -0.5870
  660MOL0     C89014  11.026  10.354   1.322  0.0195 -0.1305 -0.3372
  660MOL0     N89015  10.233  10.135   0.873 -0.2999  0.2014  0.3121
  660MOL0     N89016  10.202  10.103   0.759  0.1237 -0.0568  1.0037
  660MOL0     C89017  10.766  10.978   0.088 -0.6207 -0.0229  0.7280
  660MOL0     C89018  10.768  11.109   0.127  0.4371  0.3615  0.7847
  660MOL0     C89019  10.698  11.511   0.295 -0.3859  0.6925 -0.1162
  660MOL0     C89020  10.766  11.580   0.401  1.2461 -0.6317 -0.2592
  660MOL0     C89021  10.759  11.722   0.398 -0.4346  0.8437  0.1391
  660MOL0     C89022  10.701  11.789   0.291  0.1737  0.3513  0.2504
  660MOL0     O89023  10.710  11.928   0.272  0.1663  0.9786 -0.3489
  660MOL0     C89024  10.711  12.009   0.386 -0.9463 -0.1589  0.7129
  660MOL0     C89025  10.856  12.058   0.398  0.0577 -0.6917 -0.4424
  660MOL0     C89026  10.872  12.141   0.529  0.0250  0.1134  0.5713
  660MOL0     C89027  10.845  12.072   0.663 -0.7521  0.2960 -0.5470
  660MOL0     C89028  10.911  11.937   0.674  0.8911 -0.2734 -0.9272
  660MOL0     C89029  10.970  11.835   0.665 -0.5794  0.0780  0.2206
  660MOL0     C89030  10.638  11.720   0.193 -0.0028 -0.6568  0.3870
  660MOL0     C89031  10.638  11.586   0.194  0.0477 -0.4196  0.7673
  660MOL0     C89032  10.561  11.527   0.075  0.0337 -0.3599 -0.3478
  660MOL0     H89033  10.436  11.111   0.218 -1.8313 -1.9195 -2.5224
  660MOL0     H89034  10.450  10.878   0.188  0.1663  0.8415  6.4416
  660MOL0     H89035  10.487  10.694   0.083 -0.7246 -0.9412 -0.1593
  660MOL0     H89036  10.605  10.573   0.042 -0.8803  0.7003 -0.8302
  660MOL0     H89037  10.603  10.694   0.318  0.6871 -0.3315  1.0296
  660MOL0     H89038  10.663  10.539   0.276 -1.5705 -2.1391  0.2048
  660MOL0     H89039  10.359  10.581   0.232 -1.5634 -0.0484  1.4014
  660MOL0     H89040  10.423  10.575   0.390 -0.3058  3.0588 -0.6278
  660MOL0     H89041  10.451  10.361   0.167  1.6027 -0.3602  0.7791
  660MOL0     H89042  10.548  10.353   0.312 -0.6980  1.0446  2.1103
  660MOL0     H89043  10.281  10.394   0.393  3.6734  3.6789  0.2739
  660MOL0     H89044  10.260  10.274   0.261 -1.4193  2.3484 -0.0207
  660MOL0     H89045  10.471  10.162   0.405 -0.1704  0.4263  0.6647
  660MOL0     H89046  10.379  10.261   0.526  0.4543  1.4348 -1.0095
  660MOL0     H89047  10.302  10.037   0.355  0.4926 -0.3063  0.8489
  660MOL0     H89048  10.181  10.124   0.442  0.6528  1.2008 -0.9143
  660MOL0     H89049  10.237   9.906   0.579  1.2452 -1.8792 -0.5561
  660MOL0     H89050  10.401   9.937   0.545  1.5480  2.9609 -1.5080
  660MOL0     H89051  10.522  10.019   0.775  1.4559  0.8051  2.4030
  660MOL0     H89052  10.352  10.143   1.102  1.5831  1.4675  0.4260
  660MOL0     H89053  10.465  10.009   1.066  1.6482 -0.2067  0.9060
  660MOL0     H89054  10.621  10.203   0.950  1.1078  2.3299  0.9170
  660MOL0     H89055  10.501  10.315   0.983  1.6422  0.0309 -2.4607
  660MOL0     H89056  10.651  10.140   1.174 -1.1976  0.2748  1.5245
  660MOL0     H89057  10.543  10.260   1.244  1.1850 -1.5474  1.6890
  660MOL0     H89058  10.684  10.441   1.145  1.2095  0.8736  0.9051
  660MOL0     H89059  10.802  10.321   1.089 -0.5680 -0.3383 -0.9563
  660MOL0     H89060  10.803  10.589   1.244  0.2998  2.6376  4.0326
  660MOL0     H89061  10.975  10.732   1.243 -1.5050 -0.0099  0.1740
  660MOL0     H89062  11.215  11.031   1.365  1.4007  1.7479  3.4041
  660MOL0     H89063  11.394  11.206   1.351 -3.9155 -0.8502 -0.6258
  660MOL0     H89064  11.481  11.267   1.060  1.2760 -0.9260 -2.9305
  660MOL0     H89065  11.539  11.363   1.198  1.2133  1.5499 -2.2253
  660MOL0     H89066  11.671  11.441   1.006  0.6687 -1.7635 -2.8612
  660MOL0     H89067  11.756  11.352   1.122 -0.0329  0.1718 -0.6219
  660MOL0     H89068  11.827  11.292   0.893  2.4895 -1.4817  2.1715
  660MOL0     H89069  11.772  11.152   0.986 -1.1530  1.1233  2.2818
  660MOL0     H89070  11.554  11.285   0.816 -0.7792 -1.4000 -1.4384
  660MOL0     H89071  11.597  11.112   0.832 -0.4161 -0.4604  0.6629
  660MOL0     H89072  11.772  11.125   0.691 -0.4523 -0.5248  0.0071
  660MOL0     H89073  11.746  11.304   0.668 -0.0982  0.3749 -1.9316
  660MOL0     H89074  11.544  11.083   0.605  1.3166  0.8620  2.3624
  660MOL0     H89075  11.510  11.250   0.602 -0.2603 -1.3942  3.2127
  660MOL0     H89076  11.726  11.130   0.421 -0.2646 -0.6135  0.5964
  660MOL0     H89077  11.654  11.287   0.411 -4.1545  0.1028 -0.2670
  660MOL0     H89078  11.453  11.215   0.319 -0.1450 -1.0667  1.1364
  660MOL0     H89079  11.576  11.126   0.232 -1.4272  0.6399 -1.1152
  660MOL0     H89080  11.636  10.922   1.127 -1.7850 -3.0483 -2.5604
  660MOL0     H89081  11.477  10.753   1.147  0.7462  0.3954  0.0663
  660MOL0     H89082  11.214  10.381   1.382  1.1641  1.6216 -1.6085
  660MOL0     H89083  11.023  10.246   1.336 -1.0557  0.2096  3.1584
  660MOL0     H89084  10.855  10.936   0.042 -1.2458 -2.0347  1.2535
  660MOL0     H89085  10.850  11.169   0.088  1.2636 -0.5480  1.0663
  660MOL0     H89086  10.825  11.530   0.477  1.6512  2.6058  1.7115
  660MOL0     H89087  10.810  11.776   0.477  1.9994 -3.5367  1.8894
  660MOL0     H89088  10.673  11.949   0.469  1.9103 -2.8250  0.2468
  660MOL0     H89089  10.637  12.089   0.369 -1.1150 -0.2678  0.9209
  660MOL0     H89090  10.879  12.123   0.314 -0.7111 -3.4196 -2.9362
  660MOL0     H89091  10.929  11.976   0.396 -1.3279 -2.0202  0.7260
  660MOL0     H89092  10.802  12.224   0.516  0.2109  0.1923  0.0121
  660MOL0     H89093  10.974  12.180   0.519  1.7199 -3.3157  2.7470
  660MOL0     H89094  10.884  12.125   0.750 -0.3380 -3.1684  1.5986
  660MOL0     H89095  10.737  12.062   0.672 -0.7802  1.3446  0.4924
  660MOL0     H89096  11.018  11.742   0.642 -1.1603 -0.3048  0.5390
  660MOL0     H89097  10.592  11.785   0.118 -1.5892 -0.3263  1.6064
  660MOL0     H89098  10.476  11.474   0.121 -0.2083 -1.5874 -2.0955
  660MOL0     H89099  10.523  11.609   0.014  5.6840  2.9378 -0.0869
  660MOL0     H89100  10.624  11.469   0.007  0.5206  1.6684 -1.7032
  661MOL0     O89101   4.026  10.080   5.243  1.1538  0.1430 -0.2449
  661MOL0     C89102   4.090  10.014   5.157  0.3958  0.1874 -0.2383
  661MOL0     O89103   4.218   9.985   5.177 -0.5450 -0.8695 -0.4804
  661MOL0     C89104   4.300  10.093   5.220  0.2195 -1.1358 -0.1257
  661MOL0     C89105   4.309  10.158   5.348  0.5481  0.2196 -0.5255
  661MOL0     C89106   4.390  10.264   5.374 -0.0605  0.0464  0.7675
  661MOL0     C89107   4.467  10.321   5.269  0.2051  1.0437  0.3722
  661MOL0     O89108   4.571  10.403   5.310  0.2642  0.7128 -0.0075
  661MOL0     C89109   4.672  10.450   5.219 -0.6394  0.5825  0.1153
  661MOL0     C89110   4.654  10.584   5.136 -0.0486 -0.1555 -0.3017
  661MOL0     C89111   4.504  10.625   5.112 -0.1414  0.7372  0.3031
  661MOL0     C89112   4.482  10.673   4.962  0.0635  0.7148  1.0957
  661MOL0     C89113   4.565  10.801   4.938 -0.5784 -0.1631  0.4319
  661MOL0     C89114   4.561  10.848   4.788  0.1755 -0.3515  0.3694
  661MOL0     C89115   4.642  10.982   4.773  0.6566 -0.2045  0.1584
  661MOL0     C89116   4.619  11.068   4.647  0.3584  0.5956 -0.5652
  661MOL0     N89117   4.713  11.179   4.621 -0.7057 -0.2371  0.9810
  661MOL0     C89118   4.752  11.262   4.711 -0.0946 -0.0433 -0.1248
  661MOL0     C89119   4.858  11.334   4.664 -0.0703  0.3696  0.0919
  661MOL0     C89120   4.928  11.438   4.739 -0.2719 -0.3437  0.7222
  661MOL0     C89121   5.047  11.388   4.817 -0.2772  0.2978  0.2590
  661MOL0     C89122   5.159  11.331   4.731  0.2551  0.2050 -0.0688
  661MOL0     C89123   5.297  11.333   4.806 -0.1695 -0.2253  0.6128
  661MOL0     O89124   5.395  11.272   4.716 -0.3707 -0.5955  0.2283
  661MOL0     C89125   5.525  11.279   4.763  1.0867 -0.6470 -0.6799
  661MOL0     C89126   5.602  11.396   4.727  0.9376 -0.2649  0.7750
  661MOL0     C89127   5.725  11.414   4.769  0.2754  0.1229  0.0725
  661MOL0     C89128   5.795  11.311   4.844 -0.4220 -1.1946 -0.6408
  661MOL0     C89129   5.934  11.324   4.882  0.0371  0.4418  0.5906
  661MOL0     O89130   5.993  11.428   4.822 -0.6959 -0.3122 -0.0452
  661MOL0     C89131   6.125  11.458   4.847  0.2169  0.2681  0.4306
  661MOL0     C89132   6.213  11.467   4.738 -0.7601 -0.3529  0.0170
  661MOL0     C89133   6.348  11.488   4.757  0.1611 -0.8444  0.8277
  661MOL0     C89134   6.399  11.512   4.881  0.4838 -0.2100  0.5351
  661MOL0     O89135   6.530  11.555   4.890  0.4459  0.2497  0.0920
  661MOL0     C89136   6.579  11.621   5.010 -0.7652  0.2054 -0.2341
  661MOL0     C89137   6.729  11.620   5.023 -0.8004 -0.5830  0.0956
  661MOL0     C89138   6.802  11.632   5.151 -0.9779 -0.7377 -0.4036
  661MOL0     C89139   6.954  11.627   5.140 -0.1128 -0.2438 -0.2187
  661MOL0     C89140   7.012  11.632   5.283 -0.7303  0.7203 -0.3665
  661MOL0     C89141   7.166  11.606   5.279  0.1173 -0.5817 -0.3713
  661MOL0     C89142   7.232  11.734   5.228 -0.9122  0.7646 -0.2331
  661MOL0     C89143   7.388  11.714   5.220  0.2088  0.3762 -0.5360
  661MOL0    Cl89144   7.477  11.872   5.197 -0.1079  0.7583  0.1066
  661MOL0     C89145   6.317  11.503   4.996 -0.1833  0.5840 -0.8694
  661MOL0     C89146   6.180  11.464   4.976  0.3140  0.0912  0.7174
  661MOL0     O89147   5.990  11.239   4.955  0.7667 -0.7366 -0.1120
  661MOL0     C89148   5.719  11.197   4.892 -0.8179  1.4817  0.4466
  661MOL0     C89149   5.591  11.175   4.841 -0.1624  0.1566 -0.5623
  661MOL0     N89150   4.880  11.284   4.542 -0.4676  0.1442 -0.0560
  661MOL0     N89151   4.797  11.195   4.512  0.1572  0.4614  0.0202
  661MOL0     C89152   4.444  10.270   5.138 -0.4220  0.7324  0.2241
  661MOL0     C89153   4.365  10.158   5.116  0.0416 -0.2490 -1.0716
  661MOL0     C89154   4.016   9.934   5.054  0.0158  0.3487 -0.7840
  661MOL0     C89155   4.093   9.866   4.961 -0.2926 -0.9685  0.9211
  661MOL0     C89156   4.040   9.781   4.864  0.5900  0.2807  0.4481
  661MOL0     C89157   3.900   9.768   4.852 -0.3128  0.3251 -1.0851
  661MOL0     O89158   3.835   9.690   4.762 -0.0431 -0.4465  0.3715
  661MOL0     C89159   3.846   9.552   4.804  0.1458  0.0928  0.4216
  661MOL0     C89160   3.769   9.469   4.692  0.1051 -0.6543 -0.2469
  661MOL0     C89161   3.622   9.492   4.677 -0.0273  0.2756 -0.3655
  661MOL0     C89162   3.565   9.546   4.814  0.3887 -0.2454  1.4516
  661MOL0     C89163   3.421   9.538   4.814  0.7921 -0.4208  0.6024
  661MOL0     C89164   3.294   9.544   4.823 -0.3730  0.3698 -0.4906
  661MOL0     C89165   3.816   9.835   4.945 -0.1762  0.9041 -0.2187
  661MOL0     C89166   3.877   9.917   5.044 -0.0226 -0.6256 -0.0826
  661MOL0     C89167   3.785   9.991   5.139 -0.2282 -0.5054  0.4466
  661MOL0     H89168   4.259  10.101   5.426  1.6129 -1.6185 -1.1389
  661MOL0     H89169   4.409  10.307   5.472  0.8973 -1.6767  1.3935
  661MOL0     H89170   4.756  10.473   5.285 -1.6217  4.0643  0.3262
  661MOL0     H89171   4.701  10.360   5.164  1.3677  0.1638  1.7483
  661MOL0     H89172   4.707  10.563   5.042  1.4600 -0.1616  0.5077
  661MOL0     H89173   4.710  10.665   5.183 -1.5555  1.0900 -0.5664
  661MOL0     H89174   4.484  10.702   5.186 -0.0944 -0.3501  1.4848
  661MOL0     H89175   4.434  10.542   5.130  1.7242 -1.2932 -1.2282
  661MOL0     H89176   4.502  10.591   4.892 -0.9387  2.4097 -1.3060
  661MOL0     H89177   4.376  10.694   4.948  0.1925  1.4862  1.2466
  661MOL0     H89178   4.544  10.876   5.015 -1.0234  1.6257 -1.3378
  661MOL0     H89179   4.671  10.776   4.950  0.4059  2.7362 -1.2368
  661MOL0     H89180   4.593  10.771   4.718  0.5958  0.4817 -0.3799
  661MOL0     H89181   4.458  10.876   4.763  1.1281  1.2576 -2.1815
  661MOL0     H89182   4.748  10.957   4.783  1.4815  2.7375 -0.2629
  661MOL0     H89183   4.608  11.047   4.854 -1.0416  0.9708 -1.3906
  661MOL0     H89184   4.612  11.005   4.558  2.5470 -0.3566 -0.1285
  661MOL0     H89185   4.515  11.103   4.651 -0.8809 -2.7514  0.3825
  661MOL0     H89186   4.697  11.293   4.800  0.2525 -0.9226  0.4026
  661MOL0     H89187   4.956  11.506   4.658 -4.3783  1.2182  0.3659
  661MOL0     H89188   4.862  11.491   4.808  1.6075 -0.3848  2.6435
  661MOL0     H89189   5.082  11.473   4.875 -0.1276  1.7103 -1.7848
  661MOL0     H89190   5.007  11.311   4.884 -0.3818 -0.7888 -1.0144
  661MOL0     H89191   5.174  11.380   4.634 -1.4209 -2.2433 -1.7119
  661MOL0     H89192   5.133  11.228   4.705  2.7816 -0.0701 -1.8026
  661MOL0     H89193   5.281  11.285   4.903 -3.4095 -1.7044 -0.4943
  661MOL0     H89194   5.328  11.437   4.819  2.0994 -0.6274 -0.9658
  661MOL0     H89195   5.559  11.465   4.655  0.1800 -2.8430 -1.4028
  661MOL0     H89196   5.771  11.504   4.728  1.5311 -1.2012 -1.5505
  661MOL0     H89197   6.160  11.471   4.644 -3.5966 -0.6151  1.5047
  661MOL0     H89198   6.407  11.509   4.668 -2.1167  3.9720  0.1210
  661MOL0     H89199   6.547  11.725   4.997 -0.1253  0.4963  0.4361
  661MOL0     H89200   6.547  11.568   5.100 -1.3756  0.7638 -0.1191
  661MOL0     H89201   6.754  11.529   4.968 -1.1848  1.0512 -3.0536
  661MOL0     H89202   6.775  11.695   4.957  2.6183 -0.1266  2.7139
  661MOL0     H89203   6.773  11.726   5.200  3.6616 -0.1020  1.6156
  661MOL0     H89204   6.769  11.553   5.218 -0.3889  1.2364  2.3568
  661MOL0     H89205   6.979  11.715   5.079 -1.5650 -0.2529 -0.8647
  661MOL0     H89206   6.986  11.532   5.097 -0.4534  0.3129 -1.7536
  661MOL0     H89207   6.965  11.553   5.343 -1.5894  1.6291  0.1908
  661MOL0     H89208   6.991  11.732   5.324  2.5907  1.3988 -0.0701
  661MOL0     H89209   7.201  11.581   5.379  0.5644 -0.3455 -0.4653
  661MOL0     H89210   7.185  11.520   5.214  0.0739 -0.2412 -0.8449
  661MOL0     H89211   7.213  11.818   5.296  0.7379  2.1779 -1.4201
  661MOL0     H89212   7.185  11.770   5.136 -1.6789 -0.2651 -0.2621
  661MOL0     H89213   7.419  11.668   5.314  1.3393 -0.0362 -1.0984
  661MOL0     H89214   7.419  11.639   5.147  2.2264 -0.5066  1.1492
  661MOL0     H89215   6.357  11.517   5.096  0.6966 -0.2991 -1.0862
  661MOL0     H89216   6.116  11.433   5.058  2.1018 -1.3350  1.6404
  661MOL0     H89217   5.770  11.121   4.951  0.4980  2.4493  0.5876
  661MOL0     H89218   5.533  11.084   4.852 -0.5766  0.5436  0.6840
  661MOL0     H89219   4.495  10.328   5.062 -1.4859  0.6645 -0.5511
  661MOL0     H89220   4.363  10.100   5.025  0.2891 -0.3740 -1.0004
  661MOL0     H89221   4.202   9.866   4.968 -0.1966 -1.0204 -0.2515
  661MOL0     H89222   4.113   9.731   4.802  0.0418 -1.1273  0.9119
  661MOL0     H89223   3.812   9.516   4.902  2.9329 -3.3643  0.2883
  661MOL0     H89224   3.948   9.514   4.810 -0.0345 -0.3126  1.0503
  661MOL0     H89225   3.777   9.366   4.726 -2.8456 -1.1909 -0.9391
  661MOL0     H89226   3.813   9.488   4.593 -0.8700  0.8696 -0.4205
  661MOL0     H89227   3.583   9.399   4.634  2.0913  0.0125 -1.8622
  661MOL0     H89228   3.604   9.563   4.596  2.6612 -2.5078 -3.7318
  661MOL0     H89229   3.599   9.472   4.887  0.9315 -1.8374 -0.3036
  661MOL0     H89230   3.600   9.648   4.828  0.1138  0.9044 -3.8457
  661MOL0     H89231   3.187   9.539   4.819 -0.3759  0.4796 -0.5518
  661MOL0     H89232   3.710   9.820   4.932 -0.5340  3.4604 -0.9032
  661MOL0     H89233   3.816  10.094   5.158  3.4164 -1.5926  1.1913
  661MOL0     H89234   3.683   9.991   5.101 -1.0664  2.4195  2.3253
  661MOL0     H89235   3.775   9.947   5.239 -3.3367  1.0730  0.9434
  662MOL0     O89236   8.142  10.297   7.470  0.2973  0.5820 -0.1234
  662MOL0     C89237   8.030  10.354   7.468 -0.5431 -0.7568 -0.5477
  662MOL0     O89238   7.996  10.472   7.525 -0.2521 -0.3937 -1.2774
  662MOL0     C89239   8.061  10.528   7.635 -0.8541 -0.1216 -0.1724
  662MOL0     C89240   8.050  10.670   7.665  0.6888  0.1488 -0.6983
  662MOL0     C89241   8.119  10.725   7.773  0.8412 -1.1476 -0.2684
  662MOL0     C89242   8.198  10.646   7.853 -0.5897  0.0383 -0.2049
  662MOL0     O89243   8.248  10.693   7.973 -0.6358 -0.4282 -0.1747
  662MOL0     C89244   8.386  10.725   7.943  0.4693 -0.4499 -0.1103
  662MOL0     C89245   8.442  10.749   8.084 -0.8134  0.0827 -0.2060
  662MOL0     C89246   8.507  10.896   8.100  0.5313 -0.0162  0.3376
  662MOL0     C89247   8.615  10.945   7.998  0.3685  0.5529  0.4635
  662MOL0     C89248   8.671  11.072   8.062 -0.5358  0.7548  0.9345
  662MOL0     C89249   8.806  11.129   8.000  0.2058 -0.7815  0.3069
  662MOL0     C89250   8.858  11.266   8.043 -0.5382 -1.0539  0.9528
  662MOL0     C89251   8.949  11.323   7.935 -0.8917  0.8362 -0.0211
  662MOL0     N89252   9.094  11.291   7.954 -0.4657 -0.5536  0.7904
  662MOL0     C89253   9.153  11.170   7.975  0.6676  0.6098 -0.2560
  662MOL0     C89254   9.285  11.192   8.009  0.4817 -0.0644  0.0659
  662MOL0     C89255   9.361  11.083   8.069  0.4608  0.2046 -0.0637
  662MOL0     C89256   9.512  11.117   8.047  0.1385 -0.1752  0.3825
  662MOL0     C89257   9.601  11.038   8.140 -0.6294  0.3746  0.4799
  662MOL0     C89258   9.736  11.086   8.158 -0.6282 -0.7949 -0.5044
  662MOL0     O89259   9.805  11.038   8.046 -0.9702 -0.7630 -0.5389
  662MOL0     C89260   9.943  11.058   8.036  0.2640  0.9230  0.2123
  662MOL0     C89261  10.008  10.979   7.941 -0.1131 -0.0553 -0.6147
  662MOL0     C89262  10.147  10.984   7.935  0.0514 -0.5819  1.0523
  662MOL0     C89263  10.225  11.072   8.013 -0.0725 -1.1825 -0.1831
  662MOL0     C89264  10.367  11.096   8.006 -0.2990  0.0891  0.2772
  662MOL0     O89265  10.419  11.212   8.058  0.2877  0.3388  0.1401
  662MOL0     C89266  10.516  11.280   7.990  0.1916  0.0253  0.1953
  662MOL0     C89267  10.574  11.387   8.058 -0.4106  0.1260 -0.4708
  662MOL0     C89268  10.656  11.484   7.998  0.6682  0.6509 -0.2301
  662MOL0     C89269  10.660  11.472   7.855 -0.0606 -0.5999 -0.1646
  662MOL0     O89270  10.737  11.560   7.781 -0.5364  0.0289  0.4968
  662MOL0     C89271  10.881  11.573   7.820 -1.1732  0.2259 -0.0934
  662MOL0     C89272  10.962  11.640   7.712  0.0177  0.0118  0.2356
  662MOL0     C89273  10.985  11.525   7.607 -0.1048 -0.0475  0.2317
  662MOL0     C89274  11.074  11.568   7.498 -0.0951  0.1424 -0.2666
  662MOL0     C89275  11.049  11.481   7.374 -0.1765  0.1923  0.3760
  662MOL0     C89276  11.147  11.358   7.372 -0.0032 -0.4010 -0.3743
  662MOL0     C89277  11.114  11.270   7.251 -0.1815 -0.0965 -0.1915
  662MOL0     C89278  11.121  11.337   7.112 -0.2115  0.3125  0.3821
  662MOL0    Cl89279  11.284  11.387   7.053 -0.0299  0.1142 -0.6137
  662MOL0     C89280  10.594  11.375   7.789 -0.2921  0.7201  0.1569
  662MOL0     C89281  10.521  11.279   7.850 -0.2455  0.4242 -0.3126
  662MOL0     O89282  10.423  11.012   7.938  0.1322 -0.3058  0.3794
  662MOL0     C89283  10.146  11.151   8.104 -0.1845  0.1597 -0.6608
  662MOL0     C89284  10.009  11.153   8.116  0.2887 -0.3250  0.0204
  662MOL0     N89285   9.304  11.333   7.994  0.1165  0.1687  0.1503
  662MOL0     N89286   9.190  11.387   7.966 -0.1894  0.7136  0.1766
  662MOL0     C89287   8.202  10.510   7.837  0.1145 -0.6115 -0.4027
  662MOL0     C89288   8.133  10.452   7.731  0.6914  0.1363 -0.4604
  662MOL0     C89289   7.926  10.285   7.384  0.0176 -1.0137 -0.0288
  662MOL0     C89290   7.793  10.263   7.426  0.0762 -0.2267  1.1822
  662MOL0     C89291   7.694  10.201   7.349  0.0042 -0.8007  0.5223
  662MOL0     C89292   7.723  10.173   7.218  0.3620  0.1828  0.7708
  662MOL0     O89293   7.635  10.112   7.126 -0.2447 -0.3530  0.3589
  662MOL0     C89294   7.662   9.977   7.083  0.6177 -0.5918  0.8415
  662MOL0     C89295   7.805   9.947   7.027 -0.2070  0.2354  0.2077
  662MOL0     C89296   7.809   9.798   6.972  0.4754  0.0428  0.3825
  662MOL0     C89297   7.941   9.777   6.905  0.2020 -0.6239  0.3913
  662MOL0     C89298   8.055   9.774   6.996  0.4083  0.4938 -0.0498
  662MOL0     C89299   8.149   9.774   7.074  0.3300  0.0911 -0.5656
  662MOL0     C89300   7.844  10.210   7.166 -0.3502  0.0452 -0.2872
  662MOL0     C89301   7.953  10.258   7.250  0.7576 -0.2639  0.0261
  662MOL0     C89302   8.090  10.268   7.192  0.6999  0.4015 -0.4156
  662MOL0     H89303   7.986  10.732   7.603 -0.7770 -4.8499 -4.9289
  662MOL0     H89304   8.109  10.831   7.792  1.2006 -1.4105  1.5673
  662MOL0     H89305   8.443  10.650   7.888  0.7497 -1.5766  1.6192
  662MOL0     H89306   8.379  10.814   7.880  0.5984 -1.1381 -1.1296
  662MOL0     H89307   8.530  10.685   8.091  0.2660  1.6315  1.0369
  662MOL0     H89308   8.363  10.727   8.156 -2.3779  1.6970 -1.3159
  662MOL0     H89309   8.565  10.892   8.193  2.8840  2.1415 -0.9297
  662MOL0     H89310   8.431  10.972   8.122  1.0491 -0.0229  2.4163
  662MOL0     H89311   8.693  10.870   7.981 -2.8593 -3.2715  0.9221
  662MOL0     H89312   8.569  10.990   7.909  1.4059  1.2156  0.2438
  662MOL0     H89313   8.600  11.156   8.057  1.5296  2.5703  0.6048
  662MOL0     H89314   8.699  11.037   8.162 -0.3233 -2.0048 -0.0114
  662MOL0     H89315   8.884  11.056   8.022  0.3103 -1.1898 -1.2623
  662MOL0     H89316   8.792  11.112   7.893  1.4865 -3.9809  0.5406
  662MOL0     H89317   8.918  11.264   8.135 -1.1982  0.8201  1.4726
  662MOL0     H89318   8.774  11.335   8.057  0.5397  0.1812  1.5111
  662MOL0     H89319   8.929  11.287   7.834  2.5245  0.9165 -0.8174
  662MOL0     H89320   8.946  11.433   7.939  3.9818  1.1222  1.5749
  662MOL0     H89321   9.106  11.073   7.990  1.8909 -0.0429 -0.4478
  662MOL0     H89322   9.330  11.071   8.173 -0.6383  1.7922 -0.1774
  662MOL0     H89323   9.343  10.989   8.016  0.4935 -0.2769  0.7700
  662MOL0     H89324   9.543  11.101   7.944  0.7187  2.1369  0.1392
  662MOL0     H89325   9.530  11.223   8.067  1.6181 -0.1290 -0.9890
  662MOL0     H89326   9.610  10.943   8.086  0.6281  1.4295 -1.2799
  662MOL0     H89327   9.565  11.011   8.240  1.0743 -1.8671  0.5781
  662MOL0     H89328   9.777  11.052   8.253  0.7692  3.0756  0.4615
  662MOL0     H89329   9.731  11.195   8.155 -3.3264 -0.7788  1.6409
  662MOL0     H89330   9.942  10.914   7.884 -1.5565  0.1389  0.7894
  662MOL0     H89331  10.197  10.922   7.862  0.3793  0.3885  0.4293
  662MOL0     H89332  10.558  11.396   8.165  5.2049  2.0356  0.5477
  662MOL0     H89333  10.710  11.561   8.052  1.2542 -0.0979  0.2725
  662MOL0     H89334  10.890  11.627   7.915 -0.8101 -4.1195  2.6704
  662MOL0     H89335  10.913  11.470   7.841 -1.8981 -0.3868 -1.8396
  662MOL0     H89336  10.898  11.713   7.662 -1.2533 -1.1617  0.0843
  662MOL0     H89337  11.058  11.675   7.752  1.1513  1.3071 -3.2414
  662MOL0     H89338  11.021  11.435   7.658 -3.5547 -2.0083 -0.4748
  662MOL0     H89339  10.884  11.499   7.575 -2.0844  3.3857  2.9406
  662MOL0     H89340  11.178  11.578   7.530 -0.1149 -0.6955  0.0612
  662MOL0     H89341  11.038  11.667   7.468 -1.9502  0.1247  1.7091
  662MOL0     H89342  11.057  11.547   7.287 -0.6134  1.8979  1.5868
  662MOL0     H89343  10.947  11.442   7.371 -0.6113  1.3512 -2.2831
  662MOL0     H89344  11.249  11.397   7.366 -1.1771  2.8440 -4.3873
  662MOL0     H89345  11.138  11.285   7.453  0.8265  0.7727  0.8086
  662MOL0     H89346  11.012  11.231   7.255  0.1646 -1.0182 -0.0565
  662MOL0     H89347  11.190  11.192   7.256  0.0933  0.2375  1.5517
  662MOL0     H89348  11.080  11.277   7.030  0.6733  1.5893 -1.0609
  662MOL0     H89349  11.045  11.415   7.108  0.0491  0.5501 -3.0916
  662MOL0     H89350  10.595  11.379   7.680 -2.4864 -1.4261 -0.0442
  662MOL0     H89351  10.463  11.205   7.796  1.9832 -2.1682  0.6459
  662MOL0     H89352  10.203  11.217   8.170  0.5206 -1.8976  0.9122
  662MOL0     H89353   9.974  11.216   8.197  0.8788  0.0079  0.0262
  662MOL0     H89354   8.262  10.451   7.907  0.7587  0.0650 -0.3691
  662MOL0     H89355   8.149  10.346   7.715  2.0007  0.1969  0.2713
  662MOL0     H89356   7.768  10.290   7.529  0.0847  1.1746  0.8361
  662MOL0     H89357   7.599  10.171   7.393  1.1223 -0.2371  3.6212
  662MOL0     H89358   7.589   9.964   7.003 -0.2480 -2.1873  1.8338
  662MOL0     H89359   7.642   9.905   7.163 -1.8273 -0.3794  0.5033
  662MOL0     H89360   7.873   9.953   7.112  1.4648 -1.9771 -0.8671
  662MOL0     H89361   7.827  10.022   6.951  1.0091  1.4464  1.7103
  662MOL0     H89362   7.717   9.793   6.913 -0.2852 -0.8375  1.5838
  662MOL0     H89363   7.787   9.728   7.054 -1.8093  2.2180  1.7682
  662MOL0     H89364   7.943   9.682   6.850 -0.2517 -1.5582  1.9076
  662MOL0     H89365   7.958   9.856   6.831  4.7228 -0.7640  1.0243
  662MOL0     H89366   8.230   9.774   7.144  0.4024 -2.3537 -0.5639
  662MOL0     H89367   7.859  10.199   7.059 -0.7681  0.9147 -0.4445
  662MOL0     H89368   8.155  10.192   7.236 -0.1234  0.5560  1.1495
  662MOL0     H89369   8.101  10.261   7.083  2.6403  0.1845 -0.2355
  662MOL0     H89370   8.136  10.360   7.230  1.2388 -1.3240  3.6516
  663MOL0     O89371   3.563   5.273   1.005 -0.1340 -0.3023  0.6027
  663MOL0     C89372   3.456   5.230   0.978  0.4435  1.1265 -0.4940
  663MOL0     O89373   3.339   5.299   0.966 -0.2585  0.2908 -0.3556
  663MOL0     C89374   3.333   5.431   0.996 -1.5619 -0.5154 -0.2001
  663MOL0     C89375   3.279   5.510   0.903  0.4576  0.3238  0.9594
  663MOL0     C89376   3.256   5.648   0.934 -0.3298 -0.1615 -0.2452
  663MOL0     C89377   3.281   5.704   1.061 -0.1258  0.1525 -0.4808
  663MOL0     O89378   3.245   5.824   1.102 -0.3066 -0.0034  0.3224
  663MOL0     C89379   3.191   5.928   1.014  0.2567  0.3946  1.1487
  663MOL0     C89380   3.296   6.017   0.938 -0.0620 -0.3904 -0.4970
  663MOL0     C89381   3.382   6.108   1.023 -0.3333  0.5158 -0.2020
  663MOL0     C89382   3.310   6.204   1.124 -0.1200 -0.3603  0.5692
  663MOL0     C89383   3.300   6.359   1.085 -0.2396  0.1584  0.5366
  663MOL0     C89384   3.391   6.437   1.172 -1.0803 -1.0913 -0.4716
  663MOL0     C89385   3.339   6.423   1.325  0.4300  0.1565 -0.3544
  663MOL0     C89386   3.408   6.532   1.409  1.1123 -0.1701  0.6991
  663MOL0     N89387   3.387   6.674   1.375 -0.5207  0.2233 -0.3826
  663MOL0     C89388   3.466   6.773   1.430 -0.5059  0.7351  0.4304
  663MOL0     C89389   3.392   6.883   1.402 -0.1286  0.2943 -0.3696
  663MOL0     C89390   3.443   7.014   1.455  0.3575 -0.0063  0.7991
  663MOL0     C89391   3.409   7.047   1.606  0.2067 -0.1652  1.4579
  663MOL0     C89392   3.513   6.967   1.697 -0.6504 -0.1978  0.3462
  663MOL0     C89393   3.506   6.996   1.839 -0.2078 -0.9284 -0.2960
  663MOL0     O89394   3.371   6.980   1.909 -0.4576  0.4281  0.9874
  663MOL0     C89395   3.381   6.984   2.045  1.7833  0.1031 -0.3363
  663MOL0     C89396   3.466   7.058   2.121 -0.3713 -0.4311 -0.1470
  663MOL0     C89397   3.462   7.052   2.261 -0.5292  0.4387  0.3791
  663MOL0     C89398   3.378   6.972   2.326  0.4517  0.3789 -0.4545
  663MOL0     C89399   3.359   6.957   2.474 -0.0029  0.0102 -0.0340
  663MOL0     O89400   3.415   7.057   2.558 -0.6572 -0.5790  0.1875
  663MOL0     C89401   3.393   7.054   2.692  0.2828 -0.8700 -0.1351
  663MOL0     C89402   3.269   7.063   2.759  0.1666  1.4420  0.4824
  663MOL0     C89403   3.261   7.074   2.899 -0.2981 -0.6013 -0.2067
  663MOL0     C89404   3.383   7.073   2.980  0.4481  1.2054 -0.6918
  663MOL0     O89405   3.373   7.066   3.122  0.4569 -0.2740 -0.5977
  663MOL0     C89406   3.274   6.974   3.172  0.4756  1.5292 -0.3285
  663MOL0     C89407   3.315   6.928   3.322  0.6389  0.3360  0.7077
  663MOL0     C89408   3.214   6.977   3.435 -0.6596 -0.4520 -0.4729
  663MOL0     C89409   3.200   7.130   3.436  1.0827  1.3523 -0.2411
  663MOL0     C89410   3.148   7.169   3.569 -0.3380 -0.5157  0.3415
  663MOL0     C89411   3.265   7.221   3.666 -0.0778  0.3592  0.1177
  663MOL0     C89412   3.377   7.128   3.668  0.2580 -0.0083  0.3743
  663MOL0     C89413   3.503   7.194   3.730 -0.0023 -0.7434  0.0662
  663MOL0    Cl89414   3.483   7.200   3.911 -0.1136  0.1785  0.0888
  663MOL0     C89415   3.506   7.069   2.919 -0.9717 -1.1446 -0.2396
  663MOL0     C89416   3.507   7.052   2.780 -0.4198  0.1088 -0.0329
  663MOL0     O89417   3.302   6.857   2.512  0.4000 -0.2819 -0.4348
  663MOL0     C89418   3.287   6.903   2.246  1.2300  0.2696  0.0874
  663MOL0     C89419   3.295   6.908   2.105  0.5721  0.5554  0.0148
  663MOL0     N89420   3.272   6.851   1.339 -0.0329 -0.6302  0.8328
  663MOL0     N89421   3.269   6.721   1.322  0.5352 -0.8340  0.4158
  663MOL0     C89422   3.338   5.614   1.155 -0.3587  0.1856  0.2823
  663MOL0     C89423   3.371   5.482   1.122  0.4295 -0.4574  1.0879
  663MOL0     C89424   3.445   5.086   0.954 -0.0694 -0.0808 -0.4653
  663MOL0     C89425   3.347   5.008   1.022  0.2024 -0.0689 -0.1921
  663MOL0     C89426   3.352   4.873   1.019 -0.2022 -0.7316 -0.6023
  663MOL0     C89427   3.454   4.805   0.962 -0.2390  0.4479  0.7237
  663MOL0     O89428   3.464   4.669   0.979  0.9165 -0.2341  0.3034
  663MOL0     C89429   3.355   4.590   1.032 -0.0079  0.2627  0.3754
  663MOL0     C89430   3.386   4.442   1.007 -0.2230  0.2584  0.6371
  663MOL0     C89431   3.502   4.382   1.091  0.1167 -0.9105  0.7109
  663MOL0     C89432   3.541   4.239   1.040 -0.0110  0.0682  0.7656
  663MOL0     C89433   3.642   4.201   1.130  0.5544  0.1183  0.0905
  663MOL0     C89434   3.728   4.165   1.205  0.0341  0.3965  0.4536
  663MOL0     C89435   3.546   4.879   0.888  0.8342 -0.1711  0.4083
  663MOL0     C89436   3.551   5.019   0.886  0.5492  0.3674  0.3142
  663MOL0     C89437   3.654   5.085   0.800 -0.1584 -0.0801  0.4186
  663MOL0     H89438   3.252   5.462   0.810  2.2099  1.5068 -0.2309
  663MOL0     H89439   3.188   5.702   0.868 -0.0821  1.2453  0.5964
  663MOL0     H89440   3.121   5.883   0.942  2.4252  0.5529 -1.2061
  663MOL0     H89441   3.131   5.990   1.081 -1.3375 -4.5896  4.9793
  663MOL0     H89442   3.242   6.089   0.875  1.7403 -0.3609 -2.0962
  663MOL0     H89443   3.365   5.954   0.881  1.4502 -1.0442  1.9246
  663MOL0     H89444   3.434   6.184   0.964 -6.2094  4.1218 -1.4899
  663MOL0     H89445   3.458   6.041   1.066 -0.0441 -0.1143 -1.6551
  663MOL0     H89446   3.208   6.164   1.135  1.1013 -3.9565  0.0969
  663MOL0     H89447   3.364   6.183   1.217  1.2020  1.3399  0.2247
  663MOL0     H89448   3.340   6.378   0.985 -0.3271  2.2247  0.8345
  663MOL0     H89449   3.197   6.391   1.101 -1.1730 -0.0733 -3.8087
  663MOL0     H89450   3.489   6.389   1.169 -1.8031 -2.8049  1.1866
  663MOL0     H89451   3.393   6.540   1.135 -0.3369 -1.7677 -2.4073
  663MOL0     H89452   3.364   6.325   1.369  2.4958  1.3018  1.2566
  663MOL0     H89453   3.231   6.435   1.324  0.2036 -0.9999  2.0105
  663MOL0     H89454   3.362   6.514   1.507 -1.8009  0.0081 -0.5262
  663MOL0     H89455   3.515   6.513   1.418  1.0122 -1.4797 -0.5693
  663MOL0     H89456   3.560   6.765   1.483  1.3529 -0.4434 -2.8167
  663MOL0     H89457   3.551   7.026   1.444  0.3164 -1.5292 -2.3084
  663MOL0     H89458   3.401   7.085   1.383  0.2280  1.1234  1.9461
  663MOL0     H89459   3.421   7.155   1.607 -1.4442  0.4291 -4.5010
  663MOL0     H89460   3.307   7.042   1.643  0.1209  0.5633  1.3264
  663MOL0     H89461   3.613   6.994   1.659 -0.1907  1.2625  2.4022
  663MOL0     H89462   3.496   6.859   1.690  0.0577 -0.2176 -3.5703
  663MOL0     H89463   3.534   7.100   1.859 -0.6727 -0.8176 -0.1958
  663MOL0     H89464   3.583   6.933   1.883  3.3307 -0.2072 -4.7350
  663MOL0     H89465   3.539   7.121   2.073  1.9756 -1.5892  1.6828
  663MOL0     H89466   3.535   7.108   2.318 -0.3815  0.1802  0.4490
  663MOL0     H89467   3.175   7.064   2.705 -1.2006  2.1444  2.7088
  663MOL0     H89468   3.160   7.077   2.940 -1.0845 -3.5071 -1.6437
  663MOL0     H89469   3.179   7.028   3.177 -0.6859 -0.1463 -2.4837
  663MOL0     H89470   3.257   6.881   3.118 -1.5116 -0.8008  3.8220
  663MOL0     H89471   3.326   6.819   3.322 -1.0995  0.0976  2.1762
  663MOL0     H89472   3.411   6.971   3.351  0.0860  1.4921  0.8833
  663MOL0     H89473   3.114   6.932   3.429 -1.0939 -0.5395  3.9319
  663MOL0     H89474   3.249   6.950   3.535 -1.7147 -0.8598 -0.1988
  663MOL0     H89475   3.119   7.152   3.366 -0.7685 -4.6002 -0.5931
  663MOL0     H89476   3.294   7.176   3.405  3.0402 -2.7373 -1.0317
  663MOL0     H89477   3.080   7.099   3.619 -1.0096  0.7123  1.1983
  663MOL0     H89478   3.080   7.252   3.548 -0.8100 -1.4911 -2.3300
  663MOL0     H89479   3.313   7.314   3.636  1.7888 -1.0093 -1.3970
  663MOL0     H89480   3.217   7.231   3.764  1.3432 -0.6297  0.9620
  663MOL0     H89481   3.407   7.093   3.568  2.3364 -1.4589  1.4075
  663MOL0     H89482   3.352   7.040   3.729  1.5155 -0.7155 -0.0873
  663MOL0     H89483   3.586   7.131   3.696  2.7466  2.7332 -0.2433
  663MOL0     H89484   3.523   7.296   3.695 -1.3209 -0.2745  0.5914
  663MOL0     H89485   3.593   7.071   2.985 -2.0799  0.9409  1.2813
  663MOL0     H89486   3.591   7.028   2.716 -2.5234 -0.7328 -2.6866
  663MOL0     H89487   3.202   6.845   2.282  1.6924 -0.6717 -0.3038
  663MOL0     H89488   3.214   6.859   2.052 -0.5953  3.9428 -1.6303
  663MOL0     H89489   3.346   5.651   1.256 -3.7046 -0.6246  0.9716
  663MOL0     H89490   3.437   5.419   1.182  3.5851 -0.7197 -2.3345
  663MOL0     H89491   3.260   5.045   1.077 -0.8806  1.9920 -3.0611
  663MOL0     H89492   3.267   4.829   1.070  0.6571 -1.0264  0.6210
  663MOL0     H89493   3.267   4.605   0.968 -0.9437 -1.8087  1.0811
  663MOL0     H89494   3.339   4.608   1.139  1.4630  3.4277  0.1704
  663MOL0     H89495   3.417   4.421   0.904  2.9547 -1.6635  1.8340
  663MOL0     H89496   3.299   4.376   1.017 -2.2642  2.5153 -1.0459
  663MOL0     H89497   3.472   4.377   1.196  1.4403 -1.9314  1.0691
  663MOL0     H89498   3.589   4.448   1.090  1.4732 -2.6051 -0.6760
  663MOL0     H89499   3.458   4.169   1.050 -0.7571  0.8593  0.2584
  663MOL0     H89500   3.577   4.262   0.939  1.7206 -1.4311  0.9781
  663MOL0     H89501   3.817   4.139   1.257 -1.0682 -1.8370  1.3691
  663MOL0     H89502   3.623   4.834   0.827 -0.1422 -1.4113  0.0341
  663MOL0     H89503   3.615   5.143   0.716  2.5054 -0.0446 -0.9223
  663MOL0     H89504   3.722   5.134   0.870  0.6735 -2.6076  1.5091
  663MOL0     H89505   3.714   5.013   0.743 -0.8694 -0.3320 -0.0231
  664MOL0     O89506  10.395  10.109   6.932 -0.0893  1.3824  0.2658
  664MOL0     C89507  10.288  10.058   6.955  1.2735  0.1558  0.6328
  664MOL0     O89508  10.163  10.095   6.901  0.6973 -0.6712  0.7278
  664MOL0     C89509  10.147  10.222   6.836  0.6799  0.7765 -0.5194
  664MOL0     C89510  10.204  10.349   6.875 -0.2798 -0.2436 -0.0705
  664MOL0     C89511  10.176  10.465   6.797  0.3373  0.5305 -0.4377
  664MOL0     C89512  10.109  10.462   6.678  0.0178  0.5651  1.1402
  664MOL0     O89513  10.084  10.565   6.591  0.0456 -0.4389 -0.3234
  664MOL0     C89514  10.205  10.637   6.546 -0.2112  0.8752  0.0274
  664MOL0     C89515  10.220  10.772   6.623  0.1742  0.2232  1.4944
  664MOL0     C89516  10.360  10.829   6.601 -0.2147  0.3983  0.2110
  664MOL0     C89517  10.341  10.986   6.546  0.2103 -0.2248 -0.0810
  664MOL0     C89518  10.471  11.055   6.568 -0.0914 -0.3606  0.0707
  664MOL0     C89519  10.493  11.104   6.718 -0.1869  0.8573 -0.1107
  664MOL0     C89520  10.639  11.161   6.732 -0.6492 -0.8171 -0.6423
  664MOL0     C89521  10.646  11.311   6.681 -0.3908 -0.6344  0.0013
  664MOL0     N89522  10.746  11.390   6.756  0.3995  0.2752  0.6898
  664MOL0     C89523  10.871  11.429   6.711  0.4587 -0.1831  0.2048
  664MOL0     C89524  10.917  11.506   6.808 -0.7822 -0.4656  0.7312
  664MOL0     C89525  11.057  11.579   6.808 -0.7518  0.1404  0.0434
  664MOL0     C89526  11.044  11.715   6.749  0.3379 -0.8609 -1.0120
  664MOL0     C89527  11.163  11.805   6.789 -0.8026 -0.1404  0.0914
  664MOL0     C89528  11.281  11.798   6.695 -0.5819 -0.1447 -0.0894
  664MOL0     O89529  11.250  11.819   6.559  0.2967 -0.3313 -0.1890
  664MOL0     C89530  11.261  11.946   6.511  0.9671  0.3418  0.0612
  664MOL0     C89531  11.272  12.065   6.598  0.9565 -0.0177 -0.4330
  664MOL0     C89532  11.286  12.190   6.543 -0.5559 -0.0194  1.1853
  664MOL0     C89533  11.284  12.210   6.406 -0.3248  0.1353  0.9411
  664MOL0     C89534  11.304  12.345   6.352  0.2416 -0.9516  0.2016
  664MOL0     O89535  11.283  12.447   6.439 -0.1314  0.4972 -0.5626
  664MOL0     C89536  11.339  12.571   6.417  0.3214  0.5768  0.5614
  664MOL0     C89537  11.466  12.593   6.368 -0.3992  0.5191 -0.2015
  664MOL0     C89538  11.527  12.716   6.359 -0.6557 -0.1391 -0.6410
  664MOL0     C89539  11.468  12.830   6.426  1.2467 -0.3393  0.0328
  664MOL0     O89540  11.545  12.943   6.422  0.4114  0.1392 -0.2272
  664MOL0     C89541  11.510  13.038   6.524 -0.7697 -0.7602  0.0375
  664MOL0     C89542  11.620  13.137   6.554 -0.2819  0.2490  0.2437
  664MOL0     C89543  11.587  13.244   6.658  0.3954  0.7972 -0.1387
  664MOL0     C89544  11.698  13.346   6.678 -0.4116  0.1602 -0.4104
  664MOL0     C89545  11.658  13.432   6.787  0.5207 -1.0886  0.1513
  664MOL0     C89546  11.762  13.537   6.833  0.0529  0.2096 -0.5595
  664MOL0     C89547  11.806  13.635   6.725 -0.4552  1.1003  0.1873
  664MOL0     C89548  11.932  13.715   6.753  0.0450 -0.2532  1.2525
  664MOL0    Cl89549  12.047  13.657   6.885 -0.0016 -0.1639 -0.1306
  664MOL0     C89550  11.334  12.806   6.466 -0.4614  0.1614 -0.0317
  664MOL0     C89551  11.273  12.681   6.467  0.4040 -0.6519  0.0271
  664MOL0     O89552  11.337  12.362   6.236 -0.0669 -0.1384  0.3623
  664MOL0     C89553  11.273  12.097   6.321  0.4107  0.0048  0.0840
  664MOL0     C89554  11.257  11.971   6.367 -0.1169  0.1757 -0.6794
  664MOL0     N89555  10.829  11.515   6.918 -0.0265 -0.7492  1.0588
  664MOL0     N89556  10.729  11.442   6.884  0.0094 -0.2852 -0.2760
  664MOL0     C89557  10.030  10.348   6.651 -0.2339 -0.3707 -0.0521
  664MOL0     C89558  10.052  10.232   6.732 -0.2750 -0.0321  0.4421
  664MOL0     C89559  10.282   9.943   7.048  0.1625  0.8375  0.2491
  664MOL0     C89560  10.162   9.906   7.090  0.6507 -1.1401 -0.3472
  664MOL0     C89561  10.147   9.795   7.162  0.1113  1.1626 -0.6973
  664MOL0     C89562  10.251   9.711   7.200  0.3637  0.0893 -0.7130
  664MOL0     O89563  10.251   9.588   7.264  0.6329 -0.2014 -0.2378
  664MOL0     C89564  10.149   9.508   7.207 -0.0546 -0.1023 -0.5473
  664MOL0     C89565  10.137   9.361   7.256  0.2631 -0.5040 -0.0989
  664MOL0     C89566  10.249   9.322   7.351  0.2582  0.6157  0.4554
  664MOL0     C89567  10.234   9.179   7.400 -0.4166 -0.8908  0.7271
  664MOL0     C89568  10.158   9.152   7.524  0.4685 -1.0006  0.1469
  664MOL0     C89569  10.097   9.132   7.619 -0.2942 -0.1719 -0.6842
  664MOL0     C89570  10.369   9.750   7.151 -0.7521 -0.4120 -0.4834
  664MOL0     C89571  10.396   9.863   7.082 -0.7240  0.2446 -0.3201
  664MOL0     C89572  10.546   9.881   7.034  0.2553  0.0769  0.0261
  664MOL0     H89573  10.266  10.370   6.962  0.2596 -0.7565 -0.3295
  664MOL0     H89574  10.222  10.560   6.823  4.7151 -1.9633  2.1564
  664MOL0     H89575  10.290  10.569   6.559  0.4358  1.6455 -0.0832
  664MOL0     H89576  10.198  10.659   6.439 -1.1702  0.8515  0.0774
  664MOL0     H89577  10.202  10.753   6.729 -0.7395  0.6609  1.4225
  664MOL0     H89578  10.143  10.838   6.582  2.7414  1.1207 -2.4598
  664MOL0     H89579  10.409  10.764   6.529  1.5226 -0.1547  1.8177
  664MOL0     H89580  10.407  10.831   6.699 -0.1289  3.7281  0.2029
  664MOL0     H89581  10.316  10.993   6.440  0.8874  1.5346 -0.1569
  664MOL0     H89582  10.269  11.037   6.611 -0.2685 -0.7250 -0.2131
  664MOL0     H89583  10.548  10.983   6.540  0.0271 -0.6703  1.1672
  664MOL0     H89584  10.471  11.149   6.512 -0.8142  1.0604  2.3085
  664MOL0     H89585  10.416  11.177   6.743  0.2022  0.8450  1.1762
  664MOL0     H89586  10.482  11.017   6.783  1.5850  1.0862  0.5723
  664MOL0     H89587  10.712  11.103   6.673  0.4196  0.2590 -0.4262
  664MOL0     H89588  10.661  11.161   6.839  2.0933  2.2366 -1.0341
  664MOL0     H89589  10.665  11.307   6.573 -0.6524  0.6955 -0.1158
  664MOL0     H89590  10.549  11.361   6.695  0.5909  0.8363  2.0777
  664MOL0     H89591  10.924  11.401   6.620 -2.4967 -0.5938 -1.5227
  664MOL0     H89592  11.093  11.592   6.911  3.7508 -2.3376 -0.9640
  664MOL0     H89593  11.129  11.527   6.746 -1.6958  1.5743 -2.4149
  664MOL0     H89594  11.035  11.699   6.641 -2.4683 -4.5978 -0.4434
  664MOL0     H89595  10.950  11.759   6.782  2.0368  2.1373  0.2172
  664MOL0     H89596  11.201  11.799   6.892 -0.3977 -0.0525 -0.0524
  664MOL0     H89597  11.131  11.907   6.765 -0.2862 -0.4709 -2.2033
  664MOL0     H89598  11.321  11.697   6.705 -2.4364 -0.6952  3.1658
  664MOL0     H89599  11.364  11.859   6.732  1.2110 -1.7635 -1.2337
  664MOL0     H89600  11.274  12.046   6.705  0.4444  0.5159 -0.3283
  664MOL0     H89601  11.303  12.276   6.607 -2.8943  2.6314 -1.4454
  664MOL0     H89602  11.521  12.501   6.349 -1.5203 -0.0676 -0.6971
  664MOL0     H89603  11.627  12.727   6.319 -0.5463 -1.2107 -0.7139
  664MOL0     H89604  11.425  13.099   6.494  0.2755  0.6502 -0.1558
  664MOL0     H89605  11.492  12.981   6.616 -0.3956  0.2273  0.7438
  664MOL0     H89606  11.702  13.076   6.593  0.8964  1.5141 -0.1968
  664MOL0     H89607  11.654  13.193   6.466  0.2895 -1.2265 -0.5119
  664MOL0     H89608  11.510  13.312   6.620  1.1283  1.2337 -0.8659
  664MOL0     H89609  11.554  13.196   6.751 -1.5977 -0.4579 -1.4139
  664MOL0     H89610  11.713  13.406   6.588 -0.4408  0.9608  0.1056
  664MOL0     H89611  11.801  13.322   6.708  0.5869  2.4477 -1.7661
  664MOL0     H89612  11.629  13.375   6.876 -0.5277  2.4062  2.2293
  664MOL0     H89613  11.568  13.482   6.750 -0.1790 -1.9347  0.6858
  664MOL0     H89614  11.720  13.593   6.916  0.5119  0.5067 -0.5227
  664MOL0     H89615  11.855  13.483   6.853  0.2658 -0.5629 -3.2461
  664MOL0     H89616  11.717  13.697   6.707 -1.8334 -0.7030  0.5440
  664MOL0     H89617  11.820  13.578   6.634  1.2748  3.3268 -1.0636
  664MOL0     H89618  11.984  13.718   6.656  0.6719  0.0364  1.5944
  664MOL0     H89619  11.908  13.818   6.779  1.0517  0.0074  1.1674
  664MOL0     H89620  11.282  12.883   6.523 -1.0332 -0.4208  0.2458
  664MOL0     H89621  11.173  12.669   6.507  0.1666 -0.0286 -0.3615
  664MOL0     H89622  11.268  12.121   6.215  0.7802  1.6951  0.4199
  664MOL0     H89623  11.265  11.890   6.295  1.8230 -0.2749 -0.0225
  664MOL0     H89624   9.969  10.348   6.562  0.6343 -0.8663 -0.6609
  664MOL0     H89625  10.015  10.138   6.693  1.6365 -0.6431 -0.0164
  664MOL0     H89626  10.073   9.967   7.077  1.9833  0.8852 -0.3575
  664MOL0     H89627  10.047   9.779   7.202  0.0908  2.5159 -0.1642
  664MOL0     H89628  10.165   9.513   7.099  1.0288 -2.2959 -0.5272
  664MOL0     H89629  10.050   9.543   7.239 -0.7540 -3.2129  1.0980
  664MOL0     H89630  10.119   9.297   7.170 -1.2031  0.0598 -0.2382
  664MOL0     H89631  10.045   9.369   7.315  1.7518  3.1842  2.1569
  664MOL0     H89632  10.270   9.389   7.435 -1.5078  0.4338  1.1040
  664MOL0     H89633  10.342   9.324   7.295 -0.0479 -3.7979 -0.6128
  664MOL0     H89634  10.193   9.114   7.322 -0.7244  1.5879 -1.3565
  664MOL0     H89635  10.337   9.154   7.429  1.1067  1.8904 -1.6782
  664MOL0     H89636  10.066   9.110   7.719 -0.5570 -1.7773 -1.0930
  664MOL0     H89637  10.452   9.686   7.178  0.2348 -0.4997 -3.3456
  664MOL0     H89638  10.554   9.844   6.932 -1.8865  1.0920 -0.5596
  664MOL0     H89639  10.579   9.986   7.040  0.0001  0.1901 -0.5496
  664MOL0     H89640  10.615   9.825   7.099  0.4842 -1.5434 -1.5523
  665MOL0     O89641   3.181   0.691   6.656 -1.1184  0.5637 -0.5769
  665MOL0     C89642   3.142   0.771   6.575  0.2727  0.0318 -0.6777
  665MOL0     O89643   3.017   0.834   6.591  0.6681  0.3495  0.4569
  665MOL0     C89644   2.932   0.802   6.695 -0.0969 -0.4589  0.3687
  665MOL0     C89645   2.833   0.703   6.678  0.1936 -0.1760 -1.1733
  665MOL0     C89646   2.751   0.666   6.788  0.3883  0.7421  0.2064
  665MOL0     C89647   2.756   0.727   6.916  0.4409 -0.4488  1.0940
  665MOL0     O89648   2.654   0.695   7.003  0.2020  0.6093  0.4345
  665MOL0     C89649   2.652   0.732   7.142  0.2928 -0.0411  0.8940
  665MOL0     C89650   2.515   0.704   7.203  0.1810 -0.0885  0.0703
  665MOL0     C89651   2.413   0.804   7.161  1.8744  0.2014  0.4866
  665MOL0     C89652   2.293   0.819   7.254 -0.1183 -0.5937  0.0863
  665MOL0     C89653   2.259   0.966   7.290  0.2059  0.1725 -0.4202
  665MOL0     C89654   2.121   0.975   7.366  0.3800  0.8447  0.7421
  665MOL0     C89655   1.986   0.938   7.284  0.4102  0.1852  0.1282
  665MOL0     C89656   1.950   1.051   7.189 -0.6751 -0.2999 -0.0793
  665MOL0     N89657   1.816   1.035   7.129  0.0220  0.0964 -0.3051
  665MOL0     C89658   1.691   1.060   7.185 -1.3892 -0.6033  0.1576
  665MOL0     C89659   1.612   0.981   7.115  0.6991  0.5845  0.2719
  665MOL0     C89660   1.461   0.975   7.115 -0.4130  0.2739  0.2457
  665MOL0     C89661   1.391   0.950   7.250 -0.2550 -0.1752 -0.7791
  665MOL0     C89662   1.243   0.914   7.253 -0.3268 -0.2176  0.1715
  665MOL0     C89663   1.188   0.857   7.386 -0.0178  0.6206 -0.4531
  665MOL0     O89664   1.050   0.833   7.367  0.1147 -0.5712  0.0849
  665MOL0     C89665   0.971   0.774   7.463  0.3340  0.1981  0.3340
  665MOL0     C89666   0.997   0.786   7.602 -0.3054 -0.6556  0.7383
  665MOL0     C89667   0.906   0.758   7.701  0.0499 -0.1804  0.3743
  665MOL0     C89668   0.777   0.718   7.661 -0.0129  0.3165  1.1145
  665MOL0     C89669   0.675   0.691   7.768 -0.0203 -0.7091  0.3600
  665MOL0     O89670   0.542   0.678   7.725  0.0478  0.8850  0.3469
  665MOL0     C89671   0.446   0.634   7.817  0.1485 -0.2770  0.6848
  665MOL0     C89672   0.323   0.710   7.837 -0.3958 -0.6484  0.1689
  665MOL0     C89673   0.229   0.687   7.941  0.5345  0.0363  0.6837
  665MOL0     C89674   0.243   0.572   8.020 -0.8786 -0.0782 -0.5116
  665MOL0     O89675   0.132   0.553   8.103 -0.6324 -0.1061  0.1636
  665MOL0     C89676   0.137   0.446   8.203 -0.7237 -0.4673  0.1465
  665MOL0     C89677   0.030   0.493   8.308 -0.7652  0.8146  0.7643
  665MOL0     C89678   0.012   0.399   8.434 -0.0772  0.2224  0.4265
  665MOL0     C89679  -0.099   0.477   8.504 -0.7687  0.7167  0.6231
  665MOL0     C89680  -0.166   0.420   8.631  0.2711  0.5071 -0.4728
  665MOL0     C89681  -0.050   0.394   8.731  0.6786  1.0305  0.9870
  665MOL0     C89682  -0.104   0.343   8.861  0.0921  0.2453 -0.6211
  665MOL0     C89683   0.013   0.273   8.931 -1.0548 -0.0935 -0.1134
  665MOL0    Cl89684   0.140   0.387   8.990  0.0181  0.5589 -0.1150
  665MOL0     C89685   0.356   0.492   7.998  0.9268 -0.6919  0.4415
  665MOL0     C89686   0.447   0.519   7.896 -0.3832 -0.6211 -0.1091
  665MOL0     O89687   0.707   0.683   7.889 -0.1126 -0.2472  0.4680
  665MOL0     C89688   0.745   0.707   7.532  0.2226 -0.2993 -0.2868
  665MOL0     C89689   0.840   0.729   7.428  0.0822 -0.3131  0.7089
  665MOL0     N89690   1.684   0.927   7.008 -0.4901 -0.0791 -0.2749
  665MOL0     N89691   1.809   0.958   7.014 -0.6633  0.0380 -0.4252
  665MOL0     C89692   2.851   0.829   6.929  0.1675  0.4839 -0.0186
  665MOL0     C89693   2.931   0.869   6.816 -0.6502  0.1583  0.4136
  665MOL0     C89694   3.232   0.807   6.467  0.3533  1.0846 -0.6018
  665MOL0     C89695   3.270   0.941   6.464 -0.5297 -0.2087  0.1675
  665MOL0     C89696   3.373   0.985   6.375  0.5471  0.4181  0.0803
  665MOL0     C89697   3.426   0.888   6.288 -0.5839  0.3408 -0.3397
  665MOL0     O89698   3.515   0.912   6.184  1.3424 -0.2156  0.6882
  665MOL0     C89699   3.546   1.045   6.156  0.1839  0.2449  0.0997
  665MOL0     C89700   3.654   1.054   6.051  0.3759  0.4456  0.4559
  665MOL0     C89701   3.779   0.982   6.099 -0.3438 -0.8750  0.1604
  665MOL0     C89702   3.843   0.896   6.001 -0.7793  0.7939 -0.3688
  665MOL0     C89703   3.827   0.755   6.012 -0.9653  1.3456 -0.1837
  665MOL0     C89704   3.805   0.638   6.026  0.0153  0.0397 -1.1155
  665MOL0     C89705   3.397   0.756   6.312  0.2200 -0.5007 -0.9366
  665MOL0     C89706   3.306   0.711   6.402 -0.0543 -0.5953  1.2168
  665MOL0     C89707   3.297   0.557   6.414 -0.0729 -1.4419  0.3200
  665MOL0     H89708   2.828   0.648   6.585  3.4091 -1.5451 -0.6602
  665MOL0     H89709   2.697   0.571   6.789  0.2744  0.7512  2.9560
  665MOL0     H89710   2.727   0.675   7.197 -0.4094  0.0220  1.9357
  665MOL0     H89711   2.685   0.836   7.149  0.5475 -0.1301  1.0460
  665MOL0     H89712   2.530   0.712   7.311  1.1899 -0.6439 -0.0203
  665MOL0     H89713   2.487   0.603   7.174  0.0254 -0.5447  1.7288
  665MOL0     H89714   2.365   0.763   7.071  3.0870 -2.6237  1.0483
  665MOL0     H89715   2.462   0.898   7.136  2.9269 -0.8816 -1.7890
  665MOL0     H89716   2.211   0.764   7.207  0.8818  1.1443 -4.1858
  665MOL0     H89717   2.321   0.771   7.348  0.7092 -2.8722 -1.2212
  665MOL0     H89718   2.342   1.013   7.343  2.2215  0.2605 -3.4144
  665MOL0     H89719   2.231   1.008   7.193  1.5891  1.6323 -0.2213
  665MOL0     H89720   2.133   0.910   7.453  2.7870  1.4939  0.9678
  665MOL0     H89721   2.114   1.080   7.397  1.2107  0.2580  3.0651
  665MOL0     H89722   1.905   0.916   7.354 -0.1028 -3.2239 -1.3450
  665MOL0     H89723   2.021   0.854   7.223  3.1019  3.1472 -2.7874
  665MOL0     H89724   1.941   1.143   7.247  0.6160  2.0838 -3.3112
  665MOL0     H89725   2.032   1.055   7.116  0.7043 -0.2398  1.4292
  665MOL0     H89726   1.663   1.125   7.268 -4.0716 -2.1416  0.5826
  665MOL0     H89727   1.419   1.064   7.066 -1.1543 -0.2945 -0.1705
  665MOL0     H89728   1.423   0.894   7.053  0.5613 -1.4847  1.8520
  665MOL0     H89729   1.438   0.867   7.302 -0.4374  0.7954  0.9970
  665MOL0     H89730   1.397   1.033   7.320  1.2300 -0.3370 -0.6886
  665MOL0     H89731   1.236   0.832   7.180 -0.4353  0.7336 -0.9009
  665MOL0     H89732   1.186   0.999   7.214 -1.0437 -2.0256 -3.1138
  665MOL0     H89733   1.208   0.912   7.478 -4.7344 -1.0376  1.9066
  665MOL0     H89734   1.227   0.757   7.406  1.8640  1.5709  0.9732
  665MOL0     H89735   1.097   0.817   7.631  1.7974 -5.6216 -0.2198
  665MOL0     H89736   0.925   0.761   7.808 -2.5835  0.2780  0.9117
  665MOL0     H89737   0.306   0.801   7.780  0.8393 -0.7428 -0.3928
  665MOL0     H89738   0.144   0.755   7.951  1.9382  2.6546 -2.8163
  665MOL0     H89739   0.135   0.345   8.160  0.3663 -0.9521  1.1802
  665MOL0     H89740   0.233   0.456   8.255 -0.7677  0.3646  0.0827
  665MOL0     H89741   0.072   0.592   8.328  2.2560  0.1122 -1.3689
  665MOL0     H89742  -0.064   0.498   8.251  0.4824  0.1883 -1.4630
  665MOL0     H89743  -0.033   0.301   8.414  0.1537  0.2542 -0.2676
  665MOL0     H89744   0.105   0.391   8.492  1.0021 -0.3385 -1.3308
  665MOL0     H89745  -0.185   0.495   8.440  0.6991  0.1039 -1.6567
  665MOL0     H89746  -0.044   0.568   8.530  2.0335 -1.4089  2.8859
  665MOL0     H89747  -0.212   0.322   8.616  0.5848  0.7552 -3.6697
  665MOL0     H89748  -0.236   0.493   8.673  0.4959  1.4093 -1.6354
  665MOL0     H89749   0.014   0.317   8.686 -2.9681 -2.6940  1.5120
  665MOL0     H89750   0.012   0.481   8.754  2.2393  1.0510 -2.6295
  665MOL0     H89751  -0.182   0.269   8.839  0.7431 -0.9849  0.9661
  665MOL0     H89752  -0.136   0.416   8.936  1.7507 -0.0475  0.4346
  665MOL0     H89753  -0.032   0.215   9.012 -0.2467  0.2394  0.5885
  665MOL0     H89754   0.063   0.198   8.869  1.0392 -1.1077  2.5744
  665MOL0     H89755   0.372   0.400   8.054  3.4015 -0.4401  0.2461
  665MOL0     H89756   0.528   0.449   7.877 -0.9064 -1.7131  1.5049
  665MOL0     H89757   0.645   0.680   7.499  0.0659  0.7779 -0.7566
  665MOL0     H89758   0.812   0.735   7.323  1.1903 -1.6609  0.3219
  665MOL0     H89759   2.857   0.880   7.024 -2.1550 -0.0122  0.4481
  665MOL0     H89760   3.001   0.952   6.824 -2.7674  2.0491  0.2046
  665MOL0     H89761   3.215   1.028   6.500 -2.5139 -0.2505 -2.4163
  665MOL0     H89762   3.392   1.087   6.343  0.6793  0.0571 -1.0594
  665MOL0     H89763   3.579   1.099   6.246 -4.0436  2.9242  0.3137
  665MOL0     H89764   3.455   1.098   6.127 -0.3808 -1.2352 -0.9342
  665MOL0     H89765   3.690   1.156   6.033 -0.2605  0.6855  0.5087
  665MOL0     H89766   3.619   1.006   5.959  1.4559 -1.4266  0.9746
  665MOL0     H89767   3.759   0.921   6.187  0.9123 -2.5194 -0.6485
  665MOL0     H89768   3.850   1.056   6.135 -0.5373 -1.8949  2.8854
  665MOL0     H89769   3.819   0.932   5.901 -0.0356  0.7117 -0.5861
  665MOL0     H89770   3.951   0.912   5.999 -0.3216 -1.7190  0.6746
  665MOL0     H89771   3.801   0.531   6.038  1.3317 -0.2466 -2.9098
  665MOL0     H89772   3.447   0.682   6.250 -1.3762 -0.5659 -2.2255
  665MOL0     H89773   3.386   0.519   6.464 -0.4189  1.3523  3.3844
  665MOL0     H89774   3.213   0.537   6.482  1.2219 -0.7540  2.2052
  665MOL0     H89775   3.290   0.509   6.316  1.5754  0.7162 -0.9446
  666MOL0     O89776   8.726   0.705   9.803 -0.1622 -0.5542  0.3959
  666MOL0     C89777   8.630   0.768   9.846  0.1981  0.5756  0.5628
  666MOL0     O89778   8.624   0.899   9.879  0.0905 -0.7936 -0.7286
  666MOL0     C89779   8.734   0.975   9.842 -0.6312 -0.3745 -0.1601
  666MOL0     C89780   8.789   0.976   9.723 -0.4145  0.4271 -0.1344
  666MOL0     C89781   8.907   1.052   9.690  0.4848 -0.4881 -0.2689
  666MOL0     C89782   8.960   1.142   9.785  1.0435 -1.1964 -1.2916
  666MOL0     O89783   9.056   1.224   9.740 -0.5896  0.1527 -0.2011
  666MOL0     C89784   9.170   1.243   9.834 -0.1171  0.3096 -0.3826
  666MOL0     C89785   9.305   1.264   9.767 -0.2792 -0.6008  0.7412
  666MOL0     C89786   9.331   1.380   9.675  0.3485 -1.1599  0.8958
  666MOL0     C89787   9.378   1.501   9.761  0.4704 -0.1406  0.7482
  666MOL0     C89788   9.413   1.610   9.662 -0.7696 -0.2084  0.2291
  666MOL0     C89789   9.290   1.688   9.613  0.3972  0.5815 -0.3791
  666MOL0     C89790   9.254   1.809   9.713  0.2340 -0.1181  0.0652
  666MOL0     C89791   9.127   1.779   9.794 -0.0959  0.1061 -0.4411
  666MOL0     N89792   9.010   1.765   9.703 -0.3445  1.3088  1.0862
  666MOL0     C89793   8.962   1.870   9.615  0.5690 -0.4124 -0.3227
  666MOL0     C89794   8.864   1.811   9.549  0.7397 -0.6673  0.6956
  666MOL0     C89795   8.770   1.884   9.453  0.6424  0.2745 -0.1294
  666MOL0     C89796   8.620   1.860   9.481 -0.3092 -0.5428 -0.2371
  666MOL0     C89797   8.560   1.928   9.603  0.0846 -0.8798  0.2394
  666MOL0     C89798   8.458   1.846   9.673  0.8739  0.7133 -0.2154
  666MOL0     O89799   8.454   1.878   9.818  0.5251 -0.0785  0.1192
  666MOL0     C89800   8.332   1.910   9.871 -0.3341  0.4835 -0.1957
  666MOL0     C89801   8.337   2.001   9.977  0.0258  0.0446  0.3227
  666MOL0     C89802   8.221   2.034  10.040  0.0778 -1.0773 -0.0291
  666MOL0     C89803   8.096   1.982  10.001  0.1743  0.9396 -0.1344
  666MOL0     C89804   7.974   2.028  10.066  0.8401 -0.5155  0.0545
  666MOL0     O89805   7.981   2.092  10.181  0.8903 -0.3882 -1.4416
  666MOL0     C89806   7.873   2.159  10.239 -0.0834  0.7409 -0.1350
  666MOL0     C89807   7.742   2.121  10.238 -0.2625 -0.8874  0.6516
  666MOL0     C89808   7.641   2.212  10.280  0.1585  0.2461 -0.6351
  666MOL0     C89809   7.667   2.335  10.342 -0.7650 -0.6409  1.1430
  666MOL0     O89810   7.554   2.417  10.373  0.1170  0.1268  0.5304
  666MOL0     C89811   7.587   2.545  10.422 -0.8431 -0.1525 -0.5720
  666MOL0     C89812   7.465   2.630  10.449  0.6281  1.1547 -0.8754
  666MOL0     C89813   7.353   2.565  10.539  0.8951  0.5018 -0.3876
  666MOL0     C89814   7.208   2.612  10.511  0.5995  0.0528 -0.8190
  666MOL0     C89815   7.100   2.519  10.577  0.4120 -0.0309 -0.2741
  666MOL0     C89816   6.961   2.585  10.559 -0.8096  1.2619 -0.6202
  666MOL0     C89817   6.858   2.503  10.642  1.0443  0.3652  0.4111
  666MOL0     C89818   6.717   2.484  10.577  0.7544 -0.1995  0.0415
  666MOL0    Cl89819   6.699   2.356  10.454 -0.1413 -0.4360 -0.3607
  666MOL0     C89820   7.804   2.366  10.357  0.0077 -0.0469  0.0357
  666MOL0     C89821   7.908   2.281  10.307  0.9336  0.5361  0.2798
  666MOL0     O89822   7.874   2.005  10.009  0.2561  0.2590 -0.7443
  666MOL0     C89823   8.085   1.905   9.877  0.4145 -0.9541 -0.9195
  666MOL0     C89824   8.204   1.869   9.824 -0.4958  0.7261  0.3941
  666MOL0     N89825   8.854   1.682   9.586 -0.3275 -0.2977 -0.5558
  666MOL0     N89826   8.948   1.649   9.669  0.4770  0.3165  0.3359
  666MOL0     C89827   8.901   1.150   9.912 -0.2026  1.5995  0.7241
  666MOL0     C89828   8.791   1.065   9.931 -0.7165  0.1144 -0.3036
  666MOL0     C89829   8.512   0.672   9.857  0.0013  1.0197  0.2335
  666MOL0     C89830   8.524   0.535   9.818 -1.0676  0.4965 -0.1362
  666MOL0     C89831   8.405   0.447   9.819 -0.0420 -0.1191  1.1234
  666MOL0     C89832   8.291   0.484   9.876  0.5409  0.1814  0.3396
  666MOL0     O89833   8.187   0.392   9.893  0.0617  0.0466 -0.6512
  666MOL0     C89834   8.224   0.267   9.947 -0.1604  0.0964  0.0505
  666MOL0     C89835   8.162   0.246  10.084  0.2498  0.9910 -0.2836
  666MOL0     C89836   8.249   0.336  10.177 -0.0814 -0.8508  0.5772
  666MOL0     C89837   8.173   0.365  10.299  0.6432  0.1343 -0.1007
  666MOL0     C89838   8.266   0.455  10.379 -0.5397  0.2480 -0.4273
  666MOL0     C89839   8.357   0.518  10.425 -1.3669 -0.9161 -0.1093
  666MOL0     C89840   8.278   0.604   9.917 -0.8403  0.3076 -0.5320
  666MOL0     C89841   8.380   0.713   9.901  0.2539  1.3023  0.0216
  666MOL0     C89842   8.344   0.853   9.925  0.8773 -0.6279  0.9412
  666MOL0     H89843   8.749   0.908   9.648 -0.5375 -0.0353  0.3461
  666MOL0     H89844   8.949   1.043   9.590  0.9155 -1.6874 -0.0049
  666MOL0     H89845   9.161   1.330   9.901  0.6289  0.2070 -0.1433
  666MOL0     H89846   9.180   1.153   9.896  0.6122 -0.6939 -1.9192
  666MOL0     H89847   9.317   1.182   9.696  0.0135  3.3269 -4.2809
  666MOL0     H89848   9.382   1.262   9.844 -0.0332 -1.9234  0.4840
  666MOL0     H89849   9.242   1.410   9.618  0.0417  1.4567  2.5475
  666MOL0     H89850   9.414   1.362   9.607 -0.2718 -0.2745 -0.1486
  666MOL0     H89851   9.298   1.533   9.829  1.3237  0.1184  1.6576
  666MOL0     H89852   9.464   1.485   9.827  0.3048  0.6976  1.1737
  666MOL0     H89853   9.489   1.676   9.705  2.1105 -1.6768 -2.2710
  666MOL0     H89854   9.471   1.571   9.578  0.4391  0.1277  0.8867
  666MOL0     H89855   9.323   1.743   9.524  1.3499  1.4839  0.5153
  666MOL0     H89856   9.202   1.623   9.605 -0.0443  0.7224  2.4221
  666MOL0     H89857   9.218   1.892   9.652  0.7054 -2.3320 -3.5474
  666MOL0     H89858   9.337   1.843   9.776 -1.3814 -0.2490  2.4188
  666MOL0     H89859   9.136   1.686   9.853  0.2562 -0.8974 -2.0169
  666MOL0     H89860   9.115   1.859   9.867  0.6930 -0.0724 -0.0951
  666MOL0     H89861   8.991   1.975   9.618  1.0447 -0.5717  0.7897
  666MOL0     H89862   8.789   1.991   9.443 -1.1913  0.4903 -2.3332
  666MOL0     H89863   8.787   1.842   9.353  0.5312 -1.4751  0.5458
  666MOL0     H89864   8.571   1.893   9.389  3.0477  1.0686 -1.6175
  666MOL0     H89865   8.604   1.752   9.487  1.5147 -0.8034  0.9974
  666MOL0     H89866   8.526   2.029   9.579 -0.1218 -1.5115 -2.5020
  666MOL0     H89867   8.645   1.940   9.671 -1.5765  0.0846  2.2463
  666MOL0     H89868   8.485   1.741   9.659 -0.7717  0.5496 -2.8633
  666MOL0     H89869   8.364   1.863   9.619 -0.2335 -0.9043  1.1262
  666MOL0     H89870   8.433   2.033  10.017  0.7071 -1.3052 -0.1709
  666MOL0     H89871   8.227   2.101  10.125 -0.8828 -1.4605  0.3558
  666MOL0     H89872   7.721   2.029  10.185  1.2731 -0.3319 -1.0278
  666MOL0     H89873   7.536   2.184  10.287 -0.3334  1.7750 -1.3626
  666MOL0     H89874   7.640   2.523  10.516  1.1775  2.8873 -0.8521
  666MOL0     H89875   7.665   2.595  10.364  2.0694 -0.4582  2.7253
  666MOL0     H89876   7.484   2.733  10.483 -3.5554  3.3921 -4.3306
  666MOL0     H89877   7.423   2.646  10.350 -1.5876  1.0057 -0.0195
  666MOL0     H89878   7.355   2.456  10.530  0.5229  0.1128  2.7627
  666MOL0     H89879   7.363   2.598  10.643 -1.3223  1.7009 -0.4897
  666MOL0     H89880   7.185   2.609  10.404  2.4550 -1.1543 -1.2282
  666MOL0     H89881   7.185   2.710  10.555 -1.8318 -1.3764  1.3188
  666MOL0     H89882   7.120   2.504  10.684  0.0791 -1.6992 -0.4174
  666MOL0     H89883   7.094   2.420  10.532 -1.2498  0.2009 -0.6306
  666MOL0     H89884   6.959   2.687  10.600  3.2034  0.5108  1.9083
  666MOL0     H89885   6.924   2.594  10.456 -1.6338 -0.3902 -0.5054
  666MOL0     H89886   6.850   2.549  10.741 -0.5672 -0.8644  0.9052
  666MOL0     H89887   6.897   2.402  10.656  1.6882  0.7552  1.5020
  666MOL0     H89888   6.646   2.453  10.655 -1.1581 -0.0818 -1.5785
  666MOL0     H89889   6.677   2.578  10.536 -1.8484 -0.0856  2.5006
  666MOL0     H89890   7.835   2.457  10.407 -1.3139 -0.9043  2.6506
  666MOL0     H89891   8.010   2.317  10.314  0.7617  0.9962  0.4143
  666MOL0     H89892   7.990   1.864   9.846 -0.2102  1.0292 -1.7718
  666MOL0     H89893   8.202   1.819   9.728  0.5732  0.3788  0.5343
  666MOL0     H89894   8.941   1.217   9.987  2.0444  1.3963 -0.2377
  666MOL0     H89895   8.741   1.062  10.027  0.0548 -1.7822  0.0754
  666MOL0     H89896   8.619   0.498   9.780 -1.5487 -0.7206 -0.1892
  666MOL0     H89897   8.409   0.342   9.790  1.7993  0.1756  0.1809
  666MOL0     H89898   8.331   0.256   9.963 -0.4290 -4.0197  0.1792
  666MOL0     H89899   8.186   0.200   9.869  2.5620 -0.2026 -1.1263
  666MOL0     H89900   8.150   0.143  10.118 -2.2753  1.3127  0.0409
  666MOL0     H89901   8.058   0.280  10.075 -0.8684 -1.2881  2.6012
  666MOL0     H89902   8.278   0.430  10.128  0.8264 -0.3125  2.1004
  666MOL0     H89903   8.343   0.285  10.198  0.2940 -0.5847 -0.3606
  666MOL0     H89904   8.074   0.410  10.288  0.9907  1.4766  1.7218
  666MOL0     H89905   8.157   0.267  10.346  0.6269  0.0903 -0.1992
  666MOL0     H89906   8.443   0.565  10.469 -2.2300 -0.7353  1.4710
  666MOL0     H89907   8.180   0.620   9.963 -0.3399  2.4421 -0.1003
  666MOL0     H89908   8.387   0.893  10.017 -1.8641  1.7838  1.3471
  666MOL0     H89909   8.373   0.912   9.837 -1.4919 -1.7080 -0.6884
  666MOL0     H89910   8.240   0.870   9.956  0.8391  2.3366 -0.4652
  667MOL0     O89911   9.153   3.994   6.164 -0.6437 -1.1168  0.7753
  667MOL0     C89912   9.277   3.959   6.183  1.5510  0.1765  0.3090
  667MOL0     O89913   9.380   4.001   6.110 -0.3036 -0.5695  0.7893
  667MOL0     C89914   9.375   4.004   5.974 -0.6420  0.7488 -0.1945
  667MOL0     C89915   9.489   4.063   5.921 -1.2470 -0.6199 -0.1091
  667MOL0     C89916   9.515   4.091   5.785 -0.5602  0.0490  0.0450
  667MOL0     C89917   9.422   4.038   5.692  0.6479  0.1398 -0.3377
  667MOL0     O89918   9.428   4.041   5.547 -0.2722 -0.2590 -0.4525
  667MOL0     C89919   9.541   4.110   5.497 -0.2852  0.4103  0.7240
  667MOL0     C89920   9.518   4.126   5.344  0.0141 -0.1027 -1.0189
  667MOL0     C89921   9.560   4.000   5.283 -0.6042  0.3515  0.0119
  667MOL0     C89922   9.514   3.990   5.140 -0.1535  0.4355 -0.6777
  667MOL0     C89923   9.561   3.860   5.070 -0.6676 -0.2832  0.4832
  667MOL0     C89924   9.523   3.863   4.921 -2.3726  0.5090 -0.1848
  667MOL0     C89925   9.368   3.861   4.895  0.0307 -0.5565 -0.2017
  667MOL0     C89926   9.330   3.796   4.758  0.7618 -0.3530  0.4755
  667MOL0     N89927   9.363   3.658   4.759 -0.1375  0.3421  0.2524
  667MOL0     C89928   9.457   3.589   4.689 -0.1011  0.2946 -0.1521
  667MOL0     C89929   9.454   3.465   4.750  0.1241 -0.2653  0.4689
  667MOL0     C89930   9.551   3.365   4.704 -0.1684  0.2051 -0.6483
  667MOL0     C89931   9.526   3.214   4.737 -0.1113  0.0808  0.1870
  667MOL0     C89932   9.530   3.181   4.885 -0.1265  0.5062  0.0634
  667MOL0     C89933   9.514   3.036   4.922 -0.2994 -0.4155  0.4466
  667MOL0     O89934   9.572   2.946   4.819 -0.6938 -0.7890  0.5510
  667MOL0     C89935   9.528   2.822   4.798 -0.0156 -0.2666  0.2052
  667MOL0     C89936   9.535   2.768   4.666  0.2574  0.0289 -0.8058
  667MOL0     C89937   9.501   2.641   4.639  0.1806  0.7346 -1.2478
  667MOL0     C89938   9.464   2.554   4.748  0.1148  0.0693  0.2956
  667MOL0     C89939   9.423   2.412   4.727  0.4553 -0.2698  0.4216
  667MOL0     O89940   9.407   2.379   4.596  0.5713 -0.6532 -0.0199
  667MOL0     C89941   9.424   2.253   4.565  0.8588  0.6998 -0.4218
  667MOL0     C89942   9.546   2.202   4.499  1.0438  0.3511 -0.3878
  667MOL0     C89943   9.546   2.073   4.468 -0.5182 -0.0593 -0.3744
  667MOL0     C89944   9.464   1.980   4.526  0.9804 -0.0563 -0.2897
  667MOL0     O89945   9.479   1.847   4.491 -0.1072  0.2688  0.1510
  667MOL0     C89946   9.408   1.741   4.560 -0.5776  0.4676  0.0796
  667MOL0     C89947   9.453   1.599   4.538 -0.2974 -0.0564  0.3163
  667MOL0     C89948   9.363   1.502   4.618 -0.6096 -1.1573 -0.7473
  667MOL0     C89949   9.448   1.389   4.684 -0.0268  0.4493 -0.5306
  667MOL0     C89950   9.371   1.257   4.700  0.4976 -0.2516 -0.1176
  667MOL0     C89951   9.432   1.149   4.783  0.9673 -0.1379  0.5965
  667MOL0     C89952   9.337   1.025   4.801  0.0090 -0.8795  0.2774
  667MOL0     C89953   9.419   0.896   4.796 -0.6615 -0.8807 -0.2988
  667MOL0    Cl89954   9.545   0.907   4.924  0.3402 -0.8525 -0.0223
  667MOL0     C89955   9.343   2.024   4.595 -0.2576  0.0768  0.7205
  667MOL0     C89956   9.320   2.161   4.608 -0.2791 -0.6483  0.2556
  667MOL0     O89957   9.404   2.346   4.827  0.1979 -0.0041 -0.6668
  667MOL0     C89958   9.455   2.611   4.878  0.0990 -0.6641  0.2161
  667MOL0     C89959   9.477   2.749   4.901 -0.2965  0.5206  0.9061
  667MOL0     N89960   9.354   3.460   4.848  0.6872  0.2962 -0.2101
  667MOL0     N89961   9.284   3.569   4.832  0.1710 -1.0227  0.7321
  667MOL0     C89962   9.316   3.968   5.741 -0.4434 -0.0677  0.3235
  667MOL0     C89963   9.294   3.946   5.878  0.3976  0.2070  0.0165
  667MOL0     C89964   9.296   3.892   6.316  0.5448  0.0152 -0.0982
  667MOL0     C89965   9.202   3.916   6.418 -0.1406 -0.2670  0.2465
  667MOL0     C89966   9.202   3.843   6.531 -0.0090 -0.6136 -0.1336
  667MOL0     C89967   9.298   3.743   6.548 -0.3903 -0.1624 -0.7860
  667MOL0     O89968   9.292   3.661   6.660 -0.0115  0.0629 -0.7066
  667MOL0     C89969   9.291   3.734   6.789  0.4422  0.3198  0.5708
  667MOL0     C89970   9.153   3.711   6.856  0.5223  0.0928 -0.0073
  667MOL0     C89971   9.141   3.812   6.976 -1.2995 -0.4409  0.0757
  667MOL0     C89972   9.019   3.892   6.967 -0.7243  0.6903  0.3393
  667MOL0     C89973   9.018   3.990   6.845 -0.7503  0.2016  0.2752
  667MOL0     C89974   9.025   4.077   6.752  0.1183  0.3316  0.4157
  667MOL0     C89975   9.387   3.713   6.449 -0.1741 -0.2567  1.0260
  667MOL0     C89976   9.383   3.779   6.329 -0.1107 -0.3529  0.1388
  667MOL0     C89977   9.483   3.739   6.220  0.1265 -0.7785  0.0931
  667MOL0     H89978   9.570   4.098   5.984 -1.2414 -2.4599  0.9716
  667MOL0     H89979   9.608   4.136   5.751 -0.5371 -1.4735 -2.0805
  667MOL0     H89980   9.553   4.205   5.551  0.9482 -0.3134  1.7805
  667MOL0     H89981   9.630   4.049   5.512 -0.5878  0.4165  2.7831
  667MOL0     H89982   9.577   4.211   5.308  1.7013  0.0993  1.9066
  667MOL0     H89983   9.412   4.146   5.330 -0.7531  0.0043  3.4291
  667MOL0     H89984   9.515   3.915   5.336  0.7070  0.2553  1.0205
  667MOL0     H89985   9.667   3.976   5.285 -0.7310 -0.3810 -0.9616
  667MOL0     H89986   9.405   3.990   5.129 -0.2663 -1.9636  0.0772
  667MOL0     H89987   9.549   4.082   5.092  1.4675  2.2231  3.5018
  667MOL0     H89988   9.670   3.847   5.068 -0.7788 -2.0478 -3.5283
  667MOL0     H89989   9.525   3.766   5.112  0.6497 -1.8837 -1.7453
  667MOL0     H89990   9.570   3.949   4.873 -0.1383 -0.5701 -0.0789
  667MOL0     H89991   9.568   3.774   4.876 -1.7731  0.2251  0.9415
  667MOL0     H89992   9.326   3.962   4.898  2.0290  0.3001  1.9095
  667MOL0     H89993   9.315   3.815   4.979 -0.4949  2.3842  1.2237
  667MOL0     H89994   9.221   3.803   4.749  0.6059 -0.0018  2.3252
  667MOL0     H89995   9.373   3.853   4.675 -1.8983  0.8582 -0.2110
  667MOL0     H89996   9.517   3.624   4.605  0.1391 -0.7731 -0.4466
  667MOL0     H89997   9.578   3.379   4.598 -1.3850  0.3572 -0.9508
  667MOL0     H89998   9.639   3.381   4.766 -0.8912  1.6933  0.0434
  667MOL0     H89999   9.429   3.179   4.699 -0.4766 -3.6070  3.7982
  667MOL0     H90000   9.592   3.142   4.687  0.6448  1.5947 -1.0854
  667MOL0     H90001   9.436   3.229   4.915 -0.3434 -0.9138  1.7745
  667MOL0     H90002   9.622   3.216   4.934 -1.7896  0.1257  3.7742
  667MOL0     H90003   9.406   3.023   4.934 -0.6902  1.5605 -0.5546
  667MOL0     H90004   9.550   3.027   5.025 -0.8904  1.5671  0.8681
  667MOL0     H90005   9.580   2.823   4.583 -0.8204 -2.0445 -2.8963
  667MOL0     H90006   9.506   2.614   4.534  4.0575 -0.9574 -0.8144
  667MOL0     H90007   9.632   2.263   4.474  1.6755  0.3641  1.7005
  667MOL0     H90008   9.612   2.033   4.392 -4.2675 -3.3420 -2.3012
  667MOL0     H90009   9.392   1.753   4.668  2.5464 -1.4698  0.8894
  667MOL0     H90010   9.306   1.745   4.520 -0.9276  1.6509  1.0124
  667MOL0     H90011   9.442   1.569   4.433  0.2244  0.5083  0.0939
  667MOL0     H90012   9.559   1.590   4.564  0.5035  2.2635 -1.7490
  667MOL0     H90013   9.309   1.553   4.698  3.1055 -1.9281  2.5941
  667MOL0     H90014   9.286   1.450   4.560 -3.1426  1.3555  0.1461
  667MOL0     H90015   9.476   1.414   4.787  0.4789  0.2137 -0.6081
  667MOL0     H90016   9.537   1.380   4.621  0.8230  0.5956  0.6122
  667MOL0     H90017   9.369   1.223   4.596 -2.7971  2.3411 -1.0480
  667MOL0     H90018   9.270   1.273   4.737 -0.4204 -1.4545 -1.9376
  667MOL0     H90019   9.530   1.127   4.741 -1.0157 -2.1182 -3.6656
  667MOL0     H90020   9.447   1.196   4.880  1.4814 -3.2788  2.1670
  667MOL0     H90021   9.273   1.021   4.713  1.5241  1.7886 -1.0881
  667MOL0     H90022   9.267   1.022   4.886 -2.8561 -1.5047 -1.9420
  667MOL0     H90023   9.355   0.810   4.818 -1.0344  0.2221  3.7669
  667MOL0     H90024   9.477   0.885   4.704 -0.4627  0.7981 -0.4095
  667MOL0     H90025   9.269   1.960   4.642 -0.2279 -0.9658 -0.5968
  667MOL0     H90026   9.236   2.201   4.664  1.5772  0.9530  2.0240
  667MOL0     H90027   9.426   2.561   4.969 -2.0531  0.8701  0.4539
  667MOL0     H90028   9.464   2.785   5.002  0.2565 -0.1753  1.2333
  667MOL0     H90029   9.253   3.906   5.678 -0.8961 -0.6853  1.3553
  667MOL0     H90030   9.210   3.888   5.915 -0.2465  1.3288  0.3667
  667MOL0     H90031   9.126   3.994   6.418  1.5080  1.4746 -1.6947
  667MOL0     H90032   9.129   3.849   6.611 -0.1380  0.8144 -0.3201
  667MOL0     H90033   9.315   3.839   6.769  1.8085  0.1976  1.4118
  667MOL0     H90034   9.366   3.692   6.857  2.3534 -0.9178 -2.1392
  667MOL0     H90035   9.142   3.606   6.885 -1.7490 -0.1105 -1.3664
  667MOL0     H90036   9.081   3.730   6.777  1.4594  1.2882 -0.6088
  667MOL0     H90037   9.229   3.877   6.977 -2.0156  0.5435  1.0878
  667MOL0     H90038   9.140   3.761   7.073 -2.4330  0.9242  0.8051
  667MOL0     H90039   8.929   3.829   6.968  0.4672 -1.3903 -3.3028
  667MOL0     H90040   9.026   3.961   7.051  0.9549  0.5720  0.3188
  667MOL0     H90041   9.042   4.143   6.669  0.3341 -1.2052 -0.8125
  667MOL0     H90042   9.464   3.637   6.459  0.6448  0.7243  2.6103
  667MOL0     H90043   9.563   3.813   6.215 -2.7771  2.7418  1.1795
  667MOL0     H90044   9.525   3.641   6.239  0.5143 -0.4125  1.1916
  667MOL0     H90045   9.445   3.730   6.118  1.9104 -1.9427 -0.5085
  668MOL0     O90046   6.292   8.983   5.598  0.9672 -0.0136 -0.2939
  668MOL0     C90047   6.211   8.887   5.600 -0.6744 -0.4955  0.1596
  668MOL0     O90048   6.228   8.767   5.539  0.3366 -0.6614  0.3070
  668MOL0     C90049   6.358   8.755   5.502  0.4663  0.2538  0.0022
  668MOL0     C90050   6.414   8.831   5.395  0.4684 -0.3345 -0.3868
  668MOL0     C90051   6.559   8.812   5.360  0.3273 -0.8277 -0.4164
  668MOL0     C90052   6.633   8.718   5.420  0.1656  0.2234  0.1216
  668MOL0     O90053   6.764   8.707   5.385 -0.7713  0.2572 -0.1304
  668MOL0     C90054   6.807   8.730   5.255 -0.5441 -0.1952  0.9649
  668MOL0     C90055   6.949   8.676   5.246 -0.6880  0.1133  0.0043
  668MOL0     C90056   7.030   8.728   5.128 -1.0285  0.6039  0.4920
  668MOL0     C90057   7.181   8.682   5.111 -0.1378 -0.1012  0.5770
  668MOL0     C90058   7.196   8.529   5.110 -0.0273  0.0962  0.4213
  668MOL0     C90059   7.137   8.454   4.984  0.6259  0.0997  0.6991
  668MOL0     C90060   7.177   8.515   4.843  0.4933 -0.2439 -0.2247
  668MOL0     C90061   7.331   8.520   4.811 -0.1397  0.2449 -0.4762
  668MOL0     N90062   7.350   8.595   4.682  0.5159 -0.3963 -0.6715
  668MOL0     C90063   7.380   8.730   4.672 -0.5348  1.0647  0.5861
  668MOL0     C90064   7.411   8.749   4.541 -0.3787 -0.3423  0.3788
  668MOL0     C90065   7.462   8.873   4.474  0.5723  0.3932  0.2890
  668MOL0     C90066   7.591   8.929   4.524  0.5898  0.9509  0.3174
  668MOL0     C90067   7.711   8.863   4.447  0.1255 -0.9679  0.5162
  668MOL0     C90068   7.852   8.931   4.482  0.2314  0.4875  0.7941
  668MOL0     O90069   7.865   8.949   4.621 -0.1778 -0.0260 -1.1044
  668MOL0     C90070   7.981   8.988   4.676 -0.4191  0.1378  0.1402
  668MOL0     C90071   8.092   9.026   4.597  0.1383  0.2751 -0.1994
  668MOL0     C90072   8.217   9.053   4.654  0.0103 -0.5041  0.4312
  668MOL0     C90073   8.239   9.043   4.793 -0.3106 -1.2994 -0.3307
  668MOL0     C90074   8.371   9.071   4.860 -0.3611 -0.0952 -0.1109
  668MOL0     O90075   8.488   9.037   4.797  0.5870 -0.5107  0.1210
  668MOL0     C90076   8.613   9.085   4.836 -0.1442  0.8078  0.3775
  668MOL0     C90077   8.654   9.134   4.960  0.6090 -0.6863 -0.7224
  668MOL0     C90078   8.784   9.192   4.975  0.3425  0.2050 -0.1141
  668MOL0     C90079   8.876   9.173   4.872  0.2553  1.4625  0.6513
  668MOL0     O90080   9.003   9.210   4.894 -0.8122  0.4256  0.2428
  668MOL0     C90081   9.099   9.222   4.785  0.6300 -0.7648  0.1942
  668MOL0     C90082   9.209   9.318   4.818 -0.3150 -0.4812 -0.4301
  668MOL0     C90083   9.160   9.466   4.816  0.2213 -0.3212  0.0317
  668MOL0     C90084   9.262   9.559   4.876  0.0115  0.7180 -0.5306
  668MOL0     C90085   9.198   9.693   4.880 -0.3396  0.3656 -0.4573
  668MOL0     C90086   9.288   9.804   4.927  0.4492  0.7389 -0.2933
  668MOL0     C90087   9.202   9.923   4.957  0.4627  0.1762 -0.1079
  668MOL0     C90088   9.268  10.050   5.014 -0.5669 -0.0177 -0.4116
  668MOL0    Cl90089   9.414  10.100   4.915  0.2494 -0.2453  0.4684
  668MOL0     C90090   8.844   9.109   4.759  0.0307  0.2795  1.1102
  668MOL0     C90091   8.713   9.072   4.737  0.4367 -0.6949 -0.4924
  668MOL0     O90092   8.360   9.107   4.979 -0.3404 -0.0622 -0.0678
  668MOL0     C90093   8.125   9.001   4.869 -0.2842 -0.4546 -0.4189
  668MOL0     C90094   8.002   8.975   4.816  0.1080  0.2586 -0.0356
  668MOL0     N90095   7.369   8.638   4.471 -0.8300 -0.7875  0.3647
  668MOL0     N90096   7.329   8.548   4.553  0.2465 -0.2400 -0.3277
  668MOL0     C90097   6.574   8.644   5.520 -0.0142 -0.4192 -0.5124
  668MOL0     C90098   6.442   8.659   5.561  0.1593  0.5302  0.5447
  668MOL0     C90099   6.088   8.921   5.668 -0.8930  0.2380 -0.3964
  668MOL0     C90100   6.049   9.058   5.663 -0.3152  0.2865 -0.2938
  668MOL0     C90101   5.932   9.099   5.728  0.7901 -0.8295  0.1417
  668MOL0     C90102   5.864   9.015   5.817 -0.3527  0.1193  0.5403
  668MOL0     O90103   5.765   9.052   5.898 -0.3204  0.2805  0.6088
  668MOL0     C90104   5.640   9.060   5.834  0.4754  0.0327 -1.0750
  668MOL0     C90105   5.539   9.095   5.947  0.7885  0.1263  1.1915
  668MOL0     C90106   5.569   9.226   6.002 -0.2704  0.5104  0.1110
  668MOL0     C90107   5.510   9.243   6.141  0.1583 -0.5252 -0.0546
  668MOL0     C90108   5.572   9.362   6.193 -0.1119  0.4899 -0.7378
  668MOL0     C90109   5.635   9.456   6.242 -0.7706 -0.5085  0.4297
  668MOL0     C90110   5.897   8.881   5.825 -0.9421 -0.5715  0.0558
  668MOL0     C90111   6.011   8.827   5.746  0.6841 -0.3247 -0.5067
  668MOL0     C90112   6.043   8.680   5.769 -0.1277 -0.4642 -0.1236
  668MOL0     H90113   6.350   8.907   5.353 -2.2022 -2.1932  0.1211
  668MOL0     H90114   6.599   8.877   5.283  1.5914 -1.8044 -0.6138
  668MOL0     H90115   6.752   8.679   5.176  0.9840  0.7147 -0.7777
  668MOL0     H90116   6.800   8.832   5.216 -1.1810 -1.3134 -2.0768
  668MOL0     H90117   6.953   8.568   5.261 -0.1441  0.2067  0.5768
  668MOL0     H90118   7.000   8.719   5.333 -0.7573 -0.2915  0.2462
  668MOL0     H90119   7.035   8.837   5.121  1.8553  0.5015 -0.2220
  668MOL0     H90120   6.979   8.690   5.039  1.6148 -0.2549 -0.7933
  668MOL0     H90121   7.226   8.732   5.025  1.2398  1.3063  2.0375
  668MOL0     H90122   7.239   8.717   5.197  0.3816 -0.2749  0.3030
  668MOL0     H90123   7.304   8.515   5.121  0.2547  1.0516 -0.9110
  668MOL0     H90124   7.143   8.503   5.202 -1.1121  1.2489  0.1440
  668MOL0     H90125   7.167   8.349   4.989  3.3256  0.6701 -1.1718
  668MOL0     H90126   7.028   8.458   4.987  0.5723 -1.4256  1.6029
  668MOL0     H90127   7.133   8.615   4.843  0.0515 -0.4350 -0.5263
  668MOL0     H90128   7.121   8.463   4.764 -0.4968 -4.1131  2.7153
  668MOL0     H90129   7.404   8.560   4.882 -2.7845  0.5915  2.2240
  668MOL0     H90130   7.335   8.414   4.786 -0.9813  0.3772 -1.2373
  668MOL0     H90131   7.396   8.788   4.762  3.9627  2.5758 -0.9385
  668MOL0     H90132   7.462   8.842   4.369  4.1828 -2.9168  1.0318
  668MOL0     H90133   7.389   8.948   4.507 -0.4403 -0.3293 -0.2678
  668MOL0     H90134   7.585   9.037   4.506  0.6812  1.0981  1.1504
  668MOL0     H90135   7.604   8.894   4.627 -1.3463 -0.8793 -0.0110
  668MOL0     H90136   7.695   8.874   4.340  3.6076 -1.4671 -0.2047
  668MOL0     H90137   7.726   8.757   4.470  1.5213 -1.0430 -0.5507
  668MOL0     H90138   7.863   9.012   4.409 -1.2621 -0.2036 -0.2618
  668MOL0     H90139   7.931   8.862   4.451  1.4882  1.7075  1.2004
  668MOL0     H90140   8.080   9.032   4.489 -0.6638 -1.8851 -0.2782
  668MOL0     H90141   8.299   9.089   4.592  1.9227  0.3600  3.2810
  668MOL0     H90142   8.581   9.142   5.040  0.9114  0.9851 -0.5832
  668MOL0     H90143   8.803   9.248   5.066 -2.3830  2.3479 -0.7345
  668MOL0     H90144   9.156   9.130   4.768  2.3533  0.8376 -4.3501
  668MOL0     H90145   9.059   9.259   4.690 -0.0691 -0.4350  0.6129
  668MOL0     H90146   9.257   9.300   4.915 -0.3295  1.2217 -0.0716
  668MOL0     H90147   9.281   9.312   4.737  1.8690  1.9825  1.1592
  668MOL0     H90148   9.134   9.501   4.716 -0.6375  0.5901  0.5571
  668MOL0     H90149   9.067   9.458   4.872  1.2247  0.2852  1.8651
  668MOL0     H90150   9.341   9.570   4.802  0.6508  1.8124  0.2811
  668MOL0     H90151   9.312   9.528   4.968 -0.4602  2.3683  0.3234
  668MOL0     H90152   9.124   9.678   4.959 -2.5895 -0.0601 -2.5071
  668MOL0     H90153   9.142   9.708   4.787 -0.6544 -0.5868 -0.4323
  668MOL0     H90154   9.342   9.784   5.020  1.0869  2.1735 -0.3276
  668MOL0     H90155   9.368   9.823   4.855  1.1868 -0.0068  0.3033
  668MOL0     H90156   9.125   9.887   5.026 -1.6603  1.3708 -1.7152
  668MOL0     H90157   9.135   9.946   4.874 -0.8460  0.9557  1.1254
  668MOL0     H90158   9.180  10.116   5.011 -0.4240  0.1437 -1.5899
  668MOL0     H90159   9.298  10.032   5.117 -0.8772  0.0100 -0.3144
  668MOL0     H90160   8.914   9.078   4.682  0.3090  2.0862  0.5889
  668MOL0     H90161   8.693   9.021   4.643 -0.1681  2.4682 -2.2183
  668MOL0     H90162   8.144   8.981   4.974  1.2745  1.0935 -0.3697
  668MOL0     H90163   7.929   8.946   4.890 -2.6321  1.4429 -2.0902
  668MOL0     H90164   6.646   8.582   5.571  0.2676  0.3176  0.0020
  668MOL0     H90165   6.412   8.597   5.644  1.9787 -0.2589  0.6659
  668MOL0     H90166   6.099   9.128   5.598 -1.6063  1.3952 -0.1325
  668MOL0     H90167   5.892   9.199   5.713  0.0980 -1.2258 -0.6944
  668MOL0     H90168   5.608   8.961   5.801 -0.3586  0.4906 -1.6935
  668MOL0     H90169   5.638   9.121   5.743 -0.0798  0.4075 -0.8162
  668MOL0     H90170   5.546   9.024   6.030 -1.8983 -2.4521 -0.5672
  668MOL0     H90171   5.436   9.094   5.910  1.5010 -0.3988 -0.8933
  668MOL0     H90172   5.523   9.305   5.942 -3.8228 -1.3168  0.1720
  668MOL0     H90173   5.677   9.244   5.998 -0.0054 -1.1098 -2.0196
  668MOL0     H90174   5.401   9.234   6.135  0.1196 -0.9662  1.0217
  668MOL0     H90175   5.536   9.157   6.202  1.2748  0.1576  0.4658
  668MOL0     H90176   5.681   9.536   6.296  1.3863 -0.8430 -0.7574
  668MOL0     H90177   5.839   8.822   5.895  1.0069  0.0541  2.3302
  668MOL0     H90178   6.076   8.621   5.683  2.1575  0.0316  0.3326
  668MOL0     H90179   6.131   8.668   5.833  1.1964  0.1025 -1.7720
  668MOL0     H90180   5.955   8.630   5.811  0.0255 -1.2842 -0.7417
  669MOL0     O90181  10.298   5.634   2.343 -0.0213  0.2964 -0.1263
  669MOL0     C90182  10.416   5.625   2.315 -0.5703  0.6203 -0.6487
  669MOL0     O90183  10.469   5.639   2.194  0.3369  0.4176  0.6014
  669MOL0     C90184  10.383   5.653   2.084 -0.9295  0.8139  0.3687
  669MOL0     C90185  10.299   5.553   2.042 -0.1921  0.7141  0.4684
  669MOL0     C90186  10.227   5.551   1.927 -0.1274 -0.3848  0.4639
  669MOL0     C90187  10.245   5.652   1.836  0.1480  0.7011  0.0645
  669MOL0     O90188  10.185   5.637   1.716 -0.4508 -0.2716  0.2373
  669MOL0     C90189  10.191   5.738   1.623  0.0795  0.2938  1.1163
  669MOL0     C90190  10.114   5.692   1.495 -0.0421 -0.6390 -1.0498
  669MOL0     C90191  10.112   5.799   1.384  0.6828 -0.6909  0.2824
  669MOL0     C90192  10.001   5.773   1.279  0.5629 -0.0235  0.3906
  669MOL0     C90193  10.027   5.877   1.168  0.5243  0.0516  0.4846
  669MOL0     C90194   9.938   5.875   1.041  0.3785 -0.0450  0.6252
  669MOL0     C90195   9.789   5.848   1.073 -0.8515 -0.0534 -0.2085
  669MOL0     C90196   9.696   5.840   0.949  0.6568  0.4484 -0.1131
  669MOL0     N90197   9.749   5.739   0.852 -0.3296 -0.3615  0.2338
  669MOL0     C90198   9.741   5.602   0.865 -0.2929 -0.6146  1.0361
  669MOL0     C90199   9.796   5.560   0.744 -0.2293  0.6687  0.2549
  669MOL0     C90200   9.819   5.418   0.701 -0.1958 -0.1414  0.1288
  669MOL0     C90201   9.959   5.363   0.745  0.8745 -0.4234  0.7441
  669MOL0     C90202   9.973   5.354   0.903 -1.9231  0.1374 -0.1392
  669MOL0     C90203  10.109   5.294   0.949 -0.4447 -0.6319  0.8145
  669MOL0     O90204  10.112   5.266   1.091 -0.1961 -0.0740 -0.2450
  669MOL0     C90205  10.213   5.197   1.152 -0.3615 -0.5034  0.6980
  669MOL0     C90206  10.349   5.188   1.102 -0.2555  0.0510 -0.4313
  669MOL0     C90207  10.449   5.126   1.188 -0.0154 -1.0453  0.2264
  669MOL0     C90208  10.416   5.083   1.321 -0.8822 -0.2199 -0.3637
  669MOL0     C90209  10.523   5.032   1.420 -0.2787 -0.9254 -0.1989
  669MOL0     O90210  10.648   5.034   1.380  0.2804 -0.0202 -0.4223
  669MOL0     C90211  10.737   4.968   1.462  0.2554  0.3371  0.6693
  669MOL0     C90212  10.737   4.833   1.457 -0.0721  1.0120  0.2783
  669MOL0     C90213  10.829   4.756   1.529 -0.3853 -0.1916  0.2758
  669MOL0     C90214  10.933   4.822   1.598 -0.2825 -0.0825  0.0845
  669MOL0     O90215  11.027   4.746   1.655 -0.8012  0.0134 -0.2980
  669MOL0     C90216  11.037   4.762   1.802 -0.3012 -0.3164  0.0227
  669MOL0     C90217  11.128   4.647   1.859  0.0774 -0.3250  0.7515
  669MOL0     C90218  11.062   4.509   1.860 -0.4143 -0.2438 -0.7481
  669MOL0     C90219  11.125   4.412   1.957 -0.4073  1.0768 -0.8122
  669MOL0     C90220  11.068   4.268   1.935 -0.7549  0.4190  0.7522
  669MOL0     C90221  11.149   4.150   1.986 -0.2159 -0.9963 -0.0822
  669MOL0     C90222  11.144   4.038   1.898  0.2347 -0.0364  0.0501
  669MOL0     C90223  11.014   3.963   1.883  0.6152 -0.2811 -0.2498
  669MOL0    Cl90224  10.934   3.932   2.039 -0.1198 -0.0234 -0.3563
  669MOL0     C90225  10.938   4.960   1.599 -0.3973  0.1143 -0.3533
  669MOL0     C90226  10.839   5.036   1.538 -0.7353 -1.9740 -0.3134
  669MOL0     O90227  10.484   5.013   1.532 -0.0715  0.1034  0.4527
  669MOL0     C90228  10.278   5.082   1.356 -0.9401 -0.8181 -0.1158
  669MOL0     C90229  10.181   5.140   1.277 -0.0376 -0.3735  0.1068
  669MOL0     N90230   9.837   5.662   0.662  0.2756 -0.2724 -0.2661
  669MOL0     N90231   9.808   5.771   0.727 -0.3838  0.6759  0.2478
  669MOL0     C90232  10.326   5.759   1.876  0.1901  0.3003 -0.7522
  669MOL0     C90233  10.385   5.772   2.005 -0.4270  0.3692 -0.2456
  669MOL0     C90234  10.506   5.580   2.421 -0.4133 -0.4237  0.2246
  669MOL0     C90235  10.638   5.629   2.423  0.0251  0.3243 -0.2008
  669MOL0     C90236  10.718   5.602   2.527 -0.2246  0.0777 -0.4695
  669MOL0     C90237  10.676   5.534   2.640 -0.4790  0.6253  0.3521
  669MOL0     O90238  10.768   5.503   2.732  0.5035  0.6947  0.0745
  669MOL0     C90239  10.844   5.384   2.695 -0.0376  0.4161 -1.2561
  669MOL0     C90240  10.993   5.418   2.709 -0.1895 -0.1459 -0.2222
  669MOL0     C90241  11.072   5.286   2.706  0.0021 -0.2515  0.5170
  669MOL0     C90242  11.228   5.298   2.733  1.4133  0.1360 -0.1063
  669MOL0     C90243  11.285   5.166   2.734 -0.3892  0.6454  0.3982
  669MOL0     C90244  11.347   5.059   2.712 -0.4992  0.8367  0.8011
  669MOL0     C90245  10.546   5.484   2.649 -0.7994 -0.1436 -0.6679
  669MOL0     C90246  10.466   5.505   2.537  0.3814 -0.4383  0.1989
  669MOL0     C90247  10.334   5.429   2.533  1.0820 -0.1751  0.1883
  669MOL0     H90248  10.284   5.472   2.112 -0.6888  0.5610  0.1908
  669MOL0     H90249  10.159   5.470   1.906 -0.2161 -0.0733 -0.5370
  669MOL0     H90250  10.148   5.834   1.651  0.6253  1.3262 -1.3440
  669MOL0     H90251  10.292   5.773   1.602 -0.5113  1.0876 -0.5566
  669MOL0     H90252  10.010   5.677   1.524 -0.3087  2.2599 -0.2451
  669MOL0     H90253  10.150   5.598   1.451 -1.6618 -1.5922 -0.4191
  669MOL0     H90254  10.209   5.810   1.334  0.4671 -0.6657 -0.1352
  669MOL0     H90255  10.094   5.893   1.435 -1.8767 -1.0845  0.2291
  669MOL0     H90256  10.022   5.674   1.239  1.4088  0.3590 -0.1303
  669MOL0     H90257   9.902   5.772   1.327  0.2024 -1.7033 -0.3091
  669MOL0     H90258  10.025   5.976   1.215 -0.1902 -0.1659  0.9413
  669MOL0     H90259  10.129   5.868   1.130  0.7681  0.3223  1.0611
  669MOL0     H90260   9.951   5.959   0.973 -2.6772 -0.2578 -0.3675
  669MOL0     H90261   9.968   5.788   0.981  0.0019  1.4725 -1.9510
  669MOL0     H90262   9.755   5.932   1.134 -1.6061 -0.7008  0.2701
  669MOL0     H90263   9.780   5.755   1.130  1.0478  0.7707  1.5767
  669MOL0     H90264   9.593   5.825   0.981  1.3618 -1.6083  1.4211
  669MOL0     H90265   9.698   5.934   0.894 -1.0258 -0.5971 -2.1180
  669MOL0     H90266   9.690   5.540   0.938 -1.0552 -1.1976  0.0158
  669MOL0     H90267   9.742   5.347   0.734  0.4798 -2.9450 -3.7441
  669MOL0     H90268   9.819   5.413   0.592  1.2976  1.5830  0.0030
  669MOL0     H90269   9.979   5.271   0.689 -3.0537 -0.2123 -1.3712
  669MOL0     H90270  10.028   5.442   0.711 -0.5482  1.3835  1.8703
  669MOL0     H90271   9.894   5.293   0.946  0.7432 -1.3058  3.1887
  669MOL0     H90272   9.970   5.454   0.946  2.1803  0.5590 -0.4002
  669MOL0     H90273  10.195   5.355   0.919 -0.2124 -1.2146  0.2556
  669MOL0     H90274  10.124   5.202   0.891 -1.0045 -1.3279  1.7518
  669MOL0     H90275  10.384   5.235   1.010 -1.2638  1.7915  0.0181
  669MOL0     H90276  10.547   5.125   1.142 -0.6155  3.4879 -1.7162
  669MOL0     H90277  10.663   4.788   1.392 -2.0462  4.4805 -0.1323
  669MOL0     H90278  10.821   4.648   1.522  0.3727 -0.3496  1.5328
  669MOL0     H90279  11.073   4.857   1.842 -2.2006  0.5072 -0.1556
  669MOL0     H90280  10.936   4.775   1.841 -1.2306  0.2294 -2.4121
  669MOL0     H90281  11.205   4.646   1.782 -1.2953  2.2217 -0.7598
  669MOL0     H90282  11.166   4.672   1.958  0.6882 -2.8292  1.2206
  669MOL0     H90283  10.957   4.514   1.891  0.4172 -1.2570  2.6794
  669MOL0     H90284  11.061   4.466   1.760 -2.0720 -0.4666 -0.6790
  669MOL0     H90285  11.104   4.428   2.063 -2.5909 -2.3635 -0.5596
  669MOL0     H90286  11.234   4.417   1.959 -0.3177 -0.0826  2.6784
  669MOL0     H90287  11.053   4.265   1.827 -0.4271 -1.0224  0.7282
  669MOL0     H90288  10.965   4.272   1.974 -0.9393 -0.7678  0.4161
  669MOL0     H90289  11.251   4.186   2.002 -1.4044  2.3302  0.9132
  669MOL0     H90290  11.118   4.132   2.089  0.6034  3.3186  1.1389
  669MOL0     H90291  11.214   3.968   1.945 -2.4119 -0.5723  3.6646
  669MOL0     H90292  11.178   4.065   1.798  0.4550 -0.9049 -0.1151
  669MOL0     H90293  10.951   4.039   1.836 -1.3496  1.2507  4.2891
  669MOL0     H90294  11.031   3.871   1.826 -3.7464 -1.6649  0.3431
  669MOL0     H90295  11.015   5.013   1.654 -0.9004  3.0738 -2.3170
  669MOL0     H90296  10.829   5.143   1.555 -3.2518 -2.5616  2.6846
  669MOL0     H90297  10.250   5.039   1.451 -0.8330 -0.5780  0.0260
  669MOL0     H90298  10.078   5.153   1.306 -0.2625 -3.1945  0.8819
  669MOL0     H90299  10.328   5.849   1.815  0.5263 -0.3283 -1.7043
  669MOL0     H90300  10.437   5.860   2.043 -2.7379  0.8422  2.1282
  669MOL0     H90301  10.676   5.687   2.339 -1.8571  0.6929 -0.8511
  669MOL0     H90302  10.824   5.622   2.519  0.2170 -2.5675 -2.2971
  669MOL0     H90303  10.816   5.340   2.598  1.4500 -0.6365 -1.2361
  669MOL0     H90304  10.813   5.316   2.775 -1.0401  3.0050  0.6935
  669MOL0     H90305  11.027   5.471   2.798  2.4036 -0.7681 -0.7755
  669MOL0     H90306  11.029   5.474   2.622  1.1713 -4.0137 -2.4052
  669MOL0     H90307  11.057   5.235   2.610 -1.9923  1.6354 -0.2440
  669MOL0     H90308  11.039   5.221   2.788 -0.1360 -0.3524  0.3813
  669MOL0     H90309  11.283   5.346   2.652  1.6042 -1.8504 -1.2293
  669MOL0     H90310  11.249   5.355   2.824 -1.1083  0.6882  0.1979
  669MOL0     H90311  11.394   4.966   2.686 -1.1483  1.2961 -2.3468
  669MOL0     H90312  10.519   5.430   2.739  0.4648  3.1260  1.8388
  669MOL0     H90313  10.334   5.359   2.617 -0.0649  0.5996  0.8615
  669MOL0     H90314  10.242   5.488   2.541  0.3582 -1.2085 -0.3127
  669MOL0     H90315  10.339   5.362   2.446  2.0055 -0.8718  0.7607
  670MOL0     O90316   0.393   0.501  10.298  0.9466 -0.2769  0.0274
  670MOL0     C90317   0.486   0.579  10.260  0.3439 -0.3002  0.0579
  670MOL0     O90318   0.588   0.544  10.183  0.4324  0.0681 -0.1203
  670MOL0     C90319   0.595   0.415  10.153  0.5945 -0.9760  0.1575
  670MOL0     C90320   0.696   0.332  10.209  0.8658 -0.0268  0.7922
  670MOL0     C90321   0.690   0.192  10.183  0.6734 -0.2615 -0.0527
  670MOL0     C90322   0.599   0.141  10.089  0.4428  0.0244  0.1836
  670MOL0     O90323   0.619   0.006  10.060 -0.2849 -0.3016 -0.2612
  670MOL0     C90324   0.501  -0.070  10.026 -0.2301  0.4539  0.1449
  670MOL0     C90325   0.476  -0.186  10.125 -0.3044 -0.4720  0.9397
  670MOL0     C90326   0.366  -0.274  10.073  0.0629  0.9553 -0.1833
  670MOL0     C90327   0.232  -0.208  10.124 -0.1637 -0.3121  0.1138
  670MOL0     C90328   0.097  -0.279  10.111 -0.3470  0.2422 -0.6967
  670MOL0     C90329  -0.017  -0.223  10.195  0.7971  0.1954 -0.5731
  670MOL0     C90330  -0.144  -0.317  10.189 -0.2160  0.0281  0.1642
  670MOL0     C90331  -0.246  -0.300  10.298  0.9142  0.1649 -0.3594
  670MOL0     N90332  -0.289  -0.160  10.298  1.1624 -0.1630  0.2018
  670MOL0     C90333  -0.279  -0.064  10.392 -0.0392 -0.2625 -0.1350
  670MOL0     C90334  -0.359   0.032  10.346  0.3341  0.4729 -1.2604
  670MOL0     C90335  -0.392   0.152  10.423  0.7240  0.2380 -0.0978
  670MOL0     C90336  -0.302   0.261  10.387 -0.7083  0.8203  0.3038
  670MOL0     C90337  -0.345   0.390  10.455  0.0877  0.4570  0.1835
  670MOL0     C90338  -0.223   0.490  10.471  0.6736  0.5691  0.6280
  670MOL0     O90339  -0.144   0.434  10.575  0.1109 -0.0929  0.4301
  670MOL0     C90340  -0.045   0.517  10.617  1.0918 -0.1106  0.0858
  670MOL0     C90341  -0.064   0.630  10.693  0.3480 -0.2680  0.3875
  670MOL0     C90342   0.051   0.703  10.742  0.5111  0.4176  0.8937
  670MOL0     C90343   0.177   0.659  10.719 -0.1521  0.3309  0.5625
  670MOL0     C90344   0.297   0.719  10.793  0.4068  0.0175  0.6396
  670MOL0     O90345   0.430   0.698  10.760  0.8525  0.0212 -0.1857
  670MOL0     C90346   0.527   0.733  10.840 -0.3233 -0.7466 -0.0147
  670MOL0     C90347   0.513   0.846  10.927 -0.0502  0.1410  0.4422
  670MOL0     C90348   0.612   0.864  11.025 -0.1130  0.6391 -0.3858
  670MOL0     C90349   0.717   0.772  11.052  0.5745 -0.4995 -0.9728
  670MOL0     O90350   0.801   0.816  11.157 -0.0654 -0.0696  0.8231
  670MOL0     C90351   0.846   0.706  11.237 -0.1065  0.3619 -0.4190
  670MOL0     C90352   0.884   0.753  11.381  0.7236  0.1309  0.2057
  670MOL0     C90353   0.949   0.647  11.472  0.4177  0.6732  0.2582
  670MOL0     C90354   0.946   0.691  11.623  0.0731 -0.1660  0.5636
  670MOL0     C90355   0.950   0.567  11.718  0.0985  0.1984  0.0623
  670MOL0     C90356   0.959   0.613  11.862 -0.1521 -0.1077 -0.1076
  670MOL0     C90357   0.920   0.497  11.958 -0.2209  0.3115 -0.0396
  670MOL0     C90358   0.955   0.545  12.095  0.4765  0.7640  0.0280
  670MOL0    Cl90359   0.841   0.664  12.164 -0.6408  0.1344 -0.1296
  670MOL0     C90360   0.737   0.669  10.965 -0.2605  0.4912  0.7942
  670MOL0     C90361   0.650   0.647  10.855  0.3075  0.0666  0.5071
  670MOL0     O90362   0.259   0.762  10.901  0.4910  0.2047  1.0831
  670MOL0     C90363   0.198   0.558  10.623  0.7692  0.1053 -0.2146
  670MOL0     C90364   0.087   0.490  10.570  0.0078 -0.4905  0.7831
  670MOL0     N90365  -0.405   0.011  10.219 -0.4335 -0.3859  0.0496
  670MOL0     N90366  -0.357  -0.105  10.190 -0.2165  0.5404  0.4853
  670MOL0     C90367   0.508   0.227  10.024  0.5111 -0.1686  0.7461
  670MOL0     C90368   0.502   0.359  10.058  0.2384 -0.4488  0.6851
  670MOL0     C90369   0.480   0.721  10.315 -0.2465 -0.8203  0.0631
  670MOL0     C90370   0.371   0.761  10.388  0.9088 -0.3697  0.3854
  670MOL0     C90371   0.364   0.891  10.447  0.8622 -0.4959  0.9755
  670MOL0     C90372   0.462   0.981  10.443 -0.8199  0.3281  0.1428
  670MOL0     O90373   0.479   1.102  10.519  0.0412  0.5605 -0.1514
  670MOL0     C90374   0.396   1.132  10.630  0.0678 -0.0067  0.7848
  670MOL0     C90375   0.456   1.253  10.710 -0.1169  0.6534 -0.3468
  670MOL0     C90376   0.426   1.388  10.632  0.3155  0.2454 -0.0065
  670MOL0     C90377   0.510   1.417  10.505 -0.7227  1.0981 -0.1890
  670MOL0     C90378   0.653   1.413  10.545  0.0666  0.7389  0.3095
  670MOL0     C90379   0.771   1.408  10.556  0.0785  0.5633 -0.7948
  670MOL0     C90380   0.575   0.941  10.358  0.1248  0.9023 -0.2475
  670MOL0     C90381   0.576   0.821  10.284 -0.1891  0.5965  0.4496
  670MOL0     C90382   0.680   0.809  10.174 -1.0006  0.5162  0.3731
  670MOL0     H90383   0.777   0.374  10.268  1.0076  2.5624 -1.0525
  670MOL0     H90384   0.762   0.125  10.229 -0.2853 -1.1472  0.2026
  670MOL0     H90385   0.409  -0.011  10.022 -0.4709  0.1053  0.5000
  670MOL0     H90386   0.511  -0.111   9.925  3.2390  2.2771 -0.4033
  670MOL0     H90387   0.467  -0.157  10.231 -2.8529  1.0491  0.3960
  670MOL0     H90388   0.568  -0.245  10.125 -1.0686 -1.7034 -0.0553
  670MOL0     H90389   0.379  -0.372  10.119  0.5636  2.3276  2.8537
  670MOL0     H90390   0.375  -0.287   9.965  0.9789  0.3430 -0.0415
  670MOL0     H90391   0.241  -0.157  10.220  2.4818 -1.1908  0.4256
  670MOL0     H90392   0.221  -0.127  10.051  2.2977  0.7621  0.8592
  670MOL0     H90393   0.063  -0.283  10.007  0.4307  0.6795 -0.9788
  670MOL0     H90394   0.114  -0.382  10.144 -3.0017  0.8260  3.1146
  670MOL0     H90395   0.027  -0.220  10.295  1.7094 -1.5954 -0.8777
  670MOL0     H90396  -0.057  -0.125  10.166  5.0625  1.8160 -1.8501
  670MOL0     H90397  -0.107  -0.421  10.188  1.1938  0.4977 -0.7176
  670MOL0     H90398  -0.178  -0.305  10.086  2.9379  0.4641 -0.9630
  670MOL0     H90399  -0.328  -0.372  10.285 -0.6741  1.7434  0.5157
  670MOL0     H90400  -0.199  -0.325  10.394 -0.5824 -1.5977 -0.0225
  670MOL0     H90401  -0.240  -0.076  10.492 -2.1122 -2.9687  0.4731
  670MOL0     H90402  -0.498   0.175  10.408  0.6716 -0.0287 -0.1300
  670MOL0     H90403  -0.391   0.114  10.526  0.8442 -2.4991 -1.0432
  670MOL0     H90404  -0.201   0.228  10.415 -0.9221  1.5158  2.0357
  670MOL0     H90405  -0.308   0.263  10.278 -1.4240 -4.4154 -0.0197
  670MOL0     H90406  -0.392   0.371  10.552 -2.7262  0.2311 -1.1414
  670MOL0     H90407  -0.424   0.436  10.396 -4.5921 -3.1398  2.9518
  670MOL0     H90408  -0.271   0.588  10.486 -0.6228  0.3230 -1.4315
  670MOL0     H90409  -0.180   0.488  10.370 -2.6012  0.2390 -0.9207
  670MOL0     H90410  -0.163   0.675  10.692  1.0072  1.3294 -2.1749
  670MOL0     H90411   0.021   0.787  10.804 -1.1589  0.3554  0.2090
  670MOL0     H90412   0.429   0.914  10.915 -0.4926  0.3408  3.7492
  670MOL0     H90413   0.612   0.942  11.100 -0.2927 -1.7782  2.3056
  670MOL0     H90414   0.765   0.634  11.253  0.2807  0.7479  4.9847
  670MOL0     H90415   0.929   0.649  11.193  2.1769 -0.1305  3.9507
  670MOL0     H90416   0.933   0.849  11.366 -3.1469  2.3648  0.7694
  670MOL0     H90417   0.797   0.784  11.439  2.0838 -0.7295  2.8701
  670MOL0     H90418   0.894   0.555  11.446 -0.3588  0.4410  2.5071
  670MOL0     H90419   1.053   0.644  11.440  0.6759 -0.5507  1.1289
  670MOL0     H90420   0.856   0.752  11.638 -0.0768  0.1557 -1.3853
  670MOL0     H90421   1.033   0.756  11.637  0.2899 -0.4649  0.6024
  670MOL0     H90422   1.043   0.518  11.689 -0.7802 -0.6737 -1.4027
  670MOL0     H90423   0.874   0.494  11.690  0.9624 -1.2400  1.3263
  670MOL0     H90424   1.064   0.639  11.879  0.4881 -2.1889 -0.5894
  670MOL0     H90425   0.887   0.692  11.884 -2.8213 -2.1198 -1.0319
  670MOL0     H90426   0.978   0.409  11.927  2.7598  2.2320 -0.2973
  670MOL0     H90427   0.813   0.473  11.959 -0.7780  2.6011  0.2031
  670MOL0     H90428   0.955   0.456  12.159 -1.1330 -0.7104 -1.9068
  670MOL0     H90429   1.056   0.587  12.097  1.6891 -1.8496  3.5543
  670MOL0     H90430   0.817   0.600  10.988 -0.4874 -0.5947 -1.3692
  670MOL0     H90431   0.654   0.565  10.783  0.1903 -0.0158  0.5945
  670MOL0     H90432   0.296   0.526  10.589  0.6915  0.5822 -0.9069
  670MOL0     H90433   0.099   0.405  10.504  0.2077 -0.7213  1.1183
  670MOL0     H90434   0.441   0.203   9.943  0.7834  0.9015  0.1840
  670MOL0     H90435   0.442   0.429  10.001 -0.3251 -1.3483  0.1440
  670MOL0     H90436   0.283   0.698  10.384  2.0095 -1.8896 -1.7069
  670MOL0     H90437   0.273   0.932  10.488  0.6126  1.1327 -1.0222
  670MOL0     H90438   0.389   1.042  10.692  3.2005 -0.8307  0.0852
  670MOL0     H90439   0.296   1.156  10.594  1.2556  0.9137 -2.2014
  670MOL0     H90440   0.561   1.234  10.731 -0.8188 -4.0712 -0.0140
  670MOL0     H90441   0.399   1.265  10.803  0.7010  0.3507  0.2065
  670MOL0     H90442   0.431   1.474  10.700 -0.1049  0.5923 -0.4092
  670MOL0     H90443   0.321   1.391  10.604  0.4751 -0.5855 -0.7597
  670MOL0     H90444   0.498   1.338  10.430 -1.3600  1.0448 -0.0381
  670MOL0     H90445   0.482   1.513  10.461 -2.7783  0.7606  0.2771
  670MOL0     H90446   0.877   1.415  10.567 -0.1698  1.0432  1.8919
  670MOL0     H90447   0.648   1.019  10.341 -0.5270  1.2011 -1.8375
  670MOL0     H90448   0.629   0.771  10.085 -0.7071  2.6591 -0.7664
  670MOL0     H90449   0.720   0.903  10.134  1.9770 -0.3448  1.0610
  670MOL0     H90450   0.758   0.742  10.211  0.9908  3.3786  1.8172
  671MOL0     O90451   3.003   2.635  11.130  0.9253 -0.0388  0.0775
  671MOL0     C90452   2.981   2.540  11.208 -0.8965  0.4292 -0.6317
  671MOL0     O90453   2.909   2.548  11.332  0.6861  0.7331  0.1497
  671MOL0     C90454   2.855   2.670  11.356 -0.1600 -0.3297 -0.3016
  671MOL0     C90455   2.901   2.746  11.463 -0.3445 -0.0201  1.1288
  671MOL0     C90456   2.841   2.871  11.483  0.0874 -0.1217 -0.2240
  671MOL0     C90457   2.739   2.920  11.397 -0.7179  0.3363 -0.0330
  671MOL0     O90458   2.692   3.051  11.406 -0.7495  0.9734  0.3358
  671MOL0     C90459   2.633   3.118  11.291  0.3947  0.0720 -0.6804
  671MOL0     C90460   2.548   3.234  11.344  0.7600  0.7460  0.2310
  671MOL0     C90461   2.434   3.159  11.428 -1.4863  0.9455  0.0425
  671MOL0     C90462   2.302   3.232  11.399  0.1120  0.6414  0.3536
  671MOL0     C90463   2.182   3.160  11.457  0.4305  0.0382 -0.6807
  671MOL0     C90464   2.051   3.232  11.424  0.2672  0.0071 -0.6629
  671MOL0     C90465   2.039   3.361  11.514 -0.1684  0.3710 -0.4365
  671MOL0     C90466   1.893   3.412  11.497  0.0904  0.5418  0.4780
  671MOL0     N90467   1.864   3.530  11.579  0.4342 -0.0150  0.2556
  671MOL0     C90468   1.856   3.524  11.719  0.9430 -0.1125  0.7064
  671MOL0     C90469   1.830   3.655  11.751 -0.5747  0.4953  0.7932
  671MOL0     C90470   1.817   3.716  11.884  0.0500 -0.4237 -0.8177
  671MOL0     C90471   1.666   3.711  11.933 -0.2009  0.4527  0.0743
  671MOL0     C90472   1.584   3.587  11.884  0.2307 -0.5018 -0.2832
  671MOL0     C90473   1.444   3.572  11.956 -0.4351 -0.1981  1.1089
  671MOL0     O90474   1.367   3.689  11.963 -0.2876  0.5884  0.4991
  671MOL0     C90475   1.252   3.710  11.881 -0.1938  1.3062 -0.4633
  671MOL0     C90476   1.238   3.630  11.759 -0.7112  0.2899 -0.1624
  671MOL0     C90477   1.124   3.641  11.669 -0.1236 -0.9820  0.3963
  671MOL0     C90478   1.022   3.739  11.703  0.3117 -0.0413 -0.1706
  671MOL0     C90479   0.904   3.745  11.618  0.0318 -0.4871  0.1945
  671MOL0     O90480   0.830   3.858  11.598 -0.5094  0.0654  0.1357
  671MOL0     C90481   0.713   3.845  11.534  0.7644  0.8315 -0.0732
  671MOL0     C90482   0.611   3.771  11.593  0.7425  0.5319  0.9198
  671MOL0     C90483   0.501   3.746  11.512 -0.2138  0.6215 -0.9479
  671MOL0     C90484   0.482   3.808  11.394  0.3241  0.6169  1.0822
  671MOL0     O90485   0.368   3.801  11.316  0.5568 -0.3643  0.2150
  671MOL0     C90486   0.254   3.734  11.364 -0.3302  0.0846 -0.1871
  671MOL0     C90487   0.144   3.713  11.261 -0.2103 -0.0089 -0.4251
  671MOL0     C90488   0.184   3.644  11.124  0.0085 -0.0181  0.4379
  671MOL0     C90489   0.074   3.672  11.013 -1.0087  0.1320  0.5292
  671MOL0     C90490   0.102   3.612  10.878  0.2668 -0.8130 -0.4715
  671MOL0     C90491   0.243   3.640  10.818  0.1319 -1.1164 -0.1875
  671MOL0     C90492   0.254   3.580  10.682  1.0133  0.8041  1.5600
  671MOL0     C90493   0.401   3.580  10.643 -0.1466  0.0594  0.4399
  671MOL0    Cl90494   0.443   3.521  10.483  0.2367 -0.1867 -0.1368
  671MOL0     C90495   0.585   3.893  11.348  1.1563 -1.2818  0.1347
  671MOL0     C90496   0.701   3.911  11.412 -1.0814  0.8251 -0.4680
  671MOL0     O90497   0.859   3.632  11.590  0.3162 -0.3964 -0.1330
  671MOL0     C90498   1.039   3.814  11.818 -0.0885 -0.5113  0.4325
  671MOL0     C90499   1.143   3.805  11.901 -1.5135  1.1151 -1.5341
  671MOL0     N90500   1.834   3.737  11.633  0.0899  0.5309  0.2911
  671MOL0     N90501   1.861   3.659  11.539 -1.2262  0.1147  1.0027
  671MOL0     C90502   2.691   2.842  11.298  0.5689 -0.5463 -0.4437
  671MOL0     C90503   2.750   2.714  11.270 -0.6773 -0.6223 -0.1580
  671MOL0     C90504   3.029   2.409  11.175 -1.0029  0.6873 -0.3173
  671MOL0     C90505   2.960   2.279  11.195 -0.8708 -0.9526  0.3126
  671MOL0     C90506   3.024   2.155  11.169  1.0616  0.2043 -0.6786
  671MOL0     C90507   3.155   2.163  11.107 -0.3269  0.4383 -0.7104
  671MOL0     O90508   3.235   2.052  11.082  0.6184  0.5744  0.7296
  671MOL0     C90509   3.202   1.920  11.141 -0.2318  0.4012 -0.9051
  671MOL0     C90510   3.257   1.815  11.046 -0.2800 -0.1765  0.7867
  671MOL0     C90511   3.195   1.831  10.906 -0.7796 -0.0879  0.2244
  671MOL0     C90512   3.243   1.726  10.802 -0.1875  0.2590 -0.4613
  671MOL0     C90513   3.234   1.582  10.846 -0.4221 -0.1573  0.3509
  671MOL0     C90514   3.251   1.465  10.870  0.0693  0.1704  0.3427
  671MOL0     C90515   3.221   2.285  11.095  0.7006  0.5639  1.3221
  671MOL0     C90516   3.164   2.410  11.123 -0.1234 -0.2220 -0.6793
  671MOL0     C90517   3.258   2.529  11.112 -0.5883 -0.1321 -0.0741
  671MOL0     H90518   2.984   2.704  11.519  0.7026  2.6504  1.7304
  671MOL0     H90519   2.887   2.938  11.554  1.3311 -1.3624  0.1814
  671MOL0     H90520   2.716   3.153  11.230  0.6178  0.6446 -0.0564
  671MOL0     H90521   2.566   3.065  11.223 -0.6568 -0.6450  0.8568
  671MOL0     H90522   2.501   3.280  11.257 -1.0837 -0.5345  0.4841
  671MOL0     H90523   2.601   3.306  11.407 -1.4359  1.7447  1.0329
  671MOL0     H90524   2.464   3.167  11.533 -1.6777 -4.3968  0.7343
  671MOL0     H90525   2.432   3.054  11.400  3.0315  0.4135  1.0111
  671MOL0     H90526   2.303   3.332  11.443 -4.3388  0.4491  1.3119
  671MOL0     H90527   2.284   3.249  11.292  0.6282  2.1903  0.4814
  671MOL0     H90528   2.176   3.056  11.425  1.3290 -0.5539  0.9297
  671MOL0     H90529   2.185   3.162  11.567 -0.3893 -2.7219 -0.5520
  671MOL0     H90530   2.047   3.253  11.317 -2.7486 -0.0232 -0.6360
  671MOL0     H90531   1.970   3.162  11.446 -0.2680  1.3019  1.9890
  671MOL0     H90532   2.098   3.446  11.479  0.5561  0.0857  0.0687
  671MOL0     H90533   2.062   3.343  11.620  0.0276  0.3057 -0.4903
  671MOL0     H90534   1.890   3.443  11.392  1.2739 -1.5998 -0.2625
  671MOL0     H90535   1.828   3.330  11.530 -0.5317 -0.6946 -3.3085
  671MOL0     H90536   1.862   3.434  11.780  1.5150  0.2967  1.2675
  671MOL0     H90537   1.877   3.661  11.958  0.8219  1.3437 -0.0556
  671MOL0     H90538   1.857   3.818  11.884  0.9268 -0.7598 -1.1932
  671MOL0     H90539   1.667   3.704  12.042  0.7672  2.1459  0.2066
  671MOL0     H90540   1.609   3.804  11.919  4.9651  4.5687  2.6168
  671MOL0     H90541   1.645   3.496  11.881  2.1610  0.7277 -2.6164
  671MOL0     H90542   1.571   3.602  11.776 -0.2091 -1.8730 -0.4344
  671MOL0     H90543   1.469   3.533  12.055  0.5029 -2.3243  0.0984
  671MOL0     H90544   1.381   3.496  11.910  1.3672 -0.9858 -0.2084
  671MOL0     H90545   1.324   3.572  11.728 -0.1846  1.1290 -0.3007
  671MOL0     H90546   1.121   3.581  11.578 -1.7097 -1.0401  0.4600
  671MOL0     H90547   0.606   3.722  11.690  2.3040 -2.4284 -0.3570
  671MOL0     H90548   0.425   3.678  11.549  2.2376 -1.2005  1.0553
  671MOL0     H90549   0.286   3.636  11.400  1.1649  0.1537 -1.2020
  671MOL0     H90550   0.227   3.792  11.453 -3.4318 -0.1441 -0.8662
  671MOL0     H90551   0.077   3.642  11.311  0.1637 -0.7642 -0.9831
  671MOL0     H90552   0.074   3.797  11.256  0.2813  0.7947  3.1437
  671MOL0     H90553   0.276   3.689  11.087  1.7324 -3.0525  0.6846
  671MOL0     H90554   0.196   3.536  11.133 -0.5294 -0.0426  0.9518
  671MOL0     H90555   0.058   3.777  10.987 -1.3429 -0.0719 -0.1328
  671MOL0     H90556  -0.021   3.639  11.057 -0.7004 -1.9222 -0.2294
  671MOL0     H90557   0.026   3.646  10.807 -1.2072 -0.0875  1.3653
  671MOL0     H90558   0.080   3.504  10.878 -0.1986 -0.7316 -1.7513
  671MOL0     H90559   0.254   3.746  10.794 -0.7074 -1.6292 -3.2339
  671MOL0     H90560   0.320   3.599  10.884 -0.7696 -1.3987  0.7113
  671MOL0     H90561   0.197   3.650  10.619  2.0040  1.0258  0.9020
  671MOL0     H90562   0.204   3.483  10.675 -0.7088  1.6852  0.8050
  671MOL0     H90563   0.435   3.684  10.645  0.4555 -0.1217 -0.3360
  671MOL0     H90564   0.467   3.527  10.713  2.8932  1.2353 -1.3538
  671MOL0     H90565   0.575   3.937  11.250  1.9135  3.0567  1.7698
  671MOL0     H90566   0.789   3.967  11.382  1.5925 -1.2788  2.7688
  671MOL0     H90567   0.964   3.886  11.848  1.2429  1.1692 -0.1233
  671MOL0     H90568   1.148   3.868  11.989  1.8396  0.2464 -0.9370
  671MOL0     H90569   2.595   2.873  11.257  0.1632  0.0474  0.8987
  671MOL0     H90570   2.708   2.654  11.190 -0.4074 -1.4838  0.3211
  671MOL0     H90571   2.862   2.283  11.243  0.0121 -3.0658  2.4658
  671MOL0     H90572   2.971   2.065  11.197  2.0916 -0.0755  0.4567
  671MOL0     H90573   3.097   1.899  11.163 -0.4978  3.4112  1.2724
  671MOL0     H90574   3.250   1.905  11.238 -0.4700  0.1782 -0.8205
  671MOL0     H90575   3.235   1.713  11.079  0.3347 -0.2309  1.0422
  671MOL0     H90576   3.363   1.821  11.020 -0.7354 -0.7732 -1.4470
  671MOL0     H90577   3.224   1.927  10.863  1.1126 -1.0309 -0.7072
  671MOL0     H90578   3.091   1.850  10.934 -0.2604  2.7405  0.5132
  671MOL0     H90579   3.186   1.749  10.712  0.4112  2.7099 -0.2805
  671MOL0     H90580   3.347   1.748  10.776  0.1924 -2.2707 -1.3486
  671MOL0     H90581   3.263   1.364  10.905  2.5738 -0.1421 -1.1623
  671MOL0     H90582   3.325   2.287  11.067  1.8466 -3.7391  4.3227
  671MOL0     H90583   3.233   2.574  11.016 -0.0557  2.1097  0.7723
  671MOL0     H90584   3.232   2.595  11.196  0.4620  0.2811 -0.0579
  671MOL0     H90585   3.363   2.502  11.130  0.1685  1.6834 -1.4732
  672MOL0     O90586   1.815   3.655   7.815 -0.5369  0.3150 -0.7475
  672MOL0     C90587   1.883   3.688   7.724 -0.7969 -0.6009  0.6710
  672MOL0     O90588   1.836   3.693   7.589  0.3324 -0.3552  0.0047
  672MOL0     C90589   1.698   3.686   7.579  0.7812  0.6149  1.0802
  672MOL0     C90590   1.615   3.794   7.601  0.3299 -0.4980  0.2354
  672MOL0     C90591   1.480   3.777   7.583  0.1730 -0.0242 -0.2121
  672MOL0     C90592   1.424   3.663   7.534 -0.0164  0.4950  0.4858
  672MOL0     O90593   1.289   3.648   7.507 -0.1914 -0.4830  0.0388
  672MOL0     C90594   1.197   3.678   7.609  0.1217  1.2326 -0.6126
  672MOL0     C90595   1.199   3.576   7.724  0.0955  0.6800 -0.7320
  672MOL0     C90596   1.128   3.444   7.686  0.6605 -0.4222 -0.5450
  672MOL0     C90597   1.095   3.363   7.808  0.3259  0.2582  0.5974
  672MOL0     C90598   0.945   3.362   7.815 -0.3720 -0.2809 -1.0533
  672MOL0     C90599   0.886   3.309   7.943 -0.2725 -0.3634  0.1676
  672MOL0     C90600   0.913   3.389   8.073  0.4232  0.2952  0.3443
  672MOL0     C90601   0.865   3.537   8.068  0.0010  1.1704 -0.2824
  672MOL0     N90602   0.721   3.559   8.044  0.4245 -0.2435  0.1952
  672MOL0     C90603   0.617   3.503   8.115 -0.0052  0.3308  0.2583
  672MOL0     C90604   0.519   3.511   8.016  0.4217  0.5033 -0.1203
  672MOL0     C90605   0.394   3.436   8.021  0.1939  0.6558  0.0014
  672MOL0     C90606   0.280   3.530   8.002  0.1096  0.1124 -0.1793
  672MOL0     C90607   0.209   3.523   7.869  0.3963  0.0355 -0.0291
  672MOL0     C90608   0.072   3.579   7.872 -0.1916  0.2799 -0.7787
  672MOL0     O90609   0.008   3.580   7.748 -0.1856 -0.7085  0.0322
  672MOL0     C90610  -0.061   3.686   7.707  0.1175  0.3140 -0.0677
  672MOL0     C90611  -0.190   3.691   7.754  0.9208  0.6075  0.5056
  672MOL0     C90612  -0.271   3.802   7.732  0.2190 -0.0479  0.5187
  672MOL0     C90613  -0.231   3.902   7.638  0.1718 -0.6122 -0.6380
  672MOL0     C90614  -0.315   4.019   7.624 -0.3134  0.4164  0.1593
  672MOL0     O90615  -0.420   4.050   7.719 -0.0993  0.2595 -0.4975
  672MOL0     C90616  -0.483   4.170   7.713  0.4691 -0.0832 -0.3403
  672MOL0     C90617  -0.408   4.295   7.705  0.5904  0.0512 -0.1595
  672MOL0     C90618  -0.477   4.420   7.705  0.4995 -0.3511 -0.5125
  672MOL0     C90619  -0.618   4.421   7.734 -0.0919  0.6156  0.4965
  672MOL0     O90620  -0.680   4.545   7.740 -0.1154  0.1472 -0.2777
  672MOL0     C90621  -0.802   4.550   7.803 -0.1522 -0.5086  0.1082
  672MOL0     C90622  -0.913   4.554   7.684  0.0872 -0.0457 -0.9892
  672MOL0     C90623  -1.052   4.561   7.737  1.0056 -0.1311  0.0972
  672MOL0     C90624  -1.095   4.692   7.800  0.7439  0.3420  0.5770
  672MOL0     C90625  -1.102   4.799   7.691 -0.5333 -0.2470 -0.3890
  672MOL0     C90626  -1.128   4.923   7.777  0.4367 -0.3035 -0.2977
  672MOL0     C90627  -1.173   5.047   7.699 -0.5109 -0.1687  0.2819
  672MOL0     C90628  -1.239   5.160   7.784 -0.0599  0.3211  0.5917
  672MOL0    Cl90629  -1.397   5.109   7.860  0.0761 -0.1379  0.0003
  672MOL0     C90630  -0.689   4.303   7.749 -0.3818  0.5169  0.2905
  672MOL0     C90631  -0.625   4.174   7.743 -0.3256  0.2460  0.2695
  672MOL0     O90632  -0.289   4.087   7.524 -0.0440 -0.4268  0.5049
  672MOL0     C90633  -0.104   3.886   7.575 -1.0611  0.1199  0.2667
  672MOL0     C90634  -0.017   3.782   7.614  0.3084  0.8467  0.2320
  672MOL0     N90635   0.557   3.584   7.905 -0.1023 -0.7247  0.0520
  672MOL0     N90636   0.678   3.610   7.916 -0.5073 -0.0866 -0.1065
  672MOL0     C90637   1.508   3.558   7.492 -0.8740 -0.3978  0.3485
  672MOL0     C90638   1.646   3.569   7.525 -0.3633  0.4963  0.0901
  672MOL0     C90639   2.027   3.711   7.743 -0.2209  0.2258 -0.5544
  672MOL0     C90640   2.100   3.769   7.641 -1.1920  0.0623  0.0578
  672MOL0     C90641   2.231   3.816   7.658 -0.4610  0.3708 -1.1935
  672MOL0     C90642   2.301   3.791   7.775  0.1715  0.2796  0.3786
  672MOL0     O90643   2.428   3.826   7.772 -0.3016 -0.5569 -0.2976
  672MOL0     C90644   2.517   3.809   7.881 -0.0779 -0.9378  0.0553
  672MOL0     C90645   2.636   3.894   7.847 -0.6956  0.6525  0.0708
  672MOL0     C90646   2.751   3.865   7.942 -0.7189  1.2627 -0.6626
  672MOL0     C90647   2.731   3.893   8.094  0.5444 -0.8874  0.2034
  672MOL0     C90648   2.687   3.775   8.170  0.7545  0.3162 -0.6937
  672MOL0     C90649   2.650   3.672   8.219  0.3221 -0.7168 -0.5986
  672MOL0     C90650   2.241   3.718   7.877 -0.1880  0.5857  0.1972
  672MOL0     C90651   2.104   3.679   7.867 -0.4897 -1.1911 -0.5363
  672MOL0     C90652   2.034   3.618   7.991 -0.6322  0.2104  0.3592
  672MOL0     H90653   1.670   3.886   7.619  0.3741 -0.5326  0.2792
  672MOL0     H90654   1.427   3.868   7.611 -1.4212 -0.4372 -1.7473
  672MOL0     H90655   1.210   3.777   7.655  1.4099 -0.9282  4.3915
  672MOL0     H90656   1.098   3.674   7.562 -0.5626  0.1442  0.8200
  672MOL0     H90657   1.143   3.618   7.808 -1.3479 -0.6122 -1.0023
  672MOL0     H90658   1.304   3.554   7.745 -0.7588 -2.1497  1.0348
  672MOL0     H90659   1.200   3.384   7.630  1.6896 -0.2472  0.5569
  672MOL0     H90660   1.038   3.465   7.627 -1.7909 -0.3102  2.9196
  672MOL0     H90661   1.137   3.262   7.795  0.7126  0.5598 -0.7459
  672MOL0     H90662   1.140   3.403   7.899  3.6812 -2.3004  0.2825
  672MOL0     H90663   0.903   3.462   7.810 -0.8598 -0.5236 -2.3994
  672MOL0     H90664   0.896   3.306   7.734  0.4568 -0.5503 -1.3758
  672MOL0     H90665   0.777   3.318   7.937 -0.0206  2.2518 -3.0705
  672MOL0     H90666   0.913   3.203   7.948 -1.7086 -0.7489  0.0170
  672MOL0     H90667   1.014   3.367   8.110 -0.0097 -0.6543  1.0078
  672MOL0     H90668   0.842   3.348   8.145 -0.8290  0.7145 -0.6079
  672MOL0     H90669   0.882   3.572   8.170 -0.9429  0.2233  0.2080
  672MOL0     H90670   0.937   3.586   8.000 -0.1951  0.0092 -1.3765
  672MOL0     H90671   0.612   3.440   8.203  2.6174 -0.2558  0.0839
  672MOL0     H90672   0.390   3.350   7.953 -1.1065  0.3687  0.4143
  672MOL0     H90673   0.379   3.393   8.121 -0.7890 -0.5914 -0.6449
  672MOL0     H90674   0.201   3.494   8.069 -1.1991 -0.1186 -1.7622
  672MOL0     H90675   0.301   3.637   8.017  0.5003 -0.0118  0.1645
  672MOL0     H90676   0.188   3.418   7.845  0.3007  0.0880 -0.1839
  672MOL0     H90677   0.273   3.569   7.793  1.5096 -1.1066  0.1863
  672MOL0     H90678   0.084   3.674   7.925 -1.2540 -1.1661  2.3319
  672MOL0     H90679   0.015   3.523   7.947  3.1481 -0.8621  1.1436
  672MOL0     H90680  -0.222   3.608   7.816 -0.3380  0.1312 -0.7129
  672MOL0     H90681  -0.371   3.815   7.772  0.6108  1.9628  0.9925
  672MOL0     H90682  -0.303   4.308   7.680  0.6833  2.5732  1.1477
  672MOL0     H90683  -0.416   4.509   7.694  0.9946 -0.8687 -2.2038
  672MOL0     H90684  -0.820   4.474   7.880 -0.2949  1.8148  2.5237
  672MOL0     H90685  -0.810   4.644   7.858  1.8526 -0.1206 -0.1609
  672MOL0     H90686  -0.877   4.629   7.613 -0.6018  1.9785  0.6855
  672MOL0     H90687  -0.905   4.453   7.642 -0.0348  0.0334 -1.2015
  672MOL0     H90688  -1.116   4.531   7.654  1.1025 -2.5287  0.7984
  672MOL0     H90689  -1.051   4.485   7.816 -1.0153  1.0801  1.3728
  672MOL0     H90690  -1.012   4.705   7.871  0.5668 -1.4950  1.1886
  672MOL0     H90691  -1.191   4.669   7.846  0.6793 -1.9058 -0.5569
  672MOL0     H90692  -1.194   4.779   7.636 -0.8131  0.2953 -0.1216
  672MOL0     H90693  -1.015   4.810   7.625 -2.6079  2.2950 -2.9608
  672MOL0     H90694  -1.204   4.904   7.853 -0.3919  1.8630 -0.5271
  672MOL0     H90695  -1.031   4.945   7.823 -0.0265 -0.0953  0.5913
  672MOL0     H90696  -1.253   5.029   7.627  0.3577  2.6179 -1.5810
  672MOL0     H90697  -1.087   5.087   7.644 -1.9889 -0.9153 -2.7474
  672MOL0     H90698  -1.173   5.184   7.868  0.6502  2.8013 -0.5859
  672MOL0     H90699  -1.263   5.239   7.713 -1.4577 -1.0220 -0.4907
  672MOL0     H90700  -0.797   4.306   7.759 -0.3678  0.9713  0.3079
  672MOL0     H90701  -0.675   4.078   7.748  2.8057 -1.5992 -0.7761
  672MOL0     H90702  -0.076   3.960   7.501  0.3475  0.8954  1.5166
  672MOL0     H90703   0.077   3.777   7.559  2.1209 -0.5338  3.2435
  672MOL0     H90704   1.464   3.468   7.449  2.5687 -0.8460 -2.7877
  672MOL0     H90705   1.719   3.490   7.506  0.6979  1.6476 -0.8514
  672MOL0     H90706   2.055   3.781   7.543  0.8046 -2.4535 -1.2966
  672MOL0     H90707   2.280   3.881   7.586 -1.0312 -0.3847 -2.2762
  672MOL0     H90708   2.554   3.706   7.879  0.5067 -0.8656  2.9117
  672MOL0     H90709   2.477   3.835   7.979 -3.3995  0.3390 -1.4818
  672MOL0     H90710   2.620   4.001   7.831  0.9798  0.9117 -0.0936
  672MOL0     H90711   2.676   3.850   7.755 -2.0368 -1.1175  0.2876
  672MOL0     H90712   2.833   3.929   7.908  1.0146 -1.2428 -1.4764
  672MOL0     H90713   2.784   3.762   7.932  0.3008  1.0038  3.4060
  672MOL0     H90714   2.834   3.911   8.126 -0.0623  1.1389  1.2031
  672MOL0     H90715   2.674   3.986   8.105 -0.5592 -1.5440  0.2091
  672MOL0     H90716   2.598   3.588   8.261  0.6598 -1.1955 -1.1261
  672MOL0     H90717   2.296   3.691   7.967  2.4524  0.5045 -1.3207
  672MOL0     H90718   2.112   3.610   8.067  1.0697 -2.6650 -1.5123
  672MOL0     H90719   1.963   3.690   8.032  1.8174  2.3794  1.1338
  672MOL0     H90720   1.997   3.518   7.970  1.4816 -0.7402  0.8575
  673MOL0     O90721   5.307  10.973   0.516  0.4309 -0.5099 -0.5947
  673MOL0     C90722   5.235  10.978   0.424  1.4471 -0.1227 -0.4030
  673MOL0     O90723   5.148  10.881   0.389  1.0310  0.6883 -0.1021
  673MOL0     C90724   5.157  10.753   0.417 -0.0117 -0.1439  0.2259
  673MOL0     C90725   5.042  10.690   0.468  0.2292 -0.0549  0.2010
  673MOL0     C90726   5.052  10.550   0.499  0.0321  0.0347  0.4159
  673MOL0     C90727   5.168  10.475   0.485  0.3148 -0.2112  0.1918
  673MOL0     O90728   5.145  10.343   0.494  0.3242  0.1034  0.2479
  673MOL0     C90729   5.268  10.268   0.495 -0.0868  0.5208 -0.4912
  673MOL0     C90730   5.234  10.124   0.514 -0.9852 -0.2753  0.3915
  673MOL0     C90731   5.362  10.032   0.493 -0.1155  0.7776 -0.3524
  673MOL0     C90732   5.320   9.885   0.449  0.1043 -0.3808  0.5924
  673MOL0     C90733   5.436   9.788   0.473  0.6936  0.5176 -0.0622
  673MOL0     C90734   5.564   9.812   0.391  0.7943 -0.2347 -0.9308
  673MOL0     C90735   5.659   9.698   0.416  0.4720  0.3202  0.0505
  673MOL0     C90736   5.700   9.683   0.563  0.3054  0.2298 -0.2302
  673MOL0     N90737   5.775   9.801   0.607 -0.3221  0.5430  0.9316
  673MOL0     C90738   5.716   9.907   0.668  0.3321 -0.4706 -0.1523
  673MOL0     C90739   5.827   9.977   0.694  0.2756  0.4265 -0.3080
  673MOL0     C90740   5.823  10.098   0.774  0.1205  0.6481  0.3137
  673MOL0     C90741   5.803  10.229   0.689  0.3977  0.7845  0.5679
  673MOL0     C90742   5.699  10.214   0.573 -0.5002  0.8835  0.0023
  673MOL0     C90743   5.656  10.344   0.501 -0.5518  0.3462 -0.4450
  673MOL0     O90744   5.617  10.322   0.364  0.4131 -0.0616  0.5846
  673MOL0     C90745   5.597  10.435   0.283  0.2731 -0.0232  0.2452
  673MOL0     C90746   5.558  10.402   0.150 -0.8230  0.2252  0.2521
  673MOL0     C90747   5.529  10.502   0.054  0.6456  0.1242  0.1325
  673MOL0     C90748   5.535  10.636   0.084 -0.9711  0.2973 -0.3082
  673MOL0     C90749   5.493  10.732  -0.016  0.3268 -0.2940 -0.2493
  673MOL0     O90750   5.486  10.864   0.030 -0.8464 -0.6338 -0.1375
  673MOL0     C90751   5.472  10.972  -0.053  0.3277  0.7129 -0.8384
  673MOL0     C90752   5.458  10.989  -0.190 -0.8784 -0.2477 -0.6685
  673MOL0     C90753   5.449  11.111  -0.260  0.1674  1.8348 -0.3920
  673MOL0     C90754   5.446  11.233  -0.189  0.1761  0.0738 -0.2289
  673MOL0     O90755   5.429  11.350  -0.262  0.0213  0.1693  0.0550
  673MOL0     C90756   5.401  11.479  -0.205  0.3594  0.0776  0.1359
  673MOL0     C90757   5.444  11.576  -0.307 -0.7391  0.9569 -0.0278
  673MOL0     C90758   5.354  11.580  -0.428  0.1715 -0.3614  0.8501
  673MOL0     C90759   5.367  11.710  -0.494 -0.3319 -0.2568  0.3716
  673MOL0     C90760   5.255  11.731  -0.587  0.7031  0.2627  0.9324
  673MOL0     C90761   5.281  11.848  -0.689  0.4923 -1.2771 -0.3598
  673MOL0     C90762   5.167  11.890  -0.777  0.5493 -0.3665  0.3309
  673MOL0     C90763   5.041  11.939  -0.688 -0.3398  0.4239  0.3265
  673MOL0    Cl90764   4.944  12.059  -0.769 -0.4968  0.4242  0.2393
  673MOL0     C90765   5.452  11.220  -0.046 -0.4538  0.2251  1.5702
  673MOL0     C90766   5.472  11.094   0.021  0.3438 -0.0625 -0.8399
  673MOL0     O90767   5.444  10.690  -0.122  0.2448 -0.4544  0.0164
  673MOL0     C90768   5.576  10.667   0.218 -0.0174 -0.3594 -0.6602
  673MOL0     C90769   5.606  10.575   0.317  0.6243 -0.3624  0.2269
  673MOL0     N90770   5.935   9.925   0.635 -0.4523 -0.3393 -0.4313
  673MOL0     N90771   5.900   9.832   0.567 -0.0470  0.6520 -0.5682
  673MOL0     C90772   5.278  10.540   0.431 -0.2753  0.1639  0.6489
  673MOL0     C90773   5.274  10.671   0.396  0.2800  0.0084 -0.1273
  673MOL0     C90774   5.243  11.103   0.337  0.4665 -0.6179 -0.6238
  673MOL0     C90775   5.341  11.197   0.370 -0.8031  0.1231 -0.3807
  673MOL0     C90776   5.358  11.313   0.297 -0.5096 -0.3588 -0.5690
  673MOL0     C90777   5.264  11.355   0.206 -1.1819 -0.1897  0.7819
  673MOL0     O90778   5.270  11.484   0.145  1.1712  0.3677 -0.5217
  673MOL0     C90779   5.235  11.593   0.228  0.5046  0.1588  0.1854
  673MOL0     C90780   5.151  11.696   0.152  0.3858  0.4331  1.0009
  673MOL0     C90781   5.094  11.809   0.230 -0.8276  0.2327  0.5666
  673MOL0     C90782   5.004  11.898   0.154 -0.7299  0.3872 -0.3370
  673MOL0     C90783   4.906  11.965   0.245  1.0354 -0.2797 -0.3354
  673MOL0     C90784   4.826  12.014   0.324 -0.5647 -0.1570 -0.4420
  673MOL0     C90785   5.163  11.265   0.176 -0.1202  0.9036  0.6172
  673MOL0     C90786   5.151  11.138   0.237  0.3991 -0.0263 -0.4622
  673MOL0     C90787   5.044  11.046   0.176 -0.0826 -0.1251  0.0388
  673MOL0     H90788   4.947  10.742   0.461  0.5943  0.3483 -4.2296
  673MOL0     H90789   4.964  10.495   0.530 -3.1668  2.4309 -3.4558
  673MOL0     H90790   5.324  10.268   0.401  2.1786 -0.7458  0.7629
  673MOL0     H90791   5.332  10.314   0.572  1.3981  0.6176 -1.7294
  673MOL0     H90792   5.161  10.094   0.437 -0.6608 -0.5182  0.1774
  673MOL0     H90793   5.178  10.109   0.607  0.5056 -2.3329  1.0158
  673MOL0     H90794   5.419  10.021   0.586 -2.2942 -1.6160  0.8342
  673MOL0     H90795   5.435  10.078   0.425 -1.0928  4.3896  0.8191
  673MOL0     H90796   5.229   9.853   0.500 -0.2114 -1.4282 -0.5938
  673MOL0     H90797   5.310   9.882   0.340 -0.0451 -0.4158  0.6072
  673MOL0     H90798   5.450   9.794   0.582 -0.9687  1.2725  0.1476
  673MOL0     H90799   5.411   9.682   0.468 -1.8336  0.9535  1.4337
  673MOL0     H90800   5.542   9.820   0.285 -0.1449  2.5355 -0.5958
  673MOL0     H90801   5.615   9.905   0.417  2.4623 -1.1722 -0.6837
  673MOL0     H90802   5.746   9.730   0.358 -0.6162 -0.0119 -1.8582
  673MOL0     H90803   5.612   9.613   0.366  0.4590  0.3033  0.0922
  673MOL0     H90804   5.614   9.663   0.627  0.8595  0.5631  0.6413
  673MOL0     H90805   5.766   9.597   0.575 -1.2066 -1.1597 -1.4185
  673MOL0     H90806   5.612   9.927   0.691 -0.0079  4.9111 -4.3594
  673MOL0     H90807   5.738  10.069   0.836 -0.6871  1.7781 -0.2345
  673MOL0     H90808   5.912  10.120   0.834 -1.8358  0.5365  3.4918
  673MOL0     H90809   5.775  10.311   0.755 -1.6225 -0.7046  1.6581
  673MOL0     H90810   5.902  10.265   0.659  1.0983  1.9204  3.9228
  673MOL0     H90811   5.609  10.161   0.606  0.1618 -1.9732 -2.3885
  673MOL0     H90812   5.739  10.153   0.492 -3.2616  0.8327 -1.4531
  673MOL0     H90813   5.747  10.404   0.504 -0.1665 -0.2649  2.1298
  673MOL0     H90814   5.583  10.400   0.561  0.2545 -1.8105  2.7992
  673MOL0     H90815   5.552  10.296   0.127  3.6561 -1.0433  3.6158
  673MOL0     H90816   5.491  10.465  -0.041 -2.8903 -1.3384  1.9446
  673MOL0     H90817   5.443  10.910  -0.262 -0.9907  1.5567 -2.7378
  673MOL0     H90818   5.446  11.094  -0.367 -0.0350 -0.1206 -0.1037
  673MOL0     H90819   5.297  11.499  -0.177  0.1368  0.5522 -0.9605
  673MOL0     H90820   5.468  11.491  -0.120 -0.5021 -0.2212  0.8682
  673MOL0     H90821   5.442  11.671  -0.253  1.3690  1.2557 -0.4002
  673MOL0     H90822   5.548  11.568  -0.340  0.2003  5.0582  1.4519
  673MOL0     H90823   5.381  11.505  -0.503  3.3676  2.0786 -0.6889
  673MOL0     H90824   5.252  11.567  -0.390  0.4903  1.5003  2.5286
  673MOL0     H90825   5.466  11.726  -0.538  0.0720 -0.3971  1.2002
  673MOL0     H90826   5.356  11.790  -0.420 -0.4463 -2.0889  2.4090
  673MOL0     H90827   5.159  11.749  -0.537  0.6785 -0.8490  1.3136
  673MOL0     H90828   5.250  11.652  -0.662 -2.4506  2.5436 -1.5732
  673MOL0     H90829   5.299  11.941  -0.634  1.5542 -0.6972 -1.6212
  673MOL0     H90830   5.366  11.830  -0.756  0.7129  1.5597 -0.9866
  673MOL0     H90831   5.128  11.805  -0.834 -0.5496 -0.1592  0.7593
  673MOL0     H90832   5.212  11.967  -0.840 -1.2388  0.5903  0.1616
  673MOL0     H90833   4.977  11.852  -0.675  1.3696 -0.6741  1.7575
  673MOL0     H90834   5.076  11.982  -0.594  0.3168 -0.8333  0.6758
  673MOL0     H90835   5.446  11.305   0.022  1.0954  1.6004  0.0785
  673MOL0     H90836   5.480  11.087   0.129  2.8297  0.1564 -0.9556
  673MOL0     H90837   5.588  10.773   0.241 -0.6644  0.0667 -2.1576
  673MOL0     H90838   5.622  10.604   0.420 -0.6535 -2.5082  1.1048
  673MOL0     H90839   5.363  10.482   0.397  0.1445  1.9938 -1.6234
  673MOL0     H90840   5.360  10.725   0.358  1.6771 -2.0323 -0.0389
  673MOL0     H90841   5.419  11.179   0.443 -1.0171 -2.1751 -0.6370
  673MOL0     H90842   5.430  11.390   0.324  1.3096 -2.0783 -0.3190
  673MOL0     H90843   5.314  11.649   0.279 -1.6925  0.6753  3.3224
  673MOL0     H90844   5.179  11.541   0.306  2.2871  0.7276  1.9272
  673MOL0     H90845   5.067  11.639   0.113 -0.7117  0.0546  3.7140
  673MOL0     H90846   5.210  11.734   0.068 -1.0409 -1.0703 -0.7386
  673MOL0     H90847   5.166  11.867   0.289 -0.1655 -0.2746  0.2765
  673MOL0     H90848   5.034  11.754   0.303  0.5055  0.7523  2.1299
  673MOL0     H90849   5.070  11.964   0.097  0.1539  0.7105  1.0263
  673MOL0     H90850   4.936  11.850   0.082 -0.2827 -1.1162  0.2005
  673MOL0     H90851   4.764  12.059   0.399  0.0859  0.2948 -0.1674
  673MOL0     H90852   5.101  11.299   0.094  3.0511  0.7340 -2.0681
  673MOL0     H90853   5.089  10.947   0.161 -1.6157 -1.0680  1.3092
  673MOL0     H90854   4.960  11.044   0.246  1.4745 -0.3870  1.9935
  673MOL0     H90855   5.005  11.084   0.081 -2.6023 -1.0440  0.6145
  674MOL0     O90856   0.149  10.419   2.104  0.7919  0.2462  0.2095
  674MOL0     C90857   0.255  10.427   2.166  0.6636  0.1750  0.3261
  674MOL0     O90858   0.279  10.367   2.286  0.0994  0.3522  0.0604
  674MOL0     C90859   0.184  10.296   2.357  0.4270  0.9211 -1.3096
  674MOL0     C90860   0.118  10.177   2.310  0.5740 -0.7108 -0.6033
  674MOL0     C90861   0.031  10.114   2.395 -0.3553 -0.4003 -0.3871
  674MOL0     C90862   0.016  10.151   2.528  0.3701  0.7835  0.1106
  674MOL0     O90863  -0.051  10.073   2.620 -0.8924  0.2035 -1.2246
  674MOL0     C90864  -0.069   9.928   2.608 -0.5999  0.3229 -0.2051
  674MOL0     C90865  -0.127   9.887   2.748 -0.8329 -0.0777 -0.0828
  674MOL0     C90866  -0.170   9.729   2.756  0.0879  0.6628 -0.3575
  674MOL0     C90867  -0.054   9.637   2.796  0.3293 -1.4215  0.2763
  674MOL0     C90868  -0.092   9.492   2.797  0.8960 -0.0737  0.0212
  674MOL0     C90869   0.027   9.394   2.843  0.9336  0.1060  1.1633
  674MOL0     C90870  -0.011   9.250   2.790 -0.8833  0.2680  0.4535
  674MOL0     C90871   0.070   9.138   2.850  0.6290 -0.1497  1.1119
  674MOL0     N90872   0.021   9.010   2.801 -0.3540  0.6262 -0.7403
  674MOL0     C90873   0.074   8.938   2.699 -0.5061  0.1272  0.6963
  674MOL0     C90874  -0.001   8.823   2.703  0.1978  0.5702 -0.8742
  674MOL0     C90875   0.033   8.695   2.630  0.4855 -0.0016  0.3032
  674MOL0     C90876  -0.046   8.681   2.499 -0.6179  0.2854  0.1243
  674MOL0     C90877  -0.006   8.787   2.389  0.0107 -0.3495 -0.9208
  674MOL0     C90878  -0.102   8.768   2.268 -0.0312 -0.1149  0.1805
  674MOL0     O90879  -0.170   8.893   2.228 -0.0347  0.6698 -0.0004
  674MOL0     C90880  -0.135   8.962   2.130 -0.9249 -0.4436  1.5867
  674MOL0     C90881  -0.230   9.034   2.064  0.2426 -0.8081  0.5492
  674MOL0     C90882  -0.198   9.112   1.956  0.6301  0.3725  0.1329
  674MOL0     C90883  -0.070   9.118   1.909 -0.1472 -0.3199 -0.1196
  674MOL0     C90884  -0.044   9.225   1.805 -0.0218  0.3030  0.1632
  674MOL0     O90885  -0.059   9.200   1.671 -0.0901  0.2615 -0.0547
  674MOL0     C90886  -0.024   9.296   1.575 -0.1677 -1.2390 -0.3711
  674MOL0     C90887  -0.094   9.283   1.462 -0.6423  0.1674  0.9645
  674MOL0     C90888  -0.085   9.375   1.356  0.2408 -0.1021 -0.2804
  674MOL0     C90889   0.003   9.488   1.365 -1.1208  0.3119 -0.7244
  674MOL0     O90890   0.012   9.559   1.253  0.8122  0.4675 -0.0055
  674MOL0     C90891   0.066   9.693   1.264  0.4571 -0.1085 -0.9727
  674MOL0     C90892   0.081   9.764   1.128 -0.3474 -0.0338 -0.1481
  674MOL0     C90893   0.193   9.861   1.132 -0.1771 -0.3880 -0.2170
  674MOL0     C90894   0.178   9.967   1.256  0.8171  0.8952 -0.4229
  674MOL0     C90895   0.066  10.076   1.213  0.2253  0.7369 -0.2958
  674MOL0     C90896   0.048  10.187   1.323 -0.6939  0.3624 -0.1697
  674MOL0     C90897   0.163  10.277   1.308  0.2516  0.7840 -0.3055
  674MOL0     C90898   0.128  10.410   1.374 -0.1027 -0.6352 -0.0392
  674MOL0    Cl90899   0.281  10.484   1.433 -0.6400 -0.0639 -0.0071
  674MOL0     C90900   0.087   9.489   1.473 -0.1907  1.0142 -0.4706
  674MOL0     C90901   0.075   9.396   1.580  0.3670 -0.3295 -0.3460
  674MOL0     O90902  -0.007   9.329   1.852 -0.0254 -0.3926  0.1437
  674MOL0     C90903   0.033   9.039   1.965  0.1315  0.2405 -0.4219
  674MOL0     C90904   0.000   8.962   2.078 -0.6985 -0.6855  0.8443
  674MOL0     N90905  -0.079   8.822   2.811  0.0454 -0.5552  0.3508
  674MOL0     N90906  -0.072   8.933   2.860 -0.6094 -0.4689 -0.9683
  674MOL0     C90907   0.075  10.264   2.570 -0.1110  0.0022 -0.7657
  674MOL0     C90908   0.162  10.340   2.489 -0.3957  0.5217 -0.2881
  674MOL0     C90909   0.381  10.488   2.115  1.2003 -0.1165 -0.3629
  674MOL0     C90910   0.498  10.478   2.195 -0.0518 -1.4144 -0.0391
  674MOL0     C90911   0.610  10.552   2.157 -0.7760  0.7938  1.1266
  674MOL0     C90912   0.620  10.624   2.042  0.5844 -0.3539  0.8706
  674MOL0     O90913   0.747  10.673   2.016 -0.2395 -0.4428  0.1603
  674MOL0     C90914   0.765  10.761   1.903  0.0336  0.5304 -0.5892
  674MOL0     C90915   0.916  10.773   1.875 -0.2412 -0.5903  0.0077
  674MOL0     C90916   0.939  10.801   1.725  0.2432 -0.0212 -0.2032
  674MOL0     C90917   0.912  10.945   1.683 -0.3266 -0.1718  1.6413
  674MOL0     C90918   1.028  11.032   1.716 -0.7597 -0.4926  0.6095
  674MOL0     C90919   1.123  11.100   1.755 -0.6604  0.5295  0.3430
  674MOL0     C90920   0.503  10.642   1.963 -0.3295  1.0755  0.1200
  674MOL0     C90921   0.381  10.568   1.995 -0.8464 -0.2077 -0.1404
  674MOL0     C90922   0.254  10.613   1.932 -0.2251 -0.1036 -0.6694
  674MOL0     H90923   0.149  10.138   2.213  2.6328  0.1888 -0.3602
  674MOL0     H90924  -0.005  10.016   2.366 -0.0653 -0.8222  0.6257
  674MOL0     H90925  -0.136   9.900   2.526  0.1715 -1.8523 -0.1536
  674MOL0     H90926   0.027   9.879   2.591  0.9975  2.4282  2.0043
  674MOL0     H90927  -0.222   9.941   2.761  0.2868  2.0592 -0.3943
  674MOL0     H90928  -0.064   9.927   2.827  0.6343  1.2807 -1.8656
  674MOL0     H90929  -0.206   9.699   2.658 -1.2595  0.5718  0.1491
  674MOL0     H90930  -0.247   9.704   2.830  2.5739 -2.5459  1.4095
  674MOL0     H90931   0.028   9.650   2.725  0.5547 -1.3155  0.5553
  674MOL0     H90932  -0.018   9.658   2.897 -1.7894  1.8600  0.5073
  674MOL0     H90933  -0.185   9.487   2.854 -1.2952 -1.8812 -3.3204
  674MOL0     H90934  -0.123   9.457   2.698 -2.5040 -0.4567  1.0660
  674MOL0     H90935   0.128   9.413   2.805 -0.3271  0.1297 -2.5366
  674MOL0     H90936   0.041   9.383   2.951 -1.2580 -1.7102  1.3442
  674MOL0     H90937   0.019   9.239   2.685  0.4470 -0.2221  0.8579
  674MOL0     H90938  -0.117   9.223   2.791 -1.3329  1.3158 -3.3987
  674MOL0     H90939   0.179   9.138   2.838  1.9042 -0.7760  8.2782
  674MOL0     H90940   0.061   9.143   2.959 -0.0061  2.1900  1.0124
  674MOL0     H90941   0.138   8.974   2.619 -4.2054  1.5330 -1.9297
  674MOL0     H90942   0.142   8.688   2.619  0.2775  0.0097 -2.5646
  674MOL0     H90943   0.008   8.604   2.686 -1.0384  0.0314 -0.2841
  674MOL0     H90944  -0.012   8.582   2.466 -0.5904 -0.6824  2.7884
  674MOL0     H90945  -0.153   8.672   2.519 -0.0272 -0.3168  3.5752
  674MOL0     H90946   0.098   8.766   2.361  1.6355  4.1358  0.7947
  674MOL0     H90947  -0.003   8.883   2.440  0.3962 -0.6318 -0.3996
  674MOL0     H90948  -0.183   8.700   2.294 -0.0151 -1.3021 -2.6130
  674MOL0     H90949  -0.041   8.731   2.186  1.9163 -0.2304  1.6152
  674MOL0     H90950  -0.327   9.031   2.112  0.2097  0.8360  0.6610
  674MOL0     H90951  -0.266   9.188   1.918  0.7438  0.2645 -0.2944
  674MOL0     H90952  -0.177   9.213   1.459  1.3264 -2.3636  1.2636
  674MOL0     H90953  -0.136   9.357   1.262  0.2102 -0.6190 -0.1663
  674MOL0     H90954  -0.013   9.752   1.311  0.1110 -0.4246 -1.1486
  674MOL0     H90955   0.157   9.701   1.324 -0.1979  0.1701 -0.0083
  674MOL0     H90956   0.111   9.684   1.059  2.8629  1.9311 -1.2904
  674MOL0     H90957  -0.017   9.795   1.090  1.0243  0.3693 -3.8476
  674MOL0     H90958   0.287   9.806   1.123 -0.8679 -1.4738 -1.1096
  674MOL0     H90959   0.198   9.917   1.037  0.9493 -2.7339 -1.6316
  674MOL0     H90960   0.270  10.025   1.256  0.3131  1.7257  0.7573
  674MOL0     H90961   0.158   9.924   1.354  0.0817 -2.3184 -1.8332
  674MOL0     H90962  -0.026  10.018   1.203 -1.3396  2.5117  2.5995
  674MOL0     H90963   0.096  10.124   1.120 -0.1137  0.2853 -0.6425
  674MOL0     H90964  -0.044  10.242   1.302 -0.0380  1.1889 -0.9827
  674MOL0     H90965   0.045  10.157   1.428 -3.2880  1.6713  0.2043
  674MOL0     H90966   0.185  10.295   1.202 -1.7190  0.3988 -0.8103
  674MOL0     H90967   0.251  10.230   1.352 -0.9983 -1.5104 -0.1519
  674MOL0     H90968   0.089  10.465   1.287  0.4991 -0.3093 -0.1102
  674MOL0     H90969   0.054  10.407   1.454 -3.5944  1.6948 -2.8419
  674MOL0     H90970   0.171   9.559   1.471  1.4086 -0.8046  0.1373
  674MOL0     H90971   0.139   9.414   1.666  0.7984  1.3775 -0.9801
  674MOL0     H90972   0.131   9.025   1.921 -0.1426 -2.5713 -0.2847
  674MOL0     H90973   0.064   8.881   2.114  2.4274  0.1508 -2.2390
  674MOL0     H90974   0.044  10.299   2.668  1.3453  0.5662 -0.4861
  674MOL0     H90975   0.207  10.431   2.528 -0.8461  0.4358  0.4479
  674MOL0     H90976   0.505  10.438   2.296  0.1087 -0.9598  0.1329
  674MOL0     H90977   0.695  10.537   2.223  1.1236  3.8164 -0.4220
  674MOL0     H90978   0.727  10.863   1.919 -1.6013  0.5399 -3.7683
  674MOL0     H90979   0.720  10.717   1.813 -0.3063  0.4146 -0.3647
  674MOL0     H90980   0.966  10.681   1.906  0.5292  0.1519  1.0759
  674MOL0     H90981   0.966  10.849   1.936  1.9427  0.5173 -2.9495
  674MOL0     H90982   0.858  10.753   1.670  0.2718  0.3744 -0.5959
  674MOL0     H90983   1.038  10.763   1.698  0.3941  2.1934 -3.2670
  674MOL0     H90984   0.907  10.939   1.573 -0.6209  0.9652  1.5798
  674MOL0     H90985   0.816  10.982   1.720 -1.7465  2.5601 -3.7421
  674MOL0     H90986   1.208  11.155   1.791 -1.6755  0.6333  2.7904
  674MOL0     H90987   0.516  10.707   1.876 -0.9017  1.3670  0.2465
  674MOL0     H90988   0.191  10.534   1.890  1.2926 -2.0284  0.4743
  674MOL0     H90989   0.190  10.657   2.010  0.9841 -0.1446  0.3923
  674MOL0     H90990   0.267  10.697   1.864 -3.1799  0.0365 -1.1935
  675MOL0     O90991   5.254   8.809   5.880  0.5508  0.8263  0.2397
  675MOL0     C90992   5.227   8.747   5.773 -0.8600  0.1964 -0.2495
  675MOL0     O90993   5.103   8.708   5.735 -0.5500  0.1416  0.1372
  675MOL0     C90994   4.981   8.738   5.791  0.2225  0.6646 -0.4925
  675MOL0     C90995   4.866   8.745   5.708 -0.0838 -0.5488 -0.3779
  675MOL0     C90996   4.743   8.777   5.766 -0.6073 -0.6596 -0.1579
  675MOL0     C90997   4.728   8.782   5.908 -0.8624  0.1826 -0.7686
  675MOL0     O90998   4.601   8.802   5.951 -0.4837 -0.3866 -0.6257
  675MOL0     C90999   4.573   8.806   6.095 -0.1851  0.8690 -0.0352
  675MOL0     C91000   4.438   8.871   6.129 -0.5000 -0.1791 -0.3922
  675MOL0     C91001   4.400   8.989   6.041 -0.4767 -0.4578 -0.4904
  675MOL0     C91002   4.269   9.045   6.090  0.3816  0.7781 -0.6655
  675MOL0     C91003   4.273   9.202   6.052 -0.1718 -0.5483 -0.4238
  675MOL0     C91004   4.139   9.262   6.091 -0.0212 -0.0503 -0.4322
  675MOL0     C91005   4.137   9.407   6.137 -0.2077  1.0678 -0.1625
  675MOL0     C91006   4.202   9.503   6.040 -0.7479  0.2507 -0.8569
  675MOL0     N91007   4.316   9.572   6.100 -0.1738 -0.5193  0.7353
  675MOL0     C91008   4.415   9.629   6.020  0.0861 -0.0774 -0.0485
  675MOL0     C91009   4.502   9.690   6.106  0.2199  0.0932  0.0907
  675MOL0     C91010   4.635   9.747   6.076  0.3625 -0.3147  0.0146
  675MOL0     C91011   4.752   9.652   6.113  0.9313  0.7038 -0.8791
  675MOL0     C91012   4.887   9.728   6.132 -0.4686 -0.2881 -0.0185
  675MOL0     C91013   5.005   9.649   6.179 -0.5831  0.5682  0.7520
  675MOL0     O91014   4.986   9.627   6.316  0.2658 -0.6104  0.4930
  675MOL0     C91015   5.056   9.523   6.374  0.5585  0.3444 -0.4821
  675MOL0     C91016   5.158   9.449   6.314  0.7558 -0.1204 -0.0012
  675MOL0     C91017   5.221   9.338   6.380  0.1068  0.3731 -0.8600
  675MOL0     C91018   5.190   9.306   6.510  0.0722  0.4325  0.3500
  675MOL0     C91019   5.253   9.192   6.584  0.2810  0.2674  0.8993
  675MOL0     O91020   5.195   9.170   6.707  0.3090  1.0934  0.3394
  675MOL0     C91021   5.266   9.154   6.823 -0.2152 -1.2032 -0.4268
  675MOL0     C91022   5.237   9.231   6.934  0.4080  0.8412 -0.1525
  675MOL0     C91023   5.308   9.209   7.055  0.6275 -0.1133 -0.4769
  675MOL0     C91024   5.407   9.109   7.063  0.4328 -0.1589  0.3709
  675MOL0     O91025   5.469   9.086   7.182  0.1555 -0.4903 -0.6206
  675MOL0     C91026   5.466   8.947   7.230  0.6937  0.6063  0.5857
  675MOL0     C91027   5.533   8.912   7.356 -0.2939 -1.1721  0.0547
  675MOL0     C91028   5.550   8.765   7.397  0.9186  0.2537  0.7672
  675MOL0     C91029   5.641   8.680   7.307  0.4217  0.8745  0.1677
  675MOL0     C91030   5.700   8.552   7.374  0.3482 -0.1371  0.5489
  675MOL0     C91031   5.814   8.598   7.470 -0.1880  0.7468  0.1919
  675MOL0     C91032   5.860   8.487   7.560  0.1560  0.0490  1.2336
  675MOL0     C91033   5.955   8.549   7.663 -0.1362  0.6280  0.6245
  675MOL0    Cl91034   5.901   8.692   7.750 -0.0026  0.4781  0.7219
  675MOL0     C91035   5.444   9.040   6.946 -0.6858 -0.4966 -0.1547
  675MOL0     C91036   5.366   9.058   6.829  0.4015  0.6462 -0.3697
  675MOL0     O91037   5.359   9.150   6.541 -0.1552  0.2977  0.2286
  675MOL0     C91038   5.086   9.381   6.572 -0.4050  0.2363  0.2349
  675MOL0     C91039   5.023   9.487   6.501  0.3034  0.1206 -0.3171
  675MOL0     N91040   4.452   9.672   6.235  0.0628 -0.2593 -0.2479
  675MOL0     N91041   4.344   9.599   6.230  0.1893  0.0125  0.3152
  675MOL0     C91042   4.841   8.777   5.989  0.4526  0.2474 -0.1351
  675MOL0     C91043   4.963   8.759   5.931  0.1922 -0.4933  0.4106
  675MOL0     C91044   5.342   8.708   5.686  0.4330 -0.3012  0.5277
  675MOL0     C91045   5.469   8.709   5.745  0.8364  0.5786 -0.9225
  675MOL0     C91046   5.582   8.676   5.673 -0.1858  1.1047 -0.3383
  675MOL0     C91047   5.577   8.648   5.538  0.8004  0.3100  0.9696
  675MOL0     O91048   5.680   8.617   5.456  0.4952  0.1207  0.2450
  675MOL0     C91049   5.806   8.581   5.515 -0.0522  0.0656 -0.0887
  675MOL0     C91050   5.877   8.493   5.413  0.6069 -0.8204 -0.1770
  675MOL0     C91051   6.025   8.462   5.442 -0.2134  0.5794  0.3260
  675MOL0     C91052   6.035   8.351   5.539 -0.6060 -0.5005 -0.7087
  675MOL0     C91053   6.179   8.317   5.560 -0.4431 -0.8298 -0.4437
  675MOL0     C91054   6.296   8.295   5.559 -0.0625 -0.3353 -1.3688
  675MOL0     C91055   5.452   8.646   5.481  0.0821  0.6692  0.5175
  675MOL0     C91056   5.335   8.680   5.550 -0.4169 -0.6957  0.4435
  675MOL0     C91057   5.202   8.698   5.468 -0.4900  0.2302  0.0116
  675MOL0     H91058   4.873   8.742   5.600  1.9193 -2.2252 -0.2488
  675MOL0     H91059   4.659   8.798   5.700  0.5608  0.9928 -1.2143
  675MOL0     H91060   4.571   8.708   6.144  1.9451 -1.4444 -4.0357
  675MOL0     H91061   4.653   8.859   6.148 -0.4860 -0.4293  1.7821
  675MOL0     H91062   4.441   8.907   6.232  1.8576  3.6947 -1.6097
  675MOL0     H91063   4.364   8.791   6.117  0.9478 -1.4442 -1.3996
  675MOL0     H91064   4.393   8.960   5.936 -3.7153  3.7085 -1.7065
  675MOL0     H91065   4.475   9.067   6.056 -0.3728 -0.6690  0.1423
  675MOL0     H91066   4.193   8.976   6.052  3.7974 -2.5312 -2.0445
  675MOL0     H91067   4.276   9.035   6.199 -1.5749 -1.5665 -0.6837
  675MOL0     H91068   4.360   9.255   6.091  0.0201  1.4266 -3.2287
  675MOL0     H91069   4.274   9.215   5.944  1.5900  0.0323 -0.3549
  675MOL0     H91070   4.062   9.253   6.014 -0.7096 -0.8975  0.3351
  675MOL0     H91071   4.097   9.198   6.169 -2.1069 -1.0364 -2.2382
  675MOL0     H91072   4.190   9.411   6.232  0.0418  0.4482 -0.2722
  675MOL0     H91073   4.033   9.437   6.154 -0.6532 -0.7153  0.5085
  675MOL0     H91074   4.229   9.442   5.953  1.4111 -0.6932  0.4051
  675MOL0     H91075   4.128   9.577   6.007 -1.3614 -1.4990 -3.8505
  675MOL0     H91076   4.427   9.627   5.912  0.6164  0.0567  0.0042
  675MOL0     H91077   4.644   9.761   5.967  0.3143  0.6188  0.1206
  675MOL0     H91078   4.652   9.843   6.126  2.7839 -0.7615  0.1299
  675MOL0     H91079   4.734   9.606   6.211 -1.5073 -0.8126 -1.9513
  675MOL0     H91080   4.759   9.577   6.035 -3.9433 -0.6996 -0.3261
  675MOL0     H91081   4.880   9.815   6.197 -1.0209  0.8240 -1.5128
  675MOL0     H91082   4.910   9.756   6.029 -1.9783 -0.0994 -0.3313
  675MOL0     H91083   5.096   9.709   6.170  0.3491 -1.0514 -2.0641
  675MOL0     H91084   5.022   9.553   6.128 -2.4652 -1.2836  3.3299
  675MOL0     H91085   5.190   9.487   6.217 -0.1256 -0.2074 -0.3358
  675MOL0     H91086   5.294   9.283   6.322 -2.0632 -2.1614 -1.3696
  675MOL0     H91087   5.169   9.315   6.938  0.7570  1.0877  1.1903
  675MOL0     H91088   5.281   9.255   7.149  0.6518 -1.2996  0.1232
  675MOL0     H91089   5.362   8.913   7.241  1.3496 -1.2274  1.6996
  675MOL0     H91090   5.504   8.878   7.154 -2.0587 -1.2172  0.6944
  675MOL0     H91091   5.632   8.957   7.369 -0.1163 -2.1027  2.3501
  675MOL0     H91092   5.473   8.962   7.432  0.9871 -1.8997  1.6157
  675MOL0     H91093   5.591   8.759   7.499 -2.1561  1.5511  2.2163
  675MOL0     H91094   5.447   8.728   7.403  1.6454 -2.0885 -0.1481
  675MOL0     H91095   5.719   8.749   7.275  0.3468  0.9763  0.2048
  675MOL0     H91096   5.596   8.644   7.214  1.2600 -0.7079  0.3432
  675MOL0     H91097   5.751   8.497   7.294  1.1057  1.9139 -0.4418
  675MOL0     H91098   5.618   8.498   7.423 -1.4408  0.4012 -1.7102
  675MOL0     H91099   5.898   8.649   7.423 -0.0155  0.0169 -0.2981
  675MOL0     H91100   5.778   8.679   7.534  2.2213  3.3860 -1.5705
  675MOL0     H91101   5.901   8.400   7.507  3.5675  1.5656  1.1389
  675MOL0     H91102   5.769   8.458   7.613 -0.3977  2.0015  1.4109
  675MOL0     H91103   5.962   8.467   7.735  1.8321 -1.5148 -1.8513
  675MOL0     H91104   6.056   8.571   7.627  1.8088 -3.4375  2.8669
  675MOL0     H91105   5.538   8.987   6.937  1.8957  3.6160  0.1393
  675MOL0     H91106   5.397   8.999   6.743 -0.0443  2.3700 -1.7631
  675MOL0     H91107   5.059   9.364   6.676  1.3619  0.3734  0.7467
  675MOL0     H91108   4.943   9.536   6.555  0.8848  1.6460 -0.7994
  675MOL0     H91109   4.842   8.777   6.097  1.3818 -1.8996 -0.1070
  675MOL0     H91110   5.046   8.758   6.001  0.4262 -1.3082  0.1363
  675MOL0     H91111   5.493   8.751   5.842 -1.3575  0.4810 -0.2846
  675MOL0     H91112   5.679   8.671   5.722  0.7522  3.3673 -1.7868
  675MOL0     H91113   5.811   8.524   5.609  0.9726 -0.4055 -0.4046
  675MOL0     H91114   5.868   8.667   5.543 -0.2427 -0.0200  0.6296
  675MOL0     H91115   5.878   8.550   5.319  3.8192 -2.7658 -1.4880
  675MOL0     H91116   5.824   8.399   5.394 -0.4430 -0.4477  0.7773
  675MOL0     H91117   6.075   8.552   5.479  1.1976 -0.2109  0.4380
  675MOL0     H91118   6.087   8.425   5.360  0.5205 -0.2349  1.2253
  675MOL0     H91119   5.980   8.376   5.630  0.2899  0.0900 -0.3121
  675MOL0     H91120   5.978   8.265   5.503 -1.4570  1.0090 -3.1910
  675MOL0     H91121   6.395   8.255   5.552 -0.2820 -1.6055  1.3764
  675MOL0     H91122   5.447   8.642   5.373  0.5209  1.2705  0.4703
  675MOL0     H91123   5.152   8.601   5.462  0.1239 -0.1082  0.2148
  675MOL0     H91124   5.144   8.777   5.516  0.4589 -1.4660  4.4639
  675MOL0     H91125   5.229   8.728   5.366  2.5565  3.1758  1.4621
  676MOL0     O91126   0.100   7.488   7.465 -0.2395 -0.9056 -0.3756
  676MOL0     C91127   0.157   7.449   7.364  0.2283  0.5598  0.3982
  676MOL0     O91128   0.140   7.507   7.240 -0.1781  0.2861 -0.1997
  676MOL0     C91129   0.059   7.611   7.206  0.5410  0.5216  0.1284
  676MOL0     C91130   0.067   7.647   7.067  0.0319  0.4646 -0.0092
  676MOL0     C91131  -0.007   7.755   7.010  0.6159 -0.4732  0.2975
  676MOL0     C91132  -0.092   7.822   7.096  0.1838 -0.4010 -0.2504
  676MOL0     O91133  -0.169   7.913   7.031 -0.4104  0.8779 -0.5612
  676MOL0     C91134  -0.198   8.037   7.099  0.0937  0.2874  0.1820
  676MOL0     C91135  -0.323   8.089   7.041  0.2714  0.3483  0.2328
  676MOL0     C91136  -0.306   8.142   6.894  0.6451 -0.6339 -0.1524
  676MOL0     C91137  -0.433   8.218   6.852 -0.3672  0.8086  0.2240
  676MOL0     C91138  -0.401   8.287   6.712  0.3929  0.4674  0.0142
  676MOL0     C91139  -0.511   8.368   6.655  0.4622  0.6087 -0.2679
  676MOL0     C91140  -0.632   8.283   6.618 -0.0985 -0.5773  0.3104
  676MOL0     C91141  -0.759   8.379   6.599 -0.3186  0.3695  0.3788
  676MOL0     N91142  -0.840   8.386   6.728 -1.1556 -0.5901 -0.1917
  676MOL0     C91143  -0.931   8.306   6.773 -0.2446 -1.2070  0.2942
  676MOL0     C91144  -1.004   8.368   6.877  0.3816 -0.0944  0.1279
  676MOL0     C91145  -1.142   8.331   6.938 -0.8623  0.0343  0.7523
  676MOL0     C91146  -1.205   8.440   7.029  1.0249 -0.5885  0.2006
  676MOL0     C91147  -1.265   8.543   6.930  0.1632  0.3612  0.4196
  676MOL0     C91148  -1.345   8.647   7.003  0.9795 -0.2619 -0.5408
  676MOL0     O91149  -1.453   8.595   7.088 -0.1411 -0.3435 -0.2424
  676MOL0     C91150  -1.425   8.623   7.219 -0.3254  0.5191 -0.4169
  676MOL0     C91151  -1.422   8.747   7.273  0.4736  0.0819 -0.7755
  676MOL0     C91152  -1.394   8.777   7.410 -0.4215 -0.4326 -0.4062
  676MOL0     C91153  -1.344   8.672   7.484  0.0820  0.6139 -1.0064
  676MOL0     C91154  -1.308   8.689   7.622  0.2985 -0.1546 -0.7900
  676MOL0     O91155  -1.288   8.574   7.699  0.3949  0.8220 -0.0830
  676MOL0     C91156  -1.223   8.566   7.817  0.3465 -0.0138 -0.9526
  676MOL0     C91157  -1.208   8.662   7.916  0.0066 -0.4151 -0.6346
  676MOL0     C91158  -1.129   8.651   8.036 -0.0215  0.2523  0.0174
  676MOL0     C91159  -1.063   8.532   8.059  1.0358  0.8656 -0.0956
  676MOL0     O91160  -0.978   8.519   8.168  0.9294 -0.2905  0.3033
  676MOL0     C91161  -0.852   8.448   8.148  0.2010  0.6837  0.4758
  676MOL0     C91162  -0.754   8.447   8.265 -0.1257  0.6148  0.4067
  676MOL0     C91163  -0.704   8.595   8.288  0.1076 -0.6400  0.1461
  676MOL0     C91164  -0.668   8.617   8.434 -0.3019 -0.2007  0.4551
  676MOL0     C91165  -0.610   8.762   8.452  0.2987  0.0214  0.0972
  676MOL0     C91166  -0.570   8.784   8.599  0.0719  0.0907  0.3284
  676MOL0     C91167  -0.541   8.933   8.641 -0.4273 -0.0871  0.1802
  676MOL0     C91168  -0.441   9.006   8.560 -0.2989 -0.6500 -0.7366
  676MOL0    Cl91169  -0.295   8.903   8.552 -0.4376 -0.1321 -0.4372
  676MOL0     C91170  -1.067   8.429   7.958 -0.0707 -0.0267 -0.4314
  676MOL0     C91171  -1.153   8.441   7.842 -0.4605 -0.5741 -0.3747
  676MOL0     O91172  -1.292   8.810   7.666  0.4273  1.1480 -0.2781
  676MOL0     C91173  -1.339   8.542   7.427 -0.3700  0.3461 -0.8147
  676MOL0     C91174  -1.397   8.517   7.303  0.3456 -0.2668  0.8798
  676MOL0     N91175  -0.924   8.474   6.907  0.4393 -0.0307  0.4711
  676MOL0     N91176  -0.829   8.480   6.824 -0.2985 -0.3475  0.4809
  676MOL0     C91177  -0.112   7.782   7.228  0.1350 -0.5609 -0.0410
  676MOL0     C91178  -0.042   7.678   7.285 -0.1511  0.4139 -0.1120
  676MOL0     C91179   0.224   7.319   7.353 -0.3311  0.3886  0.3275
  676MOL0     C91180   0.217   7.252   7.233  0.6709  0.7580  0.7077
  676MOL0     C91181   0.286   7.134   7.217 -0.0983  0.1463  0.5283
  676MOL0     C91182   0.374   7.076   7.313  0.0024  0.2950  0.4319
  676MOL0     O91183   0.452   6.955   7.307 -0.5039 -0.1128  0.5557
  676MOL0     C91184   0.521   6.937   7.181  0.8813 -0.2484  0.0971
  676MOL0     C91185   0.646   7.023   7.194 -0.8159 -0.1425  1.1594
  676MOL0     C91186   0.767   6.957   7.258 -0.1094  0.3835 -0.0886
  676MOL0     C91187   0.863   7.067   7.305 -0.1858  0.3002 -0.9537
  676MOL0     C91188   0.932   7.125   7.189  0.8116  0.6166 -0.0676
  676MOL0     C91189   0.975   7.160   7.082  0.5169 -0.5078  0.0479
  676MOL0     C91190   0.391   7.154   7.427 -0.8353 -0.1487  0.0382
  676MOL0     C91191   0.315   7.269   7.449 -1.2070  0.5618  0.4464
  676MOL0     C91192   0.334   7.330   7.581 -0.2141  0.3741  0.8370
  676MOL0     H91193   0.136   7.593   7.003 -0.1598  0.5929 -0.3319
  676MOL0     H91194   0.015   7.782   6.907 -0.4712  1.1366  0.4546
  676MOL0     H91195  -0.220   8.031   7.206  1.7014  0.0883  0.5225
  676MOL0     H91196  -0.114   8.107   7.095  2.0041 -1.9395 -2.9433
  676MOL0     H91197  -0.362   8.174   7.098  1.7609  1.5857 -0.5284
  676MOL0     H91198  -0.394   8.006   7.051  1.5001 -0.7506  0.1530
  676MOL0     H91199  -0.282   8.049   6.843  2.2223  0.1174 -0.8243
  676MOL0     H91200  -0.217   8.204   6.879  2.4806 -3.2928 -0.8352
  676MOL0     H91201  -0.515   8.146   6.847 -1.4596  2.1000 -1.7501
  676MOL0     H91202  -0.466   8.295   6.922 -3.4946 -1.8385  1.9216
  676MOL0     H91203  -0.315   8.356   6.711 -0.2935  1.4036 -2.2738
  676MOL0     H91204  -0.367   8.209   6.643  1.8285 -0.6048  1.8498
  676MOL0     H91205  -0.548   8.443   6.725  1.8756 -1.9651  3.4979
  676MOL0     H91206  -0.478   8.433   6.573 -0.9405  0.7267 -0.7772
  676MOL0     H91207  -0.652   8.213   6.699 -4.1092  0.8273  0.7358
  676MOL0     H91208  -0.628   8.235   6.520  0.1443 -0.6402  0.3510
  676MOL0     H91209  -0.723   8.479   6.573  0.7716 -0.7307 -2.9654
  676MOL0     H91210  -0.811   8.345   6.509  1.3214 -1.1384 -0.0761
  676MOL0     H91211  -0.960   8.209   6.734 -2.2307 -0.8486  0.7926
  676MOL0     H91212  -1.208   8.297   6.857  1.2000 -1.2185 -0.4963
  676MOL0     H91213  -1.132   8.242   7.001 -4.3842 -1.4513 -0.4994
  676MOL0     H91214  -1.282   8.395   7.092 -0.2872  1.9703  0.5494
  676MOL0     H91215  -1.128   8.489   7.090 -1.7959  1.0137  2.7827
  676MOL0     H91216  -1.335   8.495   6.861  0.2319  3.8420 -2.4128
  676MOL0     H91217  -1.195   8.586   6.857 -1.7699  2.7276 -0.2222
  676MOL0     H91218  -1.398   8.713   6.934 -3.2114 -1.2717  1.4122
  676MOL0     H91219  -1.280   8.719   7.055  1.4299 -0.8688 -0.2507
  676MOL0     H91220  -1.452   8.828   7.207  0.8535 -0.7642 -2.0195
  676MOL0     H91221  -1.414   8.870   7.461  0.0010 -0.6098  0.0893
  676MOL0     H91222  -1.256   8.758   7.900  0.1739 -0.1368  0.4486
  676MOL0     H91223  -1.107   8.738   8.097  1.5232  1.3137 -1.9256
  676MOL0     H91224  -0.871   8.340   8.141  3.0489  0.0872  0.7023
  676MOL0     H91225  -0.800   8.489   8.061 -0.9580  0.0967 -0.5174
  676MOL0     H91226  -0.792   8.418   8.364 -0.0848  0.4210  0.3665
  676MOL0     H91227  -0.675   8.377   8.235 -2.3487 -1.3896 -1.0508
  676MOL0     H91228  -0.607   8.590   8.236  0.4489 -2.8509  0.9086
  676MOL0     H91229  -0.766   8.676   8.249  3.2299  1.4618 -0.8131
  676MOL0     H91230  -0.595   8.543   8.467  0.1050 -0.5493 -1.1487
  676MOL0     H91231  -0.742   8.591   8.510 -0.4434 -3.4235 -0.6244
  676MOL0     H91232  -0.692   8.830   8.428 -3.4249 -4.0463  0.0653
  676MOL0     H91233  -0.522   8.784   8.392  2.9596 -0.5695  3.4831
  676MOL0     H91234  -0.657   8.752   8.658 -0.6620 -1.1108 -1.3281
  676MOL0     H91235  -0.479   8.730   8.626  0.4221  1.6250  2.4579
  676MOL0     H91236  -0.519   8.939   8.748 -2.6698 -0.0483  0.6803
  676MOL0     H91237  -0.633   8.991   8.627 -0.3116 -0.1414 -0.9361
  676MOL0     H91238  -0.464   9.027   8.455 -3.1850 -3.6058 -0.8589
  676MOL0     H91239  -0.433   9.103   8.611 -3.6580 -0.7317  0.1736
  676MOL0     H91240  -1.020   8.334   7.978 -1.8671 -1.2994 -1.9216
  676MOL0     H91241  -1.155   8.355   7.777  1.8418 -1.6223  0.8203
  676MOL0     H91242  -1.304   8.457   7.485  0.2705  1.1331 -0.0098
  676MOL0     H91243  -1.398   8.414   7.268 -0.3339 -0.1909  0.6579
  676MOL0     H91244  -0.194   7.829   7.281 -0.3902  0.9342 -2.0488
  676MOL0     H91245  -0.058   7.661   7.391 -2.3844  4.0958  0.3317
  676MOL0     H91246   0.166   7.292   7.146 -0.9556 -1.3769  0.5798
  676MOL0     H91247   0.274   7.070   7.130 -2.6675 -1.5691  2.0177
  676MOL0     H91248   0.458   6.975   7.100  1.3462 -1.9082 -1.0779
  676MOL0     H91249   0.550   6.835   7.156 -0.2892 -0.5766  0.0195
  676MOL0     H91250   0.619   7.105   7.261 -3.0748 -2.3394  3.1547
  676MOL0     H91251   0.671   7.058   7.094  0.1432 -1.9296  0.7149
  676MOL0     H91252   0.810   6.888   7.185 -1.9969  0.6642 -1.5551
  676MOL0     H91253   0.726   6.909   7.347  1.5491 -2.2864 -0.6348
  676MOL0     H91254   0.808   7.142   7.363 -1.7492 -1.8284  0.4465
  676MOL0     H91255   0.937   7.024   7.373 -2.6355 -3.4328 -0.3841
  676MOL0     H91256   1.031   7.199   6.999 -1.6697 -1.9770 -2.2647
  676MOL0     H91257   0.447   7.116   7.512 -2.4839  2.7335  2.6047
  676MOL0     H91258   0.334   7.440   7.576 -0.5574  0.5594  3.3405
  676MOL0     H91259   0.258   7.299   7.654 -0.5577  1.7162  1.0942
  676MOL0     H91260   0.427   7.298   7.628 -0.2269 -1.3837 -0.2728
  677MOL0     O91261   8.141   6.601   5.750 -0.3407 -0.3238 -0.1062
  677MOL0     C91262   8.176   6.712   5.714  0.3518  0.2029  0.2293
  677MOL0     O91263   8.091   6.824   5.710  0.3040 -0.0581  0.0631
  677MOL0     C91264   7.956   6.838   5.749 -0.6545  0.2554  0.0486
  677MOL0     C91265   7.899   6.961   5.712  1.6325 -0.3822 -0.0458
  677MOL0     C91266   7.777   7.004   5.769 -0.3534 -0.1019 -0.8716
  677MOL0     C91267   7.703   6.921   5.858 -0.7475  0.8512  1.2089
  677MOL0     O91268   7.597   6.978   5.919 -0.3569 -0.0759  0.7072
  677MOL0     C91269   7.521   6.898   6.010  0.2212  0.9967 -0.2294
  677MOL0     C91270   7.371   6.929   5.993 -0.0280 -1.2035  0.0713
  677MOL0     C91271   7.343   7.074   6.038 -0.0907  0.5091 -0.0395
  677MOL0     C91272   7.195   7.098   6.017  0.1937  0.2795  0.0455
  677MOL0     C91273   7.150   7.242   6.031 -0.2697 -0.1754  0.5679
  677MOL0     C91274   7.146   7.292   6.176 -0.0628 -0.4426  0.3176
  677MOL0     C91275   7.105   7.439   6.186 -0.5008 -0.4631  0.0048
  677MOL0     C91276   7.139   7.493   6.318  0.2886  1.5451  0.2427
  677MOL0     N91277   7.101   7.626   6.360  0.3164 -0.3688 -0.3219
  677MOL0     C91278   7.022   7.701   6.277 -0.6652 -1.0647  0.0455
  677MOL0     C91279   7.033   7.821   6.343  0.9229 -0.5290  1.5834
  677MOL0     C91280   6.970   7.949   6.302 -0.2867 -0.5815 -0.9228
  677MOL0     C91281   6.817   7.945   6.302  0.5890  0.2556 -0.6331
  677MOL0     C91282   6.754   7.903   6.439  0.6310  1.0903  0.6493
  677MOL0     C91283   6.613   7.958   6.454 -0.0924 -0.7932  0.0648
  677MOL0     O91284   6.639   8.094   6.504  0.2982  1.1003 -0.5987
  677MOL0     C91285   6.552   8.190   6.474  0.5835 -0.1671  0.3622
  677MOL0     C91286   6.590   8.317   6.487 -0.4645 -0.7598 -0.2771
  677MOL0     C91287   6.513   8.430   6.466  0.8329 -0.2718  0.1949
  677MOL0     C91288   6.374   8.416   6.434 -0.6897  0.1438 -0.1193
  677MOL0     C91289   6.285   8.528   6.410  0.0426  0.0504  0.1005
  677MOL0     O91290   6.355   8.651   6.418  0.1172  0.2578 -0.4811
  677MOL0     C91291   6.282   8.762   6.406  0.3597  0.0316 -0.4064
  677MOL0     C91292   6.204   8.805   6.512 -0.6821 -0.2530  0.2691
  677MOL0     C91293   6.132   8.927   6.511  0.0909  1.0981  0.3898
  677MOL0     C91294   6.132   9.011   6.400 -0.3018  0.1966 -0.3523
  677MOL0     O91295   6.058   9.129   6.406  0.0759 -0.1050  0.6213
  677MOL0     C91296   6.080   9.219   6.304 -0.7794 -0.2280 -0.1230
  677MOL0     C91297   6.027   9.358   6.352 -0.2505  0.0846  0.2336
  677MOL0     C91298   6.033   9.387   6.501 -0.0034  0.2104 -0.3691
  677MOL0     C91299   6.031   9.531   6.550  0.5836 -0.9151 -0.1735
  677MOL0     C91300   6.156   9.607   6.518  0.1054  0.3929  0.4776
  677MOL0     C91301   6.139   9.753   6.557 -0.8078 -0.5741  0.4655
  677MOL0     C91302   6.272   9.818   6.547 -0.9691  0.6273  0.0984
  677MOL0     C91303   6.257   9.970   6.589 -0.4090  0.1762 -0.3957
  677MOL0    Cl91304   6.432  10.021   6.636  0.0634 -0.1513  0.0157
  677MOL0     C91305   6.227   8.974   6.303  0.0789  0.6571  0.0335
  677MOL0     C91306   6.295   8.850   6.299  1.1912 -0.0957  0.3302
  677MOL0     O91307   6.166   8.518   6.382  0.2526 -0.1763  0.1802
  677MOL0     C91308   6.334   8.286   6.419  0.0042  1.0301 -0.9491
  677MOL0     C91309   6.418   8.178   6.442 -0.0560  0.1516 -0.7776
  677MOL0     N91310   7.111   7.818   6.455 -0.9298 -0.8049 -0.3141
  677MOL0     N91311   7.158   7.700   6.458 -0.9726 -0.0111 -0.3205
  677MOL0     C91312   7.761   6.797   5.890 -0.5033 -0.7804 -0.2394
  677MOL0     C91313   7.886   6.755   5.839 -0.1073 -0.3381 -0.2428
  677MOL0     C91314   8.325   6.732   5.674  0.0547  1.0647 -0.0314
  677MOL0     C91315   8.363   6.867   5.641 -0.3224 -0.3475 -0.1242
  677MOL0     C91316   8.496   6.902   5.601 -0.4524  0.5016  0.5141
  677MOL0     C91317   8.595   6.798   5.605  0.5621 -0.2254 -1.1745
  677MOL0     O91318   8.725   6.808   5.559 -0.2612  0.6141  0.4725
  677MOL0     C91319   8.772   6.935   5.524  0.9393  0.2674  0.3102
  677MOL0     C91320   8.806   7.025   5.648  0.2323 -0.4235 -0.6029
  677MOL0     C91321   8.915   6.966   5.742 -0.3514 -0.1086 -0.0937
  677MOL0     C91322   8.918   7.035   5.881 -0.2550 -0.5486  0.0944
  677MOL0     C91323   9.021   6.966   5.959  0.7277  0.6031 -0.7737
  677MOL0     C91324   9.128   6.944   6.014  0.1021  0.4484  0.4055
  677MOL0     C91325   8.556   6.664   5.637 -0.7172 -0.5540 -0.1369
  677MOL0     C91326   8.431   6.638   5.687 -0.5894  0.2061 -1.0308
  677MOL0     C91327   8.409   6.496   5.744  1.0646  0.7182  0.5229
  677MOL0     H91328   7.943   7.030   5.641 -2.4812  1.0110 -1.5073
  677MOL0     H91329   7.742   7.106   5.754  0.1542  0.4423  1.3207
  677MOL0     H91330   7.534   6.790   6.002  2.1866  1.0464  1.6183
  677MOL0     H91331   7.537   6.926   6.114 -0.1608  5.2212 -1.1109
  677MOL0     H91332   7.306   6.853   6.039  1.6530 -1.8969  1.4470
  677MOL0     H91333   7.358   6.936   5.885  2.1316 -0.7860 -0.2058
  677MOL0     H91334   7.403   7.138   5.973  0.5888 -1.8349 -1.8866
  677MOL0     H91335   7.375   7.090   6.141  3.6860 -1.4569 -0.7170
  677MOL0     H91336   7.176   7.060   5.916  1.4022  0.4124 -0.2473
  677MOL0     H91337   7.134   7.034   6.082  0.0830 -1.9597 -2.0929
  677MOL0     H91338   7.223   7.304   5.979  1.4416 -0.8179  2.1069
  677MOL0     H91339   7.045   7.250   5.999 -0.6430  1.5753  2.0599
  677MOL0     H91340   7.077   7.227   6.230 -1.0127 -0.1263 -0.4931
  677MOL0     H91341   7.245   7.280   6.221  0.3238  1.2128 -0.0303
  677MOL0     H91342   7.000   7.443   6.159 -0.7243  0.9974  0.9420
  677MOL0     H91343   7.161   7.498   6.113 -0.7345  2.7954  2.2331
  677MOL0     H91344   7.089   7.419   6.381 -0.2640 -1.2553 -3.2279
  677MOL0     H91345   7.248   7.487   6.329  0.2525  1.0349  0.3440
  677MOL0     H91346   6.963   7.672   6.191 -1.6797 -1.2484  0.7788
  677MOL0     H91347   7.005   8.028   6.369 -0.6030 -0.0471 -1.3781
  677MOL0     H91348   6.997   7.978   6.200  3.5470 -0.2342  0.0605
  677MOL0     H91349   6.783   8.048   6.287  0.2135  0.4705  1.3989
  677MOL0     H91350   6.782   7.877   6.224 -1.7227 -2.0333  2.1411
  677MOL0     H91351   6.819   7.936   6.520  0.8014  1.5488  0.3325
  677MOL0     H91352   6.759   7.794   6.448 -2.4765  0.7261 -0.5605
  677MOL0     H91353   6.549   7.897   6.518  0.7355 -1.7190  0.0317
  677MOL0     H91354   6.565   7.981   6.358 -1.4340  2.1987  1.3169
  677MOL0     H91355   6.695   8.332   6.513  0.4657 -3.0026 -2.2915
  677MOL0     H91356   6.553   8.530   6.479 -1.9880  0.9409  0.3710
  677MOL0     H91357   6.208   8.747   6.603  1.5232 -1.5361 -0.5630
  677MOL0     H91358   6.064   8.958   6.589  2.2342  2.4322  1.8676
  677MOL0     H91359   6.185   9.244   6.291 -1.1460  2.6058  1.5504
  677MOL0     H91360   6.026   9.190   6.213 -0.7585  0.6066 -0.4037
  677MOL0     H91361   6.081   9.432   6.291  0.0008  0.7488  1.2355
  677MOL0     H91362   5.923   9.355   6.318 -0.1883  1.6878 -0.1539
  677MOL0     H91363   5.943   9.337   6.537  0.7165  0.4575  1.9326
  677MOL0     H91364   6.116   9.338   6.552  0.4949  0.3448 -1.0377
  677MOL0     H91365   6.035   9.525   6.659  0.7485  1.1204 -0.0330
  677MOL0     H91366   5.945   9.584   6.509  0.8809 -1.5702 -1.7450
  677MOL0     H91367   6.176   9.607   6.411  1.9967  1.5571  0.7742
  677MOL0     H91368   6.243   9.562   6.567 -0.4108 -1.5628 -0.3451
  677MOL0     H91369   6.078   9.804   6.482 -0.9474 -5.1798 -2.9776
  677MOL0     H91370   6.096   9.772   6.655 -1.2371  0.7838  0.0329
  677MOL0     H91371   6.317   9.806   6.448  1.2068  0.1802  1.0822
  677MOL0     H91372   6.345   9.770   6.613 -1.4580 -2.5685 -1.4860
  677MOL0     H91373   6.212  10.039   6.517 -2.7120 -2.0664 -1.2904
  677MOL0     H91374   6.190   9.975   6.675  0.3944  0.1036  0.2448
  677MOL0     H91375   6.234   9.043   6.220  0.0258 -0.8313 -1.2630
  677MOL0     H91376   6.365   8.828   6.220  3.3147  1.0401  1.8000
  677MOL0     H91377   6.239   8.276   6.366  1.8812 -1.0822 -4.2055
  677MOL0     H91378   6.372   8.080   6.429 -0.8881  0.7193 -2.3845
  677MOL0     H91379   7.705   6.730   5.954 -1.4224  0.8233  0.6997
  677MOL0     H91380   7.929   6.660   5.866  0.0972 -0.0008  0.6434
  677MOL0     H91381   8.291   6.947   5.633  1.6318  1.5391  0.1728
  677MOL0     H91382   8.514   7.005   5.570  3.7520 -0.1349  0.2147
  677MOL0     H91383   8.694   6.983   5.463  0.0587  2.4840  2.9601
  677MOL0     H91384   8.861   6.920   5.462 -0.7859 -0.4169 -2.1747
  677MOL0     H91385   8.712   7.035   5.703 -1.4607 -4.5283 -2.3447
  677MOL0     H91386   8.832   7.126   5.616  1.3882 -0.6894 -0.5491
  677MOL0     H91387   9.018   6.984   5.709  0.6785  1.1683  3.3705
  677MOL0     H91388   8.895   6.860   5.760  0.6293 -0.1925  0.6295
  677MOL0     H91389   8.949   7.139   5.873 -0.5875 -0.4751 -0.3284
  677MOL0     H91390   8.819   7.018   5.925 -0.0598 -1.6127  0.1415
  677MOL0     H91391   9.225   6.917   6.049 -0.1725  0.0109  0.8418
  677MOL0     H91392   8.638   6.594   5.626 -1.3037 -1.4349  0.8777
  677MOL0     H91393   8.394   6.483   5.852 -3.3575  0.6733  0.0730
  677MOL0     H91394   8.330   6.441   5.693  0.9988  1.6430 -0.3912
  677MOL0     H91395   8.502   6.442   5.724  0.8874  0.5839  0.0452
  678MOL0     O91396  10.223   4.179   5.010 -0.3506 -0.7802  0.0838
  678MOL0     C91397  10.345   4.145   5.025 -0.8672 -0.6017  0.7320
  678MOL0     O91398  10.426   4.203   5.119  0.3694  0.1047 -0.1080
  678MOL0     C91399  10.384   4.317   5.172 -0.7792  0.6243  0.7460
  678MOL0     C91400  10.455   4.439   5.144  0.1370  0.4508  0.2942
  678MOL0     C91401  10.433   4.553   5.222 -0.3591  0.6110 -0.8750
  678MOL0     C91402  10.331   4.552   5.314  0.5369 -0.0912 -0.7063
  678MOL0     O91403  10.308   4.675   5.369 -0.0901  0.4083 -0.5288
  678MOL0     C91404  10.184   4.714   5.427 -1.2701  0.1050  0.3727
  678MOL0     C91405  10.194   4.696   5.577 -0.2082  0.1799 -0.3764
  678MOL0     C91406  10.056   4.732   5.644 -0.1950  0.0439 -1.2697
  678MOL0     C91407  10.080   4.781   5.789 -0.3263 -1.4267 -0.7158
  678MOL0     C91408  10.123   4.929   5.812 -0.3439  0.6538  0.2499
  678MOL0     C91409  10.198   4.955   5.947  0.4683  0.2616 -0.3141
  678MOL0     C91410  10.334   4.898   5.942  0.2784  0.0123  0.3931
  678MOL0     C91411  10.401   4.917   6.077 -0.2187 -0.2229  0.2027
  678MOL0     N91412  10.540   4.872   6.079 -0.3600 -0.5077  0.2515
  678MOL0     C91413  10.641   4.940   6.124 -0.7323  0.6371 -0.5836
  678MOL0     C91414  10.746   4.857   6.129 -0.2430 -0.7309 -0.8277
  678MOL0     C91415  10.886   4.891   6.179  0.6959  0.2463  0.1577
  678MOL0     C91416  10.899   4.873   6.330  0.3254 -0.6761  0.1526
  678MOL0     C91417  10.917   4.730   6.377  2.2346 -0.6211  0.0920
  678MOL0     C91418  11.052   4.673   6.403 -0.1046  0.0246  0.3990
  678MOL0     O91419  11.030   4.539   6.436  0.0938  0.4784 -0.6405
  678MOL0     C91420  11.138   4.457   6.454  0.2367  0.1164  0.4108
  678MOL0     C91421  11.255   4.480   6.524 -0.7372  1.0142  0.0968
  678MOL0     C91422  11.361   4.394   6.539  1.9004  0.2369  1.3390
  678MOL0     C91423  11.348   4.262   6.472  0.5467 -0.8521  0.3678
  678MOL0     C91424  11.443   4.164   6.495  0.5926  0.1955 -0.4455
  678MOL0     O91425  11.418   4.043   6.433  0.1131  0.7099 -0.5423
  678MOL0     C91426  11.512   3.947   6.441 -0.0998  0.2726  0.4315
  678MOL0     C91427  11.609   3.946   6.339 -1.2636 -1.0290  0.3120
  678MOL0     C91428  11.719   3.862   6.339 -0.1786  0.7829 -1.0516
  678MOL0     C91429  11.722   3.767   6.448 -0.4150 -0.0115 -0.0782
  678MOL0     O91430  11.815   3.675   6.463 -0.3749  0.0808 -0.6675
  678MOL0     C91431  11.908   3.640   6.355  0.0823  0.5529  0.5010
  678MOL0     C91432  11.988   3.507   6.403  0.4907  0.5658  0.1662
  678MOL0     C91433  12.080   3.457   6.292  0.9463  0.5349 -0.5004
  678MOL0     C91434  12.142   3.325   6.335  0.0956  0.9216  0.5222
  678MOL0     C91435  12.259   3.279   6.245 -0.9996  0.7953 -0.4814
  678MOL0     C91436  12.328   3.149   6.302  0.3220 -0.2483  0.6252
  678MOL0     C91437  12.446   3.102   6.226  0.4495  0.9660  0.8839
  678MOL0     C91438  12.565   3.147   6.311  0.7352  0.7496  0.1811
  678MOL0    Cl91439  12.700   3.084   6.213  0.3320  0.0204 -0.1394
  678MOL0     C91440  11.621   3.761   6.546  0.4282  0.8642 -0.2196
  678MOL0     C91441  11.516   3.853   6.549  0.6650  0.6338 -0.1544
  678MOL0     O91442  11.523   4.194   6.581 -0.1963  0.3879 -1.3766
  678MOL0     C91443  11.230   4.236   6.408 -0.4024  0.3166  0.2975
  678MOL0     C91444  11.126   4.331   6.399 -0.5635  0.4914 -0.6535
  678MOL0     N91445  10.694   4.724   6.098 -0.4449  0.2960  0.3780
  678MOL0     N91446  10.568   4.733   6.065 -0.3834  0.3392 -0.3397
  678MOL0     C91447  10.253   4.438   5.339 -0.7410 -0.3416  0.3508
  678MOL0     C91448  10.281   4.320   5.264  0.0726 -0.0646 -0.3301
  678MOL0     C91449  10.413   4.037   4.950 -1.0297 -0.8785  0.4243
  678MOL0     C91450  10.561   4.055   4.935  0.5189  0.7432 -1.1403
  678MOL0     C91451  10.638   3.964   4.851  0.1046  0.0224  0.0478
  678MOL0     C91452  10.575   3.866   4.774 -0.3430  0.1226  0.2733
  678MOL0     O91453  10.641   3.781   4.687 -0.6045 -0.1083 -0.8161
  678MOL0     C91454  10.760   3.730   4.742 -0.1930  0.7642 -0.1391
  678MOL0     C91455  10.792   3.632   4.629 -0.1312 -0.2465 -0.9933
  678MOL0     C91456  10.813   3.701   4.501  0.2377  0.8034  0.7722
  678MOL0     C91457  10.913   3.814   4.486 -0.9292  0.5201 -0.9065
  678MOL0     C91458  11.038   3.768   4.540 -0.4318 -0.3922  0.7408
  678MOL0     C91459  11.144   3.755   4.601  0.0792 -0.1176  0.0840
  678MOL0     C91460  10.436   3.854   4.789  0.9322 -0.0892  1.2164
  678MOL0     C91461  10.356   3.933   4.873  0.3462 -0.2837  0.2459
  678MOL0     C91462  10.207   3.908   4.880  0.3523 -0.0017 -0.3623
  678MOL0     H91463  10.532   4.447   5.069 -0.3992 -2.3896 -0.6644
  678MOL0     H91464  10.486   4.647   5.225  1.2439 -0.0959  5.1047
  678MOL0     H91465  10.167   4.817   5.397 -2.2969  1.1198  3.9351
  678MOL0     H91466  10.097   4.660   5.391  0.2624 -2.8912  0.8070
  678MOL0     H91467  10.276   4.764   5.605 -2.0031  2.0252  0.6693
  678MOL0     H91468  10.222   4.594   5.605 -2.9367  0.1921  3.1354
  678MOL0     H91469  10.000   4.638   5.638  1.9608 -1.4552  0.1193
  678MOL0     H91470  10.008   4.806   5.580 -1.7189  1.3134  1.1856
  678MOL0     H91471   9.998   4.749   5.854  2.5522 -0.0786  4.1152
  678MOL0     H91472  10.154   4.715   5.835  2.2316 -0.7426 -3.5353
  678MOL0     H91473  10.201   4.944   5.737  0.6377 -1.0700  0.8523
  678MOL0     H91474  10.043   5.001   5.795  0.8286  1.7784 -0.7060
  678MOL0     H91475  10.215   5.062   5.964  0.0439  0.3168 -0.2204
  678MOL0     H91476  10.139   4.916   6.031  1.1036  0.4045  0.1996
  678MOL0     H91477  10.399   4.955   5.876  0.3018 -1.5365 -0.9994
  678MOL0     H91478  10.336   4.793   5.912 -0.7562 -0.3046  1.3479
  678MOL0     H91479  10.412   5.025   6.089  1.6811  0.0714 -2.9193
  678MOL0     H91480  10.340   4.878   6.159 -0.9343  0.5101  0.0316
  678MOL0     H91481  10.644   5.044   6.152 -2.9440  0.3071  1.1583
  678MOL0     H91482  10.965   4.834   6.128 -0.8033 -2.5945  0.7589
  678MOL0     H91483  10.899   4.992   6.139 -1.2192 -0.2714 -2.0477
  678MOL0     H91484  10.989   4.923   6.368  1.0472 -1.2294 -0.7790
  678MOL0     H91485  10.810   4.916   6.375  0.8976  1.6954 -0.8340
  678MOL0     H91486  10.874   4.658   6.305  2.5100 -0.8757  0.1785
  678MOL0     H91487  10.862   4.704   6.468  1.2238 -1.4360 -0.7196
  678MOL0     H91488  11.097   4.721   6.491 -2.2114  0.3757  1.3590
  678MOL0     H91489  11.121   4.675   6.319 -1.8746 -1.8112 -1.1972
  678MOL0     H91490  11.255   4.575   6.578 -1.7338 -0.4065  2.7866
  678MOL0     H91491  11.448   4.436   6.589  1.9884 -0.2098  1.5652
  678MOL0     H91492  11.593   4.021   6.263  0.2262  0.1901  1.1276
  678MOL0     H91493  11.785   3.873   6.253 -5.1454  0.5552 -5.3676
  678MOL0     H91494  11.844   3.603   6.274  2.1288 -1.1783 -0.4025
  678MOL0     H91495  11.975   3.719   6.318 -0.6765 -0.9327 -4.9135
  678MOL0     H91496  12.049   3.527   6.492  0.4383  0.6552  0.1825
  678MOL0     H91497  11.907   3.438   6.425 -1.4326  1.4677 -3.4030
  678MOL0     H91498  12.028   3.445   6.196  1.0249 -1.1303 -0.3678
  678MOL0     H91499  12.158   3.533   6.295  0.8761  0.7259  4.3147
  678MOL0     H91500  12.070   3.242   6.330  0.3260  0.7947 -2.1002
  678MOL0     H91501  12.185   3.331   6.436  5.1111 -2.6616 -1.0105
  678MOL0     H91502  12.336   3.357   6.250  0.3020 -0.5096  1.8125
  678MOL0     H91503  12.221   3.265   6.144  1.4110 -0.1719 -1.3355
  678MOL0     H91504  12.349   3.154   6.409 -0.5032 -3.4518  1.0374
  678MOL0     H91505  12.248   3.078   6.283  1.5060 -1.2537 -0.9123
  678MOL0     H91506  12.462   3.147   6.128 -4.0802  2.7077  0.7124
  678MOL0     H91507  12.438   2.993   6.222 -0.0054  1.0346 -0.2699
  678MOL0     H91508  12.561   3.256   6.323  0.9523  1.0162 -1.8836
  678MOL0     H91509  12.563   3.095   6.408  1.9034  0.6853  0.1776
  678MOL0     H91510  11.616   3.676   6.613  0.4008 -1.2477 -2.7305
  678MOL0     H91511  11.441   3.846   6.627  0.6609  2.3625  0.0352
  678MOL0     H91512  11.199   4.139   6.370 -1.1265  0.0364  1.5479
  678MOL0     H91513  11.032   4.299   6.355 -0.3024 -1.5715  0.1860
  678MOL0     H91514  10.170   4.449   5.408 -1.5621 -0.1320 -0.6405
  678MOL0     H91515  10.236   4.226   5.295  1.1288  0.8436  5.1038
  678MOL0     H91516  10.617   4.129   4.991  0.8453  0.8783 -1.6496
  678MOL0     H91517  10.745   3.960   4.833  0.4056  1.4641  1.3249
  678MOL0     H91518  10.735   3.657   4.819 -0.3672 -1.1501 -1.9456
  678MOL0     H91519  10.835   3.802   4.776  1.0501  0.0904 -1.3517
  678MOL0     H91520  10.705   3.568   4.615 -0.7227  0.7954 -2.3743
  678MOL0     H91521  10.874   3.563   4.646  0.1264 -0.2484 -2.1314
  678MOL0     H91522  10.719   3.730   4.452  1.8838  0.6009 -2.8294
  678MOL0     H91523  10.849   3.623   4.433 -2.3262 -1.7270  2.1168
  678MOL0     H91524  10.940   3.839   4.383  0.2518  0.5654 -0.6061
  678MOL0     H91525  10.896   3.909   4.538 -0.6923 -0.9153  2.0100
  678MOL0     H91526  11.236   3.754   4.656  0.0530  2.7438  0.3203
  678MOL0     H91527  10.383   3.775   4.737 -2.8276  0.3227  4.0171
  678MOL0     H91528  10.157   3.971   4.806 -0.1557 -1.7226 -1.5427
  678MOL0     H91529  10.190   3.804   4.852  1.5899 -0.5483  0.8109
  678MOL0     H91530  10.167   3.926   4.980  0.9570  0.8331 -0.2598
  679MOL0     O91531   1.053   2.149   9.620  0.0147  0.2157  0.3558
  679MOL0     C91532   1.006   2.254   9.574  0.3518  0.0862  0.4159
  679MOL0     O91533   1.052   2.320   9.465  0.2988  0.1095  0.3982
  679MOL0     C91534   1.161   2.268   9.399  1.5582 -1.2807 -0.1380
  679MOL0     C91535   1.238   2.363   9.334 -0.7254 -0.1209 -0.6921
  679MOL0     C91536   1.353   2.316   9.271 -0.4661  0.6810 -0.9743
  679MOL0     C91537   1.387   2.184   9.266 -1.0772 -0.6891 -0.5529
  679MOL0     O91538   1.507   2.156   9.203  0.0981 -0.2216  0.0565
  679MOL0     C91539   1.554   2.023   9.212 -0.5802  0.4191  0.3153
  679MOL0     C91540   1.697   2.037   9.165  0.1653  1.0048 -0.2914
  679MOL0     C91541   1.728   2.077   9.018  0.5601  0.3189  0.2947
  679MOL0     C91542   1.876   2.083   8.987  0.4476  1.0500 -0.7391
  679MOL0     C91543   1.946   1.943   8.964  0.4516  0.3569  0.7731
  679MOL0     C91544   2.097   1.960   8.917  0.2761  0.4903 -1.5128
  679MOL0     C91545   2.099   1.981   8.771  0.8078 -0.3513  0.3327
  679MOL0     C91546   2.231   2.028   8.717  0.7860  0.4267 -0.3306
  679MOL0     N91547   2.215   2.045   8.572 -0.0759 -0.2125  0.2691
  679MOL0     C91548   2.246   2.160   8.507  0.6171 -0.1261  0.8665
  679MOL0     C91549   2.250   2.141   8.374  0.4389  0.5749  0.6606
  679MOL0     C91550   2.263   2.247   8.264 -0.0858 -0.4566  0.6647
  679MOL0     C91551   2.405   2.304   8.243  0.7630  0.2397 -0.2588
  679MOL0     C91552   2.497   2.196   8.192 -0.5829  0.1212  0.4315
  679MOL0     C91553   2.643   2.232   8.186  0.0781 -0.0325 -0.0388
  679MOL0     O91554   2.680   2.350   8.117  0.1377  0.4239  0.4865
  679MOL0     C91555   2.666   2.476   8.180 -0.3312  0.6452  0.5457
  679MOL0     C91556   2.651   2.581   8.091  0.1360 -0.4666  0.5675
  679MOL0     C91557   2.647   2.711   8.141  0.2063  0.0513  0.2695
  679MOL0     C91558   2.663   2.743   8.270 -0.4257  0.7262 -0.5577
  679MOL0     C91559   2.661   2.888   8.320  0.4523  0.9776  0.2996
  679MOL0     O91560   2.704   2.904   8.456  0.6833  0.1364 -0.2770
  679MOL0     C91561   2.711   3.033   8.497  0.1871 -0.7019  0.0735
  679MOL0     C91562   2.767   3.141   8.424  1.4003  0.8016  0.3172
  679MOL0     C91563   2.765   3.267   8.481  0.2484 -0.4034  1.0937
  679MOL0     C91564   2.712   3.287   8.605  0.7057 -0.3446  0.8254
  679MOL0     O91565   2.693   3.409   8.668  0.2659  0.2891  0.9757
  679MOL0     C91566   2.792   3.506   8.655 -0.3425  0.3186 -0.0690
  679MOL0     C91567   2.736   3.643   8.689 -0.7251  0.1914 -0.2599
  679MOL0     C91568   2.686   3.725   8.568 -0.1147  0.5784  0.3479
  679MOL0     C91569   2.625   3.860   8.617 -0.3460  0.9317 -0.5582
  679MOL0     C91570   2.556   3.932   8.503 -0.1505 -0.4802 -0.4199
  679MOL0     C91571   2.404   3.896   8.484  0.3512  0.9449 -0.0777
  679MOL0     C91572   2.356   3.947   8.343 -0.3597 -0.0208  0.2301
  679MOL0     C91573   2.256   3.845   8.292 -0.2600 -0.9176 -0.5579
  679MOL0    Cl91574   2.187   3.897   8.134  0.5104  0.2382 -0.2607
  679MOL0     C91575   2.658   3.180   8.681  0.5262 -0.0397 -0.7947
  679MOL0     C91576   2.671   3.053   8.628  1.1718 -0.2486 -0.1151
  679MOL0     O91577   2.605   2.964   8.244 -0.0243  0.1498 -0.3929
  679MOL0     C91578   2.684   2.632   8.358 -0.1656 -0.7095 -0.6012
  679MOL0     C91579   2.693   2.502   8.316  0.5701  0.5183  0.1120
  679MOL0     N91580   2.215   2.004   8.357  0.7314  0.5540 -0.3006
  679MOL0     N91581   2.193   1.949   8.473 -0.2600  0.7368  0.2385
  679MOL0     C91582   1.312   2.089   9.330 -0.0400 -0.2608 -0.2689
  679MOL0     C91583   1.197   2.132   9.390  0.0740  0.0497 -0.3708
  679MOL0     C91584   0.890   2.303   9.633 -0.7553 -0.5045 -0.0595
  679MOL0     C91585   0.847   2.248   9.761  0.0446 -0.0807  1.1008
  679MOL0     C91586   0.719   2.286   9.814  0.1026  0.3886  0.1506
  679MOL0     C91587   0.624   2.366   9.751  0.5284 -0.7897  0.1015
  679MOL0     O91588   0.505   2.370   9.812  0.3578  0.2673 -0.6143
  679MOL0     C91589   0.423   2.487   9.778 -0.1357 -0.7380  0.2067
  679MOL0     C91590   0.308   2.513   9.873 -0.2718  0.5964  0.2880
  679MOL0     C91591   0.233   2.385   9.927 -0.1779  0.3793  0.3793
  679MOL0     C91592   0.091   2.349   9.864 -0.1037 -0.3550  0.3415
  679MOL0     C91593   0.044   2.224   9.916  0.3031  0.1740  0.6040
  679MOL0     C91594   0.010   2.117   9.963 -0.0035  0.3794 -0.8969
  679MOL0     C91595   0.666   2.414   9.627 -0.8079 -0.8396 -0.0711
  679MOL0     C91596   0.794   2.390   9.571 -0.5066  0.1337  1.1402
  679MOL0     C91597   0.810   2.449   9.430  0.1276 -0.5183  0.3749
  679MOL0     H91598   1.205   2.466   9.333  0.2758  0.2146 -1.2393
  679MOL0     H91599   1.427   2.371   9.214  0.4193 -0.0645 -0.5629
  679MOL0     H91600   1.565   1.983   9.313 -0.2129 -2.5933 -0.8032
  679MOL0     H91601   1.510   1.947   9.146  0.3733  0.9903 -1.0243
  679MOL0     H91602   1.749   1.941   9.179  0.0487  0.6939 -1.7880
  679MOL0     H91603   1.749   2.107   9.231 -0.1430  0.5743  0.4261
  679MOL0     H91604   1.684   2.178   9.015 -0.7674 -0.2492 -0.5173
  679MOL0     H91605   1.669   2.017   8.948 -0.5067 -0.9824  2.2094
  679MOL0     H91606   1.889   2.149   8.900 -0.0253  1.6168 -0.3934
  679MOL0     H91607   1.935   2.116   9.074  0.0544 -1.2861  0.4907
  679MOL0     H91608   1.934   1.875   9.049 -1.0878  1.8511  1.8250
  679MOL0     H91609   1.891   1.893   8.883  0.4743  2.8429 -0.8960
  679MOL0     H91610   2.138   2.043   8.976 -1.8347  0.4092  0.2144
  679MOL0     H91611   2.154   1.873   8.952 -0.6461  0.5761  0.3424
  679MOL0     H91612   2.012   2.039   8.738 -0.9673 -4.1363 -2.3380
  679MOL0     H91613   2.063   1.891   8.720  4.3476 -2.5202  1.3327
  679MOL0     H91614   2.251   2.125   8.763  0.2101  0.9284 -1.1361
  679MOL0     H91615   2.307   1.950   8.732  0.6055  0.1805 -0.6899
  679MOL0     H91616   2.260   2.256   8.556 -0.0038 -0.4137  1.6260
  679MOL0     H91617   2.240   2.196   8.170  1.6549 -3.1857  1.5792
  679MOL0     H91618   2.195   2.330   8.285 -0.2369 -1.0826  2.8849
  679MOL0     H91619   2.421   2.388   8.174  2.7251  2.9120  3.1281
  679MOL0     H91620   2.437   2.334   8.343 -1.8907 -0.4805  0.9017
  679MOL0     H91621   2.462   2.166   8.093  1.6686 -3.0516  0.4210
  679MOL0     H91622   2.490   2.101   8.246  1.7270 -0.8828 -0.8762
  679MOL0     H91623   2.692   2.144   8.143  1.4558  0.9524 -0.5237
  679MOL0     H91624   2.693   2.226   8.283  3.6945  0.9157 -1.6918
  679MOL0     H91625   2.657   2.571   7.983 -0.1360 -0.2485  0.5293
  679MOL0     H91626   2.633   2.793   8.072  4.0103  0.2196 -0.5319
  679MOL0     H91627   2.785   3.125   8.318 -1.0495  0.0160 -0.0323
  679MOL0     H91628   2.793   3.353   8.422 -1.2340  0.8148  2.0829
  679MOL0     H91629   2.881   3.482   8.714 -0.0933  1.1437 -0.0957
  679MOL0     H91630   2.842   3.520   8.559  0.8905  3.2521  0.8765
  679MOL0     H91631   2.648   3.632   8.753 -1.3300  1.5742 -0.8050
  679MOL0     H91632   2.818   3.701   8.733  0.0555 -0.5052 -0.7701
  679MOL0     H91633   2.762   3.738   8.490 -0.2666 -0.0667  0.0862
  679MOL0     H91634   2.615   3.668   8.506  2.0003 -0.5978 -1.1169
  679MOL0     H91635   2.711   3.915   8.656 -0.8892  1.2674  0.2135
  679MOL0     H91636   2.553   3.841   8.697  2.6188  2.8291  2.8328
  679MOL0     H91637   2.599   3.920   8.403 -0.8443 -0.4488 -0.7291
  679MOL0     H91638   2.556   4.040   8.522  1.9964 -0.5231  0.0768
  679MOL0     H91639   2.403   3.787   8.485  0.9502  0.9022 -1.8560
  679MOL0     H91640   2.345   3.963   8.547 -1.9497  0.9231 -2.0805
  679MOL0     H91641   2.442   3.939   8.275  1.3528 -2.1275  2.4569
  679MOL0     H91642   2.321   4.050   8.346  1.2534  1.1602 -6.2784
  679MOL0     H91643   2.321   3.759   8.277  2.8116  1.1369 -0.0136
  679MOL0     H91644   2.183   3.819   8.369 -0.6878 -1.2130 -1.0561
  679MOL0     H91645   2.617   3.210   8.777  1.3045  0.7962 -0.7081
  679MOL0     H91646   2.655   2.958   8.678 -2.3337 -0.0404 -0.5901
  679MOL0     H91647   2.692   2.665   8.461  2.4374 -1.9513 -0.3289
  679MOL0     H91648   2.716   2.422   8.385 -4.6008  0.8813  2.7191
  679MOL0     H91649   1.318   1.981   9.322 -0.5966 -0.2713 -0.5822
  679MOL0     H91650   1.121   2.064   9.428 -0.9278  1.0911 -0.4579
  679MOL0     H91651   0.904   2.164   9.798  1.5234  1.2196  1.9394
  679MOL0     H91652   0.678   2.243   9.905 -1.0202  2.8423  0.8926
  679MOL0     H91653   0.386   2.478   9.676  2.0411  1.1399 -0.8255
  679MOL0     H91654   0.486   2.576   9.781 -1.5566  0.2866  2.3823
  679MOL0     H91655   0.227   2.571   9.829 -3.4658 -1.0419  3.4288
  679MOL0     H91656   0.335   2.579   9.956 -2.4513  2.5826 -0.4692
  679MOL0     H91657   0.219   2.404  10.034  1.6228  0.8716  0.5639
  679MOL0     H91658   0.296   2.297   9.914  3.7267  2.8438  1.0317
  679MOL0     H91659   0.005   2.417   9.863  0.6551  0.6297 -1.2691
  679MOL0     H91660   0.127   2.336   9.761  3.2844 -0.3233  1.4052
  679MOL0     H91661  -0.015   2.023  10.007  0.6173  0.4633 -0.3631
  679MOL0     H91662   0.598   2.469   9.563 -0.0385  0.4385  0.1621
  679MOL0     H91663   0.829   2.363   9.365 -0.3303 -1.6317  1.6732
  679MOL0     H91664   0.728   2.515   9.403  0.7797  0.6692  1.2140
  679MOL0     H91665   0.893   2.520   9.428  0.1652 -0.4924 -2.7271
  680MOL0     O91666   1.981   1.848   2.417  0.2345  0.0635  0.4699
  680MOL0     C91667   2.048   1.812   2.326 -0.4406 -0.7604  0.1116
  680MOL0     O91668   2.133   1.703   2.335 -0.4483 -0.2010  0.4939
  680MOL0     C91669   2.084   1.612   2.431 -0.4112  0.1840 -0.7642
  680MOL0     C91670   2.174   1.580   2.546 -0.6272 -1.1781 -0.0331
  680MOL0     C91671   2.125   1.512   2.653 -0.1321 -1.2226 -0.1490
  680MOL0     C91672   2.000   1.444   2.654 -0.0916  0.2390  0.3450
  680MOL0     O91673   1.939   1.383   2.761  0.5018  0.2561  0.8776
  680MOL0     C91674   1.884   1.478   2.853 -0.2129  0.8241 -1.2288
  680MOL0     C91675   1.770   1.421   2.943 -0.1430  0.3893 -0.2847
  680MOL0     C91676   1.830   1.350   3.066 -0.3606 -1.0808  0.8486
  680MOL0     C91677   1.727   1.313   3.164  0.5107  0.1770 -0.8046
  680MOL0     C91678   1.788   1.282   3.297  0.0653 -0.9803  0.3561
  680MOL0     C91679   1.867   1.150   3.280  0.3955  0.6802 -0.3225
  680MOL0     C91680   1.908   1.060   3.407 -0.6433 -0.5886  0.3093
  680MOL0     C91681   2.041   1.099   3.459  0.0127 -0.4113  0.7842
  680MOL0     N91682   2.146   1.054   3.365  0.2323  0.5459 -0.8788
  680MOL0     C91683   2.186   0.920   3.348 -0.2924  1.5098  0.0185
  680MOL0     C91684   2.283   0.918   3.257 -0.2278 -0.1565  0.5928
  680MOL0     C91685   2.351   0.799   3.199 -1.1551  0.3803 -0.0234
  680MOL0     C91686   2.316   0.658   3.236  0.0826 -0.1238 -0.4729
  680MOL0     C91687   2.415   0.554   3.184  1.4196 -0.0327 -0.9337
  680MOL0     C91688   2.561   0.596   3.189 -0.6779 -0.2987 -0.3304
  680MOL0     O91689   2.621   0.465   3.175 -0.1888 -1.0137 -0.8518
  680MOL0     C91690   2.758   0.461   3.146  0.0251 -0.0687  0.7362
  680MOL0     C91691   2.841   0.573   3.116 -0.0567 -0.5790  0.6927
  680MOL0     C91692   2.975   0.559   3.079  0.0913 -0.0130 -0.2148
  680MOL0     C91693   3.023   0.419   3.064  0.5611 -1.0909 -0.2025
  680MOL0     C91694   3.162   0.393   3.025 -0.5195 -0.5994 -0.0343
  680MOL0     O91695   3.214   0.265   3.043  0.8829 -0.4496  0.6838
  680MOL0     C91696   3.347   0.223   3.010  0.8947  0.6101  0.3575
  680MOL0     C91697   3.454   0.312   2.988 -0.2193  0.1935  0.5798
  680MOL0     C91698   3.575   0.253   2.957  0.1779 -0.4647  0.4886
  680MOL0     C91699   3.590   0.114   2.950  0.6454  0.4398  0.6740
  680MOL0     O91700   3.713   0.066   2.923 -0.1904  0.4250  0.9242
  680MOL0     C91701   3.729  -0.078   2.886  0.2337  0.7048  0.0424
  680MOL0     C91702   3.874  -0.094   2.853  0.1974  0.2681 -0.6902
  680MOL0     C91703   3.977  -0.025   2.940  0.3565  0.5044  0.2378
  680MOL0     C91704   4.116  -0.058   2.873  0.1707 -0.1077  0.0726
  680MOL0     C91705   4.235   0.002   2.944  0.1466 -0.7279  0.1965
  680MOL0     C91706   4.360   0.006   2.861 -0.7657  0.7442  0.2425
  680MOL0     C91707   4.361   0.094   2.737  0.6184  0.6231 -0.6357
  680MOL0     C91708   4.509   0.130   2.707  0.5842  0.6653  0.0563
  680MOL0    Cl91709   4.618  -0.021   2.672 -0.1683 -0.0039  0.2880
  680MOL0     C91710   3.478   0.029   2.968 -0.2927  0.3800 -1.3188
  680MOL0     C91711   3.361   0.087   3.016 -0.5582 -0.9630  0.5012
  680MOL0     O91712   3.219   0.489   2.977 -0.0207  0.1537  0.7324
  680MOL0     C91713   2.934   0.312   3.079 -0.2404 -0.9554 -0.7595
  680MOL0     C91714   2.803   0.334   3.129 -0.4900 -0.9083  0.3582
  680MOL0     N91715   2.313   1.051   3.236 -0.1918 -1.2723  0.6731
  680MOL0     N91716   2.229   1.135   3.298 -0.2027 -0.1739 -0.1377
  680MOL0     C91717   1.919   1.462   2.541  0.0375 -0.3237 -0.7647
  680MOL0     C91718   1.962   1.543   2.433  1.4324 -1.1561  0.5460
  680MOL0     C91719   2.039   1.886   2.193  0.5337  0.0126 -0.7085
  680MOL0     C91720   2.154   1.906   2.122 -0.1387 -0.2123 -0.4773
  680MOL0     C91721   2.160   1.964   1.994  0.4288 -0.6419 -0.1929
  680MOL0     C91722   2.045   2.018   1.940  0.4317 -1.0185 -0.8736
  680MOL0     O91723   2.020   2.072   1.818  0.2348  0.6192  0.2898
  680MOL0     C91724   2.125   2.108   1.725  0.0029 -0.8444  0.2836
  680MOL0     C91725   2.065   2.207   1.626  0.1815 -0.2325  0.8655
  680MOL0     C91726   2.162   2.221   1.508 -0.6566 -0.4303 -0.3081
  680MOL0     C91727   2.255   2.345   1.513  0.4494  0.3617 -0.1708
  680MOL0     C91728   2.360   2.319   1.611 -0.1683  0.4990 -0.6903
  680MOL0     C91729   2.450   2.303   1.691 -0.0414  0.5937 -0.0816
  680MOL0     C91730   1.927   2.017   2.018  0.4727  0.4293  0.5971
  680MOL0     C91731   1.922   1.950   2.140  0.1375 -0.6464  0.1728
  680MOL0     C91732   1.788   1.947   2.206 -0.2253  0.0413 -0.4636
  680MOL0     H91733   2.271   1.628   2.543 -1.1894 -0.0872 -1.6739
  680MOL0     H91734   2.193   1.519   2.737  0.6288 -1.9089 -0.6904
  680MOL0     H91735   1.969   1.510   2.914 -1.6595  0.0123  1.3422
  680MOL0     H91736   1.839   1.564   2.803 -0.0861  0.3803 -2.1325
  680MOL0     H91737   1.701   1.355   2.890 -0.2122  0.8586 -0.7786
  680MOL0     H91738   1.716   1.503   2.991  0.4743  0.8012 -0.2856
  680MOL0     H91739   1.902   1.406   3.126  1.1467 -3.1926  1.1200
  680MOL0     H91740   1.874   1.257   3.030 -0.1355 -1.0602  1.0639
  680MOL0     H91741   1.680   1.411   3.174  0.2546  0.1216 -1.4005
  680MOL0     H91742   1.645   1.251   3.125 -2.8730  2.8888  1.4479
  680MOL0     H91743   1.845   1.367   3.334  0.9093 -1.8644  1.1225
  680MOL0     H91744   1.712   1.286   3.376 -0.5250  0.8489 -0.2244
  680MOL0     H91745   1.799   1.089   3.222  1.6221  0.8801 -2.0319
  680MOL0     H91746   1.945   1.181   3.210 -0.9460  0.6163 -1.8838
  680MOL0     H91747   1.906   0.958   3.368 -1.7220  1.0293 -4.5723
  680MOL0     H91748   1.830   1.064   3.485 -2.2307 -0.9806 -1.1937
  680MOL0     H91749   2.044   1.207   3.468  1.1256 -0.5076  1.8439
  680MOL0     H91750   2.062   1.067   3.562  0.9110 -1.6988  0.2443
  680MOL0     H91751   2.154   0.830   3.401  3.0402  1.2099  1.7766
  680MOL0     H91752   2.331   0.801   3.092 -0.1145 -0.3160 -0.2462
  680MOL0     H91753   2.458   0.817   3.214 -1.2878  1.1199  0.0837
  680MOL0     H91754   2.332   0.665   3.344  2.6117  2.2992 -0.8929
  680MOL0     H91755   2.209   0.636   3.229 -0.3460  0.6322  2.3360
  680MOL0     H91756   2.394   0.515   3.084  1.0282 -1.0243 -0.4757
  680MOL0     H91757   2.409   0.473   3.258  0.4003  0.4512 -0.4579
  680MOL0     H91758   2.585   0.643   3.285 -1.6167  0.8453 -0.6428
  680MOL0     H91759   2.585   0.662   3.104 -0.0955  2.1553  1.6193
  680MOL0     H91760   2.818   0.679   3.116 -0.8877 -0.7220 -0.6945
  680MOL0     H91761   3.037   0.641   3.045 -0.9525  0.0686 -2.0345
  680MOL0     H91762   3.451   0.420   2.995  2.5188  0.2851  1.1328
  680MOL0     H91763   3.669   0.307   2.942  1.0127 -2.5210 -2.7216
  680MOL0     H91764   3.701  -0.146   2.968  0.6702 -0.0909 -0.4513
  680MOL0     H91765   3.666  -0.106   2.802  0.4929 -0.8335  0.3222
  680MOL0     H91766   3.893  -0.202   2.854  1.4450  0.4293  2.1687
  680MOL0     H91767   3.880  -0.064   2.748  1.0868  0.3491 -0.6201
  680MOL0     H91768   3.984   0.081   2.966 -0.4179  0.4025  0.9194
  680MOL0     H91769   3.982  -0.073   3.039  2.4099 -0.0698 -0.1018
  680MOL0     H91770   4.107  -0.027   2.768 -0.1671 -1.2442 -0.2409
  680MOL0     H91771   4.116  -0.167   2.880 -2.2556 -0.1701 -0.0760
  680MOL0     H91772   4.259  -0.051   3.037  1.4967  1.3356  1.0985
  680MOL0     H91773   4.217   0.105   2.975  2.2119  0.0192 -0.8806
  680MOL0     H91774   4.449   0.037   2.915  0.1384  1.5686 -1.6140
  680MOL0     H91775   4.381  -0.098   2.834 -0.2222  0.2226  2.5180
  680MOL0     H91776   4.305   0.183   2.767  0.2571 -0.6818  3.0904
  680MOL0     H91777   4.308   0.038   2.660  1.6481 -0.0021 -0.9055
  680MOL0     H91778   4.522   0.187   2.615  2.4966 -0.0585 -0.1693
  680MOL0     H91779   4.552   0.187   2.789 -0.0050  3.5764 -1.5390
  680MOL0     H91780   3.476  -0.079   2.957 -5.3612  0.1235 -0.4948
  680MOL0     H91781   3.284   0.019   3.051  0.9971 -2.0933  1.8703
  680MOL0     H91782   2.961   0.209   3.057 -2.3555 -1.3062 -1.9467
  680MOL0     H91783   2.737   0.248   3.128  2.0474 -3.0103 -0.9741
  680MOL0     H91784   1.818   1.424   2.544  0.7888 -2.4685 -0.8137
  680MOL0     H91785   1.883   1.571   2.364  1.4408 -1.3130  0.4733
  680MOL0     H91786   2.245   1.864   2.165  1.2522  1.3261 -1.8058
  680MOL0     H91787   2.257   1.977   1.946 -0.5343 -0.9381 -2.3562
  680MOL0     H91788   2.148   2.021   1.663 -1.3194  0.2101 -1.7769
  680MOL0     H91789   2.211   2.159   1.768 -1.1684  4.4811 -2.7785
  680MOL0     H91790   2.051   2.298   1.684  0.0213 -1.5216  2.9540
  680MOL0     H91791   1.965   2.183   1.588  0.3425 -1.4921  1.1926
  680MOL0     H91792   2.105   2.220   1.415 -0.4624 -2.8152 -0.4749
  680MOL0     H91793   2.228   2.134   1.508 -0.8996 -0.6743 -2.4071
  680MOL0     H91794   2.288   2.346   1.409 -1.0522 -0.6397 -0.6908
  680MOL0     H91795   2.197   2.438   1.526 -2.0157 -1.1210  0.1897
  680MOL0     H91796   2.527   2.294   1.765  1.9578  3.2327 -1.6501
  680MOL0     H91797   1.834   2.053   1.975  1.0356 -0.5425 -1.5654
  680MOL0     H91798   1.772   1.842   2.233  1.0809  0.1543  0.9015
  680MOL0     H91799   1.797   2.011   2.294 -1.4179 -0.2450 -0.1248
  680MOL0     H91800   1.704   1.979   2.145 -0.4186 -0.1053 -0.2759
  681MOL0     O91801  10.528   8.473   4.753 -0.3243 -0.4259  0.4444
  681MOL0     C91802  10.430   8.470   4.681  1.0525 -0.0147  0.2234
  681MOL0     O91803  10.320   8.400   4.707  0.2336 -0.2340 -0.6563
  681MOL0     C91804  10.320   8.309   4.810  0.6016 -0.1108  0.2533
  681MOL0     C91805  10.204   8.307   4.895 -1.1146 -0.4531 -0.8408
  681MOL0     C91806  10.198   8.218   5.002  0.3730  0.1392  0.2907
  681MOL0     C91807  10.308   8.134   5.031 -0.0786 -0.5592 -0.0611
  681MOL0     O91808  10.290   8.047   5.135  0.5210  0.0265  0.5897
  681MOL0     C91809  10.414   8.017   5.210 -0.3940 -0.0183  0.7008
  681MOL0     C91810  10.385   7.964   5.349  0.2236  0.0940 -0.7517
  681MOL0     C91811  10.284   7.860   5.349 -0.0181 -0.1970  0.0677
  681MOL0     C91812  10.277   7.801   5.497  1.2617  0.2943  0.1068
  681MOL0     C91813  10.178   7.694   5.511  0.4756  0.8361  0.1739
  681MOL0     C91814  10.166   7.655   5.658  0.4066  0.3126 -0.4995
  681MOL0     C91815  10.063   7.538   5.668 -0.8321 -0.7394  0.0973
  681MOL0     C91816  10.052   7.471   5.807  0.2548 -0.2081  0.9944
  681MOL0     N91817   9.979   7.558   5.900 -0.3216 -0.3118  0.4049
  681MOL0     C91818   9.903   7.516   6.011 -0.7250 -0.0307  0.1621
  681MOL0     C91819   9.858   7.630   6.071 -0.1302 -0.2469  0.3126
  681MOL0     C91820   9.761   7.639   6.181  0.9799 -0.8196  1.0648
  681MOL0     C91821   9.813   7.698   6.311  0.5979 -0.1612  0.9752
  681MOL0     C91822   9.885   7.832   6.293 -0.3495  0.0718  0.3853
  681MOL0     C91823   9.783   7.939   6.234 -0.1968 -0.2464  0.5763
  681MOL0     O91824   9.660   7.932   6.312 -0.3973  0.4971 -0.0385
  681MOL0     C91825   9.540   7.961   6.240  0.4465 -1.3689 -0.5487
  681MOL0     C91826   9.524   8.045   6.124 -0.6394  0.9433  0.6253
  681MOL0     C91827   9.396   8.064   6.071 -0.0833 -0.2458  0.2443
  681MOL0     C91828   9.280   8.018   6.131  0.5969  0.3140 -0.1653
  681MOL0     C91829   9.148   8.044   6.067 -0.3716  0.2327  0.3299
  681MOL0     O91830   9.130   8.173   6.034 -0.4107  0.2143  0.3191
  681MOL0     C91831   9.007   8.204   5.980 -0.0143  0.6789  0.2753
  681MOL0     C91832   8.906   8.243   6.063  0.1618 -0.4821 -0.1974
  681MOL0     C91833   8.782   8.297   6.012 -0.4816  0.5742 -1.2088
  681MOL0     C91834   8.776   8.325   5.879  1.0462  0.5801 -0.2480
  681MOL0     O91835   8.665   8.398   5.830 -0.1348 -0.1858 -0.2988
  681MOL0     C91836   8.549   8.314   5.805 -0.8253  0.1487 -0.4579
  681MOL0     C91837   8.424   8.396   5.839 -0.9802  0.2538  0.4675
  681MOL0     C91838   8.297   8.328   5.866 -1.0206 -0.8265 -0.4084
  681MOL0     C91839   8.190   8.427   5.918 -0.1468 -0.3134 -0.9015
  681MOL0     C91840   8.162   8.541   5.816 -0.5944  0.6146 -0.2453
  681MOL0     C91841   8.055   8.632   5.871  0.0249  0.5553 -0.3496
  681MOL0     C91842   8.011   8.742   5.768  0.8420  0.0150  0.1644
  681MOL0     C91843   7.870   8.797   5.787  0.2176 -0.3315 -0.4452
  681MOL0    Cl91844   7.757   8.674   5.734  0.1051  0.0997  0.2745
  681MOL0     C91845   8.873   8.275   5.798  0.7290  0.0405  0.5558
  681MOL0     C91846   9.000   8.222   5.845  1.1048  1.2494 -0.3660
  681MOL0     O91847   9.061   7.951   6.054  0.0572  0.1521 -0.0809
  681MOL0     C91848   9.302   7.942   6.243  0.8236 -0.3849  0.2959
  681MOL0     C91849   9.426   7.919   6.300  0.2003 -0.1618  0.5244
  681MOL0     N91850   9.903   7.738   5.997  0.3457  0.6412  0.5697
  681MOL0     N91851   9.973   7.696   5.896  0.0423 -0.1278  0.0847
  681MOL0     C91852  10.423   8.138   4.951  0.3853 -0.6329 -1.4879
  681MOL0     C91853  10.427   8.226   4.844  0.1765 -0.2888 -0.4008
  681MOL0     C91854  10.423   8.580   4.574 -1.4260 -0.0746 -0.0900
  681MOL0     C91855  10.315   8.565   4.485 -0.1795 -0.7233  0.0242
  681MOL0     C91856  10.292   8.658   4.380 -0.0524  0.1720  0.5345
  681MOL0     C91857  10.384   8.762   4.359 -0.3222  0.4871  0.8460
  681MOL0     O91858  10.367   8.866   4.265  0.1671 -0.2471  1.0252
  681MOL0     C91859  10.237   8.881   4.201 -0.1004  0.0312 -0.2175
  681MOL0     C91860  10.155   8.981   4.282 -0.6236 -0.0254  0.4184
  681MOL0     C91861  10.229   9.112   4.304  0.4452 -0.8235 -0.3665
  681MOL0     C91862  10.151   9.208   4.395 -0.0161  0.3304 -0.4794
  681MOL0     C91863  10.027   9.257   4.338  1.0383  0.5661 -0.5056
  681MOL0     C91864   9.919   9.285   4.296  0.0469  0.0675 -0.6055
  681MOL0     C91865  10.490   8.786   4.454  0.0647 -0.6596 -0.6349
  681MOL0     C91866  10.517   8.694   4.556 -0.2661  0.4483 -0.8553
  681MOL0     C91867  10.638   8.709   4.643 -0.1228 -0.2502 -0.1516
  681MOL0     H91868  10.123   8.376   4.878  0.6910  2.5801  1.7078
  681MOL0     H91869  10.111   8.203   5.065 -0.1233 -1.2500 -0.6882
  681MOL0     H91870  10.480   7.958   5.146 -0.7957 -1.8363  1.8893
  681MOL0     H91871  10.454   8.117   5.229 -0.0028  0.0053 -0.2059
  681MOL0     H91872  10.355   8.045   5.416 -0.5383 -1.2960  0.6468
  681MOL0     H91873  10.479   7.932   5.393 -1.3399 -1.2673  1.8608
  681MOL0     H91874  10.310   7.771   5.291 -1.3397 -0.9794  0.6135
  681MOL0     H91875  10.189   7.909   5.324  0.8108  0.5850 -1.7056
  681MOL0     H91876  10.374   7.760   5.528  0.3776 -1.7594  0.2931
  681MOL0     H91877  10.245   7.882   5.563  1.1663  0.6966 -0.4213
  681MOL0     H91878  10.080   7.732   5.482  0.3349  0.6669  0.4334
  681MOL0     H91879  10.216   7.614   5.447 -4.3396  0.7579 -3.1409
  681MOL0     H91880  10.262   7.617   5.693 -0.2087 -0.5986  0.2658
  681MOL0     H91881  10.139   7.739   5.722 -2.3662 -0.1495 -0.9106
  681MOL0     H91882  10.094   7.461   5.597 -0.8049  0.2156 -0.9648
  681MOL0     H91883   9.963   7.574   5.642 -0.0668 -0.0363 -2.1581
  681MOL0     H91884  10.007   7.372   5.802  1.5691 -0.8851  1.8869
  681MOL0     H91885  10.149   7.453   5.855  0.2665  1.5121  1.6787
  681MOL0     H91886   9.886   7.417   6.053 -0.2033 -0.0027  0.4569
  681MOL0     H91887   9.677   7.689   6.130  1.9394 -1.5806 -1.3980
  681MOL0     H91888   9.721   7.538   6.198 -2.2529  0.0040 -0.7092
  681MOL0     H91889   9.729   7.712   6.379 -0.8702 -1.0869 -0.5647
  681MOL0     H91890   9.885   7.626   6.350  1.7491  0.6044  0.3619
  681MOL0     H91891   9.971   7.820   6.226 -1.0392 -1.4218 -0.2639
  681MOL0     H91892   9.918   7.855   6.394 -2.8952  0.1121  1.2844
  681MOL0     H91893   9.769   7.932   6.126 -3.4101  2.5491  0.6482
  681MOL0     H91894   9.820   8.041   6.246  3.1141 -1.2240 -0.3104
  681MOL0     H91895   9.614   8.069   6.069  1.2120 -2.3132  1.9507
  681MOL0     H91896   9.388   8.109   5.973  2.6124 -1.6405 -0.7444
  681MOL0     H91897   8.916   8.238   6.171  1.0830 -0.6460 -0.2798
  681MOL0     H91898   8.700   8.319   6.079 -0.0123 -1.1396 -0.0101
  681MOL0     H91899   8.546   8.271   5.704 -3.8304  3.5951 -2.0754
  681MOL0     H91900   8.553   8.224   5.866 -2.8836 -0.4851 -1.1708
  681MOL0     H91901   8.451   8.467   5.918 -1.0933  1.6687 -0.7276
  681MOL0     H91902   8.419   8.462   5.752  2.9565 -0.8347 -0.7689
  681MOL0     H91903   8.267   8.282   5.772  0.1675  1.7450 -2.1827
  681MOL0     H91904   8.314   8.247   5.938 -0.0643 -1.3575 -1.2052
  681MOL0     H91905   8.227   8.467   6.013 -0.1431  0.3677 -1.1775
  681MOL0     H91906   8.096   8.377   5.944  1.4270 -0.9436  4.7295
  681MOL0     H91907   8.143   8.509   5.713 -2.3956  1.0921 -0.0843
  681MOL0     H91908   8.252   8.603   5.808  0.1101 -0.1996  0.9890
  681MOL0     H91909   7.967   8.572   5.897  1.3751 -1.0651  0.6395
  681MOL0     H91910   8.091   8.684   5.960 -1.0623  1.9060 -0.6658
  681MOL0     H91911   8.028   8.701   5.668  0.8626 -1.1954  0.6472
  681MOL0     H91912   8.073   8.831   5.784 -0.6484  1.0762  0.2493
  681MOL0     H91913   7.852   8.824   5.892 -0.8124  0.0390 -0.7022
  681MOL0     H91914   7.857   8.890   5.731 -3.8133 -1.5970 -2.0133
  681MOL0     H91915   8.858   8.283   5.691 -1.4230  0.3850  0.8438
  681MOL0     H91916   9.083   8.189   5.782  0.1691 -0.5586 -0.7114
  681MOL0     H91917   9.220   7.907   6.305  1.6339 -1.0059  1.0432
  681MOL0     H91918   9.440   7.866   6.393 -1.1597 -0.6574  0.4683
  681MOL0     H91919  10.509   8.078   4.979  1.1174  1.9336  2.4817
  681MOL0     H91920  10.517   8.218   4.784 -1.0877 -0.8433 -2.2913
  681MOL0     H91921  10.253   8.477   4.500 -1.2980 -0.4640 -2.5024
  681MOL0     H91922  10.203   8.646   4.319  1.7109 -0.8361 -1.9987
  681MOL0     H91923  10.178   8.790   4.189 -2.4548  1.3545  0.6286
  681MOL0     H91924  10.259   8.926   4.104  0.3613  1.9708  0.7344
  681MOL0     H91925  10.139   8.940   4.382  3.9815  0.7445  1.7027
  681MOL0     H91926  10.057   8.989   4.233 -0.3757 -1.1600 -0.2793
  681MOL0     H91927  10.249   9.161   4.209 -1.3437  0.9709  0.1125
  681MOL0     H91928  10.330   9.099   4.342  0.4513  2.5846  1.1751
  681MOL0     H91929  10.137   9.164   4.494 -2.8398  1.0391 -0.4722
  681MOL0     H91930  10.214   9.296   4.412 -0.5274  0.8770 -1.3591
  681MOL0     H91931   9.822   9.307   4.256  0.2329  2.4083  0.1104
  681MOL0     H91932  10.543   8.880   4.449 -1.1295  0.1066  0.2830
  681MOL0     H91933  10.703   8.622   4.629  0.2100  0.0936 -0.7841
  681MOL0     H91934  10.690   8.797   4.603  0.0757  0.1421  0.9436
  681MOL0     H91935  10.610   8.732   4.746 -1.6977  1.6163 -0.9176
  682MOL0     O91936   4.885   0.154   0.655  0.4030 -0.1193 -0.2776
  682MOL0     C91937   5.004   0.170   0.622 -0.3405 -0.7502 -0.5649
  682MOL0     O91938   5.082   0.082   0.547  0.8969  0.9058 -0.3520
  682MOL0     C91939   5.004  -0.020   0.501  0.2511  0.0658 -0.2934
  682MOL0     C91940   5.010  -0.146   0.559 -1.2981 -0.8584 -0.5196
  682MOL0     C91941   4.920  -0.239   0.515 -0.5017  0.3829  0.2984
  682MOL0     C91942   4.834  -0.228   0.406 -0.2947 -0.1920  0.2115
  682MOL0     O91943   4.759  -0.338   0.380 -0.5554 -0.2456  0.2132
  682MOL0     C91944   4.662  -0.322   0.272 -0.3385  0.0820 -0.0437
  682MOL0     C91945   4.646  -0.459   0.206 -0.1071 -0.0521  0.6719
  682MOL0     C91946   4.638  -0.578   0.309 -0.3840  0.5115 -0.2550
  682MOL0     C91947   4.600  -0.712   0.243 -1.0284 -0.4452 -1.2967
  682MOL0     C91948   4.615  -0.828   0.340 -0.0568  0.4899 -0.1034
  682MOL0     C91949   4.569  -0.955   0.279  0.0729 -0.3617  0.5676
  682MOL0     C91950   4.574  -1.070   0.373 -0.1904  0.5539 -0.3688
  682MOL0     C91951   4.704  -1.084   0.456  0.9911 -0.2248  0.6815
  682MOL0     N91952   4.709  -1.204   0.540  0.1245 -0.3589 -0.6128
  682MOL0     C91953   4.815  -1.248   0.615  0.6537  1.0890  0.3597
  682MOL0     C91954   4.761  -1.347   0.692 -0.8886 -0.1422 -0.4028
  682MOL0     C91955   4.832  -1.409   0.817  0.5620  0.3936 -0.2456
  682MOL0     C91956   4.749  -1.517   0.877 -0.3514 -0.0345  0.1444
  682MOL0     C91957   4.841  -1.601   0.971 -0.0829  0.0529  0.3110
  682MOL0     C91958   4.743  -1.695   1.043  0.5262  0.2809  0.2873
  682MOL0     O91959   4.658  -1.612   1.134  0.6842  0.6777  0.4255
  682MOL0     C91960   4.519  -1.618   1.115 -0.6248  1.3815 -0.2852
  682MOL0     C91961   4.456  -1.623   0.989 -0.0334 -0.1189 -0.6729
  682MOL0     C91962   4.314  -1.624   0.979  0.3205  0.1658 -0.1431
  682MOL0     C91963   4.232  -1.612   1.088 -0.4249  0.5388  0.2583
  682MOL0     C91964   4.093  -1.622   1.079  0.1010 -0.0753 -0.7372
  682MOL0     O91965   4.042  -1.682   0.976 -0.8696  0.2446 -0.1109
  682MOL0     C91966   3.913  -1.723   0.982 -0.4518  0.5422  0.1658
  682MOL0     C91967   3.803  -1.627   0.993 -1.1932  0.1462  0.6514
  682MOL0     C91968   3.669  -1.671   1.009  0.2482  0.5384  0.6098
  682MOL0     C91969   3.632  -1.810   0.995 -0.3905  0.6246 -0.3501
  682MOL0     O91970   3.498  -1.846   1.011  0.3312  0.2835  0.2587
  682MOL0     C91971   3.451  -1.980   0.985  0.7094  0.7846  0.1112
  682MOL0     C91972   3.332  -1.996   1.077  0.8186 -0.1278 -1.2233
  682MOL0     C91973   3.378  -2.019   1.222  0.2601 -1.0900 -0.3557
  682MOL0     C91974   3.244  -2.016   1.317  0.2606 -0.0581  0.0583
  682MOL0     C91975   3.290  -2.000   1.465  0.9410 -0.2562  1.2362
  682MOL0     C91976   3.165  -1.992   1.561  0.1050  0.3411  0.4611
  682MOL0     C91977   3.191  -1.987   1.706 -0.5455  0.1259  0.8783
  682MOL0     C91978   3.060  -1.995   1.789 -0.4682 -0.0421  0.1321
  682MOL0    Cl91979   3.107  -1.983   1.962 -0.0562 -0.1570  0.4985
  682MOL0     C91980   3.742  -1.905   0.981  0.3012  0.6849  0.3607
  682MOL0     C91981   3.875  -1.860   0.983  0.3771 -0.1059 -0.0853
  682MOL0     O91982   4.023  -1.576   1.171 -0.3481 -0.2475 -0.1986
  682MOL0     C91983   4.296  -1.603   1.216 -0.1023  1.3017  0.2244
  682MOL0     C91984   4.445  -1.599   1.227  1.2766 -0.7814 -0.3490
  682MOL0     N91985   4.632  -1.373   0.651  0.2508 -0.2077 -0.4314
  682MOL0     N91986   4.604  -1.283   0.557  0.3996  0.5870 -0.2173
  682MOL0     C91987   4.823  -0.103   0.345 -0.3152 -0.7233 -1.2444
  682MOL0     C91988   4.903   0.000   0.396  0.8474 -0.7029  0.3238
  682MOL0     C91989   5.059   0.297   0.666 -0.4860  0.1624 -0.5251
  682MOL0     C91990   5.158   0.351   0.584 -0.2241 -0.7262 -0.0583
  682MOL0     C91991   5.209   0.484   0.610  0.1915  0.2721 -0.1266
  682MOL0     C91992   5.162   0.558   0.717 -1.1018 -0.0957 -0.1706
  682MOL0     O91993   5.216   0.689   0.728  0.6296  0.7545  0.8295
  682MOL0     C91994   5.192   0.757   0.852  0.4845 -0.2840  0.4180
  682MOL0     C91995   5.255   0.891   0.855 -0.1512 -0.0944 -0.1254
  682MOL0     C91996   5.403   0.908   0.832  0.3784 -0.1658  0.6871
  682MOL0     C91997   5.474   0.898   0.968  0.2611  0.3509  0.5129
  682MOL0     C91998   5.621   0.905   0.959 -0.8439  0.5887 -0.4639
  682MOL0     C91999   5.742   0.893   0.955  0.4216  1.0704 -0.6170
  682MOL0     C92000   5.070   0.494   0.812 -0.1109  0.3640 -0.1813
  682MOL0     C92001   5.025   0.362   0.782  0.0198 -0.2197 -0.4935
  682MOL0     C92002   4.913   0.310   0.878 -0.0953  0.6366  0.1691
  682MOL0     H92003   5.077  -0.165   0.642 -0.2550  1.8532 -0.6309
  682MOL0     H92004   4.923  -0.342   0.552 -0.9215  0.5218  0.7291
  682MOL0     H92005   4.568  -0.282   0.312  0.2871  2.4489 -0.7899
  682MOL0     H92006   4.709  -0.264   0.192  0.8230  1.4234  1.5405
  682MOL0     H92007   4.735  -0.483   0.147  1.5756 -1.3413  3.5470
  682MOL0     H92008   4.560  -0.461   0.138 -0.4657 -2.2687  1.0975
  682MOL0     H92009   4.556  -0.566   0.380  0.4625  0.4169  0.7606
  682MOL0     H92010   4.733  -0.579   0.362 -1.2785 -0.2367  1.4238
  682MOL0     H92011   4.495  -0.704   0.216 -1.3449  0.0078 -0.0309
  682MOL0     H92012   4.659  -0.722   0.152 -0.4367  0.8449 -1.0847
  682MOL0     H92013   4.720  -0.833   0.372 -0.7258 -0.8211  2.1289
  682MOL0     H92014   4.552  -0.797   0.424 -0.6599  3.5129 -1.5416
  682MOL0     H92015   4.467  -0.947   0.241  0.3991 -1.0460 -0.4806
  682MOL0     H92016   4.626  -0.995   0.195 -1.8127 -1.5821 -0.1871
  682MOL0     H92017   4.572  -1.165   0.320  2.0966 -1.6054  2.9728
  682MOL0     H92018   4.488  -1.058   0.440  0.9224  3.9120  0.6545
  682MOL0     H92019   4.793  -1.089   0.393  1.0360 -2.1838  0.8479
  682MOL0     H92020   4.714  -0.991   0.513  1.2763  0.5158 -0.5456
  682MOL0     H92021   4.911  -1.197   0.619  1.8793 -1.0508  0.1002
  682MOL0     H92022   4.925  -1.453   0.780  0.7695  1.5965 -1.2310
  682MOL0     H92023   4.848  -1.328   0.889  0.0292  0.7332 -0.5076
  682MOL0     H92024   4.672  -1.480   0.945 -0.5272 -1.7533  0.9395
  682MOL0     H92025   4.705  -1.587   0.805  0.3396 -1.5380  1.1353
  682MOL0     H92026   4.903  -1.540   1.036  1.9771 -0.7006 -0.8408
  682MOL0     H92027   4.915  -1.655   0.910 -3.5911 -4.1160 -0.7938
  682MOL0     H92028   4.803  -1.770   1.096 -0.6562 -0.4258  0.6782
  682MOL0     H92029   4.694  -1.755   0.965  4.3201 -1.6519 -0.9045
  682MOL0     H92030   4.516  -1.629   0.898  1.2479  0.8340  0.0862
  682MOL0     H92031   4.263  -1.620   0.883 -1.2859  0.9905  0.7128
  682MOL0     H92032   3.827  -1.521   1.001 -1.6441  0.4914 -1.7613
  682MOL0     H92033   3.593  -1.593   1.011 -0.3499 -0.0080  3.7533
  682MOL0     H92034   3.435  -2.001   0.879  3.2873 -0.4523 -0.1261
  682MOL0     H92035   3.525  -2.053   1.021 -0.0017 -0.3439 -0.6212
  682MOL0     H92036   3.271  -1.907   1.067  0.5490 -0.3012 -1.1288
  682MOL0     H92037   3.278  -2.085   1.042  0.0705  1.3685 -4.1945
  682MOL0     H92038   3.431  -2.114   1.233  0.8092 -1.4435 -4.4215
  682MOL0     H92039   3.443  -1.932   1.236 -0.8226 -0.4891  1.1454
  682MOL0     H92040   3.184  -2.107   1.305 -1.4794  0.7922  1.7525
  682MOL0     H92041   3.171  -1.941   1.286  0.1636  0.1706  0.8214
  682MOL0     H92042   3.343  -1.904   1.473  2.1760 -0.9634  1.7687
  682MOL0     H92043   3.350  -2.085   1.495 -0.0987 -0.5086  2.7404
  682MOL0     H92044   3.101  -1.913   1.520 -1.8115 -1.9054 -1.1660
  682MOL0     H92045   3.098  -2.077   1.549 -1.5103  1.8551 -2.4894
  682MOL0     H92046   3.231  -1.888   1.732 -0.5821  0.2999  0.2946
  682MOL0     H92047   3.258  -2.069   1.732  0.1126  0.2843 -0.2877
  682MOL0     H92048   2.998  -1.910   1.759  1.6858  1.8275  0.6812
  682MOL0     H92049   3.007  -2.091   1.781 -1.9854  0.8740 -1.6092
  682MOL0     H92050   3.726  -2.012   0.985 -1.9984  0.9500 -0.6217
  682MOL0     H92051   3.954  -1.934   0.991 -0.6812 -1.2972 -0.2335
  682MOL0     H92052   4.237  -1.601   1.307 -3.1129 -0.0297 -1.5515
  682MOL0     H92053   4.491  -1.601   1.326 -0.2943 -1.2654  0.4045
  682MOL0     H92054   4.758  -0.074   0.263 -0.1102  1.4001 -0.7170
  682MOL0     H92055   4.888   0.094   0.344  0.4513 -0.4450  0.8944
  682MOL0     H92056   5.196   0.303   0.494  2.6263 -3.5839  2.4378
  682MOL0     H92057   5.276   0.537   0.543  1.8602 -0.7619  0.6479
  682MOL0     H92058   5.215   0.699   0.942 -0.9454 -2.7369 -0.6895
  682MOL0     H92059   5.084   0.772   0.862  0.7906  2.4290  0.3810
  682MOL0     H92060   5.233   0.945   0.947  1.2388 -0.0746  0.2150
  682MOL0     H92061   5.201   0.943   0.775 -1.2394 -2.7407 -1.2432
  682MOL0     H92062   5.434   0.994   0.771  0.8520 -1.0554 -0.3546
  682MOL0     H92063   5.434   0.828   0.764  0.9834  0.8546 -0.2925
  682MOL0     H92064   5.444   0.977   1.038  0.1378 -0.7257  1.6998
  682MOL0     H92065   5.452   0.800   1.010 -4.6326  0.3245 -1.4998
  682MOL0     H92066   5.848   0.881   0.970 -0.0825 -2.8737  0.9483
  682MOL0     H92067   5.037   0.553   0.897  2.9388  2.4210 -0.2542
  682MOL0     H92068   4.819   0.340   0.831 -0.0383  0.1745 -0.2461
  682MOL0     H92069   4.905   0.201   0.882  0.3693  0.5552 -0.8808
  682MOL0     H92070   4.908   0.354   0.978 -1.8739 -1.8297  1.2837
  683MOL0     O92071   6.447   9.359   9.082 -0.1690 -0.0455  0.5622
  683MOL0     C92072   6.515   9.374   8.975  0.3426  0.4000 -0.5771
  683MOL0     O92073   6.505   9.294   8.859 -0.2796  0.4587 -0.2148
  683MOL0     C92074   6.405   9.201   8.848  0.7255  0.7160 -0.0148
  683MOL0     C92075   6.429   9.103   8.752 -0.0639 -0.2062  0.1379
  683MOL0     C92076   6.339   8.999   8.731 -0.3138 -1.5108 -0.0632
  683MOL0     C92077   6.223   8.989   8.806  0.3327 -0.0675 -0.2632
  683MOL0     O92078   6.134   8.890   8.779 -0.1534 -0.2484 -0.2795
  683MOL0     C92079   6.001   8.926   8.759 -0.2376  0.5008 -0.6356
  683MOL0     C92080   5.905   8.872   8.871 -0.1325 -0.7140 -0.5039
  683MOL0     C92081   5.933   8.725   8.889  0.6779  0.0796 -0.5774
  683MOL0     C92082   5.844   8.680   8.998 -0.1144 -0.3844 -1.1899
  683MOL0     C92083   5.857   8.524   9.020 -0.2011 -0.1630 -0.0279
  683MOL0     C92084   5.790   8.438   8.909 -0.2788 -0.5896  0.6746
  683MOL0     C92085   5.639   8.424   8.929  0.7546  0.7244  0.2702
  683MOL0     C92086   5.588   8.284   8.972  0.1890 -0.2948 -0.6152
  683MOL0     N92087   5.608   8.265   9.114 -0.3525  0.6408  0.0327
  683MOL0     C92088   5.732   8.232   9.163  0.4474 -1.3513  0.2187
  683MOL0     C92089   5.708   8.237   9.302  0.2964 -0.9350  0.7488
  683MOL0     C92090   5.819   8.211   9.406  0.1543  0.5665 -0.2152
  683MOL0     C92091   5.796   8.077   9.473  0.0010 -0.5635  0.9560
  683MOL0     C92092   5.905   8.057   9.573 -0.3413  0.0139  0.1295
  683MOL0     C92093   5.916   7.913   9.616 -0.6226 -0.1512 -0.6078
  683MOL0     O92094   6.012   7.919   9.722  0.1182  0.0253  0.9822
  683MOL0     C92095   6.103   7.810   9.722  0.8706 -0.9235 -1.0680
  683MOL0     C92096   6.064   7.682   9.713  0.9238 -0.8198  0.5926
  683MOL0     C92097   6.158   7.584   9.735 -0.0545 -0.2778  0.1819
  683MOL0     C92098   6.296   7.613   9.756  0.4450 -0.1222  0.8433
  683MOL0     C92099   6.395   7.501   9.798 -0.0620  0.6252 -0.5299
  683MOL0     O92100   6.529   7.535   9.822  0.0234 -0.4024  0.1584
  683MOL0     C92101   6.614   7.439   9.844  0.1095 -0.4726 -0.2754
  683MOL0     C92102   6.668   7.427   9.975 -0.7392  0.5968 -0.5043
  683MOL0     C92103   6.766   7.334  10.009 -0.1508  0.4675  0.9264
  683MOL0     C92104   6.793   7.228   9.920  0.3164  0.5696  0.0355
  683MOL0     O92105   6.853   7.112   9.945 -0.5837  0.0571 -0.3092
  683MOL0     C92106   6.849   7.057  10.075 -0.4989  0.0635  0.4289
  683MOL0     C92107   6.935   6.933  10.078 -0.2376 -0.7964  0.3166
  683MOL0     C92108   6.930   6.865  10.209 -0.8782  0.1475 -0.5776
  683MOL0     C92109   6.922   6.715  10.194 -0.1500  0.3093 -0.4354
  683MOL0     C92110   6.889   6.636  10.328 -0.8467 -0.1207 -0.1083
  683MOL0     C92111   7.004   6.585  10.408  0.4379 -0.3271  0.9245
  683MOL0     C92112   6.963   6.509  10.538 -0.2880 -1.1797  0.1506
  683MOL0     C92113   7.082   6.447  10.609 -0.8416  0.0159  0.6854
  683MOL0    Cl92114   7.141   6.305  10.502 -0.2573 -0.3537 -0.3110
  683MOL0     C92115   6.747   7.242   9.780  0.5295  0.5356  0.0594
  683MOL0     C92116   6.661   7.348   9.750  0.2126 -0.5701  0.7358
  683MOL0     O92117   6.342   7.389   9.827 -0.2004 -0.1993 -0.0063
  683MOL0     C92118   6.333   7.740   9.767 -0.8947  0.5339 -0.5141
  683MOL0     C92119   6.236   7.847   9.754 -0.3330  0.0286 -0.0028
  683MOL0     N92120   5.577   8.274   9.323 -0.8279 -0.0148 -0.7006
  683MOL0     N92121   5.517   8.280   9.211 -0.3612  0.1763  0.3207
  683MOL0     C92122   6.196   9.090   8.895  0.6023 -0.2354  0.3570
  683MOL0     C92123   6.278   9.201   8.918 -0.1839 -0.4611  0.3098
  683MOL0     C92124   6.625   9.482   8.967  0.0943  0.3106  0.6936
  683MOL0     C92125   6.656   9.543   8.837 -1.0942  0.3418 -0.2604
  683MOL0     C92126   6.760   9.638   8.826  1.0020 -0.7675 -0.5715
  683MOL0     C92127   6.831   9.681   8.928 -0.3834 -0.7779 -0.0408
  683MOL0     O92128   6.939   9.763   8.901 -0.3290  0.1386 -0.4219
  683MOL0     C92129   7.019   9.811   9.006  1.9757  0.1191  0.1567
  683MOL0     C92130   7.120   9.914   8.965  0.4142  0.4341  0.3166
  683MOL0     C92131   7.215   9.962   9.062 -0.5809 -0.0064 -0.5023
  683MOL0     C92132   7.313  10.078   9.004  0.6902  1.0660 -0.4613
  683MOL0     C92133   7.422  10.033   8.919 -0.7866 -1.3565 -0.2138
  683MOL0     C92134   7.515  10.002   8.842 -0.5302  0.1010 -0.5077
  683MOL0     C92135   6.801   9.623   9.058 -0.1170 -0.3402  0.4215
  683MOL0     C92136   6.696   9.531   9.071  0.8362  0.5835 -0.3315
  683MOL0     C92137   6.665   9.483   9.214  0.0661  0.1150 -0.9107
  683MOL0     H92138   6.516   9.108   8.687 -0.3547 -1.1243 -0.3408
  683MOL0     H92139   6.361   8.918   8.661  0.0193 -1.3175 -0.1869
  683MOL0     H92140   5.988   9.035   8.750 -0.8428  0.9385  3.6685
  683MOL0     H92141   5.967   8.878   8.666  0.1084 -1.7015  0.3311
  683MOL0     H92142   5.798   8.879   8.852 -0.2277 -0.5421  0.0598
  683MOL0     H92143   5.916   8.937   8.958  1.2819  0.9333 -1.8314
  683MOL0     H92144   6.036   8.720   8.927  0.1053  1.4470  1.2540
  683MOL0     H92145   5.930   8.677   8.791  1.2326  1.7767 -1.4652
  683MOL0     H92146   5.874   8.737   9.086 -2.3828  1.3151 -1.4272
  683MOL0     H92147   5.742   8.711   8.976 -0.8212 -0.9984  0.9731
  683MOL0     H92148   5.962   8.499   9.036  0.1761  0.7426 -0.9626
  683MOL0     H92149   5.799   8.521   9.112  0.5565  4.0409  0.7698
  683MOL0     H92150   5.815   8.465   8.806  0.6087 -0.9944  0.7795
  683MOL0     H92151   5.835   8.339   8.907  0.0861 -0.5330 -3.6598
  683MOL0     H92152   5.593   8.421   8.829  0.6480 -3.0972  0.3014
  683MOL0     H92153   5.597   8.513   8.977  2.7254  2.5266 -1.1297
  683MOL0     H92154   5.480   8.287   8.961  0.0591 -2.4847 -0.3540
  683MOL0     H92155   5.637   8.209   8.908  2.9481  2.5781 -2.2159
  683MOL0     H92156   5.824   8.211   9.110  0.0700 -3.6579  0.3989
  683MOL0     H92157   5.914   8.217   9.354 -0.6900 -1.5334 -2.2117
  683MOL0     H92158   5.817   8.286   9.485  4.1952 -0.1324  0.7661
  683MOL0     H92159   5.696   8.076   9.518  0.4782 -0.9792  2.0361
  683MOL0     H92160   5.800   7.997   9.399 -0.4750  1.8627 -1.8889
  683MOL0     H92161   5.906   8.126   9.657  2.1666  0.3985 -0.1364
  683MOL0     H92162   6.004   8.072   9.530 -0.3064 -3.1132 -1.1472
  683MOL0     H92163   5.947   7.850   9.533  1.7467  0.2662 -0.1191
  683MOL0     H92164   5.824   7.874   9.662 -1.5177  2.7959  0.3546
  683MOL0     H92165   5.960   7.665   9.687  1.1882 -0.8869 -0.4917
  683MOL0     H92166   6.117   7.483   9.736 -0.0527 -0.2859  1.5488
  683MOL0     H92167   6.652   7.507  10.048  3.0331  0.9977  0.0915
  683MOL0     H92168   6.795   7.324  10.114 -0.4947 -0.4483  0.9482
  683MOL0     H92169   6.893   7.128  10.145  0.5325 -0.2832  0.1507
  683MOL0     H92170   6.746   7.038  10.107 -0.4776  0.9186  1.0270
  683MOL0     H92171   6.908   6.871   9.992 -0.9813 -0.7137  0.4850
  683MOL0     H92172   7.036   6.966  10.051 -0.1079  0.2376  1.9574
  683MOL0     H92173   7.013   6.895  10.274 -1.9765  1.7809  0.1367
  683MOL0     H92174   6.844   6.897  10.268 -0.8699 -1.2970  0.2785
  683MOL0     H92175   7.024   6.689  10.164  0.3161  3.5414 -2.0910
  683MOL0     H92176   6.848   6.683  10.120  1.1335  1.6099 -2.3798
  683MOL0     H92177   6.820   6.556  10.301  2.1550 -3.3486  1.1383
  683MOL0     H92178   6.842   6.715  10.388  0.3198  1.7737 -1.5761
  683MOL0     H92179   7.080   6.530  10.352 -1.0433 -0.5540 -0.9516
  683MOL0     H92180   7.044   6.683  10.438 -2.1876  1.9173 -2.2033
  683MOL0     H92181   6.889   6.432  10.511 -0.4507 -1.0980  0.3612
  683MOL0     H92182   6.915   6.574  10.611  0.3359 -1.0805  0.4736
  683MOL0     H92183   7.169   6.511  10.626  0.9693 -2.2564  0.4438
  683MOL0     H92184   7.053   6.407  10.706 -1.2405  1.5534  1.2325
  683MOL0     H92185   6.770   7.157   9.717 -1.1736  1.5896 -2.1183
  683MOL0     H92186   6.617   7.364   9.652 -2.3460 -1.9990  1.5674
  683MOL0     H92187   6.438   7.767   9.777 -0.8635  0.5195 -0.7952
  683MOL0     H92188   6.256   7.952   9.768 -1.7221  0.1524  1.3710
  683MOL0     H92189   6.099   9.089   8.944  1.2643  2.3194  1.9630
  683MOL0     H92190   6.241   9.260   9.002  0.8562 -0.2340  0.6266
  683MOL0     H92191   6.586   9.515   8.760 -2.7672  2.6710  0.3121
  683MOL0     H92192   6.786   9.688   8.733  4.0252 -0.8248  0.1406
  683MOL0     H92193   7.056   9.728   9.068 -0.9772  0.4780  2.6917
  683MOL0     H92194   6.963   9.885   9.064  1.4356  1.5374 -2.0545
  683MOL0     H92195   7.069   9.997   8.915  1.5370 -0.0715 -1.7561
  683MOL0     H92196   7.180   9.861   8.890 -0.1675 -0.8022  0.6892
  683MOL0     H92197   7.281   9.879   9.087  0.5033  0.9808 -0.0115
  683MOL0     H92198   7.173  10.002   9.154 -1.0931  2.8320 -1.8640
  683MOL0     H92199   7.246  10.150   8.956  1.9130  0.9083 -2.4993
  683MOL0     H92200   7.344  10.140   9.088  2.8121 -0.1578 -0.2757
  683MOL0     H92201   7.592   9.969   8.776  0.9373 -0.2752  1.3187
  683MOL0     H92202   6.858   9.660   9.143  2.1889 -1.0906 -0.7074
  683MOL0     H92203   6.579   9.545   9.242  2.5666  5.2717 -3.3141
  683MOL0     H92204   6.645   9.378   9.240 -0.4037  0.5736  0.7421
  683MOL0     H92205   6.754   9.503   9.275 -0.0567 -0.1444 -0.6377
  684MOL0     O92206   8.840   8.277   3.761  0.5334  0.1941  0.3055
  684MOL0     C92207   8.747   8.357   3.763 -0.2638 -0.4183  0.1722
  684MOL0     O92208   8.722   8.449   3.868 -0.4414 -0.0439 -0.4204
  684MOL0     C92209   8.783   8.417   3.990 -0.4093  0.4415 -0.9483
  684MOL0     C92210   8.884   8.503   4.040  0.0822  0.5704  0.0630
  684MOL0     C92211   8.941   8.478   4.173  0.1716 -0.4283 -0.3734
  684MOL0     C92212   8.898   8.366   4.250  0.9079  0.3397 -0.1887
  684MOL0     O92213   8.939   8.321   4.380  0.2323 -0.1601 -0.3696
  684MOL0     C92214   9.069   8.376   4.410 -0.7698  0.1927  0.7167
  684MOL0     C92215   9.122   8.304   4.533 -0.0932  0.7999  0.0755
  684MOL0     C92216   9.260   8.363   4.562  0.4632  0.4350  0.1302
  684MOL0     C92217   9.319   8.352   4.703  0.1361 -0.4226 -0.0663
  684MOL0     C92218   9.430   8.449   4.744 -1.1956  0.8837 -0.1558
  684MOL0     C92219   9.440   8.443   4.899  0.2978 -0.6492 -0.1061
  684MOL0     C92220   9.438   8.307   4.973 -0.1558 -0.4123  0.7157
  684MOL0     C92221   9.545   8.199   4.917 -0.6790  0.6379 -0.2557
  684MOL0     N92222   9.497   8.063   4.964  0.2680 -0.5860 -0.4633
  684MOL0     C92223   9.522   8.017   5.100 -0.0035 -0.7058 -0.4885
  684MOL0     C92224   9.493   7.880   5.082  0.2223  0.3780 -0.0265
  684MOL0     C92225   9.491   7.780   5.188 -0.2522 -0.0008 -0.0907
  684MOL0     C92226   9.609   7.692   5.173 -0.3686 -0.7414  0.1427
  684MOL0     C92227   9.747   7.762   5.199 -0.0845  0.2441  0.1149
  684MOL0     C92228   9.861   7.656   5.209 -0.5535  0.7109  0.5498
  684MOL0     O92229   9.833   7.538   5.281 -0.8347  0.1661 -0.0386
  684MOL0     C92230   9.936   7.450   5.313  0.3659  0.7491 -0.8103
  684MOL0     C92231  10.073   7.466   5.284 -0.6898  0.1603 -0.4309
  684MOL0     C92232  10.165   7.363   5.319  0.6303  0.0294 -0.0846
  684MOL0     C92233  10.122   7.241   5.366  0.3455  0.0176  0.2119
  684MOL0     C92234  10.221   7.123   5.388  0.0185 -0.1360 -0.6808
  684MOL0     O92235  10.343   7.127   5.324  0.5108  0.3092  0.3795
  684MOL0     C92236  10.420   7.012   5.330 -0.5120 -0.4268  0.2794
  684MOL0     C92237  10.491   6.993   5.446 -0.5136 -0.6009 -0.7111
  684MOL0     C92238  10.572   6.879   5.445  0.2676 -0.1762 -0.1584
  684MOL0     C92239  10.572   6.790   5.351  0.3276 -0.3529 -0.2778
  684MOL0     O92240  10.664   6.687   5.347  0.2947 -0.0953  0.0774
  684MOL0     C92241  10.602   6.554   5.358 -0.6108 -0.5003  0.1157
  684MOL0     C92242  10.713   6.453   5.320 -0.5189 -0.0155  0.3149
  684MOL0     C92243  10.786   6.460   5.176  0.2856  1.2277 -1.0315
  684MOL0     C92244  10.933   6.424   5.211 -0.4165 -0.1833 -0.0850
  684MOL0     C92245  10.968   6.288   5.244  1.7147 -0.0019  0.8827
  684MOL0     C92246  10.884   6.176   5.168  0.6854 -0.4124 -0.4149
  684MOL0     C92247  10.948   6.037   5.201 -0.4056 -0.0131  0.0549
  684MOL0     C92248  10.853   5.923   5.193  0.6284  0.7858  0.4029
  684MOL0    Cl92249  10.780   5.919   5.031  0.0052 -0.2014  0.0293
  684MOL0     C92250  10.492   6.814   5.237  0.4985 -0.1229  0.7759
  684MOL0     C92251  10.413   6.926   5.224 -0.4474  0.8524 -0.0148
  684MOL0     O92252  10.170   7.022   5.450 -0.3226 -0.3365  0.5660
  684MOL0     C92253   9.979   7.225   5.389 -0.0820 -0.2734  0.2580
  684MOL0     C92254   9.888   7.329   5.375  0.7219  0.6861  0.2884
  684MOL0     N92255   9.446   7.857   4.955 -0.1327 -0.2212 -0.1371
  684MOL0     N92256   9.458   7.966   4.883  0.7092  0.1638  0.6808
  684MOL0     C92257   8.797   8.280   4.197 -0.0600  0.3227 -1.1244
  684MOL0     C92258   8.754   8.303   4.062  1.2717  1.1970 -0.3137
  684MOL0     C92259   8.666   8.380   3.634 -0.1092  0.1986 -0.1365
  684MOL0     C92260   8.578   8.489   3.625  0.0761  1.4452 -0.1505
  684MOL0     C92261   8.498   8.506   3.516 -0.6128 -0.1452 -0.4685
  684MOL0     C92262   8.502   8.423   3.402 -1.2331 -0.5340 -0.5915
  684MOL0     O92263   8.426   8.426   3.285  0.8989 -0.1303 -0.0185
  684MOL0     C92264   8.330   8.530   3.288  0.1976 -0.3554  0.1922
  684MOL0     C92265   8.256   8.545   3.159  1.2954  0.3296  0.2193
  684MOL0     C92266   8.336   8.514   3.031 -0.2637  0.2257 -0.0932
  684MOL0     C92267   8.480   8.563   3.030 -0.1638 -0.7188  0.0296
  684MOL0     C92268   8.475   8.717   3.018 -1.1410  1.2689 -0.2241
  684MOL0     C92269   8.470   8.842   3.023  0.8244  0.2387 -0.8076
  684MOL0     C92270   8.587   8.321   3.402  0.1214  0.7887 -0.2248
  684MOL0     C92271   8.676   8.297   3.514  0.2126  0.1093  0.5112
  684MOL0     C92272   8.763   8.183   3.510  0.0321 -0.2091 -0.6156
  684MOL0     H92273   8.916   8.591   3.983  0.9211  0.7292  0.7485
  684MOL0     H92274   9.001   8.546   4.232 -1.9187 -0.4433  1.8968
  684MOL0     H92275   9.147   8.360   4.335  1.2699 -1.1476  2.9723
  684MOL0     H92276   9.055   8.482   4.432  0.8942  0.2548  1.6487
  684MOL0     H92277   9.132   8.196   4.515 -2.2914  0.1506  2.2421
  684MOL0     H92278   9.045   8.319   4.609 -2.5572  2.8122 -2.5669
  684MOL0     H92279   9.260   8.467   4.528  0.5297 -0.3938 -2.6497
  684MOL0     H92280   9.335   8.313   4.500  0.2691  0.1313  0.1402
  684MOL0     H92281   9.236   8.383   4.767  0.5939 -3.4916  2.2891
  684MOL0     H92282   9.333   8.245   4.720 -1.1206 -0.8896 -1.7405
  684MOL0     H92283   9.518   8.398   4.706 -1.7852  1.2705 -2.1239
  684MOL0     H92284   9.424   8.551   4.705 -0.4157  1.3002  0.7561
  684MOL0     H92285   9.541   8.479   4.924 -0.1287 -0.6648  1.8014
  684MOL0     H92286   9.367   8.508   4.948  1.6173  0.8267 -0.0071
  684MOL0     H92287   9.338   8.266   4.959  0.6561 -2.3494  0.3389
  684MOL0     H92288   9.453   8.323   5.081  0.4565 -1.1074  0.7382
  684MOL0     H92289   9.548   8.211   4.809  0.0279  1.7784 -0.1312
  684MOL0     H92290   9.635   8.234   4.969 -0.5165  2.7355 -1.8340
  684MOL0     H92291   9.536   8.061   5.199  0.9639 -0.9260 -0.5207
  684MOL0     H92292   9.482   7.819   5.290  1.3677  1.7404 -0.5668
  684MOL0     H92293   9.403   7.716   5.173  0.1480 -0.4432 -0.6065
  684MOL0     H92294   9.601   7.609   5.243  0.3305  0.4587  1.7191
  684MOL0     H92295   9.617   7.647   5.074 -0.8864 -0.3047 -0.1005
  684MOL0     H92296   9.735   7.819   5.291  2.4476 -2.3465  2.2368
  684MOL0     H92297   9.773   7.834   5.121 -0.8172  2.2657  1.6579
  684MOL0     H92298   9.942   7.707   5.262  2.4129  0.1441 -3.0609
  684MOL0     H92299   9.900   7.625   5.112 -4.3166 -0.5262 -0.7541
  684MOL0     H92300  10.104   7.555   5.229  1.1449 -3.0173 -5.1621
  684MOL0     H92301  10.271   7.371   5.295  0.5403  2.6636  0.0611
  684MOL0     H92302  10.479   7.061   5.529 -1.3838 -2.2327  0.5768
  684MOL0     H92303  10.634   6.851   5.530 -1.9280 -3.9547  0.4402
  684MOL0     H92304  10.566   6.542   5.461 -1.9758  1.4300 -0.0801
  684MOL0     H92305  10.507   6.553   5.305 -1.8528  0.1791  2.2031
  684MOL0     H92306  10.782   6.451   5.405  2.6478  1.3607 -1.9911
  684MOL0     H92307  10.673   6.352   5.327  0.1489 -0.6483 -3.0960
  684MOL0     H92308  10.746   6.388   5.105  1.0965  2.1821 -2.5055
  684MOL0     H92309  10.772   6.559   5.132 -1.8777  0.3615 -2.4277
  684MOL0     H92310  10.964   6.494   5.289 -1.8080 -0.0665  0.3841
  684MOL0     H92311  10.992   6.455   5.124 -0.8450 -1.4518 -0.8497
  684MOL0     H92312  10.953   6.266   5.350  1.4046  2.2556  1.3745
  684MOL0     H92313  11.072   6.274   5.215  0.6084 -0.6172 -3.4465
  684MOL0     H92314  10.776   6.182   5.188  0.3719  0.0298 -2.0611
  684MOL0     H92315  10.891   6.200   5.061  0.0999  0.6392 -0.2284
  684MOL0     H92316  10.984   6.044   5.304  1.4148  2.2150 -0.6528
  684MOL0     H92317  11.038   6.024   5.141 -0.7131  1.4140 -0.7615
  684MOL0     H92318  10.892   5.824   5.219 -1.8945 -0.8834 -1.5616
  684MOL0     H92319  10.777   5.943   5.270  1.0637  2.8854  0.3389
  684MOL0     H92320  10.502   6.738   5.161  0.9913 -0.8906  1.5911
  684MOL0     H92321  10.357   6.938   5.132 -1.9313  3.9122  1.1352
  684MOL0     H92322   9.930   7.129   5.403 -1.3837  0.7091  3.3821
  684MOL0     H92323   9.783   7.305   5.387  1.1085 -0.7488  0.9048
  684MOL0     H92324   8.761   8.194   4.252  4.4614 -0.6986  0.7612
  684MOL0     H92325   8.697   8.226   4.012  0.0486  2.2857 -0.6431
  684MOL0     H92326   8.590   8.566   3.701  1.7046  0.2205  0.9104
  684MOL0     H92327   8.425   8.587   3.521 -1.6290 -1.0465 -0.3215
  684MOL0     H92328   8.379   8.623   3.318 -1.5905  0.3803  1.0004
  684MOL0     H92329   8.257   8.504   3.365  0.4135  0.2917  0.6208
  684MOL0     H92330   8.213   8.645   3.148 -1.9263 -0.9575  0.1066
  684MOL0     H92331   8.161   8.491   3.165 -0.3620  2.7851 -1.8367
  684MOL0     H92332   8.293   8.566   2.944 -0.4048 -0.2748 -0.3277
  684MOL0     H92333   8.330   8.408   3.006 -2.7460  0.4381 -0.6959
  684MOL0     H92334   8.540   8.544   3.119 -0.0518 -0.5686 -0.0136
  684MOL0     H92335   8.531   8.522   2.942 -1.6734 -0.4637 -1.0053
  684MOL0     H92336   8.457   8.948   3.031  0.4033  0.1077  0.4889
  684MOL0     H92337   8.582   8.249   3.320  0.8022  1.2351 -0.6709
  684MOL0     H92338   8.868   8.213   3.520  0.1924 -1.3510  1.8272
  684MOL0     H92339   8.749   8.111   3.591 -2.8099  0.4773 -0.3957
  684MOL0     H92340   8.771   8.117   3.423  0.7265 -2.0473  0.7668
  685MOL0     O92341   7.463   2.287   5.709  0.2436  0.8322 -0.1501
  685MOL0     C92342   7.445   2.250   5.588 -0.1271  0.2118 -0.4124
  685MOL0     O92343   7.533   2.240   5.485 -0.1192  0.3938  0.5329
  685MOL0     C92344   7.661   2.280   5.521  0.3788  0.8312  0.9811
  685MOL0     C92345   7.752   2.188   5.577 -0.0366 -0.4175 -0.1747
  685MOL0     C92346   7.885   2.229   5.603 -0.0847  0.7233 -0.1117
  685MOL0     C92347   7.936   2.352   5.564 -0.4348 -0.5997  0.8360
  685MOL0     O92348   8.067   2.384   5.577  0.2296 -0.0807  0.1929
  685MOL0     C92349   8.127   2.361   5.706  0.7861 -0.5336 -0.0406
  685MOL0     C92350   8.220   2.470   5.739 -1.1084  0.2610 -0.3476
  685MOL0     C92351   8.164   2.582   5.825 -0.1328  1.0749  0.3608
  685MOL0     C92352   8.144   2.538   5.969  0.0026 -0.4268  0.2375
  685MOL0     C92353   8.143   2.641   6.074 -0.2007  0.0576 -0.4388
  685MOL0     C92354   8.038   2.741   6.053  0.8867  1.5836  0.2212
  685MOL0     C92355   8.015   2.807   6.189 -0.7647  0.3414  0.1765
  685MOL0     C92356   7.923   2.932   6.192  0.5288 -1.1884 -0.2287
  685MOL0     N92357   7.997   3.051   6.137 -0.1726 -0.4264 -0.4971
  685MOL0     C92358   8.110   3.116   6.193  0.9433  0.8893 -0.1661
  685MOL0     C92359   8.135   3.214   6.103  0.4027  0.0448  0.5361
  685MOL0     C92360   8.239   3.318   6.108 -0.5533 -0.1006 -0.5094
  685MOL0     C92361   8.236   3.417   5.988 -0.6412 -0.2163 -0.2266
  685MOL0     C92362   8.301   3.549   6.030 -0.3998  0.2771  0.7242
  685MOL0     C92363   8.296   3.660   5.918 -0.1222  0.3002 -0.4438
  685MOL0     O92364   8.394   3.638   5.814 -0.5288 -0.3211 -0.5080
  685MOL0     C92365   8.449   3.755   5.761 -0.3770 -0.2131 -0.1806
  685MOL0     C92366   8.501   3.736   5.632  0.1389 -0.4410 -0.2277
  685MOL0     C92367   8.582   3.837   5.573  1.0139 -0.9339 -0.2108
  685MOL0     C92368   8.606   3.955   5.637 -0.2733 -0.7603  0.2090
  685MOL0     C92369   8.709   4.056   5.588  0.3954  0.2496  0.1672
  685MOL0     O92370   8.730   4.168   5.679 -0.1478  0.1320 -0.2523
  685MOL0     C92371   8.803   4.276   5.636 -0.3410  0.6990  0.1719
  685MOL0     C92372   8.936   4.263   5.592 -0.9743  0.8765 -0.5996
  685MOL0     C92373   9.000   4.377   5.531  0.3602  0.0345 -0.1797
  685MOL0     C92374   8.950   4.506   5.541 -0.4052 -0.8085  0.0290
  685MOL0     O92375   9.011   4.616   5.484 -0.3214  0.8051  1.0622
  685MOL0     C92376   9.153   4.617   5.486 -0.3767  0.1664 -0.7404
  685MOL0     C92377   9.225   4.741   5.429 -0.2770 -0.3927  0.2424
  685MOL0     C92378   9.205   4.740   5.280 -0.4201  0.0490 -0.1513
  685MOL0     C92379   9.272   4.858   5.218  0.1217 -0.6558  0.1828
  685MOL0     C92380   9.222   4.867   5.060 -1.2572  0.0748 -1.0357
  685MOL0     C92381   9.305   4.965   4.976 -0.3475  0.5204 -0.6573
  685MOL0     C92382   9.249   4.956   4.827  0.5001 -0.6101 -0.0473
  685MOL0     C92383   9.336   5.052   4.731 -0.7794 -0.3667 -0.4032
  685MOL0    Cl92384   9.298   5.004   4.570  0.3435  0.0212 -0.1053
  685MOL0     C92385   8.813   4.520   5.586  0.1918  0.1759 -0.0941
  685MOL0     C92386   8.738   4.406   5.626 -0.0502 -0.3721 -0.1771
  685MOL0     O92387   8.762   4.047   5.481 -0.1506 -0.1637  0.2057
  685MOL0     C92388   8.540   3.980   5.755  0.3763 -0.1299  0.0681
  685MOL0     C92389   8.472   3.883   5.825 -0.0439  0.9409 -0.0725
  685MOL0     N92390   8.036   3.201   5.998 -0.3896 -0.6766  0.9027
  685MOL0     N92391   7.962   3.097   6.018 -0.2462 -1.4355 -1.1313
  685MOL0     C92392   7.843   2.430   5.490  0.5114  0.5788  0.4893
  685MOL0     C92393   7.705   2.401   5.480 -1.3145 -0.7019 -0.1871
  685MOL0     C92394   7.305   2.240   5.543  0.0345  0.0426 -0.7116
  685MOL0     C92395   7.276   2.281   5.403 -0.4232 -1.1945 -0.9324
  685MOL0     C92396   7.141   2.300   5.348 -0.9070  1.5766  0.3805
  685MOL0     C92397   7.034   2.263   5.426 -0.1723 -0.8752 -0.2165
  685MOL0     O92398   6.901   2.273   5.394 -0.5783  0.5394 -0.3159
  685MOL0     C92399   6.851   2.273   5.264  0.3269 -0.0583 -0.6785
  685MOL0     C92400   6.711   2.324   5.260  0.2464  0.7726 -0.2752
  685MOL0     C92401   6.704   2.475   5.297 -0.8124  0.6843 -0.2931
  685MOL0     C92402   6.558   2.525   5.288  0.4763  0.7623 -0.0661
  685MOL0     C92403   6.463   2.455   5.364 -1.0345 -0.2205 -0.8874
  685MOL0     C92404   6.376   2.401   5.427  0.2493  0.0665 -0.9466
  685MOL0     C92405   7.051   2.221   5.558  0.6056 -0.1398  0.1278
  685MOL0     C92406   7.186   2.208   5.619 -0.0456  0.5305  0.5093
  685MOL0     C92407   7.202   2.154   5.754 -0.5852  0.1230 -1.1995
  685MOL0     H92408   7.718   2.085   5.581 -1.5107 -0.0551 -1.7187
  685MOL0     H92409   7.955   2.155   5.639  0.2173  1.3359  0.5969
  685MOL0     H92410   8.045   2.359   5.778  0.2307 -0.7225 -0.6698
  685MOL0     H92411   8.183   2.267   5.705  1.5801 -0.0759 -0.5091
  685MOL0     H92412   8.259   2.516   5.647  1.2914  0.2093  0.5707
  685MOL0     H92413   8.310   2.429   5.786 -1.3201 -0.3900 -0.5018
  685MOL0     H92414   8.073   2.621   5.778 -1.0266 -2.7620 -1.4595
  685MOL0     H92415   8.229   2.669   5.813 -0.1065  1.0220  0.1183
  685MOL0     H92416   8.048   2.486   5.968 -0.8590  1.1188 -0.0406
  685MOL0     H92417   8.229   2.473   5.989  0.1102 -0.3907 -0.0938
  685MOL0     H92418   8.139   2.597   6.174  1.4290  0.6102 -0.1016
  685MOL0     H92419   8.242   2.687   6.073  0.9176 -2.1582  1.0294
  685MOL0     H92420   8.062   2.810   5.972  0.4712 -0.2384 -1.5386
  685MOL0     H92421   7.945   2.689   6.028 -0.0430  1.7525  3.0200
  685MOL0     H92422   8.112   2.835   6.230 -1.1482 -0.9526  2.1405
  685MOL0     H92423   7.975   2.732   6.259 -0.8664 -1.6282 -1.8780
  685MOL0     H92424   7.842   2.907   6.124  0.8647  0.4106 -1.2490
  685MOL0     H92425   7.893   2.949   6.296 -1.7601 -0.1933 -0.9955
  685MOL0     H92426   8.148   3.084   6.289 -0.8624 -0.2759  0.2145
  685MOL0     H92427   8.221   3.366   6.205  0.2349 -4.6256  2.1549
  685MOL0     H92428   8.330   3.258   6.106 -1.3763 -1.5887  1.7874
  685MOL0     H92429   8.287   3.371   5.903 -0.2606  2.6514 -1.6618
  685MOL0     H92430   8.132   3.442   5.967 -0.2343  1.4082 -0.4337
  685MOL0     H92431   8.404   3.514   6.040 -0.8609 -2.0659 -1.5668
  685MOL0     H92432   8.270   3.583   6.129  0.7717 -0.4979  1.3760
  685MOL0     H92433   8.316   3.751   5.975 -1.2797  1.3185 -1.5960
  685MOL0     H92434   8.201   3.660   5.863  0.9120  0.0071 -2.2817
  685MOL0     H92435   8.477   3.649   5.572  0.3483  1.2086 -2.8534
  685MOL0     H92436   8.622   3.833   5.472 -0.8901 -0.3055 -1.0290
  685MOL0     H92437   8.982   4.167   5.611 -5.5943 -0.8852  4.0143
  685MOL0     H92438   9.103   4.362   5.500  1.0395  1.4639  1.2414
  685MOL0     H92439   9.175   4.621   5.593 -2.1760 -0.3221 -0.3247
  685MOL0     H92440   9.198   4.526   5.445 -1.9914  0.5897 -3.7018
  685MOL0     H92441   9.187   4.836   5.468  1.1571 -0.8147  2.8928
  685MOL0     H92442   9.331   4.738   5.457 -0.6191 -1.9725  1.5505
  685MOL0     H92443   9.242   4.647   5.234 -2.1081 -1.1180  0.7449
  685MOL0     H92444   9.098   4.734   5.258 -0.1650 -1.8790 -1.1380
  685MOL0     H92445   9.381   4.863   5.218  0.0924  1.6429  2.1565
  685MOL0     H92446   9.230   4.952   5.253  0.2207  0.6385 -2.8524
  685MOL0     H92447   9.122   4.909   5.065 -0.2507  2.4916  2.3865
  685MOL0     H92448   9.230   4.765   5.020  1.8068  0.7266 -2.3242
  685MOL0     H92449   9.298   5.064   5.023  0.7762 -0.7994  2.5246
  685MOL0     H92450   9.410   4.937   4.967  0.0887  1.7404  0.3705
  685MOL0     H92451   9.144   4.966   4.800  0.0500 -1.0219  1.4247
  685MOL0     H92452   9.263   4.849   4.806  3.4744 -0.3630  0.3116
  685MOL0     H92453   9.303   5.155   4.745  1.3566  0.2253  0.7393
  685MOL0     H92454   9.440   5.043   4.764 -1.2452  0.6617  1.5405
  685MOL0     H92455   8.762   4.615   5.600 -0.0726  0.0944 -0.4648
  685MOL0     H92456   8.637   4.406   5.665  0.8490 -2.0986  2.4522
  685MOL0     H92457   8.552   4.078   5.801 -0.5190 -1.4180  3.3716
  685MOL0     H92458   8.435   3.901   5.925 -0.9464 -0.6437 -0.0706
  685MOL0     H92459   7.885   2.519   5.443  3.4803 -0.6279  0.6476
  685MOL0     H92460   7.625   2.460   5.434 -0.1187  1.4459  0.3393
  685MOL0     H92461   7.360   2.295   5.336  0.1224  0.3190  0.0303
  685MOL0     H92462   7.131   2.329   5.244  2.3617  3.6990  0.4881
  685MOL0     H92463   6.833   2.177   5.214 -3.0290  1.2832 -2.3248
  685MOL0     H92464   6.918   2.335   5.203 -0.4902 -3.2488 -5.3532
  685MOL0     H92465   6.644   2.263   5.322  0.5810 -0.6456 -1.2728
  685MOL0     H92466   6.666   2.303   5.163 -1.3600 -1.1806  0.8273
  685MOL0     H92467   6.762   2.529   5.221  1.3065  2.0595  2.1567
  685MOL0     H92468   6.743   2.498   5.396 -0.8886  2.2906 -0.5998
  685MOL0     H92469   6.544   2.622   5.337  0.1877  0.4141  0.5621
  685MOL0     H92470   6.525   2.510   5.185  0.3224 -1.1285  0.2093
  685MOL0     H92471   6.311   2.346   5.492 -0.3046  0.1794 -1.3932
  685MOL0     H92472   6.962   2.195   5.613 -0.5796 -1.8865 -2.4296
  685MOL0     H92473   7.274   2.072   5.765  0.9585  1.7589  2.9258
  685MOL0     H92474   7.241   2.230   5.822  2.6637 -1.8893 -0.5927
  685MOL0     H92475   7.106   2.112   5.786 -1.6000  1.6574 -2.0473
  686MOL0     O92476  10.530   9.743   0.719 -0.3787 -0.4196  0.5394
  686MOL0     C92477  10.570   9.632   0.701 -0.0129  0.1877 -0.1256
  686MOL0     O92478  10.540   9.561   0.584  0.5130  0.3092  0.5913
  686MOL0     C92479  10.491   9.641   0.480 -0.5523  0.6246 -1.5307
  686MOL0     C92480  10.589   9.691   0.389  0.6501  0.3467 -0.7829
  686MOL0     C92481  10.542   9.724   0.260  0.1169 -0.6767 -0.4289
  686MOL0     C92482  10.402   9.731   0.233 -0.7060  0.5260  0.0139
  686MOL0     O92483  10.369   9.769   0.106 -0.1128 -0.4049 -0.2158
  686MOL0     C92484  10.273   9.875   0.087 -1.4798  0.1795  0.6838
  686MOL0     C92485  10.294   9.914  -0.064  1.3400 -0.3478  0.4936
  686MOL0     C92486  10.432   9.951  -0.099 -0.5237 -0.3259  0.0317
  686MOL0     C92487  10.425  10.051  -0.221 -0.0968  0.9279 -0.0145
  686MOL0     C92488  10.560  10.113  -0.245  0.0637 -0.4217  0.9352
  686MOL0     C92489  10.593  10.216  -0.128 -0.9246 -0.3962 -0.7191
  686MOL0     C92490  10.684  10.333  -0.192  0.6216  1.0320 -0.2599
  686MOL0     C92491  10.835  10.305  -0.181 -0.3289 -0.2198 -0.5498
  686MOL0     N92492  10.917  10.407  -0.118  0.3956  0.0157 -0.3699
  686MOL0     C92493  10.921  10.449   0.013  0.4819  0.2546 -0.8095
  686MOL0     C92494  11.031  10.527   0.017 -0.5108 -1.2676  0.1701
  686MOL0     C92495  11.099  10.586   0.130  0.4723 -0.9672 -0.3889
  686MOL0     C92496  11.001  10.649   0.235 -0.3567 -0.0329  0.0990
  686MOL0     C92497  11.067  10.735   0.340 -1.1582 -0.2389  0.4107
  686MOL0     C92498  10.976  10.827   0.403  0.9914 -0.5420  0.1303
  686MOL0     O92499  10.872  10.748   0.462 -0.4542  0.4361 -0.1020
  686MOL0     C92500  10.750  10.799   0.491  0.2647  0.2383 -0.2281
  686MOL0     C92501  10.667  10.719   0.570  0.2309 -0.4155 -0.5933
  686MOL0     C92502  10.540  10.763   0.601  0.1963  0.0834  0.1293
  686MOL0     C92503  10.496  10.890   0.579 -0.2190 -0.4391  0.1957
  686MOL0     C92504  10.368  10.942   0.630 -0.1367 -0.1391 -0.2661
  686MOL0     O92505  10.314  10.871   0.741 -0.6273  0.1816 -0.4120
  686MOL0     C92506  10.232  10.938   0.823 -0.7994 -0.5724 -0.1996
  686MOL0     C92507  10.117  11.006   0.785 -0.0129 -1.0889  1.6148
  686MOL0     C92508  10.022  11.049   0.879 -0.2284 -0.5492 -0.0406
  686MOL0     C92509  10.048  11.033   1.017  0.7959 -0.2684  1.0829
  686MOL0     O92510   9.982  11.113   1.110 -0.5793 -0.2593  0.3418
  686MOL0     C92511  10.007  11.099   1.244  0.2298 -0.0606 -1.0942
  686MOL0     C92512   9.945  11.218   1.308 -0.5535 -0.6887  0.3921
  686MOL0     C92513   9.944  11.210   1.461 -0.8298 -0.4055 -0.0381
  686MOL0     C92514  10.040  11.325   1.521  0.8055  0.0987 -0.3856
  686MOL0     C92515  10.059  11.317   1.671 -0.1377  1.5374  0.3257
  686MOL0     C92516  10.120  11.183   1.712  0.1560 -0.1146 -0.0857
  686MOL0     C92517  10.256  11.195   1.791 -0.6469 -0.1577  0.9249
  686MOL0     C92518  10.301  11.058   1.855 -0.2583 -0.4127  0.4355
  686MOL0    Cl92519  10.443  11.091   1.940  0.0603  0.2284 -0.3603
  686MOL0     C92520  10.146  10.944   1.051  0.4109  0.1098  0.1342
  686MOL0     C92521  10.238  10.891   0.958 -0.4252  0.2693  0.1783
  686MOL0     O92522  10.322  11.046   0.581  0.2552  1.1860 -0.3587
  686MOL0     C92523  10.573  10.976   0.504 -0.4938 -0.3579  0.5837
  686MOL0     C92524  10.699  10.931   0.458  0.1404  0.2513 -0.8868
  686MOL0     N92525  11.094  10.524  -0.111 -0.1390 -0.5090 -0.1043
  686MOL0     N92526  11.028  10.449  -0.186  0.0639  0.2290 -0.0277
  686MOL0     C92527  10.313   9.714   0.334 -1.0007 -0.6373 -0.3586
  686MOL0     C92528  10.357   9.664   0.457  1.0392  0.3676  0.5246
  686MOL0     C92529  10.633   9.570   0.815 -0.4225  0.4376 -0.6986
  686MOL0     C92530  10.672   9.435   0.803 -0.2433  0.2586  1.2130
  686MOL0     C92531  10.742   9.370   0.895 -0.2856  0.0578 -0.3143
  686MOL0     C92532  10.766   9.430   1.017  0.1188  0.0807 -0.3496
  686MOL0     O92533  10.804   9.375   1.134  0.6023  0.8790  0.4031
  686MOL0     C92534  10.846   9.239   1.114 -0.1544  0.3934 -0.3314
  686MOL0     C92535  10.905   9.176   1.235 -0.0496  0.7781  0.7421
  686MOL0     C92536  11.028   9.261   1.277  0.0263  0.3581 -0.6389
  686MOL0     C92537  11.009   9.317   1.420 -0.7215  0.6959 -0.4418
  686MOL0     C92538  11.036   9.226   1.533 -0.9138  1.2825  0.0373
  686MOL0     C92539  11.073   9.154   1.619 -0.1720 -0.2582  0.1842
  686MOL0     C92540  10.743   9.566   1.032  0.3040  0.4247 -0.1144
  686MOL0     C92541  10.672   9.632   0.935 -0.0200 -0.0262 -0.3117
  686MOL0     C92542  10.651   9.778   0.958  0.0744  0.2675 -0.2113
  686MOL0     H92543  10.695   9.679   0.406  0.5093 -3.9811 -1.6649
  686MOL0     H92544  10.611   9.734   0.176  0.3172 -3.2960 -0.6641
  686MOL0     H92545  10.170   9.845   0.105 -1.1906 -2.0315 -0.8487
  686MOL0     H92546  10.300   9.953   0.158  2.3588 -0.0336 -0.3077
  686MOL0     H92547  10.228   9.998  -0.087  0.8005 -0.5855  1.1409
  686MOL0     H92548  10.250   9.824  -0.109 -1.5594 -0.6828  3.5127
  686MOL0     H92549  10.496   9.867  -0.127  0.6064 -0.0162  1.6139
  686MOL0     H92550  10.484   9.998  -0.016  0.3674 -0.3699 -0.4935
  686MOL0     H92551  10.410  10.007  -0.319 -0.0262  1.9233 -0.4826
  686MOL0     H92552  10.352  10.133  -0.214  2.7145  4.0725 -3.3329
  686MOL0     H92553  10.641  10.051  -0.283 -1.0038  0.4248 -3.1359
  686MOL0     H92554  10.540  10.175  -0.332 -0.1193 -0.9311  0.6076
  686MOL0     H92555  10.500  10.266  -0.101 -1.5748  1.3502 -5.2293
  686MOL0     H92556  10.637  10.169  -0.039 -3.7699  1.2864  1.7622
  686MOL0     H92557  10.655  10.420  -0.133 -1.1489 -0.3470  0.9906
  686MOL0     H92558  10.660  10.357  -0.296 -1.7401  0.9128  0.1985
  686MOL0     H92559  10.837  10.205  -0.136  0.7285 -0.5449 -1.2777
  686MOL0     H92560  10.882  10.284  -0.277  0.7024 -1.2333  0.1486
  686MOL0     H92561  10.860  10.411   0.094  1.1655 -0.5762 -0.6663
  686MOL0     H92562  11.163  10.508   0.171 -0.6223 -0.6827  2.0766
  686MOL0     H92563  11.168  10.659   0.087 -2.8323  3.4417  0.9711
  686MOL0     H92564  10.932  10.713   0.178  2.8794  1.8204 -2.0280
  686MOL0     H92565  10.945  10.566   0.279 -2.3124  0.3153 -1.5802
  686MOL0     H92566  11.144  10.799   0.297  0.7743 -0.2185  3.5533
  686MOL0     H92567  11.107  10.662   0.411 -1.0496 -1.9384 -1.3329
  686MOL0     H92568  10.938  10.891   0.323  3.8894  0.4738 -0.5363
  686MOL0     H92569  11.024  10.895   0.475 -0.2010  2.2897 -1.5650
  686MOL0     H92570  10.692  10.620   0.606  2.4501  0.8242  1.6384
  686MOL0     H92571  10.486  10.701   0.671  1.8779  0.2521  1.6615
  686MOL0     H92572  10.098  11.040   0.683  0.8069 -1.0020  1.4873
  686MOL0     H92573   9.945  11.115   0.842  1.3526  1.1534 -0.4591
  686MOL0     H92574   9.966  11.002   1.274 -1.8362  0.6437 -1.4983
  686MOL0     H92575  10.113  11.113   1.270  0.1806  3.2974 -2.2408
  686MOL0     H92576  10.001  11.308   1.283 -2.0130  0.6918  1.7993
  686MOL0     H92577   9.841  11.229   1.275 -0.1852 -0.8565 -0.8569
  686MOL0     H92578   9.845  11.211   1.507  0.7028  0.6319  3.6632
  686MOL0     H92579   9.987  11.112   1.484  1.2108  1.1621  3.9941
  686MOL0     H92580   9.987  11.419   1.507  0.3161  0.5235  3.3195
  686MOL0     H92581  10.139  11.339   1.478  0.8518  1.7579  0.1919
  686MOL0     H92582   9.973  11.340   1.735 -0.9953 -0.9828  0.2016
  686MOL0     H92583  10.134  11.390   1.701  1.6070  0.1964 -0.5538
  686MOL0     H92584  10.047  11.113   1.755 -0.7175 -0.0285 -1.3373
  686MOL0     H92585  10.148  11.123   1.625 -3.0139 -1.5272 -0.2650
  686MOL0     H92586  10.251  11.271   1.869 -0.8150  0.4558  0.3242
  686MOL0     H92587  10.332  11.231   1.721  0.1923  1.3262  2.5339
  686MOL0     H92588  10.229  11.029   1.932 -3.3962  0.1613 -2.0709
  686MOL0     H92589  10.326  10.979   1.784  2.9178 -0.4440  1.4512
  686MOL0     H92590  10.157  10.910   1.154 -1.5853  0.2244  0.4301
  686MOL0     H92591  10.304  10.810   0.984  0.1365  0.1551 -1.4453
  686MOL0     H92592  10.552  11.082   0.493 -0.5882 -0.3691  0.6575
  686MOL0     H92593  10.761  11.004   0.407  1.0041 -1.9883 -3.3118
  686MOL0     H92594  10.208   9.707   0.304 -0.9438 -2.7213 -0.2212
  686MOL0     H92595  10.287   9.642   0.537  1.6611 -0.2156  0.9126
  686MOL0     H92596  10.657   9.375   0.713 -3.2938  2.6009 -0.0134
  686MOL0     H92597  10.768   9.265   0.882  2.0143  0.3488  1.3695
  686MOL0     H92598  10.916   9.224   1.032 -0.5988 -3.0946 -0.2310
  686MOL0     H92599  10.758   9.182   1.084 -0.2958  0.9785 -1.0473
  686MOL0     H92600  10.934   9.075   1.205  1.0474  1.5589 -0.9361
  686MOL0     H92601  10.824   9.169   1.309 -0.1892  1.3792  0.6526
  686MOL0     H92602  11.055   9.343   1.209  1.6941  1.8851  1.7211
  686MOL0     H92603  11.123   9.210   1.295 -0.4258  0.3478  2.1453
  686MOL0     H92604  11.090   9.389   1.435  0.5598 -0.0684 -3.0127
  686MOL0     H92605  10.909   9.362   1.422 -1.0175  0.1180 -1.3714
  686MOL0     H92606  11.103   9.092   1.701 -0.8110 -0.9404 -0.0975
  686MOL0     H92607  10.776   9.612   1.125  0.9809 -1.6531  0.7312
  686MOL0     H92608  10.722   9.828   0.892  1.3186 -0.4221  0.5602
  686MOL0     H92609  10.547   9.805   0.938  0.5573  1.5425 -1.0846
  686MOL0     H92610  10.694   9.811   1.053  0.8294 -2.3163  0.4136
  687MOL0     O92611   5.280   2.061  11.080  0.5650  0.1943  0.1624
  687MOL0     C92612   5.387   2.007  11.088  0.6315  1.5039  0.7319
  687MOL0     O92613   5.448   1.926  10.991  0.4146  0.7721  0.2774
  687MOL0     C92614   5.387   1.896  10.872  0.6560 -0.1680 -0.2203
  687MOL0     C92615   5.442   1.791  10.805  0.0111 -0.2096 -0.0930
  687MOL0     C92616   5.394   1.750  10.680  0.3665 -0.7568  0.5602
  687MOL0     C92617   5.281   1.804  10.614  0.9283  0.0601 -0.1715
  687MOL0     O92618   5.228   1.752  10.490 -0.2384 -0.1183 -0.3721
  687MOL0     C92619   5.189   1.846  10.390 -0.3451  0.1533  0.4662
  687MOL0     C92620   5.253   1.843  10.252 -0.2107  0.2122  1.0200
  687MOL0     C92621   5.236   1.710  10.189  0.5972  0.3719  0.5348
  687MOL0     C92622   5.348   1.689  10.083 -0.3156  0.3434 -0.2329
  687MOL0     C92623   5.331   1.554  10.009  0.5159 -1.2138  0.4280
  687MOL0     C92624   5.456   1.545   9.910 -0.3304 -0.4455 -1.8132
  687MOL0     C92625   5.461   1.410   9.849 -0.0441 -0.6043  0.0272
  687MOL0     C92626   5.552   1.416   9.729  1.7711  0.5906 -0.0745
  687MOL0     N92627   5.695   1.410   9.767 -0.3565  0.5572 -0.1927
  687MOL0     C92628   5.750   1.309   9.847 -0.8594 -0.0551 -0.1172
  687MOL0     C92629   5.875   1.362   9.889 -0.5877  0.1981 -0.6556
  687MOL0     C92630   5.982   1.296   9.992  0.0375  0.3363 -0.1093
  687MOL0     C92631   6.076   1.414  10.032 -0.3114  0.5699  0.3567
  687MOL0     C92632   6.209   1.369  10.087  0.0631  0.0367  0.3303
  687MOL0     C92633   6.299   1.483  10.130 -0.3048  0.4121 -0.6971
  687MOL0     O92634   6.230   1.569  10.222  0.3896  0.9556  0.5560
  687MOL0     C92635   6.285   1.693  10.272  0.7695  1.1590  0.3007
  687MOL0     C92636   6.213   1.751  10.373 -0.0853 -1.0127 -0.5094
  687MOL0     C92637   6.257   1.874  10.424  0.3910 -0.8496  0.0352
  687MOL0     C92638   6.361   1.947  10.361 -0.0243  0.1319 -0.3826
  687MOL0     C92639   6.396   2.083  10.419  0.3822  0.7872  0.1122
  687MOL0     O92640   6.399   2.106  10.554  0.1536  0.0778 -0.6727
  687MOL0     C92641   6.392   2.231  10.606 -0.2539  1.0248 -0.6405
  687MOL0     C92642   6.430   2.233  10.737  0.5100 -0.7429 -0.7529
  687MOL0     C92643   6.433   2.358  10.803  0.2762 -0.9756 -0.2098
  687MOL0     C92644   6.383   2.473  10.727 -0.6461  0.8924  0.9639
  687MOL0     O92645   6.409   2.599  10.782 -0.1189 -0.3545 -0.4725
  687MOL0     C92646   6.288   2.674  10.812 -0.5647 -0.1336  0.6604
  687MOL0     C92647   6.308   2.826  10.810  0.7049  0.0560  0.1924
  687MOL0     C92648   6.334   2.893  10.678  1.0770 -0.1968 -0.3891
  687MOL0     C92649   6.220   2.903  10.584  0.3284  0.2759  0.8417
  687MOL0     C92650   6.237   2.970  10.454  0.0901 -0.4568 -0.0618
  687MOL0     C92651   6.306   3.103  10.480  0.4268  1.6717  0.8214
  687MOL0     C92652   6.300   3.180  10.348 -0.8751  0.2089  0.3910
  687MOL0     C92653   6.406   3.296  10.357 -1.2720 -1.1793  0.8507
  687MOL0    Cl92654   6.379   3.406  10.495 -0.1788  0.4739 -0.2147
  687MOL0     C92655   6.346   2.467  10.593  0.1123  0.4009  0.0850
  687MOL0     C92656   6.339   2.345  10.540 -0.1008  0.1532 -0.1927
  687MOL0     O92657   6.435   2.150  10.329 -0.3877 -0.4860 -0.8269
  687MOL0     C92658   6.431   1.889  10.248  0.1665  0.0308 -0.8999
  687MOL0     C92659   6.387   1.764  10.205 -0.1029 -0.0506  0.2350
  687MOL0     N92660   5.884   1.490   9.828  0.2409  0.7650 -0.3585
  687MOL0     N92661   5.782   1.514   9.750  0.6572 -0.7920  0.4195
  687MOL0     C92662   5.227   1.915  10.685  0.7652 -0.1297 -0.5254
  687MOL0     C92663   5.281   1.964  10.806  0.8785  0.0238 -0.0043
  687MOL0     C92664   5.450   2.020  11.221 -0.6700 -0.7589  0.4841
  687MOL0     C92665   5.365   2.030  11.337 -0.6248  0.5215  0.5296
  687MOL0     C92666   5.419   2.036  11.462  0.9546  0.3210  1.3299
  687MOL0     C92667   5.546   2.037  11.489  0.1084 -0.4187  0.0151
  687MOL0     O92668   5.588   2.041  11.612  0.4349 -0.2779 -0.7779
  687MOL0     C92669   5.683   2.145  11.648  0.3688  0.1555 -0.2042
  687MOL0     C92670   5.604   2.268  11.714 -0.5116  1.0292  0.0814
  687MOL0     C92671   5.510   2.219  11.830  0.3580  0.0259 -0.0153
  687MOL0     C92672   5.496   2.314  11.950  0.7135  0.1556  0.6269
  687MOL0     C92673   5.421   2.245  12.054  0.5575  0.4500 -0.5489
  687MOL0     C92674   5.371   2.198  12.153  0.1493  0.1762 -0.4259
  687MOL0     C92675   5.632   2.013  11.389  0.4560 -0.3587  0.1396
  687MOL0     C92676   5.593   2.021  11.254 -0.2701 -0.5648  0.3129
  687MOL0     C92677   5.704   2.023  11.146  0.0015 -0.5528  0.5981
  687MOL0     H92678   5.535   1.758  10.850 -0.6713 -1.8614  0.1782
  687MOL0     H92679   5.449   1.660  10.653  3.7382  1.2545  0.0500
  687MOL0     H92680   5.080   1.835  10.382 -0.3534 -1.9649  2.2518
  687MOL0     H92681   5.206   1.949  10.424 -0.0918 -0.0184  0.8730
  687MOL0     H92682   5.359   1.869  10.257 -0.6833  2.2792  0.8379
  687MOL0     H92683   5.221   1.919  10.181  0.6508  1.4729  1.9395
  687MOL0     H92684   5.135   1.690  10.152  0.5532  0.5329  0.5650
  687MOL0     H92685   5.260   1.634  10.264  3.6275 -0.4321 -1.0881
  687MOL0     H92686   5.360   1.769  10.010 -0.0943 -1.8860 -2.8026
  687MOL0     H92687   5.442   1.683  10.138 -0.1391  0.0301 -0.5648
  687MOL0     H92688   5.325   1.468  10.076  1.2449 -1.0197  0.7444
  687MOL0     H92689   5.237   1.562   9.954  1.7455  3.3297 -1.4688
  687MOL0     H92690   5.451   1.618   9.828 -1.5020  1.3540 -0.2468
  687MOL0     H92691   5.548   1.553   9.969 -0.8399 -1.7582 -0.7887
  687MOL0     H92692   5.362   1.378   9.817  1.2176 -2.8018 -2.0407
  687MOL0     H92693   5.488   1.329   9.918  0.9239  1.1716  1.8280
  687MOL0     H92694   5.531   1.339   9.654  1.1062  4.7721 -4.7655
  687MOL0     H92695   5.531   1.507   9.671 -1.7385  0.4833  0.7799
  687MOL0     H92696   5.740   1.205   9.875  5.0172 -0.7267  0.7169
  687MOL0     H92697   5.931   1.268  10.085  2.4290 -1.9413  0.6402
  687MOL0     H92698   6.039   1.212   9.952  1.0863 -0.4380  2.7331
  687MOL0     H92699   6.111   1.475   9.948 -0.3904  0.6666  0.3942
  687MOL0     H92700   6.024   1.471  10.108 -0.2968  1.4022 -0.2418
  687MOL0     H92701   6.259   1.322  10.002 -0.6767 -0.2324  0.0340
  687MOL0     H92702   6.187   1.301  10.170 -2.5465  1.4736  0.9463
  687MOL0     H92703   6.334   1.549  10.050  1.2374  0.3277 -0.1169
  687MOL0     H92704   6.393   1.451  10.176 -0.7020 -2.1345 -1.5357
  687MOL0     H92705   6.137   1.706  10.436  0.6240  0.9213  1.9212
  687MOL0     H92706   6.203   1.931  10.499  1.7858  2.5874 -1.3538
  687MOL0     H92707   6.445   2.146  10.800 -2.3795 -0.1339  0.9263
  687MOL0     H92708   6.461   2.372  10.907 -2.4851 -1.3214  0.6618
  687MOL0     H92709   6.201   2.645  10.753  0.2138  1.4541 -1.3692
  687MOL0     H92710   6.274   2.651  10.919 -0.9991 -0.1267  0.6068
  687MOL0     H92711   6.228   2.874  10.866  1.3474 -1.3405  2.4714
  687MOL0     H92712   6.400   2.837  10.869  0.1288 -0.5125  1.2241
  687MOL0     H92713   6.374   2.993  10.697 -2.1153  0.8362  1.9075
  687MOL0     H92714   6.415   2.836  10.632 -0.0134  0.5573 -3.5128
  687MOL0     H92715   6.144   2.962  10.635  0.5974  1.7481 -0.3777
  687MOL0     H92716   6.179   2.802  10.571  2.9219 -0.9370  1.5348
  687MOL0     H92717   6.143   2.997  10.405 -0.6905  0.4908  1.8578
  687MOL0     H92718   6.292   2.908  10.382 -0.7476 -2.9787  1.3566
  687MOL0     H92719   6.250   3.150  10.561 -0.4356 -0.6015  1.6255
  687MOL0     H92720   6.411   3.095  10.509  1.3039 -0.9150 -2.4581
  687MOL0     H92721   6.203   3.226  10.330 -0.6905  0.2828 -0.4609
  687MOL0     H92722   6.318   3.113  10.263 -0.7402 -1.5729  1.7763
  687MOL0     H92723   6.505   3.250  10.345  0.5244  2.4377  0.4262
  687MOL0     H92724   6.406   3.367  10.274  4.2675  1.6970  2.8060
  687MOL0     H92725   6.306   2.558  10.550  1.2055  1.3738  1.0694
  687MOL0     H92726   6.305   2.351  10.437  1.7600 -0.1104 -0.8599
  687MOL0     H92727   6.513   1.939  10.197 -0.9004  0.0317 -2.6758
  687MOL0     H92728   6.439   1.719  10.121 -1.9693 -1.7790 -0.0643
  687MOL0     H92729   5.147   1.966  10.631 -2.1056 -0.6020  2.9172
  687MOL0     H92730   5.231   2.047  10.855 -0.0285 -0.1445 -0.6307
  687MOL0     H92731   5.259   2.040  11.314 -0.2782 -0.1939 -1.6224
  687MOL0     H92732   5.342   2.053  11.537 -1.3431 -0.0577 -0.7948
  687MOL0     H92733   5.744   2.177  11.563  0.4071  0.9180  0.0997
  687MOL0     H92734   5.749   2.098  11.721 -0.5194 -2.0710 -0.7511
  687MOL0     H92735   5.556   2.297  11.620  0.9236  0.7776 -0.7591
  687MOL0     H92736   5.672   2.352  11.734 -0.1879  1.3147 -1.9614
  687MOL0     H92737   5.554   2.129  11.872  1.0641 -1.3693 -3.3772
  687MOL0     H92738   5.414   2.197  11.782  1.1887 -2.7078 -0.6008
  687MOL0     H92739   5.595   2.343  11.984 -0.0708  2.1616  1.3577
  687MOL0     H92740   5.459   2.410  11.912  0.5631  1.7836  4.4318
  687MOL0     H92741   5.325   2.160  12.242  1.6436 -0.5734  0.0486
  687MOL0     H92742   5.738   2.005  11.413  0.3735  0.4101  0.7703
  687MOL0     H92743   5.694   1.951  11.064 -0.0569  0.1808 -0.0515
  687MOL0     H92744   5.705   2.120  11.094 -1.0900 -0.6881  0.2950
  687MOL0     H92745   5.793   2.002  11.205 -0.8950  0.0214  2.2286
  688MOL0     O92746   0.658   9.981   6.075  0.2545  0.2213  0.1470
  688MOL0     C92747   0.567   9.918   6.022  0.3600  0.6857  0.1283
  688MOL0     O92748   0.577   9.859   5.905  0.0257 -0.1552  0.3563
  688MOL0     C92749   0.693   9.860   5.840 -0.0901  0.4855  0.8611
  688MOL0     C92750   0.784   9.755   5.854  0.4410  0.0701 -0.3215
  688MOL0     C92751   0.909   9.770   5.787 -0.0963  0.2024 -1.4397
  688MOL0     C92752   0.937   9.886   5.712  0.1986  0.2769  0.1018
  688MOL0     O92753   1.057   9.888   5.645 -0.4356 -0.2376  0.2191
  688MOL0     C92754   1.067   9.991   5.532  0.3882  0.6173 -0.6875
  688MOL0     C92755   1.218   9.987   5.495 -0.1563  0.8057 -1.0299
  688MOL0     C92756   1.235  10.088   5.376  0.2317  0.8984 -0.2779
  688MOL0     C92757   1.382  10.133   5.345  0.5514  0.7810  0.3046
  688MOL0     C92758   1.389  10.232   5.237 -0.6019 -0.6788  0.1447
  688MOL0     C92759   1.533  10.264   5.199  0.0432  0.7544  0.0263
  688MOL0     C92760   1.544  10.399   5.131  0.8774 -0.4199  0.6136
  688MOL0     C92761   1.464  10.409   4.995 -0.9964  0.4028 -0.1588
  688MOL0     N92762   1.493  10.285   4.908  1.0694  0.2308  0.3499
  688MOL0     C92763   1.618  10.266   4.866 -0.7471  0.2933  0.9172
  688MOL0     C92764   1.621  10.136   4.838 -0.5989 -0.7445  0.8763
  688MOL0     C92765   1.745  10.045   4.797  1.1165 -0.0074  0.0920
  688MOL0     C92766   1.786   9.956   4.911  1.4027  0.3431  2.0435
  688MOL0     C92767   1.885   9.838   4.873  0.9844  0.6021 -0.1494
  688MOL0     C92768   1.914   9.731   4.984 -0.0506 -0.7781 -0.9927
  688MOL0     O92769   2.014   9.799   5.061  0.4029  0.3346 -0.6815
  688MOL0     C92770   2.063   9.739   5.182  1.5096 -0.6885 -0.0768
  688MOL0     C92771   2.164   9.814   5.239  0.4344  0.1485  0.2174
  688MOL0     C92772   2.224   9.768   5.361 -0.0874  0.0220 -0.1882
  688MOL0     C92773   2.188   9.649   5.421  0.9201 -0.5948  0.0101
  688MOL0     C92774   2.242   9.597   5.551  0.0044 -0.0295 -0.6101
  688MOL0     O92775   2.358   9.644   5.605 -0.8891  0.0005 -1.4311
  688MOL0     C92776   2.403   9.593   5.730  0.9563 -0.3160  0.2453
  688MOL0     C92777   2.484   9.488   5.731  0.0738  0.4394  0.2143
  688MOL0     C92778   2.534   9.427   5.847 -0.7322  0.2742  0.2228
  688MOL0     C92779   2.499   9.476   5.969 -0.0252 -0.2555  0.3682
  688MOL0     O92780   2.555   9.434   6.087 -0.1885  0.9983 -0.0974
  688MOL0     C92781   2.608   9.295   6.099  0.7130  0.2508 -0.9113
  688MOL0     C92782   2.594   9.254   6.253  0.9207 -0.1843 -0.2179
  688MOL0     C92783   2.637   9.114   6.281  0.1564 -0.0303  0.4088
  688MOL0     C92784   2.662   9.079   6.419 -1.0144  0.5173  0.3122
  688MOL0     C92785   2.709   8.929   6.443 -0.4080 -0.7668  0.7620
  688MOL0     C92786   2.793   8.917   6.565 -1.2413 -0.1339  0.0192
  688MOL0     C92787   2.800   8.769   6.613 -1.2739 -0.2652 -0.1281
  688MOL0     C92788   2.871   8.674   6.514  0.3201  0.5193  0.3849
  688MOL0    Cl92789   2.872   8.512   6.595 -0.4562  0.2484  0.0526
  688MOL0     C92790   2.412   9.587   5.970 -0.5697 -0.7110 -0.5620
  688MOL0     C92791   2.368   9.652   5.856 -0.9641  0.4831 -0.4809
  688MOL0     O92792   2.163   9.525   5.617 -0.3910 -0.1105  0.8988
  688MOL0     C92793   2.078   9.579   5.361  0.4342 -0.2911 -0.8178
  688MOL0     C92794   2.019   9.622   5.242 -0.3895 -0.2190 -1.0816
  688MOL0     N92795   1.501  10.078   4.858  1.1016 -0.5744  0.1635
  688MOL0     N92796   1.419  10.170   4.897  0.3136  0.7450  0.2106
  688MOL0     C92797   0.844   9.994   5.707 -0.3888  0.3205  0.0779
  688MOL0     C92798   0.725   9.981   5.779  0.7575 -0.7650 -0.1402
  688MOL0     C92799   0.447   9.886   6.107  0.5348 -0.3337  0.4486
  688MOL0     C92800   0.401   9.756   6.093 -0.4521 -0.1560 -0.1320
  688MOL0     C92801   0.304   9.700   6.175  0.2949 -0.2645  0.2311
  688MOL0     C92802   0.240   9.778   6.269 -0.2440  0.0211 -0.7925
  688MOL0     O92803   0.123   9.739   6.339 -0.2573 -0.2066 -0.3944
  688MOL0     C92804   0.048   9.619   6.307 -0.4760 -1.3357  0.3661
  688MOL0     C92805  -0.093   9.628   6.379  0.3916 -0.1307 -0.4821
  688MOL0     C92806  -0.079   9.586   6.524 -0.5178  0.5741  0.0597
  688MOL0     C92807  -0.058   9.432   6.559 -0.3536  0.1016  0.1543
  688MOL0     C92808  -0.155   9.338   6.499  0.3915 -0.5160 -0.6770
  688MOL0     C92809  -0.228   9.258   6.441 -0.2891  0.6255 -0.2515
  688MOL0     C92810   0.285   9.905   6.288  0.3038  0.1021  0.5567
  688MOL0     C92811   0.389   9.966   6.207 -0.4687 -0.8092 -0.0203
  688MOL0     C92812   0.433  10.104   6.228  0.2916  0.1056 -0.3479
  688MOL0     H92813   0.740   9.668   5.903  1.4432 -1.2223 -1.6587
  688MOL0     H92814   0.987   9.696   5.795 -0.9540 -0.5035  2.9668
  688MOL0     H92815   1.003   9.960   5.449 -1.3150 -2.7181  1.6417
  688MOL0     H92816   1.048  10.095   5.558 -2.8573 -0.8720  4.2847
  688MOL0     H92817   1.244   9.887   5.460 -0.7822  0.8991 -1.7835
  688MOL0     H92818   1.286  10.009   5.578  2.5119 -3.7973 -1.6786
  688MOL0     H92819   1.181  10.182   5.391  2.4297  2.9811 -3.6987
  688MOL0     H92820   1.192  10.027   5.296  1.9873 -0.0722 -0.5459
  688MOL0     H92821   1.423  10.164   5.441 -0.6660 -0.0851  1.1257
  688MOL0     H92822   1.435  10.046   5.303 -3.1824 -0.3999 -2.4335
  688MOL0     H92823   1.347  10.190   5.146 -1.9909 -2.8636  1.6867
  688MOL0     H92824   1.329  10.321   5.258 -1.3747 -0.3326 -3.0731
  688MOL0     H92825   1.576  10.281   5.298 -4.6221  1.3214  2.2374
  688MOL0     H92826   1.585  10.187   5.142  0.0980  1.6509 -1.1746
  688MOL0     H92827   1.653  10.400   5.122  0.6812 -0.3520 -2.7157
  688MOL0     H92828   1.504  10.472   5.203 -0.6602  0.7153 -1.3068
  688MOL0     H92829   1.356  10.416   5.012 -0.9460 -0.5553  0.6323
  688MOL0     H92830   1.489  10.503   4.944 -1.9300  0.5372 -0.4038
  688MOL0     H92831   1.711  10.322   4.864 -0.1890 -0.5905  1.7132
  688MOL0     H92832   1.712   9.981   4.715 -0.2558 -2.0596  2.0943
  688MOL0     H92833   1.828  10.100   4.753 -1.6327  2.4703 -2.4654
  688MOL0     H92834   1.826  10.011   4.996  1.6013 -1.3586  3.1080
  688MOL0     H92835   1.697   9.903   4.945 -0.2616  1.8264  0.1940
  688MOL0     H92836   1.984   9.878   4.846  0.5463  1.7357 -0.1555
  688MOL0     H92837   1.844   9.786   4.786 -1.8195 -1.6950  2.3510
  688MOL0     H92838   1.957   9.643   4.937 -0.2262 -0.4203 -1.8446
  688MOL0     H92839   1.818   9.710   5.031  0.1942  0.4860  0.1438
  688MOL0     H92840   2.204   9.903   5.192 -0.3452 -1.2931 -3.5083
  688MOL0     H92841   2.293   9.843   5.397 -2.3884  2.1950 -0.0108
  688MOL0     H92842   2.504   9.450   5.631 -3.7987  0.3436 -0.6790
  688MOL0     H92843   2.603   9.344   5.840  3.6401  3.6071 -0.7191
  688MOL0     H92844   2.554   9.223   6.037 -1.6552  1.3274 -0.1812
  688MOL0     H92845   2.715   9.291   6.074  0.6131  0.2516 -1.3405
  688MOL0     H92846   2.660   9.319   6.311  2.0995  0.6239 -2.3624
  688MOL0     H92847   2.498   9.271   6.303  2.8380  3.0722  2.8382
  688MOL0     H92848   2.557   9.049   6.243  0.2853  0.4649 -0.7801
  688MOL0     H92849   2.720   9.090   6.214  0.1751  3.4749 -1.0706
  688MOL0     H92850   2.571   9.088   6.479 -0.5951  1.4963  0.8274
  688MOL0     H92851   2.737   9.148   6.458 -1.2030  0.7757  0.2190
  688MOL0     H92852   2.763   8.894   6.355 -0.2377  2.5491 -0.5987
  688MOL0     H92853   2.620   8.866   6.450 -2.0175  1.1907 -1.0378
  688MOL0     H92854   2.890   8.965   6.546 -1.7318  3.3593  4.3754
  688MOL0     H92855   2.750   8.971   6.650 -0.6868 -3.0416  2.3163
  688MOL0     H92856   2.696   8.735   6.611 -1.3655  0.0212 -2.2406
  688MOL0     H92857   2.846   8.764   6.712  0.1778  0.6426 -0.7221
  688MOL0     H92858   2.836   8.662   6.411  2.8243  0.1651 -0.5014
  688MOL0     H92859   2.975   8.703   6.496  0.6403 -0.7499  0.1121
  688MOL0     H92860   2.403   9.619   6.074  0.7894 -2.5662  0.1882
  688MOL0     H92861   2.338   9.756   5.852  0.6716  0.9955 -0.0881
  688MOL0     H92862   2.052   9.482   5.401  0.3021 -0.1643 -0.5914
  688MOL0     H92863   1.930   9.588   5.190 -2.6965  4.4555 -0.7578
  688MOL0     H92864   0.848  10.071   5.630  0.2354  1.2075  0.9743
  688MOL0     H92865   0.669  10.074   5.767 -1.1072 -1.8023  0.1123
  688MOL0     H92866   0.442   9.690   6.018  1.0343  1.3083 -0.6765
  688MOL0     H92867   0.267   9.602   6.148  1.5587 -1.7358  3.3563
  688MOL0     H92868   0.102   9.529   6.338 -0.0387 -0.5386  2.0480
  688MOL0     H92869   0.030   9.605   6.200  2.2287  0.0468 -0.3680
  688MOL0     H92870  -0.157   9.563   6.320 -1.9501  1.1655  0.5075
  688MOL0     H92871  -0.133   9.728   6.361  1.1911  0.1152 -0.9436
  688MOL0     H92872  -0.159   9.620   6.590  0.7640 -2.3033  3.4218
  688MOL0     H92873   0.010   9.634   6.567 -0.5909 -1.4126  2.7171
  688MOL0     H92874   0.040   9.395   6.525 -0.9790 -1.7132  0.2104
  688MOL0     H92875  -0.066   9.423   6.668  0.8200  0.0468  0.2525
  688MOL0     H92876  -0.286   9.188   6.384  1.0309 -0.4164 -0.3603
  688MOL0     H92877   0.244   9.968   6.366  1.1130  0.7913  0.4343
  688MOL0     H92878   0.351  10.168   6.262  0.3892 -0.1117  0.3136
  688MOL0     H92879   0.519  10.105   6.296  0.5654 -1.9401 -0.6080
  688MOL0     H92880   0.459  10.152   6.133  1.6612  0.6906  0.3000
  689MOL0     O92881  10.436   5.642   7.759 -0.0835  0.9772 -0.2706
  689MOL0     C92882  10.468   5.697   7.863  0.2270 -0.4795  0.2705
  689MOL0     O92883  10.398   5.690   7.987 -0.1667 -0.6520 -0.0007
  689MOL0     C92884  10.286   5.609   7.993  0.8044  0.4993 -0.6910
  689MOL0     C92885  10.260   5.553   8.126 -0.1210 -1.1154  0.3650
  689MOL0     C92886  10.151   5.472   8.146  0.8256  0.5055  0.4571
  689MOL0     C92887  10.050   5.454   8.041 -1.0357  0.0432 -0.4326
  689MOL0     O92888   9.937   5.374   8.046 -1.2233  0.3151 -0.4250
  689MOL0     C92889   9.930   5.297   8.169  0.7718  0.2524 -0.5711
  689MOL0     C92890   9.800   5.206   8.170 -0.0921 -0.2758  0.2396
  689MOL0     C92891   9.809   5.083   8.077 -0.0809 -0.9681  1.1363
  689MOL0     C92892   9.716   4.978   8.130 -0.5656  0.4921  0.5549
  689MOL0     C92893   9.694   4.849   8.053 -0.2555 -0.9369 -0.3220
  689MOL0     C92894   9.672   4.888   7.902  0.2259 -0.0071 -0.4324
  689MOL0     C92895   9.590   4.770   7.844 -0.3188  0.3880  0.0884
  689MOL0     C92896   9.661   4.661   7.766  0.7523 -0.2139  0.3136
  689MOL0     N92897   9.766   4.597   7.844 -0.3829 -0.3069  0.4066
  689MOL0     C92898   9.882   4.548   7.792  0.2582  0.5226 -0.1091
  689MOL0     C92899   9.954   4.505   7.900 -0.1952  0.5956 -0.4797
  689MOL0     C92900  10.094   4.454   7.901  0.0345  0.3023  0.0792
  689MOL0     C92901  10.091   4.307   7.838 -0.1648  0.0264  0.5379
  689MOL0     C92902  10.026   4.204   7.928  0.5273  0.1455  0.1292
  689MOL0     C92903  10.089   4.060   7.936 -0.0454 -0.0869 -0.6135
  689MOL0     O92904  10.037   3.989   8.050 -0.6112  0.1647  0.0442
  689MOL0     C92905  10.028   3.852   8.051  0.0844  0.2325 -0.6223
  689MOL0     C92906   9.921   3.803   8.126 -0.0402 -0.5790  0.2118
  689MOL0     C92907   9.908   3.665   8.142 -0.5903  0.1247 -0.4446
  689MOL0     C92908   9.992   3.571   8.075  0.3197 -0.4857 -0.1924
  689MOL0     C92909   9.980   3.423   8.095  0.7796 -0.1710  0.0552
  689MOL0     O92910   9.879   3.372   8.182  0.0094 -1.4487 -0.2190
  689MOL0     C92911   9.861   3.237   8.211 -0.1859  0.2924  0.0387
  689MOL0     C92912   9.819   3.137   8.121  0.8671  0.1512 -0.4918
  689MOL0     C92913   9.794   3.005   8.161 -1.2579  0.2432  0.2671
  689MOL0     C92914   9.826   2.963   8.295 -0.1390 -0.5750  1.1523
  689MOL0     O92915   9.809   2.834   8.348 -0.0416  0.1952  0.2929
  689MOL0     C92916   9.757   2.733   8.256 -0.0909  0.6291 -0.1858
  689MOL0     C92917   9.667   2.641   8.341 -0.1429 -0.4169 -0.1830
  689MOL0     C92918   9.570   2.556   8.258  0.2547  0.4092  0.0494
  689MOL0     C92919   9.489   2.481   8.369 -0.5840  0.4558 -0.1586
  689MOL0     C92920   9.359   2.406   8.318  0.2012 -1.0069 -0.1346
  689MOL0     C92921   9.337   2.261   8.351 -0.2916  0.0906 -0.2979
  689MOL0     C92922   9.218   2.193   8.272 -0.9476 -0.3220 -0.3862
  689MOL0     C92923   9.082   2.280   8.284 -0.1210 -0.1212 -0.1964
  689MOL0    Cl92924   8.942   2.174   8.270  0.0443 -0.3386  0.0460
  689MOL0     C92925   9.869   3.060   8.378 -1.2369 -0.5753 -0.1782
  689MOL0     C92926   9.886   3.192   8.338  0.2676 -0.2740  1.0944
  689MOL0     O92927  10.071   3.350   8.054 -0.0354 -0.1236  0.7912
  689MOL0     C92928  10.098   3.631   7.997 -0.1363  0.1487  0.3467
  689MOL0     C92929  10.113   3.764   7.983 -0.8610  1.8648  0.5856
  689MOL0     N92930   9.877   4.514   8.014  0.1309 -0.2179  0.2906
  689MOL0     N92931   9.762   4.559   7.973  0.9732  0.3217 -0.5091
  689MOL0     C92932  10.068   5.514   7.914  0.3571  0.3507 -0.0142
  689MOL0     C92933  10.188   5.586   7.891 -0.2453  0.1938  0.8623
  689MOL0     C92934  10.555   5.811   7.851 -1.3734 -0.1852  0.9600
  689MOL0     C92935  10.522   5.935   7.917  0.0786 -0.4108 -0.3015
  689MOL0     C92936  10.611   6.041   7.923 -0.4129  0.4237 -0.3546
  689MOL0     C92937  10.726   6.041   7.851 -0.1102 -0.8250 -0.0681
  689MOL0     O92938  10.792   6.163   7.862 -0.2494  0.2322  0.5293
  689MOL0     C92939  10.907   6.186   7.785 -0.5325  0.6139 -0.2851
  689MOL0     C92940  10.991   6.304   7.845 -0.5605 -0.1414 -0.1807
  689MOL0     C92941  11.077   6.260   7.972 -0.4404 -0.3544 -0.0771
  689MOL0     C92942  11.210   6.192   7.950  0.2377 -0.4266  0.1335
  689MOL0     C92943  11.330   6.256   8.017  0.0842 -0.1957 -0.0498
  689MOL0     C92944  11.429   6.316   8.051  0.7397 -0.0665 -0.5081
  689MOL0     C92945  10.755   5.925   7.760 -0.6784 -0.8429  0.1215
  689MOL0     C92946  10.675   5.806   7.766  0.8367 -0.5476 -0.1682
  689MOL0     C92947  10.731   5.699   7.678  0.5219 -0.6150 -0.2369
  689MOL0     H92948  10.332   5.566   8.206 -0.6216 -2.6687  1.1263
  689MOL0     H92949  10.142   5.421   8.241  1.7529 -0.3842  0.0809
  689MOL0     H92950  10.020   5.237   8.185 -1.0038 -1.9646  2.3296
  689MOL0     H92951   9.911   5.361   8.255 -0.3918 -0.0037 -0.6213
  689MOL0     H92952   9.721   5.272   8.132 -1.0120 -0.2640  2.0732
  689MOL0     H92953   9.788   5.179   8.275  0.6212  0.9199  0.6540
  689MOL0     H92954   9.912   5.046   8.078  0.9661  1.7221  0.2383
  689MOL0     H92955   9.779   5.115   7.977 -2.2929 -2.7849  1.1201
  689MOL0     H92956   9.758   4.955   8.228 -0.0943 -1.4669 -0.0746
  689MOL0     H92957   9.616   5.016   8.155 -1.1652 -1.7942  1.8582
  689MOL0     H92958   9.790   4.797   8.064  0.4174  0.6297  2.0763
  689MOL0     H92959   9.621   4.791   8.110  1.9749 -0.9961  2.7654
  689MOL0     H92960   9.617   4.983   7.900 -1.8071 -0.9857  2.2486
  689MOL0     H92961   9.766   4.899   7.848 -0.1200 -0.8070 -1.2253
  689MOL0     H92962   9.517   4.810   7.773 -0.3298  4.4602  2.1282
  689MOL0     H92963   9.544   4.715   7.927 -2.7648  2.5434  0.2892
  689MOL0     H92964   9.589   4.589   7.729 -0.3197  0.8323  0.2965
  689MOL0     H92965   9.700   4.720   7.683 -0.1641  3.1850  2.0978
  689MOL0     H92966   9.919   4.557   7.690 -0.6449 -3.9344 -1.0744
  689MOL0     H92967  10.154   4.521   7.838  3.8130  1.1266  4.0641
  689MOL0     H92968  10.138   4.460   8.001  3.6447 -2.7804 -1.0834
  689MOL0     H92969  10.054   4.311   7.735  2.0955 -1.8074 -0.4261
  689MOL0     H92970  10.191   4.264   7.830  1.0466  2.7554 -0.2014
  689MOL0     H92971   9.919   4.191   7.912  0.1878  2.7229 -0.0788
  689MOL0     H92972  10.035   4.241   8.030 -3.1998 -0.3884  0.8029
  689MOL0     H92973  10.192   4.079   7.966 -0.6430 -1.1096  2.5019
  689MOL0     H92974  10.084   4.003   7.843 -1.7070 -0.2461 -0.4672
  689MOL0     H92975   9.842   3.867   8.164 -0.2220  1.6076 -3.3713
  689MOL0     H92976   9.833   3.621   8.208  0.8669 -0.7245  0.6934
  689MOL0     H92977   9.795   3.175   8.023 -1.0384 -1.8202 -0.8712
  689MOL0     H92978   9.770   2.938   8.078  0.7032 -0.0403 -0.1268
  689MOL0     H92979   9.696   2.780   8.178 -1.7718 -0.6554  0.3161
  689MOL0     H92980   9.845   2.681   8.217 -2.7981 -6.0664  1.3406
  689MOL0     H92981   9.724   2.583   8.414 -1.7991 -1.1291  0.5949
  689MOL0     H92982   9.598   2.703   8.399 -0.4842  1.9350 -2.8647
  689MOL0     H92983   9.491   2.604   8.200 -1.0337  0.3014  1.6500
  689MOL0     H92984   9.617   2.480   8.195 -2.7450 -1.8522  0.2910
  689MOL0     H92985   9.473   2.536   8.462  1.3761 -1.7175  1.5735
  689MOL0     H92986   9.553   2.399   8.404  0.1131  1.7425  1.7637
  689MOL0     H92987   9.356   2.413   8.209 -0.3900  5.2224 -0.1017
  689MOL0     H92988   9.270   2.463   8.346  0.6781  0.1345 -0.8632
  689MOL0     H92989   9.428   2.203   8.331  0.5322  0.6552  1.5737
  689MOL0     H92990   9.314   2.256   8.458 -0.1181 -1.7351 -0.3233
  689MOL0     H92991   9.206   2.094   8.316  2.1948 -1.0204 -0.8251
  689MOL0     H92992   9.243   2.167   8.169  1.5251  0.4548 -0.0622
  689MOL0     H92993   9.083   2.329   8.382 -0.3664 -0.6729  0.0849
  689MOL0     H92994   9.076   2.365   8.216 -0.7234 -1.8163 -2.3952
  689MOL0     H92995   9.907   3.033   8.476 -0.3040 -1.5393 -0.7897
  689MOL0     H92996   9.914   3.272   8.406  0.0863  0.9428 -0.2338
  689MOL0     H92997  10.167   3.566   7.943  0.6391 -0.2682  1.7745
  689MOL0     H92998  10.195   3.804   7.924 -1.1766 -0.4186 -1.5686
  689MOL0     H92999   9.994   5.507   7.835 -0.8341 -1.3103  1.1895
  689MOL0     H93000  10.207   5.636   7.796  2.3579 -1.7115  0.2657
  689MOL0     H93001  10.427   5.929   7.968 -0.0992  0.2687 -0.5364
  689MOL0     H93002  10.597   6.125   7.990  2.7006  0.2762  0.6130
  689MOL0     H93003  10.882   6.202   7.680 -0.7927  2.7539  0.0539
  689MOL0     H93004  10.972   6.097   7.787 -0.2139  0.7363 -2.6471
  689MOL0     H93005  10.920   6.379   7.881  0.8946 -0.4740  3.9530
  689MOL0     H93006  11.065   6.338   7.773 -1.6668 -1.0601 -1.8185
  689MOL0     H93007  11.014   6.190   8.028  0.3455 -1.6337 -0.7679
  689MOL0     H93008  11.103   6.344   8.038  0.2937 -1.5681  1.2376
  689MOL0     H93009  11.190   6.087   7.976 -2.1858  0.1174  0.7070
  689MOL0     H93010  11.229   6.181   7.843  0.2177  1.2617 -0.0561
  689MOL0     H93011  11.508   6.371   8.099 -0.1362  2.0802 -1.4147
  689MOL0     H93012  10.853   5.919   7.713 -0.9672 -3.4203 -0.2704
  689MOL0     H93013  10.732   5.725   7.571 -2.5938 -0.2286 -0.2641
  689MOL0     H93014  10.833   5.672   7.708 -0.2025 -3.4868 -0.1047
  689MOL0     H93015  10.667   5.614   7.700  0.3627 -0.3900  0.1715
  690MOL0     O93016   1.118   1.366   5.320 -0.9392 -0.3020  0.2816
  690MOL0     C93017   1.037   1.393   5.403  0.8024  0.1235 -0.5310
  690MOL0     O93018   1.056   1.464   5.518 -0.0808 -1.0031 -0.2323
  690MOL0     C93019   1.182   1.467   5.572  0.2936 -0.6896 -0.4776
  690MOL0     C93020   1.227   1.380   5.669 -0.2639  0.9099 -0.5083
  690MOL0     C93021   1.363   1.393   5.711  0.0535 -0.0014 -0.0506
  690MOL0     C93022   1.443   1.494   5.661 -0.4997  0.4884  0.7402
  690MOL0     O93023   1.577   1.503   5.693 -0.8034 -0.1399 -0.0896
  690MOL0     C93024   1.623   1.459   5.820  0.1068  0.2739 -0.5341
  690MOL0     C93025   1.739   1.550   5.865 -0.1942  0.8422 -0.8384
  690MOL0     C93026   1.819   1.491   5.989  0.1564  0.9356  0.0749
  690MOL0     C93027   1.757   1.541   6.118  0.5963  0.2731  0.4953
  690MOL0     C93028   1.857   1.504   6.236 -0.4350  0.0056 -0.4374
  690MOL0     C93029   1.884   1.362   6.276 -0.6711 -0.4795 -0.2089
  690MOL0     C93030   1.766   1.280   6.310  0.4699  0.3959  0.2808
  690MOL0     C93031   1.800   1.138   6.326  0.6142  1.1299 -0.6347
  690MOL0     N93032   1.674   1.065   6.348  0.6403  0.0438 -0.2925
  690MOL0     C93033   1.588   1.087   6.455  1.0701  0.1958 -0.1130
  690MOL0     C93034   1.482   1.014   6.415  0.9614  0.9671  0.3114
  690MOL0     C93035   1.352   1.000   6.493  0.3207 -0.6715  0.5205
  690MOL0     C93036   1.348   0.860   6.561 -0.1309 -0.0841 -0.3081
  690MOL0     C93037   1.430   0.859   6.682 -0.2278  0.5367 -0.1106
  690MOL0     C93038   1.414   0.735   6.772  0.1350  0.1685 -0.1613
  690MOL0     O93039   1.279   0.715   6.826 -0.0353  0.5228 -0.3181
  690MOL0     C93040   1.268   0.618   6.921 -0.2879 -0.2245 -0.5523
  690MOL0     C93041   1.344   0.505   6.948 -0.8313  1.0007 -0.6456
  690MOL0     C93042   1.314   0.404   7.045  0.2205  0.1883  0.2403
  690MOL0     C93043   1.211   0.434   7.136 -0.4692  0.0814  0.9706
  690MOL0     C93044   1.183   0.337   7.247  0.4209  0.2950  1.3227
  690MOL0     O93045   1.290   0.257   7.295  0.6797  0.5706 -0.2378
  690MOL0     C93046   1.260   0.175   7.405  0.2497 -0.2083  0.7970
  690MOL0     C93047   1.325   0.047   7.398 -0.0240  0.9838 -0.5799
  690MOL0     C93048   1.313  -0.029   7.523 -0.2633 -0.0486 -0.7578
  690MOL0     C93049   1.238   0.017   7.633 -0.4373  0.5432 -0.7966
  690MOL0     O93050   1.228  -0.072   7.740  0.8953 -0.1831 -0.4295
  690MOL0     C93051   1.146  -0.043   7.856  0.5591 -1.1018  0.2356
  690MOL0     C93052   1.234   0.014   7.962 -0.8647  0.0370  0.3547
  690MOL0     C93053   1.165   0.130   8.028 -0.1503 -0.1914 -0.4215
  690MOL0     C93054   1.261   0.191   8.135 -0.2776  0.0352  0.3861
  690MOL0     C93055   1.283   0.086   8.241 -0.4881 -0.4698  0.4218
  690MOL0     C93056   1.343   0.164   8.357  0.3968  0.2905 -0.3761
  690MOL0     C93057   1.384   0.067   8.467  0.3461  0.8322  0.3001
  690MOL0     C93058   1.288  -0.045   8.494  0.1572 -0.3919 -0.0724
  690MOL0    Cl93059   1.350  -0.130   8.641 -0.2720 -0.2563 -0.0602
  690MOL0     C93060   1.181   0.141   7.633  1.0288 -0.7561 -0.4170
  690MOL0     C93061   1.193   0.221   7.517  0.1984  0.1270 -0.5783
  690MOL0     O93062   1.071   0.333   7.280  0.0931  0.0626 -0.4984
  690MOL0     C93063   1.136   0.561   7.118 -0.4713  0.5942  0.4019
  690MOL0     C93064   1.160   0.641   6.997  0.2142  0.6116 -1.3222
  690MOL0     N93065   1.514   0.955   6.298  0.1433 -0.4923 -0.7940
  690MOL0     N93066   1.625   0.985   6.252  0.4334 -0.1100 -0.6782
  690MOL0     C93067   1.394   1.577   5.563  0.4823  0.3278  0.4443
  690MOL0     C93068   1.262   1.570   5.522 -0.9071  0.0751 -0.3569
  690MOL0     C93069   0.910   1.341   5.376  0.4789  0.1227  0.1474
  690MOL0     C93070   0.801   1.405   5.447  0.2178 -0.3899  1.1765
  690MOL0     C93071   0.672   1.361   5.436  0.2460 -1.1201 -0.8246
  690MOL0     C93072   0.636   1.264   5.348 -0.5717 -0.6316 -0.3591
  690MOL0     O93073   0.511   1.197   5.323 -0.2391 -0.5570 -0.3123
  690MOL0     C93074   0.395   1.240   5.395  0.4475 -0.0052  0.4176
  690MOL0     C93075   0.281   1.136   5.361  0.3175 -0.0033 -0.3865
  690MOL0     C93076   0.144   1.204   5.376  1.0655  0.3239  0.3925
  690MOL0     C93077   0.118   1.287   5.245  0.1698 -0.4869  0.2709
  690MOL0     C93078  -0.017   1.343   5.258  0.4109 -0.5752 -0.5204
  690MOL0     C93079  -0.127   1.392   5.291 -0.2419 -0.0150  0.6626
  690MOL0     C93080   0.735   1.202   5.276  0.0400  0.8568  0.3432
  690MOL0     C93081   0.864   1.239   5.291  0.1710 -0.1656 -0.0422
  690MOL0     C93082   0.952   1.162   5.202 -0.4954  0.3694  0.0513
  690MOL0     H93083   1.162   1.296   5.692  1.5103 -0.7742 -1.3570
  690MOL0     H93084   1.416   1.334   5.785  0.9489  3.3024  2.1514
  690MOL0     H93085   1.542   1.447   5.892 -0.5351 -1.9124 -1.5468
  690MOL0     H93086   1.656   1.360   5.789 -0.2594  0.7041 -2.4941
  690MOL0     H93087   1.705   1.648   5.897 -2.0033 -0.6706  2.3618
  690MOL0     H93088   1.812   1.557   5.784  2.4896 -1.7620  1.0928
  690MOL0     H93089   1.923   1.524   5.985 -0.3620  2.8212  1.1747
  690MOL0     H93090   1.813   1.381   5.985  1.3557  0.8974 -1.5246
  690MOL0     H93091   1.735   1.648   6.117 -0.2803  0.1243 -1.7769
  690MOL0     H93092   1.660   1.492   6.129  0.5167 -0.5711 -2.8816
  690MOL0     H93093   1.948   1.564   6.223 -1.7025  1.7333 -1.9016
  690MOL0     H93094   1.815   1.552   6.325 -0.6532  1.5996 -1.3442
  690MOL0     H93095   1.926   1.312   6.188 -1.9772 -0.8923 -0.6262
  690MOL0     H93096   1.956   1.369   6.358 -1.4405  0.5921  0.3865
  690MOL0     H93097   1.693   1.289   6.229  0.6911 -1.6166 -0.2189
  690MOL0     H93098   1.732   1.320   6.406  3.1964  0.9712  1.0756
  690MOL0     H93099   1.854   1.107   6.236  3.8272 -1.0176  1.8042
  690MOL0     H93100   1.865   1.111   6.410  1.1192 -0.0845 -1.3923
  690MOL0     H93101   1.599   1.144   6.546  1.4465  1.6433 -1.0348
  690MOL0     H93102   1.342   1.078   6.569  0.3901  1.7511 -1.8114
  690MOL0     H93103   1.264   1.003   6.428  1.9473 -2.3424 -1.9908
  690MOL0     H93104   1.245   0.842   6.591 -1.5444  4.3533 -1.7473
  690MOL0     H93105   1.393   0.786   6.494  0.4721  0.3874 -0.4396
  690MOL0     H93106   1.425   0.950   6.742  1.7364 -0.1485  1.2034
  690MOL0     H93107   1.533   0.857   6.647  0.6123  0.0036  2.1854
  690MOL0     H93108   1.487   0.749   6.852 -0.8183  2.6077  0.3757
  690MOL0     H93109   1.434   0.651   6.704 -2.6487 -0.1948 -0.6478
  690MOL0     H93110   1.430   0.494   6.883  1.2915  4.1096  1.3548
  690MOL0     H93111   1.366   0.309   7.050 -1.9972 -1.1732 -0.7251
  690MOL0     H93112   1.389   0.013   7.317 -0.1802  0.2095 -0.3876
  690MOL0     H93113   1.365  -0.123   7.538 -1.1804 -0.2058  1.9616
  690MOL0     H93114   1.060   0.019   7.829  1.0395 -1.2114 -1.7795
  690MOL0     H93115   1.109  -0.139   7.893  0.1634 -1.2396 -0.4957
  690MOL0     H93116   1.264  -0.071   8.025 -2.3419 -0.0453  0.9771
  690MOL0     H93117   1.328   0.048   7.917  0.2325 -1.2888  1.5432
  690MOL0     H93118   1.135   0.203   7.953  2.8359  0.0173 -1.5256
  690MOL0     H93119   1.080   0.088   8.083  0.6290 -0.7192  0.4054
  690MOL0     H93120   1.207   0.282   8.162 -1.6324 -0.8421  0.7299
  690MOL0     H93121   1.359   0.225   8.099  0.3028  1.6935  3.2197
  690MOL0     H93122   1.360   0.013   8.214  0.5250  0.3418  1.0687
  690MOL0     H93123   1.190   0.034   8.267 -1.6576 -0.4634 -3.1485
  690MOL0     H93124   1.436   0.214   8.330 -0.4155  1.5853 -0.8287
  690MOL0     H93125   1.276   0.241   8.396 -0.0369 -1.1506  1.9577
  690MOL0     H93126   1.397   0.124   8.560  0.0830  0.4035  0.6072
  690MOL0     H93127   1.481   0.031   8.431  1.0565  1.8498  1.0998
  690MOL0     H93128   1.189  -0.001   8.504 -0.1254 -0.0619 -3.2698
  690MOL0     H93129   1.287  -0.116   8.410  5.1134  1.3862 -2.0489
  690MOL0     H93130   1.147   0.178   7.728  3.0840 -0.2414  0.1518
  690MOL0     H93131   1.163   0.325   7.521  0.2562  0.1179  0.2723
  690MOL0     H93132   1.063   0.588   7.193  0.3222 -0.4181  1.5938
  690MOL0     H93133   1.099   0.731   6.995  3.8050  3.2780 -1.9375
  690MOL0     H93134   1.466   1.641   5.514  1.2859 -1.1904 -0.4357
  690MOL0     H93135   1.234   1.642   5.446  1.4373  1.1721 -0.2684
  690MOL0     H93136   0.819   1.490   5.512 -1.5290 -1.2782  2.8903
  690MOL0     H93137   0.593   1.394   5.503 -0.1963  1.4036 -2.4659
  690MOL0     H93138   0.372   1.342   5.362 -2.4001 -1.0986 -1.3540
  690MOL0     H93139   0.419   1.241   5.502  1.9131 -0.5448  0.1159
  690MOL0     H93140   0.295   1.057   5.436  1.1808 -0.0134 -0.5456
  690MOL0     H93141   0.285   1.081   5.266 -1.1039  0.5648 -0.8051
  690MOL0     H93142   0.144   1.266   5.467  2.8857 -0.4157  0.9575
  690MOL0     H93143   0.074   1.121   5.383 -0.8835  0.9542 -5.8692
  690MOL0     H93144   0.191   1.367   5.230  0.4178 -0.7038  0.3035
  690MOL0     H93145   0.132   1.224   5.157  0.1470 -0.3195  0.1484
  690MOL0     H93146  -0.227   1.429   5.304  0.7540  2.8252  0.8438
  690MOL0     H93147   0.707   1.118   5.214 -0.4377  0.9995  0.3644
  690MOL0     H93148   1.024   1.225   5.150  0.7605  0.9005  2.3256
  690MOL0     H93149   1.006   1.099   5.273 -0.0425  1.1353  0.3938
  690MOL0     H93150   0.904   1.101   5.124 -1.1185 -0.5399  1.1016
  691MOL0     O93151   1.043   7.357   2.000 -0.0436  0.0595 -0.3501
  691MOL0     C93152   0.946   7.295   1.953 -0.4635  0.0525 -0.2703
  691MOL0     O93153   0.825   7.286   2.005 -0.6234  0.7497  0.5886
  691MOL0     C93154   0.792   7.333   2.126  0.3865 -0.5023 -0.1890
  691MOL0     C93155   0.661   7.381   2.139 -0.2856 -0.1538 -0.1060
  691MOL0     C93156   0.626   7.449   2.262 -0.6462 -0.0598  0.2968
  691MOL0     C93157   0.708   7.454   2.375  0.3177 -0.2074  0.0165
  691MOL0     O93158   0.663   7.505   2.501 -0.1074 -0.9602  0.8060
  691MOL0     C93159   0.734   7.472   2.618  0.3333 -0.9332 -0.1638
  691MOL0     C93160   0.694   7.337   2.655 -0.3827 -0.6045  0.1266
  691MOL0     C93161   0.556   7.306   2.705 -0.5606 -0.3532  0.7024
  691MOL0     C93162   0.451   7.316   2.591  0.4815  0.8216 -0.0367
  691MOL0     C93163   0.312   7.284   2.650 -0.8020  0.2300 -0.0917
  691MOL0     C93164   0.209   7.285   2.536 -0.2827 -0.5206 -0.9589
  691MOL0     C93165   0.060   7.266   2.591  0.4988 -0.4730 -0.6957
  691MOL0     C93166   0.034   7.135   2.673 -0.0560  0.2009  0.1272
  691MOL0     N93167   0.082   7.015   2.605 -0.1984 -0.6716 -0.6149
  691MOL0     C93168   0.043   6.981   2.477  0.0351 -0.8707 -0.0063
  691MOL0     C93169   0.089   6.852   2.465  0.5564  0.1647 -0.6150
  691MOL0     C93170   0.082   6.763   2.339  0.3778  0.4422 -0.3572
  691MOL0     C93171   0.166   6.819   2.216 -0.4825  0.3594  0.5556
  691MOL0     C93172   0.095   6.925   2.124  0.5499  0.8011 -1.3304
  691MOL0     C93173  -0.057   6.899   2.099  0.3096  0.2281  0.1240
  691MOL0     O93174  -0.082   6.763   2.077  0.1427  0.4980 -0.2802
  691MOL0     C93175  -0.025   6.702   1.964 -0.2750  0.0674  0.2371
  691MOL0     C93176   0.017   6.568   1.984 -0.1321 -0.2935 -0.5784
  691MOL0     C93177   0.086   6.493   1.884 -0.0269  0.4825  0.6508
  691MOL0     C93178   0.119   6.563   1.759 -0.0060  0.3733  0.5513
  691MOL0     C93179   0.180   6.494   1.643 -0.0190 -0.5697 -0.7988
  691MOL0     O93180   0.285   6.409   1.672  1.0201 -0.5813 -0.6726
  691MOL0     C93181   0.352   6.348   1.571  0.1564  1.1698  0.4086
  691MOL0     C93182   0.412   6.415   1.455  0.1339  0.9194  0.1296
  691MOL0     C93183   0.483   6.343   1.358  0.8690 -0.3473 -0.9928
  691MOL0     C93184   0.508   6.207   1.377 -0.0723  0.2179  0.8639
  691MOL0     O93185   0.573   6.151   1.272  0.8480  0.1588 -0.1461
  691MOL0     C93186   0.566   6.006   1.262 -0.1085 -0.0693 -0.8217
  691MOL0     C93187   0.426   5.944   1.250 -0.0210  0.1894 -0.7117
  691MOL0     C93188   0.352   5.990   1.121  0.2020 -0.4184 -0.4286
  691MOL0     C93189   0.232   5.896   1.087  0.2117  0.5679 -0.2828
  691MOL0     C93190   0.183   5.925   0.939  0.2217 -0.4679 -0.7724
  691MOL0     C93191   0.289   5.907   0.823  0.8604 -0.4292 -0.6319
  691MOL0     C93192   0.245   5.961   0.680 -0.3224  0.9642 -0.1897
  691MOL0     C93193   0.367   5.950   0.586 -0.2076  0.2636 -0.2156
  691MOL0    Cl93194   0.341   6.036   0.440 -0.2138  0.1097  0.6842
  691MOL0     C93195   0.457   6.144   1.494 -0.0827  1.0449 -0.1358
  691MOL0     C93196   0.381   6.210   1.589 -0.2701  0.0804  0.3547
  691MOL0     O93197   0.132   6.517   1.533  0.0662  0.5091  0.5505
  691MOL0     C93198   0.075   6.697   1.735 -0.0138 -0.3767 -0.7616
  691MOL0     C93199   0.007   6.769   1.844 -0.6503  0.4910  0.2048
  691MOL0     N93200   0.137   6.800   2.585 -0.0447 -0.5922  0.7981
  691MOL0     N93201   0.131   6.902   2.666 -0.1352 -0.5522 -0.0974
  691MOL0     C93202   0.835   7.394   2.357 -0.8475 -0.2909 -0.3931
  691MOL0     C93203   0.876   7.336   2.237  0.0825 -0.3940 -0.0694
  691MOL0     C93204   0.977   7.219   1.825  0.3545 -0.7810  0.1433
  691MOL0     C93205   1.095   7.259   1.750  0.8269  1.2221  0.5205
  691MOL0     C93206   1.135   7.191   1.630 -0.4542  1.4080 -0.1878
  691MOL0     C93207   1.054   7.093   1.579 -0.1866  0.7503 -0.2232
  691MOL0     O93208   1.093   7.055   1.452 -0.1986 -0.1575  0.5159
  691MOL0     C93209   1.005   6.983   1.373  0.1801  0.7875 -0.2243
  691MOL0     C93210   1.049   6.977   1.228  0.4655 -0.3290 -0.1966
  691MOL0     C93211   0.926   6.930   1.141 -0.5325  0.4474 -0.2777
  691MOL0     C93212   0.976   6.930   0.998  0.0273 -0.5107 -0.0392
  691MOL0     C93213   0.863   6.902   0.910  1.0869 -0.0805 -0.3819
  691MOL0     C93214   0.757   6.882   0.848 -0.1493  0.2229 -0.3887
  691MOL0     C93215   0.940   7.064   1.644 -0.0070 -0.3009  0.6546
  691MOL0     C93216   0.905   7.112   1.768 -0.1237  0.2090 -0.3726
  691MOL0     C93217   0.799   7.038   1.852 -0.1327  0.3198 -0.3218
  691MOL0     H93218   0.598   7.380   2.051 -0.6515 -3.3212  0.0791
  691MOL0     H93219   0.529   7.496   2.247 -0.3164  0.1353 -1.4924
  691MOL0     H93220   0.841   7.492   2.609  0.8180 -2.9404  0.5106
  691MOL0     H93221   0.694   7.537   2.696 -1.5853 -0.8156 -1.1645
  691MOL0     H93222   0.765   7.302   2.731 -1.9420 -3.2481  0.4775
  691MOL0     H93223   0.725   7.278   2.569 -0.7285 -0.4683 -0.0918
  691MOL0     H93224   0.530   7.369   2.791 -3.1540 -0.2709 -0.0649
  691MOL0     H93225   0.561   7.209   2.755 -3.1550 -0.3786  1.0481
  691MOL0     H93226   0.458   7.416   2.546 -0.4759  2.5828  3.2961
  691MOL0     H93227   0.467   7.249   2.506 -2.3355  1.2036 -0.9579
  691MOL0     H93228   0.314   7.198   2.717 -2.0244  2.1765  2.6506
  691MOL0     H93229   0.284   7.370   2.712 -0.9820  1.6123 -2.0007
  691MOL0     H93230   0.217   7.383   2.488  0.8513  0.3893  0.9873
  691MOL0     H93231   0.235   7.212   2.459  1.3441  2.8040 -3.8637
  691MOL0     H93232  -0.022   7.280   2.520  0.7410  4.6325 -0.3465
  691MOL0     H93233   0.049   7.351   2.658 -2.5482  0.1912 -1.8837
  691MOL0     H93234   0.072   7.152   2.774 -0.7895  3.5824 -0.0511
  691MOL0     H93235  -0.074   7.123   2.671 -0.2831  2.0217 -0.2298
  691MOL0     H93236   0.005   7.052   2.405 -1.1761 -1.1071  0.3844
  691MOL0     H93237   0.100   6.656   2.357 -0.0673 -0.1736 -3.1095
  691MOL0     H93238  -0.024   6.765   2.311 -0.5441  2.2310  2.7274
  691MOL0     H93239   0.261   6.847   2.261 -1.0035  1.1024  1.2194
  691MOL0     H93240   0.171   6.733   2.148 -1.9411 -1.8157  3.0039
  691MOL0     H93241   0.140   6.920   2.025  1.5538 -1.3134 -0.8250
  691MOL0     H93242   0.111   7.023   2.170  1.3274  0.4603 -0.8499
  691MOL0     H93243  -0.100   6.953   2.014 -2.2685  0.0340  1.2074
  691MOL0     H93244  -0.124   6.919   2.183 -2.0644 -1.7498 -1.1755
  691MOL0     H93245  -0.014   6.520   2.076 -2.4484  2.6426  0.3180
  691MOL0     H93246   0.105   6.394   1.925 -3.2281  0.0074  1.2896
  691MOL0     H93247   0.374   6.517   1.455 -4.4199 -0.5228 -1.6839
  691MOL0     H93248   0.517   6.392   1.268  2.5224  0.2234 -0.0885
  691MOL0     H93249   0.623   5.964   1.179 -1.4557 -0.7679 -1.4424
  691MOL0     H93250   0.602   5.960   1.355 -0.9968 -0.1956 -0.5252
  691MOL0     H93251   0.440   5.835   1.249 -0.2830  0.1499 -0.1209
  691MOL0     H93252   0.363   5.986   1.329 -1.0139 -0.4137 -1.1704
  691MOL0     H93253   0.325   6.096   1.117 -1.9400 -0.7132  2.4985
  691MOL0     H93254   0.429   5.975   1.045  1.8579  2.5339  0.4782
  691MOL0     H93255   0.146   5.920   1.150 -0.7887  1.0031 -1.7636
  691MOL0     H93256   0.259   5.790   1.084  1.4001  0.8705 -1.7342
  691MOL0     H93257   0.141   6.024   0.919 -2.1350 -1.5301 -1.4545
  691MOL0     H93258   0.102   5.853   0.924 -3.0450  2.5997  0.6264
  691MOL0     H93259   0.386   5.949   0.852 -0.6121  2.7168  0.1331
  691MOL0     H93260   0.305   5.800   0.805 -0.4418 -0.3622 -2.5348
  691MOL0     H93261   0.218   6.067   0.689 -0.4134  0.7434  3.4152
  691MOL0     H93262   0.153   5.905   0.658 -0.5134  0.3904  1.8982
  691MOL0     H93263   0.454   5.981   0.643 -0.5992  2.9012 -0.9421
  691MOL0     H93264   0.379   5.845   0.556 -1.1870  0.4271 -1.3042
  691MOL0     H93265   0.481   6.040   1.512 -0.5496  0.4229 -2.6388
  691MOL0     H93266   0.335   6.152   1.668  0.7352  0.7050  1.4304
  691MOL0     H93267   0.082   6.750   1.641  0.6885  3.4667  1.2492
  691MOL0     H93268  -0.019   6.873   1.827  3.5919  1.2653 -3.7489
  691MOL0     H93269   0.901   7.363   2.437  1.1700  2.4480 -0.8141
  691MOL0     H93270   0.974   7.291   2.219  2.2322  4.0327 -0.9232
  691MOL0     H93271   1.161   7.336   1.789  1.6018  0.0104  1.7009
  691MOL0     H93272   1.225   7.207   1.571 -0.1362 -0.5833 -0.3115
  691MOL0     H93273   0.904   7.024   1.382 -0.0674  1.3616 -4.1716
  691MOL0     H93274   0.981   6.883   1.411 -2.0274  1.4471  0.2858
  691MOL0     H93275   1.140   6.917   1.214  1.5380  0.7388  1.7659
  691MOL0     H93276   1.064   7.085   1.219 -0.5828  0.0740  2.0875
  691MOL0     H93277   0.847   7.006   1.143 -0.8425  0.1300  1.6842
  691MOL0     H93278   0.900   6.827   1.168  1.5351 -0.1739 -0.4691
  691MOL0     H93279   1.016   7.026   0.966  1.4915 -1.2832 -0.6187
  691MOL0     H93280   1.047   6.848   0.984 -0.4333 -1.3639  2.2966
  691MOL0     H93281   0.665   6.860   0.799  1.2661 -2.3373 -2.0922
  691MOL0     H93282   0.873   6.987   1.607 -2.1273  2.0842 -0.7984
  691MOL0     H93283   0.697   7.070   1.829 -0.8474 -1.0552  0.7888
  691MOL0     H93284   0.809   6.930   1.834 -0.6466  0.4784 -1.7464
  691MOL0     H93285   0.821   7.058   1.957 -0.7967 -0.7212  0.0252
  692MOL0     O93286  10.879   9.756  11.180  0.1993 -0.6955 -0.6043
  692MOL0     C93287  10.938   9.866  11.168  1.2639  1.1517  0.0440
  692MOL0     O93288  10.968   9.914  11.056  0.1525  0.8197 -0.0011
  692MOL0     C93289  10.922   9.848  10.941  1.0935 -0.5284 -0.1179
  692MOL0     C93290  10.998   9.763  10.869 -0.3206 -0.2737  0.3632
  692MOL0     C93291  10.952   9.707  10.744 -0.3134  0.1186 -0.3256
  692MOL0     C93292  10.819   9.748  10.698  0.5783  0.1023  0.2119
  692MOL0     O93293  10.769   9.706  10.571  0.8249 -0.0616 -0.9843
  692MOL0     C93294  10.815   9.578  10.540  0.1993 -0.7683  0.4929
  692MOL0     C93295  10.725   9.527  10.420 -0.2466 -0.7104  0.0256
  692MOL0     C93296  10.582   9.519  10.484  0.4993 -0.3535  0.1619
  692MOL0     C93297  10.477   9.593  10.397  0.6070  0.8725 -0.5732
  692MOL0     C93298  10.339   9.569  10.435  0.1070  0.0232 -0.3784
  692MOL0     C93299  10.230   9.594  10.328  0.1698  0.2405  0.8557
  692MOL0     C93300  10.213   9.742  10.278  0.2102  0.1531  0.3071
  692MOL0     C93301  10.172   9.854  10.378 -0.4659 -0.5477 -0.1631
  692MOL0     N93302  10.031   9.829  10.431  0.0382  0.8254 -0.0161
  692MOL0     C93303  10.002   9.748  10.532  0.6079  0.2062  0.2913
  692MOL0     C93304   9.866   9.736  10.520 -0.0108  0.5229  0.1501
  692MOL0     C93305   9.776   9.661  10.618  0.3498 -0.8323 -0.9143
  692MOL0     C93306   9.824   9.671  10.760  0.3403 -0.0162 -0.2384
  692MOL0     C93307   9.756   9.572  10.862  0.1645 -0.3966 -0.5200
  692MOL0     C93308   9.825   9.538  10.989 -0.8967 -0.1684  0.9736
  692MOL0     O93309   9.824   9.646  11.079  0.6552 -0.8696  0.6183
  692MOL0     C93310   9.860   9.618  11.206  0.4521 -0.9286 -0.3134
  692MOL0     C93311   9.776   9.668  11.304  0.3687  0.1423 -0.3572
  692MOL0     C93312   9.789   9.636  11.436 -0.0170  0.4888  1.6928
  692MOL0     C93313   9.897   9.555  11.476  0.5022  0.7475 -0.7865
  692MOL0     C93314   9.920   9.528  11.621 -0.6754  0.6534  0.1450
  692MOL0     O93315   9.876   9.625  11.706 -0.7613 -0.0252  0.7978
  692MOL0     C93316   9.912   9.628  11.835 -0.3446  0.6348  0.3748
  692MOL0     C93317   9.929   9.754  11.894 -0.1364  0.6970 -1.2962
  692MOL0     C93318   9.990   9.761  12.017 -0.6720 -0.2696  0.6742
  692MOL0     C93319  10.022   9.642  12.091 -0.2985  1.3492  1.2637
  692MOL0     O93320  10.083   9.627  12.213 -0.0190 -0.5239  0.8179
  692MOL0     C93321  10.120   9.748  12.284 -0.1055  0.6729 -0.6286
  692MOL0     C93322  10.240   9.699  12.373 -1.0953  1.1416 -0.5354
  692MOL0     C93323  10.205   9.638  12.505  0.7365  0.0801 -0.7696
  692MOL0     C93324  10.330   9.645  12.598  0.9430 -0.9868 -0.0627
  692MOL0     C93325  10.326   9.542  12.712 -0.5930 -0.4119  0.7861
  692MOL0     C93326  10.209   9.550  12.802  0.3947 -0.3385  0.3563
  692MOL0     C93327  10.192   9.694  12.858 -0.8109  0.9510  0.1654
  692MOL0     C93328  10.130   9.694  12.999  0.6864 -0.1983 -0.0111
  692MOL0    Cl93329   9.986   9.604  12.996 -0.0722 -0.0653 -0.3409
  692MOL0     C93330   9.995   9.513  12.036 -0.2818 -0.0087  0.5445
  692MOL0     C93331   9.929   9.511  11.913 -0.0836 -0.2480  0.8437
  692MOL0     O93332   9.994   9.432  11.650 -0.2999  0.5327  0.3850
  692MOL0     C93333   9.991   9.503  11.373 -0.0909 -0.1119 -1.0387
  692MOL0     C93334   9.962   9.527  11.235 -0.1233  0.3898  0.1566
  692MOL0     N93335   9.818   9.813  10.417 -0.8550  0.2666  0.2606
  692MOL0     N93336   9.920   9.866  10.357 -0.4147 -0.7645 -0.4444
  692MOL0     C93337  10.739   9.838  10.778 -0.6958  0.3343 -0.2708
  692MOL0     C93338  10.796   9.886  10.894  1.1235 -0.6536 -0.7617
  692MOL0     C93339  10.972   9.945  11.286 -0.1650 -0.7097 -0.3319
  692MOL0     C93340  11.089  10.025  11.281  0.3926  1.0834  0.0469
  692MOL0     C93341  11.129  10.107  11.392  0.5752 -0.5491 -0.0236
  692MOL0     C93342  11.056  10.105  11.508  0.7530 -0.6578 -0.6037
  692MOL0     O93343  11.079  10.183  11.620  0.5255  0.1555 -0.4956
  692MOL0     C93344  11.206  10.240  11.651  0.7156 -0.4830 -1.7069
  692MOL0     C93345  11.202  10.319  11.794  0.9973  0.4417 -0.2769
  692MOL0     C93346  11.205  10.234  11.917 -0.2671 -0.3543 -0.5655
  692MOL0     C93347  11.196  10.314  12.051 -0.7838  0.3485  1.1328
  692MOL0     C93348  11.071  10.393  12.067 -1.2068 -0.7402 -0.0957
  692MOL0     C93349  10.971  10.465  12.081 -0.0623  0.6021 -0.0515
  692MOL0     C93350  10.937  10.025  11.517  0.7111 -0.9385 -0.4974
  692MOL0     C93351  10.899   9.945  11.406  1.4315  0.2657 -0.2857
  692MOL0     C93352  10.776   9.861  11.430 -0.0198  0.0135 -0.5253
  692MOL0     H93353  11.094   9.745  10.918  0.0228 -1.6643 -0.7294
  692MOL0     H93354  11.020   9.637  10.696  0.3105  0.5092 -0.0200
  692MOL0     H93355  10.921   9.577  10.513  0.2649 -1.4316  0.7509
  692MOL0     H93356  10.806   9.500  10.616 -0.0154  1.4694  2.8997
  692MOL0     H93357  10.755   9.428  10.385  1.0890 -0.5402  0.6090
  692MOL0     H93358  10.730   9.607  10.346  0.2376 -0.6124  0.1558
  692MOL0     H93359  10.579   9.547  10.590  3.3363 -1.1495  0.5400
  692MOL0     H93360  10.568   9.411  10.479 -2.0426 -0.0292 -1.2917
  692MOL0     H93361  10.497   9.700  10.380 -0.6485  1.1891 -0.1263
  692MOL0     H93362  10.488   9.543  10.300 -0.6742 -0.9184  0.1651
  692MOL0     H93363  10.328   9.466  10.471 -0.0079  0.8763  2.2311
  692MOL0     H93364  10.314   9.621  10.528 -0.6392  1.5325 -1.3932
  692MOL0     H93365  10.261   9.539  10.238  2.9406  0.0045  1.8513
  692MOL0     H93366  10.140   9.543  10.362  1.5224 -3.3919 -0.5213
  692MOL0     H93367  10.143   9.744  10.194  0.4712  1.3342  0.1009
  692MOL0     H93368  10.310   9.768  10.233  0.8898 -1.2105  0.9255
  692MOL0     H93369  10.236   9.852  10.466 -1.2211 -0.3015  0.3967
  692MOL0     H93370  10.186   9.954  10.336  0.5397 -1.4714 -2.2137
  692MOL0     H93371  10.066   9.703  10.608 -2.5439 -3.4267  1.1450
  692MOL0     H93372   9.673   9.697  10.626  1.0206  0.7585  2.1774
  692MOL0     H93373   9.777   9.552  10.605 -0.2105 -1.1488  1.3741
  692MOL0     H93374   9.930   9.644  10.753  0.7216  1.0988  0.7661
  692MOL0     H93375   9.813   9.774  10.796  1.0677  0.6137 -1.7235
  692MOL0     H93376   9.752   9.473  10.816 -2.6536 -0.1840 -0.9037
  692MOL0     H93377   9.653   9.605  10.878  0.4639  0.2197  0.1804
  692MOL0     H93378   9.929   9.515  10.965 -0.3954  1.6089  1.3142
  692MOL0     H93379   9.777   9.451  11.036 -1.5799 -0.9139 -1.0052
  692MOL0     H93380   9.698   9.739  11.279  0.6352  0.1288 -1.2724
  692MOL0     H93381   9.719   9.669  11.512 -0.6530  1.7939  0.5789
  692MOL0     H93382   9.921   9.850  11.844 -0.5638  1.4836  0.2499
  692MOL0     H93383  10.017   9.857  12.059  1.3882 -0.3222 -0.4051
  692MOL0     H93384  10.149   9.830  12.218  0.2040  1.9627  1.0574
  692MOL0     H93385  10.033   9.768  12.347  0.1070 -1.9086  0.6208
  692MOL0     H93386  10.299   9.624  12.319  0.1637  1.0013  0.9970
  692MOL0     H93387  10.297   9.789  12.398 -2.3252  2.8313 -3.2981
  692MOL0     H93388  10.130   9.696  12.558  1.7597  0.3360  0.4528
  692MOL0     H93389  10.172   9.536  12.484  3.3050 -1.6774  2.6558
  692MOL0     H93390  10.347   9.748  12.632 -0.3367 -0.3530 -1.2086
  692MOL0     H93391  10.413   9.620  12.531  0.0811  0.2031 -1.6522
  692MOL0     H93392  10.414   9.568  12.770  0.4092  1.0169 -1.2508
  692MOL0     H93393  10.338   9.440  12.675 -1.6306  0.7739 -3.3016
  692MOL0     H93394  10.118   9.527  12.745 -0.5264  0.7240  1.3322
  692MOL0     H93395  10.219   9.479  12.885 -3.9997 -1.6877  0.0054
  692MOL0     H93396  10.140   9.755  12.784  0.7305  1.8461 -0.2129
  692MOL0     H93397  10.290   9.738  12.876 -0.9315  1.9622 -1.4704
  692MOL0     H93398  10.201   9.643  13.065  0.0737  1.9707  2.5006
  692MOL0     H93399  10.120   9.796  13.037  1.7667 -0.2874  0.5521
  692MOL0     H93400  10.019   9.419  12.085 -0.5323 -0.3457  0.0304
  692MOL0     H93401   9.919   9.410  11.876  1.6762 -0.7423  1.6460
  692MOL0     H93402  10.073   9.442  11.408 -0.3241  0.7615  1.2077
  692MOL0     H93403  10.018   9.486  11.152 -1.0614  2.2788 -1.4906
  692MOL0     H93404  10.638   9.855  10.743 -0.6766  1.5389  0.2151
  692MOL0     H93405  10.735   9.957  10.948  2.2416 -0.0920 -0.1905
  692MOL0     H93406  11.147  10.027  11.189  1.8923  1.5500  0.9697
  692MOL0     H93407  11.216  10.171  11.379  2.0313 -1.5532  3.5815
  692MOL0     H93408  11.222  10.317  11.576 -1.4052 -2.0319 -3.8844
  692MOL0     H93409  11.276  10.156  11.650  0.1417 -1.0171 -0.4532
  692MOL0     H93410  11.114  10.383  11.800  1.9147  1.5932  1.8360
  692MOL0     H93411  11.285  10.389  11.808  1.5895 -0.2900 -0.0125
  692MOL0     H93412  11.298  10.176  11.917  1.3808  2.0388 -2.7732
  692MOL0     H93413  11.120  10.166  11.918 -0.1053 -0.5701 -1.1498
  692MOL0     H93414  11.208  10.249  12.138  1.0524  1.2882  1.6406
  692MOL0     H93415  11.283  10.381  12.051 -0.7010  0.3880 -2.1911
  692MOL0     H93416  10.890  10.532  12.100 -0.2195  0.3063  0.3409
  692MOL0     H93417  10.880  10.018  11.609 -0.5011 -0.8251 -1.2269
  692MOL0     H93418  10.715   9.898  11.513  0.7900  0.7952 -0.2694
  692MOL0     H93419  10.711   9.868  11.342 -1.3331 -1.4094  0.2779
  692MOL0     H93420  10.812   9.759  11.446  2.4819  0.8315 -0.5131
  693MOL0     O93421   2.880   2.017   8.316  0.1421  0.2640  0.3715
  693MOL0     C93422   2.897   2.046   8.437 -0.9111  0.6146  0.3038
  693MOL0     O93423   2.889   1.947   8.534  0.1862 -0.5415 -0.3004
  693MOL0     C93424   2.788   1.847   8.514  1.0916 -1.0873  0.2886
  693MOL0     C93425   2.808   1.715   8.527 -0.5045 -0.6708 -0.6188
  693MOL0     C93426   2.700   1.626   8.505 -0.9876 -1.0255  0.3414
  693MOL0     C93427   2.566   1.665   8.483 -0.5268 -0.3465 -1.2876
  693MOL0     O93428   2.480   1.564   8.439  0.8178 -0.0663  0.7146
  693MOL0     C93429   2.386   1.602   8.339  0.3457 -0.9229  0.1201
  693MOL0     C93430   2.357   1.469   8.265  0.3711 -1.0595 -0.1772
  693MOL0     C93431   2.468   1.406   8.182  0.5235 -0.1523  0.4932
  693MOL0     C93432   2.577   1.351   8.270 -0.1923  0.2528  0.2313
  693MOL0     C93433   2.664   1.245   8.185  0.4738  0.8268  1.3516
  693MOL0     C93434   2.739   1.292   8.058  0.2750  0.7434 -0.1694
  693MOL0     C93435   2.862   1.388   8.089  0.6546  0.1617  0.0531
  693MOL0     C93436   2.894   1.485   7.966 -0.2559  0.3523  0.7586
  693MOL0     N93437   2.999   1.583   7.999 -0.1500  0.0839  0.8741
  693MOL0     C93438   3.012   1.665   8.106  0.4652 -0.4923  0.6278
  693MOL0     C93439   3.114   1.745   8.079  0.1732  0.4661 -0.1635
  693MOL0     C93440   3.165   1.838   8.191 -0.4108  0.2321 -0.3996
  693MOL0     C93441   3.275   1.771   8.266 -0.2580 -0.0539  0.6574
  693MOL0     C93442   3.284   1.826   8.408  0.3757  0.1889  0.3155
  693MOL0     C93443   3.432   1.813   8.472  0.3119  0.1641 -0.0413
  693MOL0     O93444   3.455   1.674   8.512  0.1311 -0.2608  0.3959
  693MOL0     C93445   3.401   1.623   8.628  0.1487  0.2999  0.1794
  693MOL0     C93446   3.296   1.674   8.697  0.5582  0.7406 -0.8807
  693MOL0     C93447   3.252   1.608   8.813 -0.7377  0.3976 -0.4954
  693MOL0     C93448   3.309   1.496   8.859  0.8662 -0.4860  0.0300
  693MOL0     C93449   3.272   1.441   8.989 -0.4730  1.4668 -0.7477
  693MOL0     O93450   3.328   1.327   9.035 -0.6861  0.4627 -0.1126
  693MOL0     C93451   3.251   1.260   9.124  0.2018  0.2549 -0.4198
  693MOL0     C93452   3.268   1.259   9.265  0.6312  0.7343 -0.5101
  693MOL0     C93453   3.179   1.194   9.347 -0.4614 -0.0106  0.0225
  693MOL0     C93454   3.068   1.118   9.292 -0.2866  0.0348  0.2897
  693MOL0     O93455   2.986   1.046   9.378  0.2041 -0.4257  0.7492
  693MOL0     C93456   2.867   0.983   9.331  0.1259  0.2661  0.4199
  693MOL0     C93457   2.784   0.943   9.446 -0.5692 -0.3132 -0.2923
  693MOL0     C93458   2.737   1.051   9.552 -0.6558  0.4309  0.1193
  693MOL0     C93459   2.644   0.992   9.658 -0.2082 -0.2984 -0.0286
  693MOL0     C93460   2.593   1.110   9.751 -0.6484  0.4758 -0.3475
  693MOL0     C93461   2.690   1.139   9.867  0.2907 -0.0457 -0.6892
  693MOL0     C93462   2.625   1.254   9.957 -0.0140  0.6888  0.5077
  693MOL0     C93463   2.645   1.396   9.896  0.1350  0.2911 -0.1018
  693MOL0    Cl93464   2.613   1.535  10.013  0.1528  0.3640  0.2796
  693MOL0     C93465   3.052   1.120   9.151 -0.7721 -0.4255 -0.5528
  693MOL0     C93466   3.140   1.187   9.070  0.8998 -0.5715  0.0694
  693MOL0     O93467   3.173   1.496   9.039 -0.1425 -0.3065 -0.4616
  693MOL0     C93468   3.408   1.437   8.782  0.4309  0.0852 -0.0816
  693MOL0     C93469   3.462   1.504   8.671  0.1134  0.1367  0.4046
  693MOL0     N93470   3.169   1.712   7.961  0.5192  0.6041  0.2633
  693MOL0     N93471   3.103   1.608   7.914 -0.1900  0.4246  0.2925
  693MOL0     C93472   2.547   1.797   8.464 -0.6392 -0.5161 -0.1810
  693MOL0     C93473   2.656   1.888   8.478  0.0168  0.5014  0.6552
  693MOL0     C93474   2.943   2.185   8.463 -0.4229  0.1165 -0.6856
  693MOL0     C93475   2.909   2.245   8.588  0.0428  1.2149 -0.3081
  693MOL0     C93476   2.955   2.368   8.621 -1.0279 -0.2544 -0.0728
  693MOL0     C93477   3.023   2.452   8.530  0.5301 -0.7149 -0.5429
  693MOL0     O93478   3.068   2.582   8.539 -0.1220  0.2727  0.0733
  693MOL0     C93479   3.024   2.667   8.646  1.1047  0.1514  0.2345
  693MOL0     C93480   3.066   2.814   8.624 -0.8004 -0.5930 -0.2501
  693MOL0     C93481   3.020   2.917   8.735  0.3206  0.1846  0.4767
  693MOL0     C93482   3.042   3.060   8.698  0.3869 -0.5527  0.2113
  693MOL0     C93483   3.184   3.099   8.673  0.2174  0.4375  0.6363
  693MOL0     C93484   3.295   3.132   8.650  1.0748  0.0995  0.7951
  693MOL0     C93485   3.036   2.400   8.397  0.3239  0.1116 -0.8256
  693MOL0     C93486   3.005   2.265   8.367 -0.9879  0.1573 -0.4371
  693MOL0     C93487   3.059   2.218   8.229  0.2835  0.1586  0.0179
  693MOL0     H93488   2.900   1.672   8.566  1.1546  2.4482 -0.8197
  693MOL0     H93489   2.720   1.519   8.509 -2.0455 -1.2966 -0.9882
  693MOL0     H93490   2.293   1.632   8.388  0.4142 -1.9052  0.8774
  693MOL0     H93491   2.419   1.680   8.271  0.0331 -1.5275 -0.7394
  693MOL0     H93492   2.280   1.490   8.191 -0.0131  1.2739  0.7985
  693MOL0     H93493   2.320   1.393   8.335  1.8457 -0.8250  0.8924
  693MOL0     H93494   2.512   1.479   8.114  3.2846 -0.3854  1.8853
  693MOL0     H93495   2.426   1.321   8.127  2.7454 -1.1015  0.1539
  693MOL0     H93496   2.654   1.423   8.295 -0.3950  1.3092 -1.9240
  693MOL0     H93497   2.538   1.305   8.361 -2.0535  0.8636 -0.2074
  693MOL0     H93498   2.741   1.204   8.251 -0.9110 -0.8664  1.9794
  693MOL0     H93499   2.595   1.169   8.148 -1.3158  2.2064  1.7422
  693MOL0     H93500   2.786   1.202   8.017 -0.2623  0.2575  0.2627
  693MOL0     H93501   2.674   1.341   7.986  0.4542 -0.3314 -1.0906
  693MOL0     H93502   2.943   1.315   8.099  0.6485 -0.1958 -2.1214
  693MOL0     H93503   2.852   1.443   8.183  2.6728  1.6089 -0.5194
  693MOL0     H93504   2.929   1.439   7.873 -1.4271 -2.1501  1.4786
  693MOL0     H93505   2.798   1.532   7.941  0.6645  1.4997 -0.8421
  693MOL0     H93506   2.956   1.661   8.199  2.5118 -0.1733  1.9377
  693MOL0     H93507   3.190   1.934   8.145 -0.8200  1.3242  1.5453
  693MOL0     H93508   3.083   1.854   8.261  0.2999 -1.0794  0.7668
  693MOL0     H93509   3.254   1.665   8.279 -0.0745 -0.2878 -0.7884
  693MOL0     H93510   3.365   1.792   8.207 -0.4655 -0.9152  0.0252
  693MOL0     H93511   3.214   1.771   8.471  1.9296 -0.8561  1.1872
  693MOL0     H93512   3.258   1.932   8.401 -1.4358 -0.0777  2.1769
  693MOL0     H93513   3.443   1.880   8.558 -0.1659  1.4162 -0.9236
  693MOL0     H93514   3.514   1.833   8.402  0.2758 -0.1178 -0.1631
  693MOL0     H93515   3.248   1.768   8.671  2.2444  1.4504 -1.5366
  693MOL0     H93516   3.164   1.647   8.862 -0.5676  0.1281  0.0355
  693MOL0     H93517   3.355   1.314   9.303  1.2693 -1.2570  1.0739
  693MOL0     H93518   3.196   1.205   9.454 -0.9912 -5.0886  0.8708
  693MOL0     H93519   2.808   1.048   9.265 -2.2087 -0.5774  1.5639
  693MOL0     H93520   2.898   0.894   9.275 -0.0127 -0.5011  1.5439
  693MOL0     H93521   2.687   0.911   9.405 -0.2912 -0.1689 -1.0863
  693MOL0     H93522   2.840   0.870   9.505 -0.7348  0.2752  0.6172
  693MOL0     H93523   2.818   1.098   9.608  0.7209 -2.3827  0.7021
  693MOL0     H93524   2.698   1.141   9.504  3.7847  3.5461  1.7775
  693MOL0     H93525   2.695   0.916   9.718  0.1723 -0.7215 -0.8571
  693MOL0     H93526   2.562   0.945   9.604  1.2660 -0.1176 -2.5895
  693MOL0     H93527   2.501   1.082   9.804  1.0497  1.7608  3.6613
  693MOL0     H93528   2.564   1.197   9.692 -3.1130 -0.1082 -0.1280
  693MOL0     H93529   2.702   1.051   9.931  0.3714 -2.0577 -3.2973
  693MOL0     H93530   2.793   1.161   9.836  0.6169 -0.5724  0.0065
  693MOL0     H93531   2.681   1.260  10.050 -1.3422  1.9039  1.2610
  693MOL0     H93532   2.520   1.230   9.978 -1.2054  2.2468 -2.9770
  693MOL0     H93533   2.745   1.402   9.852  0.7726 -2.0860  0.8685
  693MOL0     H93534   2.579   1.415   9.810 -0.3296 -0.3163  0.1158
  693MOL0     H93535   2.978   1.068   9.090 -0.2277 -1.7927 -0.0977
  693MOL0     H93536   3.118   1.180   8.964  4.4337 -0.0914 -0.8112
  693MOL0     H93537   3.446   1.340   8.813  0.2088  0.8796  2.9673
  693MOL0     H93538   3.537   1.459   8.607 -0.6723 -0.9967  0.2490
  693MOL0     H93539   2.466   1.851   8.415  2.5143  1.7163 -3.5127
  693MOL0     H93540   2.640   1.993   8.453 -1.0017  0.1097 -0.4154
  693MOL0     H93541   2.851   2.187   8.659  0.4764  1.1790  0.0214
  693MOL0     H93542   2.928   2.411   8.717  0.0185  3.4635 -1.2782
  693MOL0     H93543   3.051   2.636   8.748 -1.7529  1.4499  1.5136
  693MOL0     H93544   2.916   2.679   8.634  1.6472  4.4271 -2.1218
  693MOL0     H93545   3.026   2.861   8.533 -0.3464 -1.7029 -1.0448
  693MOL0     H93546   3.176   2.807   8.621 -0.7111  0.5166 -0.2184
  693MOL0     H93547   3.078   2.890   8.824 -2.7913 -0.6219  2.4179
  693MOL0     H93548   2.914   2.907   8.760  0.6633  1.1626  2.5374
  693MOL0     H93549   2.986   3.098   8.612  1.2404  2.5371  0.8908
  693MOL0     H93550   3.006   3.123   8.780 -2.2437 -1.1916 -0.3599
  693MOL0     H93551   3.395   3.149   8.616  1.6271 -4.8387 -0.8924
  693MOL0     H93552   3.082   2.465   8.322 -2.7052  5.5291  1.4649
  693MOL0     H93553   2.972   2.205   8.163  1.1623 -2.3109 -0.7692
  693MOL0     H93554   3.131   2.291   8.192  0.9894 -0.0579  0.9546
  693MOL0     H93555   3.099   2.117   8.240  0.2439  0.2448  1.0222
  694MOL0     O93556  11.019   7.661   3.346 -0.2216 -0.2894 -0.7781
  694MOL0     C93557  11.065   7.647   3.235  0.1399 -0.0929  1.0667
  694MOL0     O93558  11.161   7.720   3.187  0.3262  0.8240 -0.5004
  694MOL0     C93559  11.218   7.829   3.252 -0.4202 -0.5388 -0.1329
  694MOL0     C93560  11.207   7.875   3.391  0.0611 -0.0232 -0.4574
  694MOL0     C93561  11.278   7.986   3.440  0.4669  0.0606  0.4605
  694MOL0     C93562  11.370   8.052   3.357  0.9796 -0.4747  0.1260
  694MOL0     O93563  11.452   8.152   3.406 -0.2801  0.3345 -0.8594
  694MOL0     C93564  11.458   8.177   3.548 -0.4424 -0.3867  1.1117
  694MOL0     C93565  11.571   8.112   3.625  0.1734 -0.7930 -0.5789
  694MOL0     C93566  11.692   8.063   3.551  0.2004 -0.2163 -0.0799
  694MOL0     C93567  11.821   8.051   3.650 -0.2589  0.4099  0.0142
  694MOL0     C93568  11.961   8.033   3.592 -0.4588  0.0977  0.3549
  694MOL0     C93569  11.963   7.898   3.507 -0.7133 -0.0336  0.6773
  694MOL0     C93570  12.097   7.812   3.527 -0.0510 -1.4173  0.2418
  694MOL0     C93571  12.133   7.745   3.396 -0.3389 -0.3914  0.4338
  694MOL0     N93572  12.261   7.671   3.393 -0.4667  0.1895 -0.6741
  694MOL0     C93573  12.298   7.571   3.312  0.0185  0.8619 -0.4456
  694MOL0     C93574  12.436   7.559   3.330 -0.3134 -0.4690  1.3559
  694MOL0     C93575  12.528   7.478   3.243 -0.6406  0.1398  0.0051
  694MOL0     C93576  12.637   7.402   3.328 -0.3196  0.3156 -0.3676
  694MOL0     C93577  12.764   7.375   3.243 -0.5466 -0.2710 -0.2855
  694MOL0     C93578  12.890   7.348   3.322 -0.5415 -0.6272  0.1781
  694MOL0     O93579  12.869   7.219   3.394 -0.1738 -0.4288  0.6114
  694MOL0     C93580  12.919   7.100   3.346  0.3872 -0.0183 -0.0747
  694MOL0     C93581  12.869   6.985   3.396 -0.2053 -0.3759  0.6354
  694MOL0     C93582  12.922   6.867   3.354  0.4138  0.0307  0.8712
  694MOL0     C93583  13.017   6.848   3.253 -1.0470 -0.5726  0.0962
  694MOL0     C93584  13.061   6.712   3.215 -0.1764 -0.3570 -0.7547
  694MOL0     O93585  13.000   6.609   3.271 -0.3865 -0.2070 -0.2239
  694MOL0     C93586  13.021   6.482   3.215 -0.2995  0.2452  0.7576
  694MOL0     C93587  13.084   6.387   3.292 -0.5266 -0.3926  0.1844
  694MOL0     C93588  13.111   6.256   3.252 -1.2677 -0.1204 -0.2979
  694MOL0     C93589  13.077   6.223   3.123 -1.2883  0.2976 -0.6343
  694MOL0     O93590  13.129   6.100   3.077  0.4880  0.1655 -1.1052
  694MOL0     C93591  13.147   6.092   2.939  0.2563 -0.1417  0.1459
  694MOL0     C93592  13.225   5.959   2.911  0.1549  0.3074  0.3770
  694MOL0     C93593  13.375   5.958   2.944 -0.1470  0.4799  0.4509
  694MOL0     C93594  13.449   5.916   2.824  0.5727 -0.0487 -0.1513
  694MOL0     C93595  13.607   5.928   2.831 -0.2849 -0.2355 -1.0826
  694MOL0     C93596  13.670   5.892   2.698 -0.2453  0.0868  0.8643
  694MOL0     C93597  13.828   5.876   2.720  0.8808 -0.3365  0.5341
  694MOL0     C93598  13.896   5.847   2.586  0.5918 -0.2577 -0.3218
  694MOL0    Cl93599  13.846   5.674   2.554 -0.0786  0.0650  0.0375
  694MOL0     C93600  13.010   6.309   3.039 -0.6566 -0.0677 -0.1563
  694MOL0     C93601  12.985   6.444   3.081  0.9146 -0.7242 -0.7951
  694MOL0     O93602  13.136   6.700   3.122 -0.3555 -0.1544  0.3492
  694MOL0     C93603  13.072   6.966   3.194  0.3557 -0.0957 -1.3999
  694MOL0     C93604  13.024   7.093   3.248 -0.4142  0.4962  0.5896
  694MOL0     N93605  12.479   7.648   3.425  0.8140 -0.2251 -0.8859
  694MOL0     N93606  12.371   7.712   3.460 -0.1518  0.6655 -0.7460
  694MOL0     C93607  11.380   8.013   3.226 -1.3253  0.3455 -0.2403
  694MOL0     C93608  11.314   7.901   3.175 -0.1544  0.1220 -0.5655
  694MOL0     C93609  11.017   7.534   3.161 -0.4641 -0.3868  0.0899
  694MOL0     C93610  11.012   7.406   3.218 -0.2168 -0.5246 -2.0105
  694MOL0     C93611  10.969   7.295   3.142 -0.2787 -0.1873  0.0294
  694MOL0     C93612  10.935   7.310   3.014  0.3977 -0.4752  0.6361
  694MOL0     O93613  10.869   7.214   2.941 -0.1119 -0.0376  0.0887
  694MOL0     C93614  10.734   7.245   2.915 -0.3745 -1.0149  0.1440
  694MOL0     C93615  10.653   7.120   2.909  0.1183 -0.2985 -0.0576
  694MOL0     C93616  10.495   7.162   2.883 -0.7405 -0.1358  0.3316
  694MOL0     C93617  10.427   7.027   2.850 -0.7522 -0.2667 -0.0076
  694MOL0     C93618  10.288   7.008   2.902 -0.1787 -0.7481  0.2646
  694MOL0     C93619  10.171   6.998   2.946 -0.1573 -0.6875  0.3076
  694MOL0     C93620  10.928   7.436   2.954  1.4689  0.6721 -0.4591
  694MOL0     C93621  10.971   7.548   3.026  0.5560 -0.1604 -0.3106
  694MOL0     C93622  10.936   7.673   2.953 -0.5302  0.0119  0.4677
  694MOL0     H93623  11.130   7.842   3.460  1.3064  1.2398  1.6518
  694MOL0     H93624  11.251   8.014   3.542  0.9502  0.1833  0.5583
  694MOL0     H93625  11.494   8.280   3.555 -0.7488 -0.3903  3.7624
  694MOL0     H93626  11.358   8.185   3.590 -0.6570  1.6574  0.3281
  694MOL0     H93627  11.520   8.027   3.670 -2.3742  0.4100 -0.9837
  694MOL0     H93628  11.601   8.183   3.703 -0.6581 -2.1374  1.0151
  694MOL0     H93629  11.715   8.136   3.473  0.5903  1.3834  1.4695
  694MOL0     H93630  11.690   7.963   3.508  1.2718 -1.1396  1.8624
  694MOL0     H93631  11.831   8.146   3.704  1.3802  1.0889 -1.3635
  694MOL0     H93632  11.815   7.973   3.726  2.0896 -0.8421 -0.9484
  694MOL0     H93633  11.982   8.111   3.519  0.4916 -1.4881 -1.1321
  694MOL0     H93634  12.030   8.039   3.677  1.2242  0.5967 -0.9993
  694MOL0     H93635  11.881   7.835   3.544 -3.4402  1.3754 -2.4434
  694MOL0     H93636  11.944   7.911   3.400 -2.4411 -0.7186  0.8614
  694MOL0     H93637  12.077   7.739   3.607 -1.2738 -0.6645  0.6694
  694MOL0     H93638  12.174   7.880   3.564 -0.2751  0.5256 -2.5594
  694MOL0     H93639  12.055   7.680   3.356  1.1808 -2.3695  0.5400
  694MOL0     H93640  12.148   7.832   3.331  0.7078 -0.3696  0.6870
  694MOL0     H93641  12.241   7.500   3.253 -0.9875 -0.1195  1.6026
  694MOL0     H93642  12.475   7.423   3.165 -1.0255  1.3384 -0.6125
  694MOL0     H93643  12.582   7.551   3.182  0.7378 -1.6438 -0.9943
  694MOL0     H93644  12.677   7.460   3.411  1.7072 -0.9760 -0.3692
  694MOL0     H93645  12.594   7.307   3.359 -0.7875  0.3911 -0.7717
  694MOL0     H93646  12.792   7.458   3.178  1.6541 -2.5235 -2.4452
  694MOL0     H93647  12.741   7.283   3.188  1.2330 -0.2776 -1.0971
  694MOL0     H93648  12.925   7.431   3.383  1.4755 -1.6658  0.5092
  694MOL0     H93649  12.974   7.349   3.252 -0.7409 -1.1244 -0.0758
  694MOL0     H93650  12.782   6.988   3.461  1.8800 -1.2608  3.7127
  694MOL0     H93651  12.875   6.786   3.408 -0.2145  0.3446  0.8081
  694MOL0     H93652  13.119   6.424   3.388  0.7101  0.8235 -0.6994
  694MOL0     H93653  13.157   6.186   3.321  1.3699  1.6743 -0.1146
  694MOL0     H93654  13.052   6.079   2.886 -0.2526 -1.6648  1.3471
  694MOL0     H93655  13.213   6.168   2.895  0.7137  1.9573  4.0506
  694MOL0     H93656  13.176   5.873   2.958  0.7888 -1.5656 -2.1220
  694MOL0     H93657  13.213   5.931   2.806  3.2177  2.5495 -0.7158
  694MOL0     H93658  13.403   6.055   2.988 -2.0263  0.5452  1.6164
  694MOL0     H93659  13.401   5.882   3.018  0.3448  0.1688 -0.0261
  694MOL0     H93660  13.423   5.983   2.741  2.9239  0.5899 -0.4581
  694MOL0     H93661  13.430   5.811   2.800  2.9645 -1.3071  2.9056
  694MOL0     H93662  13.646   5.864   2.910 -1.9579  0.2647  0.1944
  694MOL0     H93663  13.652   6.022   2.863  3.1615 -1.5443 -1.6080
  694MOL0     H93664  13.630   5.795   2.668 -3.1062  1.4502 -0.1056
  694MOL0     H93665  13.657   5.966   2.618 -1.1922 -1.1915 -0.2093
  694MOL0     H93666  13.862   5.796   2.787 -0.3392 -1.2973  0.0404
  694MOL0     H93667  13.868   5.974   2.747  0.5953 -0.1847  0.4002
  694MOL0     H93668  13.852   5.901   2.502  0.1091 -0.5038 -0.2298
  694MOL0     H93669  14.005   5.861   2.594  0.6010 -0.0785 -0.7568
  694MOL0     H93670  12.979   6.280   2.939  0.4095 -0.7798 -0.2992
  694MOL0     H93671  12.929   6.512   3.017  1.8892  1.6789  0.7800
  694MOL0     H93672  13.143   6.966   3.112  2.2311  1.0637  0.1351
  694MOL0     H93673  13.063   7.181   3.197 -0.9231 -0.2735 -1.1816
  694MOL0     H93674  11.452   8.059   3.159  0.3153 -0.3430  0.9700
  694MOL0     H93675  11.341   7.874   3.073  1.4383  0.9923 -0.4121
  694MOL0     H93676  11.058   7.383   3.314 -1.5911 -1.7287 -1.6034
  694MOL0     H93677  10.959   7.195   3.185 -1.0971  0.1285  0.5954
  694MOL0     H93678  10.713   7.299   2.822  1.0119 -0.1047  0.3338
  694MOL0     H93679  10.692   7.301   2.999  0.4138 -1.2323  0.6904
  694MOL0     H93680  10.659   7.072   3.007  1.6042 -3.1775 -1.4040
  694MOL0     H93681  10.690   7.054   2.829 -0.6836 -2.0056  0.9233
  694MOL0     H93682  10.475   7.234   2.804  0.5554 -1.7793 -1.5999
  694MOL0     H93683  10.453   7.208   2.972 -2.0332 -0.9999  0.1906
  694MOL0     H93684  10.423   7.006   2.743 -0.6141  0.5199 -0.1685
  694MOL0     H93685  10.482   6.949   2.903 -1.3929 -1.2494 -0.7460
  694MOL0     H93686  10.066   6.992   2.966 -0.4384  3.3762  0.9548
  694MOL0     H93687  10.900   7.448   2.850  0.0603 -0.1212 -0.2002
  694MOL0     H93688  10.996   7.759   2.984 -3.2145  2.0783  0.2625
  694MOL0     H93689  10.948   7.669   2.844 -1.2064  0.0004  0.3891
  694MOL0     H93690  10.834   7.701   2.979  0.0268  0.2772  2.5815
  695MOL0     O93691   1.548   0.105   0.729  0.5206 -0.0252  0.6327
  695MOL0     C93692   1.527   0.169   0.622  0.0987  0.3882  0.5469
  695MOL0     O93693   1.630   0.213   0.540  0.3881 -0.1412 -0.5384
  695MOL0     C93694   1.761   0.232   0.581  0.8072  0.0164  0.3018
  695MOL0     C93695   1.832   0.119   0.627  1.0131  0.0436 -0.2365
  695MOL0     C93696   1.965   0.131   0.652 -0.0362  0.2349  0.3988
  695MOL0     C93697   2.025   0.259   0.638 -0.0033 -0.2029 -0.2225
  695MOL0     O93698   2.162   0.265   0.650 -0.1252 -0.0373 -0.0308
  695MOL0     C93699   2.241   0.324   0.545  0.5790  0.2732  0.1871
  695MOL0     C93700   2.274   0.231   0.428 -0.2691  0.9753  0.3279
  695MOL0     C93701   2.350   0.106   0.484  0.4658  0.3145  0.1002
  695MOL0     C93702   2.456   0.051   0.380  0.3941  0.6025 -0.1486
  695MOL0     C93703   2.539  -0.066   0.443 -0.3525  0.1323  0.2036
  695MOL0     C93704   2.648  -0.129   0.357  0.3630 -0.2966  0.3846
  695MOL0     C93705   2.593  -0.182   0.226 -0.2157  0.4389  0.3042
  695MOL0     C93706   2.530  -0.323   0.229 -0.1632  0.4264 -0.2880
  695MOL0     N93707   2.395  -0.314   0.178 -0.2240 -0.0677  0.1784
  695MOL0     C93708   2.385  -0.338   0.045  0.7085  0.7627  0.4240
  695MOL0     C93709   2.257  -0.299   0.008 -0.5723  0.8818 -0.5054
  695MOL0     C93710   2.200  -0.331  -0.125  0.4559  0.1248  0.5834
  695MOL0     C93711   2.054  -0.307  -0.149  0.0986  0.2530 -0.8622
  695MOL0     C93712   2.021  -0.153  -0.159  0.5774  0.2911  0.3322
  695MOL0     C93713   2.019  -0.103  -0.307 -0.2596  0.4823 -0.3265
  695MOL0     O93714   1.916  -0.160  -0.396  0.4423 -0.7801  0.2102
  695MOL0     C93715   1.802  -0.087  -0.418 -0.1200  0.4705 -0.1966
  695MOL0     C93716   1.739  -0.114  -0.540 -0.1074  0.3846 -0.3398
  695MOL0     C93717   1.623  -0.049  -0.574  0.2058 -0.0688 -0.2100
  695MOL0     C93718   1.573   0.058  -0.496  0.0667 -0.2215 -0.3452
  695MOL0     C93719   1.462   0.138  -0.546  0.5193 -0.3520  0.5871
  695MOL0     O93720   1.422   0.119  -0.679  0.3529 -0.3342 -0.2852
  695MOL0     C93721   1.288   0.151  -0.714 -0.8729 -0.4941 -0.2214
  695MOL0     C93722   1.183   0.078  -0.664 -1.4503 -0.1822  0.3979
  695MOL0     C93723   1.048   0.120  -0.687 -0.3143 -0.0894  0.7588
  695MOL0     C93724   1.015   0.228  -0.771 -0.7529  0.3166 -0.6533
  695MOL0     O93725   0.879   0.254  -0.785  0.5663 -0.0849 -0.8318
  695MOL0     C93726   0.852   0.327  -0.902 -0.7277 -0.3508 -0.8630
  695MOL0     C93727   0.703   0.325  -0.923  0.4198 -0.5653  0.1190
  695MOL0     C93728   0.646   0.184  -0.929  1.2520  0.6318  0.1484
  695MOL0     C93729   0.498   0.165  -0.903  0.2115  0.1580  0.3937
  695MOL0     C93730   0.413   0.179  -1.026 -0.7032 -0.7678 -0.4677
  695MOL0     C93731   0.285   0.090  -1.034 -0.2502 -0.0006  0.9217
  695MOL0     C93732   0.201   0.126  -0.908 -0.3612  0.0971 -0.3438
  695MOL0     C93733   0.062   0.068  -0.922 -0.5736 -0.0590 -0.0033
  695MOL0    Cl93734   0.073  -0.118  -0.927  0.0901 -0.0082 -0.2652
  695MOL0     C93735   1.127   0.301  -0.823 -0.1035 -0.5893 -1.2081
  695MOL0     C93736   1.260   0.265  -0.795 -0.2865  0.9233 -0.1023
  695MOL0     O93737   1.416   0.217  -0.468  1.0434 -0.3064  0.0971
  695MOL0     C93738   1.629   0.083  -0.367 -0.4844  0.8330  0.3266
  695MOL0     C93739   1.739   0.003  -0.325 -0.5543 -0.1714 -0.6113
  695MOL0     N93740   2.196  -0.253   0.129 -0.4303 -0.0411  0.5447
  695MOL0     N93741   2.278  -0.255   0.225 -0.2084 -0.3511  0.4517
  695MOL0     C93742   1.956   0.369   0.601 -1.1622 -0.0326  0.3220
  695MOL0     C93743   1.819   0.357   0.565  0.6766  1.0731  0.5784
  695MOL0     C93744   1.393   0.175   0.576 -0.7095 -0.9171  0.0402
  695MOL0     C93745   1.384   0.219   0.442  1.3909  0.1893  0.3689
  695MOL0     C93746   1.265   0.187   0.375  0.4916 -0.0789  0.7240
  695MOL0     C93747   1.147   0.144   0.446 -0.0613  0.4884  0.4731
  695MOL0     O93748   1.037   0.141   0.369  0.2037 -0.0785  0.0716
  695MOL0     C93749   0.920   0.087   0.436 -0.4750  0.2048  0.1147
  695MOL0     C93750   0.831   0.063   0.326  0.1250 -0.2273 -0.1181
  695MOL0     C93751   0.858  -0.072   0.264 -0.1688 -0.3335 -0.5412
  695MOL0     C93752   0.764  -0.100   0.148 -0.1984  0.1259  0.2043
  695MOL0     C93753   0.786  -0.229   0.099  0.1205 -0.4001 -0.1922
  695MOL0     C93754   0.798  -0.345   0.051  0.2386  0.5416  1.0487
  695MOL0     C93755   1.156   0.122   0.587  0.2875  0.3004  1.0178
  695MOL0     C93756   1.274   0.134   0.653 -0.3425 -1.1173  0.1032
  695MOL0     C93757   1.275   0.098   0.801 -0.1961 -0.2272  0.2812
  695MOL0     H93758   1.785   0.021   0.637  0.4277  0.3634  0.2167
  695MOL0     H93759   2.021   0.044   0.685 -0.9383 -0.4925  0.0775
  695MOL0     H93760   2.204   0.422   0.515 -1.0394  0.0682  1.3933
  695MOL0     H93761   2.337   0.343   0.595  0.6478  0.6470 -0.0805
  695MOL0     H93762   2.327   0.287   0.351  1.5730 -1.4231 -0.2813
  695MOL0     H93763   2.175   0.201   0.394  0.3071  0.4089 -0.9385
  695MOL0     H93764   2.269   0.040   0.517  0.9778  1.1670  3.3970
  695MOL0     H93765   2.410   0.135   0.570 -0.0648 -1.4722  1.1270
  695MOL0     H93766   2.407   0.022   0.287  1.5894  1.8521 -1.2168
  695MOL0     H93767   2.517   0.135   0.346 -0.3305  1.7729  1.3479
  695MOL0     H93768   2.588  -0.023   0.531  1.7537  0.2701 -0.9843
  695MOL0     H93769   2.481  -0.156   0.467  1.8418 -1.0780  1.2627
  695MOL0     H93770   2.736  -0.065   0.344  1.8801 -2.6298 -2.0359
  695MOL0     H93771   2.693  -0.220   0.399 -1.6685 -2.3198 -1.5315
  695MOL0     H93772   2.672  -0.180   0.151 -2.1170  5.3966 -2.0463
  695MOL0     H93773   2.519  -0.115   0.182  1.1187  1.2067 -0.8170
  695MOL0     H93774   2.592  -0.402   0.185 -0.3518  0.0343  0.1340
  695MOL0     H93775   2.501  -0.369   0.324 -1.4456  2.1487  0.1937
  695MOL0     H93776   2.461  -0.387  -0.015 -0.3872  0.1969 -0.5443
  695MOL0     H93777   2.257  -0.271  -0.197 -0.5569  0.9963  0.4873
  695MOL0     H93778   2.208  -0.440  -0.134 -2.3184 -0.0637 -0.5433
  695MOL0     H93779   2.044  -0.357  -0.246  2.5841  1.0052 -1.5761
  695MOL0     H93780   1.991  -0.361  -0.077 -0.6125 -0.0468 -1.6913
  695MOL0     H93781   2.095  -0.089  -0.110  3.1738 -1.7047 -0.7510
  695MOL0     H93782   1.918  -0.140  -0.126 -0.1879 -3.9044  0.1608
  695MOL0     H93783   2.116  -0.126  -0.352 -0.1979 -0.1862  0.1440
  695MOL0     H93784   2.012   0.007  -0.305  0.4720  0.5335  1.8035
  695MOL0     H93785   1.775  -0.191  -0.608 -0.9355 -0.1201 -0.2161
  695MOL0     H93786   1.570  -0.081  -0.663 -1.7831  0.5608  0.6702
  695MOL0     H93787   1.204  -0.017  -0.615 -0.8771 -1.1382 -1.5836
  695MOL0     H93788   0.971   0.058  -0.643  0.2321 -1.0247  0.4242
  695MOL0     H93789   0.878   0.432  -0.893  0.3259 -0.1801 -4.3392
  695MOL0     H93790   0.902   0.290  -0.992  1.3020  1.6560 -0.6330
  695MOL0     H93791   0.663   0.388  -0.843  1.2967 -0.9208  0.8447
  695MOL0     H93792   0.672   0.375  -1.015  1.8459  0.0283 -0.0528
  695MOL0     H93793   0.668   0.133  -1.023  0.8837 -1.0043  0.9121
  695MOL0     H93794   0.700   0.131  -0.849 -0.2500 -1.2219 -0.0011
  695MOL0     H93795   0.455   0.235  -0.831 -1.7188  0.6443 -1.1471
  695MOL0     H93796   0.489   0.064  -0.863  2.9878 -0.5077 -0.3966
  695MOL0     H93797   0.471   0.140  -1.110  2.4810 -0.8322  1.5672
  695MOL0     H93798   0.390   0.283  -1.049 -1.1402 -1.1082 -1.6841
  695MOL0     H93799   0.239   0.115  -1.130  1.6000 -2.9027 -0.8589
  695MOL0     H93800   0.325  -0.010  -1.050  5.1265  1.9899 -0.1256
  695MOL0     H93801   0.203   0.235  -0.901 -0.4380  0.2533 -2.2289
  695MOL0     H93802   0.239   0.082  -0.816 -1.8285  0.0416  0.2508
  695MOL0     H93803   0.006   0.104  -0.835 -1.8847 -0.2221 -0.7627
  695MOL0     H93804   0.022   0.107  -1.015 -1.9282 -2.4141 -0.4951
  695MOL0     H93805   1.111   0.393  -0.879  4.7545  1.9992  0.9824
  695MOL0     H93806   1.348   0.302  -0.845  0.6852 -2.9580 -1.5982
  695MOL0     H93807   1.594   0.168  -0.310  0.6705  0.8205  1.0756
  695MOL0     H93808   1.779   0.025  -0.226 -1.5047  2.3192 -0.7239
  695MOL0     H93809   2.009   0.464   0.592  1.1045 -1.1362  1.1536
  695MOL0     H93810   1.755   0.436   0.528  0.6115  1.4215  1.4136
  695MOL0     H93811   1.469   0.245   0.379 -0.1018  4.3472 -0.2541
  695MOL0     H93812   1.254   0.185   0.267 -3.7544  0.7889  0.9811
  695MOL0     H93813   0.867   0.171   0.483 -1.2857  0.2758 -0.8979
  695MOL0     H93814   0.942  -0.003   0.495  1.0453  1.0310  0.8782
  695MOL0     H93815   0.833   0.130   0.239 -2.3343 -3.2735 -2.8065
  695MOL0     H93816   0.731   0.043   0.365 -1.0011 -2.0098 -3.4436
  695MOL0     H93817   0.844  -0.142   0.347  0.7373 -0.6644 -0.6567
  695MOL0     H93818   0.958  -0.083   0.223  0.5425  3.7294 -0.3220
  695MOL0     H93819   0.661  -0.103   0.186  0.0549 -3.1527  0.8873
  695MOL0     H93820   0.757  -0.035   0.061 -1.8781 -2.3097 -1.6154
  695MOL0     H93821   0.807  -0.443   0.010  1.8274  0.6828  0.9987
  695MOL0     H93822   1.072   0.101   0.652  1.8506 -1.9995  2.4257
  695MOL0     H93823   1.182   0.129   0.849  0.6652  2.0555  0.6091
  695MOL0     H93824   1.288  -0.010   0.813  4.2309  0.2094  1.1939
  695MOL0     H93825   1.355   0.149   0.856  0.0074 -0.1734 -0.0646
  696MOL0     O93826   8.016   0.599   6.671 -0.0677 -0.1189 -0.3080
  696MOL0     C93827   7.937   0.646   6.755  0.1445 -0.1068  0.0745
  696MOL0     O93828   7.892   0.578   6.869  0.4397 -0.7321  0.2030
  696MOL0     C93829   7.929   0.449   6.887  0.4237 -0.5163  0.1215
  696MOL0     C93830   7.842   0.339   6.890  1.4990  0.0936 -0.8289
  696MOL0     C93831   7.887   0.207   6.902 -0.5178 -0.5142  0.7115
  696MOL0     C93832   8.029   0.183   6.922  0.5783 -0.2389 -0.4289
  696MOL0     O93833   8.082   0.060   6.946 -0.0200 -0.7233 -0.4659
  696MOL0     C93834   8.011  -0.042   6.881 -0.2918  0.3323 -0.0262
  696MOL0     C93835   8.080  -0.176   6.894 -0.3177 -0.2073 -0.3994
  696MOL0     C93836   8.079  -0.254   6.768  0.9309  0.2303 -0.3477
  696MOL0     C93837   8.160  -0.385   6.780  0.0301  0.1861 -0.1953
  696MOL0     C93838   8.107  -0.502   6.696  0.3288  0.9102 -0.0676
  696MOL0     C93839   8.196  -0.620   6.661  0.1170  0.0164  0.7656
  696MOL0     C93840   8.326  -0.575   6.589  0.6356 -0.1247 -0.3250
  696MOL0     C93841   8.304  -0.519   6.454 -0.5461  0.3429  0.0152
  696MOL0     N93842   8.296  -0.368   6.457 -0.0049 -0.0711  0.4359
  696MOL0     C93843   8.394  -0.274   6.504  0.0132  0.3597 -0.3291
  696MOL0     C93844   8.338  -0.152   6.497 -0.4724 -0.9854 -0.6345
  696MOL0     C93845   8.372  -0.010   6.542  0.0992  0.5550 -0.6308
  696MOL0     C93846   8.497  -0.008   6.633  0.1231 -0.6677  1.1624
  696MOL0     C93847   8.623  -0.009   6.538 -0.6639 -0.7419 -0.3747
  696MOL0     C93848   8.752  -0.002   6.612 -0.3753  0.6911  0.2879
  696MOL0     O93849   8.871  -0.026   6.535 -0.5879  1.1904  0.3522
  696MOL0     C93850   8.994   0.014   6.583 -0.4016  0.6594 -0.0236
  696MOL0     C93851   9.011   0.087   6.696 -0.5470  0.1707 -0.0966
  696MOL0     C93852   9.127   0.147   6.719  0.1393  0.1502  0.1704
  696MOL0     C93853   9.236   0.146   6.635  0.5843 -0.9089  0.3377
  696MOL0     C93854   9.367   0.226   6.652  0.7715  0.7388  0.3567
  696MOL0     O93855   9.461   0.207   6.547 -0.5182 -0.4947 -0.0227
  696MOL0     C93856   9.580   0.281   6.541  0.3148  0.3037  0.5695
  696MOL0     C93857   9.640   0.369   6.632 -0.4440  0.2695 -0.1807
  696MOL0     C93858   9.776   0.401   6.631  1.5145 -0.5319 -0.6348
  696MOL0     C93859   9.861   0.362   6.530 -0.3600  0.0930 -0.7865
  696MOL0     O93860   9.995   0.394   6.535 -0.1279  0.4499  0.2173
  696MOL0     C93861  10.067   0.392   6.406 -0.5304 -0.6399 -0.5481
  696MOL0     C93862  10.207   0.453   6.424 -0.4648 -0.1626 -0.1398
  696MOL0     C93863  10.199   0.576   6.506  0.7528  0.2158  0.0562
  696MOL0     C93864  10.121   0.693   6.446 -0.0139  0.3290 -0.6092
  696MOL0     C93865  10.185   0.767   6.321 -0.1695  0.1147 -0.7471
  696MOL0     C93866  10.090   0.885   6.291  0.8611  0.0907  0.0605
  696MOL0     C93867  10.139   0.956   6.159  0.5015  0.5115  0.1713
  696MOL0     C93868  10.035   1.071   6.156  0.2594 -0.3309  0.2330
  696MOL0    Cl93869   9.971   1.096   5.985 -0.5320 -0.3865  0.2623
  696MOL0     C93870   9.808   0.287   6.425 -0.3462  0.3560 -0.2456
  696MOL0     C93871   9.674   0.246   6.436  0.6292  0.8425 -0.2880
  696MOL0     O93872   9.371   0.296   6.749  0.8928  0.1737 -0.2710
  696MOL0     C93873   9.224   0.069   6.518  0.2711 -0.3387  0.5212
  696MOL0     C93874   9.104  -0.006   6.495  0.2747 -0.6030  0.8998
  696MOL0     N93875   8.210  -0.170   6.446 -0.1994  0.8455 -0.2857
  696MOL0     N93876   8.186  -0.298   6.421  0.7046 -1.0735 -0.0359
  696MOL0     C93877   8.117   0.291   6.926 -0.1216 -0.1233  0.2596
  696MOL0     C93878   8.071   0.423   6.905 -0.6803  1.2024  0.1146
  696MOL0     C93879   7.884   0.786   6.752  0.4365  0.5003  0.5457
  696MOL0     C93880   7.772   0.809   6.831  0.9424 -0.7184  0.3903
  696MOL0     C93881   7.704   0.930   6.833 -0.9396  0.7517 -1.0979
  696MOL0     C93882   7.738   1.034   6.749  0.2103 -0.0936 -0.0993
  696MOL0     O93883   7.672   1.152   6.772 -0.9114  0.7945  0.8405
  696MOL0     C93884   7.709   1.271   6.693  1.0241  0.4651  0.4817
  696MOL0     C93885   7.818   1.345   6.777 -0.1025  0.1039  0.6835
  696MOL0     C93886   7.860   1.478   6.716  0.1123  1.2469  0.5737
  696MOL0     C93887   7.989   1.535   6.776 -0.2920  0.4966  0.0205
  696MOL0     C93888   8.112   1.481   6.716  0.4667  0.3365 -0.7961
  696MOL0     C93889   8.207   1.430   6.666 -0.3590 -0.2939  0.2278
  696MOL0     C93890   7.853   1.018   6.670 -0.4716 -0.1119 -0.1735
  696MOL0     C93891   7.923   0.897   6.669  0.8403 -0.3739 -0.7194
  696MOL0     C93892   8.035   0.888   6.568  0.5031  0.1586 -0.6445
  696MOL0     H93893   7.734   0.353   6.883  0.9486 -2.9618  0.0934
  696MOL0     H93894   7.812   0.130   6.890  0.4011 -1.2461 -0.6047
  696MOL0     H93895   7.912  -0.047   6.928 -0.3712  0.6821 -0.1559
  696MOL0     H93896   8.002  -0.019   6.775 -0.1317  3.4647  0.5579
  696MOL0     H93897   8.041  -0.237   6.976 -0.9053  0.1367 -0.4144
  696MOL0     H93898   8.177  -0.159   6.941 -1.2778 -1.7758  2.3594
  696MOL0     H93899   8.136  -0.184   6.707  1.3503  0.4953  0.3470
  696MOL0     H93900   7.981  -0.273   6.722  1.0920  1.5097 -1.2441
  696MOL0     H93901   8.266  -0.359   6.784 -0.2950  2.4098 -2.8964
  696MOL0     H93902   8.149  -0.429   6.879 -2.1405 -0.9282 -0.8685
  696MOL0     H93903   8.022  -0.546   6.750  1.6016 -1.5871  0.0528
  696MOL0     H93904   8.063  -0.464   6.603 -1.2400 -0.1706  0.1792
  696MOL0     H93905   8.212  -0.683   6.749  1.1120 -0.6001  0.1588
  696MOL0     H93906   8.136  -0.679   6.591  1.2315  1.3869 -1.4558
  696MOL0     H93907   8.390  -0.662   6.575  0.7340  0.3361 -3.2412
  696MOL0     H93908   8.384  -0.505   6.650  0.6160  0.8086 -1.3389
  696MOL0     H93909   8.379  -0.552   6.382  1.2679  1.9661  1.0863
  696MOL0     H93910   8.209  -0.559   6.416 -1.3688 -0.0161  2.2408
  696MOL0     H93911   8.488  -0.292   6.556 -1.6580 -1.1299  2.4482
  696MOL0     H93912   8.378   0.056   6.456  1.5155 -1.0435 -1.8140
  696MOL0     H93913   8.290   0.035   6.600  1.2863 -0.6424  2.1822
  696MOL0     H93914   8.505   0.072   6.706  2.9060 -2.3585  2.8984
  696MOL0     H93915   8.502  -0.101   6.690 -5.6885 -1.0262  1.6691
  696MOL0     H93916   8.623   0.070   6.462 -0.8462  3.1053  3.2097
  696MOL0     H93917   8.619  -0.099   6.477 -0.9122 -3.5721  3.4672
  696MOL0     H93918   8.756  -0.092   6.674  0.6432  0.2648 -0.3749
  696MOL0     H93919   8.736   0.084   6.677 -1.7188 -0.0622  1.0005
  696MOL0     H93920   8.923   0.104   6.757 -0.8404 -0.9194 -0.1832
  696MOL0     H93921   9.138   0.194   6.816 -0.9866  0.6619  0.0748
  696MOL0     H93922   9.583   0.401   6.718 -1.7233 -0.9010 -0.5516
  696MOL0     H93923   9.821   0.460   6.710  0.2320  0.4612 -0.5930
  696MOL0     H93924  10.082   0.285   6.386  1.7077 -0.2968 -0.9856
  696MOL0     H93925  10.010   0.441   6.327 -0.1680 -1.7719 -1.5424
  696MOL0     H93926  10.272   0.382   6.476 -0.2998 -0.7903 -1.1727
  696MOL0     H93927  10.255   0.465   6.326 -1.2612 -1.4358 -0.7036
  696MOL0     H93928  10.162   0.549   6.605 -1.6414 -0.1636 -0.8780
  696MOL0     H93929  10.300   0.619   6.510  0.6582  0.4016  0.5555
  696MOL0     H93930  10.104   0.772   6.520  0.3685  1.1465 -1.3782
  696MOL0     H93931  10.020   0.665   6.416 -1.3700  1.1344  2.7712
  696MOL0     H93932  10.205   0.714   6.228 -2.0395  2.7818 -2.8209
  696MOL0     H93933  10.286   0.805   6.344 -0.2647  0.2735 -0.5880
  696MOL0     H93934   9.990   0.844   6.274  0.3283 -0.4989  3.7652
  696MOL0     H93935  10.095   0.953   6.377 -0.8973 -0.4298  0.6072
  696MOL0     H93936  10.136   0.885   6.075  1.3193 -1.6425  1.8721
  696MOL0     H93937  10.236   1.006   6.168  0.6898  0.5397 -1.6066
  696MOL0     H93938   9.953   1.072   6.228 -1.0965 -1.9033 -1.1883
  696MOL0     H93939  10.101   1.157   6.171 -1.2192  0.7883  0.5844
  696MOL0     H93940   9.877   0.255   6.347  0.7286  0.0136  0.8009
  696MOL0     H93941   9.634   0.172   6.368 -0.4503  0.3003  0.9050
  696MOL0     H93942   9.302   0.069   6.443 -0.8094 -0.5022 -0.6482
  696MOL0     H93943   9.088  -0.059   6.401 -1.7207  2.1266 -0.4335
  696MOL0     H93944   8.224   0.277   6.935 -0.0864  0.8609  1.6277
  696MOL0     H93945   8.133   0.512   6.894  1.4117 -0.3803 -1.6954
  696MOL0     H93946   7.717   0.741   6.895 -0.9280  1.3629  1.1094
  696MOL0     H93947   7.622   0.930   6.904  1.6107 -1.8632  2.1858
  696MOL0     H93948   7.620   1.334   6.700 -0.5270 -1.6817  0.9562
  696MOL0     H93949   7.737   1.253   6.589  3.2906  1.2966  0.8859
  696MOL0     H93950   7.912   1.290   6.788  0.4488  0.9765  0.4666
  696MOL0     H93951   7.771   1.360   6.875 -0.2990  1.4232  0.4068
  696MOL0     H93952   7.771   1.539   6.731 -0.2152  1.0663 -0.5540
  696MOL0     H93953   7.866   1.466   6.608 -0.4861  1.0018  0.5626
  696MOL0     H93954   8.001   1.641   6.752  2.8005  0.1762 -0.3759
  696MOL0     H93955   7.993   1.527   6.885  1.3779 -1.3386 -0.1070
  696MOL0     H93956   8.291   1.386   6.617  0.1496  2.2575 -1.3500
  696MOL0     H93957   7.890   1.105   6.617 -0.7800  0.8708  1.1594
  696MOL0     H93958   8.064   0.980   6.516  2.9235 -0.0301  0.2588
  696MOL0     H93959   8.131   0.867   6.615  1.1369  3.0553 -0.5027
  696MOL0     H93960   8.004   0.808   6.499  2.2974 -2.6504  1.5649
  697MOL0     O93961   7.701   0.351  10.263 -0.1887 -0.3042  0.8770
  697MOL0     C93962   7.638   0.385  10.162  1.5267 -0.0989 -0.6623
  697MOL0     O93963   7.511   0.342  10.131 -0.1416  0.5126 -0.1407
  697MOL0     C93964   7.446   0.268  10.216  0.3779 -0.1941  0.0847
  697MOL0     C93965   7.366   0.178  10.162 -0.6067 -1.1269 -0.2854
  697MOL0     C93966   7.276   0.107  10.238 -1.1510  0.3028  0.1065
  697MOL0     C93967   7.277   0.109  10.378 -0.0481 -0.0452 -0.4114
  697MOL0     O93968   7.188   0.023  10.446  0.3715 -0.4000 -0.1721
  697MOL0     C93969   7.204  -0.001  10.587  1.1400 -0.1553 -0.0474
  697MOL0     C93970   7.140  -0.143  10.610  0.3485 -0.1157  0.6022
  697MOL0     C93971   7.100  -0.166  10.752  0.4045 -0.8264  0.5351
  697MOL0     C93972   6.975  -0.081  10.797 -0.2621 -0.5987  0.8169
  697MOL0     C93973   6.918  -0.132  10.925 -0.0862  0.1228  0.2259
  697MOL0     C93974   6.812  -0.237  10.909 -0.3056 -0.7987 -0.5989
  697MOL0     C93975   6.725  -0.255  11.040 -0.9342  0.0501  0.2147
  697MOL0     C93976   6.800  -0.343  11.149  0.7000  0.5492 -0.5352
  697MOL0     N93977   6.708  -0.363  11.262 -0.1159 -0.0168 -0.9922
  697MOL0     C93978   6.693  -0.290  11.375  0.6826  0.0697 -0.5557
  697MOL0     C93979   6.572  -0.330  11.429  0.2980 -0.4461 -0.2111
  697MOL0     C93980   6.509  -0.277  11.557  0.0672 -0.3073 -0.0570
  697MOL0     C93981   6.540  -0.363  11.676 -0.1176  0.0499  1.1222
  697MOL0     C93982   6.474  -0.313  11.809 -0.1995 -0.7222  0.1698
  697MOL0     C93983   6.516  -0.159  11.831 -0.4709  0.0853 -0.3127
  697MOL0     O93984   6.406  -0.074  11.785  0.6402 -0.9024 -0.2943
  697MOL0     C93985   6.421   0.047  11.730  0.0524  1.0504 -1.0812
  697MOL0     C93986   6.533   0.129  11.750 -0.2121 -0.1800  0.6154
  697MOL0     C93987   6.530   0.264  11.689 -0.5222 -1.2065 -0.6317
  697MOL0     C93988   6.431   0.302  11.594  0.2584  0.4095 -0.0666
  697MOL0     C93989   6.423   0.436  11.543 -0.3036  0.6571 -0.1619
  697MOL0     O93990   6.544   0.509  11.542  0.2844  0.0858  0.2479
  697MOL0     C93991   6.542   0.630  11.467  0.1754 -0.1254  0.4877
  697MOL0     C93992   6.630   0.631  11.353  0.9224  0.2313  0.3769
  697MOL0     C93993   6.636   0.736  11.268 -0.0277  0.9125  0.0763
  697MOL0     C93994   6.559   0.848  11.290 -0.0169  0.0649 -0.4805
  697MOL0     O93995   6.544   0.951  11.201 -0.2414 -0.1290  0.8561
  697MOL0     C93996   6.421   0.983  11.146 -0.3189  0.3115 -0.0698
  697MOL0     C93997   6.414   1.135  11.122 -0.3928 -0.0660 -0.1939
  697MOL0     C93998   6.321   1.189  11.014 -0.4053  0.9519  0.4820
  697MOL0     C93999   6.326   1.339  11.007 -0.0597 -1.0974  0.0251
  697MOL0     C94000   6.233   1.409  10.913  1.6149 -0.1826  0.4577
  697MOL0     C94001   6.270   1.379  10.761 -0.2974 -0.1372 -0.2564
  697MOL0     C94002   6.175   1.436  10.663  0.2159 -0.2390  0.5042
  697MOL0     C94003   6.217   1.392  10.516  0.9689  0.2955  0.0714
  697MOL0    Cl94004   6.219   1.219  10.514  0.4922 -0.4722 -0.2879
  697MOL0     C94005   6.490   0.859  11.408  0.9558  0.2661 -0.4884
  697MOL0     C94006   6.486   0.751  11.501  0.0035  0.2349  0.1706
  697MOL0     O94007   6.324   0.469  11.477  0.5722  0.9605 -0.3513
  697MOL0     C94008   6.321   0.216  11.578  0.7694 -0.2919  0.0964
  697MOL0     C94009   6.324   0.094  11.642 -0.1196 -0.0542 -0.8615
  697MOL0     N94010   6.536  -0.451  11.366  0.1349 -0.2478  0.9680
  697MOL0     N94011   6.618  -0.468  11.260  0.0373  0.6643  0.0955
  697MOL0     C94012   7.357   0.205  10.444  0.4740 -0.7334  0.4529
  697MOL0     C94013   7.444   0.281  10.359  0.5282  0.7521 -0.5077
  697MOL0     C94014   7.695   0.491  10.067 -0.1041  0.1200 -0.3349
  697MOL0     C94015   7.834   0.504  10.070  0.1074 -0.4430  0.1810
  697MOL0     C94016   7.891   0.589   9.979  0.3001 -0.2343  0.6211
  697MOL0     C94017   7.818   0.650   9.870  0.5049 -0.5933 -0.2229
  697MOL0     O94018   7.869   0.724   9.763  0.4029  0.1658 -0.6997
  697MOL0     C94019   7.995   0.693   9.705  0.0094  0.3967  0.4768
  697MOL0     C94020   8.076   0.813   9.675 -0.2081 -0.3565  0.7927
  697MOL0     C94021   8.212   0.794   9.597 -0.2673  0.1456 -0.2741
  697MOL0     C94022   8.274   0.929   9.564 -0.5305 -0.3370 -0.5069
  697MOL0     C94023   8.396   0.906   9.490 -1.0020 -0.2990  0.2435
  697MOL0     C94024   8.485   0.894   9.406  0.9029 -0.1602  0.2715
  697MOL0     C94025   7.677   0.644   9.875 -1.4419  0.2322  0.8611
  697MOL0     C94026   7.614   0.571   9.974 -1.0412  0.6002  0.1242
  697MOL0     C94027   7.464   0.571   9.963 -0.2714 -0.3568 -0.1152
  697MOL0     H94028   7.367   0.178  10.053 -1.4084 -2.9748 -0.3394
  697MOL0     H94029   7.203   0.043  10.189  1.8756 -3.0639 -0.4197
  697MOL0     H94030   7.309   0.008  10.615  1.3297  1.4512 -1.1537
  697MOL0     H94031   7.139   0.072  10.636  0.3849 -1.7714  1.4888
  697MOL0     H94032   7.218  -0.218  10.593  0.3750 -1.2933  4.7469
  697MOL0     H94033   7.056  -0.156  10.542  0.9322 -2.7516  0.2509
  697MOL0     H94034   7.187  -0.148  10.815  1.2683  0.1135 -0.8742
  697MOL0     H94035   7.068  -0.270  10.764  1.2622 -1.0460  0.9223
  697MOL0     H94036   7.022   0.015  10.817  3.2220 -2.0715  0.4191
  697MOL0     H94037   6.897  -0.064  10.723  0.0847  0.9646  0.7906
  697MOL0     H94038   7.003  -0.164  10.987 -0.3147  1.3901  1.2280
  697MOL0     H94039   6.874  -0.042  10.968 -0.1872  0.8425 -1.3269
  697MOL0     H94040   6.740  -0.213  10.830  2.0993  0.3299 -2.6063
  697MOL0     H94041   6.860  -0.330  10.879  1.0678 -0.5244  0.6049
  697MOL0     H94042   6.628  -0.299  11.016 -0.2435 -0.8704 -0.9763
  697MOL0     H94043   6.704  -0.156  11.083 -1.8678 -0.2524  0.4744
  697MOL0     H94044   6.810  -0.441  11.101 -0.1500  0.9426 -1.5537
  697MOL0     H94045   6.892  -0.290  11.174 -0.4086  1.7603  1.2012
  697MOL0     H94046   6.757  -0.207  11.401 -0.4571  0.3686  1.5354
  697MOL0     H94047   6.558  -0.182  11.578 -0.8342 -0.2705  2.0991
  697MOL0     H94048   6.402  -0.256  11.550 -0.1243 -0.4853  1.8522
  697MOL0     H94049   6.505  -0.465  11.654  3.1140 -0.9573  0.0432
  697MOL0     H94050   6.649  -0.373  11.684  0.3342  2.0385 -1.4033
  697MOL0     H94051   6.498  -0.374  11.896  0.0488 -0.8925 -0.0174
  697MOL0     H94052   6.365  -0.324  11.801 -0.3779 -0.8657  2.2266
  697MOL0     H94053   6.613  -0.133  11.787  1.2668 -1.6313  2.2388
  697MOL0     H94054   6.528  -0.143  11.938  1.1734 -1.2650 -0.2409
  697MOL0     H94055   6.620   0.098  11.808 -0.0605 -0.8257  0.0557
  697MOL0     H94056   6.614   0.332  11.701 -0.6984 -1.4010  2.4813
  697MOL0     H94057   6.695   0.548  11.328  1.8844  1.5124 -1.6314
  697MOL0     H94058   6.696   0.710  11.182 -0.5372 -1.5358  0.3848
  697MOL0     H94059   6.420   0.937  11.046  1.1773  1.2950 -0.5581
  697MOL0     H94060   6.342   0.948  11.213  1.1122  0.7880  1.9372
  697MOL0     H94061   6.393   1.175  11.221  0.6595 -2.5517  1.1155
  697MOL0     H94062   6.516   1.170  11.104  1.7212 -3.9895  2.6356
  697MOL0     H94063   6.356   1.161  10.914 -1.8842 -0.3866  0.3074
  697MOL0     H94064   6.219   1.153  11.027 -0.1567  0.7408  2.0264
  697MOL0     H94065   6.426   1.375  10.982 -0.9649  3.6816  2.2680
  697MOL0     H94066   6.296   1.384  11.102 -0.1346 -0.5269 -0.2669
  697MOL0     H94067   6.209   1.516  10.919  0.5849 -0.3200 -1.0102
  697MOL0     H94068   6.137   1.362  10.935 -0.9034  3.7377 -1.0420
  697MOL0     H94069   6.367   1.428  10.751  0.0445  0.9063  5.0656
  697MOL0     H94070   6.285   1.271  10.753  0.5624 -0.2432  1.9956
  697MOL0     H94071   6.181   1.545  10.654  0.2105 -0.3198 -0.5825
  697MOL0     H94072   6.076   1.394  10.684 -0.2816  2.0631  3.3613
  697MOL0     H94073   6.139   1.424  10.446  0.5932 -2.3131 -0.7972
  697MOL0     H94074   6.310   1.430  10.473  1.9096 -3.2718 -1.3733
  697MOL0     H94075   6.454   0.953  11.448 -0.3307 -1.1774  1.9970
  697MOL0     H94076   6.438   0.762  11.598  0.8236 -1.7864  0.8857
  697MOL0     H94077   6.234   0.250  11.522  0.1910 -1.9908 -0.1036
  697MOL0     H94078   6.239   0.029  11.624 -0.4677  1.0196 -3.6107
  697MOL0     H94079   7.365   0.203  10.552 -1.7327  0.3070  0.6909
  697MOL0     H94080   7.502   0.358  10.410 -2.2028  0.1640  4.0379
  697MOL0     H94081   7.908   0.456  10.134  0.6695  0.8594  0.5414
  697MOL0     H94082   7.995   0.611   9.999  0.1354  0.2685  0.9419
  697MOL0     H94083   7.968   0.642   9.612  0.6976 -2.3154  1.6684
  697MOL0     H94084   8.047   0.617   9.764 -1.3506 -0.5575  0.4906
  697MOL0     H94085   8.088   0.865   9.770  1.1431  3.8626 -1.4387
  697MOL0     H94086   8.016   0.881   9.615  0.4552  0.3932  0.9639
  697MOL0     H94087   8.181   0.751   9.501  1.9090 -2.0820 -0.0856
  697MOL0     H94088   8.275   0.720   9.648 -2.7101 -0.2589  2.3944
  697MOL0     H94089   8.201   0.989   9.508 -2.8332 -2.0875  0.4478
  697MOL0     H94090   8.301   0.988   9.653 -0.5141  0.3237 -0.9398
  697MOL0     H94091   8.564   0.887   9.334  0.2727  0.9828 -0.5607
  697MOL0     H94092   7.613   0.686   9.798 -1.2445 -0.6494  0.1984
  697MOL0     H94093   7.418   0.568  10.062 -0.0669 -0.7088 -0.0273
  697MOL0     H94094   7.426   0.652   9.900  0.3657  0.6250  0.7383
  697MOL0     H94095   7.436   0.480   9.909  0.5208 -1.4249  1.2055
  698MOL0     O94096   8.454   2.708   2.136  0.4509 -0.0419  0.4412
  698MOL0     C94097   8.385   2.605   2.117  1.0494 -0.1261 -0.4633
  698MOL0     O94098   8.383   2.529   2.003  0.3560 -0.2602 -0.4208
  698MOL0     C94099   8.478   2.555   1.913 -0.0877 -0.0614  0.0033
  698MOL0     C94100   8.584   2.477   1.918 -1.0693  0.9169  0.8147
  698MOL0     C94101   8.690   2.503   1.830  0.5402  0.9044  1.1410
  698MOL0     C94102   8.681   2.597   1.725 -0.3225  0.0395 -0.0937
  698MOL0     O94103   8.772   2.609   1.623  0.7737 -0.5651  0.4776
  698MOL0     C94104   8.871   2.509   1.593  0.3106  0.3569  0.2121
  698MOL0     C94105   8.820   2.382   1.517  0.1620 -0.3328 -0.4302
  698MOL0     C94106   8.936   2.299   1.482 -0.0424  1.1515  0.7103
  698MOL0     C94107   8.889   2.171   1.423  0.2506  0.5414  0.4963
  698MOL0     C94108   9.002   2.077   1.366  1.1126 -0.9630  0.7835
  698MOL0     C94109   8.948   1.936   1.338  0.2170 -0.2374 -0.2880
  698MOL0     C94110   9.050   1.834   1.291  1.1480  0.0961 -0.4594
  698MOL0     C94111   9.153   1.801   1.393 -0.6047 -0.1913 -0.3348
  698MOL0     N94112   9.109   1.771   1.533 -0.7557  0.6883 -0.7375
  698MOL0     C94113   9.075   1.645   1.582 -0.4979 -0.1797 -0.5786
  698MOL0     C94114   9.090   1.651   1.715  0.6918 -0.1236  0.3688
  698MOL0     C94115   9.081   1.533   1.811  0.9341  0.8966 -0.6131
  698MOL0     C94116   8.938   1.487   1.855  0.3650  0.1024 -0.3662
  698MOL0     C94117   8.854   1.429   1.735  0.2423  0.1786 -0.1481
  698MOL0     C94118   8.702   1.424   1.776 -0.4793  0.1949  0.4194
  698MOL0     O94119   8.686   1.331   1.884  0.0559  0.0450  0.3609
  698MOL0     C94120   8.636   1.207   1.854 -1.0415 -0.3564 -0.3869
  698MOL0     C94121   8.511   1.181   1.795 -0.5487  0.5543  0.7725
  698MOL0     C94122   8.450   1.057   1.773 -0.3312  0.8076  0.0183
  698MOL0     C94123   8.525   0.945   1.810 -0.6687  0.4610  0.1058
  698MOL0     C94124   8.464   0.806   1.803 -0.0605 -1.2020 -0.2845
  698MOL0     O94125   8.551   0.713   1.767 -0.2091 -0.2984 -0.2284
  698MOL0     C94126   8.540   0.582   1.796 -0.4962  0.2409  0.1539
  698MOL0     C94127   8.445   0.527   1.891 -0.2387  0.1101  0.7479
  698MOL0     C94128   8.434   0.386   1.916  0.8481  0.2780 -0.1032
  698MOL0     C94129   8.523   0.296   1.847 -0.2948  0.1609 -0.6206
  698MOL0     O94130   8.518   0.161   1.850 -0.3902 -0.2491  0.0903
  698MOL0     C94131   8.478   0.094   1.974  0.3308 -1.4888 -0.1483
  698MOL0     C94132   8.534  -0.052   1.965 -0.0636 -0.1952  0.1619
  698MOL0     C94133   8.509  -0.127   2.102  0.0092 -0.6075  0.6892
  698MOL0     C94134   8.630  -0.121   2.205  1.0876  0.2697  0.2413
  698MOL0     C94135   8.717  -0.251   2.191 -0.1895  0.1214 -0.6239
  698MOL0     C94136   8.644  -0.365   2.267  0.3279 -0.1982  0.5758
  698MOL0     C94137   8.726  -0.496   2.276 -0.1655 -0.7241 -0.2686
  698MOL0     C94138   8.679  -0.595   2.382 -0.2298  0.7574 -0.0602
  698MOL0    Cl94139   8.550  -0.697   2.315 -0.2487  0.0698  0.1690
  698MOL0     C94140   8.619   0.343   1.762  0.0568 -0.2066 -0.4329
  698MOL0     C94141   8.622   0.486   1.735 -0.3846 -0.1939  0.0065
  698MOL0     O94142   8.344   0.792   1.814 -0.6934 -0.0561  0.2635
  698MOL0     C94143   8.643   0.963   1.883 -1.2254  0.4331 -0.2293
  698MOL0     C94144   8.697   1.094   1.907 -0.1848 -0.1345  1.2958
  698MOL0     N94145   9.124   1.782   1.743 -0.2921 -0.0579 -0.8166
  698MOL0     N94146   9.132   1.858   1.635 -0.8253  0.2908  0.6526
  698MOL0     C94147   8.565   2.673   1.718 -0.0290  0.1164 -0.2538
  698MOL0     C94148   8.464   2.660   1.817 -1.0018  0.6357  0.6758
  698MOL0     C94149   8.282   2.567   2.225 -0.2830  0.1708 -0.2328
  698MOL0     C94150   8.251   2.436   2.234  0.4133 -0.9012  1.4821
  698MOL0     C94151   8.173   2.381   2.328  0.2730  1.0793 -0.2074
  698MOL0     C94152   8.123   2.461   2.426  1.0924 -0.3199  0.2918
  698MOL0     O94153   8.031   2.420   2.523  0.0467  1.1428  0.2692
  698MOL0     C94154   7.995   2.277   2.530  0.5270 -0.7434 -0.5719
  698MOL0     C94155   7.886   2.244   2.630  0.3258 -0.4632  0.0969
  698MOL0     C94156   7.893   2.297   2.769  0.4018 -0.5304  0.5058
  698MOL0     C94157   8.010   2.238   2.854  0.0624  0.2807  1.0085
  698MOL0     C94158   8.015   2.086   2.861 -0.0679 -0.3384 -1.0473
  698MOL0     C94159   8.012   1.976   2.852  0.2183  0.8765 -0.7400
  698MOL0     C94160   8.135   2.599   2.410 -0.6861 -0.3117 -0.2061
  698MOL0     C94161   8.224   2.653   2.314  0.6502 -0.1970  0.1926
  698MOL0     C94162   8.237   2.802   2.306 -0.5824 -0.8629  0.3230
  698MOL0     H94163   8.595   2.406   2.000  0.8889  1.2772  0.8949
  698MOL0     H94164   8.776   2.437   1.839  0.2909 -0.0083 -1.9579
  698MOL0     H94165   8.948   2.554   1.530 -0.7721  2.4476  0.3029
  698MOL0     H94166   8.920   2.488   1.688  0.1381  3.2869  1.0196
  698MOL0     H94167   8.774   2.414   1.423 -0.2257  1.6317  0.3857
  698MOL0     H94168   8.746   2.326   1.574 -2.6394  2.9427 -0.5217
  698MOL0     H94169   8.999   2.275   1.568 -2.1422 -1.8146  1.6203
  698MOL0     H94170   8.997   2.356   1.413  0.9875 -0.9258 -0.1924
  698MOL0     H94171   8.844   2.119   1.507  0.4610 -0.4080  0.0346
  698MOL0     H94172   8.816   2.184   1.342 -1.5223 -1.9151  1.5732
  698MOL0     H94173   9.050   2.123   1.279 -1.0979  1.5945  0.7789
  698MOL0     H94174   9.083   2.058   1.437  4.3005  0.9431 -2.0086
  698MOL0     H94175   8.891   1.903   1.426 -0.9894 -1.2308 -1.4078
  698MOL0     H94176   8.876   1.959   1.260  0.9481 -1.7837 -1.4733
  698MOL0     H94177   9.094   1.861   1.194 -0.2449  0.6319 -0.9697
  698MOL0     H94178   8.997   1.738   1.287 -0.2457  0.6234  2.6837
  698MOL0     H94179   9.220   1.722   1.359 -1.2105 -1.1590  0.6530
  698MOL0     H94180   9.211   1.894   1.400 -2.3444  0.8277  1.6997
  698MOL0     H94181   9.048   1.556   1.526 -2.6831  1.5011 -2.3687
  698MOL0     H94182   9.140   1.446   1.778 -0.9453 -0.2235 -1.1928
  698MOL0     H94183   9.137   1.565   1.899  1.8990 -2.3540  0.1071
  698MOL0     H94184   8.943   1.410   1.933 -0.4389 -3.9004 -3.8727
  698MOL0     H94185   8.881   1.572   1.892 -1.7055 -0.2372 -2.5706
  698MOL0     H94186   8.894   1.331   1.705  0.5575 -0.4181  2.0451
  698MOL0     H94187   8.863   1.494   1.647  0.8690  1.8371  1.1095
  698MOL0     H94188   8.650   1.400   1.683  2.0271  0.7701 -1.2286
  698MOL0     H94189   8.665   1.521   1.811  0.6621  0.8212 -0.0557
  698MOL0     H94190   8.474   1.280   1.771  2.1902  2.6711  4.3896
  698MOL0     H94191   8.348   1.059   1.735 -1.5531  1.6275  3.0410
  698MOL0     H94192   8.380   0.593   1.948 -5.2931  0.0549 -4.1287
  698MOL0     H94193   8.359   0.347   1.984 -1.1624 -0.2658 -2.4858
  698MOL0     H94194   8.528   0.142   2.059 -0.5214  1.4445 -1.1951
  698MOL0     H94195   8.371   0.104   1.994  0.8923  5.0202  1.8008
  698MOL0     H94196   8.482  -0.112   1.891 -2.6745  0.7116  1.1552
  698MOL0     H94197   8.641  -0.054   1.941 -0.0802  1.1575 -0.1260
  698MOL0     H94198   8.421  -0.083   2.150 -0.3317  0.8440 -1.1538
  698MOL0     H94199   8.478  -0.228   2.076 -1.4897 -0.2166  0.8897
  698MOL0     H94200   8.576  -0.113   2.300  1.2738  0.7211  0.3143
  698MOL0     H94201   8.688  -0.029   2.190 -1.5711  2.1210  0.5590
  698MOL0     H94202   8.811  -0.230   2.244 -1.6115 -3.0006  3.6888
  698MOL0     H94203   8.743  -0.277   2.088  1.9672 -0.9072  0.1009
  698MOL0     H94204   8.640  -0.335   2.373  0.4611 -2.3385  1.2341
  698MOL0     H94205   8.547  -0.376   2.219  1.5802 -1.7732 -1.7544
  698MOL0     H94206   8.827  -0.467   2.306 -0.6503  1.1642 -0.3343
  698MOL0     H94207   8.737  -0.545   2.179  0.1814  1.4473 -1.3948
  698MOL0     H94208   8.758  -0.664   2.414 -0.7969 -1.2109 -2.5466
  698MOL0     H94209   8.649  -0.542   2.473 -2.5025 -0.9748  0.2684
  698MOL0     H94210   8.691   0.293   1.698  0.4337  0.3255 -0.4247
  698MOL0     H94211   8.697   0.519   1.663  2.1607  0.1517  2.6103
  698MOL0     H94212   8.677   0.877   1.940 -3.6044  0.7571  1.8509
  698MOL0     H94213   8.789   1.102   1.965 -0.2141  1.8989  1.1419
  698MOL0     H94214   8.541   2.744   1.640 -1.7621  1.7152  1.6195
  698MOL0     H94215   8.370   2.715   1.810 -1.5890 -0.4406 -0.4988
  698MOL0     H94216   8.297   2.368   2.163  1.1932  0.4518  0.6485
  698MOL0     H94217   8.149   2.276   2.313  1.8080  0.4129  1.7296
  698MOL0     H94218   8.082   2.218   2.562  0.0933 -0.4453  1.2782
  698MOL0     H94219   7.968   2.248   2.428  0.0292 -0.1073 -0.6303
  698MOL0     H94220   7.877   2.135   2.629 -0.4225 -0.4151 -2.0015
  698MOL0     H94221   7.788   2.281   2.600 -0.2054 -2.2177 -0.4670
  698MOL0     H94222   7.796   2.275   2.815  1.0984 -2.3052  1.1874
  698MOL0     H94223   7.905   2.406   2.760 -1.6161 -0.3025  0.0649
  698MOL0     H94224   8.107   2.269   2.813 -0.9667  0.3739 -1.4745
  698MOL0     H94225   7.996   2.268   2.958  0.4792  0.4663  1.0125
  698MOL0     H94226   8.007   1.869   2.859  0.2258  0.8719 -0.8068
  698MOL0     H94227   8.077   2.674   2.463  2.4871  4.0844 -2.2759
  698MOL0     H94228   8.339   2.831   2.332 -0.3679 -0.3374 -1.0051
  698MOL0     H94229   8.216   2.836   2.204 -1.1933  3.4220  1.6861
  698MOL0     H94230   8.146   2.843   2.351 -3.7774 -2.4606 -3.9345
  699MOL0     O94231  10.228  10.697   9.820 -0.1539  0.3789  0.3940
  699MOL0     C94232  10.150  10.739   9.910 -1.0727  0.4786 -0.6307
  699MOL0     O94233  10.198  10.774  10.038  0.6695 -0.8319 -0.1329
  699MOL0     C94234  10.331  10.781  10.055 -0.9226  0.5908  0.6666
  699MOL0     C94235  10.418  10.669  10.028 -0.3083  0.8496 -0.3237
  699MOL0     C94236  10.561  10.683  10.030  0.2957 -0.9630 -0.2353
  699MOL0     C94237  10.609  10.807  10.078  0.4441 -0.0684 -0.7189
  699MOL0     O94238  10.735  10.822  10.123 -1.0375 -0.4160  0.1850
  699MOL0     C94239  10.837  10.751  10.054  0.0275 -0.0806 -0.1793
  699MOL0     C94240  10.955  10.842  10.047 -0.7245  0.2700  0.3938
  699MOL0     C94241  11.069  10.775   9.963 -0.9524  0.6569 -0.4278
  699MOL0     C94242  11.182  10.870   9.922  0.9785  0.0875  0.5386
  699MOL0     C94243  11.303  10.788   9.867  1.1699  0.9717 -0.7266
  699MOL0     C94244  11.435  10.867   9.873 -0.0176  0.4559  1.2005
  699MOL0     C94245  11.513  10.841   9.740  0.3237 -0.8386 -0.3628
  699MOL0     C94246  11.655  10.898   9.743 -0.0879  0.1358  0.2100
  699MOL0     N94247  11.730  10.875   9.619  0.0174  0.6245  0.4924
  699MOL0     C94248  11.766  10.751   9.571 -0.5950  0.4967  0.7408
  699MOL0     C94249  11.836  10.785   9.453  0.4002  0.3640 -0.4057
  699MOL0     C94250  11.901  10.686   9.362 -0.1050  0.0839  0.1543
  699MOL0     C94251  12.048  10.671   9.407 -0.8021 -0.3252 -0.1104
  699MOL0     C94252  12.138  10.769   9.339  0.6654 -0.3167  0.7707
  699MOL0     C94253  12.282  10.762   9.394 -0.7972 -0.2583  0.8100
  699MOL0     O94254  12.358  10.839   9.302 -0.2993  0.6154  0.5150
  699MOL0     C94255  12.478  10.882   9.355 -0.3678 -0.0745 -0.0961
  699MOL0     C94256  12.589  10.810   9.358 -0.3727  0.8789  0.1669
  699MOL0     C94257  12.708  10.863   9.400 -0.1826  0.5810  0.4403
  699MOL0     C94258  12.716  10.990   9.450  0.0604 -1.1015 -0.7660
  699MOL0     C94259  12.847  11.041   9.486 -0.5460 -0.8929 -0.0175
  699MOL0     O94260  12.963  10.999   9.416 -0.4107 -0.1753 -1.3037
  699MOL0     C94261  13.082  11.057   9.453 -0.0335 -0.1943  0.9294
  699MOL0     C94262  13.118  11.081   9.582 -0.0618  0.8765  0.2548
  699MOL0     C94263  13.239  11.133   9.617  0.4128 -0.0593 -0.3836
  699MOL0     C94264  13.342  11.138   9.518  0.8999 -0.2520 -0.6688
  699MOL0     O94265  13.467  11.181   9.553 -0.4528  0.3666 -0.8163
  699MOL0     C94266  13.564  11.202   9.448  0.3250  0.1350  0.1664
  699MOL0     C94267  13.683  11.255   9.527 -0.2089 -0.2310 -0.3653
  699MOL0     C94268  13.821  11.262   9.452  0.0320  0.4924  0.0615
  699MOL0     C94269  13.819  11.298   9.302  0.3399  0.0576  0.5488
  699MOL0     C94270  13.964  11.275   9.248 -0.0964  0.2195  0.4656
  699MOL0     C94271  13.963  11.284   9.097 -0.0333  0.3764 -0.0548
  699MOL0     C94272  14.102  11.305   9.038  0.0359 -0.1428  0.3037
  699MOL0     C94273  14.078  11.345   8.885  0.1107 -0.8524 -0.1203
  699MOL0    Cl94274  13.974  11.244   8.790  0.3414 -0.0202  0.3766
  699MOL0     C94275  13.302  11.123   9.381 -0.4875 -0.6460 -0.2652
  699MOL0     C94276  13.174  11.075   9.357 -0.1748  0.0699  1.0383
  699MOL0     O94277  12.844  11.141   9.562 -0.4143  0.1003 -0.6054
  699MOL0     C94278  12.603  11.076   9.455  0.1598  1.0060  0.2933
  699MOL0     C94279  12.486  11.014   9.398  0.6948  0.0296  0.1384
  699MOL0     N94280  11.821  10.915   9.430 -0.9395  0.2286 -0.1405
  699MOL0     N94281  11.764  10.973   9.529 -0.2803  1.1276 -0.3393
  699MOL0     C94282  10.526  10.913  10.123  0.3414 -0.4523 -0.2270
  699MOL0     C94283  10.391  10.894  10.109  0.2643 -0.2145  0.1491
  699MOL0     C94284  10.013  10.755   9.873 -0.2736 -0.6909  0.6519
  699MOL0     C94285   9.939  10.829   9.964 -0.4176 -0.8728  0.3055
  699MOL0     C94286   9.803  10.866   9.939 -0.6021  0.2904 -1.0476
  699MOL0     C94287   9.740  10.812   9.825  1.3151 -0.4731 -0.5547
  699MOL0     O94288   9.611  10.840   9.798  0.0349 -0.7750  0.3540
  699MOL0     C94289   9.517  10.910   9.875  0.8808 -0.0007 -0.4871
  699MOL0     C94290   9.470  10.823   9.996 -0.3109  1.1304 -0.3083
  699MOL0     C94291   9.387  10.895  10.094  0.5553  0.1236 -0.3975
  699MOL0     C94292   9.261  10.955  10.026  0.7848 -0.7577  0.1430
  699MOL0     C94293   9.209  11.077  10.093  0.4560  0.1833  0.3640
  699MOL0     C94294   9.166  11.169  10.164 -0.4728  0.0415  0.1692
  699MOL0     C94295   9.817  10.735   9.741  0.2727 -0.1022  0.5426
  699MOL0     C94296   9.955  10.707   9.751  0.1380 -0.8250 -0.4776
  699MOL0     C94297  10.031  10.615   9.658  0.6300  0.4531 -0.2788
  699MOL0     H94298  10.382  10.568  10.013 -0.6228  1.1259 -1.5680
  699MOL0     H94299  10.619  10.593  10.011 -2.1382 -2.7802  0.4219
  699MOL0     H94300  10.865  10.661  10.110 -0.8758 -1.0110 -1.1754
  699MOL0     H94301  10.805  10.731   9.951 -0.9462  3.4107 -0.7112
  699MOL0     H94302  10.989  10.877  10.144  3.0387  0.5206 -0.8678
  699MOL0     H94303  10.927  10.932   9.991  4.1346  2.0811  0.3753
  699MOL0     H94304  11.034  10.719   9.876 -0.0393 -1.1189  0.2943
  699MOL0     H94305  11.115  10.706  10.035 -1.1531  2.2402  1.2768
  699MOL0     H94306  11.161  10.945   9.845  5.6128  0.0277 -1.1369
  699MOL0     H94307  11.207  10.925  10.013  1.3905  1.4731 -0.3853
  699MOL0     H94308  11.312  10.692   9.920 -1.1467  0.6498 -0.8168
  699MOL0     H94309  11.278  10.755   9.766  3.1650 -3.9448  0.1306
  699MOL0     H94310  11.419  10.975   9.864 -1.5240  0.0749 -3.4485
  699MOL0     H94311  11.494  10.849   9.963  0.7934  2.1388  1.0594
  699MOL0     H94312  11.443  10.885   9.668  1.7980  0.2378 -1.1847
  699MOL0     H94313  11.511  10.732   9.730 -0.7893 -0.8130 -0.6000
  699MOL0     H94314  11.651  11.007   9.748 -1.8642  0.1938 -1.3005
  699MOL0     H94315  11.700  10.869   9.838  0.2180  1.0538  0.3514
  699MOL0     H94316  11.757  10.651   9.612 -3.3029 -0.0400 -0.9220
  699MOL0     H94317  11.851  10.589   9.371  1.6529 -0.7205  1.8727
  699MOL0     H94318  11.889  10.708   9.256 -0.8481 -0.0422  0.2081
  699MOL0     H94319  12.048  10.685   9.516 -0.1327 -0.7303 -0.0476
  699MOL0     H94320  12.075  10.566   9.390 -0.2828 -0.2032 -0.0512
  699MOL0     H94321  12.088  10.866   9.344  0.8661  0.0076 -2.0489
  699MOL0     H94322  12.142  10.746   9.232 -2.3526  2.1256 -0.0048
  699MOL0     H94323  12.316  10.657   9.395  0.0078 -0.0040  0.8866
  699MOL0     H94324  12.285  10.806   9.494  1.0746  2.6339 -0.3833
  699MOL0     H94325  12.578  10.711   9.316 -0.1464  1.2444 -0.8019
  699MOL0     H94326  12.795  10.798   9.399 -1.3812 -1.0756  0.1020
  699MOL0     H94327  13.050  11.048   9.659  1.3231  1.0300  1.5785
  699MOL0     H94328  13.267  11.141   9.722  1.5199 -0.7982 -0.6177
  699MOL0     H94329  13.582  11.108   9.394 -0.1989 -0.4122  0.9281
  699MOL0     H94330  13.535  11.284   9.382 -0.4889  0.7731  1.2828
  699MOL0     H94331  13.660  11.350   9.577  2.5989  0.3431  0.0001
  699MOL0     H94332  13.698  11.187   9.611 -0.6335 -0.4962 -0.5042
  699MOL0     H94333  13.897  11.323   9.503  3.0826 -3.8653  1.3178
  699MOL0     H94334  13.860  11.160   9.452 -0.5431  0.2706 -0.5185
  699MOL0     H94335  13.795  11.404   9.296  0.9184  0.2177  1.0431
  699MOL0     H94336  13.748  11.231   9.253  2.0546 -0.9099 -0.7486
  699MOL0     H94337  13.999  11.179   9.287  2.8556  1.9985  2.6299
  699MOL0     H94338  14.024  11.353   9.296 -1.1904 -0.4149  3.0383
  699MOL0     H94339  13.916  11.187   9.075  1.0670  0.1172 -1.3726
  699MOL0     H94340  13.910  11.372   9.061  0.6025 -0.4321 -3.2827
  699MOL0     H94341  14.153  11.208   9.043 -0.1373 -0.2571 -0.1148
  699MOL0     H94342  14.148  11.385   9.096 -1.3171  3.4905 -3.2064
  699MOL0     H94343  14.027  11.442   8.881  0.7533 -0.5353 -1.3932
  699MOL0     H94344  14.169  11.354   8.824  0.0526  0.9187  0.0043
  699MOL0     H94345  13.367  11.135   9.295  0.5765  0.4161  0.6571
  699MOL0     H94346  13.145  11.070   9.252  1.3518  0.9297  0.5456
  699MOL0     H94347  12.613  11.182   9.476  0.8324  0.7240  1.5028
  699MOL0     H94348  12.399  11.073   9.371 -0.2925 -0.8345  1.3531
  699MOL0     H94349  10.569  10.997  10.175  0.1769 -0.7996  0.4811
  699MOL0     H94350  10.337  10.983  10.142  1.4104 -0.0485  1.6638
  699MOL0     H94351   9.988  10.885  10.044  0.3573 -0.1172 -0.6788
  699MOL0     H94352   9.753  10.933  10.008 -0.3801 -0.4428 -0.1600
  699MOL0     H94353   9.438  10.931   9.802 -1.9602 -2.0004  1.8098
  699MOL0     H94354   9.544  11.008   9.916  3.4506 -1.1897  0.9061
  699MOL0     H94355   9.566  10.796  10.040 -0.2537 -3.9013 -2.7943
  699MOL0     H94356   9.413  10.735   9.963 -0.1488  0.5981  0.8103
  699MOL0     H94357   9.452  10.963  10.150 -0.4360  0.8858 -0.1165
  699MOL0     H94358   9.351  10.832  10.176 -2.4873  1.7217 -0.3318
  699MOL0     H94359   9.290  10.985   9.925  3.9750 -3.2239  0.1933
  699MOL0     H94360   9.182  10.881  10.007 -2.3112  2.2568  0.2159
  699MOL0     H94361   9.140  11.238  10.242 -0.5462 -0.0126  0.1931
  699MOL0     H94362   9.763  10.707   9.651 -1.2904  1.5046  0.9031
  699MOL0     H94363  10.093  10.538   9.705 -1.5126 -0.2356  1.5746
  699MOL0     H94364   9.962  10.551   9.602 -0.0212  0.7602  0.1681
  699MOL0     H94365  10.092  10.672   9.587 -1.3349  2.4180 -0.4789
  700MOL0     O94366   8.127   6.703   9.857 -0.5247 -0.3396  0.2909
  700MOL0     C94367   8.110   6.669   9.975  0.5919  0.4424  0.1957
  700MOL0     O94368   8.151   6.548  10.027  0.4419  0.4248 -0.1494
  700MOL0     C94369   8.186   6.440   9.952  0.6433 -0.4750 -0.0328
  700MOL0     C94370   8.307   6.380   9.979 -0.2007 -0.4837  0.5257
  700MOL0     C94371   8.359   6.275   9.906  0.3113 -0.3853  0.1510
  700MOL0     C94372   8.287   6.218   9.802 -0.1554 -0.9472 -0.5214
  700MOL0     O94373   8.341   6.114   9.732  0.0320 -0.0398 -0.2057
  700MOL0     C94374   8.272   6.078   9.605 -1.3017 -0.3839 -0.1084
  700MOL0     C94375   8.345   5.954   9.555  0.6991 -0.2161 -0.1918
  700MOL0     C94376   8.497   5.962   9.530 -0.0162  0.4646  1.0301
  700MOL0     C94377   8.545   6.067   9.435 -0.5325 -0.0832  0.2211
  700MOL0     C94378   8.700   6.064   9.437 -0.6135 -0.0323  0.3991
  700MOL0     C94379   8.772   6.200   9.402  1.3267  0.2399  0.1345
  700MOL0     C94380   8.710   6.260   9.273  0.1276 -0.8053  0.0964
  700MOL0     C94381   8.725   6.188   9.144 -0.5270 -0.3944  0.1979
  700MOL0     N94382   8.862   6.177   9.098  0.1075  0.8819 -0.5284
  700MOL0     C94383   8.962   6.271   9.114  1.1035 -0.5324  0.3418
  700MOL0     C94384   9.079   6.218   9.062  0.6176  0.6805  0.0698
  700MOL0     C94385   9.216   6.285   9.057  0.0971  0.5739 -0.8667
  700MOL0     C94386   9.237   6.361   9.185 -0.6615  0.1992  0.0136
  700MOL0     C94387   9.240   6.275   9.303 -0.4085  0.2589 -0.3922
  700MOL0     C94388   9.288   6.348   9.429 -0.4009 -0.6867  0.8712
  700MOL0     O94389   9.186   6.432   9.473 -0.0198  0.3395  0.1062
  700MOL0     C94390   9.193   6.491   9.594  0.1534 -0.6371 -0.4761
  700MOL0     C94391   9.076   6.548   9.650  0.0709  0.0898  0.2483
  700MOL0     C94392   9.081   6.615   9.769 -0.3088 -0.0911 -0.0281
  700MOL0     C94393   9.204   6.649   9.827 -0.6376  0.8130 -0.0097
  700MOL0     C94394   9.207   6.738   9.946 -0.2443 -0.1735  0.5116
  700MOL0     O94395   9.093   6.734  10.025  0.1140  0.1706 -0.2531
  700MOL0     C94396   9.100   6.791  10.153 -0.1915 -0.8262 -0.1531
  700MOL0     C94397   9.154   6.914  10.182 -0.9800  0.5333 -1.4066
  700MOL0     C94398   9.150   6.958  10.317  0.5609 -0.1611 -0.0479
  700MOL0     C94399   9.105   6.875  10.422 -0.8054 -0.0756 -0.0326
  700MOL0     O94400   9.100   6.923  10.546 -0.3792  0.7815 -0.5180
  700MOL0     C94401   9.224   6.988  10.588  0.4884  0.5391 -0.1104
  700MOL0     C94402   9.200   6.995  10.737  0.8210  0.1219  0.3848
  700MOL0     C94403   9.307   7.055  10.825 -0.8149 -0.5092  0.4760
  700MOL0     C94404   9.275   7.063  10.975 -0.3876  0.4970  0.6832
  700MOL0     C94405   9.383   7.123  11.067 -0.9986 -0.4780  0.0149
  700MOL0     C94406   9.347   7.129  11.215 -0.6242 -0.8425 -0.2874
  700MOL0     C94407   9.324   6.993  11.276  0.0946 -0.6245 -0.8496
  700MOL0     C94408   9.317   6.989  11.431 -0.2424  0.4329  0.0140
  700MOL0    Cl94409   9.160   7.059  11.496  0.2707  0.1062 -0.3154
  700MOL0     C94410   9.067   6.748  10.384 -0.1011  0.5867 -0.1245
  700MOL0     C94411   9.051   6.710  10.252 -0.4907 -0.4155 -0.8630
  700MOL0     O94412   9.317   6.782   9.987  0.0848 -0.4290 -0.0448
  700MOL0     C94413   9.320   6.601   9.769 -0.5303 -0.3183 -0.7169
  700MOL0     C94414   9.320   6.528   9.656  0.0773  0.3165  0.3104
  700MOL0     N94415   9.052   6.091   9.022 -0.2966 -0.1864 -0.3718
  700MOL0     N94416   8.923   6.066   9.046 -0.0831 -0.2129 -0.2262
  700MOL0     C94417   8.166   6.284   9.767  0.1700 -0.6905  0.0700
  700MOL0     C94418   8.115   6.393   9.843 -0.2854  0.3070  0.1778
  700MOL0     C94419   8.036   6.764  10.068  0.2057 -0.7674 -0.0969
  700MOL0     C94420   7.987   6.715  10.191 -0.2598 -0.6328  1.0311
  700MOL0     C94421   7.926   6.805  10.278  0.1341  0.0290 -0.5863
  700MOL0     C94422   7.904   6.935  10.253  1.7035  1.2018 -0.4817
  700MOL0     O94423   7.874   7.015  10.363 -0.4234  1.1171 -0.5788
  700MOL0     C94424   7.871   7.158  10.355  0.0671  0.4043  0.4298
  700MOL0     C94425   7.895   7.214  10.498  0.1494  0.6131 -0.2299
  700MOL0     C94426   7.839   7.358  10.504  0.9968  0.0621 -0.3771
  700MOL0     C94427   7.852   7.427  10.647 -0.0601 -1.2878  0.1737
  700MOL0     C94428   7.798   7.565  10.662 -1.3661  0.1155  0.4042
  700MOL0     C94429   7.777   7.685  10.661  0.5266  0.4863  0.7757
  700MOL0     C94430   7.923   6.976  10.121 -0.8093  0.2532 -0.5319
  700MOL0     C94431   7.992   6.892  10.031  0.7036 -0.2288 -0.0373
  700MOL0     C94432   8.051   6.964   9.908  0.4805 -0.2623 -0.3015
  700MOL0     H94433   8.360   6.434  10.058  0.0382 -0.8566  0.6220
  700MOL0     H94434   8.446   6.225   9.948  0.0948 -1.0110 -0.1318
  700MOL0     H94435   8.166   6.052   9.614 -0.9215 -1.4297  1.7618
  700MOL0     H94436   8.281   6.166   9.540 -1.6267 -0.0807  0.2536
  700MOL0     H94437   8.295   5.930   9.460  1.4775 -0.1367 -0.6304
  700MOL0     H94438   8.312   5.877   9.625  0.0237  0.5462  0.3432
  700MOL0     H94439   8.530   5.868   9.486 -1.0419  0.3935  0.3706
  700MOL0     H94440   8.551   5.976   9.624  0.0605  0.2751  1.0125
  700MOL0     H94441   8.502   6.072   9.335  1.3858  3.6619 -0.6071
  700MOL0     H94442   8.514   6.163   9.479  1.3470 -1.0458  4.1590
  700MOL0     H94443   8.738   6.028   9.533 -0.3065 -1.6330 -0.2944
  700MOL0     H94444   8.735   5.995   9.360  0.0144  0.1642  0.4959
  700MOL0     H94445   8.773   6.266   9.490 -0.1180 -0.0692  0.4033
  700MOL0     H94446   8.878   6.185   9.377  2.4587  2.6048  2.8535
  700MOL0     H94447   8.761   6.355   9.255  2.3518 -1.8202  0.6983
  700MOL0     H94448   8.606   6.291   9.280  0.6361  0.9403  0.5133
  700MOL0     H94449   8.666   6.098   9.129 -1.8746  0.1902  1.7061
  700MOL0     H94450   8.687   6.272   9.085 -0.0402  0.8810  1.6053
  700MOL0     H94451   8.954   6.366   9.166  3.8147  0.3105 -0.5782
  700MOL0     H94452   9.289   6.205   9.043 -1.6075 -1.5516  1.3670
  700MOL0     H94453   9.226   6.345   8.966  2.3168 -0.5860 -1.4531
  700MOL0     H94454   9.340   6.400   9.182 -1.0823  1.8441  2.9991
  700MOL0     H94455   9.171   6.446   9.205 -1.2564 -0.3376  0.3560
  700MOL0     H94456   9.300   6.186   9.281  0.1610  0.2190  1.1707
  700MOL0     H94457   9.134   6.250   9.317 -0.0198 -0.8342  0.8760
  700MOL0     H94458   9.386   6.397   9.417 -1.3848  1.5510  1.4532
  700MOL0     H94459   9.307   6.271   9.504 -0.1251 -3.5396 -1.9393
  700MOL0     H94460   8.984   6.537   9.593  0.5792 -0.5482 -0.4702
  700MOL0     H94461   8.998   6.674   9.807  0.2271 -0.6447  2.1247
  700MOL0     H94462   9.196   6.965  10.096  0.6213 -0.5376 -1.3112
  700MOL0     H94463   9.174   7.053  10.363 -1.1818  1.3899 -2.1553
  700MOL0     H94464   9.316   6.935  10.560  1.4556 -0.2159  3.8876
  700MOL0     H94465   9.229   7.090  10.547  1.3031 -0.3064 -2.2636
  700MOL0     H94466   9.113   7.061  10.746  0.5037 -0.1538 -0.5226
  700MOL0     H94467   9.170   6.895  10.768 -0.5509  0.9191  1.7775
  700MOL0     H94468   9.393   6.988  10.811  0.2376  1.2044 -1.9163
  700MOL0     H94469   9.333   7.156  10.792 -2.0901  0.4707  2.2793
  700MOL0     H94470   9.281   6.960  11.013 -1.5616  0.9022  2.0707
  700MOL0     H94471   9.177   7.109  10.992 -0.9315  0.5530 -2.1597
  700MOL0     H94472   9.424   7.218  11.030  1.3244 -1.4376 -0.0217
  700MOL0     H94473   9.468   7.056  11.056 -1.6301 -1.5945  1.6923
  700MOL0     H94474   9.419   7.179  11.281 -3.2842  1.6050  0.9873
  700MOL0     H94475   9.253   7.185  11.221  0.1209  0.3350  1.3372
  700MOL0     H94476   9.412   6.940  11.237 -1.1818 -2.3253 -1.5039
  700MOL0     H94477   9.239   6.951  11.222 -1.2846  0.3231  0.5300
  700MOL0     H94478   9.339   6.888  11.466 -0.6760  0.6085  0.8257
  700MOL0     H94479   9.388   7.060  11.475 -0.0011  1.5975 -2.1484
  700MOL0     H94480   9.028   6.683  10.461  1.5820 -1.4533 -0.9113
  700MOL0     H94481   9.012   6.611  10.230 -0.4479 -0.7745  0.6018
  700MOL0     H94482   9.415   6.640   9.806 -0.9007  1.7376 -1.7651
  700MOL0     H94483   9.413   6.494   9.612  0.1079  0.8446 -0.0428
  700MOL0     H94484   8.095   6.241   9.696  0.6564 -1.4069 -0.0024
  700MOL0     H94485   8.024   6.447   9.819 -2.3274 -2.5957  0.8776
  700MOL0     H94486   7.997   6.610  10.217  1.6200 -0.5222  0.8794
  700MOL0     H94487   7.910   6.762  10.377  1.6353  1.1967  0.1960
  700MOL0     H94488   7.765   7.170  10.327  0.4046  0.0394 -1.1006
  700MOL0     H94489   7.923   7.197  10.268 -2.1841  3.3980  0.2665
  700MOL0     H94490   8.002   7.225  10.515  0.1131  0.8886 -0.1778
  700MOL0     H94491   7.841   7.154  10.573 -0.6866 -2.4611 -3.0273
  700MOL0     H94492   7.732   7.353  10.482  0.8269 -0.2851  0.5026
  700MOL0     H94493   7.897   7.418  10.434  2.9623 -1.7924 -0.4382
  700MOL0     H94494   7.805   7.356  10.715 -3.1458  0.6726  0.3240
  700MOL0     H94495   7.960   7.430  10.662  0.1571  3.1913 -0.6490
  700MOL0     H94496   7.750   7.789  10.669 -1.7066 -0.0287  0.6460
  700MOL0     H94497   7.912   7.080  10.095 -1.4626  0.7585  1.5789
  700MOL0     H94498   8.023   7.069   9.922 -0.3226  0.2666 -4.6717
  700MOL0     H94499   8.160   6.960   9.912  0.4619 -0.2363  0.8363
  700MOL0     H94500   8.010   6.924   9.815  2.1435 -2.0915 -0.3230
  701MOL0     O94501   6.816   8.323   5.047  0.0746 -0.7750  0.9011
  701MOL0     C94502   6.728   8.320   4.958 -0.0863 -0.4296 -0.3153
  701MOL0     O94503   6.749   8.290   4.830  0.1844  0.7561  0.1287
  701MOL0     C94504   6.870   8.249   4.781  0.6083  0.5228  0.9435
  701MOL0     C94505   6.916   8.303   4.654  0.5099 -0.5353  0.0213
  701MOL0     C94506   7.047   8.274   4.615 -0.3323 -0.0446 -0.4054
  701MOL0     C94507   7.138   8.191   4.688 -0.2586 -0.2774  0.5219
  701MOL0     O94508   7.262   8.150   4.653  0.3598  0.3564 -0.1471
  701MOL0     C94509   7.304   8.186   4.514 -1.0043 -0.6394  0.2304
  701MOL0     C94510   7.446   8.138   4.474  0.5239 -0.2482  0.7774
  701MOL0     C94511   7.556   8.151   4.580 -0.4577  0.7521  0.3293
  701MOL0     C94512   7.613   8.290   4.588  0.0677  0.4480  0.4552
  701MOL0     C94513   7.727   8.299   4.690 -0.3941  0.3073  0.3222
  701MOL0     C94514   7.755   8.443   4.710 -0.0777 -0.3714  0.3228
  701MOL0     C94515   7.875   8.482   4.798 -0.0528 -1.0285  1.3655
  701MOL0     C94516   7.869   8.622   4.845 -0.3499  0.2267  0.9864
  701MOL0     N94517   7.769   8.641   4.960 -0.9926 -0.4785  0.4951
  701MOL0     C94518   7.764   8.573   5.077 -0.0571 -0.3123 -0.3843
  701MOL0     C94519   7.654   8.611   5.141  0.1674  0.5819 -0.0328
  701MOL0     C94520   7.593   8.573   5.276 -0.7747 -0.0351  0.5909
  701MOL0     C94521   7.519   8.690   5.340 -0.1768  0.3561  0.5660
  701MOL0     C94522   7.522   8.675   5.494 -0.1364  0.4085 -0.1893
  701MOL0     C94523   7.431   8.563   5.538 -0.3823  0.2991 -0.5179
  701MOL0     O94524   7.284   8.586   5.511 -0.1279  0.1677  0.1693
  701MOL0     C94525   7.183   8.510   5.566 -0.6352  1.0735  1.1890
  701MOL0     C94526   7.211   8.374   5.594  0.5060 -0.6150 -0.2415
  701MOL0     C94527   7.094   8.298   5.644  0.0760  0.8124  0.1455
  701MOL0     C94528   6.968   8.354   5.654  0.2606  0.4056 -0.3705
  701MOL0     C94529   6.845   8.279   5.697  0.4607 -0.1760 -0.3681
  701MOL0     O94530   6.865   8.158   5.749 -0.2486 -0.8523 -0.2219
  701MOL0     C94531   6.763   8.064   5.779 -0.0496 -1.0455  0.0642
  701MOL0     C94532   6.761   8.018   5.912 -0.0218  0.3230 -0.1232
  701MOL0     C94533   6.650   7.939   5.963  0.3144 -0.4707  0.7848
  701MOL0     C94534   6.552   7.903   5.869 -1.3775  0.6489  0.4011
  701MOL0     O94535   6.452   7.817   5.909  0.8512 -0.9595 -0.7653
  701MOL0     C94536   6.338   7.794   5.815  0.2075  0.6463 -0.1285
  701MOL0     C94537   6.215   7.729   5.890  0.4367 -0.3051  0.2666
  701MOL0     C94538   6.095   7.683   5.795  0.0091 -0.8303 -0.3399
  701MOL0     C94539   6.005   7.789   5.724 -0.7328 -0.2293  0.5886
  701MOL0     C94540   5.921   7.730   5.612  0.5377 -0.0571  0.1336
  701MOL0     C94541   5.839   7.833   5.532 -0.0972  0.1204  0.0612
  701MOL0     C94542   5.741   7.921   5.607 -0.0259 -0.5096  0.5532
  701MOL0     C94543   5.656   8.005   5.498 -0.0329  0.0917 -0.3107
  701MOL0    Cl94544   5.752   8.091   5.365  0.4611 -0.0481  0.5080
  701MOL0     C94545   6.559   7.951   5.738  0.0022 -0.5415 -0.3515
  701MOL0     C94546   6.659   8.035   5.694 -0.5908  1.3087 -0.6250
  701MOL0     O94547   6.736   8.326   5.679  0.6917 -0.3976 -0.2580
  701MOL0     C94548   6.950   8.488   5.618  0.8272 -0.3454 -0.3092
  701MOL0     C94549   7.055   8.569   5.570 -0.6371 -1.5101  0.0948
  701MOL0     N94550   7.593   8.712   5.059  0.0443  0.2430 -0.3677
  701MOL0     N94551   7.661   8.730   4.956 -0.1288  0.5066  0.3157
  701MOL0     C94552   7.086   8.124   4.799 -0.2732 -0.3391  0.3844
  701MOL0     C94553   6.960   8.160   4.849  0.1466  0.1410 -1.6805
  701MOL0     C94554   6.576   8.346   4.988 -0.1869  0.5004  0.1211
  701MOL0     C94555   6.489   8.346   4.877  0.1475  0.1785  0.4657
  701MOL0     C94556   6.349   8.351   4.894  0.0557  0.1924  0.2195
  701MOL0     C94557   6.303   8.393   5.024  0.4962  0.3439  0.8257
  701MOL0     O94558   6.170   8.432   5.016 -0.3230  0.2125 -0.1708
  701MOL0     C94559   6.147   8.558   5.075 -0.5497  0.3593 -0.1085
  701MOL0     C94560   6.223   8.668   5.000 -0.1203 -0.4730  0.1275
  701MOL0     C94561   6.191   8.798   5.070 -0.3826  0.0992 -0.4551
  701MOL0     C94562   6.191   8.927   4.982 -0.2185 -0.6844 -0.7033
  701MOL0     C94563   6.109   9.026   5.048  0.1558  0.1357  0.1413
  701MOL0     C94564   6.034   9.097   5.113  1.3087  0.8518 -0.2252
  701MOL0     C94565   6.384   8.396   5.136 -0.2334  0.3471  0.1320
  701MOL0     C94566   6.523   8.379   5.119  0.2918  0.1707  0.0646
  701MOL0     C94567   6.609   8.391   5.240  0.7303  0.4996 -0.7073
  701MOL0     H94568   6.859   8.372   4.592  1.6966 -0.6165 -1.2184
  701MOL0     H94569   7.076   8.322   4.522  0.7928  1.1959  0.5389
  701MOL0     H94570   7.222   8.160   4.446 -2.2009 -1.3199  1.8669
  701MOL0     H94571   7.317   8.294   4.504  1.5671 -0.9882 -1.1386
  701MOL0     H94572   7.472   8.198   4.387 -1.3890  1.4150  1.2787
  701MOL0     H94573   7.435   8.033   4.445 -0.1170  0.0749 -0.2010
  701MOL0     H94574   7.638   8.085   4.549 -2.9093 -2.1807 -0.4441
  701MOL0     H94575   7.504   8.123   4.673  0.3862 -0.0326  0.5791
  701MOL0     H94576   7.647   8.314   4.487  1.4186 -2.0344  0.2157
  701MOL0     H94577   7.532   8.353   4.626 -0.6055  0.2460 -0.6160
  701MOL0     H94578   7.698   8.245   4.780  1.7776 -0.1410  0.8049
  701MOL0     H94579   7.816   8.247   4.655 -0.7582 -1.8747  2.3791
  701MOL0     H94580   7.776   8.478   4.608 -1.8229  0.5284  0.2393
  701MOL0     H94581   7.664   8.499   4.733  0.0658  0.3168 -0.6921
  701MOL0     H94582   7.964   8.471   4.736 -0.1942  2.0666  0.4413
  701MOL0     H94583   7.881   8.417   4.886 -0.9627 -0.0234  2.2046
  701MOL0     H94584   7.963   8.649   4.894  2.1816 -0.8410 -2.8746
  701MOL0     H94585   7.845   8.684   4.759 -0.7176 -0.3274  0.6790
  701MOL0     H94586   7.805   8.479   5.114  1.6915  0.9133  0.9548
  701MOL0     H94587   7.526   8.489   5.254  0.7080 -1.5649  1.6349
  701MOL0     H94588   7.673   8.539   5.343  0.7298 -2.3268 -2.1347
  701MOL0     H94589   7.558   8.789   5.316  2.5294 -0.5491  0.9285
  701MOL0     H94590   7.419   8.689   5.295  0.7709  1.1106 -1.6522
  701MOL0     H94591   7.500   8.765   5.551  1.5109  0.7984 -0.1474
  701MOL0     H94592   7.620   8.642   5.528 -0.5240  0.4086  0.9654
  701MOL0     H94593   7.437   8.533   5.643 -0.6016 -0.0148 -0.5946
  701MOL0     H94594   7.464   8.481   5.473  3.6310  1.7222 -0.5472
  701MOL0     H94595   7.306   8.324   5.582  0.6281  0.3451 -5.8882
  701MOL0     H94596   7.115   8.194   5.667  0.1925  0.8309  0.1238
  701MOL0     H94597   6.846   8.030   5.978 -1.9548  0.7466  2.4846
  701MOL0     H94598   6.645   7.909   6.068  2.1668  1.3297  1.4615
  701MOL0     H94599   6.300   7.880   5.760  0.7162  2.4980  2.2633
  701MOL0     H94600   6.378   7.723   5.741  2.9966  2.0008 -0.0492
  701MOL0     H94601   6.239   7.644   5.955  1.2394 -0.1647  0.1669
  701MOL0     H94602   6.172   7.813   5.945  1.8112  1.0078 -0.6085
  701MOL0     H94603   6.133   7.615   5.718 -1.8795  0.1827 -2.3105
  701MOL0     H94604   6.025   7.631   5.860 -0.9686  2.7550  1.7808
  701MOL0     H94605   6.065   7.873   5.688 -1.5132  0.5783  1.1462
  701MOL0     H94606   5.942   7.832   5.802 -1.1913 -0.2764  0.2473
  701MOL0     H94607   5.855   7.654   5.654 -2.1236  0.8980 -2.0032
  701MOL0     H94608   5.981   7.677   5.537  1.8510 -0.7190  1.6065
  701MOL0     H94609   5.908   7.893   5.473 -4.4766  5.4926 -0.4284
  701MOL0     H94610   5.783   7.775   5.459 -1.9473  0.3098  1.2633
  701MOL0     H94611   5.799   7.993   5.665  3.2441 -1.3845 -1.3560
  701MOL0     H94612   5.673   7.865   5.672 -2.6363 -1.2280 -2.5029
  701MOL0     H94613   5.589   7.935   5.446  0.2022 -0.6345  0.3377
  701MOL0     H94614   5.598   8.075   5.557 -1.0093 -2.5158  2.0744
  701MOL0     H94615   6.490   7.926   5.658 -2.4693 -0.8585  1.7489
  701MOL0     H94616   6.674   8.068   5.591  3.0864 -0.7889 -0.9415
  701MOL0     H94617   6.849   8.528   5.612  1.3199  0.8497 -0.9228
  701MOL0     H94618   7.041   8.675   5.553  1.4027 -1.1773  0.2310
  701MOL0     H94619   7.134   8.047   4.859 -2.3891 -1.6765  0.4724
  701MOL0     H94620   6.924   8.119   4.943  0.0847  2.9008 -0.4001
  701MOL0     H94621   6.524   8.333   4.775 -3.0550  0.4165 -0.7768
  701MOL0     H94622   6.292   8.337   4.803 -0.9484  1.6108  0.5977
  701MOL0     H94623   6.179   8.553   5.179 -1.7469 -2.7134  0.2131
  701MOL0     H94624   6.041   8.584   5.071 -0.3673  1.5071  1.6085
  701MOL0     H94625   6.190   8.661   4.896  1.5240  1.5026 -0.5930
  701MOL0     H94626   6.329   8.641   5.000  0.1189  0.3671  1.3865
  701MOL0     H94627   6.249   8.827   5.158  0.1780 -0.2396 -0.7117
  701MOL0     H94628   6.090   8.795   5.112  0.2382  0.9978  1.1990
  701MOL0     H94629   6.291   8.970   4.974 -1.2634  1.9408 -0.7478
  701MOL0     H94630   6.169   8.912   4.876  2.6861  2.1031 -1.8568
  701MOL0     H94631   5.971   9.167   5.164  0.5950  0.1025 -0.0638
  701MOL0     H94632   6.358   8.442   5.231  2.9245 -1.3284  2.0026
  701MOL0     H94633   6.554   8.453   5.313 -1.6826  0.4702 -2.3794
  701MOL0     H94634   6.620   8.296   5.293 -3.1208 -0.0409 -0.5968
  701MOL0     H94635   6.704   8.442   5.224  0.8587 -0.1037 -1.9465
  702MOL0     O94636   5.614   7.902   9.134 -0.6832  1.1038  0.1896
  702MOL0     C94637   5.501   7.855   9.162 -1.3850 -0.6774  0.1110
  702MOL0     O94638   5.474   7.755   9.245 -0.3160 -0.0589  0.8886
  702MOL0     C94639   5.587   7.683   9.276  0.4376  0.3276  0.2743
  702MOL0     C94640   5.591   7.555   9.219 -0.1631  0.3424 -0.4026
  702MOL0     C94641   5.678   7.456   9.267 -0.2428  0.4473 -0.3950
  702MOL0     C94642   5.767   7.492   9.370  1.3303  0.0480 -0.0615
  702MOL0     O94643   5.881   7.413   9.396  0.3235 -0.4014  0.0029
  702MOL0     C94644   5.912   7.296   9.317  0.3853  0.0794 -0.5790
  702MOL0     C94645   6.062   7.283   9.318  0.6619  0.7773 -0.0985
  702MOL0     C94646   6.140   7.409   9.279  0.0845  1.1644 -0.0469
  702MOL0     C94647   6.287   7.373   9.258 -0.1708  0.3113  0.4453
  702MOL0     C94648   6.367   7.329   9.386 -0.8531 -0.5348  0.1963
  702MOL0     C94649   6.512   7.281   9.349  0.0677 -1.0124 -0.7283
  702MOL0     C94650   6.516   7.140   9.290 -0.1324  0.4871  0.9571
  702MOL0     C94651   6.656   7.097   9.248 -0.0580 -0.0895  0.5357
  702MOL0     N94652   6.653   6.994   9.136 -0.2040 -1.1737 -0.3637
  702MOL0     C94653   6.617   6.857   9.168 -0.7763  0.6823  0.7023
  702MOL0     C94654   6.574   6.816   9.044  0.6613  0.1470 -0.1986
  702MOL0     C94655   6.532   6.675   9.007  0.3911  0.0354 -0.2686
  702MOL0     C94656   6.663   6.598   8.983 -1.0435  0.5253  0.0225
  702MOL0     C94657   6.693   6.568   8.840 -0.2638 -0.1884  0.5632
  702MOL0     C94658   6.592   6.477   8.777 -0.8426 -0.5630  0.0890
  702MOL0     O94659   6.645   6.402   8.666  0.2873  0.4601 -0.7125
  702MOL0     C94660   6.681   6.266   8.696 -0.4372 -0.4903  0.3792
  702MOL0     C94661   6.691   6.173   8.595 -0.0220  0.6305  0.3867
  702MOL0     C94662   6.754   6.047   8.620  0.3754  0.0717  0.6475
  702MOL0     C94663   6.791   6.011   8.749 -0.3976 -0.5497  0.1061
  702MOL0     C94664   6.815   5.863   8.784 -0.3290 -0.3905  0.0718
  702MOL0     O94665   6.915   5.790   8.719 -0.0466 -0.1708 -0.0086
  702MOL0     C94666   6.983   5.701   8.796 -0.1278  0.7459 -1.6465
  702MOL0     C94667   6.935   5.573   8.814  0.0885 -0.8415  0.8125
  702MOL0     C94668   7.005   5.487   8.895 -0.2681 -0.6216  0.1979
  702MOL0     C94669   7.132   5.520   8.946 -0.1007  0.2431  0.2839
  702MOL0     O94670   7.193   5.423   9.021  0.3673  0.5517 -0.0080
  702MOL0     C94671   7.327   5.444   9.069  0.3647 -0.0300  0.4401
  702MOL0     C94672   7.411   5.323   9.018  0.9030 -0.3132  0.1511
  702MOL0     C94673   7.377   5.181   9.078  0.5294  0.8272  0.1212
  702MOL0     C94674   7.319   5.097   8.966 -0.2090 -0.0866  0.3257
  702MOL0     C94675   7.280   4.953   9.008 -0.0034  0.3406  0.5193
  702MOL0     C94676   7.128   4.925   8.982 -0.2843  0.0203 -0.6930
  702MOL0     C94677   7.037   5.042   9.035 -0.3038  0.4991 -0.4549
  702MOL0     C94678   6.912   4.976   9.065  0.7275  0.5734 -0.0556
  702MOL0    Cl94679   6.830   4.891   8.928  0.4270  0.5633  0.3174
  702MOL0     C94680   7.184   5.647   8.925 -0.9453  0.2320  0.4016
  702MOL0     C94681   7.112   5.739   8.854  0.6183 -0.3723 -0.2159
  702MOL0     O94682   6.765   5.823   8.887  0.2453 -0.0922  0.4908
  702MOL0     C94683   6.778   6.105   8.855 -0.3848 -0.3650  0.1232
  702MOL0     C94684   6.730   6.233   8.816  1.0418 -0.1395 -0.5262
  702MOL0     N94685   6.563   6.919   8.951 -1.3925  0.0404  0.4426
  702MOL0     N94686   6.621   7.019   9.004 -0.6427 -0.1474 -0.8936
  702MOL0     C94687   5.753   7.614   9.436  0.1841 -0.1371 -0.4015
  702MOL0     C94688   5.665   7.713   9.385  0.4341 -0.3322 -0.6629
  702MOL0     C94689   5.379   7.914   9.099 -0.4280 -0.4220 -0.3503
  702MOL0     C94690   5.389   7.971   8.974  0.0554 -0.4211  0.4727
  702MOL0     C94691   5.279   8.007   8.896  1.2463  0.4341  0.0435
  702MOL0     C94692   5.149   8.001   8.948  0.9804  0.1173 -0.8127
  702MOL0     O94693   5.035   8.033   8.886  0.0654 -0.8310  0.0415
  702MOL0     C94694   5.042   8.101   8.758  0.1059  0.5686 -0.7000
  702MOL0     C94695   4.912   8.174   8.702 -0.0175  0.9519 -0.1111
  702MOL0     C94696   4.914   8.199   8.555  0.2807 -0.4909 -0.2192
  702MOL0     C94697   4.788   8.258   8.506  0.6444 -0.8171  0.3260
  702MOL0     C94698   4.789   8.265   8.362 -0.1952  0.4668 -0.4087
  702MOL0     C94699   4.799   8.257   8.245  0.7946 -0.5022  0.2792
  702MOL0     C94700   5.139   7.965   9.083  0.3320  0.4337 -0.3085
  702MOL0     C94701   5.245   7.909   9.154 -0.3765  1.8696  0.8657
  702MOL0     C94702   5.217   7.862   9.289  0.3030  0.1671  0.9388
  702MOL0     H94703   5.517   7.529   9.144 -1.3264 -1.1445  1.1827
  702MOL0     H94704   5.674   7.352   9.236  1.7850  0.6015 -1.3076
  702MOL0     H94705   5.870   7.201   9.350  0.5207 -0.0317 -0.7169
  702MOL0     H94706   5.895   7.309   9.209  2.2126  4.5743 -0.5189
  702MOL0     H94707   6.081   7.197   9.254  1.0633  1.2922 -0.6779
  702MOL0     H94708   6.099   7.248   9.415  2.7932  1.2852 -0.6811
  702MOL0     H94709   6.124   7.494   9.346  1.5258  4.3861 -3.4118
  702MOL0     H94710   6.087   7.436   9.187 -2.7356 -0.5464  0.9190
  702MOL0     H94711   6.298   7.298   9.179 -2.6248  0.8814 -0.5464
  702MOL0     H94712   6.338   7.460   9.216  1.1168 -1.1702 -1.2235
  702MOL0     H94713   6.362   7.409   9.460 -0.3357 -0.3754  0.0676
  702MOL0     H94714   6.316   7.246   9.435  2.1272 -1.3499  2.1813
  702MOL0     H94715   6.545   7.360   9.282 -0.4153  0.4835  0.7194
  702MOL0     H94716   6.577   7.279   9.437  0.5763 -0.1009 -1.0714
  702MOL0     H94717   6.442   7.131   9.210 -0.4177  0.9706  1.1610
  702MOL0     H94718   6.476   7.069   9.364  2.2873  0.5104  2.3998
  702MOL0     H94719   6.708   7.188   9.219  1.5125 -1.6428 -1.8831
  702MOL0     H94720   6.699   7.052   9.338  0.9168 -0.6070 -0.1693
  702MOL0     H94721   6.645   6.791   9.250  1.4147  1.6274  0.7818
  702MOL0     H94722   6.487   6.625   9.093  1.0531  0.4734  0.3473
  702MOL0     H94723   6.463   6.664   8.923 -2.3093  4.2823  1.1277
  702MOL0     H94724   6.749   6.643   9.034  0.5364 -2.4426  0.1461
  702MOL0     H94725   6.651   6.501   9.032  4.3420  0.0677  1.0670
  702MOL0     H94726   6.786   6.511   8.829  0.5298  1.5600 -4.0112
  702MOL0     H94727   6.705   6.655   8.776  0.2824 -0.6273  0.0519
  702MOL0     H94728   6.517   6.545   8.735  0.8344  0.4946 -1.3595
  702MOL0     H94729   6.545   6.411   8.851 -3.0206 -1.5302 -2.0290
  702MOL0     H94730   6.668   6.196   8.492 -0.7492 -1.1020  0.1310
  702MOL0     H94731   6.754   5.973   8.540  4.9648  2.1981 -1.6882
  702MOL0     H94732   6.844   5.541   8.765  1.1284 -2.3847 -0.1923
  702MOL0     H94733   6.966   5.389   8.923 -1.8642 -0.0209  0.1409
  702MOL0     H94734   7.375   5.538   9.038 -2.3899  1.4312  0.2752
  702MOL0     H94735   7.325   5.436   9.178 -0.6577  0.0085  0.4346
  702MOL0     H94736   7.393   5.324   8.910  3.5091 -3.8679 -0.4700
  702MOL0     H94737   7.515   5.355   9.031  0.2456  1.4910  1.4747
  702MOL0     H94738   7.473   5.135   9.103 -1.0408 -1.8292  1.7306
  702MOL0     H94739   7.304   5.179   9.160 -0.6139 -2.6558 -0.7926
  702MOL0     H94740   7.407   5.093   8.901  0.3164  0.4323  0.9802
  702MOL0     H94741   7.237   5.144   8.911 -1.0118 -2.0346 -0.2361
  702MOL0     H94742   7.289   4.939   9.116 -0.0874  0.2964  0.5201
  702MOL0     H94743   7.332   4.875   8.953 -2.0755 -0.6673 -0.1094
  702MOL0     H94744   7.109   4.896   8.878 -2.8960 -0.4938 -0.1438
  702MOL0     H94745   7.104   4.840   9.046 -1.2085 -0.8560 -2.1554
  702MOL0     H94746   7.019   5.116   8.956 -0.4167  2.1059  1.0410
  702MOL0     H94747   7.074   5.084   9.128 -1.4898  0.8352 -0.1192
  702MOL0     H94748   6.925   4.903   9.145 -3.2588  0.1869  0.4144
  702MOL0     H94749   6.845   5.048   9.111  0.7104  0.3760  0.2308
  702MOL0     H94750   7.283   5.683   8.951  0.1872 -0.7317 -2.2495
  702MOL0     H94751   7.142   5.842   8.838 -0.1444 -0.2360 -0.8199
  702MOL0     H94752   6.818   6.080   8.953  2.1204 -1.0038 -0.9710
  702MOL0     H94753   6.749   6.313   8.887 -0.4640 -0.9066  0.7914
  702MOL0     H94754   5.826   7.653   9.506  1.4622  3.4432 -3.3753
  702MOL0     H94755   5.651   7.801   9.445 -1.5673 -1.0914  0.0959
  702MOL0     H94756   5.477   8.009   8.923 -0.5068  1.3723  0.7814
  702MOL0     H94757   5.298   8.041   8.794  0.9618 -0.1702 -0.2224
  702MOL0     H94758   5.069   8.031   8.679 -3.1731 -1.8727  0.0757
  702MOL0     H94759   5.117   8.179   8.767  0.4878  0.1478 -0.1109
  702MOL0     H94760   4.900   8.268   8.756  1.6793  1.3434 -0.3671
  702MOL0     H94761   4.826   8.110   8.724  2.2895 -2.8403 -1.0940
  702MOL0     H94762   4.920   8.104   8.501 -0.5314  0.1855 -1.5431
  702MOL0     H94763   4.994   8.266   8.524 -0.3111 -0.9780 -3.0444
  702MOL0     H94764   4.701   8.200   8.539 -1.1310  1.8666  0.7174
  702MOL0     H94765   4.788   8.362   8.541  0.4734 -0.1945 -1.3968
  702MOL0     H94766   4.800   8.253   8.138 -0.1053  2.3020  0.0677
  702MOL0     H94767   5.040   7.953   9.127  0.4587 -1.6945 -0.4555
  702MOL0     H94768   5.274   7.932   9.350 -1.9211  5.6061 -2.4190
  702MOL0     H94769   5.116   7.879   9.327  1.1059  1.0746  2.8144
  702MOL0     H94770   5.227   7.754   9.300 -4.5034 -0.4827  1.0487
  703MOL0     O94771   9.602  10.779   0.975 -0.1221 -0.0441 -0.7387
  703MOL0     C94772   9.601  10.822   1.093 -0.6339  0.2039  0.1579
  703MOL0     O94773   9.588  10.743   1.209 -0.4165 -0.1964 -0.1196
  703MOL0     C94774   9.579  10.609   1.191  0.4160  0.7166 -0.2695
  703MOL0     C94775   9.684  10.512   1.209 -0.2600 -0.1819 -0.6643
  703MOL0     C94776   9.665  10.372   1.183  0.4226  0.4937  0.4866
  703MOL0     C94777   9.540  10.330   1.134 -0.0812  1.0304 -0.7058
  703MOL0     O94778   9.523  10.198   1.098  0.1777 -0.1209  0.1875
  703MOL0     C94779   9.393  10.149   1.077  0.9538  0.8205 -0.1668
  703MOL0     C94780   9.390   9.993   1.076  0.0127  0.2700 -0.5012
  703MOL0     C94781   9.406   9.935   1.215 -0.1287 -0.7032 -0.2679
  703MOL0     C94782   9.438   9.785   1.213  0.1275  0.3515  0.0888
  703MOL0     C94783   9.323   9.689   1.168  0.2561  0.5303  0.0529
  703MOL0     C94784   9.376   9.590   1.061  0.2182  0.2811 -0.3451
  703MOL0     C94785   9.272   9.476   1.038  0.1074 -0.2802  0.7423
  703MOL0     C94786   9.261   9.364   1.147 -1.0337  0.2126  0.2995
  703MOL0     N94787   9.136   9.290   1.126  0.2536  0.7018  0.1907
  703MOL0     C94788   9.102   9.201   1.026 -0.4241 -0.1978 -0.0428
  703MOL0     C94789   8.969   9.188   1.024  1.5964  0.1328  0.8399
  703MOL0     C94790   8.891   9.096   0.933 -0.3445 -0.4049  1.0083
  703MOL0     C94791   8.892   8.951   0.986 -0.3876 -0.0713 -0.3760
  703MOL0     C94792   9.017   8.864   0.959  0.1206  0.4440  0.7472
  703MOL0     C94793   8.999   8.730   1.034 -0.4221 -0.5814  0.0564
  703MOL0     O94794   8.894   8.643   0.992  0.3275 -0.4124 -0.0666
  703MOL0     C94795   8.873   8.536   1.076  1.4592 -0.6002  1.2994
  703MOL0     C94796   8.970   8.447   1.091 -0.0280 -0.0704 -0.3313
  703MOL0     C94797   8.962   8.345   1.189 -0.6744  0.4380 -0.1991
  703MOL0     C94798   8.845   8.340   1.259 -0.5925 -0.1940 -0.5262
  703MOL0     C94799   8.821   8.252   1.371  0.9417  0.7306  0.1286
  703MOL0     O94800   8.862   8.119   1.354  0.3419  0.1597  0.1520
  703MOL0     C94801   8.843   8.024   1.458 -0.9132 -0.8156  0.3996
  703MOL0     C94802   8.753   8.032   1.564  0.2605 -0.1837  0.1903
  703MOL0     C94803   8.752   7.939   1.666  0.4545 -0.3175  0.3191
  703MOL0     C94804   8.847   7.836   1.679  0.2832  0.7117  0.3689
  703MOL0     O94805   8.826   7.747   1.777 -0.4682  0.2191  0.4448
  703MOL0     C94806   8.901   7.622   1.764  0.3599 -0.0032  0.5312
  703MOL0     C94807   8.833   7.523   1.862 -0.0932  0.5796 -1.4334
  703MOL0     C94808   8.693   7.471   1.802  0.4791  0.6530 -1.7796
  703MOL0     C94809   8.708   7.355   1.696 -0.0889  0.0046  0.0333
  703MOL0     C94810   8.609   7.362   1.583  1.4429 -1.4924 -0.5960
  703MOL0     C94811   8.608   7.235   1.488  0.2830 -0.2764  0.0102
  703MOL0     C94812   8.506   7.238   1.374  0.7804  0.6367  0.5418
  703MOL0     C94813   8.501   7.379   1.311  0.3076 -0.8695 -0.1690
  703MOL0    Cl94814   8.401   7.388   1.163 -0.6434 -0.5195 -0.3666
  703MOL0     C94815   8.939   7.820   1.572 -0.1772 -0.1554  0.0845
  703MOL0     C94816   8.935   7.916   1.465  0.3052 -0.3961 -0.3365
  703MOL0     O94817   8.755   8.297   1.465 -0.8055 -0.3743 -0.3094
  703MOL0     C94818   8.738   8.427   1.242 -0.0015  0.5617 -0.5462
  703MOL0     C94819   8.754   8.526   1.147  0.3231  0.1025 -0.3782
  703MOL0     N94820   8.919   9.276   1.116  0.1875 -0.3100  0.1526
  703MOL0     N94821   9.020   9.341   1.171 -0.6275 -0.0065  0.0682
  703MOL0     C94822   9.438  10.427   1.114  0.1037 -0.0418 -0.3997
  703MOL0     C94823   9.452  10.559   1.151  0.3185 -0.2931  0.1304
  703MOL0     C94824   9.600  10.969   1.109 -0.5037  0.3088 -0.3743
  703MOL0     C94825   9.582  11.018   1.247  0.7289 -1.0466 -0.1775
  703MOL0     C94826   9.589  11.162   1.277  0.3669 -0.7792  0.4959
  703MOL0     C94827   9.609  11.251   1.167 -0.4333  0.7316 -0.6430
  703MOL0     O94828   9.621  11.384   1.201  1.1907 -0.0785 -0.1367
  703MOL0     C94829   9.636  11.490   1.104 -0.0129 -0.3855  0.7485
  703MOL0     C94830   9.676  11.627   1.161 -0.1689  1.0036  0.9471
  703MOL0     C94831   9.798  11.611   1.245  1.2818 -0.2166 -0.8052
  703MOL0     C94832   9.787  11.705   1.374  0.2760 -0.6231  0.0442
  703MOL0     C94833   9.918  11.737   1.435 -0.8609  0.1086 -0.6754
  703MOL0     C94834  10.019  11.778   1.479 -0.1665  0.0542  0.1856
  703MOL0     C94835   9.620  11.203   1.041  0.1329 -0.1698  0.4941
  703MOL0     C94836   9.608  11.065   1.007 -0.3952  0.1892  0.3770
  703MOL0     C94837   9.644  11.026   0.863  0.0046 -0.2884  0.5254
  703MOL0     H94838   9.782  10.548   1.235  0.3268  0.3744 -3.3240
  703MOL0     H94839   9.743  10.300   1.202 -1.6175 -1.9468  0.1116
  703MOL0     H94840   9.322  10.188   1.150  2.7845 -0.4711  2.4928
  703MOL0     H94841   9.359  10.180   0.978 -1.6770  0.8063  0.6544
  703MOL0     H94842   9.467   9.947   1.014 -1.1594 -3.2789  0.4668
  703MOL0     H94843   9.290   9.967   1.040 -3.1624  5.7795  2.8498
  703MOL0     H94844   9.323   9.965   1.278  0.2227  1.4746 -0.7613
  703MOL0     H94845   9.498   9.980   1.254 -0.2956  0.3494 -1.0509
  703MOL0     H94846   9.532   9.759   1.163  0.2898 -1.4446  1.2155
  703MOL0     H94847   9.454   9.762   1.319 -0.6021 -1.5443 -0.1723
  703MOL0     H94848   9.286   9.631   1.253 -1.5536 -0.8958 -1.6278
  703MOL0     H94849   9.232   9.734   1.128  2.0738  2.7295 -1.8766
  703MOL0     H94850   9.386   9.641   0.965 -0.0401 -0.2945 -0.6862
  703MOL0     H94851   9.470   9.542   1.091  1.1434  2.4433  0.3974
  703MOL0     H94852   9.299   9.425   0.945 -2.3944  0.4049 -0.4464
  703MOL0     H94853   9.178   9.531   1.027 -1.6951 -3.3208 -0.0996
  703MOL0     H94854   9.350   9.301   1.149  1.6133  3.5168 -2.1300
  703MOL0     H94855   9.249   9.407   1.247 -2.1178 -1.4182  0.9104
  703MOL0     H94856   9.165   9.135   0.968 -0.9657 -0.4608 -0.3334
  703MOL0     H94857   8.788   9.130   0.917 -0.1653 -0.5096 -0.5340
  703MOL0     H94858   8.931   9.101   0.831 -2.8987  1.4448 -0.0232
  703MOL0     H94859   8.883   8.953   1.095 -1.0895 -0.3411 -0.4184
  703MOL0     H94860   8.800   8.903   0.950 -0.9982  2.9870 -3.4668
  703MOL0     H94861   9.106   8.917   0.994  1.4836 -1.2134 -0.1273
  703MOL0     H94862   9.026   8.842   0.852 -1.9016  2.1093  0.1463
  703MOL0     H94863   8.970   8.740   1.139 -0.5371 -2.9734  0.3098
  703MOL0     H94864   9.102   8.694   1.028  0.1272  1.0628 -1.5908
  703MOL0     H94865   9.067   8.467   1.045  0.8031  0.7589  1.6535
  703MOL0     H94866   9.047   8.279   1.203  1.5509  3.0606 -0.3761
  703MOL0     H94867   8.682   8.114   1.571 -1.3968 -1.4857 -0.7230
  703MOL0     H94868   8.671   7.949   1.738 -1.5038 -0.3517 -1.7480
  703MOL0     H94869   8.894   7.587   1.661  2.2617  1.3425 -0.1208
  703MOL0     H94870   9.007   7.630   1.790  0.5394 -1.1416  0.1768
  703MOL0     H94871   8.904   7.440   1.864 -1.0907 -0.3237 -2.4720
  703MOL0     H94872   8.839   7.568   1.962 -0.0009  0.7519 -1.5153
  703MOL0     H94873   8.642   7.428   1.889  1.9887 -2.0327 -2.1121
  703MOL0     H94874   8.636   7.554   1.759 -1.0549 -0.1252 -1.3398
  703MOL0     H94875   8.698   7.257   1.743 -1.7188 -1.2499 -2.6955
  703MOL0     H94876   8.808   7.363   1.652  0.9329 -0.2985  2.1209
  703MOL0     H94877   8.642   7.452   1.530 -0.8125  1.0490  1.9946
  703MOL0     H94878   8.506   7.370   1.617  2.0547  3.0818  0.8563
  703MOL0     H94879   8.710   7.233   1.448 -0.4286  0.4664 -1.9631
  703MOL0     H94880   8.595   7.146   1.549  0.0047  1.3769  2.4799
  703MOL0     H94881   8.415   7.194   1.415  2.6334 -0.6057  3.7520
  703MOL0     H94882   8.534   7.157   1.306  1.3388  1.2620  0.0033
  703MOL0     H94883   8.469   7.460   1.377  1.1989  0.4039 -1.2430
  703MOL0     H94884   8.592   7.423   1.269 -0.4964  0.6274 -0.4059
  703MOL0     H94885   9.005   7.735   1.557  0.0063  0.2184 -1.5082
  703MOL0     H94886   8.980   7.894   1.369 -1.1403 -1.5426 -0.7864
  703MOL0     H94887   8.644   8.418   1.297  0.1893  0.6148 -0.2102
  703MOL0     H94888   8.666   8.589   1.137 -0.1435 -0.0374  2.2263
  703MOL0     H94889   9.343  10.404   1.066  0.4074  1.2854 -1.7060
  703MOL0     H94890   9.371  10.630   1.133  0.6821  0.1134  0.0798
  703MOL0     H94891   9.557  10.948   1.326  1.3215 -0.1760  0.8066
  703MOL0     H94892   9.575  11.202   1.377 -3.1152  0.8341 -0.4718
  703MOL0     H94893   9.551  11.500   1.036  0.8782  1.7122 -0.1542
  703MOL0     H94894   9.711  11.444   1.040 -0.9524  0.7549 -1.2673
  703MOL0     H94895   9.601  11.676   1.224 -2.9985 -2.6478  0.7464
  703MOL0     H94896   9.697  11.694   1.078  0.3330 -0.1459  0.1154
  703MOL0     H94897   9.882  11.632   1.179  0.2571 -1.6310 -2.6472
  703MOL0     H94898   9.810  11.508   1.281  0.2827  0.4099  1.5472
  703MOL0     H94899   9.740  11.800   1.345 -0.9148 -0.5889  1.9568
  703MOL0     H94900   9.720  11.660   1.448 -0.8444  0.3490 -0.3575
  703MOL0     H94901  10.112  11.813   1.518 -1.1023  0.3550  2.3296
  703MOL0     H94902   9.641  11.268   0.957  1.0014 -1.6300 -0.4660
  703MOL0     H94903   9.565  10.979   0.804 -0.2396  0.9057 -0.1368
  703MOL0     H94904   9.689  11.117   0.820  0.6019  0.7282  3.0631
  703MOL0     H94905   9.733  10.963   0.858  2.0372  2.4780 -2.0982
  704MOL0     O94906   7.078   0.196   4.773  0.9329  0.4857  0.3356
  704MOL0     C94907   7.120   0.194   4.660 -1.2440 -0.7982 -0.0576
  704MOL0     O94908   7.248   0.159   4.624  0.2935 -0.6937  0.2545
  704MOL0     C94909   7.334   0.087   4.717  0.0445 -0.0189  0.6514
  704MOL0     C94910   7.317  -0.049   4.741 -0.3440  0.6153  0.2234
  704MOL0     C94911   7.408  -0.112   4.829  0.7645  0.2428 -0.3986
  704MOL0     C94912   7.527  -0.051   4.861  0.8078 -0.0796  0.8041
  704MOL0     O94913   7.624  -0.114   4.935 -0.1433 -0.5241  0.1813
  704MOL0     C94914   7.636  -0.085   5.077  1.2196 -0.2941 -0.4699
  704MOL0     C94915   7.623  -0.218   5.149  0.0225 -0.1919 -0.5298
  704MOL0     C94916   7.482  -0.284   5.142  0.1942  0.2191  0.0398
  704MOL0     C94917   7.486  -0.402   5.246 -1.2849  0.0257  1.1339
  704MOL0     C94918   7.350  -0.462   5.264 -0.5158  0.6555  0.9133
  704MOL0     C94919   7.350  -0.578   5.357  0.6377 -0.5354 -0.2714
  704MOL0     C94920   7.213  -0.638   5.355  1.0946 -0.3292 -0.6324
  704MOL0     C94921   7.179  -0.718   5.472  0.6301  0.5600 -0.8006
  704MOL0     N94922   7.286  -0.823   5.486 -0.0301  0.2941  0.0831
  704MOL0     C94923   7.329  -0.919   5.398  0.3033 -0.3976 -0.6083
  704MOL0     C94924   7.443  -0.952   5.457 -0.8431  0.3394 -0.5479
  704MOL0     C94925   7.563  -1.031   5.401 -0.4553 -0.1624  1.5068
  704MOL0     C94926   7.575  -1.181   5.436  0.4894 -0.3811  0.0321
  704MOL0     C94927   7.694  -1.251   5.347  0.1293 -0.6134  0.0884
  704MOL0     C94928   7.834  -1.243   5.411 -0.7622 -0.1371  0.3964
  704MOL0     O94929   7.921  -1.294   5.303 -0.1313 -0.0410 -1.0818
  704MOL0     C94930   8.042  -1.237   5.308  0.1130 -0.3666  0.6210
  704MOL0     C94931   8.106  -1.186   5.417  0.3412  0.1233 -0.2425
  704MOL0     C94932   8.227  -1.125   5.397  0.2766 -0.5537 -0.2273
  704MOL0     C94933   8.282  -1.104   5.273  0.0882 -0.2464 -0.8375
  704MOL0     C94934   8.417  -1.037   5.268 -0.2127  0.3553  0.1374
  704MOL0     O94935   8.491  -1.072   5.159 -0.4707  0.2581 -0.4933
  704MOL0     C94936   8.613  -1.010   5.148 -0.5694  0.3538  0.5734
  704MOL0     C94937   8.690  -1.073   5.053 -0.4033  1.4878  0.0908
  704MOL0     C94938   8.807  -1.019   5.007  0.0982  0.6162  0.1019
  704MOL0     C94939   8.837  -0.895   5.048 -0.2316  0.0196 -0.2282
  704MOL0     O94940   8.956  -0.859   4.986  0.6420 -0.1680  0.6156
  704MOL0     C94941   9.048  -0.781   5.063 -0.5196 -0.1052  0.2331
  704MOL0     C94942   9.186  -0.765   5.012  0.7914 -0.5155  0.2598
  704MOL0     C94943   9.268  -0.898   5.025 -0.5327 -1.0306  0.3418
  704MOL0     C94944   9.403  -0.886   4.945 -0.2510  0.5045  0.9308
  704MOL0     C94945   9.493  -1.016   4.963  0.7038  0.2648 -0.1795
  704MOL0     C94946   9.548  -1.021   5.113  0.1029 -0.4025 -0.0872
  704MOL0     C94947   9.632  -1.152   5.136  0.7067 -0.0847  0.0658
  704MOL0     C94948   9.675  -1.164   5.281  0.9251  0.1853 -0.5768
  704MOL0    Cl94949   9.738  -1.013   5.352 -0.1978 -0.0211 -0.1597
  704MOL0     C94950   8.766  -0.823   5.136  0.2166 -0.5893 -0.9038
  704MOL0     C94951   8.653  -0.885   5.187  0.1364 -0.7475 -0.5921
  704MOL0     O94952   8.452  -0.977   5.371  0.2281  0.7511 -0.0899
  704MOL0     C94953   8.214  -1.154   5.161  0.4828  0.4843 -0.1579
  704MOL0     C94954   8.100  -1.229   5.181  0.1716 -0.6140  0.2382
  704MOL0     N94955   7.456  -0.902   5.581  0.2708  0.1093  0.1315
  704MOL0     N94956   7.361  -0.824   5.599  0.5534 -1.0422 -0.5896
  704MOL0     C94957   7.538   0.083   4.835 -0.0820  0.5474  0.4444
  704MOL0     C94958   7.439   0.154   4.760  0.4855  0.3326  1.3072
  704MOL0     C94959   7.042   0.237   4.551  0.5847  0.3574 -0.5470
  704MOL0     C94960   7.091   0.228   4.421 -0.1079  0.4418  0.8717
  704MOL0     C94961   7.009   0.247   4.309 -0.1518 -0.4507  0.0656
  704MOL0     C94962   6.883   0.297   4.332  0.3515 -0.8870  0.1204
  704MOL0     O94963   6.810   0.315   4.213 -0.0416 -0.2869 -0.4793
  704MOL0     C94964   6.667   0.323   4.221  0.3925 -1.0962  1.1992
  704MOL0     C94965   6.616   0.475   4.241  0.6159  0.0515  0.0035
  704MOL0     C94966   6.475   0.491   4.285  0.6550 -0.1276  0.1600
  704MOL0     C94967   6.381   0.459   4.158 -0.3339  0.7519  0.1137
  704MOL0     C94968   6.246   0.439   4.196  0.0299  0.5054  0.0721
  704MOL0     C94969   6.126   0.411   4.224  0.6434 -0.7066 -0.5497
  704MOL0     C94970   6.834   0.310   4.461  0.8768 -0.1092  1.1743
  704MOL0     C94971   6.908   0.276   4.570  0.8746  0.5156 -0.5788
  704MOL0     C94972   6.829   0.265   4.702  1.4518  0.1742  0.7962
  704MOL0     H94973   7.231  -0.098   4.697  0.2720 -0.7353  0.4656
  704MOL0     H94974   7.399  -0.215   4.861  4.1126  0.4504  1.6706
  704MOL0     H94975   7.733  -0.043   5.105  0.5136 -0.7167  3.0326
  704MOL0     H94976   7.568  -0.008   5.113  1.4286 -1.0365  1.6764
  704MOL0     H94977   7.644  -0.204   5.255  1.1334 -1.2363 -0.5870
  704MOL0     H94978   7.709  -0.281   5.124  0.8526 -0.0637  1.7458
  704MOL0     H94979   7.451  -0.319   5.043  0.6195 -0.3756  0.1083
  704MOL0     H94980   7.410  -0.208   5.173 -0.7124 -0.5650 -0.0845
  704MOL0     H94981   7.544  -0.485   5.204 -0.5708  0.8700  0.4009
  704MOL0     H94982   7.516  -0.348   5.336 -2.3342  1.3738  0.7056
  704MOL0     H94983   7.275  -0.384   5.280 -1.7151  0.2982 -2.3793
  704MOL0     H94984   7.321  -0.503   5.167 -2.2611  0.2671  1.5631
  704MOL0     H94985   7.424  -0.649   5.318  1.4571  1.7776 -3.2982
  704MOL0     H94986   7.379  -0.553   5.459  0.7495 -3.2681  0.4469
  704MOL0     H94987   7.186  -0.704   5.272 -0.0490 -0.3100 -0.2935
  704MOL0     H94988   7.134  -0.563   5.355  0.9408 -0.4599  0.7927
  704MOL0     H94989   7.173  -0.653   5.560 -2.5815 -2.1608  1.2510
  704MOL0     H94990   7.080  -0.764   5.464  0.7078 -0.9150  3.5682
  704MOL0     H94991   7.304  -0.941   5.294  3.1593  0.9703 -1.6986
  704MOL0     H94992   7.574  -1.029   5.292  0.1528 -0.1666  1.5643
  704MOL0     H94993   7.650  -0.986   5.449 -0.3234 -0.1687  1.2762
  704MOL0     H94994   7.600  -1.203   5.540 -0.1453 -2.9182 -0.2937
  704MOL0     H94995   7.490  -1.247   5.419 -2.3610  2.8729  0.4733
  704MOL0     H94996   7.701  -1.209   5.247  0.0945 -3.1312 -1.0383
  704MOL0     H94997   7.682  -1.360   5.341  1.6740 -0.7802 -0.4794
  704MOL0     H94998   7.843  -1.299   5.505 -0.6066  0.6944  0.8826
  704MOL0     H94999   7.862  -1.139   5.432  1.3792 -0.2225 -1.5389
  704MOL0     H95000   8.069  -1.193   5.518  2.0587  0.0528  0.4215
  704MOL0     H95001   8.278  -1.094   5.488  3.3051 -0.1064 -1.9344
  704MOL0     H95002   8.658  -1.170   5.017  0.7396  0.0294  2.7256
  704MOL0     H95003   8.874  -1.083   4.950 -0.8480 -1.0299  0.7582
  704MOL0     H95004   9.003  -0.684   5.086 -0.5597 -0.4950  1.9289
  704MOL0     H95005   9.071  -0.828   5.160  0.1396  1.6852  0.9827
  704MOL0     H95006   9.188  -0.745   4.904  2.6046  1.1618  0.5520
  704MOL0     H95007   9.233  -0.672   5.046 -1.5958  1.5164 -1.5830
  704MOL0     H95008   9.274  -0.921   5.131 -1.1566  1.6400  1.0326
  704MOL0     H95009   9.211  -0.984   4.989  2.3516 -2.9303  0.0026
  704MOL0     H95010   9.460  -0.798   4.976 -1.0553  1.4840 -0.2880
  704MOL0     H95011   9.366  -0.883   4.843 -1.1183  0.6027  1.2393
  704MOL0     H95012   9.584  -1.002   4.904  0.0041  3.0339 -0.7388
  704MOL0     H95013   9.426  -1.096   4.929  1.6880 -0.0481 -1.4397
  704MOL0     H95014   9.619  -0.938   5.121  1.3446 -1.0190 -3.3947
  704MOL0     H95015   9.466  -0.999   5.182  1.0993  0.8764  0.7398
  704MOL0     H95016   9.718  -1.141   5.069  2.0632  4.2417  2.1395
  704MOL0     H95017   9.573  -1.242   5.115 -1.1804  0.5701  2.1646
  704MOL0     H95018   9.590  -1.207   5.335 -0.0408 -0.1533 -2.3312
  704MOL0     H95019   9.749  -1.244   5.292 -1.4235 -1.7799  3.5935
  704MOL0     H95020   8.797  -0.728   5.180 -3.1736 -0.2545  1.1377
  704MOL0     H95021   8.590  -0.827   5.254  0.0138 -1.7016  0.1446
  704MOL0     H95022   8.261  -1.135   5.065  0.9159  2.7541  0.4447
  704MOL0     H95023   8.058  -1.278   5.094 -1.8912  3.0444 -1.0823
  704MOL0     H95024   7.622   0.136   4.878  0.7787 -1.8853  1.9646
  704MOL0     H95025   7.446   0.257   4.726  0.5379 -0.2814 -0.6924
  704MOL0     H95026   7.187   0.184   4.394  1.2788  4.7572 -2.3095
  704MOL0     H95027   7.039   0.243   4.204 -0.1992 -1.7482  0.0851
  704MOL0     H95028   6.624   0.258   4.299  0.5166 -0.8253  1.4948
  704MOL0     H95029   6.639   0.277   4.126  2.2727 -2.2257  1.1427
  704MOL0     H95030   6.638   0.541   4.157  1.0331 -0.1778 -0.0689
  704MOL0     H95031   6.686   0.504   4.320  1.0121  1.2915 -0.7737
  704MOL0     H95032   6.462   0.595   4.317  1.0601 -0.4746  1.5244
  704MOL0     H95033   6.461   0.426   4.372  2.3556 -0.0114  0.5549
  704MOL0     H95034   6.398   0.524   4.072  1.7740 -2.9537 -2.6046
  704MOL0     H95035   6.392   0.353   4.133 -0.5973  0.3919  1.4510
  704MOL0     H95036   6.024   0.393   4.249  1.3630  0.7052  4.4359
  704MOL0     H95037   6.732   0.343   4.473  1.0754  0.6065  0.9615
  704MOL0     H95038   6.728   0.296   4.672  1.6132  0.9311  1.0204
  704MOL0     H95039   6.834   0.165   4.744  2.9012  0.0207  0.2904
  704MOL0     H95040   6.865   0.333   4.779  1.2110  1.5129 -0.2281
  705MOL0     O95041   5.444   0.634   3.276 -0.5011  0.7911  0.2762
  705MOL0     C95042   5.462   0.616   3.392  0.0732  0.1744  0.1200
  705MOL0     O95043   5.582   0.627   3.451 -0.2304 -0.1796  0.2446
  705MOL0     C95044   5.694   0.619   3.367  0.8015  0.0888  0.4406
  705MOL0     C95045   5.793   0.709   3.378 -0.8863 -0.9984 -0.9504
  705MOL0     C95046   5.914   0.701   3.303  0.8738 -0.4917  0.4443
  705MOL0     C95047   5.923   0.599   3.210  0.1148  0.0679 -0.3759
  705MOL0     O95048   6.038   0.606   3.144  0.4737  0.5903  0.4022
  705MOL0     C95049   6.071   0.505   3.053 -0.9969  0.5432 -0.6627
  705MOL0     C95050   6.220   0.516   3.016 -0.4294  0.0413  0.1446
  705MOL0     C95051   6.251   0.427   2.893  1.0679 -0.4324 -0.0924
  705MOL0     C95052   6.393   0.433   2.856 -0.3633  0.6101 -0.7004
  705MOL0     C95053   6.401   0.375   2.704  0.0157 -0.5192 -0.0604
  705MOL0     C95054   6.541   0.343   2.654 -0.5660  1.2642 -0.1595
  705MOL0     C95055   6.606   0.237   2.743  0.1837  0.2823  0.1601
  705MOL0     C95056   6.757   0.252   2.734  0.0944  0.1309  0.2004
  705MOL0     N95057   6.827   0.199   2.614  0.4386 -0.0024 -0.3430
  705MOL0     C95058   6.828   0.076   2.560 -0.3752 -0.3050  0.1374
  705MOL0     C95059   6.904   0.081   2.448  0.6126  0.4559  0.1280
  705MOL0     C95060   6.933  -0.034   2.344 -0.3551 -0.4044 -0.5914
  705MOL0     C95061   6.804  -0.109   2.321 -0.1694  0.1637 -0.1073
  705MOL0     C95062   6.710  -0.039   2.227 -0.2942  0.1606  0.5316
  705MOL0     C95063   6.770  -0.009   2.085  0.6207 -0.2411 -0.3371
  705MOL0     O95064   6.815  -0.131   2.021 -0.6026  0.3034 -0.1057
  705MOL0     C95065   6.750  -0.184   1.909  0.4009  0.2083 -0.2635
  705MOL0     C95066   6.606  -0.195   1.903  0.0136  0.2147 -0.3750
  705MOL0     C95067   6.543  -0.245   1.795  0.1318  0.0429 -0.7036
  705MOL0     C95068   6.622  -0.284   1.683  0.3826 -0.0435  0.3037
  705MOL0     C95069   6.564  -0.349   1.566 -0.4489  0.9879 -0.1691
  705MOL0     O95070   6.427  -0.324   1.542  0.7348 -0.0127 -0.7712
  705MOL0     C95071   6.349  -0.403   1.462  1.0679  0.1083  0.5720
  705MOL0     C95072   6.389  -0.437   1.339  0.2604 -0.3814 -0.0699
  705MOL0     C95073   6.304  -0.508   1.261 -0.4294  0.0551  0.7150
  705MOL0     C95074   6.178  -0.558   1.308  0.0210 -0.2871 -0.0206
  705MOL0     O95075   6.092  -0.627   1.228 -0.1808 -0.5873 -0.4703
  705MOL0     C95076   6.140  -0.676   1.106 -0.3800 -0.1101 -0.0056
  705MOL0     C95077   6.047  -0.792   1.073  0.2620  0.5208  0.8397
  705MOL0     C95078   6.055  -0.920   1.158 -0.4434  0.1941  0.0400
  705MOL0     C95079   5.962  -0.920   1.281 -0.0892  0.4447  0.0792
  705MOL0     C95080   6.015  -0.977   1.417  0.1315 -0.3308 -0.4290
  705MOL0     C95081   6.105  -0.868   1.486 -0.7246  0.5393  0.0491
  705MOL0     C95082   6.191  -0.921   1.602  0.1862 -0.1874  1.0421
  705MOL0     C95083   6.255  -0.808   1.674  0.2736 -0.3677  0.2024
  705MOL0    Cl95084   6.145  -0.763   1.801 -0.0576  0.1521 -0.7965
  705MOL0     C95085   6.139  -0.516   1.433  0.7340  1.2188 -0.4835
  705MOL0     C95086   6.226  -0.443   1.510  0.5955 -0.0146 -0.4655
  705MOL0     O95087   6.639  -0.416   1.489  0.4785  0.0873 -0.1232
  705MOL0     C95088   6.766  -0.284   1.693  0.3117  0.7764  0.4700
  705MOL0     C95089   6.831  -0.247   1.811 -0.0657  0.7028 -0.0690
  705MOL0     N95090   6.952   0.212   2.440 -0.5916  0.2545  0.2806
  705MOL0     N95091   6.901   0.285   2.538  0.6628  0.1191 -0.5079
  705MOL0     C95092   5.820   0.505   3.190 -0.6103  0.2239  0.3397
  705MOL0     C95093   5.710   0.510   3.270 -0.2919 -0.1599 -0.5584
  705MOL0     C95094   5.344   0.582   3.475  0.0793  0.2073  0.2731
  705MOL0     C95095   5.360   0.601   3.618 -1.0978  0.3692  0.7229
  705MOL0     C95096   5.251   0.597   3.709 -0.7178  1.0944  0.9130
  705MOL0     C95097   5.119   0.575   3.651 -0.2067  0.1665 -0.2936
  705MOL0     O95098   5.000   0.584   3.725  0.6235 -0.1432 -0.4802
  705MOL0     C95099   5.015   0.647   3.860 -0.0619 -0.4482  0.6493
  705MOL0     C95100   4.891   0.687   3.935 -0.8066  0.4281  0.3897
  705MOL0     C95101   4.811   0.800   3.857 -0.1576 -0.1975 -0.6180
  705MOL0     C95102   4.664   0.798   3.887  0.7328  0.7840 -0.2112
  705MOL0     C95103   4.593   0.928   3.871 -0.0916  0.8856  1.1653
  705MOL0     C95104   4.526   1.029   3.852  0.7081  0.6012 -0.2290
  705MOL0     C95105   5.103   0.549   3.520  0.0043 -0.4202  0.1021
  705MOL0     C95106   5.211   0.549   3.431  0.0586  0.3315 -0.5252
  705MOL0     C95107   5.179   0.520   3.294  0.0737 -0.4764  0.1595
  705MOL0     H95108   5.782   0.783   3.457  0.4722 -1.8630  0.0781
  705MOL0     H95109   6.000   0.767   3.315 -0.9993  1.8604  1.8524
  705MOL0     H95110   6.057   0.404   3.094 -2.8610  0.8560 -0.4641
  705MOL0     H95111   6.011   0.507   2.962  0.9446 -1.4224 -2.1003
  705MOL0     H95112   6.274   0.481   3.104 -1.4075 -2.2156 -0.0789
  705MOL0     H95113   6.247   0.621   3.004  1.1895  0.0283  2.8032
  705MOL0     H95114   6.197   0.462   2.805  2.3859 -1.0839 -1.2006
  705MOL0     H95115   6.225   0.324   2.921  1.1485  0.1113  2.1220
  705MOL0     H95116   6.437   0.533   2.860  0.0916  0.3683  2.1780
  705MOL0     H95117   6.432   0.365   2.933  0.2271  0.2474 -1.3087
  705MOL0     H95118   6.340   0.285   2.697 -2.4468  1.1107 -0.9074
  705MOL0     H95119   6.357   0.450   2.638  1.3928  1.3407  1.0112
  705MOL0     H95120   6.547   0.312   2.549  0.9686 -1.1522  0.5491
  705MOL0     H95121   6.600   0.433   2.675  2.6824 -0.8524  0.5173
  705MOL0     H95122   6.566   0.143   2.704 -2.9546  2.3120 -1.9634
  705MOL0     H95123   6.575   0.251   2.847 -2.0665  0.0346 -0.4356
  705MOL0     H95124   6.779   0.359   2.729 -1.2831  0.3787 -3.3140
  705MOL0     H95125   6.803   0.211   2.825 -1.7055  0.0163  1.1078
  705MOL0     H95126   6.774  -0.008   2.603  3.0414 -1.9679  1.5713
  705MOL0     H95127   6.968   0.017   2.254 -0.4650  1.1886  0.2256
  705MOL0     H95128   7.019  -0.090   2.383  2.9209  5.8192  2.7281
  705MOL0     H95129   6.813  -0.208   2.274 -1.0088  0.0251 -0.0081
  705MOL0     H95130   6.749  -0.135   2.412 -0.3410 -1.6423 -0.6837
  705MOL0     H95131   6.689   0.059   2.270  3.1196  0.4648  1.7400
  705MOL0     H95132   6.621  -0.101   2.210  1.3604 -1.5643 -2.9981
  705MOL0     H95133   6.863   0.046   2.094  1.3976 -0.9067 -3.1885
  705MOL0     H95134   6.700   0.049   2.023  0.6362 -0.4241 -0.5264
  705MOL0     H95135   6.552  -0.158   1.990 -1.1406  1.5974 -1.6231
  705MOL0     H95136   6.435  -0.246   1.797 -0.3288  6.0064 -2.1582
  705MOL0     H95137   6.489  -0.424   1.298 -0.8979 -1.3069 -3.4605
  705MOL0     H95138   6.349  -0.536   1.167  2.1748 -6.0690  3.2431
  705MOL0     H95139   6.147  -0.596   1.032 -0.7436  1.0628  1.1937
  705MOL0     H95140   6.242  -0.716   1.115 -0.0457 -0.2059 -3.0976
  705MOL0     H95141   5.942  -0.765   1.059 -0.3242 -2.0141 -0.0970
  705MOL0     H95142   6.071  -0.826   0.972  1.7842  0.0609  1.3306
  705MOL0     H95143   6.028  -1.002   1.092  1.1511 -0.9603  0.7687
  705MOL0     H95144   6.157  -0.948   1.185 -1.0743 -1.2842  1.0198
  705MOL0     H95145   5.869  -0.962   1.243  0.7088  0.4207 -1.9435
  705MOL0     H95146   5.928  -0.816   1.291  1.9902  1.1198  0.5703
  705MOL0     H95147   6.069  -1.068   1.389 -0.3650 -0.2958 -1.5482
  705MOL0     H95148   5.932  -0.996   1.486  0.6113  1.6847  0.7845
  705MOL0     H95149   6.165  -0.835   1.401 -0.2692  0.6190  0.4007
  705MOL0     H95150   6.048  -0.782   1.521 -0.4343 -0.0632  2.1565
  705MOL0     H95151   6.261  -0.986   1.549 -3.3586 -1.6707 -2.3177
  705MOL0     H95152   6.134  -0.977   1.677  0.1212  0.9045  1.8389
  705MOL0     H95153   6.347  -0.840   1.724  0.4636 -0.9006 -0.4759
  705MOL0     H95154   6.286  -0.723   1.614  2.1040 -0.0378  1.5163
  705MOL0     H95155   6.037  -0.538   1.462  0.9719  1.7131  0.8393
  705MOL0     H95156   6.215  -0.405   1.611  0.4053  0.3394 -0.6171
  705MOL0     H95157   6.832  -0.318   1.614  2.5892 -1.4646  3.1537
  705MOL0     H95158   6.939  -0.257   1.809  0.1016  2.2798 -0.4758
  705MOL0     H95159   5.824   0.424   3.119 -1.9795 -0.4352  0.9825
  705MOL0     H95160   5.636   0.431   3.262 -0.3749 -0.0100 -1.2771
  705MOL0     H95161   5.453   0.638   3.659 -0.5201  1.6516 -1.5945
  705MOL0     H95162   5.268   0.587   3.815  1.3060  1.4711  0.6567
  705MOL0     H95163   5.063   0.742   3.839  1.3557 -1.2028  0.3883
  705MOL0     H95164   5.087   0.597   3.925  3.5507  4.2776  0.7767
  705MOL0     H95165   4.927   0.726   4.030 -0.2674  2.7926 -0.6947
  705MOL0     H95166   4.817   0.609   3.952 -0.9367  0.5001  0.1608
  705MOL0     H95167   4.817   0.784   3.749  0.3258 -1.7593 -0.3841
  705MOL0     H95168   4.853   0.900   3.874  0.9656 -0.5718 -1.0855
  705MOL0     H95169   4.628   0.725   3.815  2.3948  0.0599 -0.3654
  705MOL0     H95170   4.641   0.778   3.992  1.3342  0.8349 -0.0656
  705MOL0     H95171   4.465   1.116   3.847 -0.8649 -0.3429  1.3094
  705MOL0     H95172   5.004   0.528   3.482  0.2382  2.2183 -2.3333
  705MOL0     H95173   5.174   0.619   3.247 -2.5161 -0.7558 -0.3362
  705MOL0     H95174   5.267   0.464   3.259 -0.0087  0.3516 -1.4704
  705MOL0     H95175   5.087   0.468   3.267 -0.4510  0.6362 -0.2651
  706MOL0     O95176   3.592   0.810  10.024 -0.5202 -0.4900  0.1417
  706MOL0     C95177   3.704   0.778  10.045  0.2835  0.5798 -0.0697
  706MOL0     O95178   3.816   0.841   9.998 -0.3343  0.6852  0.3424
  706MOL0     C95179   3.810   0.923   9.891  0.3562  0.0480 -0.4323
  706MOL0     C95180   3.904   0.910   9.786 -0.2822  0.6898  0.2162
  706MOL0     C95181   3.898   0.997   9.670 -0.2297  0.4243 -0.2957
  706MOL0     C95182   3.816   1.109   9.673  0.1969  0.7730  0.1130
  706MOL0     O95183   3.817   1.202   9.567  0.3057  0.6537  0.0825
  706MOL0     C95184   3.858   1.163   9.435  0.4020 -0.1016  0.7081
  706MOL0     C95185   3.741   1.231   9.361 -0.3394  0.4621  0.2776
  706MOL0     C95186   3.612   1.148   9.366  0.9475 -0.3524 -0.1485
  706MOL0     C95187   3.620   1.016   9.286 -0.3739  0.0990 -1.0634
  706MOL0     C95188   3.560   0.899   9.383  0.5784 -0.3102 -0.2123
  706MOL0     C95189   3.406   0.918   9.402 -0.4484 -0.3021  0.9174
  706MOL0     C95190   3.338   0.800   9.470  0.3625 -0.0967 -0.8803
  706MOL0     C95191   3.323   0.676   9.372  0.4092 -0.2260 -0.0430
  706MOL0     N95192   3.230   0.697   9.253  0.1774  0.0289  0.7840
  706MOL0     C95193   3.263   0.696   9.116  0.6102 -0.6358 -0.0970
  706MOL0     C95194   3.144   0.717   9.051  0.2020  0.1284  0.0437
  706MOL0     C95195   3.133   0.730   8.894  0.4043 -0.2600 -0.6261
  706MOL0     C95196   3.071   0.867   8.866  0.4669  0.5316 -0.4877
  706MOL0     C95197   3.055   0.912   8.723 -0.5067  0.2289  0.2100
  706MOL0     C95198   3.175   0.887   8.635  0.2920 -0.2826 -0.1452
  706MOL0     O95199   3.156   0.775   8.561  0.5060 -0.0698 -0.1647
  706MOL0     C95200   3.259   0.696   8.521 -0.4141 -0.4057 -0.6516
  706MOL0     C95201   3.282   0.580   8.591  0.2513 -0.4070  0.4777
  706MOL0     C95202   3.356   0.472   8.532  0.9733 -0.3960  0.3778
  706MOL0     C95203   3.410   0.484   8.400 -0.8548 -0.1573  0.4872
  706MOL0     C95204   3.491   0.379   8.332 -0.9378  0.0700 -0.3668
  706MOL0     O95205   3.483   0.369   8.193  0.1285 -0.1780 -0.3112
  706MOL0     C95206   3.537   0.264   8.124 -0.1466  0.1786 -0.9883
  706MOL0     C95207   3.673   0.280   8.088 -0.3998  0.7137  0.3658
  706MOL0     C95208   3.738   0.178   8.006  0.4117  0.1372 -0.3737
  706MOL0     C95209   3.670   0.056   7.989  1.0140  1.0009 -0.7044
  706MOL0     O95210   3.720  -0.050   7.921  1.1951  0.9437  0.3131
  706MOL0     C95211   3.856  -0.089   7.937  0.2728 -0.1386  0.6712
  706MOL0     C95212   3.891  -0.214   7.852 -0.2948 -0.3349  0.1923
  706MOL0     C95213   4.040  -0.242   7.867 -0.4134  0.5387 -0.4212
  706MOL0     C95214   4.061  -0.378   7.815 -0.9336  0.2375  0.1350
  706MOL0     C95215   4.200  -0.428   7.844  0.7308  0.2536  0.0803
  706MOL0     C95216   4.240  -0.446   7.991  0.5597 -0.5005  0.0675
  706MOL0     C95217   4.353  -0.547   8.000 -0.1305 -0.2739  0.2716
  706MOL0     C95218   4.485  -0.461   8.042 -0.2073  0.1284 -0.4584
  706MOL0    Cl95219   4.569  -0.432   7.887 -0.6992 -0.2752 -0.3696
  706MOL0     C95220   3.531   0.050   8.015 -0.1266  1.3782 -0.0110
  706MOL0     C95221   3.460   0.149   8.084  0.2796  0.1357 -1.7313
  706MOL0     O95222   3.568   0.313   8.401  0.2162 -0.5429 -1.0001
  706MOL0     C95223   3.387   0.601   8.334 -0.6413 -1.2957  1.1851
  706MOL0     C95224   3.316   0.702   8.393  0.7250 -0.0869  0.0562
  706MOL0     N95225   3.047   0.736   9.147  0.4579  0.0402  0.0224
  706MOL0     N95226   3.096   0.717   9.267 -0.8361  0.1053 -0.9566
  706MOL0     C95227   3.726   1.125   9.777 -0.8395 -0.4202 -0.7507
  706MOL0     C95228   3.720   1.030   9.882  0.1682  0.8230 -0.2023
  706MOL0     C95229   3.721   0.653  10.129  0.0577  0.4019 -1.0859
  706MOL0     C95230   3.841   0.630  10.183  0.7447 -0.6049  0.0716
  706MOL0     C95231   3.877   0.527  10.266  0.5088  1.0281 -1.0959
  706MOL0     C95232   3.784   0.418  10.287 -0.0654 -0.2776 -0.3005
  706MOL0     O95233   3.795   0.311  10.368 -0.8878 -0.0692 -0.6182
  706MOL0     C95234   3.927   0.256  10.385  0.2387  0.6557  0.2562
  706MOL0     C95235   3.911   0.106  10.432 -0.2513  1.1726 -0.7061
  706MOL0     C95236   4.054   0.062  10.488 -1.1513  0.1132  0.4653
  706MOL0     C95237   4.081  -0.091  10.439 -0.3952  0.5141  0.1899
  706MOL0     C95238   4.182  -0.146  10.526  1.1526  0.2093  0.3897
  706MOL0     C95239   4.281  -0.174  10.599 -0.1569  0.4609  1.0097
  706MOL0     C95240   3.659   0.431  10.228  0.0677 -0.8622 -0.0742
  706MOL0     C95241   3.624   0.550  10.158 -1.6363 -0.3695 -0.5482
  706MOL0     C95242   3.483   0.556  10.101  0.0276  0.3205 -0.0030
  706MOL0     H95243   3.977   0.829   9.786  0.3507  1.2051  2.0484
  706MOL0     H95244   3.979   0.989   9.598  0.2050  0.2353  0.2111
  706MOL0     H95245   3.951   1.207   9.396 -1.2226  0.8115 -2.4691
  706MOL0     H95246   3.849   1.057   9.410  1.9091 -0.9306  3.2928
  706MOL0     H95247   3.774   1.249   9.259  0.1921 -0.2083  0.3178
  706MOL0     H95248   3.732   1.331   9.404  0.4946  0.4762  0.4308
  706MOL0     H95249   3.535   1.222   9.344  1.7955  1.4502  2.4612
  706MOL0     H95250   3.594   1.137   9.473  0.4529  2.0293  0.0657
  706MOL0     H95251   3.565   1.022   9.191  0.8723 -3.2703 -2.1559
  706MOL0     H95252   3.722   0.984   9.264 -0.4686 -1.9612  1.0825
  706MOL0     H95253   3.574   0.803   9.332  1.0728 -0.5251  0.3223
  706MOL0     H95254   3.625   0.885   9.469 -0.5555 -5.8280  0.0901
  706MOL0     H95255   3.388   1.009   9.459 -0.9904 -0.7275  1.4335
  706MOL0     H95256   3.367   0.932   9.301  0.3393 -1.2367  0.4690
  706MOL0     H95257   3.238   0.830   9.500  0.5352 -1.0645  0.8142
  706MOL0     H95258   3.385   0.783   9.567 -0.0212  2.7902 -0.0884
  706MOL0     H95259   3.418   0.629   9.342  1.2584  1.7772 -0.6492
  706MOL0     H95260   3.271   0.615   9.447 -0.0061  0.8572  0.5615
  706MOL0     H95261   3.359   0.683   9.067  0.1355  1.4517 -1.7040
  706MOL0     H95262   3.235   0.720   8.856  0.9845  0.0145  0.7878
  706MOL0     H95263   3.089   0.636   8.858  0.7393 -0.1969 -1.2061
  706MOL0     H95264   2.976   0.871   8.919  1.6338  0.2579  1.7475
  706MOL0     H95265   3.134   0.945   8.911  0.1468  2.6034 -3.4063
  706MOL0     H95266   3.026   1.017   8.707  1.8491  1.4757  3.1853
  706MOL0     H95267   2.973   0.849   8.688 -0.2515 -1.2862  2.2036
  706MOL0     H95268   3.267   0.877   8.695 -0.9971 -0.6561  1.8672
  706MOL0     H95269   3.181   0.972   8.566 -1.8123 -0.5009 -0.6413
  706MOL0     H95270   3.236   0.563   8.688 -0.2774 -0.8810  0.1541
  706MOL0     H95271   3.355   0.376   8.583 -1.7727 -0.5447  0.2011
  706MOL0     H95272   3.727   0.372   8.109 -0.6160  0.9929 -0.2851
  706MOL0     H95273   3.842   0.190   7.976 -0.0769 -1.9818 -3.2541
  706MOL0     H95274   3.920  -0.004   7.912  1.3949 -1.0011  0.5204
  706MOL0     H95275   3.872  -0.107   8.044 -2.2117 -0.4817  1.0590
  706MOL0     H95276   3.818  -0.292   7.877 -3.8037  2.8391  0.9046
  706MOL0     H95277   3.878  -0.184   7.747 -1.7191 -2.4186 -0.2918
  706MOL0     H95278   4.109  -0.170   7.823  2.7278 -1.4816  0.9123
  706MOL0     H95279   4.066  -0.240   7.973 -0.8145  0.3634 -0.3149
  706MOL0     H95280   4.053  -0.370   7.706  3.0516  4.0556 -0.1180
  706MOL0     H95281   3.987  -0.443   7.862 -0.8319 -1.5843 -2.0405
  706MOL0     H95282   4.265  -0.369   7.778  0.2078  2.9763  1.8310
  706MOL0     H95283   4.208  -0.529   7.803 -0.9696 -0.3123  1.0288
  706MOL0     H95284   4.255  -0.348   8.038 -2.2671  1.1666 -2.2048
  706MOL0     H95285   4.152  -0.484   8.043  0.0643 -0.4998 -0.7541
  706MOL0     H95286   4.372  -0.602   7.907  0.0175  0.1518  0.0442
  706MOL0     H95287   4.320  -0.609   8.083 -0.2667  0.9174  1.1325
  706MOL0     H95288   4.470  -0.369   8.099  0.4195  1.1852 -1.8970
  706MOL0     H95289   4.557  -0.521   8.098  1.8679  0.1166 -2.9458
  706MOL0     H95290   3.476  -0.041   7.991 -2.2745  2.5645  0.1550
  706MOL0     H95291   3.355   0.128   8.098  0.6233 -0.2941  0.5488
  706MOL0     H95292   3.415   0.597   8.229 -1.4918  0.7388  0.8303
  706MOL0     H95293   3.287   0.796   8.349 -0.8168  0.3059  1.7772
  706MOL0     H95294   3.663   1.214   9.774  0.5753  0.6661  0.4296
  706MOL0     H95295   3.649   1.041   9.963 -2.7762 -2.5736 -2.0641
  706MOL0     H95296   3.921   0.702  10.167 -0.1102  0.2507 -0.4256
  706MOL0     H95297   3.969   0.522  10.323 -1.0191  0.0207  1.4931
  706MOL0     H95298   3.984   0.310  10.460 -0.1073  2.7337 -0.8908
  706MOL0     H95299   3.985   0.255  10.292 -1.2486 -0.6510 -0.7197
  706MOL0     H95300   3.880   0.038  10.352 -0.3299  0.3192  0.0292
  706MOL0     H95301   3.828   0.086  10.500 -0.7400  2.7641 -0.7827
  706MOL0     H95302   4.063   0.069  10.597 -0.7272 -2.2791  0.6457
  706MOL0     H95303   4.129   0.130  10.449 -1.6422 -0.0630 -0.8253
  706MOL0     H95304   3.990  -0.151  10.438  0.6981 -1.1920 -0.7513
  706MOL0     H95305   4.124  -0.095  10.339 -0.0652  1.2188  0.2936
  706MOL0     H95306   4.381  -0.190  10.635  0.7192  1.8164 -0.6423
  706MOL0     H95307   3.574   0.369  10.255 -0.4563  0.1873  0.7383
  706MOL0     H95308   3.424   0.646  10.123 -1.6135  0.0957 -2.8851
  706MOL0     H95309   3.499   0.569   9.993 -0.5609  2.7140  0.1313
  706MOL0     H95310   3.414   0.472  10.115 -0.0443  0.5759  1.2397
  707MOL0     O95311   1.669   4.002   2.360  0.1987 -0.8550  0.0339
  707MOL0     C95312   1.764   3.943   2.307  0.8968  0.8438  0.4907
  707MOL0     O95313   1.869   3.886   2.373  0.1836 -0.5752  1.0413
  707MOL0     C95314   1.868   3.850   2.506  0.1196  0.3485  0.2432
  707MOL0     C95315   1.753   3.840   2.591 -0.3994  0.6067  0.9382
  707MOL0     C95316   1.757   3.784   2.716 -0.1268 -0.7686  0.1427
  707MOL0     C95317   1.881   3.776   2.782  1.1143  0.1202  0.0793
  707MOL0     O95318   1.897   3.731   2.912 -1.0063  0.2021 -0.5974
  707MOL0     C95319   1.969   3.613   2.913  0.2135  0.7614 -0.1009
  707MOL0     C95320   2.021   3.581   3.050  0.2312  0.4145 -0.4465
  707MOL0     C95321   1.921   3.529   3.148  1.3362 -0.2176 -0.2190
  707MOL0     C95322   1.983   3.468   3.275 -0.3038  0.7608 -0.7909
  707MOL0     C95323   1.889   3.457   3.390  0.0399 -0.1316  0.7252
  707MOL0     C95324   1.759   3.382   3.355 -0.2907 -0.6875 -0.3047
  707MOL0     C95325   1.679   3.368   3.486  0.7604 -0.2108 -0.4891
  707MOL0     C95326   1.549   3.293   3.446 -0.5726  0.1791 -0.1909
  707MOL0     N95327   1.570   3.156   3.394  0.0068 -0.2428 -0.4502
  707MOL0     C95328   1.587   3.042   3.474  0.1305 -0.5502 -0.3565
  707MOL0     C95329   1.578   2.939   3.379  0.5858 -1.1413  0.0653
  707MOL0     C95330   1.572   2.790   3.397  0.7488  0.1351 -0.2572
  707MOL0     C95331   1.707   2.718   3.372  0.2376  0.7808  0.6734
  707MOL0     C95332   1.810   2.775   3.473 -0.0362 -0.0982  0.1835
  707MOL0     C95333   1.934   2.693   3.499 -0.7411  0.0794 -0.2332
  707MOL0     O95334   1.894   2.571   3.561 -0.1432 -0.1749  0.9270
  707MOL0     C95335   1.975   2.521   3.666 -0.3096 -1.3175  0.3337
  707MOL0     C95336   1.908   2.452   3.762 -0.1712 -2.2745  0.2031
  707MOL0     C95337   1.991   2.407   3.871  0.0694 -0.0675  0.3229
  707MOL0     C95338   2.125   2.423   3.877  0.5445  0.1554 -0.9297
  707MOL0     C95339   2.202   2.363   3.985 -0.6730 -0.8071 -0.2323
  707MOL0     O95340   2.259   2.434   4.087 -0.6088 -0.3480 -0.0209
  707MOL0     C95341   2.348   2.366   4.163 -0.3405 -0.3191 -0.8709
  707MOL0     C95342   2.298   2.290   4.278  0.3400 -0.2824 -0.0924
  707MOL0     C95343   2.380   2.230   4.368  0.2729 -0.0951 -0.3895
  707MOL0     C95344   2.521   2.239   4.342  0.2228 -0.0695 -0.2299
  707MOL0     O95345   2.620   2.200   4.435  0.1225  0.1057  0.1075
  707MOL0     C95346   2.583   2.166   4.567 -0.3199  0.2038 -0.6757
  707MOL0     C95347   2.512   2.026   4.578 -0.3523  0.5266 -0.0703
  707MOL0     C95348   2.489   1.986   4.724  0.1011  0.8043 -0.2632
  707MOL0     C95349   2.342   1.950   4.747 -0.1742 -0.1744  0.1857
  707MOL0     C95350   2.321   1.967   4.902 -0.9488  0.2821  0.6064
  707MOL0     C95351   2.183   1.911   4.925 -0.3320  0.1455 -0.3894
  707MOL0     C95352   2.150   1.937   5.068  1.4773 -0.4118  0.0191
  707MOL0     C95353   1.995   1.928   5.085  0.1331  0.0506  0.2610
  707MOL0    Cl95354   1.944   1.986   5.239  0.1475 -0.1341 -0.1737
  707MOL0     C95355   2.576   2.307   4.222  0.5096  0.2414 -0.4809
  707MOL0     C95356   2.486   2.369   4.138 -0.1059 -1.0530 -0.0606
  707MOL0     O95357   2.209   2.240   3.977 -0.4817 -0.0255  0.4387
  707MOL0     C95358   2.188   2.491   3.781  0.2251  0.3984 -0.1886
  707MOL0     C95359   2.111   2.550   3.676  0.0424 -0.0075 -0.3212
  707MOL0     N95360   1.585   2.995   3.248  0.7682 -0.2277  0.1418
  707MOL0     N95361   1.563   3.121   3.261  0.0653  0.3412  0.3711
  707MOL0     C95362   1.991   3.816   2.705 -0.2366  0.9659 -0.7425
  707MOL0     C95363   1.989   3.838   2.570  0.4043 -0.2415 -0.4073
  707MOL0     C95364   1.772   3.962   2.163  0.2242 -0.3403 -0.0243
  707MOL0     C95365   1.908   3.981   2.112 -0.5907  0.3958  0.4278
  707MOL0     C95366   1.926   3.970   1.973 -0.8187 -0.3984  0.2412
  707MOL0     C95367   1.822   3.961   1.882 -0.4859  0.1664 -0.2982
  707MOL0     O95368   1.839   3.962   1.749 -0.1442 -0.1063 -0.1469
  707MOL0     C95369   1.840   3.825   1.703  0.6267 -0.2505 -0.0387
  707MOL0     C95370   1.869   3.832   1.543  0.4596  0.2432  0.4511
  707MOL0     C95371   1.849   3.692   1.472 -0.0093  0.3863  0.2816
  707MOL0     C95372   1.877   3.715   1.317 -0.3387  0.5844 -0.2686
  707MOL0     C95373   1.786   3.814   1.259 -0.0875  0.1495 -0.3294
  707MOL0     C95374   1.731   3.905   1.203 -0.1329  0.5044  0.3441
  707MOL0     C95375   1.691   3.952   1.935 -0.1538  1.2594 -0.3880
  707MOL0     C95376   1.664   3.946   2.072 -0.0213  0.0455 -0.5271
  707MOL0     C95377   1.515   3.901   2.090  0.1089 -0.4871  0.3145
  707MOL0     H95378   1.658   3.861   2.543  0.0422 -0.5570 -0.5257
  707MOL0     H95379   1.669   3.744   2.765 -0.1912 -2.4717 -1.2640
  707MOL0     H95380   1.907   3.532   2.874  1.2391  1.4779 -3.5672
  707MOL0     H95381   2.057   3.618   2.849 -1.6672  1.3313 -2.8313
  707MOL0     H95382   2.069   3.661   3.107 -1.7875  0.8323  0.7639
  707MOL0     H95383   2.095   3.503   3.028 -0.4997  0.2702 -2.5741
  707MOL0     H95384   1.855   3.455   3.104  1.8919  1.0110 -3.3708
  707MOL0     H95385   1.851   3.613   3.158  0.2072 -0.9173 -1.8028
  707MOL0     H95386   2.022   3.367   3.257 -2.2922 -0.1924  0.0126
  707MOL0     H95387   2.070   3.527   3.306  0.6532 -0.5314 -0.9319
  707MOL0     H95388   1.938   3.416   3.479  0.0547  3.5334  2.5954
  707MOL0     H95389   1.860   3.558   3.421  0.7977  0.5594 -0.7195
  707MOL0     H95390   1.690   3.431   3.285 -0.9240 -1.5316 -0.2907
  707MOL0     H95391   1.790   3.291   3.301 -1.2569  0.0829 -2.2548
  707MOL0     H95392   1.679   3.467   3.534 -0.6825  0.3442 -1.5592
  707MOL0     H95393   1.737   3.305   3.553 -0.5296 -3.1094 -1.9028
  707MOL0     H95394   1.484   3.290   3.534 -2.2302 -0.0035 -1.3767
  707MOL0     H95395   1.491   3.348   3.371  0.2739 -2.6497 -3.1407
  707MOL0     H95396   1.608   3.026   3.579  2.0368 -0.4327 -0.6807
  707MOL0     H95397   1.530   2.764   3.495 -0.6943 -3.4432 -1.6386
  707MOL0     H95398   1.495   2.748   3.331 -0.5130  0.3042  1.0417
  707MOL0     H95399   1.699   2.610   3.378 -0.4705  0.7801 -0.0828
  707MOL0     H95400   1.735   2.736   3.268 -1.6328 -0.5726 -0.0999
  707MOL0     H95401   1.764   2.797   3.570  0.8803  3.2988  0.0013
  707MOL0     H95402   1.848   2.868   3.429  2.6518 -1.4378 -0.5026
  707MOL0     H95403   2.008   2.757   3.547  2.6199 -2.1695 -2.0483
  707MOL0     H95404   1.983   2.687   3.401  0.1136  3.2810 -0.1043
  707MOL0     H95405   1.800   2.447   3.759 -0.4847  1.5886  1.0437
  707MOL0     H95406   1.939   2.362   3.956  1.1315  3.0422  2.8432
  707MOL0     H95407   2.197   2.320   4.304  0.3189  1.6917 -2.1394
  707MOL0     H95408   2.327   2.194   4.455  0.0342  0.6599 -0.2188
  707MOL0     H95409   2.683   2.149   4.608 -0.0348 -2.4048 -2.2076
  707MOL0     H95410   2.532   2.243   4.626  0.1801 -0.5531  0.7967
  707MOL0     H95411   2.413   2.019   4.531 -0.2722 -2.0126  0.0093
  707MOL0     H95412   2.588   1.960   4.536  1.6091  1.8082  1.2860
  707MOL0     H95413   2.553   1.901   4.749 -0.5712 -0.7679 -3.4092
  707MOL0     H95414   2.512   2.074   4.785  1.1522  0.7337 -0.5357
  707MOL0     H95415   2.325   1.848   4.710 -0.1525  0.6818 -2.3945
  707MOL0     H95416   2.282   2.022   4.691  2.6369  2.5685  0.4154
  707MOL0     H95417   2.327   2.072   4.932  0.5352 -0.2030  2.1742
  707MOL0     H95418   2.406   1.918   4.952 -2.6682 -0.7275  2.7197
  707MOL0     H95419   2.107   1.960   4.863  0.4556  3.1044  0.8127
  707MOL0     H95420   2.178   1.803   4.910 -1.1411  0.2192 -0.6981
  707MOL0     H95421   2.177   2.040   5.093 -1.3562  1.2811 -3.0482
  707MOL0     H95422   2.194   1.866   5.139  0.7965 -1.3418 -0.4510
  707MOL0     H95423   1.930   1.983   5.016  1.3989  1.4054  0.1040
  707MOL0     H95424   1.974   1.821   5.073  0.2099 -0.1900  1.9702
  707MOL0     H95425   2.682   2.317   4.204  0.3528  0.4451 -1.3503
  707MOL0     H95426   2.521   2.436   4.061 -0.2067  0.1506  0.9107
  707MOL0     H95427   2.293   2.514   3.798  0.9173 -2.0244 -0.8337
  707MOL0     H95428   2.169   2.598   3.597 -2.0194  0.1136 -1.8559
  707MOL0     H95429   2.091   3.812   2.749  0.0643  0.2503 -1.4685
  707MOL0     H95430   2.083   3.852   2.517  1.1282 -0.3024  0.8395
  707MOL0     H95431   1.994   4.010   2.171 -1.5753  2.6154  0.8784
  707MOL0     H95432   2.026   3.979   1.931  0.4993  2.3035  3.5049
  707MOL0     H95433   1.742   3.787   1.732  0.1044  2.4188  2.1362
  707MOL0     H95434   1.914   3.769   1.761 -0.0536  0.1186  1.2297
  707MOL0     H95435   1.969   3.866   1.515 -0.3406  1.3455 -1.1989
  707MOL0     H95436   1.789   3.897   1.508 -0.6203 -0.9991  0.5112
  707MOL0     H95437   1.747   3.660   1.495 -0.1321  1.6351  1.6021
  707MOL0     H95438   1.916   3.611   1.501 -2.9560 -1.6978  1.7848
  707MOL0     H95439   1.983   3.737   1.302 -0.3402  2.4313  1.9209
  707MOL0     H95440   1.864   3.621   1.264  0.4650  0.7674 -0.8142
  707MOL0     H95441   1.687   3.988   1.151 -1.5934  0.2419  1.0994
  707MOL0     H95442   1.610   3.931   1.866 -1.4337  1.2196  1.0843
  707MOL0     H95443   1.510   3.800   2.050 -0.6018 -0.6594  0.8202
  707MOL0     H95444   1.489   3.905   2.196  1.1173 -1.1691  0.5998
  707MOL0     H95445   1.443   3.964   2.036  4.3070  1.6952 -3.4385
  708MOL0     O95446   1.462   9.188   9.109 -0.2666 -0.7653 -0.7146
  708MOL0     C95447   1.425   9.301   9.078  0.6999 -0.2461  0.2773
  708MOL0     O95448   1.389   9.344   8.949  0.1553  0.2623 -0.3378
  708MOL0     C95449   1.378   9.257   8.842  1.0945  0.6739 -0.6578
  708MOL0     C95450   1.269   9.172   8.829 -0.5509 -0.4005 -0.0451
  708MOL0     C95451   1.240   9.103   8.713  0.2972  0.8318 -0.6188
  708MOL0     C95452   1.310   9.136   8.597  0.1789  0.1419 -0.2123
  708MOL0     O95453   1.295   9.080   8.471 -1.1679 -0.4626  0.4016
  708MOL0     C95454   1.202   9.139   8.384 -0.4524 -0.7446  0.7791
  708MOL0     C95455   1.074   9.058   8.383  0.8082  0.0941  0.1816
  708MOL0     C95456   1.097   8.902   8.356  0.2532  0.1616 -0.9910
  708MOL0     C95457   1.120   8.868   8.212  0.2124 -0.6180 -0.2471
  708MOL0     C95458   1.113   8.719   8.175 -0.5489  0.6989 -0.2805
  708MOL0     C95459   1.220   8.652   8.270 -0.4681 -0.4417  0.5113
  708MOL0     C95460   1.234   8.514   8.211  0.0237 -0.7934 -0.0868
  708MOL0     C95461   1.368   8.447   8.250  0.2010 -0.0083 -0.7713
  708MOL0     N95462   1.390   8.413   8.397 -0.0722  0.0932 -0.0116
  708MOL0     C95463   1.507   8.394   8.449 -0.0269  0.5108 -0.1707
  708MOL0     C95464   1.481   8.366   8.579 -0.1223  0.3354 -0.4549
  708MOL0     C95465   1.588   8.363   8.691 -0.3915 -0.0270  0.3802
  708MOL0     C95466   1.650   8.225   8.701 -1.2852  0.3093  0.2906
  708MOL0     C95467   1.758   8.199   8.807 -0.8099  0.2453 -0.1983
  708MOL0     C95468   1.723   8.222   8.953 -1.8642 -1.0485  0.2870
  708MOL0     O95469   1.847   8.221   9.025 -0.0974 -0.5943 -0.1688
  708MOL0     C95470   1.841   8.279   9.144  0.2555  0.2773 -0.1955
  708MOL0     C95471   1.727   8.320   9.207  0.2940 -1.0221  0.9247
  708MOL0     C95472   1.717   8.382   9.328  0.5266 -0.1547  0.0270
  708MOL0     C95473   1.831   8.409   9.401 -0.3415  0.0468 -0.8392
  708MOL0     C95474   1.817   8.458   9.542 -0.1921  0.9178  0.4564
  708MOL0     O95475   1.905   8.425   9.640 -0.4257  0.1471  0.3622
  708MOL0     C95476   1.885   8.446   9.771  0.1954  0.3593 -0.8958
  708MOL0     C95477   1.902   8.331   9.855  0.8016  0.6517 -0.4366
  708MOL0     C95478   1.901   8.343   9.997  0.9424  0.4784  0.1962
  708MOL0     C95479   1.863   8.474  10.054 -0.4990  0.8663 -0.5439
  708MOL0     O95480   1.839   8.471  10.182  0.7113 -0.0630 -0.6883
  708MOL0     C95481   1.897   8.570  10.270  0.2892  0.5698  0.8905
  708MOL0     C95482   1.809   8.569  10.396  0.8527 -0.1885  0.0552
  708MOL0     C95483   1.895   8.618  10.513 -0.2844  0.2069  0.0459
  708MOL0     C95484   1.999   8.520  10.565 -0.2952  1.5837 -0.7806
  708MOL0     C95485   2.149   8.583  10.582  0.2474  0.2523  0.1353
  708MOL0     C95486   2.166   8.723  10.646  0.7862  0.0047 -0.4837
  708MOL0     C95487   2.318   8.752  10.656 -0.6591  0.7101  0.2256
  708MOL0     C95488   2.351   8.891  10.722  0.7077  0.5003 -0.2544
  708MOL0    Cl95489   2.284   8.915  10.890  0.1894  0.4410 -0.0961
  708MOL0     C95490   1.832   8.580   9.967 -0.6222  0.1615 -0.4977
  708MOL0     C95491   1.841   8.565   9.830  1.0662  0.5606  0.0040
  708MOL0     O95492   1.714   8.530   9.562 -0.1649 -0.5690 -0.4600
  708MOL0     C95493   1.957   8.355   9.353  0.0442  0.4072  0.2516
  708MOL0     C95494   1.961   8.301   9.221 -0.6123 -0.2634  0.6894
  708MOL0     N95495   1.350   8.394   8.601  0.2761  0.4754 -0.6871
  708MOL0     N95496   1.295   8.427   8.492  0.0011  0.5754  0.3585
  708MOL0     C95497   1.415   9.217   8.600  0.1633 -0.0982  0.2800
  708MOL0     C95498   1.450   9.285   8.722  0.6936  0.4169 -0.9239
  708MOL0     C95499   1.443   9.395   9.190 -0.3943 -0.5169 -0.7030
  708MOL0     C95500   1.471   9.523   9.153  0.0859 -0.7552 -0.9467
  708MOL0     C95501   1.483   9.631   9.234  0.7671 -0.3509 -1.1431
  708MOL0     C95502   1.469   9.615   9.373 -0.1016 -0.7892  0.8381
  708MOL0     O95503   1.482   9.709   9.466  0.8525 -0.1914 -0.4092
  708MOL0     C95504   1.531   9.839   9.421  0.6364  0.1505  0.1965
  708MOL0     C95505   1.585   9.912   9.540 -0.3674 -0.0064 -0.2130
  708MOL0     C95506   1.641  10.046   9.487 -0.0465  0.2525 -0.4349
  708MOL0     C95507   1.636  10.141   9.599  0.3279 -0.5564 -0.5648
  708MOL0     C95508   1.704  10.265   9.568 -0.5690  0.0681  0.2706
  708MOL0     C95509   1.769  10.366   9.561  0.0595  0.5058  0.6044
  708MOL0     C95510   1.446   9.487   9.420 -0.2717 -0.7105  0.4495
  708MOL0     C95511   1.423   9.374   9.334 -0.0879  0.3901 -0.5852
  708MOL0     C95512   1.367   9.245   9.397 -1.1630  0.8260 -0.3418
  708MOL0     H95513   1.208   9.157   8.917 -1.9592  1.6798 -0.5998
  708MOL0     H95514   1.152   9.039   8.709  0.8926 -0.0071 -0.7196
  708MOL0     H95515   1.182   9.242   8.414  1.4026 -0.5582  1.4957
  708MOL0     H95516   1.251   9.136   8.286 -0.5130  0.9327  0.6629
  708MOL0     H95517   1.003   9.108   8.318  0.2578  0.7398  1.2549
  708MOL0     H95518   1.045   9.078   8.487  1.5263 -3.2346  1.1538
  708MOL0     H95519   1.002   8.863   8.395 -0.3091  0.8833 -1.6185
  708MOL0     H95520   1.175   8.862   8.422 -0.8833  0.8286  0.8368
  708MOL0     H95521   1.040   8.918   8.157  0.5184 -2.0445 -2.0816
  708MOL0     H95522   1.209   8.927   8.187 -1.3485  2.3956  0.8338
  708MOL0     H95523   1.014   8.681   8.201  0.2178 -0.5465  0.9511
  708MOL0     H95524   1.129   8.715   8.066  1.3976  0.9133 -0.0437
  708MOL0     H95525   1.307   8.719   8.267 -1.8423  1.6575  3.1498
  708MOL0     H95526   1.191   8.656   8.375  0.5417 -0.4203  0.8037
  708MOL0     H95527   1.233   8.517   8.102 -1.9713 -1.0372 -0.1244
  708MOL0     H95528   1.145   8.455   8.235  0.0133 -0.4832  0.6955
  708MOL0     H95529   1.344   8.353   8.199 -7.4677  2.0033 -2.1212
  708MOL0     H95530   1.461   8.492   8.217  0.7459  0.3073  1.0611
  708MOL0     H95531   1.606   8.394   8.404  0.5573 -1.4007  1.0262
  708MOL0     H95532   1.658   8.445   8.674 -2.8279  2.3520  1.0095
  708MOL0     H95533   1.534   8.388   8.783  2.0797  2.3546  1.3223
  708MOL0     H95534   1.563   8.161   8.717 -2.6595  1.6715 -1.2641
  708MOL0     H95535   1.708   8.204   8.610  1.3367 -1.2990  2.2018
  708MOL0     H95536   1.834   8.274   8.780 -1.3459  0.6202 -0.6888
  708MOL0     H95537   1.796   8.098   8.791  0.6356  0.5620  1.0086
  708MOL0     H95538   1.649   8.150   8.988 -2.0535 -1.5241 -1.0685
  708MOL0     H95539   1.671   8.318   8.963 -1.8634 -0.7799 -1.9786
  708MOL0     H95540   1.629   8.322   9.160  1.7407 -2.3267 -2.5089
  708MOL0     H95541   1.620   8.421   9.359  1.5523  2.0325  0.6948
  708MOL0     H95542   1.935   8.240   9.806  1.3700  2.1646 -3.0395
  708MOL0     H95543   1.905   8.252  10.057 -3.1919 -0.5690 -0.7914
  708MOL0     H95544   1.998   8.534  10.289  1.3417  2.4150 -0.7574
  708MOL0     H95545   1.901   8.667  10.220  0.8690  1.1655  2.0518
  708MOL0     H95546   1.722   8.632  10.378  0.1795 -1.0994  0.0841
  708MOL0     H95547   1.783   8.466  10.423  3.1338 -0.6619  0.7425
  708MOL0     H95548   1.930   8.718  10.486 -2.7909  1.7149  2.0004
  708MOL0     H95549   1.831   8.641  10.598 -4.0778 -2.1111 -1.9118
  708MOL0     H95550   2.000   8.433  10.500 -1.1107  1.2411 -0.3473
  708MOL0     H95551   1.977   8.495  10.670 -2.7468  0.3292 -1.5208
  708MOL0     H95552   2.207   8.588  10.490  3.8947 -0.9767  2.1474
  708MOL0     H95553   2.214   8.511  10.633  2.5436  2.0854 -0.0756
  708MOL0     H95554   2.119   8.813  10.605  0.4260 -1.5183 -3.7341
  708MOL0     H95555   2.134   8.708  10.750  0.5495  0.9614 -0.4158
  708MOL0     H95556   2.366   8.755  10.558 -0.3798  2.4140  0.3824
  708MOL0     H95557   2.371   8.676  10.714  1.0457  2.2488  0.7635
  708MOL0     H95558   2.457   8.916  10.731  0.8948  0.7184 -2.6162
  708MOL0     H95559   2.303   8.972  10.667 -3.1245 -0.4110  1.4204
  708MOL0     H95560   1.791   8.675  10.002 -3.0963 -0.6443 -1.0583
  708MOL0     H95561   1.821   8.646   9.761  0.6037  0.4055 -0.0448
  708MOL0     H95562   2.044   8.374   9.415 -0.5751  0.5094  1.0963
  708MOL0     H95563   2.052   8.271   9.171  0.3135  2.6957  0.4227
  708MOL0     H95564   1.467   9.236   8.507  0.1400 -3.4431 -0.5253
  708MOL0     H95565   1.528   9.360   8.723 -0.2580  1.4443 -1.9700
  708MOL0     H95566   1.488   9.554   9.050 -1.6383  2.3491 -0.4401
  708MOL0     H95567   1.525   9.723   9.196 -0.4274  0.5470 -0.3703
  708MOL0     H95568   1.441   9.886   9.382 -1.3887 -3.7440 -0.3317
  708MOL0     H95569   1.618   9.827   9.355  2.5465 -2.1831  2.8807
  708MOL0     H95570   1.663   9.854   9.592  1.0191  1.3879 -0.6680
  708MOL0     H95571   1.504   9.929   9.612 -0.5383  0.5084 -0.5209
  708MOL0     H95572   1.581  10.080   9.403 -1.9110  0.8653  1.0627
  708MOL0     H95573   1.747  10.043   9.460 -0.0895  1.4562 -0.8091
  708MOL0     H95574   1.533  10.170   9.622  0.8909  1.1635 -0.0561
  708MOL0     H95575   1.683  10.103   9.689  3.8051 -1.3666 -2.5350
  708MOL0     H95576   1.816  10.462   9.554 -1.7523  1.4336  0.7157
  708MOL0     H95577   1.438   9.469   9.527  1.8016 -2.0568  0.4423
  708MOL0     H95578   1.319   9.263   9.494  0.6765  0.5647  0.6612
  708MOL0     H95579   1.299   9.188   9.333 -1.0252  0.3312 -0.0627
  708MOL0     H95580   1.441   9.166   9.416 -2.0798 -0.0128 -0.1534
  709MOL0     O95581   5.289   4.370   7.355  0.2349 -0.7449  0.8539
  709MOL0     C95582   5.375   4.324   7.430  0.5214  0.5161  0.5023
  709MOL0     O95583   5.403   4.189   7.436  0.1236 -0.2924 -0.1131
  709MOL0     C95584   5.310   4.106   7.376  0.5965 -1.1838  0.0327
  709MOL0     C95585   5.202   4.061   7.446  0.5012  1.2021 -0.6826
  709MOL0     C95586   5.113   3.978   7.376  0.1018  0.0865 -0.8260
  709MOL0     C95587   5.125   3.955   7.247  0.1127 -0.5579  0.3599
  709MOL0     O95588   5.013   3.898   7.198  0.4018  0.3395  0.0193
  709MOL0     C95589   5.034   3.766   7.147 -0.0836 -0.9372  0.2490
  709MOL0     C95590   4.908   3.692   7.115  0.2104  0.5001  1.4715
  709MOL0     C95591   4.818   3.645   7.237 -0.8088 -0.2246 -0.2590
  709MOL0     C95592   4.688   3.578   7.184  0.7709 -0.6956  0.9558
  709MOL0     C95593   4.614   3.506   7.294  0.4115 -0.2656 -0.1473
  709MOL0     C95594   4.557   3.600   7.395 -0.1937  0.2678  0.1388
  709MOL0     C95595   4.495   3.512   7.501 -0.3071 -0.0007 -0.2526
  709MOL0     C95596   4.427   3.589   7.612 -1.2888  0.1056 -0.1558
  709MOL0     N95597   4.332   3.693   7.568 -0.5341 -0.5114  0.6143
  709MOL0     C95598   4.362   3.824   7.571 -1.0540 -0.1735 -0.0202
  709MOL0     C95599   4.245   3.880   7.537  0.2643 -0.9668 -0.0315
  709MOL0     C95600   4.211   4.032   7.533 -0.0173  0.0972 -0.5992
  709MOL0     C95601   4.307   4.120   7.611 -0.4545  0.1155  0.4228
  709MOL0     C95602   4.290   4.274   7.603 -0.9770  0.5031 -0.0821
  709MOL0     C95603   4.399   4.336   7.691  0.5747 -0.3658 -0.5022
  709MOL0     O95604   4.412   4.276   7.815  0.7572 -0.1846 -0.9174
  709MOL0     C95605   4.524   4.302   7.886  0.5857 -0.2828 -1.1463
  709MOL0     C95606   4.618   4.404   7.875 -0.0180  0.0843  0.6415
  709MOL0     C95607   4.728   4.421   7.957  0.6055  0.5946  0.2306
  709MOL0     C95608   4.760   4.326   8.054  0.2487  0.2763  1.0454
  709MOL0     C95609   4.885   4.335   8.135 -0.0608 -0.8451 -0.8880
  709MOL0     O95610   4.932   4.223   8.197 -0.4053 -0.1818 -0.5978
  709MOL0     C95611   5.065   4.230   8.235 -0.0507 -0.1715  0.3388
  709MOL0     C95612   5.165   4.170   8.151 -1.2097  0.3774  0.9530
  709MOL0     C95613   5.300   4.163   8.188 -0.3724 -0.2934  0.2921
  709MOL0     C95614   5.338   4.208   8.317  0.3428  0.1691  0.4576
  709MOL0     O95615   5.469   4.186   8.344 -0.1636  0.5499 -0.0512
  709MOL0     C95616   5.531   4.252   8.450 -0.4640  0.7835  0.0937
  709MOL0     C95617   5.594   4.389   8.415 -0.0126  1.3553 -0.5818
  709MOL0     C95618   5.744   4.395   8.411 -0.3038  0.3929  1.2241
  709MOL0     C95619   5.837   4.401   8.538  1.4050 -1.3005  1.2562
  709MOL0     C95620   5.972   4.337   8.528 -0.1024 -0.2719  0.1563
  709MOL0     C95621   6.042   4.369   8.656 -0.7179  0.5562 -0.9343
  709MOL0     C95622   6.190   4.316   8.653  0.1148 -0.0053 -0.1076
  709MOL0     C95623   6.268   4.347   8.787 -0.8335 -0.6489 -0.5090
  709MOL0    Cl95624   6.320   4.523   8.783  0.1506 -0.2671  0.2017
  709MOL0     C95625   5.243   4.285   8.395  0.5633  0.4588 -0.2374
  709MOL0     C95626   5.112   4.282   8.360  0.5205 -0.6296  0.1275
  709MOL0     O95627   4.943   4.441   8.140  1.1827  0.7469  0.3912
  709MOL0     C95628   4.666   4.225   8.072  0.0444  0.8477 -0.4630
  709MOL0     C95629   4.553   4.210   7.990 -0.2486 -0.1276  0.2799
  709MOL0     N95630   4.150   3.783   7.518 -0.3265  0.1786  0.6843
  709MOL0     N95631   4.205   3.660   7.534  0.1764  0.0048  0.8366
  709MOL0     C95632   5.235   4.004   7.171  0.1139  0.0146  0.7208
  709MOL0     C95633   5.333   4.064   7.248  0.2299  0.3747 -0.5957
  709MOL0     C95634   5.445   4.426   7.507 -1.6240  0.3977  0.2518
  709MOL0     C95635   5.382   4.498   7.611  0.2939 -0.3932 -0.1923
  709MOL0     C95636   5.454   4.585   7.690  0.0553 -0.3984  0.2128
  709MOL0     C95637   5.594   4.605   7.673 -0.0909  0.4986  0.8797
  709MOL0     O95638   5.662   4.690   7.754  0.3074 -0.3718 -0.6352
  709MOL0     C95639   5.807   4.696   7.784  0.0102 -0.4866 -0.0049
  709MOL0     C95640   5.852   4.572   7.858 -0.6970 -0.3844 -0.4286
  709MOL0     C95641   6.000   4.568   7.884 -0.1746  0.4813  1.0341
  709MOL0     C95642   6.087   4.566   7.754 -0.1538 -0.0911  0.3187
  709MOL0     C95643   6.230   4.576   7.777  0.0832  0.2300  0.5450
  709MOL0     C95644   6.348   4.571   7.789 -0.3551  0.2074 -0.6971
  709MOL0     C95645   5.657   4.538   7.568  0.2986  0.0938 -0.1463
  709MOL0     C95646   5.590   4.445   7.486  0.0568 -0.0653  0.1329
  709MOL0     C95647   5.663   4.378   7.375  0.2339  0.3830 -0.2224
  709MOL0     H95648   5.194   4.080   7.552 -3.6421 -0.9818 -0.3992
  709MOL0     H95649   5.028   3.940   7.431 -0.3210  1.0656 -0.7757
  709MOL0     H95650   5.080   3.800   7.054  0.2801 -0.3211  0.6406
  709MOL0     H95651   5.095   3.700   7.209  2.0078  0.6799  0.0268
  709MOL0     H95652   4.937   3.604   7.056 -0.6096  1.9014 -1.2152
  709MOL0     H95653   4.845   3.759   7.055 -0.5421  1.6185  3.4252
  709MOL0     H95654   4.793   3.743   7.279 -1.0192  0.8278 -2.6635
  709MOL0     H95655   4.873   3.577   7.302 -1.2093 -1.4093 -1.1162
  709MOL0     H95656   4.625   3.659   7.144  3.6197  1.0643 -0.3454
  709MOL0     H95657   4.713   3.507   7.104  2.4076 -0.1739  0.9535
  709MOL0     H95658   4.529   3.452   7.250  0.4361  0.6717 -1.4146
  709MOL0     H95659   4.679   3.434   7.345  0.9283 -0.3866 -0.9579
  709MOL0     H95660   4.625   3.671   7.443 -0.5488  0.9342 -0.3156
  709MOL0     H95661   4.481   3.648   7.332 -2.4515 -2.1330  0.8762
  709MOL0     H95662   4.574   3.450   7.544  0.2817  0.6953 -0.3042
  709MOL0     H95663   4.430   3.435   7.460 -3.7659  1.1921  2.5252
  709MOL0     H95664   4.375   3.506   7.661 -0.4665 -0.3091  0.0224
  709MOL0     H95665   4.511   3.624   7.671 -1.9810 -0.9806  1.5652
  709MOL0     H95666   4.455   3.861   7.613 -1.4406 -0.3547  1.0404
  709MOL0     H95667   4.223   4.067   7.430  1.7627 -0.3847 -0.5837
  709MOL0     H95668   4.107   4.051   7.562  0.6151  0.5953  1.5198
  709MOL0     H95669   4.292   4.092   7.716 -0.5174 -0.1775  0.3360
  709MOL0     H95670   4.412   4.096   7.593 -0.6573 -2.9782  2.5544
  709MOL0     H95671   4.187   4.288   7.638 -2.0824 -0.3550 -2.6996
  709MOL0     H95672   4.297   4.322   7.505 -1.6059  1.7962  0.4785
  709MOL0     H95673   4.370   4.441   7.703 -1.7502 -1.0817  0.8519
  709MOL0     H95674   4.492   4.336   7.633 -0.2954  0.7291 -1.9643
  709MOL0     H95675   4.583   4.486   7.812  1.2276  0.0113 -0.1871
  709MOL0     H95676   4.786   4.509   7.933 -1.8249  1.4076 -3.4704
  709MOL0     H95677   5.133   4.125   8.057 -1.6476  0.5090  1.0358
  709MOL0     H95678   5.378   4.120   8.127 -2.9556 -2.3089 -1.8526
  709MOL0     H95679   5.457   4.273   8.528 -0.4308  3.5403 -0.5190
  709MOL0     H95680   5.616   4.188   8.477 -0.6224  0.0951 -0.9562
  709MOL0     H95681   5.556   4.430   8.321 -3.3622  3.3420  1.4505
  709MOL0     H95682   5.555   4.459   8.490 -1.4006  0.1259 -0.1235
  709MOL0     H95683   5.785   4.318   8.344  1.2671  2.5198 -0.3884
  709MOL0     H95684   5.769   4.487   8.357 -2.7989 -0.4551 -1.6714
  709MOL0     H95685   5.781   4.350   8.617 -0.3482 -1.8712 -0.2819
  709MOL0     H95686   5.850   4.507   8.563  1.3153 -0.5642 -1.4986
  709MOL0     H95687   6.030   4.361   8.438  1.4071 -2.5850  0.4261
  709MOL0     H95688   5.950   4.230   8.529  0.7322 -0.4509  1.3239
  709MOL0     H95689   6.044   4.476   8.679 -3.2626  0.7850 -1.4913
  709MOL0     H95690   5.983   4.332   8.740  1.4993 -0.3068  0.3494
  709MOL0     H95691   6.234   4.361   8.564 -0.7418 -0.1099 -0.5958
  709MOL0     H95692   6.197   4.209   8.632 -2.6401 -0.3140  0.1214
  709MOL0     H95693   6.199   4.323   8.868  1.2442  0.0440  1.5534
  709MOL0     H95694   6.349   4.277   8.808  0.2446 -0.0910 -2.4873
  709MOL0     H95695   5.268   4.347   8.480 -0.4794  2.2850 -1.1950
  709MOL0     H95696   5.038   4.330   8.424 -0.3243 -2.0214  0.2332
  709MOL0     H95697   4.701   4.144   8.135 -2.2686  2.0177  2.5187
  709MOL0     H95698   4.478   4.132   7.996 -0.3180  0.0546  3.3377
  709MOL0     H95699   5.236   3.982   7.064  2.2931  1.7907  0.3179
  709MOL0     H95700   5.427   4.082   7.198  1.2258 -2.6972 -0.1075
  709MOL0     H95701   5.277   4.476   7.624  0.5141 -1.1131  0.3865
  709MOL0     H95702   5.406   4.635   7.773 -1.4928  0.1972 -0.9952
  709MOL0     H95703   5.830   4.783   7.846 -0.8275  1.1244 -1.8949
  709MOL0     H95704   5.859   4.711   7.689  2.6614 -3.3652  0.8208
  709MOL0     H95705   5.816   4.479   7.814  1.9569 -0.4921 -2.6696
  709MOL0     H95706   5.817   4.572   7.961  1.6159  0.1187  0.4388
  709MOL0     H95707   6.028   4.480   7.942  0.7787  1.0333  1.4496
  709MOL0     H95708   6.033   4.656   7.942 -4.4778  0.3469  4.1711
  709MOL0     H95709   6.058   4.479   7.694 -1.4241 -0.4992  1.4947
  709MOL0     H95710   6.059   4.643   7.682 -2.1229 -0.8783  0.1951
  709MOL0     H95711   6.451   4.547   7.809 -0.1173  2.6994  1.6976
  709MOL0     H95712   5.764   4.555   7.555 -0.1114  2.3809 -1.0682
  709MOL0     H95713   5.667   4.271   7.395  3.6613  0.7303  1.6688
  709MOL0     H95714   5.628   4.392   7.272  2.0652 -3.6687 -1.5771
  709MOL0     H95715   5.765   4.418   7.380  0.9263 -1.2400 -0.7105
  710MOL0     O95716   4.989   6.541  11.072 -1.1644 -0.4710 -0.2871
  710MOL0     C95717   4.913   6.470  11.000  1.0814 -0.6633  0.0858
  710MOL0     O95718   4.787   6.434  11.042  0.0269  0.4517  0.2304
  710MOL0     C95719   4.734   6.507  11.148  0.4555  0.7856  0.3097
  710MOL0     C95720   4.686   6.430  11.256 -0.2403  0.2746 -0.5490
  710MOL0     C95721   4.623   6.475  11.370 -0.6967 -0.2627  0.1601
  710MOL0     C95722   4.602   6.612  11.381 -0.2189 -0.0676 -0.2482
  710MOL0     O95723   4.544   6.686  11.484 -0.4905  0.5028  0.0323
  710MOL0     C95724   4.473   6.621  11.581  0.5505  0.1548 -0.4945
  710MOL0     C95725   4.403   6.716  11.674  0.1013  0.0724 -0.3474
  710MOL0     C95726   4.373   6.662  11.820  0.2157 -0.4547 -0.2642
  710MOL0     C95727   4.246   6.742  11.857 -0.6290 -1.0958  0.0404
  710MOL0     C95728   4.198   6.692  11.991  0.6607  0.1291  0.6350
  710MOL0     C95729   4.180   6.543  12.016 -0.2276 -0.0650 -0.3228
  710MOL0     C95730   4.094   6.520  12.144  0.6012 -0.1132 -0.0854
  710MOL0     C95731   4.158   6.590  12.268  0.1035 -0.2681  0.1390
  710MOL0     N95732   4.077   6.584  12.387 -0.3384  0.8698  0.3324
  710MOL0     C95733   4.039   6.695  12.456 -0.4530  0.2308  0.6297
  710MOL0     C95734   4.023   6.651  12.586  1.7947 -1.4586  0.7110
  710MOL0     C95735   3.977   6.734  12.704  0.1982 -1.0396 -0.4346
  710MOL0     C95736   3.923   6.651  12.815 -0.0388 -0.2115 -0.4737
  710MOL0     C95737   3.882   6.747  12.935 -0.4164 -1.4480  1.2296
  710MOL0     C95738   4.001   6.762  13.028 -0.0753 -0.9341  0.1046
  710MOL0     O95739   3.945   6.814  13.154 -0.6263  0.1783 -0.7007
  710MOL0     C95740   4.023   6.841  13.264  0.1001 -0.3151 -0.0210
  710MOL0     C95741   3.964   6.897  13.374  0.6467 -0.7100  0.3174
  710MOL0     C95742   4.023   6.921  13.497 -0.5460  0.4712 -0.2894
  710MOL0     C95743   4.164   6.882  13.510 -0.3459 -0.7780 -0.8003
  710MOL0     C95744   4.237   6.867  13.638  0.6810  0.0406 -0.1559
  710MOL0     O95745   4.157   6.898  13.743  0.6292  0.1579 -0.1233
  710MOL0     C95746   4.207   6.875  13.865 -0.7053  0.4180 -0.6257
  710MOL0     C95747   4.164   6.763  13.928  0.7694 -0.0085  0.7959
  710MOL0     C95748   4.223   6.728  14.045  0.0505  0.3917  0.3876
  710MOL0     C95749   4.315   6.817  14.114 -0.2809 -0.5770  0.2735
  710MOL0     O95750   4.364   6.800  14.246  0.3897 -0.3527  0.0476
  710MOL0     C95751   4.344   6.657  14.299  0.7629 -0.5275  0.2793
  710MOL0     C95752   4.440   6.646  14.423  0.7623  0.5151  1.1779
  710MOL0     C95753   4.383   6.735  14.538 -0.1658  0.2439  0.8843
  710MOL0     C95754   4.483   6.743  14.656 -0.2249 -0.3566  0.1155
  710MOL0     C95755   4.623   6.813  14.628  0.0669 -0.3820  1.1547
  710MOL0     C95756   4.700   6.856  14.755  0.0258  0.7216 -0.9506
  710MOL0     C95757   4.816   6.935  14.696 -0.3859  0.4471  0.3115
  710MOL0     C95758   4.899   6.997  14.815 -0.2755 -0.0498 -0.5539
  710MOL0    Cl95759   4.795   7.083  14.932  0.0571 -0.0757  0.3241
  710MOL0     C95760   4.359   6.936  14.050 -0.5266  0.8829  0.0451
  710MOL0     C95761   4.304   6.965  13.922 -0.2584 -0.6466  0.0549
  710MOL0     O95762   4.352   6.834  13.650 -0.6809 -0.1703 -0.7437
  710MOL0     C95763   4.228   6.829  13.399 -0.2193 -0.0905 -0.5722
  710MOL0     C95764   4.162   6.809  13.279  1.0458 -0.0839 -0.0217
  710MOL0     N95765   4.046   6.516  12.591  0.4937  0.8019  0.3752
  710MOL0     N95766   4.081   6.479  12.468 -0.0928  0.1848 -1.0829
  710MOL0     C95767   4.650   6.698  11.279  0.1897 -0.0849 -0.0249
  710MOL0     C95768   4.722   6.654  11.163  0.1034  0.3115 -0.7805
  710MOL0     C95769   4.978   6.417  10.881  0.2012  0.1700 -0.2821
  710MOL0     C95770   5.113   6.450  10.860 -0.9775 -1.3736  0.0341
  710MOL0     C95771   5.185   6.395  10.754  0.6089 -0.1074  0.0082
  710MOL0     C95772   5.125   6.316  10.670  0.0068  0.4314  0.8061
  710MOL0     O95773   5.193   6.276  10.559  0.6219  1.0535  0.0753
  710MOL0     C95774   5.135   6.285  10.426  0.3378  0.4428  0.6993
  710MOL0     C95775   5.245   6.222  10.333 -0.7343 -0.3748  0.5827
  710MOL0     C95776   5.386   6.293  10.363  0.4377 -0.3494  0.2035
  710MOL0     C95777   5.502   6.241  10.273  0.4791 -0.6959  0.0684
  710MOL0     C95778   5.497   6.304  10.139  0.3803  0.3064  1.2799
  710MOL0     C95779   5.481   6.362  10.037 -0.0844 -0.3901  1.0350
  710MOL0     C95780   4.990   6.279  10.683 -0.5522 -0.1241 -0.6444
  710MOL0     C95781   4.909   6.335  10.787 -1.0685 -0.1321  0.0240
  710MOL0     C95782   4.764   6.319  10.774  0.6398  0.4159 -0.1675
  710MOL0     H95783   4.698   6.323  11.246  0.1459  0.2152  0.4561
  710MOL0     H95784   4.588   6.418  11.455  1.9998 -0.2897  1.3331
  710MOL0     H95785   4.393   6.556  11.544  0.4136 -0.3612  0.6645
  710MOL0     H95786   4.539   6.561  11.644  0.0072 -0.2468 -0.3003
  710MOL0     H95787   4.316   6.760  11.626  0.3726 -1.7434 -2.6739
  710MOL0     H95788   4.476   6.795  11.695 -2.0787  1.8187  1.1806
  710MOL0     H95789   4.456   6.689  11.887  0.7485 -1.5914 -0.4366
  710MOL0     H95790   4.354   6.555  11.822  0.2560 -0.4998  2.8902
  710MOL0     H95791   4.259   6.849  11.874 -3.4960 -0.5312 -0.8590
  710MOL0     H95792   4.165   6.729  11.785  1.2946  0.6360 -2.6620
  710MOL0     H95793   4.270   6.729  12.065  1.7961  0.5007 -0.5948
  710MOL0     H95794   4.098   6.734  11.998  0.7791  0.1842  2.1969
  710MOL0     H95795   4.115   6.495  11.941 -0.0866 -0.5653 -0.1256
  710MOL0     H95796   4.278   6.495  12.014  2.1932  4.4000 -2.0057
  710MOL0     H95797   4.086   6.413  12.163  1.4576 -0.2907 -0.6928
  710MOL0     H95798   3.991   6.553  12.124 -0.6295 -3.8388 -0.5671
  710MOL0     H95799   4.252   6.538  12.287 -0.3462 -0.6791  1.3361
  710MOL0     H95800   4.179   6.695  12.248  3.1393 -0.9585 -0.9110
  710MOL0     H95801   4.040   6.800  12.429  0.3830  0.5386  1.7919
  710MOL0     H95802   4.056   6.795  12.749 -0.3963 -1.1290  0.7931
  710MOL0     H95803   3.888   6.793  12.680  0.1017 -1.4204 -1.0355
  710MOL0     H95804   3.834   6.598  12.781 -1.5358  0.6608  1.8586
  710MOL0     H95805   4.001   6.578  12.839 -0.5031 -0.7630 -0.6190
  710MOL0     H95806   3.797   6.701  12.986 -1.4858  1.1848  1.9948
  710MOL0     H95807   3.861   6.846  12.892  4.8279 -0.6215 -0.2116
  710MOL0     H95808   4.079   6.831  12.994 -3.0948  3.0382  0.5689
  710MOL0     H95809   4.058   6.670  13.044 -0.6108 -1.0388  1.6187
  710MOL0     H95810   3.857   6.912  13.358  0.6335  1.2463  1.9825
  710MOL0     H95811   3.961   6.948  13.582 -3.2298  0.7453 -2.1866
  710MOL0     H95812   4.086   6.699  13.888  3.2085 -0.4238 -3.9469
  710MOL0     H95813   4.189   6.636  14.090  2.2810 -1.2838 -1.1032
  710MOL0     H95814   4.240   6.625  14.310  1.3105 -2.3288  0.4850
  710MOL0     H95815   4.378   6.573  14.238  2.0062 -3.0751  4.1433
  710MOL0     H95816   4.449   6.546  14.465  1.5264  0.4895  0.9651
  710MOL0     H95817   4.534   6.685  14.383 -0.1729  1.5415 -0.1419
  710MOL0     H95818   4.377   6.834  14.493 -0.2894 -1.7198 -4.0899
  710MOL0     H95819   4.282   6.706  14.570  0.2659 -2.5648  0.0158
  710MOL0     H95820   4.506   6.648  14.705  1.6845  0.9956  2.0052
  710MOL0     H95821   4.429   6.803  14.729  1.3811 -0.6971  1.6450
  710MOL0     H95822   4.615   6.901  14.564 -1.7343 -2.4971 -1.8113
  710MOL0     H95823   4.686   6.747  14.568  0.7408  1.9352 -0.8340
  710MOL0     H95824   4.631   6.922  14.809  2.6096  1.7527  1.3974
  710MOL0     H95825   4.741   6.779  14.821  3.7963  2.9342 -0.4124
  710MOL0     H95826   4.776   7.010  14.627 -0.1303 -0.2629 -0.6263
  710MOL0     H95827   4.884   6.869  14.641  0.9666  0.0560  2.3356
  710MOL0     H95828   4.952   6.918  14.869 -1.4595 -0.9903 -0.7175
  710MOL0     H95829   4.973   7.070  14.781 -0.0188  0.3693  0.8416
  710MOL0     H95830   4.430   7.006  14.092  1.1151  0.0132 -1.1875
  710MOL0     H95831   4.333   7.050  13.860  0.9793 -1.1527 -0.0894
  710MOL0     H95832   4.332   6.799  13.405  1.3588  4.8189  1.4253
  710MOL0     H95833   4.216   6.768  13.194 -0.3269 -0.8046 -0.5748
  710MOL0     H95834   4.626   6.803  11.287 -1.2856 -0.5780  4.3111
  710MOL0     H95835   4.749   6.729  11.090  1.7824 -0.4437 -0.9896
  710MOL0     H95836   5.175   6.518  10.918  0.5747  0.9262 -3.9439
  710MOL0     H95837   5.283   6.439  10.737  0.5809  1.6259  3.4508
  710MOL0     H95838   5.112   6.391  10.418 -1.3418  0.4357  4.0232
  710MOL0     H95839   5.049   6.218  10.425  0.5431  0.1497 -1.1925
  710MOL0     H95840   5.212   6.237  10.229 -1.6952  3.2348  1.2770
  710MOL0     H95841   5.266   6.116  10.353  2.0725 -0.0950 -0.4058
  710MOL0     H95842   5.409   6.276  10.469  1.0519 -1.1242 -0.0405
  710MOL0     H95843   5.367   6.400  10.357 -0.2152 -0.3953  1.2742
  710MOL0     H95844   5.603   6.263  10.310  1.7742 -0.2831 -3.3573
  710MOL0     H95845   5.503   6.132  10.266  0.3992 -0.5934 -4.4931
  710MOL0     H95846   5.478   6.441   9.965 -0.0631 -0.9602  0.3953
  710MOL0     H95847   4.964   6.203  10.611  0.5212  0.9254 -2.1953
  710MOL0     H95848   4.704   6.410  10.780 -0.0257 -0.0260 -0.0400
  710MOL0     H95849   4.727   6.259  10.691  1.4585 -2.0232  1.1062
  710MOL0     H95850   4.722   6.257  10.854  0.1788  0.6076 -0.2600
  711MOL0     O95851   9.839   1.871   3.267 -0.3405 -0.0222 -0.4433
  711MOL0     C95852   9.826   1.981   3.215  0.3509 -0.0351  0.2245
  711MOL0     O95853   9.730   2.016   3.125 -0.1019  0.5246 -0.0994
  711MOL0     C95854   9.635   1.916   3.084 -0.3425 -0.6961 -0.0338
  711MOL0     C95855   9.500   1.958   3.081 -0.0034  0.3468  0.2181
  711MOL0     C95856   9.400   1.879   3.020 -0.5085  0.5876 -0.2287
  711MOL0     C95857   9.427   1.753   2.954 -0.2877 -0.3073 -0.0878
  711MOL0     O95858   9.331   1.664   2.905 -1.0448 -0.3069  0.4442
  711MOL0     C95859   9.275   1.720   2.781 -0.0554  1.3670  0.8700
  711MOL0     C95860   9.146   1.660   2.746  0.2412  0.2697  0.3046
  711MOL0     C95861   9.168   1.513   2.699  0.3633  0.4606  0.7228
  711MOL0     C95862   9.034   1.445   2.673  0.0689 -0.1224  0.1584
  711MOL0     C95863   9.062   1.295   2.657 -0.2421 -0.0071 -0.2569
  711MOL0     C95864   8.933   1.232   2.609 -0.1285 -0.6986 -0.4051
  711MOL0     C95865   8.947   1.083   2.569 -0.5708  0.4439  0.2532
  711MOL0     C95866   8.837   1.003   2.509  0.2926 -0.3910  0.0420
  711MOL0     N95867   8.757   1.064   2.399  0.2371  0.0495 -0.4995
  711MOL0     C95868   8.637   1.016   2.365  0.1284  0.6796 -0.7615
  711MOL0     C95869   8.596   1.087   2.257 -0.2754 -0.3346  0.3514
  711MOL0     C95870   8.463   1.086   2.183 -0.0045 -1.4071 -0.4022
  711MOL0     C95871   8.350   1.149   2.265 -0.3564 -0.7414  0.7939
  711MOL0     C95872   8.224   1.148   2.174  1.1407  0.0135  0.1662
  711MOL0     C95873   8.109   1.231   2.236  0.8844 -0.5861  0.5054
  711MOL0     O95874   7.995   1.252   2.142 -0.0659  0.2314  0.3127
  711MOL0     C95875   7.881   1.306   2.178 -0.0755  0.3353 -0.1967
  711MOL0     C95876   7.832   1.322   2.309  0.1422  0.5317  0.0702
  711MOL0     C95877   7.693   1.343   2.337 -0.7916 -0.3967  0.7419
  711MOL0     C95878   7.606   1.380   2.235  0.0918  0.9598 -0.0727
  711MOL0     C95879   7.461   1.412   2.270  0.6557 -1.1141  0.2628
  711MOL0     O95880   7.385   1.476   2.184 -0.2239 -0.2932 -0.5577
  711MOL0     C95881   7.268   1.528   2.223  0.0142 -0.3945 -0.5566
  711MOL0     C95882   7.150   1.457   2.191 -0.0021  0.0980  0.3211
  711MOL0     C95883   7.024   1.514   2.228 -0.3501 -0.6139  0.4534
  711MOL0     C95884   7.018   1.643   2.278 -0.0550 -0.3580  0.4463
  711MOL0     O95885   6.898   1.705   2.317 -0.7479  0.0218  0.3780
  711MOL0     C95886   6.776   1.660   2.270 -0.2396 -0.4041  0.1119
  711MOL0     C95887   6.747   1.682   2.122  0.6283  1.6839 -0.0601
  711MOL0     C95888   6.585   1.666   2.094  0.0081  0.6474  0.2043
  711MOL0     C95889   6.555   1.670   1.944  0.4852  0.6319  0.5636
  711MOL0     C95890   6.562   1.534   1.877  0.7227  0.3258  0.6069
  711MOL0     C95891   6.582   1.533   1.722 -0.3935  0.7058  0.7419
  711MOL0     C95892   6.684   1.635   1.657  0.5723  0.7057  0.1714
  711MOL0     C95893   6.727   1.600   1.511 -0.3527  0.0496  0.1623
  711MOL0    Cl95894   6.803   1.442   1.516  0.3609  0.3797 -0.4290
  711MOL0     C95895   7.142   1.713   2.306  0.3480 -0.1296  0.7695
  711MOL0     C95896   7.264   1.655   2.284  0.5944  0.1118 -0.3876
  711MOL0     O95897   7.410   1.371   2.380 -0.6459  0.3232 -1.2391
  711MOL0     C95898   7.658   1.383   2.097 -0.5627 -0.5326 -1.2126
  711MOL0     C95899   7.799   1.341   2.071  0.7548  0.3257 -0.0270
  711MOL0     N95900   8.696   1.171   2.215 -0.1375  0.0932 -0.2156
  711MOL0     N95901   8.800   1.163   2.302  0.4731  0.1989 -0.9882
  711MOL0     C95902   9.554   1.712   2.973  0.3635  0.3203  0.6600
  711MOL0     C95903   9.662   1.795   3.026  0.1523 -0.3702 -0.4332
  711MOL0     C95904   9.900   2.093   3.279  0.5099  0.0074  0.9216
  711MOL0     C95905   9.867   2.219   3.222 -0.0522 -0.4930 -0.1611
  711MOL0     C95906   9.944   2.338   3.262  0.4541  0.4190  0.5462
  711MOL0     C95907  10.040   2.326   3.364  0.1662  0.2664  0.1223
  711MOL0     O95908  10.117   2.428   3.399  0.4351  0.1801 -0.3090
  711MOL0     C95909  10.038   2.549   3.421  0.4802  0.0818  0.1424
  711MOL0     C95910  10.104   2.658   3.507  1.1935  0.7429 -0.1095
  711MOL0     C95911  10.241   2.696   3.450 -0.7367  0.1996 -0.9447
  711MOL0     C95912  10.322   2.788   3.540  0.7891 -0.3865  0.0678
  711MOL0     C95913  10.249   2.913   3.556 -1.0765  0.1038 -0.0419
  711MOL0     C95914  10.194   3.018   3.543  0.4798 -0.7181  0.3847
  711MOL0     C95915  10.059   2.203   3.428  0.4432 -0.0230  0.3313
  711MOL0     C95916   9.997   2.087   3.379  0.8146 -0.3038  0.7101
  711MOL0     C95917  10.033   1.959   3.445 -0.4415  0.1143 -0.6669
  711MOL0     H95918   9.470   2.053   3.126  1.3470 -0.0729  2.1004
  711MOL0     H95919   9.298   1.913   3.039 -0.7298 -0.3526  0.3184
  711MOL0     H95920   9.252   1.827   2.785 -1.8114  1.0266  0.7016
  711MOL0     H95921   9.351   1.705   2.704 -2.2196 -1.6278 -0.8884
  711MOL0     H95922   9.100   1.710   2.659  0.3547 -3.6073 -2.2424
  711MOL0     H95923   9.069   1.670   2.823 -1.3907  0.0793 -1.2195
  711MOL0     H95924   9.219   1.465   2.783 -2.4064 -0.3937  2.0052
  711MOL0     H95925   9.227   1.512   2.607 -2.5814  2.5806 -1.3612
  711MOL0     H95926   8.962   1.462   2.754 -0.2881  0.2125 -0.2284
  711MOL0     H95927   8.999   1.492   2.581 -1.9927  3.6981  2.6059
  711MOL0     H95928   9.137   1.273   2.580  1.8024 -0.7685  1.8474
  711MOL0     H95929   9.091   1.239   2.747 -1.1375  1.9339  1.3062
  711MOL0     H95930   8.863   1.234   2.692  1.1784 -1.0420  0.7423
  711MOL0     H95931   8.892   1.285   2.523  0.6992 -1.9856 -1.6564
  711MOL0     H95932   8.990   1.027   2.653  1.9540  0.1092 -1.1644
  711MOL0     H95933   9.021   1.077   2.489  0.3022 -0.8936  1.1022
  711MOL0     H95934   8.890   0.916   2.470  0.9672  0.8885 -2.0930
  711MOL0     H95935   8.769   0.959   2.582  0.7406 -1.5906 -0.2377
  711MOL0     H95936   8.563   0.948   2.406  0.3769 -1.5236 -3.6230
  711MOL0     H95937   8.484   1.145   2.094  1.3177  1.6167  1.7310
  711MOL0     H95938   8.439   0.983   2.153  1.3052 -1.5788 -0.9178
  711MOL0     H95939   8.329   1.089   2.354  2.3412 -1.6570  0.8933
  711MOL0     H95940   8.388   1.248   2.291  0.2099 -0.6100 -0.4728
  711MOL0     H95941   8.181   1.050   2.155  1.2515  0.2171 -1.1910
  711MOL0     H95942   8.237   1.178   2.070 -0.8590 -0.5484 -0.2869
  711MOL0     H95943   8.143   1.330   2.269 -1.0587 -0.3238  1.8925
  711MOL0     H95944   8.071   1.192   2.330  0.3131 -0.0612  0.4982
  711MOL0     H95945   7.890   1.313   2.400 -3.1116 -0.3203  2.2369
  711MOL0     H95946   7.663   1.363   2.439 -0.5084  0.2913  0.6925
  711MOL0     H95947   7.161   1.357   2.149  0.0553 -0.8454  2.4954
  711MOL0     H95948   6.926   1.471   2.207 -0.6327  0.0474  0.4123
  711MOL0     H95949   6.761   1.559   2.309 -2.7105 -1.2372 -2.5757
  711MOL0     H95950   6.700   1.715   2.326 -3.2336 -1.9742 -2.1218
  711MOL0     H95951   6.793   1.774   2.088 -0.2456  2.7898  1.6008
  711MOL0     H95952   6.791   1.591   2.080  1.0823 -0.0010  3.6315
  711MOL0     H95953   6.557   1.576   2.149  2.0047  0.9748  1.8873
  711MOL0     H95954   6.529   1.750   2.135 -0.7559  2.8968 -4.6807
  711MOL0     H95955   6.615   1.746   1.892  1.0195  0.4701  0.9326
  711MOL0     H95956   6.448   1.694   1.938  0.1768 -1.0215 -1.3804
  711MOL0     H95957   6.485   1.459   1.896  1.7708 -1.1203 -0.6091
  711MOL0     H95958   6.650   1.481   1.915  0.6299 -1.4438 -1.4844
  711MOL0     H95959   6.604   1.430   1.695 -1.5469  0.9065 -1.1238
  711MOL0     H95960   6.491   1.564   1.669 -0.1502 -0.6859 -0.5580
  711MOL0     H95961   6.769   1.640   1.726  0.5740 -0.0395  0.2286
  711MOL0     H95962   6.644   1.735   1.640 -2.7703 -1.1200 -4.7695
  711MOL0     H95963   6.639   1.609   1.447 -0.6647 -0.1515  0.5582
  711MOL0     H95964   6.805   1.669   1.478  1.0944 -0.6594  1.9292
  711MOL0     H95965   7.129   1.808   2.356  0.1007 -1.1447  2.7270
  711MOL0     H95966   7.351   1.715   2.307  2.0639 -1.8617 -0.5023
  711MOL0     H95967   7.587   1.408   2.019  0.7813 -0.0697 -2.3325
  711MOL0     H95968   7.818   1.319   1.966 -0.3681 -1.8447  0.1717
  711MOL0     H95969   9.574   1.613   2.934 -1.1682  0.3704 -0.3401
  711MOL0     H95970   9.763   1.755   3.022 -0.0083 -0.9045  0.4947
  711MOL0     H95971   9.793   2.238   3.145  0.3120  5.1765  0.4797
  711MOL0     H95972   9.927   2.438   3.225  2.3560  0.6386  0.1232
  711MOL0     H95973   9.940   2.523   3.463 -0.3043 -1.0296 -2.1962
  711MOL0     H95974  10.017   2.600   3.326  1.5843  1.3783  0.5594
  711MOL0     H95975  10.119   2.622   3.609  3.3136 -0.0895 -0.6845
  711MOL0     H95976  10.039   2.746   3.515 -0.3142 -0.2024 -1.3420
  711MOL0     H95977  10.238   2.752   3.355 -1.7322  3.0254  0.6415
  711MOL0     H95978  10.303   2.607   3.435 -1.8122 -0.3522 -2.4849
  711MOL0     H95979  10.319   2.732   3.634  0.5341 -0.9414 -0.2657
  711MOL0     H95980  10.426   2.809   3.515 -0.2093  1.2336 -3.4016
  711MOL0     H95981  10.149   3.115   3.538  1.3844 -0.3118 -0.0177
  711MOL0     H95982  10.124   2.198   3.516  0.1927  0.8780  0.5777
  711MOL0     H95983   9.950   1.889   3.461 -1.6986  1.6038 -0.4890
  711MOL0     H95984  10.096   1.918   3.366 -0.8011  1.0882 -1.4856
  711MOL0     H95985  10.098   1.964   3.532  3.4661 -0.4283 -3.2926
  712MOL0     O95986   9.727   2.512   0.625  0.7213 -0.3064 -1.0101
  712MOL0     C95987   9.685   2.621   0.599  1.0341  1.4264  0.0285
  712MOL0     O95988   9.751   2.737   0.612 -0.7501 -0.1732 -0.6111
  712MOL0     C95989   9.888   2.746   0.613 -0.8407  0.4597 -0.2769
  712MOL0     C95990   9.943   2.873   0.640  0.5748  0.9847 -0.1333
  712MOL0     C95991  10.074   2.900   0.665 -1.2773 -0.4795 -0.0611
  712MOL0     C95992  10.168   2.797   0.646 -0.3968  0.2474 -0.5980
  712MOL0     O95993  10.306   2.820   0.670  0.7256  0.4812  0.2775
  712MOL0     C95994  10.359   2.943   0.605  0.9925 -0.0961  0.4425
  712MOL0     C95995  10.367   2.946   0.448  0.0215 -0.4404 -0.5472
  712MOL0     C95996  10.464   2.838   0.402  0.4775  0.1790  0.2091
  712MOL0     C95997  10.468   2.846   0.251  0.0783 -0.8029 -0.3509
  712MOL0     C95998  10.555   2.738   0.184  0.5699 -0.3548 -0.6250
  712MOL0     C95999  10.563   2.773   0.042  0.8281  0.3463  0.0227
  712MOL0     C96000  10.653   2.677  -0.033  0.3923 -0.0448 -0.8659
  712MOL0     C96001  10.739   2.727  -0.152 -0.4054  0.6886 -1.2788
  712MOL0     N96002  10.672   2.691  -0.279 -1.0542 -1.2412  1.0544
  712MOL0     C96003  10.581   2.779  -0.343 -0.3796 -0.3467 -0.3461
  712MOL0     C96004  10.539   2.709  -0.453  0.5985  0.0501 -0.3270
  712MOL0     C96005  10.421   2.747  -0.541 -0.1057  0.8854  0.7156
  712MOL0     C96006  10.281   2.684  -0.493 -0.0134  0.5579 -0.1754
  712MOL0     C96007  10.270   2.534  -0.503  0.2212  0.7509  1.2540
  712MOL0     C96008  10.130   2.464  -0.534 -0.6569 -0.0585  0.1321
  712MOL0     O96009  10.095   2.478  -0.673  0.0061 -0.1030 -0.1409
  712MOL0     C96010  10.001   2.572  -0.692  0.4204 -0.1471  0.8673
  712MOL0     C96011   9.863   2.563  -0.646  0.1338  0.7589 -0.5975
  712MOL0     C96012   9.771   2.662  -0.676 -0.3682  0.1596  0.7083
  712MOL0     C96013   9.809   2.767  -0.760  0.2723 -1.6051  0.8705
  712MOL0     C96014   9.716   2.885  -0.788  0.1313  0.7357 -0.2294
  712MOL0     O96015   9.590   2.894  -0.722 -0.1975 -0.0326  0.0604
  712MOL0     C96016   9.522   3.007  -0.763  0.2325  0.5184  0.3416
  712MOL0     C96017   9.417   2.991  -0.854 -1.0175  0.1347 -0.2621
  712MOL0     C96018   9.344   3.108  -0.895  0.0930  0.7586 -1.2048
  712MOL0     C96019   9.365   3.238  -0.838  0.0386 -0.3537  0.1467
  712MOL0     O96020   9.298   3.343  -0.893  0.0302 -0.2884  0.5316
  712MOL0     C96021   9.343   3.481  -0.883  0.5620  0.7985  0.4675
  712MOL0     C96022   9.235   3.564  -0.941 -0.5818  0.3678 -0.2529
  712MOL0     C96023   9.250   3.700  -0.890 -0.4362  0.0899 -0.2867
  712MOL0     C96024   9.197   3.800  -0.991 -0.5310  0.6582  0.0197
  712MOL0     C96025   9.218   3.949  -0.949 -0.2433  0.1083 -0.4211
  712MOL0     C96026   9.156   4.052  -1.044 -0.5300 -0.5471 -0.2570
  712MOL0     C96027   9.175   4.193  -0.991 -1.1241 -0.4757 -0.2735
  712MOL0     C96028   9.321   4.243  -1.041 -0.1982  0.2250  0.8578
  712MOL0    Cl96029   9.312   4.419  -1.076  0.2870 -0.4055 -0.3095
  712MOL0     C96030   9.482   3.245  -0.755  0.3270  0.0998  0.3682
  712MOL0     C96031   9.554   3.130  -0.710 -0.0823  0.5122 -0.3774
  712MOL0     O96032   9.766   2.971  -0.856  0.2035 -0.1350 -0.6829
  712MOL0     C96033   9.943   2.779  -0.814 -0.3131  1.0616 -0.4637
  712MOL0     C96034  10.032   2.679  -0.776 -0.9205  0.0291  0.3072
  712MOL0     N96035  10.616   2.591  -0.467 -0.0413 -0.3528 -0.0244
  712MOL0     N96036  10.691   2.582  -0.360  0.1066 -0.1738 -0.6733
  712MOL0     C96037  10.123   2.669   0.607 -0.4601 -0.8125  0.1273
  712MOL0     C96038   9.990   2.647   0.590  0.8856  0.6932  0.0147
  712MOL0     C96039   9.542   2.643   0.570  0.7863  0.0569 -0.5352
  712MOL0     C96040   9.505   2.772   0.530  1.9483  0.5721  0.1154
  712MOL0     C96041   9.371   2.796   0.493 -0.1646  0.1451  0.0195
  712MOL0     C96042   9.271   2.705   0.516 -0.0881 -0.6723 -0.7491
  712MOL0     O96043   9.138   2.733   0.488 -0.5707  0.1503 -0.1065
  712MOL0     C96044   9.099   2.756   0.349  0.6810  1.4488 -0.2646
  712MOL0     C96045   9.095   2.616   0.274  0.1546  0.5490 -1.2327
  712MOL0     C96046   9.025   2.627   0.143 -0.4144 -0.3906 -0.4605
  712MOL0     C96047   9.090   2.717   0.036  0.2127  0.4574 -0.0787
  712MOL0     C96048   9.225   2.679   0.005 -0.0154 -0.5790  0.2132
  712MOL0     C96049   9.337   2.642  -0.014  0.1048  0.5192  1.3772
  712MOL0     C96050   9.306   2.583   0.570  0.8798 -0.1994 -1.4307
  712MOL0     C96051   9.439   2.547   0.588  0.9152  0.9786 -1.0036
  712MOL0     C96052   9.465   2.410   0.642  0.5495  0.9799 -0.3339
  712MOL0     H96053   9.874   2.957   0.645 -1.4821 -0.5535 -1.1498
  712MOL0     H96054  10.089   3.004   0.694 -5.1073  0.5123 -1.0879
  712MOL0     H96055  10.303   3.025   0.650 -1.3627 -1.6317  0.4865
  712MOL0     H96056  10.461   2.966   0.639  1.4362 -0.5969 -0.4813
  712MOL0     H96057  10.394   3.046   0.412  0.3975 -1.0960 -2.2047
  712MOL0     H96058  10.264   2.936   0.412 -1.1068  3.3929  1.1238
  712MOL0     H96059  10.415   2.741   0.421  2.3148 -0.4145  2.2424
  712MOL0     H96060  10.559   2.844   0.454 -0.0360  1.9025  1.0008
  712MOL0     H96061  10.369   2.836   0.206  0.9708 -1.2478 -2.3623
  712MOL0     H96062  10.512   2.942   0.221 -2.3395  0.3516 -0.3950
  712MOL0     H96063  10.648   2.738   0.240 -0.5912  0.8020  1.4415
  712MOL0     H96064  10.502   2.643   0.198 -2.3734  1.2227 -0.2590
  712MOL0     H96065  10.466   2.780  -0.008  0.6015 -2.6823 -0.1020
  712MOL0     H96066  10.606   2.873   0.029  0.6573  0.2331 -1.6498
  712MOL0     H96067  10.584   2.599  -0.066 -0.1352  0.2761 -0.5586
  712MOL0     H96068  10.721   2.633   0.040 -0.0881 -0.9852 -0.9709
  712MOL0     H96069  10.752   2.833  -0.130 -1.1533  0.2865  1.5124
  712MOL0     H96070  10.835   2.676  -0.136 -0.7283  0.8050  1.6442
  712MOL0     H96071  10.530   2.861  -0.292  2.3365  1.2151  0.0516
  712MOL0     H96072  10.415   2.856  -0.547 -0.5567  0.7880 -2.3728
  712MOL0     H96073  10.439   2.701  -0.639 -0.0317 -0.6886  1.4405
  712MOL0     H96074  10.273   2.714  -0.388  2.0191 -0.2275  0.2533
  712MOL0     H96075  10.196   2.737  -0.536  3.5163  4.6978 -3.0431
  712MOL0     H96076  10.309   2.493  -0.409  1.1289 -2.1021 -0.2674
  712MOL0     H96077  10.339   2.510  -0.584 -3.6501 -0.2962 -2.0208
  712MOL0     H96078  10.056   2.499  -0.462  1.7779  0.9010  2.3248
  712MOL0     H96079  10.126   2.360  -0.502 -1.5201  0.9878  3.8605
  712MOL0     H96080   9.817   2.484  -0.589 -1.2325  2.0551  0.1795
  712MOL0     H96081   9.667   2.652  -0.647 -1.2316  0.2903 -2.0504
  712MOL0     H96082   9.401   2.889  -0.890  0.8886 -0.4544  0.4303
  712MOL0     H96083   9.267   3.095  -0.970 -0.5548  1.0066 -0.5949
  712MOL0     H96084   9.378   3.507  -0.783  2.8920 -1.1748  0.2629
  712MOL0     H96085   9.441   3.483  -0.932  0.2578 -4.5204 -1.0131
  712MOL0     H96086   9.240   3.572  -1.050 -1.8489  2.4655 -0.1963
  712MOL0     H96087   9.138   3.524  -0.909  0.7034 -2.4325  0.4685
  712MOL0     H96088   9.197   3.709  -0.794 -0.9189  1.5363 -0.6597
  712MOL0     H96089   9.356   3.726  -0.884 -0.3138 -0.1415 -1.3198
  712MOL0     H96090   9.092   3.780  -1.015 -0.9286  1.1093  1.3022
  712MOL0     H96091   9.243   3.794  -1.090  1.9832 -1.1957  1.2109
  712MOL0     H96092   9.324   3.975  -0.958  0.2046 -1.9761 -1.9240
  712MOL0     H96093   9.189   3.949  -0.843  1.4915 -1.2896  0.1028
  712MOL0     H96094   9.191   4.046  -1.147 -1.3644  3.3347 -0.9331
  712MOL0     H96095   9.048   4.039  -1.058 -0.3854 -1.0658 -0.9542
  712MOL0     H96096   9.172   4.214  -0.883  2.5925  0.4255 -0.1921
  712MOL0     H96097   9.104   4.259  -1.041  0.3590  0.7196 -0.9157
  712MOL0     H96098   9.405   4.226  -0.973  1.4120 -1.4557 -1.3635
  712MOL0     H96099   9.356   4.192  -1.132 -2.1090  3.3239 -1.8355
  712MOL0     H96100   9.505   3.349  -0.734  0.3830  0.4285 -1.2145
  712MOL0     H96101   9.629   3.131  -0.632 -0.3541  2.5723 -0.0837
  712MOL0     H96102   9.976   2.850  -0.889 -0.5109 -1.1316 -2.7584
  712MOL0     H96103  10.138   2.688  -0.800 -1.1287  4.1659  0.1385
  712MOL0     H96104  10.184   2.580   0.593 -0.9301 -1.1040 -0.0925
  712MOL0     H96105   9.947   2.551   0.564 -1.3669  1.7769 -0.5507
  712MOL0     H96106   9.573   2.857   0.526  1.7131  0.7251 -2.9731
  712MOL0     H96107   9.325   2.884   0.449 -2.3598  0.8496  3.4147
  712MOL0     H96108   9.162   2.825   0.293  0.5102 -0.4782 -3.0552
  712MOL0     H96109   8.994   2.785   0.350 -0.4286 -2.1048  0.3454
  712MOL0     H96110   9.048   2.535   0.330 -0.9600  0.7033 -1.9277
  712MOL0     H96111   9.201   2.593   0.257  0.4561  1.3182 -0.4866
  712MOL0     H96112   8.920   2.656   0.155 -0.5661 -1.7336  2.4385
  712MOL0     H96113   9.011   2.532   0.091  1.8856 -0.5243 -0.9457
  712MOL0     H96114   9.031   2.716  -0.056  0.6668  0.7445 -0.3775
  712MOL0     H96115   9.076   2.823   0.061 -2.1320  0.1400  0.1707
  712MOL0     H96116   9.426   2.584  -0.029 -2.5998 -3.5035 -1.0826
  712MOL0     H96117   9.223   2.523   0.604  2.1904 -0.6138  1.2701
  712MOL0     H96118   9.539   2.362   0.578  0.5032  2.3808 -1.4888
  712MOL0     H96119   9.518   2.405   0.737  1.7866 -1.5541 -1.0656
  712MOL0     H96120   9.374   2.352   0.661  1.4518 -0.3656  0.0185
  713MOL0     O96121   9.749  10.119   4.806  0.0849 -0.6005  0.9896
  713MOL0     C96122   9.815  10.152   4.705  0.2089  0.8244 -0.4017
  713MOL0     O96123   9.946  10.164   4.717 -0.0497  0.5017 -0.4862
  713MOL0     C96124  10.018  10.092   4.809  0.1980  0.4320  0.2816
  713MOL0     C96125   9.991   9.971   4.864 -0.5059  0.3575  0.9721
  713MOL0     C96126  10.086   9.894   4.929 -0.3040  0.7973  0.3630
  713MOL0     C96127  10.204   9.945   4.964  0.2409 -0.0882  0.0851
  713MOL0     O96128  10.292   9.859   5.019 -0.5225 -0.2576  0.6084
  713MOL0     C96129  10.428   9.885   4.984  0.8731 -0.2915 -0.2488
  713MOL0     C96130  10.522   9.798   5.054  0.0434 -0.0337 -0.1944
  713MOL0     C96131  10.517   9.659   4.985 -0.4944 -0.4308 -0.0018
  713MOL0     C96132  10.652   9.592   4.984  0.0247 -0.7395 -0.7019
  713MOL0     C96133  10.645   9.435   4.986  0.3296 -1.0358  0.5090
  713MOL0     C96134  10.546   9.382   4.887  0.2535 -0.2819  0.1681
  713MOL0     C96135  10.577   9.234   4.853  0.3853  0.2355 -0.4926
  713MOL0     C96136  10.522   9.176   4.718  0.6304  0.7870 -0.1369
  713MOL0     N96137  10.594   9.195   4.595  0.6581  0.4552 -1.0796
  713MOL0     C96138  10.550   9.257   4.484 -0.0052 -0.3093  0.0646
  713MOL0     C96139  10.661   9.260   4.406 -0.3153 -0.5355 -0.1844
  713MOL0     C96140  10.670   9.324   4.270  0.0092  0.6772 -0.0314
  713MOL0     C96141  10.690   9.480   4.273  0.1117 -0.2176 -0.1998
  713MOL0     C96142  10.677   9.541   4.135  0.0572 -0.6496 -1.8102
  713MOL0     C96143  10.536   9.537   4.074 -1.1356  0.1882  0.6704
  713MOL0     O96144  10.426   9.555   4.170 -0.1646  0.0026  0.1445
  713MOL0     C96145  10.294   9.533   4.127 -0.3198 -0.5514  0.6784
  713MOL0     C96146  10.185   9.564   4.203 -0.1218 -0.1368 -0.2391
  713MOL0     C96147  10.050   9.568   4.146 -0.3836 -0.2915  0.6344
  713MOL0     C96148  10.028   9.516   4.008 -1.5343  0.2878 -0.5614
  713MOL0     C96149   9.900   9.515   3.954  0.2589 -0.1279  0.8236
  713MOL0     O96150   9.894   9.545   3.819 -0.3233  0.1632  0.6533
  713MOL0     C96151   9.763   9.577   3.778  0.0722  0.1343  0.5527
  713MOL0     C96152   9.712   9.700   3.819  0.7453 -0.7801  0.9558
  713MOL0     C96153   9.576   9.728   3.793  1.2920 -0.4485  0.2105
  713MOL0     C96154   9.488   9.639   3.726 -0.3601  0.8072  0.9579
  713MOL0     O96155   9.360   9.676   3.716  0.4339 -0.0511  0.3642
  713MOL0     C96156   9.269   9.603   3.630 -0.4750  0.0502 -0.1763
  713MOL0     C96157   9.166   9.687   3.547 -0.4770  0.7198 -0.2256
  713MOL0     C96158   9.070   9.763   3.638 -0.4948  0.4074  0.2363
  713MOL0     C96159   9.141   9.842   3.742 -0.1504 -0.2446  0.1229
  713MOL0     C96160   9.039   9.926   3.811  0.4207 -0.7273  0.1912
  713MOL0     C96161   9.085   9.998   3.940  0.1246  0.3017 -0.1909
  713MOL0     C96162   8.962  10.054   4.011  0.7849  0.4776 -0.3255
  713MOL0     C96163   8.995  10.172   4.104  0.3954  0.5734 -0.6074
  713MOL0    Cl96164   9.038  10.092   4.264  0.2226  0.1343  0.4394
  713MOL0     C96165   9.542   9.517   3.690  0.0604 -0.0089  1.1759
  713MOL0     C96166   9.676   9.485   3.718  0.0013 -0.0980  0.6191
  713MOL0     O96167   9.806   9.486   4.025  0.0587  0.6110  0.4452
  713MOL0     C96168  10.141   9.476   3.934  0.3913 -0.2214  0.8771
  713MOL0     C96169  10.269   9.496   3.986 -0.7774 -0.2612 -0.2764
  713MOL0     N96170  10.764   9.210   4.466 -0.2511  0.5153 -0.3232
  713MOL0     N96171  10.724   9.160   4.588 -0.5270  0.3239  0.0722
  713MOL0     C96172  10.231  10.073   4.918  0.5538 -0.3623 -0.1979
  713MOL0     C96173  10.146  10.140   4.837  0.6285 -0.3485  0.4194
  713MOL0     C96174   9.744  10.170   4.570  0.5427 -0.0662 -0.2551
  713MOL0     C96175   9.610  10.138   4.557 -0.0676  0.3360  0.3242
  713MOL0     C96176   9.545  10.178   4.430  0.2627  0.2032 -0.1128
  713MOL0     C96177   9.607  10.224   4.317 -0.5360 -0.3185  0.0940
  713MOL0     O96178   9.527  10.255   4.218  0.8628  0.1610  0.0576
  713MOL0     C96179   9.571  10.318   4.098 -0.0579 -0.0694 -0.1866
  713MOL0     C96180   9.469  10.293   3.985 -0.0284 -0.0212  0.6048
  713MOL0     C96181   9.470  10.147   3.944  0.7547 -0.9507  0.0050
  713MOL0     C96182   9.466  10.144   3.785  0.7808 -0.5170 -0.4838
  713MOL0     C96183   9.334  10.168   3.719 -0.3716 -0.4640  0.5732
  713MOL0     C96184   9.234  10.179   3.650 -0.9292 -0.5828 -0.5628
  713MOL0     C96185   9.743  10.243   4.333 -0.1899 -0.4789  0.4599
  713MOL0     C96186   9.808  10.228   4.461 -0.1789  0.0439  0.0331
  713MOL0     C96187   9.954  10.259   4.467 -0.3708 -0.7013  0.4138
  713MOL0     H96188   9.899   9.924   4.831  0.5424 -0.2549 -1.3086
  713MOL0     H96189  10.075   9.794   4.968  4.7486 -0.1812 -0.0333
  713MOL0     H96190  10.438   9.887   4.875  1.7483  3.5361 -0.2464
  713MOL0     H96191  10.451   9.982   5.030  0.2434 -0.0894 -0.3399
  713MOL0     H96192  10.475   9.781   5.151 -0.5078  2.3410  0.0032
  713MOL0     H96193  10.623   9.838   5.072 -0.0738 -0.1794  0.8913
  713MOL0     H96194  10.483   9.664   4.881 -5.7936 -2.2913  1.3350
  713MOL0     H96195  10.438   9.602   5.036 -0.7667  2.6308  3.3983
  713MOL0     H96196  10.719   9.641   4.913  0.8076  1.0048  1.1383
  713MOL0     H96197  10.691   9.623   5.082  1.6275  1.1349 -1.8651
  713MOL0     H96198  10.744   9.409   4.949 -0.0310 -2.9396  0.8083
  713MOL0     H96199  10.619   9.403   5.088 -1.2517 -1.1771  0.0971
  713MOL0     H96200  10.439   9.395   4.906  0.3661  1.6379 -0.2187
  713MOL0     H96201  10.579   9.445   4.803  0.5790  0.7032  1.0206
  713MOL0     H96202  10.558   9.171   4.940 -0.5032  0.1365 -0.7511
  713MOL0     H96203  10.685   9.234   4.835  0.1988  0.7123 -1.7425
  713MOL0     H96204  10.515   9.067   4.723 -1.5237  0.9621  2.5229
  713MOL0     H96205  10.418   9.205   4.707 -0.8362 -1.7182  4.6500
  713MOL0     H96206  10.448   9.284   4.457  0.2598  0.0610 -0.6158
  713MOL0     H96207  10.746   9.268   4.216 -1.1397 -1.1269  0.1360
  713MOL0     H96208  10.577   9.294   4.220 -0.8427 -1.5963  2.6748
  713MOL0     H96209  10.607   9.524   4.329  0.7901 -0.4847  1.0421
  713MOL0     H96210  10.774   9.522   4.328  0.5387 -0.6670 -0.4988
  713MOL0     H96211  10.750   9.486   4.075 -0.5125 -5.0692  1.0834
  713MOL0     H96212  10.703   9.647   4.148 -1.7771 -0.4309  1.1027
  713MOL0     H96213  10.532   9.443   4.018 -0.0416  0.4023  0.2201
  713MOL0     H96214  10.522   9.623   4.009 -3.1857  0.7134  1.7203
  713MOL0     H96215  10.222   9.591   4.301 -1.8764 -2.9441  1.3582
  713MOL0     H96216   9.967   9.588   4.213  1.2858  2.1685  2.1114
  713MOL0     H96217   9.755   9.775   3.885  0.0507 -1.5206  2.3155
  713MOL0     H96218   9.538   9.827   3.818 -2.4686 -1.7716  0.3893
  713MOL0     H96219   9.322   9.546   3.553  0.4578 -1.1129  1.2510
  713MOL0     H96220   9.206   9.536   3.690 -4.3596  3.5719  0.1222
  713MOL0     H96221   9.214   9.765   3.488 -0.7645  0.2153 -1.1418
  713MOL0     H96222   9.110   9.619   3.482  0.3236 -0.4769  0.2954
  713MOL0     H96223   9.016   9.837   3.579 -2.7104 -2.1805 -1.2441
  713MOL0     H96224   8.996   9.696   3.682 -3.5422  3.6818  0.5199
  713MOL0     H96225   9.220   9.901   3.695  0.3537  0.1128  1.3688
  713MOL0     H96226   9.170   9.775   3.824  0.7092 -3.8038 -2.8647
  713MOL0     H96227   8.960   9.857   3.843 -0.5039 -0.3569 -1.2242
  713MOL0     H96228   8.993  10.000   3.745 -1.1999 -0.4674  1.5370
  713MOL0     H96229   9.138   9.941   4.016 -0.9838 -0.0578  0.3373
  713MOL0     H96230   9.153  10.082   3.920  1.2945 -0.3158  1.0600
  713MOL0     H96231   8.916   9.974   4.071  1.4423 -0.0970 -0.5695
  713MOL0     H96232   8.887  10.081   3.937  0.4884 -1.1741 -0.6741
  713MOL0     H96233   9.080  10.230   4.068  1.0998  1.7738  2.7057
  713MOL0     H96234   8.912  10.242   4.112 -1.1893 -1.3813  1.6416
  713MOL0     H96235   9.472   9.449   3.643 -1.4420  3.3158 -1.8438
  713MOL0     H96236   9.718   9.389   3.691  4.0633  1.2510  1.4497
  713MOL0     H96237  10.123   9.436   3.835  2.9762 -2.5734  1.2330
  713MOL0     H96238  10.346   9.488   3.910 -1.2611 -3.1211 -0.5662
  713MOL0     H96239  10.326  10.121   4.938 -1.1046  1.9456  3.3386
  713MOL0     H96240  10.174  10.237   4.796  0.6105 -0.5168  0.0145
  713MOL0     H96241   9.556  10.097   4.642 -1.2822  0.6927 -0.2432
  713MOL0     H96242   9.437  10.177   4.440  0.2868  2.5971  1.0642
  713MOL0     H96243   9.668  10.278   4.068 -0.5282 -0.1263 -1.6978
  713MOL0     H96244   9.589  10.426   4.100  0.8998 -0.2068 -0.8324
  713MOL0     H96245   9.505  10.348   3.898  1.2569 -2.7062 -0.6832
  713MOL0     H96246   9.370  10.331   4.013  0.1512 -0.2802  1.6356
  713MOL0     H96247   9.380  10.103   3.989 -0.5713  2.9155  1.5861
  713MOL0     H96248   9.548  10.096   4.000  0.3296  0.4882  2.0461
  713MOL0     H96249   9.545  10.213   3.752  2.9584 -1.7202  1.8237
  713MOL0     H96250   9.496  10.042   3.758 -0.0561 -1.7602  2.7695
  713MOL0     H96251   9.146  10.186   3.588  0.6358  3.5048 -2.7617
  713MOL0     H96252   9.790  10.292   4.248 -1.9374 -0.4020 -0.5076
  713MOL0     H96253   9.983  10.334   4.542 -1.1430 -0.5768  0.6039
  713MOL0     H96254  10.011  10.169   4.490 -0.4681 -0.0254  3.8594
  713MOL0     H96255   9.980  10.297   4.368  3.4623  0.0798  1.5598
  714MOL0     O96256   5.743   9.614   5.926  0.6204 -0.7533 -0.3516
  714MOL0     C96257   5.825   9.681   5.861 -0.1729 -0.1531  1.0619
  714MOL0     O96258   5.841   9.819   5.858 -0.6195  0.1609 -0.1858
  714MOL0     C96259   5.784   9.894   5.951 -0.2003 -0.0618  0.3511
  714MOL0     C96260   5.795   9.868   6.086  0.0163 -0.2996  0.2828
  714MOL0     C96261   5.732   9.966   6.174  0.4559  0.0920  0.3504
  714MOL0     C96262   5.659  10.073   6.128  0.4054 -0.9833  0.7042
  714MOL0     O96263   5.619  10.152   6.227 -0.4676 -0.2617  0.5473
  714MOL0     C96264   5.519  10.250   6.199  0.0419 -0.3033 -0.5664
  714MOL0     C96265   5.455  10.276   6.341  0.1108  1.1192 -0.1045
  714MOL0     C96266   5.356  10.392   6.349  0.1422  0.5915  0.5172
  714MOL0     C96267   5.271  10.385   6.483 -0.3725 -1.3551 -0.0226
  714MOL0     C96268   5.184  10.511   6.500  0.0900 -0.5399  0.9518
  714MOL0     C96269   5.032  10.472   6.490  0.4551 -0.4165  0.3632
  714MOL0     C96270   4.940  10.596   6.507  0.0530 -0.5003  0.6893
  714MOL0     C96271   4.970  10.702   6.409 -0.4282  0.2293  0.6453
  714MOL0     N96272   4.888  10.814   6.432  1.0442  0.6123 -0.4971
  714MOL0     C96273   4.926  10.926   6.501 -0.3988  0.5203 -0.3074
  714MOL0     C96274   4.811  10.988   6.529 -0.8883  0.9168  0.6714
  714MOL0     C96275   4.807  11.117   6.608 -0.2314  0.6792 -0.6296
  714MOL0     C96276   4.657  11.146   6.654 -0.0667 -0.3557 -0.3101
  714MOL0     C96277   4.593  11.049   6.758 -0.4166 -0.1271 -0.5978
  714MOL0     C96278   4.477  11.108   6.819 -0.0436 -0.0743 -0.6370
  714MOL0     O96279   4.511  11.224   6.899 -0.1980  0.5180 -0.4332
  714MOL0     C96280   4.573  11.227   7.025 -0.9769  0.9460  0.3194
  714MOL0     C96281   4.607  11.118   7.104 -0.0736  0.2899 -0.2944
  714MOL0     C96282   4.695  11.131   7.216 -0.1194 -0.3913 -0.6939
  714MOL0     C96283   4.746  11.260   7.254  1.0631  0.3084  0.3169
  714MOL0     C96284   4.845  11.281   7.359 -0.4402 -0.1690  0.0044
  714MOL0     O96285   4.853  11.413   7.403 -0.5694  0.7216 -0.6004
  714MOL0     C96286   4.917  11.429   7.524  1.0808 -1.0184  0.0970
  714MOL0     C96287   5.056  11.466   7.516  0.1933  0.8482 -0.4518
  714MOL0     C96288   5.136  11.478   7.631  0.9969 -0.3836 -0.1448
  714MOL0     C96289   5.075  11.464   7.753 -0.3077  0.3279  0.0414
  714MOL0     O96290   5.130  11.488   7.879  0.0224 -0.8190 -0.9265
  714MOL0     C96291   5.264  11.546   7.889 -0.5990 -0.6177  0.0763
  714MOL0     C96292   5.384  11.454   7.922  0.7829  0.0634 -0.4419
  714MOL0     C96293   5.399  11.423   8.069 -0.4845  0.3241 -0.0426
  714MOL0     C96294   5.477  11.290   8.095 -0.1518  0.5681  1.1760
  714MOL0     C96295   5.449  11.211   8.221 -0.2967 -0.3017  0.3069
  714MOL0     C96296   5.488  11.279   8.352 -0.1396 -0.1793  0.2082
  714MOL0     C96297   5.631  11.341   8.359 -1.1421 -0.5008  0.2297
  714MOL0     C96298   5.690  11.349   8.493  0.5391 -1.1249  0.1058
  714MOL0    Cl96299   5.698  11.203   8.593 -0.1442  0.2519  0.1515
  714MOL0     C96300   4.934  11.439   7.757 -0.0353 -0.6016 -0.2517
  714MOL0     C96301   4.858  11.410   7.641  0.0756 -0.3618 -0.6212
  714MOL0     O96302   4.902  11.188   7.404 -0.0538 -0.2411  0.0959
  714MOL0     C96303   4.693  11.368   7.183 -0.1908 -0.3912 -0.2038
  714MOL0     C96304   4.611  11.348   7.072  0.7960  0.0537 -0.4702
  714MOL0     N96305   4.696  10.921   6.476 -0.1032 -0.8365 -0.0983
  714MOL0     N96306   4.749  10.825   6.406  0.5298  0.3859 -0.3198
  714MOL0     C96307   5.644  10.091   5.994  0.4090  0.5530 -0.8480
  714MOL0     C96308   5.714  10.006   5.908 -0.6382 -0.3176  0.2350
  714MOL0     C96309   5.921   9.597   5.781  1.1060 -0.0509 -0.0030
  714MOL0     C96310   5.899   9.585   5.649  0.1111 -0.1329  0.5695
  714MOL0     C96311   5.986   9.502   5.569 -0.0827  0.3053 -0.1948
  714MOL0     C96312   6.099   9.441   5.621 -0.6857  0.3823 -0.7822
  714MOL0     O96313   6.188   9.385   5.530  0.3994  0.4098  0.3244
  714MOL0     C96314   6.323   9.367   5.566  0.1028  0.3664  0.3556
  714MOL0     C96315   6.420   9.323   5.458  0.2977  0.5226 -0.1588
  714MOL0     C96316   6.360   9.225   5.358  0.0567  0.4557 -0.8445
  714MOL0     C96317   6.466   9.142   5.284 -0.5739  0.2486  0.9558
  714MOL0     C96318   6.557   9.232   5.206  0.1091  0.2745  0.7607
  714MOL0     C96319   6.623   9.303   5.132  0.4663  0.0688 -0.6575
  714MOL0     C96320   6.112   9.442   5.766 -0.4195 -0.6981  0.5321
  714MOL0     C96321   6.028   9.521   5.842  0.9704 -0.5730 -0.8171
  714MOL0     C96322   6.052   9.550   5.994 -0.7680  0.3589 -0.3199
  714MOL0     H96323   5.874   9.809   6.132 -0.2377 -1.9590 -1.2744
  714MOL0     H96324   5.735   9.965   6.283 -1.2731  0.6226  0.4379
  714MOL0     H96325   5.556  10.345   6.158  2.8689 -1.5064 -1.0518
  714MOL0     H96326   5.445  10.211   6.129  1.9641 -4.3504 -0.6117
  714MOL0     H96327   5.532  10.295   6.416  0.8571 -1.9741  0.0444
  714MOL0     H96328   5.408  10.183   6.375 -0.2357  0.6814 -1.7122
  714MOL0     H96329   5.285  10.375   6.267  1.4965  1.8154 -0.9773
  714MOL0     H96330   5.406  10.484   6.318 -0.0623 -0.2387 -2.5977
  714MOL0     H96331   5.218  10.290   6.478  2.4812 -3.0093 -3.9433
  714MOL0     H96332   5.332  10.379   6.573 -1.2012 -0.0329  0.6625
  714MOL0     H96333   5.215  10.552   6.597  0.1542  1.4794  0.1221
  714MOL0     H96334   5.213  10.573   6.414 -1.4224 -1.2973 -0.1364
  714MOL0     H96335   5.007  10.422   6.396 -2.7521 -0.6128  1.1805
  714MOL0     H96336   5.000  10.406   6.571 -0.9510  1.2241  1.2258
  714MOL0     H96337   4.960  10.641   6.605  0.6984 -0.9902  0.7936
  714MOL0     H96338   4.834  10.572   6.516  0.2038 -0.8691  1.5918
  714MOL0     H96339   5.076  10.725   6.419 -0.9970  2.0830  3.4579
  714MOL0     H96340   4.960  10.668   6.305  0.9324  1.5685  0.0540
  714MOL0     H96341   5.018  10.947   6.554 -1.9493  0.0384  2.8253
  714MOL0     H96342   4.879  11.132   6.689  0.4084  2.5713 -1.5065
  714MOL0     H96343   4.830  11.194   6.533  0.7922  0.2326 -0.7959
  714MOL0     H96344   4.660  11.245   6.701  2.0537 -0.3723 -0.2967
  714MOL0     H96345   4.590  11.146   6.568 -0.2418 -2.3807 -0.2328
  714MOL0     H96346   4.662  11.024   6.839  0.8442 -0.7590 -1.8188
  714MOL0     H96347   4.562  10.959   6.704 -1.1641  0.3829 -1.0336
  714MOL0     H96348   4.430  11.034   6.886  0.5443  1.2108  1.2715
  714MOL0     H96349   4.407  11.136   6.740 -1.1188  0.2536  0.3974
  714MOL0     H96350   4.562  11.023   7.076 -1.5396  0.6485  0.7478
  714MOL0     H96351   4.726  11.045   7.275  0.4321  1.3325  1.6975
  714MOL0     H96352   5.105  11.483   7.421 -1.8433  0.7904 -1.5575
  714MOL0     H96353   5.244  11.486   7.617  1.2723 -0.9766  1.4539
  714MOL0     H96354   5.285  11.595   7.794 -2.0644 -0.6862 -0.3023
  714MOL0     H96355   5.268  11.625   7.965  0.2072 -1.5844  1.0614
  714MOL0     H96356   5.389  11.361   7.865  2.9854 -1.4308  1.9776
  714MOL0     H96357   5.475  11.506   7.891  0.5958  1.8773  1.8115
  714MOL0     H96358   5.469  11.495   8.114  0.0854  0.3329 -0.9287
  714MOL0     H96359   5.294  11.422   8.102 -1.1495  0.6180 -2.0400
  714MOL0     H96360   5.582  11.317   8.084  0.4955 -2.5378 -2.8979
  714MOL0     H96361   5.465  11.222   8.010  2.5611  0.7367  0.5663
  714MOL0     H96362   5.493  11.111   8.219  1.3053  0.3598  0.6955
  714MOL0     H96363   5.341  11.197   8.231 -0.6030  1.1670 -0.5596
  714MOL0     H96364   5.419  11.360   8.380  0.8773  0.9234 -0.3535
  714MOL0     H96365   5.481  11.200   8.427  2.1944 -0.6560  0.0096
  714MOL0     H96366   5.628  11.438   8.308 -3.2684 -0.1953  0.8400
  714MOL0     H96367   5.699  11.273   8.306  0.1396 -0.3662  1.6250
  714MOL0     H96368   5.789  11.391   8.474  0.6916 -1.9008 -0.9438
  714MOL0     H96369   5.632  11.426   8.545  1.2824  1.3761 -2.5193
  714MOL0     H96370   4.875  11.438   7.848  0.7486 -0.1571  0.2667
  714MOL0     H96371   4.752  11.387   7.648  0.5021 -1.8839  2.7315
  714MOL0     H96372   4.709  11.475   7.199 -0.1930 -0.6850  1.9986
  714MOL0     H96373   4.562  11.429   7.019  1.0409  1.1573  0.9334
  714MOL0     H96374   5.595  10.179   5.955 -1.4693 -0.2501 -0.4109
  714MOL0     H96375   5.728  10.031   5.803  0.7704 -1.5556  0.0915
  714MOL0     H96376   5.814   9.632   5.599 -0.4320 -2.1365 -0.4882
  714MOL0     H96377   5.972   9.513   5.461  2.9460  1.7782 -0.5395
  714MOL0     H96378   6.315   9.293   5.647  1.2519  0.6522  0.7547
  714MOL0     H96379   6.354   9.466   5.601 -1.5597  1.6708 -1.6774
  714MOL0     H96380   6.517   9.289   5.498  0.4022 -0.4032 -1.1458
  714MOL0     H96381   6.438   9.415   5.402  4.6706 -1.4413 -2.4820
  714MOL0     H96382   6.297   9.287   5.294 -0.4704  1.4157  0.5646
  714MOL0     H96383   6.299   9.156   5.417 -1.2366  0.7823 -1.7749
  714MOL0     H96384   6.520   9.077   5.353  1.9259  1.3629  0.1822
  714MOL0     H96385   6.432   9.068   5.211  5.0940  0.4100 -2.4419
  714MOL0     H96386   6.678   9.361   5.060 -2.6028  3.1154 -0.8067
  714MOL0     H96387   6.202   9.400   5.808  0.6168 -0.5128 -1.3887
  714MOL0     H96388   5.991   9.478   6.048 -0.8567  0.2662 -0.5468
  714MOL0     H96389   6.153   9.529   6.031 -0.1311 -1.8770 -2.9965
  714MOL0     H96390   6.028   9.655   6.016 -0.4825  0.3643 -0.0300
  715MOL0     O96391  11.119   8.851  11.253 -0.1119 -0.3490  0.0566
  715MOL0     C96392  11.213   8.778  11.267  0.2464 -0.3055 -0.5828
  715MOL0     O96393  11.329   8.795  11.201 -0.6271 -0.4544 -0.9725
  715MOL0     C96394  11.331   8.858  11.074 -0.2204 -0.1236 -0.1967
  715MOL0     C96395  11.410   8.799  10.976 -0.8768 -0.4873  0.2064
  715MOL0     C96396  11.424   8.857  10.856  0.8884  0.0015 -0.1608
  715MOL0     C96397  11.346   8.972  10.822 -0.5425  0.0756  0.3940
  715MOL0     O96398  11.337   9.020  10.689 -0.6880 -0.1009 -0.1228
  715MOL0     C96399  11.370   8.932  10.579  0.2856  0.0513  0.1499
  715MOL0     C96400  11.383   9.011  10.454  0.0258  0.4360  0.2595
  715MOL0     C96401  11.492   9.114  10.455 -1.0273 -0.4966 -0.9270
  715MOL0     C96402  11.630   9.049  10.472  0.5311  0.2355 -0.6937
  715MOL0     C96403  11.734   9.154  10.442  0.2793  0.3977  0.7562
  715MOL0     C96404  11.790   9.204  10.567 -0.3497  0.1064 -0.6218
  715MOL0     C96405  11.689   9.304  10.643  0.2287 -0.1940  1.2872
  715MOL0     C96406  11.747   9.384  10.759  0.6204  0.4964  0.3805
  715MOL0     N96407  11.732   9.320  10.888 -0.2362 -0.7923 -0.1790
  715MOL0     C96408  11.614   9.298  10.951  0.9310 -0.4445 -0.1187
  715MOL0     C96409  11.651   9.279  11.086 -0.3881  0.2513  0.4529
  715MOL0     C96410  11.575   9.255  11.210  0.0583  1.0244 -1.0642
  715MOL0     C96411  11.544   9.105  11.240 -0.2411 -0.5785 -0.4248
  715MOL0     C96412  11.675   9.037  11.280 -0.1161 -0.3108  0.5164
  715MOL0     C96413  11.673   8.896  11.287  0.0727  1.2573  0.6926
  715MOL0     O96414  11.624   8.850  11.418 -0.2924  0.4459  0.5462
  715MOL0     C96415  11.707   8.817  11.524 -0.0572 -0.0287 -0.5057
  715MOL0     C96416  11.660   8.754  11.638  0.6069  0.1161 -0.4238
  715MOL0     C96417  11.746   8.721  11.743  0.2633  0.1256  0.5116
  715MOL0     C96418  11.880   8.755  11.744 -0.5312  0.9028 -0.0092
  715MOL0     C96419  11.964   8.729  11.870  0.3043 -0.9280  1.2016
  715MOL0     O96420  12.097   8.760  11.857  0.6318  0.0743 -0.9083
  715MOL0     C96421  12.175   8.728  11.961 -0.0117 -0.0133  0.6104
  715MOL0     C96422  12.165   8.782  12.092 -0.0543  0.5452 -0.4851
  715MOL0     C96423  12.230   8.738  12.202  0.0134  0.3853 -0.2472
  715MOL0     C96424  12.308   8.622  12.192  0.4413 -0.6563 -0.2042
  715MOL0     O96425  12.368   8.564  12.298  0.0717  0.6018 -0.4422
  715MOL0     C96426  12.481   8.472  12.279 -0.4466  0.0107  0.7778
  715MOL0     C96427  12.566   8.449  12.408  0.6350  0.1400  0.0837
  715MOL0     C96428  12.496   8.375  12.522 -0.6474  0.2466  0.4300
  715MOL0     C96429  12.597   8.337  12.638 -0.1265 -0.6800  0.2011
  715MOL0     C96430  12.525   8.277  12.761 -0.3341 -0.4104  0.7971
  715MOL0     C96431  12.512   8.381  12.870  0.5562 -0.4352  0.0525
  715MOL0     C96432  12.642   8.429  12.931 -0.1635 -0.4749  0.2141
  715MOL0     C96433  12.626   8.478  13.080  0.1171  0.1464  1.2732
  715MOL0    Cl96434  12.580   8.340  13.188  0.2746 -0.3157 -0.3805
  715MOL0     C96435  12.328   8.573  12.063 -0.1624 -0.4146  0.0281
  715MOL0     C96436  12.273   8.630  11.948  0.3702  0.5480  0.2437
  715MOL0     O96437  11.908   8.674  11.961  0.4891  0.8552 -0.0201
  715MOL0     C96438  11.932   8.823  11.628 -1.0950  0.5202  0.3736
  715MOL0     C96439  11.844   8.854  11.526 -0.5264  0.2671  0.2840
  715MOL0     N96440  11.795   9.278  11.094  0.2242 -0.2764  0.4956
  715MOL0     N96441  11.835   9.294  10.978 -0.1768 -0.2479  0.0385
  715MOL0     C96442  11.263   9.026  10.916 -0.3470  0.0058  0.4756
  715MOL0     C96443  11.253   8.971  11.041  0.4250  0.2843  0.2681
  715MOL0     C96444  11.216   8.680  11.381 -0.5589  0.1210  0.0189
  715MOL0     C96445  11.341   8.625  11.416 -0.4135  0.2525  0.0224
  715MOL0     C96446  11.359   8.528  11.515 -0.2606  0.3081  0.2879
  715MOL0     C96447  11.246   8.478  11.589 -1.0789  0.2093 -0.6633
  715MOL0     O96448  11.259   8.377  11.683  0.0728  0.6417 -0.3714
  715MOL0     C96449  11.243   8.430  11.820 -0.0701 -0.7421  0.7127
  715MOL0     C96450  11.320   8.364  11.932 -0.0614 -0.0651 -0.9678
  715MOL0     C96451  11.295   8.421  12.077  0.2374  0.6546  0.5997
  715MOL0     C96452  11.409   8.507  12.139 -0.8653 -0.1260 -0.0605
  715MOL0     C96453  11.442   8.633  12.056 -1.0789  0.7391 -0.7940
  715MOL0     C96454  11.469   8.736  12.002  1.3209 -0.4119  0.9843
  715MOL0     C96455  11.126   8.546  11.570 -0.1742 -0.4129  0.2995
  715MOL0     C96456  11.107   8.640  11.464 -0.0206  0.6960  0.7938
  715MOL0     C96457  10.970   8.681  11.438  0.6036  0.1305  0.7519
  715MOL0     H96458  11.474   8.713  10.992 -1.6147 -0.7195  2.3490
  715MOL0     H96459  11.492   8.812  10.785  1.9307  0.8775  0.2584
  715MOL0     H96460  11.457   8.866  10.589  1.0171  0.3553 -3.1381
  715MOL0     H96461  11.289   8.857  10.579 -0.9974  1.3505 -1.4800
  715MOL0     H96462  11.293   9.066  10.424  0.8151  1.4094 -0.4025
  715MOL0     H96463  11.400   8.941  10.372 -1.1111  1.0600 -0.5382
  715MOL0     H96464  11.463   9.185  10.533 -3.2529  1.0171 -2.9899
  715MOL0     H96465  11.494   9.175  10.365  1.4299  1.2052  0.1622
  715MOL0     H96466  11.636   9.010  10.574 -0.4524 -2.4212 -1.5645
  715MOL0     H96467  11.645   8.969  10.399 -0.8617  0.3391 -1.1281
  715MOL0     H96468  11.814   9.104  10.385 -0.0907  0.4996  0.1396
  715MOL0     H96469  11.696   9.240  10.386  0.8727  0.7909  0.9423
  715MOL0     H96470  11.827   9.125  10.632 -1.9773  0.2132  0.4787
  715MOL0     H96471  11.873   9.270  10.540 -0.3785  0.8441  0.9945
  715MOL0     H96472  11.609   9.240  10.681 -0.6967  1.6253  2.5803
  715MOL0     H96473  11.644   9.369  10.568 -1.1826 -1.9343  0.5613
  715MOL0     H96474  11.847   9.427  10.748  0.7482  0.3940  1.0906
  715MOL0     H96475  11.691   9.477  10.770 -0.8702  0.2626 -3.4672
  715MOL0     H96476  11.513   9.305  10.913  1.4206 -0.4018 -1.4746
  715MOL0     H96477  11.624   9.296  11.298 -1.5444 -2.7528  1.8474
  715MOL0     H96478  11.477   9.302  11.199 -1.0297 -1.1438 -1.2810
  715MOL0     H96479  11.468   9.092  11.318  1.7955  1.2584  2.0686
  715MOL0     H96480  11.509   9.051  11.152 -2.3260  0.1624 -0.0893
  715MOL0     H96481  11.696   9.082  11.377  0.3212 -0.7876  0.6419
  715MOL0     H96482  11.753   9.059  11.206 -2.1451  1.8697 -1.1672
  715MOL0     H96483  11.776   8.861  11.269 -0.8515 -0.5834 -1.5864
  715MOL0     H96484  11.608   8.861  11.206 -1.2300  3.4360  0.7143
  715MOL0     H96485  11.552   8.748  11.645  0.4143  1.8260 -1.2801
  715MOL0     H96486  11.697   8.679  11.831  0.4710 -2.2960 -0.4544
  715MOL0     H96487  12.079   8.848  12.095 -0.4455  0.0229 -0.2099
  715MOL0     H96488  12.229   8.782  12.301 -1.3841 -4.2412  2.0900
  715MOL0     H96489  12.443   8.376  12.245  1.9496 -0.6924 -0.1472
  715MOL0     H96490  12.558   8.493  12.205  1.1247  1.7934  2.7761
  715MOL0     H96491  12.644   8.379  12.377 -1.5012 -3.9687  3.0765
  715MOL0     H96492  12.593   8.544  12.454 -0.8897  1.0933 -0.8855
  715MOL0     H96493  12.427   8.447  12.568  0.5339  1.4974  0.3144
  715MOL0     H96494  12.448   8.287  12.479  1.2806  0.6811 -3.0060
  715MOL0     H96495  12.652   8.428  12.665 -0.7943 -0.2790  0.2299
  715MOL0     H96496  12.673   8.264  12.609  1.8672 -0.3646  3.9812
  715MOL0     H96497  12.572   8.183  12.794 -1.1136 -0.8685  0.6316
  715MOL0     H96498  12.424   8.252  12.728  0.6144  0.9338 -3.7920
  715MOL0     H96499  12.466   8.477  12.847  3.3892  0.6543 -1.5436
  715MOL0     H96500  12.453   8.334  12.949 -0.1138 -1.7606 -1.1764
  715MOL0     H96501  12.683   8.509  12.869 -1.8218 -0.3457 -0.7461
  715MOL0     H96502  12.709   8.342  12.926 -1.3742 -1.4686  0.7292
  715MOL0     H96503  12.721   8.520  13.115  0.8327 -0.7901  0.5161
  715MOL0     H96504  12.546   8.552  13.074 -0.7478 -0.8893 -1.9034
  715MOL0     H96505  12.399   8.491  12.053 -0.6918 -0.6953 -1.7040
  715MOL0     H96506  12.279   8.591  11.847 -0.2419 -1.6820  1.0140
  715MOL0     H96507  12.031   8.865  11.615 -1.1113  1.7769  3.4490
  715MOL0     H96508  11.899   8.898  11.444 -2.8504  0.3793 -1.3088
  715MOL0     H96509  11.209   9.117  10.891 -0.7850  0.3249  2.3895
  715MOL0     H96510  11.189   9.014  11.117 -1.0492  0.3195 -0.9559
  715MOL0     H96511  11.434   8.645  11.365 -0.1319 -1.4570 -0.1771
  715MOL0     H96512  11.457   8.487  11.536 -0.6742 -0.1789  1.3124
  715MOL0     H96513  11.138   8.429  11.849 -0.1460  1.0477  0.5996
  715MOL0     H96514  11.267   8.536  11.828 -1.8790 -0.2940  0.4928
  715MOL0     H96515  11.426   8.378  11.909  0.3594  1.7180  1.6477
  715MOL0     H96516  11.294   8.258  11.938  1.3961 -0.3765  2.6028
  715MOL0     H96517  11.280   8.342  12.150 -1.4761  2.1178  1.9244
  715MOL0     H96518  11.198   8.471  12.065  1.0937  2.1649 -0.3398
  715MOL0     H96519  11.397   8.535  12.244  3.7941 -1.0251  0.9427
  715MOL0     H96520  11.498   8.444  12.142  0.2622  1.3552 -0.9772
  715MOL0     H96521  11.510   8.819  11.948  1.1742 -1.4352 -0.7779
  715MOL0     H96522  11.037   8.532  11.629  0.5879 -1.0289  1.3298
  715MOL0     H96523  10.891   8.637  11.500 -2.4015  2.1390 -1.3881
  715MOL0     H96524  10.962   8.787  11.462  0.4677  0.0352  1.1379
  715MOL0     H96525  10.955   8.663  11.331 -1.3111  0.9495  0.8421
  716MOL0     O96526   8.181   4.250  10.113 -0.1122  0.0060 -0.0896
  716MOL0     C96527   8.300   4.221  10.086 -0.6248  0.2973  0.7979
  716MOL0     O96528   8.408   4.301  10.087 -0.4927 -0.3084 -0.2296
  716MOL0     C96529   8.398   4.429  10.118 -0.8460 -0.3254 -0.3159
  716MOL0     C96530   8.316   4.530  10.052 -0.4993 -1.1047  0.0319
  716MOL0     C96531   8.324   4.668  10.089  0.3079 -0.6133 -0.7500
  716MOL0     C96532   8.421   4.718  10.175 -0.5942 -0.4808 -0.1404
  716MOL0     O96533   8.426   4.854  10.206 -0.2723  0.4392 -0.1154
  716MOL0     C96534   8.534   4.917  10.270  1.0081  0.0975 -0.2505
  716MOL0     C96535   8.530   5.069  10.252 -0.3951 -0.6061 -0.6338
  716MOL0     C96536   8.407   5.127  10.325 -0.5740 -0.4399 -0.0552
  716MOL0     C96537   8.453   5.191  10.462 -0.3630 -0.1103 -1.1700
  716MOL0     C96538   8.313   5.193  10.533 -0.8468 -0.5454 -0.4840
  716MOL0     C96539   8.300   5.292  10.640 -0.4607 -1.2459  0.1798
  716MOL0     C96540   8.389   5.273  10.770  0.1481  0.0867  0.7219
  716MOL0     C96541   8.352   5.378  10.884  0.0456  0.3182 -0.2886
  716MOL0     N96542   8.431   5.332  10.997  0.3230 -0.4166 -0.2381
  716MOL0     C96543   8.377   5.306  11.117 -1.2106  0.5809 -0.4076
  716MOL0     C96544   8.475   5.319  11.209  0.5998 -0.7558  1.1137
  716MOL0     C96545   8.460   5.278  11.359 -0.3812 -0.7938  0.3971
  716MOL0     C96546   8.524   5.142  11.377 -0.8713  0.5254  0.7804
  716MOL0     C96547   8.679   5.127  11.340  0.9092  1.4567  0.2142
  716MOL0     C96548   8.712   4.998  11.413  0.0065  0.7506 -0.0867
  716MOL0     O96549   8.834   4.966  11.367 -0.8858  0.5874  0.0339
  716MOL0     C96550   8.872   4.841  11.389 -0.1797  0.1835  0.4567
  716MOL0     C96551   8.958   4.790  11.301 -0.5483 -0.2424  0.3579
  716MOL0     C96552   8.998   4.657  11.305  0.2931  0.4658  0.1338
  716MOL0     C96553   8.941   4.565  11.388  0.1823  0.1540 -0.3150
  716MOL0     C96554   8.974   4.425  11.379 -0.4901 -0.3122  0.9260
  716MOL0     O96555   9.013   4.379  11.248  0.5658  0.1162 -0.1073
  716MOL0     C96556   9.056   4.253  11.231 -0.5887  0.1439 -0.1993
  716MOL0     C96557   8.970   4.137  11.249  0.2163 -0.2985 -0.0543
  716MOL0     C96558   9.019   4.014  11.214 -0.2751 -0.7658  0.7108
  716MOL0     C96559   9.150   3.984  11.170 -0.3830 -0.2723 -0.9457
  716MOL0     O96560   9.190   3.849  11.155  1.3832  0.0781 -0.1452
  716MOL0     C96561   9.298   3.826  11.062 -0.4326 -0.0703 -0.3582
  716MOL0     C96562   9.270   3.686  11.006  0.7608 -0.3162  0.7271
  716MOL0     C96563   9.350   3.581  11.075  0.5235  0.5012  0.1046
  716MOL0     C96564   9.332   3.448  11.003  0.1586 -0.0500 -0.2668
  716MOL0     C96565   9.432   3.332  11.056 -0.5372  0.4292  0.3194
  716MOL0     C96566   9.403   3.300  11.211 -0.2564 -0.7681  0.8468
  716MOL0     C96567   9.482   3.177  11.257 -0.5693  0.1041 -0.6641
  716MOL0     C96568   9.484   3.166  11.414 -0.2582  0.7165 -0.2774
  716MOL0    Cl96569   9.562   3.302  11.491  0.0281 -0.1058  0.0940
  716MOL0     C96570   9.232   4.096  11.152  0.6524  1.4564 -0.0821
  716MOL0     C96571   9.192   4.226  11.190  0.0346 -0.7515 -0.6971
  716MOL0     O96572   8.970   4.355  11.478 -0.6132  0.3292  0.4049
  716MOL0     C96573   8.849   4.611  11.485  0.4857 -0.0263  0.1727
  716MOL0     C96574   8.814   4.748  11.483 -0.2435 -0.3972  0.1094
  716MOL0     N96575   8.580   5.357  11.132 -0.4920  0.0655 -0.1546
  716MOL0     N96576   8.562   5.364  11.010  0.0468 -0.4577 -0.1188
  716MOL0     C96577   8.505   4.621  10.237  0.0268  0.0834  0.5775
  716MOL0     C96578   8.488   4.481  10.217  0.0056 -0.6093  0.0275
  716MOL0     C96579   8.324   4.082  10.028  0.0806  0.4020 -0.9797
  716MOL0     C96580   8.462   4.039  10.031  0.6393 -0.9805  0.2465
  716MOL0     C96581   8.502   3.917   9.973  0.1785 -0.4957  0.4312
  716MOL0     C96582   8.397   3.830   9.924  0.4281 -0.5796  0.0808
  716MOL0     O96583   8.444   3.706   9.884 -0.3132  0.4539  0.6724
  716MOL0     C96584   8.344   3.612   9.826  0.5185 -0.3904  0.1807
  716MOL0     C96585   8.404   3.466   9.820 -0.0506 -0.3684  0.1197
  716MOL0     C96586   8.453   3.419   9.951 -0.4373  0.0604 -0.0351
  716MOL0     C96587   8.521   3.278   9.932  0.7609 -0.4732  0.3851
  716MOL0     C96588   8.666   3.289   9.908 -0.1594  0.0746 -0.6205
  716MOL0     C96589   8.788   3.293   9.898 -0.4526 -0.4274  0.2286
  716MOL0     C96590   8.269   3.879   9.910  0.6076 -0.4641  0.0139
  716MOL0     C96591   8.230   4.002   9.958  0.7242 -0.9164 -1.2201
  716MOL0     C96592   8.092   4.048   9.944 -0.8021 -0.6048 -0.1361
  716MOL0     H96593   8.234   4.508   9.984 -1.4209  1.6934  0.1236
  716MOL0     H96594   8.268   4.752  10.049  1.3611  2.1138  2.9619
  716MOL0     H96595   8.522   4.881  10.373 -1.1431  0.3183 -0.3717
  716MOL0     H96596   8.634   4.881  10.246  0.4977 -2.2547  0.8737
  716MOL0     H96597   8.515   5.088  10.146  0.3839  1.2105 -0.4504
  716MOL0     H96598   8.614   5.120  10.302 -0.2562 -2.0319  0.6890
  716MOL0     H96599   8.325   5.056  10.336 -0.0428 -1.2030 -0.8715
  716MOL0     H96600   8.369   5.213  10.268 -2.1607  0.6007  2.4110
  716MOL0     H96601   8.529   5.137  10.520  0.3957  0.5892 -1.4946
  716MOL0     H96602   8.494   5.291  10.445 -1.7958  0.8158  0.4083
  716MOL0     H96603   8.239   5.227  10.459  0.2223 -0.2669 -1.4438
  716MOL0     H96604   8.283   5.094  10.569  2.5483 -1.5596 -0.1152
  716MOL0     H96605   8.308   5.394  10.602  0.9717 -0.6182  2.0045
  716MOL0     H96606   8.194   5.290  10.668 -0.5225 -0.1849  0.0520
  716MOL0     H96607   8.493   5.283  10.737 -0.0051 -0.8803 -0.0826
  716MOL0     H96608   8.377   5.170  10.804 -1.6755 -1.0139 -2.8638
  716MOL0     H96609   8.360   5.485  10.862 -2.8355  0.9268  1.0974
  716MOL0     H96610   8.244   5.365  10.899 -0.8040  1.3235 -4.2968
  716MOL0     H96611   8.273   5.275  11.119 -1.4923  1.2555 -2.5008
  716MOL0     H96612   8.505   5.353  11.424 -2.2643  0.5020  0.2802
  716MOL0     H96613   8.356   5.272  11.392 -0.5256  0.8635  0.2961
  716MOL0     H96614   8.499   5.116  11.480 -1.3434  0.5515  0.6747
  716MOL0     H96615   8.479   5.075  11.304  3.9954 -1.0915 -1.1608
  716MOL0     H96616   8.739   5.217  11.360  0.2067  2.0495 -0.2967
  716MOL0     H96617   8.692   5.100  11.235  2.7326 -2.0777  1.2099
  716MOL0     H96618   8.643   4.919  11.384  0.6997  1.0275 -2.6830
  716MOL0     H96619   8.715   5.008  11.522 -0.1144 -0.9955  0.1076
  716MOL0     H96620   9.003   4.848  11.220 -0.6619  1.1934  1.2853
  716MOL0     H96621   9.074   4.625  11.236 -1.4662 -2.2463 -0.7186
  716MOL0     H96622   8.868   4.142  11.286  0.2015 -0.1691 -0.1115
  716MOL0     H96623   8.948   3.933  11.204 -0.4654 -0.3242 -2.0924
  716MOL0     H96624   9.310   3.906  10.988  0.4909  1.1427  1.0557
  716MOL0     H96625   9.395   3.831  11.112 -1.5464  2.9924  1.7477
  716MOL0     H96626   9.163   3.661  11.014  0.7560 -1.3659 -1.5260
  716MOL0     H96627   9.288   3.685  10.898  1.6756 -0.9844  0.8761
  716MOL0     H96628   9.457   3.595  11.090  0.8918 -1.3414 -0.5987
  716MOL0     H96629   9.308   3.569  11.176 -0.0687  2.0142  0.0610
  716MOL0     H96630   9.348   3.460  10.896  3.8353 -1.7742 -0.0633
  716MOL0     H96631   9.230   3.410  11.011 -0.3046  1.4103  1.7275
  716MOL0     H96632   9.537   3.357  11.042 -0.7156 -0.0717 -2.2501
  716MOL0     H96633   9.403   3.234  11.018  0.0618 -0.1783  1.3844
  716MOL0     H96634   9.440   3.390  11.262 -1.6629 -1.0133  2.3937
  716MOL0     H96635   9.296   3.291  11.232 -0.3144  2.3679  2.5626
  716MOL0     H96636   9.586   3.175  11.221 -1.1334 -1.5935 -2.3756
  716MOL0     H96637   9.425   3.095  11.212 -2.8913  1.0107  0.4795
  716MOL0     H96638   9.378   3.179  11.438 -0.7581 -1.3838 -1.1124
  716MOL0     H96639   9.525   3.070  11.448  0.0654  1.1326  0.5425
  716MOL0     H96640   9.333   4.086  11.114 -0.6059  4.6276 -5.0776
  716MOL0     H96641   9.271   4.300  11.184 -1.0555  0.3502 -2.3366
  716MOL0     H96642   8.804   4.541  11.555  2.3621  0.8302  2.3707
  716MOL0     H96643   8.737   4.780  11.553  0.9674  4.5765 -0.4299
  716MOL0     H96644   8.582   4.662  10.301  2.1424 -1.7530 -0.6310
  716MOL0     H96645   8.558   4.410  10.259  2.4565  2.3262  1.3480
  716MOL0     H96646   8.537   4.113  10.055  0.0664 -0.2637 -0.1346
  716MOL0     H96647   8.605   3.896   9.996 -0.0734 -2.2027  0.1143
  716MOL0     H96648   8.310   3.643   9.727 -2.1259 -1.0642  0.7945
  716MOL0     H96649   8.251   3.606   9.884  0.7160 -1.0218  0.4457
  716MOL0     H96650   8.469   3.446   9.734 -0.5731  2.1310 -0.9591
  716MOL0     H96651   8.324   3.393   9.811  1.3189 -1.7265 -1.9548
  716MOL0     H96652   8.371   3.403  10.021 -0.6856  0.5169 -0.2146
  716MOL0     H96653   8.522   3.491   9.996 -1.3312 -1.4299  4.1956
  716MOL0     H96654   8.504   3.213  10.019 -0.6540 -2.4002 -1.2362
  716MOL0     H96655   8.474   3.220   9.851  2.7474 -3.1300  0.9924
  716MOL0     H96656   8.891   3.322   9.884 -1.7518  4.4887 -1.0788
  716MOL0     H96657   8.199   3.822   9.850 -0.5252 -0.5641  1.3542
  716MOL0     H96658   8.029   4.045  10.034 -1.5400 -3.1036 -0.6660
  716MOL0     H96659   8.083   4.150   9.904  1.4871 -1.4887 -3.2552
  716MOL0     H96660   8.036   3.984   9.875 -1.3742  1.0924 -1.3063
  717MOL0     O96661   4.264   3.883   2.996  0.4487  0.3303 -0.2624
  717MOL0     C96662   4.315   3.775   2.998 -0.1633  0.2480  1.1357
  717MOL0     O96663   4.319   3.691   3.107 -0.1840 -0.2830 -0.3618
  717MOL0     C96664   4.235   3.706   3.215 -1.5396 -1.1781  0.0955
  717MOL0     C96665   4.106   3.749   3.201  0.2797 -0.4822 -0.1236
  717MOL0     C96666   4.011   3.729   3.302 -0.0290 -0.8582 -0.0379
  717MOL0     C96667   4.048   3.680   3.430  1.5939  0.6165  0.6035
  717MOL0     O96668   3.955   3.674   3.534  0.0598  0.7120  0.2327
  717MOL0     C96669   3.985   3.600   3.658  0.5758 -0.4195 -0.8660
  717MOL0     C96670   3.871   3.616   3.759 -0.5113 -0.8992  0.2156
  717MOL0     C96671   3.884   3.754   3.832 -0.3188  0.7982  0.4104
  717MOL0     C96672   3.783   3.773   3.940 -0.3464  0.3349 -0.0656
  717MOL0     C96673   3.804   3.911   3.998  0.8437  0.1582  0.3733
  717MOL0     C96674   3.705   3.935   4.113  0.2408 -0.1868 -0.8032
  717MOL0     C96675   3.690   3.826   4.209 -0.2748  1.4523  0.5672
  717MOL0     C96676   3.645   3.863   4.348 -1.0166  0.4248  0.0387
  717MOL0     N96677   3.679   3.777   4.468 -0.1337 -0.3668 -0.7895
  717MOL0     C96678   3.577   3.751   4.561 -0.4055 -0.0610 -0.8692
  717MOL0     C96679   3.638   3.669   4.653 -0.3424 -0.6022 -0.2017
  717MOL0     C96680   3.583   3.593   4.761  0.1109  0.5436 -1.1481
  717MOL0     C96681   3.444   3.638   4.811  0.0239  0.1702  0.4414
  717MOL0     C96682   3.381   3.527   4.896  0.2059  0.4669 -0.0166
  717MOL0     C96683   3.244   3.560   4.933  0.1221 -0.1085  0.5477
  717MOL0     O96684   3.161   3.561   4.819 -0.4165  0.2927 -0.0170
  717MOL0     C96685   3.025   3.566   4.838 -0.2300 -0.4944  0.6989
  717MOL0     C96686   2.957   3.617   4.947  0.7978  0.1481 -0.5497
  717MOL0     C96687   2.821   3.623   4.958  0.7056  0.4277  0.0883
  717MOL0     C96688   2.754   3.569   4.852  0.3614 -0.4394 -0.0804
  717MOL0     C96689   2.598   3.568   4.861 -0.2601  0.1012  0.7402
  717MOL0     O96690   2.549   3.562   4.985 -0.0565 -0.1859 -0.6208
  717MOL0     C96691   2.419   3.574   5.022 -0.7502 -0.3030  0.2046
  717MOL0     C96692   2.310   3.499   4.967 -0.6798  0.6899 -0.0440
  717MOL0     C96693   2.184   3.533   5.008  0.4602  0.6265 -0.3799
  717MOL0     C96694   2.154   3.619   5.115 -0.0081 -0.3423 -0.3532
  717MOL0     O96695   2.022   3.651   5.142 -0.0946 -0.2513  0.4302
  717MOL0     C96696   1.962   3.697   5.266 -0.2697  0.0890  0.3782
  717MOL0     C96697   2.026   3.628   5.387 -0.4930  0.6677  0.6232
  717MOL0     C96698   1.969   3.482   5.394 -0.1698  0.2208  0.4264
  717MOL0     C96699   1.909   3.458   5.533  0.2163 -0.4564  0.2063
  717MOL0     C96700   1.989   3.469   5.660  0.2859 -0.3702 -0.0361
  717MOL0     C96701   2.134   3.424   5.647 -0.0261 -0.1265  0.2702
  717MOL0     C96702   2.229   3.506   5.745 -0.1976 -0.0424  0.8849
  717MOL0     C96703   2.180   3.488   5.899 -0.7322 -0.7563  0.4289
  717MOL0    Cl96704   2.224   3.338   5.960 -0.1513 -0.1530 -0.5891
  717MOL0     C96705   2.261   3.698   5.166 -0.3953 -0.4247 -0.4070
  717MOL0     C96706   2.390   3.669   5.112  0.2534 -0.0591 -0.2022
  717MOL0     O96707   2.525   3.566   4.755  0.0832 -0.6968 -0.8296
  717MOL0     C96708   2.815   3.509   4.738  0.3986  1.0673 -0.0834
  717MOL0     C96709   2.955   3.512   4.733 -0.0246  0.4129  0.1721
  717MOL0     N96710   3.769   3.640   4.613 -0.5353  0.2787  0.8012
  717MOL0     N96711   3.793   3.715   4.506 -0.0337 -0.3871 -0.4639
  717MOL0     C96712   4.185   3.648   3.438 -0.1204  1.5558  0.4770
  717MOL0     C96713   4.275   3.659   3.330  0.0048  0.0146 -0.1095
  717MOL0     C96714   4.409   3.742   2.890  0.3702  0.3800 -0.2740
  717MOL0     C96715   4.507   3.643   2.931 -0.3908  1.3538  0.2338
  717MOL0     C96716   4.590   3.583   2.834  0.6866 -0.0540  0.4563
  717MOL0     C96717   4.583   3.636   2.706 -0.2750  0.2518 -0.9110
  717MOL0     O96718   4.675   3.594   2.617 -0.1521  0.0852 -0.7538
  717MOL0     C96719   4.675   3.640   2.482  0.3542  0.3758 -0.2170
  717MOL0     C96720   4.799   3.574   2.397 -0.2656 -0.9765 -0.3148
  717MOL0     C96721   4.944   3.604   2.452  0.8605 -0.2633 -0.6199
  717MOL0     C96722   5.025   3.706   2.378 -0.8613 -0.2513  0.2092
  717MOL0     C96723   4.967   3.838   2.366  0.2862 -0.1141 -0.1575
  717MOL0     C96724   4.921   3.947   2.347 -0.7103 -0.2887 -0.1654
  717MOL0     C96725   4.503   3.742   2.665  0.5930 -0.5453 -0.9641
  717MOL0     C96726   4.417   3.788   2.760 -0.4508 -0.4674 -0.4255
  717MOL0     C96727   4.343   3.915   2.728  0.6769 -0.4715 -0.3017
  717MOL0     H96728   4.071   3.789   3.107  0.0634  0.0617  0.1885
  717MOL0     H96729   3.915   3.777   3.280  0.5260  0.7230  0.8008
  717MOL0     H96730   3.993   3.493   3.636  0.7374 -0.8102  0.9108
  717MOL0     H96731   4.082   3.627   3.702  0.7427 -2.7864  0.4284
  717MOL0     H96732   3.888   3.537   3.833 -1.4828 -2.6014 -1.3098
  717MOL0     H96733   3.771   3.599   3.718  0.6380 -1.6884 -2.4762
  717MOL0     H96734   3.886   3.832   3.755 -3.1506  0.3874 -0.1526
  717MOL0     H96735   3.980   3.771   3.882 -0.5130  0.8202  0.7815
  717MOL0     H96736   3.681   3.761   3.903 -0.3926 -0.6535  0.3660
  717MOL0     H96737   3.792   3.693   4.014 -1.0806 -0.8989 -1.2777
  717MOL0     H96738   3.906   3.914   4.038  1.4352 -1.9490 -0.7979
  717MOL0     H96739   3.794   3.991   3.924  1.0131  2.6338  2.8786
  717MOL0     H96740   3.739   4.020   4.172 -0.4326 -0.4785  0.0309
  717MOL0     H96741   3.613   3.968   4.063 -0.2833 -2.0365 -1.1343
  717MOL0     H96742   3.789   3.780   4.217 -0.0370  1.3088 -2.2591
  717MOL0     H96743   3.627   3.752   4.158 -0.9314  3.1509 -1.1974
  717MOL0     H96744   3.683   3.964   4.363 -0.2261  0.7748 -3.4220
  717MOL0     H96745   3.537   3.883   4.349 -1.2742 -0.8779  0.3936
  717MOL0     H96746   3.471   3.776   4.560  0.1734  2.7597 -2.1671
  717MOL0     H96747   3.566   3.492   4.723 -0.1728  1.0237 -2.3389
  717MOL0     H96748   3.645   3.607   4.851  1.7078  2.5298 -2.4693
  717MOL0     H96749   3.440   3.722   4.879 -7.2818  0.7841  0.0681
  717MOL0     H96750   3.383   3.666   4.724  0.1994 -2.3387 -0.5963
  717MOL0     H96751   3.455   3.513   4.975  1.0429  0.0809 -0.8375
  717MOL0     H96752   3.376   3.426   4.854 -3.3443 -0.4198  2.1405
  717MOL0     H96753   3.249   3.658   4.982 -0.0950 -0.8063  2.0381
  717MOL0     H96754   3.198   3.514   5.021  0.9094  1.6395  1.9362
  717MOL0     H96755   3.014   3.668   5.024  1.1427  1.6434 -1.7674
  717MOL0     H96756   2.777   3.677   5.041  0.6415  0.2145  0.1939
  717MOL0     H96757   2.331   3.429   4.886  2.7577  0.7755  0.6132
  717MOL0     H96758   2.091   3.511   4.955 -0.6130  0.3720  1.5187
  717MOL0     H96759   1.971   3.806   5.270  0.0001  0.0331  1.3987
  717MOL0     H96760   1.854   3.682   5.274 -0.3875  0.1242 -0.9105
  717MOL0     H96761   2.134   3.640   5.395 -0.5232  1.3092  0.1576
  717MOL0     H96762   1.986   3.677   5.475 -1.7695  2.7132 -1.0064
  717MOL0     H96763   1.884   3.475   5.325  0.1291  2.0482 -0.1873
  717MOL0     H96764   2.041   3.405   5.363  0.8777  2.0993 -2.1850
  717MOL0     H96765   1.884   3.351   5.536  1.9228 -0.9199 -0.6874
  717MOL0     H96766   1.818   3.515   5.548  0.3299 -0.4208  0.7611
  717MOL0     H96767   1.938   3.415   5.740  1.1132  0.2477  0.9338
  717MOL0     H96768   1.986   3.575   5.687 -2.4853 -0.7419  1.3897
  717MOL0     H96769   2.142   3.317   5.668 -1.3558 -0.1843  0.5557
  717MOL0     H96770   2.179   3.450   5.551  0.0634  1.1510  0.6431
  717MOL0     H96771   2.226   3.611   5.716  0.8445 -0.5173 -1.1618
  717MOL0     H96772   2.330   3.475   5.718 -0.4794  0.9401 -1.5778
  717MOL0     H96773   2.235   3.564   5.954  2.6484 -1.5183 -1.6076
  717MOL0     H96774   2.077   3.511   5.929 -0.5888 -0.8279  0.9884
  717MOL0     H96775   2.249   3.782   5.233  0.5473 -0.6037  0.0108
  717MOL0     H96776   2.467   3.738   5.144 -0.1408  0.7739 -1.0249
  717MOL0     H96777   2.762   3.468   4.653  1.5494 -0.3373 -0.1690
  717MOL0     H96778   3.002   3.461   4.650 -2.8771 -2.1421 -0.0722
  717MOL0     H96779   4.238   3.608   3.524 -0.4582 -0.8941 -0.3659
  717MOL0     H96780   4.374   3.617   3.347  0.0004 -0.2126 -0.6129
  717MOL0     H96781   4.514   3.596   3.029  2.0620 -1.7125 -1.2573
  717MOL0     H96782   4.660   3.507   2.869  1.6678  0.0586 -1.2013
  717MOL0     H96783   4.688   3.749   2.481  0.7443  0.3323 -1.3817
  717MOL0     H96784   4.586   3.611   2.427  1.3490 -0.6617 -1.3359
  717MOL0     H96785   4.790   3.601   2.291 -1.4377  2.6247  0.5628
  717MOL0     H96786   4.780   3.467   2.410  1.9354 -1.4480 -0.5844
  717MOL0     H96787   5.007   3.516   2.437  4.4074  1.8762  0.2808
  717MOL0     H96788   4.943   3.610   2.561  0.8256  3.0313 -0.7044
  717MOL0     H96789   5.127   3.697   2.415 -1.2562 -2.3873  0.9160
  717MOL0     H96790   5.030   3.659   2.280 -1.7292 -0.5910  0.3217
  717MOL0     H96791   4.902   4.053   2.342 -0.0154 -0.2152 -2.4223
  717MOL0     H96792   4.490   3.787   2.568 -3.0055  1.3938  0.2423
  717MOL0     H96793   4.333   3.939   2.621  1.1713 -0.7769 -0.4171
  717MOL0     H96794   4.239   3.914   2.763  0.3399  1.9696 -1.0422
  717MOL0     H96795   4.401   3.996   2.774 -1.9866  0.5586  1.4961
  718MOL0     O96796   8.037   7.743   7.163 -0.9147 -0.1738  0.3421
  718MOL0     C96797   8.036   7.713   7.039  0.0473 -0.3793 -0.4943
  718MOL0     O96798   8.054   7.799   6.937 -0.0976 -0.8068  0.0376
  718MOL0     C96799   8.031   7.938   6.964 -0.0228  1.2635 -0.1310
  718MOL0     C96800   7.905   7.991   6.970  0.2225 -0.6858 -0.2082
  718MOL0     C96801   7.893   8.131   6.998 -0.9976  0.5142  0.5055
  718MOL0     C96802   7.997   8.216   7.015 -0.4896 -0.4625  0.4712
  718MOL0     O96803   7.971   8.351   7.052 -0.1166 -0.6276 -0.0703
  718MOL0     C96804   7.852   8.393   7.099  0.5537 -0.5577 -0.6445
  718MOL0     C96805   7.869   8.525   7.176  0.4793 -1.1117 -0.7100
  718MOL0     C96806   7.930   8.642   7.100  0.1604 -1.0756 -0.0725
  718MOL0     C96807   7.918   8.770   7.191  0.4137  0.6702 -0.2856
  718MOL0     C96808   7.970   8.906   7.129  0.1732 -0.5244 -0.0753
  718MOL0     C96809   8.122   8.887   7.114  0.1340 -0.2797 -0.4104
  718MOL0     C96810   8.196   9.016   7.082 -0.1453  0.7529 -0.4410
  718MOL0     C96811   8.349   8.998   7.088 -0.8545 -0.1093 -0.7854
  718MOL0     N96812   8.389   8.877   7.015  0.3947 -0.1195  0.4586
  718MOL0     C96813   8.368   8.865   6.881 -0.2863  0.0167 -0.2945
  718MOL0     C96814   8.382   8.740   6.854 -0.7242  0.1692  0.6440
  718MOL0     C96815   8.364   8.681   6.715  0.6456 -0.4557  0.0605
  718MOL0     C96816   8.238   8.597   6.723 -0.3780 -0.4754 -0.0122
  718MOL0     C96817   8.106   8.673   6.738  0.2617 -0.4295 -0.5703
  718MOL0     C96818   8.050   8.746   6.622 -0.1134  0.3834  0.0663
  718MOL0     O96819   7.976   8.856   6.676 -0.2223  0.3797  0.5127
  718MOL0     C96820   7.967   8.970   6.597  0.5342 -0.1652 -0.6237
  718MOL0     C96821   7.921   9.076   6.677  0.0609 -0.3597  0.0210
  718MOL0     C96822   7.898   9.201   6.618 -0.0070  0.2468 -0.1190
  718MOL0     C96823   7.916   9.224   6.482  0.2860 -0.6408 -0.4344
  718MOL0     C96824   7.903   9.361   6.433 -0.1015 -0.6038  0.3953
  718MOL0     O96825   7.943   9.386   6.311 -0.6386  0.2530  0.2310
  718MOL0     C96826   7.912   9.513   6.265  0.7745  0.0146 -0.0074
  718MOL0     C96827   7.991   9.620   6.295 -0.0508  0.9219 -0.3420
  718MOL0     C96828   7.962   9.746   6.257 -0.7548  0.1985  0.1195
  718MOL0     C96829   7.869   9.761   6.154  0.3494 -0.2874  0.1378
  718MOL0     O96830   7.836   9.879   6.097 -0.4097  0.3830  0.1604
  718MOL0     C96831   7.813   9.987   6.177 -0.4980 -0.0979 -0.5675
  718MOL0     C96832   7.698   9.962   6.271  0.9027  0.0464  0.3451
  718MOL0     C96833   7.568   9.952   6.172  0.6025  0.2097 -0.4695
  718MOL0     C96834   7.442   9.984   6.263  0.3703 -0.4219  0.4848
  718MOL0     C96835   7.311   9.990   6.196 -1.1658  0.1555  0.1588
  718MOL0     C96836   7.244   9.852   6.189 -0.7684  0.4443  0.0359
  718MOL0     C96837   7.094   9.850   6.138 -0.8626 -0.5953 -0.1716
  718MOL0     C96838   6.999   9.928   6.221  0.1846 -0.7958 -0.3330
  718MOL0    Cl96839   6.972  10.088   6.164  0.1720 -0.3140  0.2028
  718MOL0     C96840   7.787   9.648   6.109  0.1710  0.1462 -0.0105
  718MOL0     C96841   7.809   9.530   6.175  0.3979  0.3035  0.3515
  718MOL0     O96842   7.858   9.443   6.513 -0.6812  0.8535 -0.3985
  718MOL0     C96843   7.967   9.114   6.407  0.2479  0.0512  0.7172
  718MOL0     C96844   7.988   8.994   6.459 -0.1999 -0.9527  0.1507
  718MOL0     N96845   8.428   8.670   6.963  0.7952  0.8470 -0.1739
  718MOL0     N96846   8.435   8.755   7.054  0.0771 -0.3622  0.8742
  718MOL0     C96847   8.122   8.155   6.994  0.4686  0.1333 -0.5837
  718MOL0     C96848   8.147   8.018   6.969 -0.1077 -0.0011  0.6077
  718MOL0     C96849   8.041   7.572   7.005 -0.1820  0.4749  0.4885
  718MOL0     C96850   8.114   7.534   6.892 -0.2314  0.1442 -0.1779
  718MOL0     C96851   8.124   7.407   6.849 -0.7644 -0.1341 -0.0100
  718MOL0     C96852   8.080   7.307   6.935  1.0836  0.0926 -0.2263
  718MOL0     O96853   8.117   7.178   6.929  0.0629  0.6452  0.0161
  718MOL0     C96854   8.121   7.125   6.791 -0.1590 -1.8537 -0.1346
  718MOL0     C96855   8.121   6.972   6.778  1.2136 -0.1107  0.3243
  718MOL0     C96856   8.092   6.924   6.632 -0.7511 -0.5362 -0.3391
  718MOL0     C96857   8.094   6.769   6.612  0.3471 -1.1572 -0.9222
  718MOL0     C96858   8.220   6.710   6.625 -0.0748 -0.0147 -0.1148
  718MOL0     C96859   8.313   6.640   6.658  0.1024  0.5363  1.3447
  718MOL0     C96860   8.008   7.336   7.049 -0.0796  0.3002 -0.5690
  718MOL0     C96861   7.987   7.469   7.093 -1.2555  0.0076  0.6923
  718MOL0     C96862   7.919   7.494   7.226 -0.8825  1.2121  0.0605
  718MOL0     H96863   7.813   7.932   6.975 -0.3139  0.0907  4.6326
  718MOL0     H96864   7.790   8.162   7.017 -1.0900 -1.5355  4.5000
  718MOL0     H96865   7.777   8.395   7.019 -1.8387 -3.8421  1.2780
  718MOL0     H96866   7.826   8.323   7.179  0.9520  0.3221  0.2738
  718MOL0     H96867   7.926   8.517   7.269  1.6651  2.0977 -1.0425
  718MOL0     H96868   7.771   8.556   7.214  1.5124  2.8970 -0.9096
  718MOL0     H96869   7.886   8.653   7.001  3.2251 -0.4882 -1.5087
  718MOL0     H96870   8.034   8.621   7.070  1.4713  2.4444  1.4442
  718MOL0     H96871   7.817   8.789   7.228  0.8961  1.6110  0.6384
  718MOL0     H96872   7.969   8.745   7.285  2.6947  0.4981 -1.5122
  718MOL0     H96873   7.917   8.935   7.038 -3.6528 -4.0234  0.7275
  718MOL0     H96874   7.955   8.983   7.205  3.5545  2.5143 -2.1568
  718MOL0     H96875   8.166   8.842   7.203  3.3146  2.7687 -0.2154
  718MOL0     H96876   8.145   8.814   7.035 -2.1581  1.2947 -2.7217
  718MOL0     H96877   8.179   9.087   7.164 -0.6185 -1.8936  1.9229
  718MOL0     H96878   8.181   9.071   6.989  1.1075 -1.1512 -1.8338
  718MOL0     H96879   8.391   9.081   7.031  1.0396 -1.7811 -1.9952
  718MOL0     H96880   8.391   8.974   7.187 -0.8842 -1.7808 -1.1509
  718MOL0     H96881   8.322   8.942   6.819  0.2281  0.8788  0.3736
  718MOL0     H96882   8.358   8.760   6.639  2.9265 -0.9466 -0.7031
  718MOL0     H96883   8.448   8.612   6.707  1.8901  0.5838  2.8683
  718MOL0     H96884   8.223   8.549   6.626  0.9948 -1.2775  0.1430
  718MOL0     H96885   8.243   8.527   6.807 -0.0210  0.1200  0.4657
  718MOL0     H96886   8.118   8.733   6.829  3.6932 -0.8598 -0.6031
  718MOL0     H96887   8.031   8.603   6.776 -2.0755  1.1923 -1.9191
  718MOL0     H96888   7.989   8.683   6.557  1.2913 -0.6638 -0.2673
  718MOL0     H96889   8.129   8.794   6.564 -0.8503  0.3907 -0.9568
  718MOL0     H96890   7.902   9.068   6.784  0.1312  0.3484  0.0899
  718MOL0     H96891   7.878   9.284   6.685  0.3791 -0.3660  0.7841
  718MOL0     H96892   8.077   9.605   6.360  1.9536 -1.7788 -3.3119
  718MOL0     H96893   8.020   9.823   6.306  0.2784  0.1131 -0.9388
  718MOL0     H96894   7.902  10.029   6.226 -1.6014  0.4683  1.0387
  718MOL0     H96895   7.789  10.074   6.115 -0.7854  0.9697  0.9987
  718MOL0     H96896   7.701   9.874   6.336 -0.1689 -0.4120 -0.1949
  718MOL0     H96897   7.696  10.051   6.334 -1.9327 -0.0264  0.4679
  718MOL0     H96898   7.570  10.032   6.098  0.1504 -0.5475 -1.3110
  718MOL0     H96899   7.554   9.855   6.124 -2.5925  0.0682  0.5327
  718MOL0     H96900   7.455  10.084   6.305 -0.6825 -0.1714  0.2427
  718MOL0     H96901   7.434   9.908   6.341  1.2667 -3.9595 -2.5830
  718MOL0     H96902   7.314  10.014   6.089 -0.7989 -0.8825 -0.0737
  718MOL0     H96903   7.245  10.062   6.245 -0.3700  2.0372 -1.3748
  718MOL0     H96904   7.311   9.788   6.130  0.1075 -0.2420  1.7277
  718MOL0     H96905   7.251   9.806   6.288  1.0884  1.0054  0.2073
  718MOL0     H96906   7.057   9.748   6.120 -1.3708  0.0780 -3.7092
  718MOL0     H96907   7.101   9.900   6.041  1.8703  1.4791  0.9871
  718MOL0     H96908   6.905   9.873   6.222  1.4098 -3.0576 -1.4115
  718MOL0     H96909   7.036   9.932   6.324 -2.0316  3.4238  0.4977
  718MOL0     H96910   7.694   9.666   6.056  1.0795  4.2836 -0.5500
  718MOL0     H96911   7.764   9.433   6.153  3.5629 -0.8754 -1.7587
  718MOL0     H96912   7.983   9.110   6.299 -0.9121  0.7452  0.4983
  718MOL0     H96913   8.017   8.905   6.404  0.4577  0.1553 -1.3712
  718MOL0     H96914   8.210   8.218   6.999  2.2901 -2.2891 -0.6605
  718MOL0     H96915   8.245   7.971   6.974 -1.2423 -2.6205  0.0852
  718MOL0     H96916   8.166   7.605   6.828  0.5972  0.7357  1.1071
  718MOL0     H96917   8.170   7.386   6.753 -2.6367 -0.6281 -0.8452
  718MOL0     H96918   8.202   7.171   6.733  0.2110 -0.8747  1.1034
  718MOL0     H96919   8.035   7.170   6.743  1.1072  2.4171  1.1677
  718MOL0     H96920   8.044   6.933   6.845 -0.0974  1.1230 -0.3987
  718MOL0     H96921   8.215   6.927   6.811  1.4968 -1.3614 -1.9404
  718MOL0     H96922   8.168   6.964   6.565 -0.1024 -1.9084 -0.4437
  718MOL0     H96923   8.000   6.966   6.589  0.6346  2.1657 -0.8669
  718MOL0     H96924   8.026   6.714   6.678  0.4348  0.7329  0.8535
  718MOL0     H96925   8.047   6.762   6.514 -2.6171  2.5062 -0.0079
  718MOL0     H96926   8.401   6.581   6.674 -0.4670 -0.6373  0.2715
  718MOL0     H96927   7.976   7.261   7.120 -1.4997  1.6707  0.3142
  718MOL0     H96928   7.836   7.563   7.211 -1.6541  0.1165 -0.9099
  718MOL0     H96929   7.867   7.406   7.265 -0.5387  0.0310 -1.9988
  718MOL0     H96930   7.982   7.527   7.310 -1.7782  0.5196  1.0161
  719MOL0     O96931   3.203   9.693  11.096 -0.1508  0.1401 -0.6114
  719MOL0     C96932   3.112   9.612  11.078 -1.0715  0.4657 -0.0897
  719MOL0     O96933   3.065   9.519  11.169 -0.5029  0.5291 -0.0388
  719MOL0     C96934   3.130   9.487  11.289  0.0175 -0.2208 -0.7386
  719MOL0     C96935   3.260   9.520  11.319  0.1155  0.8466  0.5043
  719MOL0     C96936   3.317   9.504  11.450 -0.0398 -1.1074 -0.5244
  719MOL0     C96937   3.245   9.439  11.545 -0.5266  0.5052 -0.7260
  719MOL0     O96938   3.289   9.425  11.675 -0.5565 -0.6326  0.3098
  719MOL0     C96939   3.273   9.546  11.753  0.8004 -0.1986  0.5125
  719MOL0     C96940   3.283   9.526  11.904  1.6052 -0.5974 -0.3944
  719MOL0     C96941   3.245   9.653  11.979  0.1940 -0.7369  0.1307
  719MOL0     C96942   3.130   9.608  12.071  1.4374 -0.1674  0.9218
  719MOL0     C96943   3.055   9.712  12.171  0.7284 -0.0786 -0.3263
  719MOL0     C96944   3.048   9.858  12.127 -0.1403  0.4616  0.4465
  719MOL0     C96945   2.984   9.968  12.209 -0.6350 -0.7382  0.1398
  719MOL0     C96946   2.850   9.947  12.272 -0.7461  0.0911  0.0816
  719MOL0     N96947   2.792  10.052  12.357  0.1304  0.2913  0.1847
  719MOL0     C96948   2.698  10.029  12.450  0.6852  0.3672 -0.6748
  719MOL0     C96949   2.691  10.139  12.521 -0.5776  0.4625 -0.4733
  719MOL0     C96950   2.582  10.143  12.635  0.2428  0.1222 -0.1254
  719MOL0     C96951   2.450  10.214  12.605 -0.2581 -0.2378  0.0816
  719MOL0     C96952   2.378  10.158  12.478 -0.8127 -0.2524  0.9932
  719MOL0     C96953   2.241  10.219  12.457  0.5151  1.1121  0.3983
  719MOL0     O96954   2.221  10.363  12.445  0.4577  0.4751 -0.5363
  719MOL0     C96955   2.207  10.440  12.557 -0.6259 -0.0864 -0.1251
  719MOL0     C96956   2.168  10.388  12.682  0.4619 -0.0750 -1.0835
  719MOL0     C96957   2.149  10.471  12.790  0.1992 -0.1366  0.5060
  719MOL0     C96958   2.162  10.612  12.782 -0.7625  0.8764 -0.4487
  719MOL0     C96959   2.120  10.708  12.886 -0.0214 -0.8768 -0.8052
  719MOL0     O96960   2.018  10.678  12.972  0.3907  0.0764 -0.2688
  719MOL0     C96961   2.010  10.752  13.091  0.0724 -0.5629  0.3924
  719MOL0     C96962   2.116  10.806  13.165  0.1864 -1.0410  0.1419
  719MOL0     C96963   2.112  10.887  13.282 -0.8330 -0.5892 -0.1353
  719MOL0     C96964   1.981  10.924  13.316 -0.0893 -0.6357 -0.0461
  719MOL0     O96965   1.964  11.016  13.411 -0.0320  0.2549 -0.1818
  719MOL0     C96966   1.954  11.149  13.372 -0.1275 -0.5013  0.5096
  719MOL0     C96967   1.984  11.237  13.501  0.6938  0.5930  0.3455
  719MOL0     C96968   2.118  11.206  13.559  0.5329  0.2245  0.3777
  719MOL0     C96969   2.242  11.248  13.476 -0.3535 -0.3844  0.7094
  719MOL0     C96970   2.368  11.196  13.531 -0.0866  0.7329 -0.0189
  719MOL0     C96971   2.393  11.204  13.680 -0.5142 -0.3819  0.3615
  719MOL0     C96972   2.543  11.189  13.721  0.3331  0.0534  0.4321
  719MOL0     C96973   2.583  11.260  13.859 -0.0055 -0.0035  0.0927
  719MOL0    Cl96974   2.750  11.220  13.914  0.1130 -0.3765  0.1916
  719MOL0     C96975   1.867  10.877  13.251 -0.5012 -0.6152 -0.3308
  719MOL0     C96976   1.881  10.795  13.132  0.4804  0.5874 -0.6060
  719MOL0     O96977   2.186  10.812  12.891  0.2898 -0.3085 -0.2353
  719MOL0     C96978   2.205  10.665  12.656 -0.4513  0.5014  0.0007
  719MOL0     C96979   2.230  10.576  12.545  0.0119 -0.1159  1.0431
  719MOL0     N96980   2.771  10.237  12.467  1.8722  0.6220  0.3778
  719MOL0     N96981   2.832  10.188  12.364 -0.8769  0.0592 -0.2419
  719MOL0     C96982   3.120   9.389  11.517  0.3266  0.1461  1.2317
  719MOL0     C96983   3.066   9.411  11.386  0.3278 -0.2486  0.6789
  719MOL0     C96984   3.064   9.599  10.935  0.8128 -0.4315  0.3012
  719MOL0     C96985   2.938   9.650  10.911  0.2932  0.5966 -0.1657
  719MOL0     C96986   2.883   9.658  10.788 -0.0328  0.0105 -0.2891
  719MOL0     C96987   2.957   9.608  10.675 -0.2850  0.4653 -0.1200
  719MOL0     O96988   2.914   9.589  10.548 -0.0421  0.2568  0.3869
  719MOL0     C96989   2.780   9.630  10.516 -0.0330 -0.2820  0.6854
  719MOL0     C96990   2.736   9.612  10.373  0.3352  0.1586 -0.5585
  719MOL0     C96991   2.808   9.695  10.283 -0.3459  0.4520 -0.8061
  719MOL0     C96992   2.752   9.691  10.137  0.0666 -0.3528  0.0906
  719MOL0     C96993   2.742   9.554  10.088  0.2904 -0.2975 -0.6699
  719MOL0     C96994   2.715   9.445  10.048  0.0429  0.3851 -0.2828
  719MOL0     C96995   3.092   9.561  10.697 -0.1204  0.0471 -0.2443
  719MOL0     C96996   3.143   9.547  10.827 -0.4953  0.5152 -0.9811
  719MOL0     C96997   3.275   9.481  10.844  0.0979  0.2683  0.7227
  719MOL0     H96998   3.331   9.565  11.249  3.0140 -3.9434 -0.1422
  719MOL0     H96999   3.415   9.547  11.465 -0.4176 -0.7035  0.8748
  719MOL0     H97000   3.353   9.615  11.724 -1.0763  1.6259 -0.5686
  719MOL0     H97001   3.184   9.605  11.729  0.1735 -1.0790  0.6393
  719MOL0     H97002   3.384   9.505  11.942 -0.0594 -0.5475  4.8692
  719MOL0     H97003   3.230   9.441  11.947 -0.1308  0.1959 -0.8736
  719MOL0     H97004   3.215   9.731  11.909 -2.0205 -1.4290  0.2406
  719MOL0     H97005   3.331   9.686  12.038  1.9912  1.4739 -3.3545
  719MOL0     H97006   3.053   9.564  12.007  0.4939 -0.2884  2.0849
  719MOL0     H97007   3.151   9.530  12.145 -3.3636  0.1273  2.9628
  719MOL0     H97008   2.952   9.684  12.197  1.0881 -0.3755  0.8355
  719MOL0     H97009   3.109   9.705  12.265 -0.4946  0.2071  0.4294
  719MOL0     H97010   3.148   9.893  12.101  0.3382 -0.8442  0.4504
  719MOL0     H97011   3.015   9.843  12.024  1.1866  2.4058 -0.3185
  719MOL0     H97012   2.966  10.055  12.144  0.0352 -0.8707 -0.2262
  719MOL0     H97013   3.057   9.998  12.284  2.3070 -0.2862 -2.6430
  719MOL0     H97014   2.781   9.915  12.193 -1.2047  2.2777 -0.4650
  719MOL0     H97015   2.854   9.856  12.332 -1.1762 -0.8725 -1.2853
  719MOL0     H97016   2.657   9.930  12.467  3.5711 -0.8906 -0.4004
  719MOL0     H97017   2.555  10.039  12.654  2.3766 -0.1540  1.9905
  719MOL0     H97018   2.631  10.188  12.722 -2.4304  0.8093  1.1266
  719MOL0     H97019   2.381  10.201  12.690  1.4756 -0.8868  1.4597
  719MOL0     H97020   2.465  10.318  12.576 -2.4583  0.2928  0.6379
  719MOL0     H97021   2.384  10.049  12.472  1.2773 -0.1054 -3.8173
  719MOL0     H97022   2.433  10.187  12.388  0.0908  0.1250  1.6570
  719MOL0     H97023   2.165  10.168  12.517 -1.8882  1.2986 -2.2812
  719MOL0     H97024   2.208  10.185  12.359 -0.5676 -0.4457  1.2492
  719MOL0     H97025   2.150  10.282  12.696  2.3793 -0.2315  0.5795
  719MOL0     H97026   2.105  10.443  12.885 -1.0424  1.4870  0.4467
  719MOL0     H97027   2.211  10.785  13.118 -0.9809 -1.0166 -2.4071
  719MOL0     H97028   2.202  10.932  13.322 -0.7859  1.6015 -2.4139
  719MOL0     H97029   2.023  11.174  13.292 -2.6746 -1.6023 -2.2127
  719MOL0     H97030   1.852  11.165  13.334 -0.6012 -1.3633  1.3517
  719MOL0     H97031   1.967  11.342  13.477  3.0588  0.9006 -0.2054
  719MOL0     H97032   1.903  11.207  13.568 -0.2677  0.7857 -0.7069
  719MOL0     H97033   2.128  11.271  13.647  1.9295  1.5270 -0.6935
  719MOL0     H97034   2.125  11.099  13.584 -3.2609 -0.1832  0.2323
  719MOL0     H97035   2.237  11.357  13.471  2.5427 -0.2302 -0.4544
  719MOL0     H97036   2.237  11.211  13.373 -4.2311  1.1015  0.1893
  719MOL0     H97037   2.440  11.267  13.489 -0.2417  2.1895  1.9950
  719MOL0     H97038   2.373  11.092  13.498  0.5764  0.1010  1.9079
  719MOL0     H97039   2.356  11.303  13.709 -3.3293 -0.4881 -2.3970
  719MOL0     H97040   2.331  11.126  13.723 -0.6445  0.5201  1.8669
  719MOL0     H97041   2.612  11.222  13.643  0.2496  0.7452  0.6386
  719MOL0     H97042   2.559  11.081  13.733  0.3776 -0.2530 -1.9133
  719MOL0     H97043   2.590  11.367  13.841  0.3820  0.6451  3.5397
  719MOL0     H97044   2.508  11.248  13.938 -0.9712 -0.8912 -0.9163
  719MOL0     H97045   1.774  10.921  13.286  0.6170  1.9302 -0.3677
  719MOL0     H97046   1.802  10.752  13.071 -0.4933 -0.4883  1.3198
  719MOL0     H97047   2.197  10.773  12.649 -0.7206  0.7558  2.9914
  719MOL0     H97048   2.255  10.617  12.448  2.6338 -3.8490 -0.0810
  719MOL0     H97049   3.065   9.325  11.585  0.7311  0.2060  1.6183
  719MOL0     H97050   2.971   9.364  11.360 -0.1954  0.0749  1.9396
  719MOL0     H97051   2.879   9.678  10.998 -0.0991  2.3526 -0.9579
  719MOL0     H97052   2.786   9.706  10.795  1.4809  3.4125 -0.5492
  719MOL0     H97053   2.759   9.734  10.545 -1.0365  0.1710 -1.4634
  719MOL0     H97054   2.716   9.567  10.577  0.4765  0.4381  2.0061
  719MOL0     H97055   2.630   9.639  10.373  0.4727  0.7081 -0.9472
  719MOL0     H97056   2.737   9.507  10.346  0.1595  0.1625 -0.5783
  719MOL0     H97057   2.906   9.646  10.283 -0.9940 -0.8678 -1.1351
  719MOL0     H97058   2.820   9.799  10.315  0.4677 -0.2413  1.2719
  719MOL0     H97059   2.651   9.732  10.123  0.4310  0.3957 -0.5017
  719MOL0     H97060   2.825   9.747  10.077  2.0016 -2.4798  0.3428
  719MOL0     H97061   2.696   9.358   9.988  4.5566 -1.0455 -0.0022
  719MOL0     H97062   3.149   9.522  10.614 -2.1302 -2.6534 -0.4833
  719MOL0     H97063   3.280   9.445  10.947  1.3504  1.1150  0.9742
  719MOL0     H97064   3.264   9.386  10.791 -0.5028 -0.2345  1.7180
  719MOL0     H97065   3.362   9.543  10.821 -0.1433 -0.3861 -2.4602
  720MOL0     O97066   8.700   4.236   2.765 -0.8692 -0.1537 -0.3022
  720MOL0     C97067   8.698   4.357   2.758  0.1596 -0.0554 -0.2373
  720MOL0     O97068   8.591   4.434   2.712 -0.4073 -0.5640 -0.6975
  720MOL0     C97069   8.498   4.384   2.621 -0.1960  0.7707 -0.4611
  720MOL0     C97070   8.507   4.265   2.551 -0.5057 -0.0747  0.2115
  720MOL0     C97071   8.417   4.238   2.443 -0.5548  0.1902 -0.7390
  720MOL0     C97072   8.306   4.319   2.418  0.1365  0.2886 -0.8425
  720MOL0     O97073   8.238   4.304   2.299 -0.4031 -0.6341 -0.1651
  720MOL0     C97074   8.182   4.174   2.259  0.3114  1.0283  0.1170
  720MOL0     C97075   8.033   4.191   2.206  0.6176 -0.7242 -0.0665
  720MOL0     C97076   7.946   4.247   2.317 -0.0225  0.8131  0.3931
  720MOL0     C97077   7.798   4.233   2.263  0.0589  0.1323 -0.2157
  720MOL0     C97078   7.703   4.281   2.378  0.5488 -0.5503  0.2098
  720MOL0     C97079   7.713   4.433   2.395  0.3101  0.6915 -0.5066
  720MOL0     C97080   7.615   4.473   2.499 -0.7069  0.5849 -0.6172
  720MOL0     C97081   7.638   4.614   2.554  0.1659 -0.7605  0.2562
  720MOL0     N97082   7.559   4.658   2.673  0.2814  0.1420  0.0430
  720MOL0     C97083   7.453   4.750   2.656 -0.7776  0.1693 -0.6526
  720MOL0     C97084   7.437   4.805   2.780  0.2585  0.2028  0.0890
  720MOL0     C97085   7.321   4.899   2.812 -0.3031 -0.4253  0.1201
  720MOL0     C97086   7.392   5.035   2.837  0.5789 -0.7121  0.3270
  720MOL0     C97087   7.285   5.144   2.865 -0.4763 -0.0014  0.9021
  720MOL0     C97088   7.355   5.284   2.878  0.4040  0.6667  1.0097
  720MOL0     O97089   7.409   5.324   2.745 -0.1439 -0.4403 -0.3808
  720MOL0     C97090   7.525   5.408   2.768 -0.5239  0.5380 -0.4952
  720MOL0     C97091   7.502   5.537   2.809 -0.3667 -0.5578  0.3095
  720MOL0     C97092   7.614   5.635   2.828  0.6481  0.6522  0.0547
  720MOL0     C97093   7.750   5.596   2.815 -0.0246 -0.1441 -1.0375
  720MOL0     C97094   7.860   5.689   2.839  0.0482 -0.1182  0.6419
  720MOL0     O97095   7.979   5.625   2.829  0.2310 -0.4259  0.3009
  720MOL0     C97096   8.098   5.695   2.862  0.4700  0.2341 -0.2641
  720MOL0     C97097   8.132   5.739   2.990  0.4679  0.1372 -0.0847
  720MOL0     C97098   8.245   5.816   3.009 -0.7098 -0.2624 -0.6317
  720MOL0     C97099   8.332   5.857   2.897  0.9172  0.3967  0.3880
  720MOL0     O97100   8.434   5.935   2.923  0.9822 -0.2246  0.0791
  720MOL0     C97101   8.496   6.003   2.811 -0.8896 -0.6549  0.7805
  720MOL0     C97102   8.608   6.095   2.860 -0.9709  0.4070 -0.2845
  720MOL0     C97103   8.665   6.176   2.744  0.0131  0.3446  1.0134
  720MOL0     C97104   8.812   6.212   2.768 -0.2596  0.2782 -0.0334
  720MOL0     C97105   8.859   6.336   2.687 -0.0554  0.0427  0.5921
  720MOL0     C97106   8.870   6.307   2.534  0.3832 -0.8823  1.0989
  720MOL0     C97107   8.942   6.405   2.452  0.1815 -0.6364  0.4139
  720MOL0     C97108   8.941   6.387   2.307  0.3001  0.1979  0.0805
  720MOL0    Cl97109   9.091   6.470   2.246 -0.6144  0.1453  0.0182
  720MOL0     C97110   8.288   5.804   2.769  0.6290 -0.3881 -0.1395
  720MOL0     C97111   8.177   5.728   2.756 -0.0772 -0.1356 -0.4163
  720MOL0     O97112   7.845   5.802   2.888 -0.1365 -0.4874 -0.4520
  720MOL0     C97113   7.769   5.457   2.775 -0.5460 -0.7092 -0.2839
  720MOL0     C97114   7.661   5.371   2.761 -0.1324  0.2166  0.3146
  720MOL0     N97115   7.523   4.741   2.871  0.2168  0.1345  0.3652
  720MOL0     N97116   7.597   4.649   2.809  0.4613  0.1436 -0.6211
  720MOL0     C97117   8.296   4.440   2.487 -0.3816  0.6562  0.1373
  720MOL0     C97118   8.388   4.470   2.591 -0.4416 -0.0607  0.1993
  720MOL0     C97119   8.807   4.417   2.835 -0.5891 -0.0670 -0.6858
  720MOL0     C97120   8.795   4.550   2.869 -0.9322 -1.2682 -0.8132
  720MOL0     C97121   8.896   4.620   2.935 -0.7847  0.5270  0.0429
  720MOL0     C97122   8.998   4.545   2.995  0.0256 -0.0571 -0.1347
  720MOL0     O97123   9.109   4.612   3.035  0.9779  0.1219 -0.2445
  720MOL0     C97124   9.126   4.603   3.178  0.6222 -0.0373  0.4460
  720MOL0     C97125   9.269   4.655   3.204 -0.2922 -0.7131  0.0207
  720MOL0     C97126   9.283   4.806   3.240  1.1245 -0.0633 -0.1984
  720MOL0     C97127   9.207   4.838   3.372 -0.3870  0.2105 -0.6085
  720MOL0     C97128   9.262   4.964   3.425  0.9626  0.0193  0.4512
  720MOL0     C97129   9.286   5.066   3.472  0.3557  0.1372  0.1044
  720MOL0     C97130   9.013   4.409   2.966 -1.1226  0.2501  0.0947
  720MOL0     C97131   8.925   4.336   2.892  1.0548 -1.0187  0.4391
  720MOL0     C97132   8.950   4.190   2.881  0.0492 -0.1770  0.9097
  720MOL0     H97133   8.592   4.198   2.550 -0.3102  0.1735  0.0220
  720MOL0     H97134   8.444   4.160   2.371  1.4576 -0.0956  0.2512
  720MOL0     H97135   8.240   4.140   2.173 -2.3918 -0.3156 -1.2984
  720MOL0     H97136   8.184   4.098   2.337 -0.6971 -0.7043 -1.4795
  720MOL0     H97137   7.984   4.094   2.195 -0.1837 -0.9049  3.6592
  720MOL0     H97138   8.023   4.245   2.111 -0.9507 -0.9456 -0.0583
  720MOL0     H97139   7.975   4.350   2.339  1.2351  0.1490  2.0900
  720MOL0     H97140   7.958   4.184   2.406 -0.2640 -0.2871 -0.3445
  720MOL0     H97141   7.771   4.291   2.174  3.5229  3.3177  0.5458
  720MOL0     H97142   7.780   4.130   2.231 -0.3584  0.6927 -1.8538
  720MOL0     H97143   7.601   4.254   2.351  1.3752 -1.3796 -2.3751
  720MOL0     H97144   7.730   4.224   2.468  0.2041  1.3679  1.5873
  720MOL0     H97145   7.815   4.461   2.426  0.2446  1.3111 -0.8180
  720MOL0     H97146   7.680   4.495   2.311 -0.3355  0.3724 -0.4947
  720MOL0     H97147   7.631   4.410   2.587  1.4079  0.5591 -0.9738
  720MOL0     H97148   7.510   4.463   2.468 -0.5305 -0.1285 -0.9982
  720MOL0     H97149   7.739   4.607   2.595 -0.4877 -0.3316  2.0539
  720MOL0     H97150   7.633   4.689   2.474  1.0269 -0.7952  0.1647
  720MOL0     H97151   7.404   4.788   2.566 -1.8605 -0.5200 -0.3746
  720MOL0     H97152   7.249   4.907   2.730 -0.6096  0.5951  0.4712
  720MOL0     H97153   7.269   4.872   2.904 -0.0505  3.1584  1.4718
  720MOL0     H97154   7.465   5.039   2.918  0.2683  1.5822  0.5769
  720MOL0     H97155   7.444   5.061   2.744  0.4432  0.3260  0.5232
  720MOL0     H97156   7.232   5.122   2.958  0.0377  0.9959  1.4416
  720MOL0     H97157   7.205   5.151   2.791  0.6558 -1.7109 -0.5595
  720MOL0     H97158   7.421   5.263   2.963 -3.3530 -2.4021  3.5384
  720MOL0     H97159   7.273   5.352   2.903 -1.7552 -1.4872  0.1887
  720MOL0     H97160   7.402   5.578   2.806  0.3552  1.3025 -2.4727
  720MOL0     H97161   7.587   5.739   2.846 -0.9506  0.2800 -0.0092
  720MOL0     H97162   8.055   5.704   3.059  1.7280 -0.2668  1.1639
  720MOL0     H97163   8.259   5.867   3.104 -0.6073  2.3999 -1.9789
  720MOL0     H97164   8.545   5.924   2.753  0.7736  0.3716  0.7346
  720MOL0     H97165   8.420   6.054   2.752 -1.4740 -0.1991  1.9054
  720MOL0     H97166   8.574   6.167   2.936  1.4361  0.2706  1.0352
  720MOL0     H97167   8.676   6.025   2.911  1.3185  0.9171 -2.4546
  720MOL0     H97168   8.668   6.117   2.652  1.7742 -0.8006  1.7488
  720MOL0     H97169   8.610   6.270   2.732  1.9619  1.3596 -0.4591
  720MOL0     H97170   8.884   6.133   2.747  0.6471  1.1939 -0.5046
  720MOL0     H97171   8.815   6.237   2.875 -5.0315 -2.8123  1.1180
  720MOL0     H97172   8.959   6.375   2.709  0.5986 -1.8568  1.1742
  720MOL0     H97173   8.791   6.420   2.707  0.0329 -0.0627  1.3568
  720MOL0     H97174   8.927   6.216   2.512 -1.0455 -1.3685 -0.8402
  720MOL0     H97175   8.771   6.292   2.488  1.5968 -0.3853 -1.8611
  720MOL0     H97176   9.044   6.392   2.489 -0.6843 -0.3299  3.1394
  720MOL0     H97177   8.927   6.509   2.482 -3.3582 -0.8372 -0.1633
  720MOL0     H97178   8.939   6.282   2.276 -2.4719 -0.0824  0.9210
  720MOL0     H97179   8.856   6.439   2.261 -2.2104 -1.3762  2.6057
  720MOL0     H97180   8.343   5.846   2.686 -0.5487  3.0140  0.6160
  720MOL0     H97181   8.151   5.693   2.656  0.9057  0.2681 -0.8261
  720MOL0     H97182   7.872   5.423   2.767 -0.7510 -1.5863  0.6497
  720MOL0     H97183   7.674   5.266   2.736 -2.7598  0.1007 -1.0238
  720MOL0     H97184   8.215   4.504   2.452 -1.7029 -1.9259 -1.8563
  720MOL0     H97185   8.379   4.564   2.645  1.5314 -0.5816  1.5791
  720MOL0     H97186   8.703   4.600   2.838 -0.2896  0.1914 -0.4560
  720MOL0     H97187   8.909   4.727   2.944  4.5487  0.1346  0.2122
  720MOL0     H97188   9.122   4.494   3.185 -0.5966  0.0038  0.6640
  720MOL0     H97189   9.046   4.656   3.231 -1.0649 -0.1001 -1.8741
  720MOL0     H97190   9.336   4.631   3.121 -1.7746  1.1088 -1.8235
  720MOL0     H97191   9.305   4.597   3.289 -0.2026 -2.3598 -1.0868
  720MOL0     H97192   9.247   4.869   3.157 -2.1441  0.3800  1.3812
  720MOL0     H97193   9.383   4.848   3.251  0.1382  3.0313 -1.6984
  720MOL0     H97194   9.098   4.846   3.360 -0.0944  4.7735 -2.2305
  720MOL0     H97195   9.242   4.758   3.439  2.9735  0.5493 -1.7820
  720MOL0     H97196   9.330   5.146   3.529 -0.1750 -0.5571  1.5541
  720MOL0     H97197   9.104   4.355   2.991 -0.1153 -0.1833 -3.8118
  720MOL0     H97198   8.924   4.158   2.780  3.2187  0.8137 -0.3574
  720MOL0     H97199   9.057   4.168   2.888 -0.2154 -2.2935 -0.7177
  720MOL0     H97200   8.905   4.132   2.961 -0.4105  0.5294  1.1730
  721MOL0     O97201   6.652   0.342   3.160  0.0019  0.0345 -0.7551
  721MOL0     C97202   6.704   0.265   3.241 -0.6880  0.3231  0.2423
  721MOL0     O97203   6.698   0.131   3.225  0.2247  0.9556 -0.4397
  721MOL0     C97204   6.604   0.083   3.139  0.4664 -0.6412  0.2604
  721MOL0     C97205   6.467   0.095   3.164 -0.4503 -0.2855 -0.3412
  721MOL0     C97206   6.376   0.044   3.080 -0.0701 -0.0572 -0.2078
  721MOL0     C97207   6.419  -0.026   2.959 -0.3197  0.3037  0.2315
  721MOL0     O97208   6.327  -0.072   2.865 -0.2028 -0.0380  0.2371
  721MOL0     C97209   6.195  -0.103   2.910 -0.2059 -0.3056  0.8621
  721MOL0     C97210   6.130  -0.184   2.801 -0.0185 -0.1842  0.6324
  721MOL0     C97211   6.000  -0.244   2.848 -0.7331  0.5773 -0.5035
  721MOL0     C97212   5.922  -0.319   2.732  0.3124  0.5069 -0.4235
  721MOL0     C97213   5.801  -0.384   2.793  0.5089 -0.5396 -0.8554
  721MOL0     C97214   5.749  -0.501   2.704  1.1791 -0.9538 -0.4500
  721MOL0     C97215   5.646  -0.587   2.768 -0.5154  0.4786 -0.2440
  721MOL0     C97216   5.634  -0.734   2.704  0.2131 -0.1803  0.3403
  721MOL0     N97217   5.622  -0.728   2.554  0.6569 -0.2524 -0.9157
  721MOL0     C97218   5.504  -0.705   2.489 -0.6011 -0.0638 -0.7812
  721MOL0     C97219   5.542  -0.703   2.352  0.0798  0.7031  0.4799
  721MOL0     C97220   5.453  -0.674   2.239  0.4450  0.0393  0.5801
  721MOL0     C97221   5.303  -0.714   2.273 -0.1782 -0.9746 -0.1740
  721MOL0     C97222   5.278  -0.855   2.308 -0.3809 -0.0369  0.5788
  721MOL0     C97223   5.124  -0.881   2.295 -0.8311 -0.5177  0.1659
  721MOL0     O97224   5.102  -0.982   2.195 -0.0449  0.2549  0.0332
  721MOL0     C97225   4.975  -1.026   2.163  0.3307  0.2300  0.8574
  721MOL0     C97226   4.861  -1.003   2.248 -0.1364  0.7239  0.1614
  721MOL0     C97227   4.733  -1.056   2.235 -0.1772 -0.3360 -0.1575
  721MOL0     C97228   4.706  -1.141   2.128  0.1932  0.6111  1.2178
  721MOL0     C97229   4.567  -1.200   2.125 -0.4520  0.7306 -0.1680
  721MOL0     O97230   4.546  -1.288   2.021  0.6114 -0.7076  0.0113
  721MOL0     C97231   4.433  -1.362   2.024 -0.1538  0.1020  0.5181
  721MOL0     C97232   4.433  -1.467   2.119 -0.4531 -0.2553  0.1272
  721MOL0     C97233   4.330  -1.563   2.111 -0.3870 -0.3059 -0.3850
  721MOL0     C97234   4.230  -1.560   2.011 -0.4995  0.6847 -0.2643
  721MOL0     O97235   4.127  -1.656   2.003  0.4918 -0.2704  0.1020
  721MOL0     C97236   4.164  -1.791   2.031 -0.7886 -0.3441 -0.3692
  721MOL0     C97237   4.044  -1.875   1.999  0.5098  0.1047 -0.8467
  721MOL0     C97238   4.067  -2.030   2.012  0.3643 -0.0275  0.6635
  721MOL0     C97239   4.154  -2.090   1.903 -0.0423 -0.3600  0.0425
  721MOL0     C97240   4.066  -2.110   1.772  0.4489  0.1715 -0.6253
  721MOL0     C97241   4.145  -2.181   1.662  0.6206  0.6567 -0.0053
  721MOL0     C97242   4.101  -2.326   1.634  0.4405  0.6228 -0.9897
  721MOL0     C97243   4.152  -2.388   1.506 -0.0536  1.2573  0.0302
  721MOL0    Cl97244   4.066  -2.535   1.468 -0.1261  0.3656 -0.0954
  721MOL0     C97245   4.238  -1.452   1.921 -0.5956  0.0011 -0.8287
  721MOL0     C97246   4.338  -1.356   1.927 -0.4564 -0.1583 -0.7232
  721MOL0     O97247   4.499  -1.190   2.224 -0.5407 -1.5901 -0.6319
  721MOL0     C97248   4.811  -1.180   2.041 -0.6333 -0.7716 -0.7626
  721MOL0     C97249   4.944  -1.130   2.070 -0.4411 -1.0822  0.4425
  721MOL0     N97250   5.682  -0.717   2.349 -0.0586  1.2225  0.7577
  721MOL0     N97251   5.729  -0.743   2.469  0.5773  0.2504 -0.7530
  721MOL0     C97252   6.557  -0.033   2.928 -0.4834 -0.0362  0.2794
  721MOL0     C97253   6.649   0.022   3.019 -0.2786  0.2704 -0.3680
  721MOL0     C97254   6.785   0.325   3.356  0.3190  0.6301 -0.4147
  721MOL0     C97255   6.831   0.233   3.462 -0.2464 -0.3411 -0.1570
  721MOL0     C97256   6.884   0.285   3.580 -0.6438  0.0802 -0.1425
  721MOL0     C97257   6.899   0.424   3.597  0.5905 -1.0465 -1.3401
  721MOL0     O97258   6.932   0.481   3.723  0.5312 -0.4898 -1.3031
  721MOL0     C97259   6.950   0.403   3.845  0.4171 -0.0990 -0.6095
  721MOL0     C97260   6.977   0.481   3.973  0.4819 -1.0229 -0.6788
  721MOL0     C97261   7.103   0.575   3.958  0.0620  0.0646 -0.0782
  721MOL0     C97262   7.171   0.633   4.078 -0.5917 -0.8483 -0.4295
  721MOL0     C97263   7.087   0.627   4.191  0.2627 -1.0330  0.5463
  721MOL0     C97264   7.020   0.634   4.290 -0.2447  0.0071 -0.3489
  721MOL0     C97265   6.862   0.511   3.494  0.3693  0.1896 -0.4215
  721MOL0     C97266   6.804   0.470   3.372  0.4009 -0.6691 -0.2607
  721MOL0     C97267   6.776   0.582   3.273  0.6232  0.8531  0.0891
  721MOL0     H97268   6.439   0.123   3.265  1.5306 -1.0778  0.4799
  721MOL0     H97269   6.272   0.058   3.109  0.0277  0.2697 -0.0137
  721MOL0     H97270   6.198  -0.173   2.994 -0.9606 -2.2637 -0.6774
  721MOL0     H97271   6.149  -0.006   2.934 -0.3533 -0.1060 -0.1761
  721MOL0     H97272   6.195  -0.265   2.766  0.6398  0.1596  1.0266
  721MOL0     H97273   6.102  -0.119   2.718 -1.6000 -1.1648  0.3511
  721MOL0     H97274   5.940  -0.164   2.892 -1.8843 -0.9509  0.8314
  721MOL0     H97275   6.027  -0.326   2.916 -0.0261  1.8151  0.7770
  721MOL0     H97276   5.888  -0.247   2.657  1.2214  1.2834 -0.1028
  721MOL0     H97277   5.994  -0.393   2.695 -2.2409 -2.1443 -0.5151
  721MOL0     H97278   5.829  -0.431   2.888  3.3739 -2.1333 -2.3731
  721MOL0     H97279   5.726  -0.307   2.812  2.2919  1.4942 -1.6778
  721MOL0     H97280   5.702  -0.454   2.617  0.8885  0.3756  0.3900
  721MOL0     H97281   5.828  -0.567   2.670  0.5301 -0.7981 -2.3621
  721MOL0     H97282   5.551  -0.535   2.781  0.1951  1.2213  2.6472
  721MOL0     H97283   5.669  -0.609   2.873  3.2267 -2.0908 -1.3667
  721MOL0     H97284   5.724  -0.794   2.722 -1.6874 -3.2531  0.3637
  721MOL0     H97285   5.553  -0.789   2.753 -0.7328 -0.2398 -1.2149
  721MOL0     H97286   5.412  -0.673   2.536  0.0057  1.0460 -0.3157
  721MOL0     H97287   5.455  -0.570   2.205 -0.3346 -1.2950 -4.2776
  721MOL0     H97288   5.499  -0.738   2.164  2.7826  2.6969 -0.4064
  721MOL0     H97289   5.279  -0.650   2.359 -2.6787 -0.5360 -1.1027
  721MOL0     H97290   5.245  -0.683   2.186  0.6265 -0.6669 -0.6108
  721MOL0     H97291   5.298  -0.878   2.413 -3.8627  0.6398  1.4998
  721MOL0     H97292   5.333  -0.928   2.247 -0.9197 -1.7555  2.0629
  721MOL0     H97293   5.073  -0.795   2.253 -0.1163 -1.1960 -2.2857
  721MOL0     H97294   5.093  -0.917   2.393  1.2059  0.6771  1.3204
  721MOL0     H97295   4.881  -0.932   2.329  0.4054  0.4971  0.2327
  721MOL0     H97296   4.650  -1.025   2.298  1.7709 -1.3166  3.1350
  721MOL0     H97297   4.512  -1.499   2.187 -0.2377 -2.0634 -0.8935
  721MOL0     H97298   4.331  -1.650   2.176  1.4927 -0.8686 -1.0870
  721MOL0     H97299   4.246  -1.834   1.973  1.1958  1.5893  0.8866
  721MOL0     H97300   4.201  -1.784   2.133 -3.9479  1.4757  0.7944
  721MOL0     H97301   3.964  -1.855   2.071  1.0608  0.5829 -0.3649
  721MOL0     H97302   4.000  -1.853   1.902 -2.7856  1.3462  0.7747
  721MOL0     H97303   4.117  -2.048   2.107 -2.5390 -0.6194  2.1929
  721MOL0     H97304   3.974  -2.087   2.020  0.9343 -0.9062  1.1153
  721MOL0     H97305   4.192  -2.189   1.931 -3.9956 -2.7182 -2.0469
  721MOL0     H97306   4.238  -2.022   1.884 -0.2932  0.6221  2.1927
  721MOL0     H97307   4.039  -2.008   1.741  2.3219  0.4585 -1.4060
  721MOL0     H97308   3.971  -2.161   1.791 -0.5173  1.8033 -0.7929
  721MOL0     H97309   4.139  -2.126   1.568 -2.0925  0.5106  0.0084
  721MOL0     H97310   4.247  -2.186   1.704  2.0269 -1.4803 -3.2726
  721MOL0     H97311   3.992  -2.328   1.631  0.4124 -0.2894  0.0754
  721MOL0     H97312   4.136  -2.389   1.716 -2.0239  0.8368  0.3217
  721MOL0     H97313   4.144  -2.324   1.419 -0.8911  1.4401  0.2330
  721MOL0     H97314   4.257  -2.417   1.516 -0.3414 -0.9871 -2.3626
  721MOL0     H97315   4.159  -1.440   1.848 -2.3317 -1.2691  0.7612
  721MOL0     H97316   4.354  -1.285   1.846 -0.4640  1.9790  1.0721
  721MOL0     H97317   4.797  -1.245   1.955  1.1763 -2.4646  0.1183
  721MOL0     H97318   5.015  -1.139   1.989 -0.9385  1.9961 -0.4835
  721MOL0     H97319   6.598  -0.082   2.841 -0.7067 -1.5298  0.9808
  721MOL0     H97320   6.755   0.037   3.004 -0.1172 -1.8910 -1.9901
  721MOL0     H97321   6.826   0.126   3.449 -0.1000 -0.2209 -1.3144
  721MOL0     H97322   6.913   0.218   3.660 -0.3752 -2.3147 -2.1102
  721MOL0     H97323   7.025   0.325   3.830  0.8318  0.4081 -1.2403
  721MOL0     H97324   6.856   0.348   3.857  0.6298 -0.0344  1.8020
  721MOL0     H97325   7.002   0.404   4.046 -0.9178 -0.6772  0.1783
  721MOL0     H97326   6.892   0.540   4.007  0.3410 -0.8953 -1.2382
  721MOL0     H97327   7.077   0.659   3.893 -2.6010  0.2574  1.0876
  721MOL0     H97328   7.180   0.521   3.903  2.5977  1.2069  2.1369
  721MOL0     H97329   7.263   0.578   4.097 -0.6061 -0.8892 -0.4794
  721MOL0     H97330   7.196   0.739   4.066  1.0490 -1.3395 -1.6341
  721MOL0     H97331   6.970   0.647   4.384 -0.1737  0.8260 -0.4181
  721MOL0     H97332   6.872   0.617   3.513  1.8417  0.2437 -1.4043
  721MOL0     H97333   6.846   0.564   3.190 -0.6586  0.2309 -0.8940
  721MOL0     H97334   6.672   0.577   3.241 -0.2560 -1.6363  2.9255
  721MOL0     H97335   6.786   0.684   3.311  3.0796  0.7504 -0.1146
  722MOL0     O97336  10.286  10.535   8.569 -0.5623  0.2053 -0.4762
  722MOL0     C97337  10.303  10.430   8.610 -0.2707 -0.8832  0.5309
  722MOL0     O97338  10.411  10.354   8.572  0.2102  0.7517  1.1598
  722MOL0     C97339  10.490  10.395   8.477  0.5244 -0.2810  0.2925
  722MOL0     C97340  10.576  10.502   8.510  0.2577 -0.6605 -0.5826
  722MOL0     C97341  10.659  10.548   8.417 -0.3380  0.2007  0.3020
  722MOL0     C97342  10.677  10.477   8.294 -0.6495 -0.1165  0.9303
  722MOL0     O97343  10.753  10.527   8.195  0.9015  0.0672  0.2269
  722MOL0     C97344  10.749  10.672   8.185  0.0673 -0.6771  0.1600
  722MOL0     C97345  10.806  10.704   8.042 -0.3843 -1.4040  0.2817
  722MOL0     C97346  10.728  10.816   7.981  2.3279 -0.9246 -1.0892
  722MOL0     C97347  10.807  10.896   7.870 -0.9732  0.4354  0.3995
  722MOL0     C97348  10.720  10.978   7.784 -0.4667  0.6286  1.0088
  722MOL0     C97349  10.800  11.068   7.681 -0.7237 -0.3856  1.0839
  722MOL0     C97350  10.843  10.975   7.567 -0.0480  0.4744  0.6743
  722MOL0     C97351  10.921  11.057   7.466  0.5249 -0.0932  0.7977
  722MOL0     N97352  11.001  10.969   7.377  0.1824 -0.7546  0.4026
  722MOL0     C97353  11.121  10.907   7.409 -1.3627 -0.6326 -0.9397
  722MOL0     C97354  11.155  10.829   7.306  0.2421 -0.1133  0.5007
  722MOL0     C97355  11.283  10.756   7.269 -0.0996 -0.7945 -1.2118
  722MOL0     C97356  11.254  10.662   7.157  0.0379  0.5892  0.2776
  722MOL0     C97357  11.164  10.534   7.190 -0.9821 -0.3806  0.7140
  722MOL0     C97358  11.241  10.408   7.217 -0.0584  0.2813 -0.0167
  722MOL0     O97359  11.291  10.425   7.346 -0.4031  0.4242 -0.3833
  722MOL0     C97360  11.431  10.409   7.369  1.1505  0.5283  0.7313
  722MOL0     C97361  11.476  10.287   7.414 -1.2690  0.5975 -0.8340
  722MOL0     C97362  11.615  10.272   7.435 -0.1069  0.0725 -0.2186
  722MOL0     C97363  11.706  10.363   7.381  0.1812 -0.0345  0.4082
  722MOL0     C97364  11.854  10.343   7.368  0.1726 -0.9362 -0.2618
  722MOL0     O97365  11.925  10.431   7.297 -0.4573 -0.3560  0.6028
  722MOL0     C97366  12.056  10.405   7.254  0.9762  0.4938 -0.1374
  722MOL0     C97367  12.081  10.406   7.118 -0.0621 -0.0427  0.1788
  722MOL0     C97368  12.215  10.375   7.076  0.2064 -0.3074 -0.0324
  722MOL0     C97369  12.317  10.357   7.174  0.3455 -0.5383  0.0073
  722MOL0     O97370  12.449  10.318   7.156  0.4247  0.1541  0.3456
  722MOL0     C97371  12.458  10.202   7.066  0.2017  0.1630  1.1124
  722MOL0     C97372  12.603  10.152   7.087  0.0661  1.0424  0.8292
  722MOL0     C97373  12.629  10.053   6.972 -0.2326  0.5009  0.3157
  722MOL0     C97374  12.733   9.944   7.009 -0.2772 -1.1225 -0.0549
  722MOL0     C97375  12.718   9.853   7.131  0.2382  0.2041  0.3189
  722MOL0     C97376  12.602   9.755   7.099 -0.1950 -1.2016  0.1151
  722MOL0     C97377  12.603   9.642   7.207  0.0571 -0.3057 -0.9066
  722MOL0     C97378  12.472   9.558   7.208  0.4070 -0.5813  0.2919
  722MOL0    Cl97379  12.490   9.418   7.315 -0.0807 -0.7624 -0.3312
  722MOL0     C97380  12.285  10.360   7.310 -0.0177 -0.5563 -0.4378
  722MOL0     C97381  12.157  10.382   7.352 -0.0847 -0.3137 -0.7336
  722MOL0     O97382  11.897  10.251   7.424  0.3205 -0.1618 -0.1097
  722MOL0     C97383  11.656  10.480   7.327 -0.1286 -0.7922  0.2089
  722MOL0     C97384  11.516  10.498   7.318 -1.2620  0.5786  1.9352
  722MOL0     N97385  11.056  10.838   7.217  0.5637  0.0964 -0.3050
  722MOL0     N97386  10.966  10.930   7.251  0.1241  0.6485 -0.6351
  722MOL0     C97387  10.604  10.358   8.270  0.2481  0.1856  0.0315
  722MOL0     C97388  10.505  10.314   8.366  1.0196  0.3971 -0.3736
  722MOL0     C97389  10.198  10.352   8.679 -0.4818 -1.1287 -0.0475
  722MOL0     C97390  10.201  10.215   8.666 -0.6475  1.1235  0.8789
  722MOL0     C97391  10.102  10.138   8.736  0.0720 -0.5263 -0.3480
  722MOL0     C97392  10.012  10.199   8.821  0.2369 -0.7394 -0.6691
  722MOL0     O97393   9.914  10.123   8.888  0.9711  0.2255  0.3415
  722MOL0     C97394   9.843  10.027   8.821 -0.2545 -0.5842 -0.3720
  722MOL0     C97395   9.742   9.978   8.925 -0.2983 -0.3756  0.0329
  722MOL0     C97396   9.637  10.088   8.960 -0.6500  0.8776  0.0573
  722MOL0     C97397   9.546  10.136   8.841  0.0758 -0.3889  0.4649
  722MOL0     C97398   9.423  10.206   8.893  0.3809 -0.0872  0.4235
  722MOL0     C97399   9.341  10.275   8.945  0.9143 -0.0707 -0.4146
  722MOL0     C97400  10.021  10.336   8.846  1.4978 -0.0095 -0.0950
  722MOL0     C97401  10.118  10.414   8.774  1.1057  0.9336 -0.7973
  722MOL0     C97402  10.134  10.559   8.808  0.6470  0.2243 -0.0432
  722MOL0     H97403  10.570  10.562   8.600  1.0457 -0.6794 -0.5149
  722MOL0     H97404  10.712  10.639   8.444  0.0086  0.3044 -0.6844
  722MOL0     H97405  10.646  10.707   8.176  0.6736  0.5404 -5.0463
  722MOL0     H97406  10.798  10.724   8.268  0.6176 -3.9739  2.0797
  722MOL0     H97407  10.805  10.624   7.968  1.4798  0.2656 -1.6985
  722MOL0     H97408  10.912  10.725   8.053 -0.3229 -2.0697  1.0185
  722MOL0     H97409  10.680  10.875   8.059  2.1133 -3.0317  0.4817
  722MOL0     H97410  10.635  10.776   7.939  1.4582 -1.4452  1.1463
  722MOL0     H97411  10.891  10.956   7.905  0.8603  1.5114 -4.9061
  722MOL0     H97412  10.863  10.822   7.813  2.3868  4.0456 -1.3986
  722MOL0     H97413  10.638  10.921   7.738  1.7022 -2.9215  1.2153
  722MOL0     H97414  10.664  11.061   7.829  0.0790  2.3912 -1.3473
  722MOL0     H97415  10.740  11.145   7.630  2.2082  1.7517  0.6434
  722MOL0     H97416  10.885  11.124   7.720 -0.6817 -0.2669  0.8207
  722MOL0     H97417  10.752  10.936   7.520  0.2761  1.1708 -0.5830
  722MOL0     H97418  10.910  10.891   7.591  2.8071  2.0887 -1.1059
  722MOL0     H97419  10.848  11.110   7.403 -0.4626 -1.2050  0.9734
  722MOL0     H97420  10.978  11.130   7.525  0.0314  0.7188  0.3062
  722MOL0     H97421  11.186  10.931   7.493 -3.1201  1.3476 -0.0648
  722MOL0     H97422  11.360  10.830   7.246 -0.2687  1.9242  4.8687
  722MOL0     H97423  11.317  10.712   7.363 -1.9888 -0.0409 -0.1113
  722MOL0     H97424  11.206  10.712   7.073  1.7680 -0.7936 -1.6322
  722MOL0     H97425  11.346  10.615   7.122  2.0077  4.1793  0.2715
  722MOL0     H97426  11.096  10.516   7.106  0.4376 -0.3467 -0.4719
  722MOL0     H97427  11.114  10.558   7.284  2.6278  4.7920  1.7263
  722MOL0     H97428  11.316  10.390   7.140 -0.8039 -3.8694 -0.0218
  722MOL0     H97429  11.189  10.312   7.212  0.8504 -0.1706 -1.3357
  722MOL0     H97430  11.403  10.214   7.448 -0.2745 -0.2701 -0.5202
  722MOL0     H97431  11.647  10.173   7.466 -0.5795 -0.5498 -1.6112
  722MOL0     H97432  11.998  10.431   7.052 -0.8330  0.6652  1.3937
  722MOL0     H97433  12.240  10.386   6.971 -1.1895  2.9390 -0.1621
  722MOL0     H97434  12.378  10.130   7.084  0.8570 -0.3908  1.8990
  722MOL0     H97435  12.449  10.235   6.962  1.4173  0.2059  1.0005
  722MOL0     H97436  12.667  10.240   7.075 -1.4281  2.1970  1.0586
  722MOL0     H97437  12.632  10.103   7.180  1.4959 -0.2424 -0.2187
  722MOL0     H97438  12.530  10.014   6.944 -2.3842  3.8960  2.4491
  722MOL0     H97439  12.661  10.104   6.881 -3.1023  1.8399 -0.0607
  722MOL0     H97440  12.827   9.994   7.033 -1.7450  0.7352  2.2987
  722MOL0     H97441  12.735   9.875   6.924  0.3618  0.9218 -1.7709
  722MOL0     H97442  12.704   9.902   7.227 -0.4478 -0.8267  0.7660
  722MOL0     H97443  12.812   9.798   7.141 -0.1360 -1.6374 -4.0558
  722MOL0     H97444  12.501   9.797   7.109  0.1713  0.0921 -1.2387
  722MOL0     H97445  12.606   9.699   7.005 -1.4338 -3.1910  1.1620
  722MOL0     H97446  12.608   9.690   7.305 -1.3274  0.7239 -1.3023
  722MOL0     H97447  12.688   9.577   7.186 -0.2290 -0.9515 -0.1194
  722MOL0     H97448  12.396   9.627   7.246  1.3644  1.6079 -1.5435
  722MOL0     H97449  12.429   9.523   7.114  1.5991  0.3228 -0.6197
  722MOL0     H97450  12.361  10.354   7.388  1.4710 -0.6589 -1.8473
  722MOL0     H97451  12.151  10.402   7.459  0.8837  2.6659 -1.1437
  722MOL0     H97452  11.719  10.558   7.285 -3.0086  1.1617 -0.8103
  722MOL0     H97453  11.482  10.584   7.262 -1.5987  0.3357  1.7607
  722MOL0     H97454  10.628  10.304   8.179  0.0272  2.7702 -1.6560
  722MOL0     H97455  10.449  10.226   8.333 -0.8156  1.2469  0.3493
  722MOL0     H97456  10.267  10.171   8.591 -1.5975  0.2919  0.5069
  722MOL0     H97457  10.094  10.032   8.711 -1.1259 -0.7575  0.8768
  722MOL0     H97458   9.906   9.945   8.786  1.6426  0.1383  1.1495
  722MOL0     H97459   9.796  10.086   8.742 -0.1660  1.1741  0.8384
  722MOL0     H97460   9.787   9.937   9.016  2.3765 -1.1823 -1.5161
  722MOL0     H97461   9.698   9.894   8.870  2.1728  0.0742 -2.9333
  722MOL0     H97462   9.684  10.177   9.004 -0.0884  0.8616 -0.4923
  722MOL0     H97463   9.573  10.040   9.034  1.1377  1.3347  1.9801
  722MOL0     H97464   9.593  10.213   8.780  1.5928 -0.3061  1.6778
  722MOL0     H97465   9.528  10.051   8.775 -3.1845  1.5187 -1.3143
  722MOL0     H97466   9.251  10.326   8.975  0.8032 -0.7725  0.4601
  722MOL0     H97467   9.949  10.385   8.911 -2.0602  1.6031 -4.6527
  722MOL0     H97468  10.097  10.613   8.721  1.6222  0.2874 -0.4219
  722MOL0     H97469  10.072  10.602   8.888  2.2796  1.8822  0.4013
  722MOL0     H97470  10.238  10.583   8.829  0.0753  2.7830  0.1742
  723MOL0     O97471   5.430   4.402   4.741 -0.3493  0.5941  1.2902
  723MOL0     C97472   5.475   4.366   4.847  0.2805  0.5630  0.4914
  723MOL0     O97473   5.548   4.244   4.859  0.9487  0.0705  0.9474
  723MOL0     C97474   5.586   4.169   4.744 -0.7645  0.0739  0.1643
  723MOL0     C97475   5.644   4.241   4.639 -0.0116  0.2156  0.6057
  723MOL0     C97476   5.676   4.166   4.526 -0.1277  0.0906  0.0192
  723MOL0     C97477   5.657   4.026   4.525 -0.4188 -0.6872  0.6363
  723MOL0     O97478   5.692   3.969   4.407  1.0344  0.0325  0.3562
  723MOL0     C97479   5.618   3.848   4.376 -0.0224 -0.1722  0.1150
  723MOL0     C97480   5.643   3.824   4.234 -0.3220  1.0968  0.1213
  723MOL0     C97481   5.578   3.683   4.198 -1.2876 -0.0334 -0.8142
  723MOL0     C97482   5.605   3.645   4.053 -0.3308  0.1048  0.1745
  723MOL0     C97483   5.583   3.494   4.046 -0.0699  0.4907 -0.4958
  723MOL0     C97484   5.621   3.434   3.910 -0.4436 -0.3186 -0.3092
  723MOL0     C97485   5.568   3.293   3.899 -0.1656 -0.7354  0.8096
  723MOL0     C97486   5.544   3.251   3.754 -0.2046 -0.2856  1.2258
  723MOL0     N97487   5.408   3.190   3.734 -0.5041  0.2815 -0.4402
  723MOL0     C97488   5.292   3.254   3.769 -0.0712 -0.1125  0.1245
  723MOL0     C97489   5.195   3.164   3.712  0.0764 -0.5596 -0.8157
  723MOL0     C97490   5.048   3.145   3.744 -0.5651  0.8460  0.8099
  723MOL0     C97491   4.977   3.263   3.716  0.1332 -0.1881 -0.2562
  723MOL0     C97492   4.823   3.251   3.713  1.0574 -0.2891  0.4105
  723MOL0     C97493   4.750   3.327   3.823  0.0935 -0.3962  0.6681
  723MOL0     O97494   4.768   3.468   3.813 -0.0689 -0.3774  0.3040
  723MOL0     C97495   4.727   3.551   3.920  0.7200  1.0892  0.4579
  723MOL0     C97496   4.645   3.512   4.030  0.2870  0.7146  0.2060
  723MOL0     C97497   4.602   3.597   4.125  0.0874 -0.4116 -1.1310
  723MOL0     C97498   4.632   3.734   4.123 -0.1818  0.5040  0.7852
  723MOL0     C97499   4.591   3.816   4.231 -0.0132  0.5177  0.0242
  723MOL0     O97500   4.642   3.942   4.225 -0.4917 -0.2386  0.7867
  723MOL0     C97501   4.597   4.021   4.320 -0.4218 -0.5751  0.3375
  723MOL0     C97502   4.693   4.066   4.410  0.0156  1.0271  0.4578
  723MOL0     C97503   4.653   4.145   4.521 -0.5083 -0.5363 -0.2276
  723MOL0     C97504   4.517   4.178   4.548 -0.0682  1.1994  0.7438
  723MOL0     O97505   4.487   4.263   4.655  0.0583  0.7470 -0.7119
  723MOL0     C97506   4.550   4.383   4.619  0.2528 -0.2827  0.2146
  723MOL0     C97507   4.478   4.497   4.692  0.3675  0.2395 -0.4935
  723MOL0     C97508   4.328   4.496   4.688 -0.0444  0.5373  0.7336
  723MOL0     C97509   4.264   4.446   4.823 -0.2426  0.2741  0.8173
  723MOL0     C97510   4.123   4.502   4.834  0.6585  1.4404  0.2940
  723MOL0     C97511   4.119   4.651   4.877 -0.0410 -0.9619  1.0106
  723MOL0     C97512   3.989   4.723   4.838 -0.2429 -0.4935  0.8479
  723MOL0     C97513   3.971   4.759   4.693 -0.3666 -0.0939  0.6228
  723MOL0    Cl97514   3.802   4.785   4.647  0.1083 -0.0124  0.0491
  723MOL0     C97515   4.420   4.118   4.460  0.5187  0.1136  0.7071
  723MOL0     C97516   4.459   4.041   4.349 -0.2162 -0.1409 -0.4043
  723MOL0     O97517   4.518   3.768   4.315  0.2406 -0.0683  0.7419
  723MOL0     C97518   4.710   3.775   4.011  0.1659  0.1038  0.2189
  723MOL0     C97519   4.755   3.689   3.918 -0.4645 -0.1294  0.7710
  723MOL0     N97520   5.259   3.070   3.638 -0.4157 -0.4886  0.0693
  723MOL0     N97521   5.384   3.078   3.657 -0.5439  0.3882 -1.0429
  723MOL0     C97522   5.618   3.951   4.640 -0.1141 -0.4036  0.3634
  723MOL0     C97523   5.560   4.031   4.743 -0.0536  0.9566  0.4823
  723MOL0     C97524   5.449   4.445   4.967 -0.0444 -0.4239  0.0888
  723MOL0     C97525   5.453   4.385   5.091 -0.1839  1.2148 -0.0430
  723MOL0     C97526   5.419   4.449   5.220 -0.3554  0.0834 -0.5892
  723MOL0     C97527   5.391   4.579   5.225 -0.2149 -0.9250 -0.4867
  723MOL0     O97528   5.362   4.628   5.344  0.2905  0.4821  0.2232
  723MOL0     C97529   5.334   4.772   5.360 -0.1122  0.5887 -0.1706
  723MOL0     C97530   5.296   4.785   5.502 -1.2185  0.2580 -0.5332
  723MOL0     C97531   5.262   4.929   5.545  0.2921 -0.0085  0.3194
  723MOL0     C97532   5.156   5.008   5.470  0.9247  0.1949 -0.1145
  723MOL0     C97533   5.014   4.965   5.496 -0.5079  1.0657  0.1192
  723MOL0     C97534   4.896   4.942   5.509  0.5261 -1.0340 -0.3478
  723MOL0     C97535   5.392   4.652   5.103 -0.0638  0.4879 -0.2363
  723MOL0     C97536   5.422   4.587   4.979  0.5886  1.2047 -0.0710
  723MOL0     C97537   5.419   4.670   4.856  0.3241 -0.1563  0.5121
  723MOL0     H97538   5.670   4.346   4.632  3.1572 -0.5729 -1.4542
  723MOL0     H97539   5.706   4.214   4.434 -0.9311  2.0122  0.7129
  723MOL0     H97540   5.670   3.780   4.444 -2.1040  1.2669  3.4314
  723MOL0     H97541   5.510   3.848   4.396 -0.5451  2.8206 -1.9772
  723MOL0     H97542   5.747   3.807   4.207 -0.9508 -1.4261 -1.0519
  723MOL0     H97543   5.592   3.899   4.173 -1.8884 -1.6242 -2.1820
  723MOL0     H97544   5.470   3.690   4.214 -0.9543  2.3714  0.8358
  723MOL0     H97545   5.604   3.614   4.278 -0.2590  3.1090  1.7828
  723MOL0     H97546   5.539   3.694   3.980 -1.2756  0.3215  1.1503
  723MOL0     H97547   5.710   3.672   4.040  0.0658 -0.9398  1.0895
  723MOL0     H97548   5.634   3.441   4.127 -1.3790 -1.6002 -0.9505
  723MOL0     H97549   5.476   3.477   4.059  0.3235 -1.1563  0.8887
  723MOL0     H97550   5.587   3.506   3.835 -1.5554 -1.0710 -0.5570
  723MOL0     H97551   5.730   3.432   3.902 -0.5593 -0.8690 -2.1716
  723MOL0     H97552   5.482   3.282   3.966  1.0253 -2.0557  2.2295
  723MOL0     H97553   5.657   3.241   3.935  1.0166  0.9209  0.3920
  723MOL0     H97554   5.554   3.334   3.683  2.4629 -0.6867  1.0629
  723MOL0     H97555   5.616   3.173   3.730 -1.3631 -0.1432 -3.7456
  723MOL0     H97556   5.262   3.327   3.844 -2.1738 -1.7338  1.0111
  723MOL0     H97557   5.010   3.061   3.686  1.2823 -0.6556  1.6281
  723MOL0     H97558   5.036   3.126   3.852 -0.7279 -2.0586  0.3641
  723MOL0     H97559   4.979   3.340   3.793  0.3705  2.4275 -2.6933
  723MOL0     H97560   5.015   3.324   3.634  0.2274  1.2492  0.8199
  723MOL0     H97561   4.799   3.145   3.727  4.7843 -1.1923  1.0943
  723MOL0     H97562   4.785   3.286   3.617  0.5779 -0.7498  0.4268
  723MOL0     H97563   4.791   3.304   3.922 -0.3254 -0.9288  0.7220
  723MOL0     H97564   4.644   3.300   3.827 -0.0473  0.2368  1.3000
  723MOL0     H97565   4.627   3.406   4.042  3.6208  0.0207 -0.1108
  723MOL0     H97566   4.530   3.561   4.198 -0.1076  0.1818 -1.0191
  723MOL0     H97567   4.799   4.050   4.393  0.3642  4.3925 -1.5555
  723MOL0     H97568   4.735   4.174   4.585  0.2752 -0.5913 -1.1813
  723MOL0     H97569   4.658   4.383   4.633  0.4248 -1.2560 -0.9810
  723MOL0     H97570   4.527   4.405   4.514 -0.6372  2.1488  0.8417
  723MOL0     H97571   4.515   4.506   4.795 -4.2098  4.9683  1.2326
  723MOL0     H97572   4.513   4.593   4.653 -0.4739  1.0229  0.5845
  723MOL0     H97573   4.282   4.593   4.666  0.3499  0.8430  1.2205
  723MOL0     H97574   4.303   4.418   4.616  2.0220  1.0484 -0.6078
  723MOL0     H97575   4.321   4.470   4.913  1.2899 -1.7124  0.4351
  723MOL0     H97576   4.259   4.337   4.823  1.5527  0.1527 -0.4881
  723MOL0     H97577   4.081   4.445   4.917  0.7696 -1.8171 -1.7262
  723MOL0     H97578   4.068   4.484   4.741 -1.2186  0.5285  1.5174
  723MOL0     H97579   4.127   4.657   4.986  0.1607 -0.5433  0.9741
  723MOL0     H97580   4.203   4.694   4.822 -1.1705  0.4947  0.3890
  723MOL0     H97581   3.992   4.819   4.891 -2.8808 -0.1026  0.4432
  723MOL0     H97582   3.902   4.674   4.883  1.2018 -0.6055  3.7598
  723MOL0     H97583   4.022   4.853   4.672 -0.0014 -0.5643 -0.7013
  723MOL0     H97584   4.020   4.685   4.628  0.6001 -0.6320  1.9269
  723MOL0     H97585   4.312   4.130   4.463 -0.0131 -1.6525 -3.9673
  723MOL0     H97586   4.384   3.992   4.287 -2.8718  0.8189  1.8703
  723MOL0     H97587   4.737   3.880   4.011  2.3685 -0.4197  0.3165
  723MOL0     H97588   4.808   3.734   3.835  1.7197 -0.6568  1.8315
  723MOL0     H97589   5.606   3.843   4.632  2.0745 -0.6802  0.1997
  723MOL0     H97590   5.508   3.997   4.832 -3.1609  1.2622 -1.0846
  723MOL0     H97591   5.463   4.277   5.094  0.3311  1.2421 -0.6348
  723MOL0     H97592   5.437   4.400   5.315 -1.4759  0.0379 -0.3945
  723MOL0     H97593   5.252   4.789   5.289 -0.6605 -2.9658 -0.5665
  723MOL0     H97594   5.424   4.825   5.326  1.6061 -1.7675  0.4147
  723MOL0     H97595   5.375   4.764   5.574  0.1440  1.5514 -1.5851
  723MOL0     H97596   5.214   4.718   5.532  1.6537 -2.3495  2.2807
  723MOL0     H97597   5.355   4.986   5.540  0.8609 -0.8012  1.5076
  723MOL0     H97598   5.240   4.921   5.651  3.1552 -1.0271  0.9130
  723MOL0     H97599   5.152   5.111   5.508  0.2091  0.2603 -0.3508
  723MOL0     H97600   5.183   5.009   5.364  0.4495 -1.3105 -0.2705
  723MOL0     H97601   4.791   4.924   5.514  0.6835 -4.1854 -4.1813
  723MOL0     H97602   5.361   4.757   5.106  4.8278  2.1753 -0.2807
  723MOL0     H97603   5.426   4.777   4.880 -1.1486  0.5809 -1.9839
  723MOL0     H97604   5.509   4.660   4.795 -0.8526 -1.3249 -1.1420
  723MOL0     H97605   5.324   4.663   4.802  0.9445  2.4708 -1.1056
  724MOL0     O97606   5.064   1.650   5.506 -0.0996 -1.0704 -1.3085
  724MOL0     C97607   4.988   1.628   5.606 -0.5669 -0.0104  0.1246
  724MOL0     O97608   5.016   1.646   5.736  0.6834 -0.4961  0.0385
  724MOL0     C97609   5.146   1.683   5.770 -0.4051  0.5510  0.0704
  724MOL0     C97610   5.236   1.581   5.780 -0.4650 -0.4416 -0.3125
  724MOL0     C97611   5.355   1.601   5.857 -0.0765 -0.4714  0.5250
  724MOL0     C97612   5.401   1.729   5.883 -0.0789  0.2391  1.0125
  724MOL0     O97613   5.528   1.756   5.938  0.7101  0.7488  0.6101
  724MOL0     C97614   5.646   1.712   5.877  0.4762  0.1644  0.4145
  724MOL0     C97615   5.753   1.777   5.960  0.1350  0.1386 -0.1877
  724MOL0     C97616   5.903   1.737   5.950 -0.2180 -0.2199 -0.8814
  724MOL0     C97617   5.981   1.794   5.834 -0.1231 -0.3369  0.2373
  724MOL0     C97618   6.133   1.754   5.848 -0.1217  0.0898 -0.3098
  724MOL0     C97619   6.215   1.872   5.867  0.2223  0.7169  0.5676
  724MOL0     C97620   6.365   1.821   5.889  0.4645  0.1844  0.5311
  724MOL0     C97621   6.447   1.931   5.963 -0.1778 -1.1479 -0.7613
  724MOL0     N97622   6.436   1.939   6.110 -0.5072 -0.4299  0.4210
  724MOL0     C97623   6.331   1.888   6.190 -0.8593  0.4249  0.0782
  724MOL0     C97624   6.371   1.902   6.317  0.4327  1.0637 -0.0584
  724MOL0     C97625   6.294   1.879   6.439 -0.5023 -0.1309  0.3112
  724MOL0     C97626   6.304   2.002   6.536  0.0645 -0.2342 -1.2130
  724MOL0     C97627   6.221   1.971   6.669  0.7024 -0.3717 -0.1067
  724MOL0     C97628   6.310   1.896   6.763  0.5089  0.6588 -0.1172
  724MOL0     O97629   6.401   1.980   6.838  0.1121  0.5248 -0.4335
  724MOL0     C97630   6.498   1.910   6.905  0.8283 -0.2388  0.1523
  724MOL0     C97631   6.481   1.777   6.957 -0.0381  0.4356 -0.5270
  724MOL0     C97632   6.587   1.710   7.030 -0.0187 -0.3658 -0.0898
  724MOL0     C97633   6.717   1.763   7.048  0.6843 -0.0813 -0.0807
  724MOL0     C97634   6.821   1.682   7.092 -0.7557 -0.2864 -0.4236
  724MOL0     O97635   6.945   1.734   7.118 -0.1779 -1.5458  0.4471
  724MOL0     C97636   7.055   1.651   7.132  0.3036  0.5361  0.0411
  724MOL0     C97637   7.159   1.662   7.036  0.5560  0.5279  0.2236
  724MOL0     C97638   7.277   1.586   7.045 -0.6292 -0.5400 -0.5751
  724MOL0     C97639   7.287   1.491   7.148  1.3177 -0.5890  0.5802
  724MOL0     O97640   7.394   1.407   7.167  0.4226  0.4334 -0.7812
  724MOL0     C97641   7.430   1.315   7.060 -0.1073  0.4811  0.0137
  724MOL0     C97642   7.336   1.205   7.039  0.1597  0.4137  0.6236
  724MOL0     C97643   7.314   1.174   6.887  0.9859  0.0499  0.7116
  724MOL0     C97644   7.219   1.058   6.860 -0.9668  0.1268  0.5868
  724MOL0     C97645   7.200   1.038   6.709  0.3435 -0.8294  0.1821
  724MOL0     C97646   7.088   0.931   6.695 -0.6846 -0.5538 -0.7623
  724MOL0     C97647   7.051   0.909   6.553 -0.8929 -0.3119 -0.1178
  724MOL0     C97648   6.964   0.798   6.513 -0.4439 -0.0339 -0.6444
  724MOL0    Cl97649   6.959   0.797   6.329 -0.6276  0.1838 -0.0732
  724MOL0     C97650   7.188   1.483   7.242 -0.2268  0.3810 -0.7799
  724MOL0     C97651   7.074   1.566   7.239 -0.1932 -0.2826  0.7564
  724MOL0     O97652   6.800   1.563   7.092  0.0560  0.1229  0.3808
  724MOL0     C97653   6.729   1.893   6.988 -0.8648 -0.1613  0.2142
  724MOL0     C97654   6.627   1.965   6.918  0.2595  0.3235 -0.2398
  724MOL0     N97655   6.499   1.953   6.320  0.0229 -0.6291  0.0718
  724MOL0     N97656   6.538   1.968   6.197 -0.8444  0.2862  0.0685
  724MOL0     C97657   5.311   1.837   5.862  0.4765 -0.0395 -0.9156
  724MOL0     C97658   5.178   1.812   5.813  0.0034  0.5097 -0.4293
  724MOL0     C97659   4.849   1.574   5.580  1.1303 -0.0694  0.2960
  724MOL0     C97660   4.738   1.627   5.657  0.0271 -0.3963 -0.1069
  724MOL0     C97661   4.602   1.581   5.635 -0.9227  1.0549 -0.5834
  724MOL0     C97662   4.578   1.494   5.529 -0.9740 -0.1399  0.0193
  724MOL0     O97663   4.459   1.441   5.528  0.4430  0.4475 -0.2663
  724MOL0     C97664   4.408   1.384   5.402  0.4624 -0.3410  0.9700
  724MOL0     C97665   4.272   1.347   5.436  0.0413 -0.2478  1.1777
  724MOL0     C97666   4.186   1.306   5.311  0.0502  0.3407 -0.0262
  724MOL0     C97667   4.039   1.293   5.359  0.3081 -0.4574  0.3177
  724MOL0     C97668   3.967   1.227   5.256  0.2806  0.6069  0.3615
  724MOL0     C97669   3.901   1.185   5.165 -0.9750  0.2689  0.4559
  724MOL0     C97670   4.684   1.450   5.454 -1.3167 -0.8803  0.5355
  724MOL0     C97671   4.823   1.474   5.488  0.0001  0.6984  0.1677
  724MOL0     C97672   4.932   1.419   5.397  0.2221 -0.0442  0.8694
  724MOL0     H97673   5.195   1.486   5.746  1.7068 -1.1664 -1.1441
  724MOL0     H97674   5.418   1.520   5.893  0.7091  0.6931  1.9077
  724MOL0     H97675   5.659   1.604   5.873  2.4809  0.3882 -1.0927
  724MOL0     H97676   5.662   1.753   5.776  3.8116 -0.9852  0.3520
  724MOL0     H97677   5.734   1.740   6.061  1.5584 -1.9054 -0.6008
  724MOL0     H97678   5.740   1.884   5.978 -1.3437 -0.0483 -0.0275
  724MOL0     H97679   5.916   1.628   5.953 -3.1449 -0.6431 -0.8910
  724MOL0     H97680   5.949   1.772   6.043 -1.7132 -0.0794 -0.1704
  724MOL0     H97681   5.926   1.748   5.751 -2.0985 -1.1522  1.8962
  724MOL0     H97682   5.971   1.903   5.832 -1.7391 -0.4597 -0.1325
  724MOL0     H97683   6.161   1.680   5.923  1.3789 -0.0988 -1.0289
  724MOL0     H97684   6.163   1.707   5.754 -2.8780  0.1393 -1.3114
  724MOL0     H97685   6.218   1.936   5.778  2.2777  1.8542  1.3738
  724MOL0     H97686   6.179   1.926   5.955  0.4039 -4.5506  4.3677
  724MOL0     H97687   6.420   1.791   5.799 -1.4460  1.8667 -1.2853
  724MOL0     H97688   6.361   1.729   5.948 -0.8870  0.6974  1.2912
  724MOL0     H97689   6.552   1.899   5.957  0.5287  0.3171  1.9136
  724MOL0     H97690   6.444   2.028   5.912 -0.4415 -0.1103  1.1079
  724MOL0     H97691   6.230   1.858   6.164 -0.8882 -0.8987  1.5716
  724MOL0     H97692   6.189   1.859   6.415 -0.2639  0.5913 -1.4498
  724MOL0     H97693   6.337   1.796   6.496 -1.9508  0.2099  1.9781
  724MOL0     H97694   6.405   2.035   6.564 -0.1146 -0.1856 -0.6093
  724MOL0     H97695   6.269   2.094   6.489  0.1386  0.2745 -0.3092
  724MOL0     H97696   6.132   1.908   6.656 -0.5479  0.9518  1.6608
  724MOL0     H97697   6.178   2.056   6.722 -2.0708 -1.1234 -0.9540
  724MOL0     H97698   6.364   1.819   6.708 -1.2929 -2.0674  1.6687
  724MOL0     H97699   6.243   1.832   6.822  1.8919 -0.5865  0.1635
  724MOL0     H97700   6.385   1.726   6.952 -0.5347  1.4563 -2.3825
  724MOL0     H97701   6.572   1.614   7.080  2.6156  0.0936  1.7719
  724MOL0     H97702   7.145   1.734   6.956  2.4427  3.1890  2.0946
  724MOL0     H97703   7.362   1.605   6.981  2.3173  0.1608  3.1901
  724MOL0     H97704   7.453   1.360   6.963 -1.6979 -0.4238 -0.8240
  724MOL0     H97705   7.520   1.269   7.102 -1.3515  1.4421  4.2231
  724MOL0     H97706   7.364   1.119   7.101 -0.1079  2.2042  3.3857
  724MOL0     H97707   7.240   1.239   7.077 -0.2471 -0.0144 -0.0020
  724MOL0     H97708   7.284   1.270   6.844  3.2411  0.3526 -0.3437
  724MOL0     H97709   7.407   1.143   6.840  0.6714  1.4602 -0.9334
  724MOL0     H97710   7.131   1.082   6.919  0.5974 -0.1405  3.1734
  724MOL0     H97711   7.269   0.972   6.907 -0.8057  0.4951  1.0845
  724MOL0     H97712   7.287   0.998   6.655 -0.2680 -0.8119 -0.8438
  724MOL0     H97713   7.176   1.133   6.660  1.9113  0.2920  1.4807
  724MOL0     H97714   7.123   0.836   6.738  0.2506 -1.3925 -3.1970
  724MOL0     H97715   6.998   0.964   6.746  1.0858  0.4231  1.9168
  724MOL0     H97716   7.142   0.907   6.493 -0.4194 -0.2272  0.5874
  724MOL0     H97717   6.995   0.998   6.523 -2.0109 -0.8081  0.4022
  724MOL0     H97718   7.009   0.703   6.544 -1.9048 -0.8614 -0.9843
  724MOL0     H97719   6.863   0.822   6.547 -1.9392 -0.9833 -3.9556
  724MOL0     H97720   7.199   1.417   7.327  0.7182  1.2257 -0.2196
  724MOL0     H97721   6.995   1.563   7.313 -0.3229 -2.9283  0.6132
  724MOL0     H97722   6.824   1.945   6.978 -1.4047  0.4590 -2.1807
  724MOL0     H97723   6.649   2.066   6.883 -0.6698 -0.3320 -2.9453
  724MOL0     H97724   5.337   1.938   5.889  1.5146 -1.1190  2.6650
  724MOL0     H97725   5.090   1.876   5.807  0.2295  0.7924 -0.7447
  724MOL0     H97726   4.757   1.696   5.738 -0.1305 -3.5176  2.8589
  724MOL0     H97727   4.514   1.623   5.682 -1.2480  0.6345 -0.8101
  724MOL0     H97728   4.466   1.301   5.361  2.6195  2.0359 -1.1423
  724MOL0     H97729   4.402   1.467   5.331 -0.9717  0.1818  1.6574
  724MOL0     H97730   4.224   1.432   5.485  0.8398  1.3409 -0.6496
  724MOL0     H97731   4.272   1.258   5.500 -0.7909 -1.2345 -0.1298
  724MOL0     H97732   4.216   1.207   5.277 -0.7761 -0.6338  1.9443
  724MOL0     H97733   4.188   1.387   5.237 -2.8588 -0.3746 -1.0140
  724MOL0     H97734   4.045   1.220   5.441 -1.6209 -2.0227 -0.8345
  724MOL0     H97735   3.996   1.387   5.395  1.8929 -0.4048  2.2186
  724MOL0     H97736   3.865   1.160   5.067 -1.2854 -0.3041  0.7121
  724MOL0     H97737   4.672   1.374   5.378  0.9773  0.1426 -0.9438
  724MOL0     H97738   5.023   1.388   5.451  0.0234 -3.2563 -0.4205
  724MOL0     H97739   4.903   1.327   5.346  2.6055 -0.7205  0.6172
  724MOL0     H97740   4.965   1.498   5.329  1.8776 -0.3550  1.2473
  725MOL0     O97741   8.616   3.430  10.649 -0.4314 -0.3964 -0.2644
  725MOL0     C97742   8.723   3.492  10.630  0.2589  0.4763 -1.3765
  725MOL0     O97743   8.846   3.429  10.600 -0.1049 -0.6239 -0.3013
  725MOL0     C97744   8.850   3.295  10.611  0.0785  0.5321 -0.2327
  725MOL0     C97745   8.810   3.219  10.717  0.3757  0.8843 -0.4186
  725MOL0     C97746   8.836   3.085  10.712  0.2064  0.8850  0.3879
  725MOL0     C97747   8.911   3.022  10.612 -0.1776 -0.3437 -0.4003
  725MOL0     O97748   8.928   2.889  10.620  0.0431 -0.5610  0.3279
  725MOL0     C97749   9.009   2.845  10.718 -0.5714 -0.7637 -0.0647
  725MOL0     C97750   9.044   2.702  10.689  0.1071  0.1151  0.1266
  725MOL0     C97751   9.125   2.682  10.558  0.3682  0.5169 -0.5847
  725MOL0     C97752   9.156   2.537  10.519  0.1212  0.9940 -0.0133
  725MOL0     C97753   9.016   2.475  10.482 -0.4020  0.2880 -0.1570
  725MOL0     C97754   9.027   2.338  10.411  0.4136 -0.0933 -0.3622
  725MOL0     C97755   8.888   2.283  10.425 -0.1781 -0.3844  0.1399
  725MOL0     C97756   8.888   2.159  10.342  0.0873 -0.8681  0.5642
  725MOL0     N97757   8.764   2.090  10.334  0.2834  0.0068  0.6215
  725MOL0     C97758   8.712   2.005  10.422 -0.2278  0.0561 -0.5555
  725MOL0     C97759   8.615   1.935  10.356 -0.4600  0.7657  0.8043
  725MOL0     C97760   8.526   1.828  10.400 -0.2630  0.2321  0.4514
  725MOL0     C97761   8.614   1.724  10.487 -0.2283 -0.2532 -0.3104
  725MOL0     C97762   8.537   1.614  10.548  0.1664 -0.4025  0.0635
  725MOL0     C97763   8.441   1.663  10.654 -0.4478 -0.6461  0.9529
  725MOL0     O97764   8.505   1.746  10.756  0.1371 -0.3173 -0.0817
  725MOL0     C97765   8.433   1.812  10.847  0.2819 -0.3871  0.0689
  725MOL0     C97766   8.507   1.886  10.943 -0.7508  0.8523  0.1430
  725MOL0     C97767   8.439   1.949  11.049 -1.0791 -0.1864 -1.0194
  725MOL0     C97768   8.297   1.947  11.043  0.3393 -0.2583 -0.5697
  725MOL0     C97769   8.234   1.999  11.157  0.7135  0.3891  0.0109
  725MOL0     O97770   8.313   2.011  11.267 -0.0430 -0.2651 -0.3958
  725MOL0     C97771   8.240   2.030  11.380  0.3572  0.2295 -0.1828
  725MOL0     C97772   8.255   1.944  11.488  0.7888  0.7361  0.6331
  725MOL0     C97773   8.182   1.952  11.605 -0.1705  0.9232 -0.3281
  725MOL0     C97774   8.097   2.064  11.621 -1.0748 -0.0850 -0.5613
  725MOL0     O97775   8.033   2.081  11.742  0.4680  0.3732  0.5924
  725MOL0     C97776   7.893   2.083  11.748 -0.1988 -1.1501  0.4844
  725MOL0     C97777   7.835   2.068  11.887  0.1792  0.0329 -0.9604
  725MOL0     C97778   7.877   2.180  11.984 -0.4662 -0.0311  0.7219
  725MOL0     C97779   7.808   2.176  12.124 -0.0038  0.5645 -0.3551
  725MOL0     C97780   7.821   2.294  12.217  0.6480  0.2588  0.3337
  725MOL0     C97781   7.776   2.433  12.163  0.3572 -0.1158 -0.4014
  725MOL0     C97782   7.654   2.441  12.077  0.4464  0.0485 -1.0387
  725MOL0     C97783   7.517   2.454  12.151  0.0177 -0.0770  0.2853
  725MOL0    Cl97784   7.487   2.618  12.221  0.2671  0.3402 -0.0433
  725MOL0     C97785   8.079   2.157  11.515  0.4970 -0.3367  0.0945
  725MOL0     C97786   8.153   2.149  11.403 -0.6640 -0.0587 -0.0382
  725MOL0     O97787   8.110   2.032  11.146  0.7425 -0.0603 -0.7299
  725MOL0     C97788   8.222   1.880  10.943 -0.6356  0.5365 -0.6993
  725MOL0     C97789   8.291   1.806  10.847 -0.1429 -0.0738  0.0393
  725MOL0     N97790   8.605   1.990  10.228  0.4507  0.8567 -0.3813
  725MOL0     N97791   8.701   2.078  10.213 -0.2825 -0.1734  0.4735
  725MOL0     C97792   8.966   3.108  10.508 -0.2661 -0.6299  0.4749
  725MOL0     C97793   8.926   3.241  10.510 -1.0350 -0.1935 -0.0746
  725MOL0     C97794   8.728   3.636  10.642  0.0950  0.3406 -0.1583
  725MOL0     C97795   8.858   3.702  10.622 -0.2571 -0.0028 -1.6372
  725MOL0     C97796   8.873   3.840  10.651  0.9727  0.0995  0.1481
  725MOL0     C97797   8.774   3.927  10.702 -0.6395 -0.0440  0.0876
  725MOL0     O97798   8.798   4.060  10.704 -0.7610 -0.2483 -0.6839
  725MOL0     C97799   8.725   4.119  10.817 -0.0717 -0.9915 -1.0646
  725MOL0     C97800   8.776   4.264  10.853  0.1831 -0.1053 -0.0021
  725MOL0     C97801   8.899   4.267  10.939  0.0634 -0.1756  0.9705
  725MOL0     C97802   9.042   4.269  10.864  0.5167  0.1398 -0.4864
  725MOL0     C97803   9.040   4.378  10.767 -0.8127  1.1040 -0.0083
  725MOL0     C97804   9.045   4.483  10.695 -0.5358  0.1607 -0.6577
  725MOL0     C97805   8.654   3.858  10.707  0.4809 -0.6899  0.5881
  725MOL0     C97806   8.616   3.719  10.684 -0.9321 -0.5797  0.2573
  725MOL0     C97807   8.475   3.684  10.694  0.9243  0.9792 -0.7430
  725MOL0     H97808   8.756   3.254  10.805  0.8945 -1.5523  0.9715
  725MOL0     H97809   8.794   3.029  10.795  0.4209 -1.9917 -1.3144
  725MOL0     H97810   9.107   2.894  10.709 -2.0537  2.3571 -0.3325
  725MOL0     H97811   8.975   2.840  10.822  0.6782  1.6517  0.5323
  725MOL0     H97812   8.946   2.654  10.680 -0.0163  0.1947  0.9513
  725MOL0     H97813   9.099   2.650  10.768  1.7818 -0.7496 -1.5385
  725MOL0     H97814   9.222   2.733  10.566  0.8366 -0.5298  0.8117
  725MOL0     H97815   9.078   2.730  10.472  3.5814  2.2005 -1.5776
  725MOL0     H97816   9.217   2.533  10.429  1.1982 -1.2874  0.7440
  725MOL0     H97817   9.201   2.492  10.608 -0.0790 -0.1673 -0.4848
  725MOL0     H97818   8.942   2.478  10.564  0.3948 -3.7463  0.9130
  725MOL0     H97819   8.981   2.536  10.398  1.6731  0.9852 -0.5756
  725MOL0     H97820   9.065   2.345  10.309 -0.8689  0.9738 -0.7935
  725MOL0     H97821   9.097   2.273  10.463  0.2866  1.1151  1.4456
  725MOL0     H97822   8.816   2.354  10.381  2.0099  0.9998 -1.3876
  725MOL0     H97823   8.861   2.255  10.527 -2.2497  0.5853 -0.0847
  725MOL0     H97824   8.919   2.189  10.241 -4.3112 -2.5106 -1.5517
  725MOL0     H97825   8.968   2.088  10.363  2.1430  1.1525  0.0939
  725MOL0     H97826   8.743   1.994  10.526  2.5426  3.2935 -0.8744
  725MOL0     H97827   8.446   1.857  10.468  0.1494 -1.9588  1.9983
  725MOL0     H97828   8.480   1.775  10.316 -0.8588  1.6191 -0.1152
  725MOL0     H97829   8.691   1.674  10.429  1.1962 -0.7694  1.9155
  725MOL0     H97830   8.663   1.770  10.573  0.4390 -0.4864 -0.5600
  725MOL0     H97831   8.607   1.542  10.591  1.1356 -0.0232 -0.8337
  725MOL0     H97832   8.473   1.557  10.480  1.7967 -1.9782 -0.2415
  725MOL0     H97833   8.380   1.583  10.697  2.4222 -2.9019  1.0865
  725MOL0     H97834   8.370   1.718  10.590  0.0978 -3.2779 -2.1861
  725MOL0     H97835   8.614   1.897  10.928 -1.0413  0.9546 -2.2597
  725MOL0     H97836   8.502   1.986  11.130 -1.0598 -2.4776  0.1079
  725MOL0     H97837   8.317   1.857  11.470 -0.7962 -0.1084 -1.1007
  725MOL0     H97838   8.192   1.873  11.679  2.2042 -0.4525 -1.9756
  725MOL0     H97839   7.865   2.181  11.709 -0.5792 -0.2133  2.9276
  725MOL0     H97840   7.848   2.005  11.686 -0.4812  0.3919 -1.3226
  725MOL0     H97841   7.726   2.067  11.882 -0.0185 -3.3150  0.8146
  725MOL0     H97842   7.866   1.970  11.925  2.0555  0.6520 -0.7927
  725MOL0     H97843   7.985   2.197  11.987 -0.6262  1.0103  1.0790
  725MOL0     H97844   7.833   2.267  11.934 -1.0247  0.0415  1.3138
  725MOL0     H97845   7.847   2.090  12.180  4.6138  1.8788 -1.0978
  725MOL0     H97846   7.702   2.152  12.116 -0.1490  0.0859  2.0872
  725MOL0     H97847   7.928   2.296  12.240  0.3250  0.4320  1.9580
  725MOL0     H97848   7.755   2.268  12.300  0.8364 -3.2003 -0.4632
  725MOL0     H97849   7.756   2.495  12.251 -0.7862 -2.7873  1.3685
  725MOL0     H97850   7.864   2.473  12.112  2.2375 -4.1583 -0.7248
  725MOL0     H97851   7.640   2.357  12.008  0.8658  0.2209 -1.3441
  725MOL0     H97852   7.676   2.527  12.014  0.3382  1.6877  1.0593
  725MOL0     H97853   7.441   2.441  12.074  1.4711 -1.3144 -0.9907
  725MOL0     H97854   7.509   2.379  12.230  2.8046  0.7148  1.4218
  725MOL0     H97855   8.023   2.245  11.542  1.9640  0.5719  0.2815
  725MOL0     H97856   8.163   2.235  11.338 -0.2801 -0.5429 -0.6317
  725MOL0     H97857   8.115   1.865  10.957 -0.3492  0.4103  1.7358
  725MOL0     H97858   8.235   1.743  10.778  0.1519 -1.3627  0.9344
  725MOL0     H97859   9.038   3.089  10.429 -1.7125  1.1550 -1.3999
  725MOL0     H97860   8.956   3.302  10.425 -2.4965  1.8689  0.7799
  725MOL0     H97861   8.941   3.642  10.585  1.5372 -0.5083  2.5996
  725MOL0     H97862   8.971   3.888  10.645  1.7486 -1.3903  0.5543
  725MOL0     H97863   8.729   4.075  10.917  1.3273  0.9203 -0.2355
  725MOL0     H97864   8.624   4.134  10.776  0.7601  1.6888 -2.3960
  725MOL0     H97865   8.693   4.311  10.906  1.3007  0.8064  0.9867
  725MOL0     H97866   8.798   4.315  10.759 -3.3024  0.7212 -0.5233
  725MOL0     H97867   8.901   4.181  11.007 -3.1776 -2.0215 -1.0350
  725MOL0     H97868   8.893   4.361  10.995 -0.3798  0.3502  0.0678
  725MOL0     H97869   9.115   4.278  10.945  1.8786 -4.5701 -0.8883
  725MOL0     H97870   9.072   4.178  10.811 -1.7926  0.2950 -2.2124
  725MOL0     H97871   9.048   4.552  10.614  0.9301  2.0156  0.8825
  725MOL0     H97872   8.573   3.929  10.719 -1.1721 -1.9679 -2.1400
  725MOL0     H97873   8.440   3.638  10.601 -0.7217  0.6358 -0.0026
  725MOL0     H97874   8.449   3.618  10.778  0.0804  1.5120 -0.5693
  725MOL0     H97875   8.413   3.771  10.717  0.3048  0.4776 -0.4699
  726MOL0     O97876  10.612   6.029  10.454 -0.6631  0.4270 -0.4680
  726MOL0     C97877  10.732   6.022  10.417  0.4768  0.6013 -0.6272
  726MOL0     O97878  10.803   5.913  10.383  0.0545  0.3108 -0.2672
  726MOL0     C97879  10.747   5.795  10.358 -0.1526 -0.3284  0.7265
  726MOL0     C97880  10.779   5.729  10.239 -0.9212  0.1901  0.3422
  726MOL0     C97881  10.732   5.601  10.203 -0.9725 -0.5853  0.3099
  726MOL0     C97882  10.640   5.536  10.288  0.4211  1.3907 -0.5913
  726MOL0     O97883  10.583   5.419  10.252 -0.1850  0.4225 -0.0377
  726MOL0     C97884  10.572   5.320  10.349 -0.0729 -0.1266  0.8054
  726MOL0     C97885  10.654   5.193  10.297  0.6025  0.0780  0.7616
  726MOL0     C97886  10.602   5.068  10.365  0.0454 -0.2001 -0.2547
  726MOL0     C97887  10.667   4.944  10.305 -0.0758  1.1070 -0.2111
  726MOL0     C97888  10.660   4.824  10.404 -0.4467 -0.6865  0.3286
  726MOL0     C97889  10.517   4.762  10.390  0.4042  0.2364  0.2293
  726MOL0     C97890  10.493   4.640  10.483  2.0418 -0.5238  0.8834
  726MOL0     C97891  10.335   4.585  10.462 -0.0405 -0.2224  0.0472
  726MOL0     N97892  10.296   4.551  10.325  0.1063  0.1897  0.6042
  726MOL0     C97893  10.322   4.427  10.265 -0.6324 -0.0612  0.8135
  726MOL0     C97894  10.304   4.450  10.136 -0.4231 -0.8891  0.5568
  726MOL0     C97895  10.317   4.341  10.033  0.5004  0.3341 -0.4479
  726MOL0     C97896  10.464   4.290  10.024 -0.0560  0.0121  0.5723
  726MOL0     C97897  10.481   4.221   9.887 -0.4462 -0.3535 -1.3140
  726MOL0     C97898  10.629   4.201   9.871  0.2984 -0.1281  0.8852
  726MOL0     O97899  10.684   4.086   9.941  0.1988  0.5905  0.0214
  726MOL0     C97900  10.657   3.955   9.912 -0.5514  0.2166 -0.8945
  726MOL0     C97901  10.570   3.912   9.815  1.3762 -0.8480  1.1290
  726MOL0     C97902  10.537   3.778   9.794  0.2051 -0.1888  0.2719
  726MOL0     C97903  10.606   3.685   9.881  0.5929 -0.7806  0.5195
  726MOL0     C97904  10.581   3.539   9.857 -0.0975  0.0165 -0.7025
  726MOL0     O97905  10.482   3.509   9.764 -1.1445 -0.4715  0.2391
  726MOL0     C97906  10.476   3.386   9.704 -1.2018 -0.2954  0.6269
  726MOL0     C97907  10.378   3.292   9.746 -0.4105 -0.8483  0.0153
  726MOL0     C97908  10.398   3.164   9.694 -0.3236  0.0497 -0.3675
  726MOL0     C97909  10.498   3.131   9.602 -0.4841  0.2712 -0.1485
  726MOL0     O97910  10.521   3.007   9.551 -0.5770  0.2759  0.0759
  726MOL0     C97911  10.509   2.997   9.407  0.5555  0.7002 -0.3351
  726MOL0     C97912  10.604   2.873   9.359  0.6728  0.0522 -0.2841
  726MOL0     C97913  10.577   2.852   9.209  0.0665  0.1390  0.2423
  726MOL0     C97914  10.692   2.770   9.145 -1.0783 -0.4792 -1.1671
  726MOL0     C97915  10.724   2.626   9.202  0.4764 -0.3733 -0.6161
  726MOL0     C97916  10.700   2.512   9.100  0.5016  0.3192  0.2884
  726MOL0     C97917  10.808   2.530   8.993 -0.3967 -0.2213  0.0760
  726MOL0     C97918  10.844   2.405   8.917  0.0121  0.7184 -0.3235
  726MOL0    Cl97919  10.705   2.324   8.848 -0.0886 -0.4350  0.3706
  726MOL0     C97920  10.592   3.229   9.569 -0.0424 -0.4837  0.3874
  726MOL0     C97921  10.586   3.353   9.628 -0.5173 -0.1705 -0.2229
  726MOL0     O97922  10.638   3.461   9.929  0.6412  0.2467  0.2645
  726MOL0     C97923  10.692   3.722   9.977 -0.3090 -0.2281 -0.1928
  726MOL0     C97924  10.729   3.859   9.992  1.0774  0.9874 -0.4649
  726MOL0     N97925  10.262   4.582  10.117  0.1716 -0.0648 -0.1810
  726MOL0     N97926  10.259   4.638  10.234  0.3999  0.3762  0.1380
  726MOL0     C97927  10.621   5.591  10.415 -0.0486 -0.1089 -0.6031
  726MOL0     C97928  10.676   5.715  10.452  0.3756  1.0724  0.0968
  726MOL0     C97929  10.794   6.147  10.422 -0.2111 -0.0693  0.0609
  726MOL0     C97930  10.932   6.153  10.446 -0.2958 -0.5366  0.1537
  726MOL0     C97931  10.998   6.271  10.452 -1.1823 -0.0133  0.0718
  726MOL0     C97932  10.934   6.391  10.454 -0.8798  0.1641 -0.4056
  726MOL0     O97933  11.022   6.494  10.462  0.1105 -0.4558 -0.5750
  726MOL0     C97934  10.991   6.618  10.532 -0.1307 -0.4755 -1.0205
  726MOL0     C97935  11.086   6.730  10.480  0.3981  0.2954 -0.3492
  726MOL0     C97936  11.112   6.846  10.570  0.0408 -0.1644  0.3415
  726MOL0     C97937  10.981   6.891  10.640  0.5008  0.2567  0.4722
  726MOL0     C97938  11.001   7.021  10.711  0.1256  0.5060 -0.1888
  726MOL0     C97939  11.031   7.125  10.772 -0.4135 -0.0641  0.4551
  726MOL0     C97940  10.796   6.391  10.441  0.1642  0.3277  0.4488
  726MOL0     C97941  10.722   6.273  10.423  0.1666 -0.4492  1.0064
  726MOL0     C97942  10.575   6.287  10.401  1.0654 -1.1009 -0.2998
  726MOL0     H97943  10.841   5.775  10.163 -0.1875 -0.5439  0.4911
  726MOL0     H97944  10.760   5.584  10.100 -0.2625  3.7457 -0.4322
  726MOL0     H97945  10.615   5.341  10.447  0.1751 -0.0679  0.6840
  726MOL0     H97946  10.468   5.286  10.360 -0.5916  0.1744 -2.3347
  726MOL0     H97947  10.761   5.194  10.317  0.6758  0.3244  0.3659
  726MOL0     H97948  10.637   5.187  10.189  0.0921  0.4163  0.8162
  726MOL0     H97949  10.496   5.070  10.340 -0.5860  1.5700  2.2470
  726MOL0     H97950  10.627   5.067  10.471 -0.3085  1.8012 -0.1256
  726MOL0     H97951  10.607   4.928  10.215 -1.6247 -2.1380  1.2494
  726MOL0     H97952  10.768   4.961  10.265  0.4025 -0.2971  0.3141
  726MOL0     H97953  10.723   4.739  10.376 -1.3037 -1.5790  1.0341
  726MOL0     H97954  10.679   4.852  10.508  3.2170 -0.1913 -0.3099
  726MOL0     H97955  10.444   4.839  10.413  1.0099 -0.0616  3.5394
  726MOL0     H97956  10.500   4.733  10.285 -3.9883 -0.9368  1.0745
  726MOL0     H97957  10.504   4.674  10.587 -1.3637 -0.4456  1.3069
  726MOL0     H97958  10.562   4.555  10.480  0.1997 -2.2287  3.1859
  726MOL0     H97959  10.305   4.494  10.515 -0.1866 -0.0639  0.2375
  726MOL0     H97960  10.278   4.673  10.494 -1.5732 -0.2047 -2.4968
  726MOL0     H97961  10.361   4.341  10.319 -1.9402  0.7189  3.1842
  726MOL0     H97962  10.255   4.253  10.054 -0.8264  0.5772 -2.9703
  726MOL0     H97963  10.277   4.383   9.940  2.0652  2.4300 -0.2559
  726MOL0     H97964  10.530   4.375  10.045 -0.2429  0.0900  0.8508
  726MOL0     H97965  10.487   4.218  10.103  1.8640 -0.3804 -0.2883
  726MOL0     H97966  10.455   4.286   9.804  0.3128 -0.1514 -1.4032
  726MOL0     H97967  10.428   4.125   9.883 -0.7743 -0.1922 -0.9392
  726MOL0     H97968  10.681   4.293   9.897 -1.1153  1.0232 -0.2242
  726MOL0     H97969  10.648   4.192   9.764  0.0144 -0.1023  0.8326
  726MOL0     H97970  10.530   3.985   9.745 -0.0177 -0.3880  2.3666
  726MOL0     H97971  10.454   3.748   9.731 -2.0060  0.9303  2.4409
  726MOL0     H97972  10.308   3.318   9.824  0.1229  0.0809  0.2014
  726MOL0     H97973  10.332   3.084   9.730  1.5433 -0.6964  1.6490
  726MOL0     H97974  10.403   2.978   9.390 -0.3300  4.6745 -0.3085
  726MOL0     H97975  10.531   3.092   9.357  1.5526 -0.2609 -1.7894
  726MOL0     H97976  10.711   2.893   9.368  1.3315 -2.0457 -2.4497
  726MOL0     H97977  10.584   2.775   9.403  2.4719  0.2679  1.1401
  726MOL0     H97978  10.479   2.803   9.207 -0.5278  1.2853 -1.1777
  726MOL0     H97979  10.563   2.948   9.158 -2.8685  0.7321  1.8988
  726MOL0     H97980  10.769   2.843   9.173 -1.9638  0.3230 -0.7763
  726MOL0     H97981  10.678   2.770   9.037  3.0991  4.0098 -2.0808
  726MOL0     H97982  10.669   2.616   9.296  3.3487  0.5685  1.3201
  726MOL0     H97983  10.826   2.628   9.241 -0.6593  3.4773  2.9364
  726MOL0     H97984  10.712   2.412   9.143 -0.2650  0.9173  2.0080
  726MOL0     H97985  10.602   2.519   9.051  2.8973  3.1707 -4.9413
  726MOL0     H97986  10.892   2.586   9.034 -1.4030  1.2657  0.1762
  726MOL0     H97987  10.775   2.601   8.916  1.0532 -1.3582 -1.6988
  726MOL0     H97988  10.918   2.410   8.837 -0.0505 -3.2092 -0.8092
  726MOL0     H97989  10.873   2.328   8.989  0.2841 -1.7819 -2.9525
  726MOL0     H97990  10.679   3.203   9.510 -0.8420 -1.2880 -0.4541
  726MOL0     H97991  10.657   3.431   9.604  1.5604 -1.6990  0.5937
  726MOL0     H97992  10.734   3.645  10.040 -1.4896 -0.5083  0.2717
  726MOL0     H97993  10.792   3.882  10.077 -1.0320  0.2218  1.4075
  726MOL0     H97994  10.554   5.540  10.483  0.8586  0.8903  1.1165
  726MOL0     H97995  10.659   5.746  10.555 -2.3468  0.6297 -0.1542
  726MOL0     H97996  10.988   6.060  10.447 -1.4362 -1.4128 -3.2762
  726MOL0     H97997  11.106   6.279  10.443 -1.4959  3.5118 -2.6548
  726MOL0     H97998  11.013   6.601  10.638 -0.7311 -4.0259 -1.3726
  726MOL0     H97999  10.887   6.648  10.519 -0.0259  2.8754  3.4763
  726MOL0     H98000  11.056   6.777  10.385 -0.7385  0.0131 -0.1502
  726MOL0     H98001  11.181   6.680  10.463  0.3676  0.8375 -2.3926
  726MOL0     H98002  11.152   6.926  10.506  0.4094  0.4563  1.3210
  726MOL0     H98003  11.175   6.816  10.654  1.6223  0.9118 -0.4114
  726MOL0     H98004  10.898   6.911  10.572 -2.4067  1.0498  3.9771
  726MOL0     H98005  10.955   6.811  10.710  1.3907 -0.3676  0.1125
  726MOL0     H98006  11.070   7.207  10.830 -1.9032  0.9586  0.0679
  726MOL0     H98007  10.736   6.481  10.434 -0.8019 -0.2669  0.8668
  726MOL0     H98008  10.549   6.393  10.400 -1.5071 -1.6530  0.7846
  726MOL0     H98009  10.540   6.244  10.307  1.6320  0.3232 -1.1911
  726MOL0     H98010  10.513   6.248  10.483  0.5645 -1.2900 -0.7635
  727MOL0     O98011   3.284   5.228   3.608  0.0541 -0.1722 -0.2110
  727MOL0     C98012   3.236   5.181   3.501  1.3253 -0.7550  0.8747
  727MOL0     O98013   3.306   5.156   3.386  0.2767 -0.1595  0.7175
  727MOL0     C98014   3.439   5.177   3.376 -0.7619 -0.1248 -1.0833
  727MOL0     C98015   3.490   5.201   3.246 -0.3197 -0.2086  0.6208
  727MOL0     C98016   3.631   5.204   3.218  0.0617 -0.7605  0.2233
  727MOL0     C98017   3.718   5.201   3.326 -0.6107 -0.2664 -0.0307
  727MOL0     O98018   3.854   5.228   3.312 -0.3518  0.4346 -0.5696
  727MOL0     C98019   3.898   5.280   3.193  0.6457 -0.3481  0.1036
  727MOL0     C98020   4.031   5.354   3.217 -0.3094 -0.8885  0.7638
  727MOL0     C98021   4.098   5.397   3.085  0.4039 -0.1817  0.4088
  727MOL0     C98022   4.226   5.473   3.099 -0.1962  0.0151  0.3939
  727MOL0     C98023   4.290   5.511   2.959 -0.6397  0.3381 -0.7791
  727MOL0     C98024   4.434   5.579   2.959  0.3860  0.7966  0.1761
  727MOL0     C98025   4.426   5.718   2.999  0.3183  0.7003 -0.5250
  727MOL0     C98026   4.549   5.787   2.959  0.3627 -0.3189 -0.1669
  727MOL0     N98027   4.568   5.800   2.808  0.4569 -0.4835  0.0171
  727MOL0     C98028   4.487   5.870   2.723 -0.6200 -0.0364  1.2314
  727MOL0     C98029   4.549   5.849   2.600 -0.1564  0.3165  0.5986
  727MOL0     C98030   4.482   5.916   2.477 -0.3322  0.0100 -0.9783
  727MOL0     C98031   4.529   5.860   2.338  0.1670 -0.8066 -1.8644
  727MOL0     C98032   4.651   5.940   2.271 -0.1026  0.0583  0.0763
  727MOL0     C98033   4.791   5.868   2.275  0.2584 -0.2489  0.6348
  727MOL0     O98034   4.885   5.975   2.308 -0.1767  0.8548 -0.3947
  727MOL0     C98035   4.967   6.007   2.201 -0.2783 -0.4014 -0.3195
  727MOL0     C98036   5.079   5.940   2.158  0.7333  0.2335  0.0476
  727MOL0     C98037   5.160   5.999   2.061  0.4259 -0.5606 -0.3320
  727MOL0     C98038   5.117   6.127   1.991 -0.8568  0.2925  0.6016
  727MOL0     C98039   5.183   6.179   1.870 -0.3466 -0.0119 -1.5208
  727MOL0     O98040   5.108   6.257   1.785  0.1732  0.0458  0.1864
  727MOL0     C98041   5.157   6.345   1.693 -0.3610  0.0882 -0.0162
  727MOL0     C98042   5.268   6.303   1.611  0.7354  0.2048 -0.5383
  727MOL0     C98043   5.332   6.395   1.536 -0.4245  0.5138  0.9865
  727MOL0     C98044   5.289   6.520   1.524 -0.2786 -0.2376 -0.6624
  727MOL0     O98045   5.366   6.603   1.446  1.0317 -0.4210 -0.7614
  727MOL0     C98046   5.299   6.681   1.349 -0.3219  0.4802  0.9165
  727MOL0     C98047   5.352   6.657   1.206 -0.2754  0.1732  0.6883
  727MOL0     C98048   5.490   6.713   1.179 -0.8679  0.5660  0.0544
  727MOL0     C98049   5.531   6.696   1.025  0.2562  0.5554  0.7546
  727MOL0     C98050   5.677   6.724   1.003 -0.0307 -0.1429  0.3388
  727MOL0     C98051   5.736   6.673   0.867 -0.4414  0.0533 -0.0164
  727MOL0     C98052   5.697   6.754   0.744 -0.1778  0.2648  0.1944
  727MOL0     C98053   5.720   6.674   0.613  0.0167  0.2770  0.6560
  727MOL0    Cl98054   5.905   6.638   0.612  0.1202  0.6551  0.4024
  727MOL0     C98055   5.178   6.563   1.592  0.5455 -0.2761 -0.6307
  727MOL0     C98056   5.107   6.473   1.675  0.0112  0.1832 -0.3535
  727MOL0     O98057   5.305   6.156   1.862 -0.1793  0.0426  0.9729
  727MOL0     C98058   5.003   6.192   2.037  0.0789 -0.5846  0.0130
  727MOL0     C98059   4.931   6.134   2.144 -0.1326  0.1187  0.1945
  727MOL0     N98060   4.651   5.755   2.610  0.3434 -0.0945  0.8410
  727MOL0     N98061   4.662   5.731   2.740  0.3180  0.6487 -0.1265
  727MOL0     C98062   3.674   5.167   3.450 -0.1306  0.5497  0.0860
  727MOL0     C98063   3.534   5.149   3.485 -1.1603  0.4774  0.0377
  727MOL0     C98064   3.097   5.133   3.488  0.8922  0.5919  0.7906
  727MOL0     C98065   3.006   5.195   3.572  0.4847 -0.7287 -0.0721
  727MOL0     C98066   2.870   5.172   3.557  0.6228  0.4442 -0.1155
  727MOL0     C98067   2.823   5.079   3.465  0.1360 -0.0906 -0.0013
  727MOL0     O98068   2.682   5.069   3.457 -0.2881 -0.5011  0.2162
  727MOL0     C98069   2.622   4.974   3.362 -0.2980 -0.0487 -0.9466
  727MOL0     C98070   2.610   4.830   3.419 -0.0481 -0.6037 -0.4096
  727MOL0     C98071   2.516   4.819   3.533  0.5077  0.8952 -0.0037
  727MOL0     C98072   2.579   4.721   3.633 -0.1060 -0.2113 -0.0896
  727MOL0     C98073   2.577   4.595   3.575  0.7175 -0.4626 -0.2260
  727MOL0     C98074   2.585   4.488   3.521 -0.3547 -0.3586 -0.2892
  727MOL0     C98075   2.913   5.004   3.391  0.8147  0.1160  0.4120
  727MOL0     C98076   3.054   5.029   3.402 -0.0581 -1.1386 -0.4189
  727MOL0     C98077   3.147   4.939   3.325 -0.6042  0.0221 -0.4058
  727MOL0     H98078   3.424   5.205   3.161  2.2872  0.3362 -1.5127
  727MOL0     H98079   3.667   5.203   3.116  1.1806  1.0499  0.5556
  727MOL0     H98080   3.937   5.196   3.134 -0.9570 -1.1159  0.0856
  727MOL0     H98081   3.827   5.340   3.135 -1.2307 -1.0434  1.5577
  727MOL0     H98082   4.100   5.303   3.284  2.5989  3.1111  1.1615
  727MOL0     H98083   4.006   5.449   3.265 -0.0226 -0.7807  0.6994
  727MOL0     H98084   4.024   5.456   3.029 -0.0184 -2.2268 -1.3628
  727MOL0     H98085   4.119   5.310   3.022  0.9283  0.6247 -0.5664
  727MOL0     H98086   4.214   5.572   3.143  1.3399  1.3469 -1.9310
  727MOL0     H98087   4.311   5.416   3.137  1.3544  1.5941 -0.5433
  727MOL0     H98088   4.297   5.416   2.907 -1.1651 -0.0999 -0.0786
  727MOL0     H98089   4.219   5.570   2.899  2.0173  2.4704 -2.0204
  727MOL0     H98090   4.509   5.531   3.023 -0.1522  0.7881  0.8152
  727MOL0     H98091   4.464   5.572   2.854  2.8631  0.1262  0.8658
  727MOL0     H98092   4.419   5.713   3.108 -0.7126 -4.3040 -0.5762
  727MOL0     H98093   4.344   5.770   2.948  2.5284  2.2066 -2.7650
  727MOL0     H98094   4.555   5.886   3.004  1.4079 -1.3748  2.2375
  727MOL0     H98095   4.639   5.740   3.000  1.8068  2.7823  0.4326
  727MOL0     H98096   4.397   5.928   2.745 -0.7953 -1.2281  4.0588
  727MOL0     H98097   4.375   5.894   2.485 -0.3140  0.1927 -0.1282
  727MOL0     H98098   4.505   6.023   2.482  3.1316 -0.6552  0.1118
  727MOL0     H98099   4.544   5.752   2.350  4.0071 -0.2617  0.2110
  727MOL0     H98100   4.448   5.868   2.265 -2.5082  0.2361  1.0053
  727MOL0     H98101   4.653   6.043   2.308 -1.9045  1.6825 -3.7660
  727MOL0     H98102   4.628   5.962   2.166 -2.1460  1.6365  0.7739
  727MOL0     H98103   4.818   5.826   2.177  0.2793  0.1534  0.4633
  727MOL0     H98104   4.784   5.781   2.341 -3.3918 -0.9144 -0.3994
  727MOL0     H98105   5.103   5.840   2.193  1.5514  0.6873  0.8229
  727MOL0     H98106   5.250   5.952   2.022  1.9701  2.4577 -0.6787
  727MOL0     H98107   5.302   6.201   1.601  1.3489  0.6369 -3.6765
  727MOL0     H98108   5.422   6.359   1.486 -1.9033 -0.4463 -1.1313
  727MOL0     H98109   5.193   6.656   1.338  0.5068 -2.8005 -0.9523
  727MOL0     H98110   5.323   6.786   1.371  0.3843  0.8513 -1.2853
  727MOL0     H98111   5.351   6.551   1.179  1.9059 -0.6564  3.3853
  727MOL0     H98112   5.283   6.710   1.139 -0.6292  0.5272  1.3239
  727MOL0     H98113   5.485   6.818   1.208  2.1329  0.9054 -0.3085
  727MOL0     H98114   5.558   6.671   1.255  0.9977  2.6696 -0.3431
  727MOL0     H98115   5.474   6.772   0.970  0.6668  1.1025  1.0639
  727MOL0     H98116   5.508   6.594   0.995  0.7255  0.4774  0.6567
  727MOL0     H98117   5.732   6.671   1.081 -2.4207 -1.3605  1.3011
  727MOL0     H98118   5.697   6.830   1.017 -3.2741  0.6564 -0.4193
  727MOL0     H98119   5.844   6.661   0.879 -0.6260 -1.0854  0.6698
  727MOL0     H98120   5.701   6.570   0.853 -0.3872 -0.2344  1.6943
  727MOL0     H98121   5.746   6.852   0.754 -1.3287  0.7023  2.3842
  727MOL0     H98122   5.590   6.776   0.734  0.0728  0.8603 -1.5530
  727MOL0     H98123   5.661   6.583   0.605  0.0444  0.1592  1.6763
  727MOL0     H98124   5.698   6.731   0.522  2.8711 -0.2112 -0.4528
  727MOL0     H98125   5.162   6.669   1.578  0.5399 -0.4282 -1.9903
  727MOL0     H98126   5.023   6.502   1.737  0.6956  1.1487  0.1523
  727MOL0     H98127   4.975   6.288   1.994  0.6888  0.7252  2.3412
  727MOL0     H98128   4.843   6.187   2.177  1.5137  2.3915  1.1924
  727MOL0     H98129   3.730   5.152   3.542 -2.4280 -0.8764  1.3934
  727MOL0     H98130   3.514   5.113   3.586  0.3340  0.3538  0.3211
  727MOL0     H98131   3.036   5.264   3.650  0.2449  1.4839 -1.8486
  727MOL0     H98132   2.804   5.231   3.620  3.2103  4.1608 -0.5525
  727MOL0     H98133   2.681   4.975   3.270 -1.1188 -3.9577 -1.7005
  727MOL0     H98134   2.520   5.006   3.337  0.5645  3.0779 -0.8701
  727MOL0     H98135   2.712   4.807   3.452  0.0528  1.7341  1.1647
  727MOL0     H98136   2.573   4.763   3.340 -0.8760 -0.7851  0.1310
  727MOL0     H98137   2.423   4.786   3.487  1.3366  2.8644 -3.3929
  727MOL0     H98138   2.492   4.919   3.571  0.5988  0.9123  0.0114
  727MOL0     H98139   2.679   4.752   3.665 -0.4878  0.8580  0.1187
  727MOL0     H98140   2.524   4.715   3.727 -0.7107 -1.1241 -0.4851
  727MOL0     H98141   2.582   4.406   3.451 -0.0542 -2.2679  1.8253
  727MOL0     H98142   2.879   4.942   3.309 -0.9401 -0.9082  1.8329
  727MOL0     H98143   3.097   4.846   3.298  0.6062 -1.0265  0.7925
  727MOL0     H98144   3.186   4.991   3.237  0.6156 -2.4307 -1.3879
  727MOL0     H98145   3.228   4.898   3.386 -1.2234  2.6101  2.4668
  728MOL0     O98146   9.919   6.053   1.874  0.6932 -0.2082 -0.4599
  728MOL0     C98147   9.863   6.124   1.956  0.5978  0.4644  0.0314
  728MOL0     O98148   9.828   6.249   1.931  0.6306  0.0151  0.2219
  728MOL0     C98149   9.883   6.325   1.826  0.5059  0.0262  0.8282
  728MOL0     C98150   9.968   6.433   1.850 -0.1903 -0.2385 -0.1894
  728MOL0     C98151  10.029   6.508   1.747  0.7368  0.6152  0.2139
  728MOL0     C98152  10.011   6.473   1.613  0.0594 -0.5853  0.1768
  728MOL0     O98153  10.084   6.522   1.506  0.2919 -0.1622  0.0038
  728MOL0     C98154  10.211   6.582   1.525 -0.3214 -0.1618  0.5445
  728MOL0     C98155  10.248   6.674   1.402 -0.1147 -0.3779  1.2233
  728MOL0     C98156  10.243   6.589   1.271 -0.8139  0.5657  0.1573
  728MOL0     C98157  10.296   6.669   1.151 -0.2598 -0.4503 -0.0147
  728MOL0     C98158  10.275   6.585   1.024 -0.3593 -0.0104 -0.4962
  728MOL0     C98159  10.297   6.659   0.897  0.5101 -0.4324  0.0842
  728MOL0     C98160  10.283   6.584   0.762  0.6187  0.5546 -0.2731
  728MOL0     C98161  10.385   6.489   0.732  0.2885  0.5399  0.0063
  728MOL0     N98162  10.373   6.452   0.590 -0.3837 -0.1292 -0.4827
  728MOL0     C98163  10.270   6.390   0.528  0.6715  0.3959  0.1304
  728MOL0     C98164  10.292   6.399   0.395  0.2397  0.3226 -0.5749
  728MOL0     C98165  10.201   6.328   0.295 -0.5597  0.5738  0.6809
  728MOL0     C98166  10.180   6.410   0.164  0.0460  0.0257 -0.2980
  728MOL0     C98167  10.039   6.477   0.179  0.6789 -0.3128 -0.9132
  728MOL0     C98168  10.024   6.560   0.314 -0.5143 -0.7260  0.6215
  728MOL0     O98169   9.986   6.490   0.432  0.1678  0.6209 -0.2655
  728MOL0     C98170   9.988   6.554   0.559 -0.3083 -0.7258 -0.6796
  728MOL0     C98171  10.029   6.686   0.575  0.1093 -1.2293  0.1811
  728MOL0     C98172  10.011   6.757   0.693  0.5636  0.3527 -0.4253
  728MOL0     C98173   9.957   6.694   0.807 -0.5377  0.1110  0.3599
  728MOL0     C98174   9.941   6.776   0.928 -0.0289 -0.8656 -0.2878
  728MOL0     O98175   9.894   6.719   1.045  0.3901  0.7321 -0.4824
  728MOL0     C98176   9.883   6.777   1.169  0.0089 -0.6907 -1.1309
  728MOL0     C98177   9.863   6.692   1.282  0.3328 -0.8012 -0.5927
  728MOL0     C98178   9.845   6.742   1.413 -0.1567 -0.5976  0.4201
  728MOL0     C98179   9.824   6.885   1.433 -1.1322  0.5781  0.9216
  728MOL0     O98180   9.809   6.950   1.548 -0.1195 -0.0586 -0.5464
  728MOL0     C98181   9.846   6.877   1.669  0.1025 -0.2049  0.7121
  728MOL0     C98182   9.831   6.970   1.787  0.5222 -0.4449  0.2092
  728MOL0     C98183   9.882   6.893   1.909 -0.0684  0.6474 -0.5697
  728MOL0     C98184   9.803   6.914   2.040  0.0670  0.5906 -0.3971
  728MOL0     C98185   9.873   6.819   2.143 -0.5814 -0.4730  0.1962
  728MOL0     C98186   9.819   6.682   2.134  0.0234  0.0098  0.2533
  728MOL0     C98187   9.889   6.598   2.238  0.1475 -0.0832 -0.4118
  728MOL0     C98188   9.851   6.453   2.211 -0.2824  0.5646 -0.1074
  728MOL0    Cl98189   9.899   6.362   2.352 -0.2566 -0.1360  0.2403
  728MOL0     C98190   9.823   6.968   1.319  0.3887 -0.3123  0.4882
  728MOL0     C98191   9.849   6.916   1.190 -0.1868  1.0534 -0.5497
  728MOL0     O98192   9.973   6.898   0.918  0.1574 -0.0836 -0.4298
  728MOL0     C98193   9.918   6.555   0.795 -0.8357  0.0996  0.1118
  728MOL0     C98194   9.926   6.491   0.671 -1.1509  0.9543  0.5525
  728MOL0     N98195  10.422   6.453   0.377 -0.0083 -0.7189 -0.0180
  728MOL0     N98196  10.454   6.504   0.492  0.1397  0.8825 -0.5694
  728MOL0     C98197   9.925   6.363   1.594 -0.6134  0.4990  0.2466
  728MOL0     C98198   9.865   6.290   1.692  0.2929  0.2207  0.1129
  728MOL0     C98199   9.821   6.075   2.092 -0.8585  0.6493 -1.0261
  728MOL0     C98200   9.729   6.143   2.178  0.6670 -0.3981  0.4678
  728MOL0     C98201   9.699   6.097   2.306 -0.1907 -0.9676 -0.3801
  728MOL0     C98202   9.767   5.985   2.360 -0.1823 -1.0803  0.2945
  728MOL0     O98203   9.768   5.950   2.489  1.0305 -0.2708  0.0109
  728MOL0     C98204   9.816   6.055   2.586 -1.3121  0.6180  0.8470
  728MOL0     C98205   9.793   6.006   2.728  0.4296  0.2509  0.8404
  728MOL0     C98206   9.839   5.864   2.758 -0.0723 -0.1081  0.4020
  728MOL0     C98207   9.861   5.843   2.907 -0.3995  1.1926 -0.4337
  728MOL0     C98208   9.745   5.853   2.996  0.5415 -0.1835  0.5143
  728MOL0     C98209   9.642   5.854   3.051 -0.0517  0.4267  0.1127
  728MOL0     C98210   9.851   5.917   2.278 -0.5888  0.4013  0.0015
  728MOL0     C98211   9.879   5.951   2.145 -0.6503 -1.0952 -0.6261
  728MOL0     C98212   9.971   5.857   2.078 -0.2862 -0.0246  0.1817
  728MOL0     H98213  10.001   6.432   1.953 -1.2746 -2.2131  0.1946
  728MOL0     H98214  10.099   6.587   1.769  2.4759  0.2321 -3.2120
  728MOL0     H98215  10.215   6.650   1.611 -0.1629  0.5044  0.0214
  728MOL0     H98216  10.282   6.499   1.524 -0.5909 -0.3902 -0.1885
  728MOL0     H98217  10.347   6.711   1.431 -0.0200  0.4838 -0.1131
  728MOL0     H98218  10.178   6.758   1.401  0.5459  0.2252 -1.3301
  728MOL0     H98219  10.138   6.561   1.257 -0.1377 -1.4360 -1.2353
  728MOL0     H98220  10.301   6.498   1.285  0.6150  0.7012 -3.6762
  728MOL0     H98221  10.235   6.759   1.139 -4.8420 -3.2454  0.0398
  728MOL0     H98222  10.404   6.682   1.160 -0.1713 -2.1312  3.2466
  728MOL0     H98223  10.335   6.493   1.021  3.8224  2.4768 -2.7791
  728MOL0     H98224  10.169   6.559   1.033 -0.1135 -0.6042  1.0228
  728MOL0     H98225  10.216   6.733   0.897 -1.9197 -2.8807  2.0074
  728MOL0     H98226  10.395   6.707   0.900 -0.5478  1.8794 -0.1826
  728MOL0     H98227  10.288   6.661   0.684  0.6589  0.0036 -0.8219
  728MOL0     H98228  10.189   6.528   0.762 -0.6520  2.3976 -3.6223
  728MOL0     H98229  10.488   6.523   0.747  0.2552  1.0293 -0.8063
  728MOL0     H98230  10.370   6.404   0.799  2.8353  0.8416  1.0959
  728MOL0     H98231  10.186   6.340   0.576 -0.3277  0.0413 -1.8694
  728MOL0     H98232  10.249   6.236   0.260 -3.9749 -0.7915 -0.7832
  728MOL0     H98233  10.109   6.296   0.344 -1.9366  0.1814 -1.9814
  728MOL0     H98234  10.257   6.487   0.156  1.4060 -1.2130  0.3457
  728MOL0     H98235  10.182   6.347   0.074 -1.9158  0.8357 -0.9743
  728MOL0     H98236   9.960   6.401   0.182  2.7353 -2.6445 -1.5999
  728MOL0     H98237  10.015   6.544   0.097 -3.9059 -0.4715  0.0212
  728MOL0     H98238   9.944   6.635   0.304 -0.2170 -0.6434 -1.8874
  728MOL0     H98239  10.119   6.612   0.324  1.0401 -3.2017 -0.3785
  728MOL0     H98240  10.064   6.752   0.496  1.4757  1.3959  2.7976
  728MOL0     H98241  10.039   6.861   0.698 -1.7274  1.0778 -1.5260
  728MOL0     H98242   9.883   6.586   1.269  2.5209 -0.3896 -0.9604
  728MOL0     H98243   9.832   6.672   1.494  3.1339 -1.2906  0.5008
  728MOL0     H98244   9.779   6.794   1.692 -0.8129  0.4545  0.4629
  728MOL0     H98245   9.953   6.856   1.660 -0.1654 -1.1124 -0.6914
  728MOL0     H98246   9.887   7.062   1.766 -0.3131 -0.1957 -1.0513
  728MOL0     H98247   9.728   7.005   1.797  1.2550  2.3583 -1.1115
  728MOL0     H98248   9.878   6.785   1.890  2.3720  0.0172  1.7145
  728MOL0     H98249   9.988   6.916   1.926 -0.0326 -0.3746  0.7957
  728MOL0     H98250   9.699   6.890   2.017  0.1699  0.4480 -0.7168
  728MOL0     H98251   9.820   7.017   2.072  0.2004 -0.0629  1.7528
  728MOL0     H98252   9.834   6.854   2.239  1.0504  1.2864  0.2850
  728MOL0     H98253   9.982   6.825   2.143 -0.5573 -0.5953  1.7873
  728MOL0     H98254   9.710   6.682   2.149 -0.1267 -0.5034 -0.7461
  728MOL0     H98255   9.835   6.626   2.041  0.3778 -1.3216  1.0854
  728MOL0     H98256   9.848   6.624   2.336  1.1784  1.3159 -0.3171
  728MOL0     H98257   9.998   6.604   2.232  0.0996  0.4345 -0.8466
  728MOL0     H98258   9.744   6.439   2.190  0.1178 -2.2316 -0.6795
  728MOL0     H98259   9.900   6.409   2.124  1.6089  1.5913  0.3985
  728MOL0     H98260   9.816   7.077   1.323  4.0586  0.0585  0.4644
  728MOL0     H98261   9.852   6.987   1.107  1.9583  2.3690  0.5640
  728MOL0     H98262   9.861   6.518   0.880 -0.2249  1.4581  1.1473
  728MOL0     H98263   9.902   6.386   0.656 -0.2142  0.9143 -0.9364
  728MOL0     H98264   9.917   6.329   1.491  2.9578  0.1373 -0.0201
  728MOL0     H98265   9.809   6.197   1.681  3.5200 -2.1030  1.7614
  728MOL0     H98266   9.679   6.229   2.134  0.6819 -0.9228 -0.6175
  728MOL0     H98267   9.626   6.153   2.364  2.1029  0.6884  1.0912
  728MOL0     H98268   9.755   6.145   2.575  0.5978  1.7524 -1.7684
  728MOL0     H98269   9.918   6.086   2.558 -0.8583 -0.8825  0.7621
  728MOL0     H98270   9.683   6.007   2.727  0.3697 -1.7046  0.7252
  728MOL0     H98271   9.828   6.084   2.796  1.3323  1.0813 -0.5400
  728MOL0     H98272   9.932   5.845   2.703 -0.1172  0.0255  0.2803
  728MOL0     H98273   9.760   5.794   2.728  2.5281 -4.1364  2.0946
  728MOL0     H98274   9.896   5.740   2.916  3.2040  2.0518 -2.8083
  728MOL0     H98275   9.937   5.915   2.939 -1.1944  2.1345 -0.6219
  728MOL0     H98276   9.544   5.844   3.093  0.1084  0.9180  0.6043
  728MOL0     H98277   9.895   5.825   2.315  1.9343  1.1411 -0.9434
  728MOL0     H98278  10.043   5.904   2.010 -1.2095 -0.6598 -1.2705
  728MOL0     H98279  10.033   5.789   2.137  0.9119  2.3015  1.8111
  728MOL0     H98280   9.899   5.807   2.014 -0.7420  3.9666 -2.7909
  729MOL0     O98281   4.577   6.439   1.277 -0.1971 -0.2368 -1.2523
  729MOL0     C98282   4.525   6.416   1.166 -0.1094  0.0833  0.3359
  729MOL0     O98283   4.442   6.315   1.133 -0.3651  0.2562  0.2024
  729MOL0     C98284   4.385   6.247   1.235  0.2993 -0.0156  0.1974
  729MOL0     C98285   4.242   6.242   1.231 -0.2456  0.1732 -0.4251
  729MOL0     C98286   4.176   6.168   1.327  0.4294 -0.3886  0.7494
  729MOL0     C98287   4.236   6.098   1.430  0.3734  0.8936  0.2269
  729MOL0     O98288   4.161   6.022   1.515  0.3729 -0.2189 -0.4981
  729MOL0     C98289   4.053   6.096   1.576  0.7115 -0.4968  0.3057
  729MOL0     C98290   3.957   5.998   1.650  0.3677  0.9912  0.5508
  729MOL0     C98291   3.932   6.043   1.800 -0.5395  0.1733  0.3956
  729MOL0     C98292   3.830   5.950   1.880  0.4643 -0.1496 -0.5977
  729MOL0     C98293   3.797   5.987   2.025  0.3873  0.6201 -0.1401
  729MOL0     C98294   3.797   6.138   2.057 -0.0685  0.5345  0.0619
  729MOL0     C98295   3.770   6.160   2.208  0.6218  0.6639 -0.0752
  729MOL0     C98296   3.720   6.302   2.239  0.1368 -0.0212 -0.4754
  729MOL0     N98297   3.764   6.321   2.382 -0.7432 -1.2676  0.7832
  729MOL0     C98298   3.687   6.306   2.488 -0.3279  0.4635 -0.3357
  729MOL0     C98299   3.759   6.351   2.589  0.3591 -1.8883  0.2690
  729MOL0     C98300   3.715   6.362   2.734  0.1894 -0.7520 -0.1870
  729MOL0     C98301   3.701   6.219   2.778 -0.3619  0.1691  0.2291
  729MOL0     C98302   3.665   6.193   2.928 -0.0081 -0.2234  0.1717
  729MOL0     C98303   3.536   6.258   2.952  0.7092  0.3674  1.2771
  729MOL0     O98304   3.459   6.162   3.034 -0.3058 -0.2034 -0.0393
  729MOL0     C98305   3.483   6.151   3.165  0.2260 -0.6569 -0.1198
  729MOL0     C98306   3.556   6.245   3.242 -0.1645  0.7130 -0.5810
  729MOL0     C98307   3.564   6.220   3.382 -0.0179 -0.9754 -0.1587
  729MOL0     C98308   3.508   6.107   3.446 -0.1304 -0.6214  0.4169
  729MOL0     C98309   3.519   6.083   3.597 -0.2885 -0.9625 -0.1752
  729MOL0     O98310   3.545   6.205   3.662  0.5262 -0.4212 -0.1437
  729MOL0     C98311   3.542   6.210   3.799 -0.0603  0.0167  0.2057
  729MOL0     C98312   3.463   6.303   3.867 -0.1230 -0.1002  0.1794
  729MOL0     C98313   3.459   6.305   4.008 -0.9427 -0.6598  0.5256
  729MOL0     C98314   3.543   6.221   4.087  0.8907  0.9614 -0.3140
  729MOL0     O98315   3.535   6.208   4.227  0.2234  0.2659 -0.3310
  729MOL0     C98316   3.405   6.231   4.283 -0.5814 -0.2713  0.2334
  729MOL0     C98317   3.412   6.212   4.441 -0.1285  0.2106 -0.2073
  729MOL0     C98318   3.426   6.330   4.526  0.1401 -0.8274  1.0902
  729MOL0     C98319   3.571   6.382   4.537  0.1913 -0.1782 -0.0750
  729MOL0     C98320   3.578   6.498   4.639  0.2105  0.2211  0.4148
  729MOL0     C98321   3.496   6.621   4.593  0.4632 -0.0747  0.0091
  729MOL0     C98322   3.604   6.718   4.534 -0.7812  0.7246  0.8706
  729MOL0     C98323   3.530   6.818   4.440  0.1335  0.5768  0.1346
  729MOL0    Cl98324   3.379   6.882   4.515 -0.0332 -0.1076 -0.1880
  729MOL0     C98325   3.622   6.125   4.018  0.3270  0.2497  0.5075
  729MOL0     C98326   3.626   6.123   3.875 -0.8918  0.4177  0.2192
  729MOL0     O98327   3.500   5.973   3.650  0.0695 -0.5038  0.3920
  729MOL0     C98328   3.443   6.017   3.359 -0.2053 -0.1961  0.9846
  729MOL0     C98329   3.429   6.039   3.221 -0.0036  0.7695  0.0188
  729MOL0     N98330   3.890   6.379   2.536  0.1964  0.2393 -0.0701
  729MOL0     N98331   3.885   6.374   2.404  0.6701  0.3127 -0.5839
  729MOL0     C98332   4.377   6.106   1.428 -0.3014 -0.3532  0.5894
  729MOL0     C98333   4.455   6.184   1.336 -0.6225  0.2014 -0.2949
  729MOL0     C98334   4.562   6.519   1.054  0.3388  0.4663  0.1582
  729MOL0     C98335   4.630   6.645   1.089 -0.0057 -0.2292  0.2814
  729MOL0     C98336   4.677   6.740   0.994 -0.6149  0.1918  0.3015
  729MOL0     C98337   4.635   6.731   0.861  0.0883 -0.0052  0.7369
  729MOL0     O98338   4.695   6.801   0.760 -0.1465  0.1072  0.4394
  729MOL0     C98339   4.752   6.928   0.793  0.8045  0.5537  0.9066
  729MOL0     C98340   4.816   6.986   0.670 -0.5432 -0.1659  0.1908
  729MOL0     C98341   4.713   7.035   0.570 -0.2918 -1.1668 -0.2371
  729MOL0     C98342   4.765   7.025   0.432  0.3596 -0.1822 -0.3952
  729MOL0     C98343   4.755   6.885   0.372 -0.1946 -0.5811 -0.1453
  729MOL0     C98344   4.757   6.785   0.312 -0.4544  0.9711 -0.0410
  729MOL0     C98345   4.563   6.614   0.831  1.2981  0.2247 -0.3769
  729MOL0     C98346   4.529   6.513   0.925 -0.2884  0.4744 -0.0331
  729MOL0     C98347   4.490   6.386   0.859 -0.3107 -0.4132 -0.9171
  729MOL0     H98348   4.186   6.290   1.151  0.8831  0.2436 -1.2027
  729MOL0     H98349   4.071   6.145   1.312  0.7194 -1.9230  0.8713
  729MOL0     H98350   4.087   6.175   1.643  2.0319 -0.8078  0.0319
  729MOL0     H98351   4.005   6.162   1.504  1.4276 -0.1381  0.1510
  729MOL0     H98352   3.990   5.894   1.641  0.4661  1.0499  0.2209
  729MOL0     H98353   3.856   5.998   1.606  0.7547 -2.3980 -0.6699
  729MOL0     H98354   3.885   6.141   1.791 -0.6256  0.0614 -0.4548
  729MOL0     H98355   4.027   6.063   1.850  0.3534  2.6924 -2.0231
  729MOL0     H98356   3.738   5.952   1.822 -0.3626  0.0788  0.6849
  729MOL0     H98357   3.867   5.848   1.891  0.8908  0.2804  3.2315
  729MOL0     H98358   3.705   5.938   2.059 -0.4634  2.5516  0.4813
  729MOL0     H98359   3.883   5.971   2.090  0.5157  0.8721 -0.2488
  729MOL0     H98360   3.894   6.180   2.029  0.0569  0.9280  1.0529
  729MOL0     H98361   3.714   6.178   1.998  1.4209 -0.4535 -2.8740
  729MOL0     H98362   3.853   6.120   2.268 -1.9533 -2.2792  1.8371
  729MOL0     H98363   3.686   6.096   2.238  0.7888  1.0353  1.2315
  729MOL0     H98364   3.758   6.368   2.160 -0.1840  2.1491  1.0822
  729MOL0     H98365   3.612   6.319   2.237  0.1673  0.3219  0.4486
  729MOL0     H98366   3.584   6.273   2.486 -0.7470  1.7236  0.1790
  729MOL0     H98367   3.797   6.407   2.790  0.0751  1.3480 -1.5952
  729MOL0     H98368   3.624   6.419   2.756  2.1714  1.2741  3.8141
  729MOL0     H98369   3.626   6.168   2.717  0.7500  0.2207 -1.2404
  729MOL0     H98370   3.791   6.159   2.756  0.7666  1.4311  1.2030
  729MOL0     H98371   3.738   6.233   2.999  1.1326 -0.3412 -0.8991
  729MOL0     H98372   3.672   6.085   2.941  2.0712 -0.3537 -1.3992
  729MOL0     H98373   3.482   6.277   2.859  2.6537  1.9694  0.4260
  729MOL0     H98374   3.547   6.356   3.000  1.8443  2.8095 -3.4568
  729MOL0     H98375   3.588   6.340   3.199 -2.0054  2.5734  1.8764
  729MOL0     H98376   3.619   6.285   3.450  1.0011 -0.3323 -1.5484
  729MOL0     H98377   3.424   6.383   3.806  4.0009  1.9940 -0.0516
  729MOL0     H98378   3.382   6.377   4.035 -0.1080  0.7107 -0.6377
  729MOL0     H98379   3.355   6.324   4.255 -2.5530 -0.6653  2.1672
  729MOL0     H98380   3.342   6.147   4.255 -0.2268 -0.2149 -0.7769
  729MOL0     H98381   3.316   6.175   4.478  1.7382 -2.7344  2.2094
  729MOL0     H98382   3.486   6.133   4.459 -0.1720  0.5411  1.6199
  729MOL0     H98383   3.364   6.400   4.470  0.7822  1.1091  2.6928
  729MOL0     H98384   3.383   6.307   4.623 -2.0899  3.9730  1.5229
  729MOL0     H98385   3.600   6.429   4.442  1.9777 -1.7921 -0.3820
  729MOL0     H98386   3.647   6.306   4.553  0.4018  0.0653  0.0722
  729MOL0     H98387   3.684   6.513   4.665  0.2870 -1.7332  1.5012
  729MOL0     H98388   3.521   6.458   4.724  1.8713 -0.5816  1.2098
  729MOL0     H98389   3.417   6.608   4.518 -1.4851  2.4693  1.4097
  729MOL0     H98390   3.458   6.665   4.687  1.7820  1.2494 -0.0402
  729MOL0     H98391   3.680   6.667   4.473 -1.5759  1.5873 -0.9219
  729MOL0     H98392   3.665   6.773   4.606  0.2100  3.5373 -1.8806
  729MOL0     H98393   3.601   6.894   4.407 -0.9550  0.8089 -1.8612
  729MOL0     H98394   3.495   6.764   4.351  2.0865  2.9654 -2.2350
  729MOL0     H98395   3.683   6.056   4.074  1.0087 -0.2659 -0.8119
  729MOL0     H98396   3.685   6.057   3.813 -2.9389  1.5540 -3.2417
  729MOL0     H98397   3.402   5.930   3.408  0.1707  0.6234  2.8460
  729MOL0     H98398   3.370   5.965   3.168 -1.1747  0.9264  1.0271
  729MOL0     H98399   4.443   6.059   1.501  2.1188  2.6273  0.4901
  729MOL0     H98400   4.563   6.187   1.349 -0.7573 -0.6468  1.2704
  729MOL0     H98401   4.635   6.663   1.196 -1.7893  0.8056  0.2229
  729MOL0     H98402   4.722   6.834   1.025 -0.4969 -0.3285  1.7641
  729MOL0     H98403   4.833   6.913   0.866  1.8006 -2.1355 -0.5965
  729MOL0     H98404   4.683   7.007   0.824 -0.1749  0.3521 -0.6330
  729MOL0     H98405   4.878   6.911   0.619  0.4062  0.8147 -0.1318
  729MOL0     H98406   4.890   7.065   0.687 -0.3161 -0.1619 -0.7703
  729MOL0     H98407   4.686   7.139   0.595  1.1085 -1.2369  1.7964
  729MOL0     H98408   4.623   6.973   0.572  0.9822 -3.0656 -0.1158
  729MOL0     H98409   4.710   7.094   0.367 -1.7040 -2.4760 -1.2039
  729MOL0     H98410   4.872   7.048   0.427  0.6263 -1.5794 -1.4586
  729MOL0     H98411   4.761   6.686   0.271 -2.9688  0.6740  0.2764
  729MOL0     H98412   4.548   6.588   0.726  2.6854  3.5060 -1.5153
  729MOL0     H98413   4.387   6.352   0.878 -1.1073  1.7750 -1.0109
  729MOL0     H98414   4.512   6.390   0.752 -0.1302  0.7381 -0.8451
  729MOL0     H98415   4.545   6.300   0.898  0.7967  0.1730 -1.1739
  730MOL0     O98416  11.385   8.097  10.951  0.0663 -0.4593 -0.8358
  730MOL0     C98417  11.413   8.027  10.857 -0.1932 -0.4783  0.4840
  730MOL0     O98418  11.530   7.954  10.841 -0.3544  0.3134 -0.2308
  730MOL0     C98419  11.638   7.959  10.927 -0.1713  0.6998  0.1267
  730MOL0     C98420  11.729   7.848  10.912 -0.5210  0.5403  0.0471
  730MOL0     C98421  11.844   7.842  10.997  0.7266 -0.3184  0.1825
  730MOL0     C98422  11.870   7.955  11.078  0.4432 -0.0650 -0.4390
  730MOL0     O98423  11.978   7.978  11.144 -0.2734 -0.1638  0.2376
  730MOL0     C98424  12.073   7.878  11.166  0.4142  0.0328  0.0725
  730MOL0     C98425  12.186   7.924  11.248  0.5115 -0.5725 -0.7197
  730MOL0     C98426  12.295   8.001  11.167  0.3580 -0.1602  0.4951
  730MOL0     C98427  12.248   8.134  11.096 -0.1024  1.0117  0.4317
  730MOL0     C98428  12.373   8.207  11.041  0.2614  0.1174  0.9254
  730MOL0     C98429  12.474   8.130  10.964 -0.1761  0.1333  0.8051
  730MOL0     C98430  12.419   8.082  10.821  0.7521  0.2910  0.5383
  730MOL0     C98431  12.406   8.197  10.722  0.4465  0.8186 -1.8279
  730MOL0     N98432  12.539   8.237  10.683 -0.1055  0.1284 -0.4931
  730MOL0     C98433  12.592   8.214  10.554 -0.2193  0.0116 -1.0132
  730MOL0     C98434  12.710   8.283  10.566 -0.2773 -0.8790 -0.3140
  730MOL0     C98435  12.803   8.308  10.443  0.3170  0.3340 -0.0984
  730MOL0     C98436  12.750   8.422  10.346 -0.3002  0.4522 -1.2065
  730MOL0     C98437  12.832   8.449  10.223  0.4710  0.4723 -0.8870
  730MOL0     C98438  12.768   8.550  10.130 -0.4870 -0.8561  0.0905
  730MOL0     O98439  12.856   8.572  10.008  0.0055 -0.5168  0.1142
  730MOL0     C98440  12.811   8.523   9.888 -0.5068  0.4180 -0.1415
  730MOL0     C98441  12.869   8.562   9.766  0.6752 -0.3262 -0.5258
  730MOL0     C98442  12.833   8.505   9.637 -0.2219 -0.2949 -1.0059
  730MOL0     C98443  12.746   8.401   9.628  0.2683  0.0053  0.7408
  730MOL0     C98444  12.716   8.345   9.489  0.0015  0.6653  0.3689
  730MOL0     O98445  12.799   8.384   9.380  0.0396  0.5822  0.3233
  730MOL0     C98446  12.802   8.306   9.265  0.9412  0.3184  0.3411
  730MOL0     C98447  12.822   8.168   9.273  0.8007 -0.2430 -0.8671
  730MOL0     C98448  12.843   8.095   9.157 -0.4520  0.2070  0.1116
  730MOL0     C98449  12.832   8.150   9.036  0.2486  0.0628  0.0705
  730MOL0     O98450  12.868   8.086   8.921 -0.0628  0.2553  0.3823
  730MOL0     C98451  12.805   7.953   8.894  0.0524 -0.5532 -0.3942
  730MOL0     C98452  12.760   7.918   8.746  0.4587 -0.4573 -0.1953
  730MOL0     C98453  12.646   8.022   8.693  0.0130  0.4392  0.8044
  730MOL0     C98454  12.509   7.953   8.703 -0.1196  0.1307  0.0516
  730MOL0     C98455  12.390   8.044   8.670  0.0802  0.2748  0.1089
  730MOL0     C98456  12.303   8.080   8.791  1.0095  0.2279 -0.0277
  730MOL0     C98457  12.379   8.178   8.882 -0.4501  0.3913  0.0893
  730MOL0     C98458  12.286   8.238   8.988  1.3659 -0.0745 -1.0246
  730MOL0    Cl98459  12.125   8.289   8.917  0.4907 -0.0755  0.1754
  730MOL0     C98460  12.796   8.288   9.019 -0.1341  0.1020 -0.7448
  730MOL0     C98461  12.787   8.371   9.136  0.2745  0.7534 -0.5551
  730MOL0     O98462  12.642   8.244   9.494 -0.4170  0.4423 -0.5913
  730MOL0     C98463  12.681   8.363   9.748  1.2514 -0.2810 -0.2866
  730MOL0     C98464  12.717   8.422   9.875  0.0842  0.4130 -0.3257
  730MOL0     N98465  12.725   8.329  10.688 -0.4964 -0.8602 -0.6310
  730MOL0     N98466  12.620   8.312  10.759  0.9440  0.2742  0.3138
  730MOL0     C98467  11.782   8.064  11.088  0.6473  0.5540  0.6675
  730MOL0     C98468  11.667   8.065  11.007 -0.0721  0.0906 -0.0107
  730MOL0     C98469  11.310   8.012  10.749  0.8548 -0.2449  0.6711
  730MOL0     C98470  11.360   7.971  10.627  0.3330 -0.1831  0.4128
  730MOL0     C98471  11.284   7.956  10.502  0.2314 -0.1834  0.6149
  730MOL0     C98472  11.147   8.003  10.509  0.4435 -0.2363  1.0431
  730MOL0     O98473  11.053   8.002  10.412  0.2510 -0.2830 -0.2509
  730MOL0     C98474  11.080   7.933  10.285 -0.0529  0.2148  0.0760
  730MOL0     C98475  10.947   7.864  10.242 -1.5476  0.2824  0.2031
  730MOL0     C98476  10.844   7.958  10.212  1.6322 -0.0073  0.3897
  730MOL0     C98477  10.717   7.894  10.142 -1.1132 -1.1903  0.3452
  730MOL0     C98478  10.754   7.812  10.028  0.4874 -0.6227 -0.6009
  730MOL0     C98479  10.778   7.749   9.930  1.0289  0.2173 -0.1103
  730MOL0     C98480  11.106   8.062  10.628  0.2704 -0.6582  0.3342
  730MOL0     C98481  11.169   8.057  10.754  0.3585  0.4996 -1.1789
  730MOL0     C98482  11.105   8.108  10.881 -0.3448  0.2029 -0.3728
  730MOL0     H98483  11.715   7.769  10.839 -1.6240 -2.9191  3.6768
  730MOL0     H98484  11.916   7.760  10.996  2.0471  0.7541  1.9104
  730MOL0     H98485  12.025   7.790  11.209  1.1139 -0.7739 -0.7599
  730MOL0     H98486  12.119   7.844  11.073  0.5068  1.8811 -0.5942
  730MOL0     H98487  12.230   7.833  11.290 -1.2634 -1.8784 -1.5729
  730MOL0     H98488  12.141   7.989  11.324  2.1356  1.4505 -1.4177
  730MOL0     H98489  12.327   7.929  11.092 -0.6335 -2.5808  2.2909
  730MOL0     H98490  12.377   8.038  11.228 -0.4604  2.6074  0.0998
  730MOL0     H98491  12.173   8.116  11.018  0.0179  2.0585  0.0509
  730MOL0     H98492  12.203   8.203  11.167 -0.3152  1.2010  0.1195
  730MOL0     H98493  12.341   8.298  10.990 -2.5951 -0.5316  1.4264
  730MOL0     H98494  12.435   8.247  11.123 -0.7992  2.7559  0.5347
  730MOL0     H98495  12.561   8.197  10.967 -0.3114  0.3486  4.4206
  730MOL0     H98496  12.513   8.038  11.009  2.2799 -1.6908 -4.2388
  730MOL0     H98497  12.313   8.056  10.833  1.8819 -5.2352  1.4834
  730MOL0     H98498  12.477   7.996  10.785  0.5055 -0.7071  2.3663
  730MOL0     H98499  12.347   8.165  10.636 -0.8550 -0.3576 -0.5674
  730MOL0     H98500  12.346   8.278  10.766 -1.5851 -0.7883 -1.4779
  730MOL0     H98501  12.562   8.151  10.471 -0.8348  0.8166 -1.4121
  730MOL0     H98502  12.903   8.344  10.468 -0.5741  1.9582  1.3668
  730MOL0     H98503  12.823   8.208  10.402  1.5245  0.9302 -1.0367
  730MOL0     H98504  12.647   8.407  10.311 -0.2797 -1.0888 -0.6974
  730MOL0     H98505  12.752   8.509  10.411  2.0705 -0.9301  0.7130
  730MOL0     H98506  12.848   8.353  10.172 -0.7829  0.5483 -1.4718
  730MOL0     H98507  12.926   8.483  10.267 -0.4896 -0.4664  2.2292
  730MOL0     H98508  12.764   8.645  10.184  0.2342 -0.6134 -0.2660
  730MOL0     H98509  12.669   8.527  10.089 -0.1600 -0.9840 -0.6513
  730MOL0     H98510  12.932   8.650   9.757 -1.5318  1.3185 -0.7084
  730MOL0     H98511  12.887   8.527   9.545 -2.9723 -1.1295 -2.9163
  730MOL0     H98512  12.809   8.117   9.368 -1.9221 -1.2343 -1.6720
  730MOL0     H98513  12.864   7.989   9.172  1.8196  0.9708  3.2817
  730MOL0     H98514  12.864   7.864   8.918 -5.1746 -4.5068 -0.4039
  730MOL0     H98515  12.720   7.938   8.960 -0.4893  1.5746 -0.5200
  730MOL0     H98516  12.849   7.939   8.686  2.2364  1.4077  2.8378
  730MOL0     H98517  12.729   7.815   8.727  1.0915 -0.4927 -1.1020
  730MOL0     H98518  12.660   8.110   8.757  0.5661  1.2661 -0.4111
  730MOL0     H98519  12.664   8.058   8.591  1.1672  0.0842  0.8711
  730MOL0     H98520  12.491   7.910   8.802  3.1962 -0.8757  0.3198
  730MOL0     H98521  12.504   7.860   8.646  1.5768 -2.2655  3.4337
  730MOL0     H98522  12.323   7.993   8.600  0.3869  3.9765 -3.2259
  730MOL0     H98523  12.422   8.137   8.623  0.8665  0.1247  0.3308
  730MOL0     H98524  12.208   8.119   8.753 -0.3346 -1.1887  1.6971
  730MOL0     H98525  12.272   7.991   8.847  2.3376 -0.3879 -0.2248
  730MOL0     H98526  12.414   8.270   8.834 -1.0368  2.3283  3.1131
  730MOL0     H98527  12.465   8.124   8.922 -0.7382 -2.0395 -2.3381
  730MOL0     H98528  12.268   8.152   9.052  3.4525 -0.3884 -0.7898
  730MOL0     H98529  12.323   8.328   9.038 -0.5614 -0.1578  0.6580
  730MOL0     H98530  12.789   8.332   8.920 -1.6099 -1.0623 -1.1896
  730MOL0     H98531  12.790   8.479   9.126 -2.8435  1.1111  1.0560
  730MOL0     H98532  12.602   8.289   9.748  1.6472 -0.7133  0.4414
  730MOL0     H98533  12.673   8.379   9.965 -1.3441  0.8861 -0.7636
  730MOL0     H98534  11.798   8.148  11.156 -0.5309  0.9999  0.4143
  730MOL0     H98535  11.606   8.153  11.021 -0.9855 -0.4195 -0.6831
  730MOL0     H98536  11.456   7.926  10.608 -1.1934 -3.7317  0.2883
  730MOL0     H98537  11.330   7.898  10.423  1.5483  2.4454 -0.6696
  730MOL0     H98538  11.157   7.855  10.289 -3.3146 -3.3329 -0.2017
  730MOL0     H98539  11.113   8.010  10.215 -1.9777  0.1747 -0.9422
  730MOL0     H98540  10.922   7.798  10.325 -1.5613  1.9088  1.5389
  730MOL0     H98541  10.978   7.813  10.150  1.7454  2.0118  0.2132
  730MOL0     H98542  10.873   8.036  10.140  0.1020  0.2580  0.0270
  730MOL0     H98543  10.824   8.019  10.301  0.8621  0.8708 -0.3602
  730MOL0     H98544  10.671   7.841  10.225  0.8236  2.8666  4.4360
  730MOL0     H98545  10.644   7.970  10.111 -2.0871 -2.0305  0.5377
  730MOL0     H98546  10.810   7.692   9.845 -4.2335 -0.1024 -2.2712
  730MOL0     H98547  11.006   8.105  10.631  0.2673 -0.6932  3.6531
  730MOL0     H98548  10.997   8.091  10.879 -0.1651 -1.4912  1.3447
  730MOL0     H98549  11.146   8.044  10.960  0.7710  1.3556  0.0218
  730MOL0     H98550  11.116   8.211  10.916  0.1188 -0.5534  1.9352
  731MOL0     O98551   2.404   0.632   3.631 -0.1635  0.0682  0.2339
  731MOL0     C98552   2.288   0.649   3.668  0.1081  0.5438 -0.1469
  731MOL0     O98553   2.184   0.557   3.680  0.2831  0.6225 -0.3271
  731MOL0     C98554   2.205   0.424   3.650  0.2394  0.4484 -0.3415
  731MOL0     C98555   2.145   0.323   3.735  0.2181  0.2938 -0.0054
  731MOL0     C98556   2.157   0.179   3.701 -0.1717  0.1921 -0.6502
  731MOL0     C98557   2.226   0.151   3.583 -0.2377 -0.3923 -0.2677
  731MOL0     O98558   2.232   0.025   3.528  0.1555  0.6728  0.0115
  731MOL0     C98559   2.235  -0.085   3.618 -0.3255  0.3228 -1.1275
  731MOL0     C98560   2.108  -0.168   3.605 -0.2637  0.1907 -0.0289
  731MOL0     C98561   2.135  -0.302   3.658 -0.2142  0.5933 -0.6437
  731MOL0     C98562   2.016  -0.374   3.733  0.3112  0.3776 -0.2224
  731MOL0     C98563   2.062  -0.496   3.812 -0.4191  0.7259  0.0812
  731MOL0     C98564   2.158  -0.476   3.935  0.2071 -0.4186  0.2650
  731MOL0     C98565   2.069  -0.451   4.059 -0.1629  0.6054 -1.4826
  731MOL0     C98566   2.136  -0.411   4.190 -0.3635 -0.0128 -0.6181
  731MOL0     N98567   2.266  -0.473   4.228 -0.1164 -0.4528  0.4403
  731MOL0     C98568   2.287  -0.604   4.269  0.5434 -0.2427 -0.2735
  731MOL0     C98569   2.418  -0.594   4.302 -0.0271 -0.7905  0.2443
  731MOL0     C98570   2.496  -0.702   4.365  0.4655  0.8385 -0.0308
  731MOL0     C98571   2.403  -0.808   4.444 -0.5745 -0.3933  0.5707
  731MOL0     C98572   2.329  -0.729   4.565 -0.7061  0.4037  1.1889
  731MOL0     C98573   2.257  -0.848   4.641  0.3454  0.9454 -0.4507
  731MOL0     O98574   2.176  -0.799   4.741  0.7028  0.0902  0.2036
  731MOL0     C98575   2.221  -0.812   4.872 -1.0950  0.7885  0.2482
  731MOL0     C98576   2.142  -0.751   4.969 -0.7738  0.1526  0.3942
  731MOL0     C98577   2.169  -0.758   5.104  1.2242 -0.0718  0.3162
  731MOL0     C98578   2.280  -0.821   5.160  0.3899  0.5592  0.4652
  731MOL0     C98579   2.318  -0.802   5.298 -0.4929 -0.1415  0.3003
  731MOL0     O98580   2.219  -0.788   5.383 -1.0488  0.5302  0.2680
  731MOL0     C98581   2.234  -0.760   5.518  0.6366 -0.1639  0.2511
  731MOL0     C98582   2.316  -0.832   5.604 -0.1598  0.2094 -0.4536
  731MOL0     C98583   2.321  -0.801   5.744  0.1236 -0.3138  0.4444
  731MOL0     C98584   2.252  -0.689   5.797  0.4439  1.1121 -0.3412
  731MOL0     O98585   2.268  -0.653   5.928 -0.0403  0.0903 -0.7348
  731MOL0     C98586   2.179  -0.569   5.995  0.1654 -0.1127  0.5617
  731MOL0     C98587   2.192  -0.590   6.149 -0.4957  0.1124 -0.7822
  731MOL0     C98588   2.327  -0.530   6.202  0.4559 -0.3481  0.1169
  731MOL0     C98589   2.348  -0.578   6.342 -0.2067 -0.5791 -0.2115
  731MOL0     C98590   2.478  -0.511   6.405  0.5536 -0.4280 -0.4319
  731MOL0     C98591   2.525  -0.594   6.525 -0.8192  0.4122  0.9784
  731MOL0     C98592   2.667  -0.520   6.561  0.2722  0.5012  0.3162
  731MOL0     C98593   2.740  -0.593   6.677  0.4483  0.7676 -0.1692
  731MOL0    Cl98594   2.820  -0.738   6.617  0.5226  0.5521 -0.2375
  731MOL0     C98595   2.178  -0.606   5.707 -0.1479  0.1218 -0.2530
  731MOL0     C98596   2.170  -0.646   5.569  0.0856 -0.3459  0.1519
  731MOL0     O98597   2.436  -0.794   5.323  0.9476  0.2971  0.6010
  731MOL0     C98598   2.366  -0.879   5.066 -0.5596 -0.4158 -0.0231
  731MOL0     C98599   2.338  -0.879   4.928  0.4360 -0.3400  0.5429
  731MOL0     N98600   2.475  -0.471   4.267 -0.4859 -0.4609 -0.0413
  731MOL0     N98601   2.384  -0.406   4.208 -0.1568 -0.3638  0.0953
  731MOL0     C98602   2.278   0.251   3.504 -0.3583  0.5879  0.1978
  731MOL0     C98603   2.265   0.386   3.532  0.2497  0.0694  0.2996
  731MOL0     C98604   2.248   0.790   3.692 -0.1720 -0.5139 -0.3897
  731MOL0     C98605   2.115   0.808   3.742 -0.0356 -0.7658 -0.3122
  731MOL0     C98606   2.078   0.934   3.802 -0.9075  0.9111 -0.4510
  731MOL0     C98607   2.158   1.050   3.792 -0.4574  0.4626 -0.2808
  731MOL0     O98608   2.134   1.176   3.835  0.1022  0.2329  0.2518
  731MOL0     C98609   2.000   1.211   3.891 -0.2655  0.2308 -0.3509
  731MOL0     C98610   1.960   1.354   3.856 -0.6647  0.0655 -0.1351
  731MOL0     C98611   1.926   1.360   3.700  0.6099 -0.1316 -0.5544
  731MOL0     C98612   1.779   1.317   3.672  0.3902 -0.6559  0.7036
  731MOL0     C98613   1.678   1.376   3.759 -0.2744  0.0554  0.2809
  731MOL0     C98614   1.575   1.417   3.816  0.5802  0.0069  0.1333
  731MOL0     C98615   2.282   1.032   3.733  0.1984  0.7823  0.3293
  731MOL0     C98616   2.326   0.908   3.682  0.1919 -0.4255  0.2596
  731MOL0     C98617   2.465   0.912   3.612  1.1772 -0.2836 -0.6579
  731MOL0     H98618   2.091   0.354   3.824  4.7869  2.6791  2.2559
  731MOL0     H98619   2.112   0.111   3.772 -0.6164  2.3446  1.2448
  731MOL0     H98620   2.314  -0.154   3.589 -1.3427 -1.3064 -0.1341
  731MOL0     H98621   2.262  -0.047   3.717 -0.5867 -4.2273  0.9088
  731MOL0     H98622   2.087  -0.183   3.498  0.7531  3.2179 -0.7601
  731MOL0     H98623   2.026  -0.112   3.650 -2.1394 -0.9968 -1.7662
  731MOL0     H98624   2.214  -0.289   3.732 -0.9322 -0.0258  0.2524
  731MOL0     H98625   2.179  -0.369   3.583  0.8315  1.1331 -0.5275
  731MOL0     H98626   1.968  -0.296   3.793 -3.0867 -1.0461 -0.7998
  731MOL0     H98627   1.939  -0.394   3.657 -1.4351  5.4167 -0.1580
  731MOL0     H98628   1.967  -0.537   3.846  0.5479 -1.3411  0.4328
  731MOL0     H98629   2.114  -0.571   3.751 -1.2751 -1.9686  2.4483
  731MOL0     H98630   2.217  -0.567   3.952  3.6559  1.9019  1.9305
  731MOL0     H98631   2.241  -0.408   3.915  2.0366 -2.2361  1.3276
  731MOL0     H98632   2.023  -0.550   4.071  1.1034 -0.1724 -2.7320
  731MOL0     H98633   1.991  -0.375   4.050  0.9198  2.6014  3.0063
  731MOL0     H98634   2.154  -0.304   4.178  0.3834 -0.3809 -3.5398
  731MOL0     H98635   2.071  -0.419   4.277 -1.0905  1.3508 -1.0105
  731MOL0     H98636   2.222  -0.686   4.300 -1.0223  1.2117  0.4950
  731MOL0     H98637   2.535  -0.763   4.283 -0.8817 -1.8992  1.2398
  731MOL0     H98638   2.572  -0.657   4.429 -0.4250  2.0603  0.2061
  731MOL0     H98639   2.332  -0.852   4.373 -1.3907  0.4078  0.8580
  731MOL0     H98640   2.470  -0.891   4.466  1.4351  1.4323  1.7165
  731MOL0     H98641   2.255  -0.664   4.518  0.8144  1.3743  0.0524
  731MOL0     H98642   2.395  -0.673   4.633  0.3473  1.8807 -0.9520
  731MOL0     H98643   2.326  -0.926   4.674 -2.9229 -2.3627 -0.6632
  731MOL0     H98644   2.177  -0.903   4.590 -0.5293  1.1372  0.6690
  731MOL0     H98645   2.052  -0.693   4.952  0.3881  1.2921 -2.3722
  731MOL0     H98646   2.102  -0.713   5.176  0.4610  0.4338 -0.6827
  731MOL0     H98647   2.381  -0.915   5.577 -1.4156 -0.9088 -0.1747
  731MOL0     H98648   2.389  -0.863   5.802  0.8451  0.5877  0.5934
  731MOL0     H98649   2.210  -0.467   5.972 -1.7290  1.1656  3.1882
  731MOL0     H98650   2.076  -0.577   5.958  0.3286  0.4272 -0.0302
  731MOL0     H98651   2.110  -0.552   6.211  0.0204 -0.6680  0.4151
  731MOL0     H98652   2.189  -0.698   6.170  1.2402  0.2246  0.2029
  731MOL0     H98653   2.410  -0.556   6.135  1.3817 -0.2171  1.1973
  731MOL0     H98654   2.315  -0.422   6.193  0.3897 -0.3384  0.3179
  731MOL0     H98655   2.367  -0.686   6.342  0.5364 -0.5208  2.3449
  731MOL0     H98656   2.258  -0.563   6.402 -1.1718  1.9877 -2.1181
  731MOL0     H98657   2.449  -0.411   6.437  2.8011  0.0321  0.3155
  731MOL0     H98658   2.557  -0.489   6.332  0.5398 -3.8001 -1.6410
  731MOL0     H98659   2.449  -0.613   6.601 -2.0484 -1.6566 -0.6493
  731MOL0     H98660   2.558  -0.690   6.484  2.0050  3.3854 -5.0520
  731MOL0     H98661   2.664  -0.415   6.591  1.7057  1.0436 -1.2616
  731MOL0     H98662   2.727  -0.513   6.470  1.3616 -0.7491  0.9127
  731MOL0     H98663   2.823  -0.525   6.699  0.3281  1.3652 -1.5009
  731MOL0     H98664   2.674  -0.593   6.765  0.2858  0.7866 -0.2920
  731MOL0     H98665   2.140  -0.509   5.738 -1.1963 -0.6883  1.1350
  731MOL0     H98666   2.112  -0.582   5.503 -1.0381 -0.0305  1.3892
  731MOL0     H98667   2.444  -0.945   5.101 -0.0927  0.6379  0.9857
  731MOL0     H98668   2.417  -0.924   4.868 -0.4274  0.1610 -1.0287
  731MOL0     H98669   2.320   0.219   3.410 -2.5054 -0.4210 -0.4930
  731MOL0     H98670   2.290   0.458   3.454 -4.1277  0.4622 -1.0456
  731MOL0     H98671   2.045   0.726   3.750 -0.4720 -0.3522  0.2435
  731MOL0     H98672   1.976   0.938   3.841  0.8463  0.9536  4.9146
  731MOL0     H98673   2.010   1.206   4.000  1.5447 -1.6188 -0.5456
  731MOL0     H98674   1.928   1.131   3.869 -0.4842  0.3414 -0.0405
  731MOL0     H98675   2.040   1.426   3.877 -0.8925  0.8411 -1.7753
  731MOL0     H98676   1.875   1.388   3.916  0.1212  0.3296  0.8647
  731MOL0     H98677   2.003   1.302   3.650  3.9402  0.2145  3.5843
  731MOL0     H98678   1.946   1.463   3.670 -1.7436  0.7147  0.4808
  731MOL0     H98679   1.764   1.354   3.569 -0.3747  1.2647  1.4435
  731MOL0     H98680   1.771   1.208   3.671 -0.4503 -0.6671 -2.3085
  731MOL0     H98681   1.477   1.441   3.849  0.2757 -2.1426  1.0046
  731MOL0     H98682   2.338   1.118   3.699  2.3570 -0.1972  1.2414
  731MOL0     H98683   2.463   0.902   3.503 -1.2487  0.1339 -0.7054
  731MOL0     H98684   2.509   1.009   3.633 -1.7793  2.0783 -4.0875
  731MOL0     H98685   2.523   0.829   3.652  1.5896 -0.2161 -1.1093
  732MOL0     O98686   0.865   1.860   6.966 -0.2022 -0.2284 -0.0512
  732MOL0     C98687   0.771   1.796   6.997  0.0701  0.4468 -0.5422
  732MOL0     O98688   0.724   1.783   7.127  0.1540  0.3902 -0.1215
  732MOL0     C98689   0.787   1.825   7.238 -0.2051 -0.2081  0.0179
  732MOL0     C98690   0.712   1.887   7.334  0.5754 -0.0687  0.4217
  732MOL0     C98691   0.783   1.944   7.441 -0.0279 -0.2114 -0.6816
  732MOL0     C98692   0.924   1.942   7.464 -0.1796  0.3066 -0.5442
  732MOL0     O98693   0.976   2.009   7.572 -1.0328 -0.4209  0.1542
  732MOL0     C98694   1.078   2.107   7.525 -0.5181 -0.4719 -0.2842
  732MOL0     C98695   1.076   2.230   7.620 -0.2020 -0.1612 -1.2483
  732MOL0     C98696   1.003   2.356   7.571  0.1174  0.2245 -0.3718
  732MOL0     C98697   1.014   2.388   7.425 -0.5807  0.3450 -0.6555
  732MOL0     C98698   0.912   2.315   7.320  0.9009  0.8027 -0.1439
  732MOL0     C98699   0.766   2.319   7.376 -0.3510  0.5328 -0.0632
  732MOL0     C98700   0.679   2.250   7.268 -0.0952  0.3658  0.2523
  732MOL0     C98701   0.534   2.285   7.285  0.6264 -0.2335  0.9819
  732MOL0     N98702   0.503   2.425   7.256  0.0549 -0.9752  0.1702
  732MOL0     C98703   0.434   2.462   7.147 -0.2587 -0.2102 -0.5909
  732MOL0     C98704   0.427   2.596   7.164  0.3817  0.7687 -0.3381
  732MOL0     C98705   0.378   2.699   7.075  0.7776  0.3324  0.0133
  732MOL0     C98706   0.224   2.681   7.065  0.0435 -0.8133 -0.1235
  732MOL0     C98707   0.163   2.805   6.991  1.1310  0.1215 -0.1585
  732MOL0     C98708   0.213   2.812   6.845  0.1698  0.9373 -0.5222
  732MOL0     O98709   0.098   2.805   6.761 -0.1073  0.3360  0.0826
  732MOL0     C98710   0.046   2.686   6.715  0.6963 -0.8430  0.1151
  732MOL0     C98711   0.050   2.559   6.775  0.8151  0.3427  0.5085
  732MOL0     C98712  -0.037   2.466   6.736 -0.5490  0.1530 -0.1191
  732MOL0     C98713  -0.128   2.486   6.632 -0.5010  0.0716 -1.0764
  732MOL0     C98714  -0.224   2.380   6.608  0.6920  0.1239  0.1406
  732MOL0     O98715  -0.192   2.258   6.672 -0.2544 -0.0402  0.3150
  732MOL0     C98716  -0.271   2.153   6.636  0.4926  0.1169 -0.4231
  732MOL0     C98717  -0.206   2.044   6.593 -1.7936 -0.1898  0.4446
  732MOL0     C98718  -0.273   1.921   6.556  0.0407 -0.5888  0.1297
  732MOL0     C98719  -0.413   1.905   6.568 -0.2880 -0.3238  0.0689
  732MOL0     O98720  -0.478   1.781   6.553 -0.3774  0.3518 -0.4173
  732MOL0     C98721  -0.614   1.763   6.607  0.5578 -0.3168  0.2612
  732MOL0     C98722  -0.636   1.621   6.644 -0.1939 -1.4423  0.2696
  732MOL0     C98723  -0.660   1.522   6.527  0.7338  0.1836  0.1970
  732MOL0     C98724  -0.544   1.491   6.431  0.5505  0.2408 -0.6967
  732MOL0     C98725  -0.582   1.357   6.346 -0.1256 -0.1628  0.2073
  732MOL0     C98726  -0.473   1.336   6.236  0.4664  0.1055  0.7952
  732MOL0     C98727  -0.476   1.183   6.193 -0.2486 -0.1371 -0.3783
  732MOL0     C98728  -0.395   1.177   6.066  0.1005 -0.2101 -0.0095
  732MOL0    Cl98729  -0.463   1.258   5.927  0.2866 -0.0195 -0.0866
  732MOL0     C98730  -0.480   2.019   6.622  0.2016  0.7250 -0.2059
  732MOL0     C98731  -0.411   2.134   6.651 -0.7666 -0.5800  0.0763
  732MOL0     O98732  -0.317   2.405   6.525  0.0216 -0.1164 -0.2218
  732MOL0     C98733  -0.132   2.610   6.570  0.1887  0.0572  0.0896
  732MOL0     C98734  -0.043   2.710   6.610 -0.0550 -0.4668  0.6542
  732MOL0     N98735   0.486   2.631   7.277  0.1371 -0.2998  0.6077
  732MOL0     N98736   0.529   2.534   7.336 -0.4968  0.6090 -0.0471
  732MOL0     C98737   0.996   1.862   7.363 -0.1716  0.1860  0.9029
  732MOL0     C98738   0.926   1.810   7.252 -1.1524 -0.0004 -0.2650
  732MOL0     C98739   0.700   1.719   6.891 -0.1967 -0.1408  0.6644
  732MOL0     C98740   0.768   1.670   6.777  0.0825 -0.5194  0.3619
  732MOL0     C98741   0.702   1.615   6.666 -0.0924  0.4411 -0.3652
  732MOL0     C98742   0.569   1.598   6.662 -0.8458 -0.8538 -0.0316
  732MOL0     O98743   0.497   1.531   6.562  0.4600 -0.8468  0.2652
  732MOL0     C98744   0.548   1.485   6.436  0.0018  0.0431  0.1113
  732MOL0     C98745   0.452   1.419   6.343  0.4862 -0.2875 -0.1566
  732MOL0     C98746   0.502   1.419   6.201  0.1230 -0.5301  0.2767
  732MOL0     C98747   0.414   1.329   6.106 -0.2833 -0.5029  0.4736
  732MOL0     C98748   0.449   1.192   6.146 -0.0600  0.3006 -0.4915
  732MOL0     C98749   0.462   1.070   6.174  0.3981  0.0064  0.2410
  732MOL0     C98750   0.497   1.636   6.780 -0.1607  0.0066  0.2888
  732MOL0     C98751   0.561   1.695   6.888  0.0895 -0.6987  1.1362
  732MOL0     C98752   0.467   1.737   7.003 -0.1326  0.0059  0.8358
  732MOL0     H98753   0.604   1.884   7.333  0.5001 -4.5782 -1.8732
  732MOL0     H98754   0.727   1.989   7.522  1.8875 -0.0263  0.6315
  732MOL0     H98755   1.171   2.052   7.538  1.0007  1.1123 -3.2040
  732MOL0     H98756   1.070   2.133   7.419  1.2552  0.7965 -0.1505
  732MOL0     H98757   1.181   2.244   7.645 -0.3223 -4.6562  3.2144
  732MOL0     H98758   1.031   2.203   7.716 -0.3134  1.0408 -0.9466
  732MOL0     H98759   1.043   2.439   7.630 -0.6632  0.8717 -0.7388
  732MOL0     H98760   0.902   2.355   7.614  0.7044 -0.7413  1.0862
  732MOL0     H98761   1.008   2.497   7.420  2.1448  0.6122  0.1463
  732MOL0     H98762   1.117   2.366   7.395  0.0635  1.0527  0.8764
  732MOL0     H98763   0.921   2.374   7.228 -0.7762  1.2023 -0.0781
  732MOL0     H98764   0.937   2.210   7.301  1.1728  0.6682  0.9320
  732MOL0     H98765   0.768   2.257   7.467  0.6177 -1.5911 -1.4361
  732MOL0     H98766   0.752   2.424   7.401  0.9416  0.0689  3.0220
  732MOL0     H98767   0.685   2.141   7.272 -1.7938  0.2264 -0.1406
  732MOL0     H98768   0.720   2.289   7.175  1.1505  2.2742  1.5312
  732MOL0     H98769   0.469   2.220   7.224  0.9773  1.5560 -1.4578
  732MOL0     H98770   0.517   2.250   7.387 -3.4027 -3.9356 -0.6214
  732MOL0     H98771   0.400   2.406   7.060  0.4833  3.2754 -3.3747
  732MOL0     H98772   0.399   2.798   7.116  0.1139  0.1098  0.9297
  732MOL0     H98773   0.416   2.697   6.973 -0.5265  2.3292 -0.5625
  732MOL0     H98774   0.203   2.581   7.026  0.9420 -0.2475 -2.1605
  732MOL0     H98775   0.186   2.690   7.167 -0.4052 -0.5694 -0.3077
  732MOL0     H98776   0.202   2.891   7.045  0.4451 -0.1803  0.8301
  732MOL0     H98777   0.055   2.797   7.006  0.9680 -0.6875 -1.5882
  732MOL0     H98778   0.289   2.744   6.804 -2.2550 -0.6072 -2.8389
  732MOL0     H98779   0.260   2.910   6.837  2.6849 -0.1904 -0.5603
  732MOL0     H98780   0.115   2.536   6.859  1.3939  0.0878  0.0053
  732MOL0     H98781  -0.046   2.372   6.789 -1.3674 -0.2667 -0.9629
  732MOL0     H98782  -0.097   2.044   6.588 -1.6861  1.7218  1.7594
  732MOL0     H98783  -0.223   1.831   6.521  1.7624  0.2671  0.2515
  732MOL0     H98784  -0.638   1.824   6.694 -0.5343  1.6063 -1.3193
  732MOL0     H98785  -0.690   1.796   6.536  1.5275 -0.6668 -0.9604
  732MOL0     H98786  -0.537   1.601   6.686 -0.3050  1.3720  2.0733
  732MOL0     H98787  -0.719   1.616   6.715 -1.2761 -1.6731 -0.9597
  732MOL0     H98788  -0.689   1.432   6.582 -2.0240  0.7630 -0.1532
  732MOL0     H98789  -0.746   1.556   6.468  1.0808  0.5910 -0.0778
  732MOL0     H98790  -0.453   1.474   6.489  1.1508 -2.7711 -2.2999
  732MOL0     H98791  -0.529   1.581   6.372 -3.3479  2.1510  0.8571
  732MOL0     H98792  -0.685   1.370   6.309 -0.7886  0.4147  2.1536
  732MOL0     H98793  -0.587   1.272   6.415  0.4701  1.8465  2.8707
  732MOL0     H98794  -0.489   1.402   6.150 -1.1882  0.2885  1.2126
  732MOL0     H98795  -0.369   1.354   6.262  0.2399  0.2093  1.6497
  732MOL0     H98796  -0.580   1.159   6.168 -0.0322 -0.2031 -1.2186
  732MOL0     H98797  -0.444   1.123   6.279  0.5059 -1.0775 -1.3034
  732MOL0     H98798  -0.296   1.219   6.086 -0.6176  1.8052 -0.3440
  732MOL0     H98799  -0.382   1.070   6.048 -2.5430 -1.8823  5.5802
  732MOL0     H98800  -0.588   2.026   6.628  0.2045  0.1722  0.6260
  732MOL0     H98801  -0.468   2.225   6.671 -0.1401  0.3467 -2.0412
  732MOL0     H98802  -0.203   2.620   6.489 -0.1595 -0.6300  0.3054
  732MOL0     H98803  -0.050   2.812   6.572  2.2230 -0.3815  0.3140
  732MOL0     H98804   1.102   1.839   7.368  0.1701 -0.0965 -3.6353
  732MOL0     H98805   0.975   1.751   7.176  1.6596 -0.8424  1.9959
  732MOL0     H98806   0.876   1.678   6.780 -0.0247  0.8674  1.2814
  732MOL0     H98807   0.756   1.583   6.577 -1.3809  3.7970 -2.5518
  732MOL0     H98808   0.629   1.415   6.457 -1.0357 -0.5603  2.5172
  732MOL0     H98809   0.584   1.573   6.382 -0.5937 -2.2403 -4.4683
  732MOL0     H98810   0.354   1.467   6.336 -0.2661 -1.7968 -0.4438
  732MOL0     H98811   0.441   1.319   6.388  0.2723 -0.2777 -0.1870
  732MOL0     H98812   0.599   1.370   6.196 -0.6767 -2.3692  1.5230
  732MOL0     H98813   0.509   1.522   6.166 -3.5167 -0.0052  0.6318
  732MOL0     H98814   0.306   1.347   6.115 -0.5290 -0.8487 -1.4238
  732MOL0     H98815   0.435   1.356   6.003 -1.4570 -0.2735  0.2751
  732MOL0     H98816   0.462   0.971   6.216  1.6277 -0.9874 -1.9585
  732MOL0     H98817   0.390   1.623   6.786 -0.1942 -1.3355 -2.1678
  732MOL0     H98818   0.468   1.666   7.086 -0.8611 -1.3600 -0.2952
  732MOL0     H98819   0.492   1.841   7.027  1.7374 -0.2615  0.1912
  732MOL0     H98820   0.363   1.738   6.970  0.2784 -1.6384 -0.6455
  733MOL0     O98821   6.403  10.373   5.472 -0.2751  0.1410  0.9561
  733MOL0     C98822   6.358  10.474   5.414 -0.6376  1.1581 -0.2903
  733MOL0     O98823   6.390  10.600   5.447 -0.2656  0.5397  0.6872
  733MOL0     C98824   6.502  10.637   5.523  0.7371  0.0203  0.6045
  733MOL0     C98825   6.610  10.566   5.581  0.5114 -0.2912  0.0418
  733MOL0     C98826   6.716  10.623   5.650  0.7194  0.3273  0.5251
  733MOL0     C98827   6.714  10.756   5.675 -0.8097 -0.9656 -0.8560
  733MOL0     O98828   6.809  10.819   5.758  0.2865 -0.3069 -0.2583
  733MOL0     C98829   6.906  10.736   5.827 -0.2162  0.4551  0.1759
  733MOL0     C98830   6.995  10.836   5.890 -0.9768 -0.0798 -0.0434
  733MOL0     C98831   7.105  10.769   5.968 -0.7566 -0.1977 -0.1831
  733MOL0     C98832   7.240  10.850   5.950 -0.0411 -0.6260  0.9441
  733MOL0     C98833   7.353  10.781   6.030 -0.2543  0.2822 -0.0954
  733MOL0     C98834   7.494  10.829   5.992  0.5240 -0.0859  0.1891
  733MOL0     C98835   7.585  10.742   6.084  0.2760 -0.2027 -0.0328
  733MOL0     C98836   7.720  10.815   6.086 -0.2469  0.3289  1.0158
  733MOL0     N98837   7.791  10.806   5.958  0.2945 -0.8567 -0.2090
  733MOL0     C98838   7.861  10.701   5.897  0.5400 -0.0331  0.1870
  733MOL0     C98839   7.928  10.760   5.788  0.4404 -0.0765 -0.5457
  733MOL0     C98840   8.021  10.687   5.704  0.4698 -0.3265  0.4821
  733MOL0     C98841   8.164  10.749   5.695 -0.1841  0.2996 -0.7540
  733MOL0     C98842   8.239  10.760   5.831  0.7155  0.2239  0.4053
  733MOL0     C98843   8.377  10.843   5.814  0.9387 -0.3016 -0.0998
  733MOL0     O98844   8.455  10.768   5.721 -0.6113  0.7642  0.7077
  733MOL0     C98845   8.563  10.827   5.668 -0.9065 -0.0719  0.3504
  733MOL0     C98846   8.593  10.959   5.685 -0.6074 -0.0986  0.2522
  733MOL0     C98847   8.712  11.016   5.647 -1.1487  0.0795 -0.1664
  733MOL0     C98848   8.815  10.935   5.599  0.4710  0.1234  1.4887
  733MOL0     C98849   8.947  10.993   5.563 -0.4014  0.2550  0.5260
  733MOL0     O98850   8.978  11.112   5.622  0.8907  0.2294 -0.1237
  733MOL0     C98851   9.096  11.182   5.600  1.1180  0.0651  0.2178
  733MOL0     C98852   9.115  11.289   5.684  0.4843  0.1054 -0.5860
  733MOL0     C98853   9.228  11.370   5.686  0.5044  0.4536 -0.9094
  733MOL0     C98854   9.332  11.333   5.599  0.2946 -0.5048 -0.0902
  733MOL0     O98855   9.442  11.405   5.574  0.3790 -0.0143 -0.1521
  733MOL0     C98856   9.490  11.503   5.668 -1.0932  0.9492  0.0680
  733MOL0     C98857   9.631  11.563   5.627 -0.2025 -0.1115  1.1293
  733MOL0     C98858   9.662  11.692   5.703 -1.1215 -0.3435 -0.0560
  733MOL0     C98859   9.789  11.755   5.644  0.7003  0.1738 -0.3634
  733MOL0     C98860   9.824  11.883   5.718 -0.1471  0.1999  0.0436
  733MOL0     C98861   9.942  11.958   5.663 -0.0504 -0.5234  0.1217
  733MOL0     C98862   9.956  12.085   5.750 -0.0936  0.0234 -0.0478
  733MOL0     C98863  10.065  12.179   5.696 -0.9693  0.8495 -0.2300
  733MOL0    Cl98864  10.122  12.271   5.836 -0.1557 -0.1686  0.0024
  733MOL0     C98865   9.317  11.222   5.517  0.2963 -1.3230  0.3841
  733MOL0     C98866   9.205  11.151   5.513  0.3851  0.8115 -0.5067
  733MOL0     O98867   9.021  10.931   5.488  0.2713 -0.1860  0.3195
  733MOL0     C98868   8.787  10.796   5.567  0.5065 -0.7886 -0.0064
  733MOL0     C98869   8.654  10.748   5.596  0.0964  0.6861 -0.2310
  733MOL0     N98870   7.873  10.886   5.775 -0.0319 -0.6263  0.5239
  733MOL0     N98871   7.814  10.922   5.882 -0.1721 -0.3707  0.4565
  733MOL0     C98872   6.623  10.834   5.607 -0.3561 -0.5749 -0.0441
  733MOL0     C98873   6.515  10.776   5.542  0.2646 -0.2082  0.8123
  733MOL0     C98874   6.272  10.458   5.300  0.0483  0.5285 -0.1451
  733MOL0     C98875   6.159  10.375   5.317 -0.3615 -0.2248  0.0796
  733MOL0     C98876   6.070  10.365   5.213 -0.5787 -1.0117  0.1956
  733MOL0     C98877   6.073  10.454   5.109 -0.2824  0.6073  1.0952
  733MOL0     O98878   5.970  10.451   5.021 -0.1020  0.7325 -0.3742
  733MOL0     C98879   5.988  10.440   4.878  0.2901  0.2052  1.0480
  733MOL0     C98880   5.881  10.359   4.815  0.4711 -0.3936 -0.2447
  733MOL0     C98881   5.859  10.221   4.870 -0.6561  0.4216  0.6406
  733MOL0     C98882   5.760  10.150   4.789 -0.7209 -0.6243  0.8318
  733MOL0     C98883   5.693  10.034   4.841 -0.4619 -0.0053 -0.3480
  733MOL0     C98884   5.657   9.929   4.896 -0.4413  0.1932 -0.0291
  733MOL0     C98885   6.185  10.535   5.086 -0.7080  0.0283  0.3211
  733MOL0     C98886   6.293  10.535   5.178 -0.6407  0.3516  0.7030
  733MOL0     C98887   6.409  10.624   5.148  0.5403  0.5206 -0.3881
  733MOL0     H98888   6.604  10.459   5.565 -0.8742 -0.0572 -1.1922
  733MOL0     H98889   6.787  10.550   5.686 -1.7194 -1.7122  1.5352
  733MOL0     H98890   6.858  10.675   5.904  0.7839 -2.0812 -1.0878
  733MOL0     H98891   6.962  10.668   5.762  0.6871  1.9587 -0.6668
  733MOL0     H98892   6.949  10.909   5.957  2.7156 -1.2175  4.1720
  733MOL0     H98893   7.039  10.904   5.816 -0.6009  2.7624  2.6188
  733MOL0     H98894   7.111  10.667   5.931  1.2033  0.1440 -0.9596
  733MOL0     H98895   7.081  10.766   6.075  0.8166  1.9628  0.2946
  733MOL0     H98896   7.277  10.836   5.848 -1.0709 -1.1757  0.6375
  733MOL0     H98897   7.244  10.955   5.981  2.7337  0.0161 -1.1729
  733MOL0     H98898   7.317  10.782   6.133 -0.4096  2.2569 -0.1173
  733MOL0     H98899   7.358  10.674   6.008  1.9643  0.8233 -2.8052
  733MOL0     H98900   7.510  10.808   5.886 -1.3142  0.0876 -0.1500
  733MOL0     H98901   7.511  10.935   6.013 -0.6900 -0.1158  1.5567
  733MOL0     H98902   7.592  10.639   6.047 -1.3488 -0.0207 -0.9273
  733MOL0     H98903   7.558  10.729   6.190  1.9079  0.2607  0.4673
  733MOL0     H98904   7.705  10.917   6.123 -0.0396  1.7354 -2.3891
  733MOL0     H98905   7.774  10.760   6.164  2.7488  1.0455 -0.4007
  733MOL0     H98906   7.885  10.602   5.933 -2.0560 -1.0893 -0.7823
  733MOL0     H98907   8.020  10.582   5.735  0.7123 -0.6690 -0.6344
  733MOL0     H98908   7.976  10.693   5.605 -1.1505  2.5304  1.2771
  733MOL0     H98909   8.218  10.682   5.628  2.0761  1.7417 -0.4552
  733MOL0     H98910   8.159  10.847   5.648  3.0197  0.6180 -0.6192
  733MOL0     H98911   8.262  10.657   5.860  2.2254  0.3020 -0.4380
  733MOL0     H98912   8.170  10.809   5.901 -0.3982 -0.0136 -0.4949
  733MOL0     H98913   8.432  10.876   5.902 -3.9629  4.3461  1.8503
  733MOL0     H98914   8.343  10.937   5.768 -1.9017 -1.0650  0.2190
  733MOL0     H98915   8.522  11.024   5.734  0.1178 -0.6357  2.0781
  733MOL0     H98916   8.730  11.119   5.678  0.5572  1.1768 -4.1366
  733MOL0     H98917   9.040  11.319   5.757  0.2439  0.5840 -1.0233
  733MOL0     H98918   9.239  11.440   5.768 -1.6991  1.1152 -1.0872
  733MOL0     H98919   9.426  11.591   5.657 -1.3087  0.9656  1.2922
  733MOL0     H98920   9.481  11.472   5.772  2.8163 -3.7624 -0.6510
  733MOL0     H98921   9.702  11.483   5.649 -0.3853 -1.4934 -2.5708
  733MOL0     H98922   9.632  11.578   5.518 -0.3054 -0.9117  1.0116
  733MOL0     H98923   9.588  11.773   5.699  0.1931  1.4101  4.3034
  733MOL0     H98924   9.690  11.689   5.809  0.7899  3.3828 -0.2994
  733MOL0     H98925   9.768  11.773   5.538  1.3844 -1.8470 -0.8796
  733MOL0     H98926   9.877  11.691   5.652  0.3751 -0.1217  1.1993
  733MOL0     H98927   9.844  11.857   5.822 -0.3651 -1.7929 -0.3688
  733MOL0     H98928   9.739  11.952   5.713  0.1480  0.6471  0.8916
  733MOL0     H98929  10.035  11.902   5.648 -0.8247 -1.5472 -1.1356
  733MOL0     H98930   9.909  12.000   5.567 -1.0367 -0.0142  0.6745
  733MOL0     H98931   9.985  12.051   5.849 -1.9926 -0.3802  0.4089
  733MOL0     H98932   9.864  12.144   5.761 -0.9490 -0.3272 -3.8265
  733MOL0     H98933  10.150  12.130   5.646 -2.0056 -0.6234 -0.6272
  733MOL0     H98934  10.024  12.252   5.625  2.3323 -0.1904 -3.5381
  733MOL0     H98935   9.400  11.190   5.455  0.8490  0.0111  0.3965
  733MOL0     H98936   9.199  11.064   5.449 -0.6241 -2.1040  3.1871
  733MOL0     H98937   8.870  10.737   5.530 -0.8766 -1.7849 -1.6245
  733MOL0     H98938   8.636  10.642   5.579  0.1455 -0.1591  3.9592
  733MOL0     H98939   6.624  10.941   5.627  1.5168 -0.2455 -1.5761
  733MOL0     H98940   6.440  10.829   5.484 -0.0693 -2.9248 -1.3932
  733MOL0     H98941   6.137  10.313   5.404 -0.7947 -2.4089 -1.4955
  733MOL0     H98942   5.979  10.306   5.214 -1.7133  0.6526  0.2213
  733MOL0     H98943   6.083  10.395   4.848  1.8421  4.3910 -1.0437
  733MOL0     H98944   5.988  10.539   4.832 -2.7007  0.2123  0.8278
  733MOL0     H98945   5.911  10.356   4.710  0.2699 -1.1507 -0.2846
  733MOL0     H98946   5.782  10.402   4.828 -0.3181 -2.3030  0.4817
  733MOL0     H98947   5.823  10.229   4.973  0.2211  4.4436  0.8219
  733MOL0     H98948   5.950  10.160   4.866 -1.0739 -0.1721 -2.2094
  733MOL0     H98949   5.687  10.219   4.747  1.2074 -0.4313 -2.5259
  733MOL0     H98950   5.808  10.120   4.696 -0.3305  1.7226  0.2038
  733MOL0     H98951   5.631   9.839   4.949  0.9668 -0.2412 -0.0318
  733MOL0     H98952   6.184  10.598   4.998 -0.0088 -0.5307 -0.0960
  733MOL0     H98953   6.489  10.608   5.222  0.6234 -0.5656 -0.6898
  733MOL0     H98954   6.448  10.601   5.049  2.1929 -1.1896  0.5710
  733MOL0     H98955   6.365  10.723   5.160 -2.3707 -0.3476 -2.6358
  734MOL0     O98956  11.160   7.713   5.325  0.6032  0.1905 -0.7617
  734MOL0     C98957  11.273   7.672   5.331 -0.0204 -0.8007 -0.1982
  734MOL0     O98958  11.325   7.552   5.290  0.6417  0.2710 -0.0269
  734MOL0     C98959  11.233   7.453   5.266  0.1318  0.0616 -0.3765
  734MOL0     C98960  11.142   7.405   5.369  0.4063 -0.3207  0.2834
  734MOL0     C98961  11.037   7.311   5.343  0.3363 -0.7136  0.1405
  734MOL0     C98962  11.033   7.254   5.209  0.3960  0.5488 -0.5395
  734MOL0     O98963  10.951   7.142   5.185  0.9079 -0.2763 -0.5797
  734MOL0     C98964  11.001   7.027   5.125  0.0466  0.0990  0.4939
  734MOL0     C98965  10.964   6.912   5.214  0.0144  0.3299 -0.5139
  734MOL0     C98966  11.055   6.780   5.196 -0.8132 -0.5631  0.2836
  734MOL0     C98967  11.078   6.723   5.053 -0.6968 -0.0203  0.8284
  734MOL0     C98968  11.206   6.625   5.058 -0.5677 -0.4516  0.1932
  734MOL0     C98969  11.230   6.550   4.922 -0.5555 -0.1378  0.2181
  734MOL0     C98970  11.265   6.403   4.943  0.8145  0.9266  0.2989
  734MOL0     C98971  11.287   6.336   4.803  0.1808  0.1908 -0.1996
  734MOL0     N98972  11.406   6.394   4.730 -0.0893 -0.0395  0.6674
  734MOL0     C98973  11.536   6.359   4.743  0.6284 -0.1991 -0.5325
  734MOL0     C98974  11.612   6.413   4.643  0.3659 -0.2036  1.2867
  734MOL0     C98975  11.759   6.419   4.623 -0.2608 -0.0052 -0.7898
  734MOL0     C98976  11.830   6.551   4.666 -0.6685 -0.3508  1.3048
  734MOL0     C98977  11.967   6.522   4.731 -0.5225  0.7916  0.0151
  734MOL0     C98978  12.065   6.634   4.720  0.4933  0.1649 -0.0259
  734MOL0     O98979  12.184   6.628   4.792 -0.4995  0.3378 -0.5628
  734MOL0     C98980  12.173   6.629   4.925 -0.0521 -0.3974 -0.8089
  734MOL0     C98981  12.214   6.528   5.012 -0.3117  0.3281  0.0433
  734MOL0     C98982  12.215   6.552   5.147 -0.5762  0.5705  0.4666
  734MOL0     C98983  12.148   6.660   5.200  0.3284 -0.0915  0.9364
  734MOL0     C98984  12.116   6.668   5.347 -0.1926  0.9808 -0.5798
  734MOL0     O98985  12.044   6.773   5.382 -0.0278  0.1214 -0.3342
  734MOL0     C98986  12.027   6.818   5.518  0.1738  0.2459  1.1581
  734MOL0     C98987  12.132   6.861   5.596 -0.3027  0.1990  0.1619
  734MOL0     C98988  12.109   6.893   5.732  0.0169 -0.0472 -0.6008
  734MOL0     C98989  11.982   6.908   5.794 -0.7436 -0.5273  0.8304
  734MOL0     O98990  11.975   6.956   5.926  0.5065  0.5186  0.0915
  734MOL0     C98991  11.847   6.988   5.972 -0.1911  0.3114 -0.1060
  734MOL0     C98992  11.860   7.019   6.123 -1.1835 -0.6061 -0.7560
  734MOL0     C98993  11.910   6.898   6.192  0.3572 -0.1516  0.0685
  734MOL0     C98994  11.973   6.933   6.332 -0.0593  1.3796  0.5579
  734MOL0     C98995  12.013   6.810   6.412  0.2408  0.2583  0.7184
  734MOL0     C98996  12.030   6.847   6.559  0.3058  0.3869 -0.0477
  734MOL0     C98997  12.103   6.735   6.631 -0.7798 -0.5789 -0.0075
  734MOL0     C98998  12.081   6.764   6.779 -0.3126  0.4928 -0.5325
  734MOL0    Cl98999  12.139   6.932   6.829 -0.6763 -0.0954 -0.1926
  734MOL0     C99000  11.881   6.865   5.709  0.0228  0.1671  0.1326
  734MOL0     C99001  11.901   6.824   5.577  0.2745 -0.2567  0.6209
  734MOL0     O99002  12.133   6.566   5.424 -0.0915 -0.2686 -0.1242
  734MOL0     C99003  12.130   6.772   5.124 -0.3236  0.3909  0.7887
  734MOL0     C99004  12.148   6.753   4.984  0.7904 -0.2980 -0.3217
  734MOL0     N99005  11.514   6.471   4.562 -0.3728 -0.0351  0.3220
  734MOL0     N99006  11.398   6.461   4.610  0.0014  0.4339 -0.2003
  734MOL0     C99007  11.110   7.315   5.113 -0.7713 -0.0179 -0.8375
  734MOL0     C99008  11.210   7.416   5.136  0.1315  0.2462 -0.1519
  734MOL0     C99009  11.375   7.787   5.368 -0.7443 -0.0681  0.7423
  734MOL0     C99010  11.510   7.757   5.344  0.1155 -0.1670  0.1770
  734MOL0     C99011  11.622   7.837   5.367  0.1960 -0.1713 -0.6416
  734MOL0     C99012  11.596   7.966   5.398  0.8042 -0.4153 -1.1670
  734MOL0     O99013  11.693   8.061   5.409 -0.7580 -1.0921  0.7934
  734MOL0     C99014  11.791   8.071   5.309 -0.2055 -0.5963  0.1341
  734MOL0     C99015  11.867   8.204   5.345 -0.7364 -0.0477  0.4765
  734MOL0     C99016  11.765   8.323   5.357 -0.5379  0.3040  0.3504
  734MOL0     C99017  11.818   8.454   5.296  0.8299 -0.4266  0.4456
  734MOL0     C99018  11.944   8.492   5.361 -0.4824  0.5929 -0.1080
  734MOL0     C99019  12.058   8.512   5.402  0.1005  0.1058 -0.3950
  734MOL0     C99020  11.468   8.007   5.430 -0.4669  0.0449 -0.0842
  734MOL0     C99021  11.362   7.918   5.422 -0.1640  0.1200 -0.3819
  734MOL0     C99022  11.234   7.982   5.457  0.0573 -0.5326 -0.8968
  734MOL0     H99023  11.149   7.444   5.470  0.9298  1.6192 -0.4494
  734MOL0     H99024  10.973   7.267   5.418 -1.9841  1.2643 -0.5331
  734MOL0     H99025  10.953   7.016   5.027  2.4111  4.5227 -1.4696
  734MOL0     H99026  11.108   7.043   5.107  0.3054 -2.4220 -0.5483
  734MOL0     H99027  10.857   6.892   5.208  0.4250 -2.0594 -0.8023
  734MOL0     H99028  10.976   6.933   5.321 -1.6063 -1.3498  0.0495
  734MOL0     H99029  11.019   6.706   5.267  0.3334 -2.1831 -0.7547
  734MOL0     H99030  11.155   6.810   5.232 -1.0868 -0.8526  1.3331
  734MOL0     H99031  10.995   6.657   5.028  0.9470 -2.9782  2.6552
  734MOL0     H99032  11.102   6.797   4.976  0.5897 -2.0200 -0.7888
  734MOL0     H99033  11.297   6.680   5.084 -1.5427  1.6152 -0.5601
  734MOL0     H99034  11.190   6.551   5.136 -3.5387  0.8330  0.9361
  734MOL0     H99035  11.133   6.548   4.872  0.5236 -1.4165 -2.0124
  734MOL0     H99036  11.302   6.603   4.857 -0.6382  0.1990  0.4007
  734MOL0     H99037  11.196   6.345   5.006  4.3589 -1.9374  1.9619
  734MOL0     H99038  11.362   6.409   4.994  1.6095  0.4741 -1.1200
  734MOL0     H99039  11.309   6.229   4.811  2.3329  0.6484  1.0360
  734MOL0     H99040  11.198   6.353   4.743  1.1836  0.9077 -1.5264
  734MOL0     H99041  11.574   6.309   4.832  0.7968  0.9525  0.0758
  734MOL0     H99042  11.814   6.334   4.664  3.9334  3.0060  0.5365
  734MOL0     H99043  11.759   6.414   4.514  0.2439 -1.6768 -0.7265
  734MOL0     H99044  11.837   6.609   4.573  1.0108 -0.1925  1.4991
  734MOL0     H99045  11.769   6.612   4.734 -0.7598  2.4321 -1.0462
  734MOL0     H99046  12.016   6.439   4.678  2.8701  2.1745  0.6954
  734MOL0     H99047  11.936   6.486   4.830  0.5470  1.4187  0.5974
  734MOL0     H99048  12.011   6.724   4.749  0.3167  0.8394 -2.2703
  734MOL0     H99049  12.097   6.644   4.616  2.1352  0.0359  0.4321
  734MOL0     H99050  12.254   6.436   4.971  0.4864 -0.0736  1.6157
  734MOL0     H99051  12.235   6.473   5.219 -0.7192 -0.2016 -0.3193
  734MOL0     H99052  12.229   6.842   5.550 -0.0228 -2.4202  1.6535
  734MOL0     H99053  12.207   6.921   5.770  0.0496  3.0954 -2.6478
  734MOL0     H99054  11.811   7.073   5.912 -1.2787  0.7971  1.1785
  734MOL0     H99055  11.771   6.913   5.949 -0.3951 -0.9058  3.8541
  734MOL0     H99056  11.931   7.101   6.135 -3.1888  1.4699 -2.1754
  734MOL0     H99057  11.767   7.049   6.172  0.9608  0.9669  2.8055
  734MOL0     H99058  11.834   6.820   6.202 -1.1447  1.3709  1.1610
  734MOL0     H99059  11.984   6.842   6.133  0.9049 -0.5581  1.1079
  734MOL0     H99060  11.888   6.978   6.383 -0.0453  0.1833  1.7013
  734MOL0     H99061  12.047   7.012   6.317 -0.0941  0.8429 -3.2798
  734MOL0     H99062  12.111   6.775   6.378  0.0143 -0.1788  0.5088
  734MOL0     H99063  11.936   6.732   6.411  1.4559 -0.9818  0.4311
  734MOL0     H99064  12.099   6.931   6.550  0.5785  0.1357 -0.3037
  734MOL0     H99065  11.931   6.870   6.598 -0.2693 -0.5870 -0.8721
  734MOL0     H99066  12.209   6.740   6.604 -0.8938 -0.6123 -0.4555
  734MOL0     H99067  12.060   6.637   6.612  0.4035 -1.4115  1.3816
  734MOL0     H99068  11.978   6.746   6.812  0.2275  0.3093  1.0991
  734MOL0     H99069  12.150   6.705   6.839 -1.1512  0.4491  0.4218
  734MOL0     H99070  11.782   6.882   5.749 -2.4683 -1.7210 -4.4471
  734MOL0     H99071  11.820   6.819   5.506  0.9235 -1.1490 -0.0734
  734MOL0     H99072  12.117   6.871   5.165  4.2987  1.9367 -0.7836
  734MOL0     H99073  12.137   6.832   4.910  1.7650 -0.5950 -0.8001
  734MOL0     H99074  11.101   7.271   5.014 -1.9977 -1.4477 -0.1497
  734MOL0     H99075  11.257   7.454   5.046 -1.0426 -0.1203 -0.9307
  734MOL0     H99076  11.539   7.666   5.292  0.8514 -1.1981  2.2996
  734MOL0     H99077  11.723   7.801   5.348  0.2490 -0.1592 -0.3907
  734MOL0     H99078  11.749   8.064   5.209 -0.3446  0.6071  0.0916
  734MOL0     H99079  11.859   7.986   5.321 -2.8194 -2.6795  1.3875
  734MOL0     H99080  11.943   8.217   5.268  2.1082  0.2654  3.1391
  734MOL0     H99081  11.918   8.193   5.442 -0.4391 -0.4945  0.2748
  734MOL0     H99082  11.738   8.331   5.463  0.9056 -1.5493  0.9150
  734MOL0     H99083  11.684   8.305   5.286 -1.3140  0.6275  1.1319
  734MOL0     H99084  11.837   8.438   5.189 -2.3734 -3.9408  0.1536
  734MOL0     H99085  11.742   8.530   5.315 -1.5227 -2.6933  0.7121
  734MOL0     H99086  12.158   8.542   5.427  0.1615  0.7969 -1.4138
  734MOL0     H99087  11.459   8.111   5.459  2.8155  0.6668 -0.8407
  734MOL0     H99088  11.145   7.928   5.421 -3.1291 -0.6251  5.6106
  734MOL0     H99089  11.223   7.977   5.566 -2.3121 -4.2988 -1.1210
  734MOL0     H99090  11.227   8.088   5.433 -2.5144 -0.6679 -1.0033
  735MOL0     O99091  10.836   9.097   2.263  0.5040  0.0885  0.0048
  735MOL0     C99092  10.771   9.072   2.166  0.2143 -0.4245  0.5213
  735MOL0     O99093  10.758   9.151   2.053 -0.5726  0.6152  0.2361
  735MOL0     C99094  10.820   9.271   2.050 -0.3415  0.6994 -0.2090
  735MOL0     C99095  10.793   9.368   2.152 -0.9170 -0.8575 -0.0971
  735MOL0     C99096  10.843   9.501   2.138  0.5941  0.6912  0.2934
  735MOL0     C99097  10.901   9.534   2.012 -0.2898  0.8653 -0.5803
  735MOL0     O99098  10.947   9.657   1.995  0.6135 -0.1833  0.1296
  735MOL0     C99099  11.025   9.687   1.883 -0.3248  0.4071  0.2317
  735MOL0     C99100  11.072   9.826   1.900  0.0542  0.8260  0.0780
  735MOL0     C99101  10.950   9.926   1.904  0.3247 -0.0181 -0.1644
  735MOL0     C99102  10.988  10.065   1.946 -0.3441  0.4148 -0.8674
  735MOL0     C99103  10.871  10.158   1.941  1.1190  0.8607  0.1040
  735MOL0     C99104  10.798  10.181   1.803  0.0787  0.1651  0.3802
  735MOL0     C99105  10.728  10.313   1.792  0.5583  0.4566 -0.2044
  735MOL0     C99106  10.824  10.431   1.786  0.3384 -0.1845  0.9956
  735MOL0     N99107  10.790  10.553   1.868  0.2601  0.0160 -0.5392
  735MOL0     C99108  10.837  10.588   2.004 -0.0266  0.7752 -0.0836
  735MOL0     C99109  10.786  10.711   2.019  0.8353 -0.3877  0.1769
  735MOL0     C99110  10.815  10.800   2.135 -0.6281  0.9494 -1.4638
  735MOL0     C99111  10.713  10.768   2.236 -0.5075  0.2464 -0.7641
  735MOL0     C99112  10.728  10.864   2.363 -0.7720  0.4193  0.7696
  735MOL0     C99113  10.874  10.868   2.421  0.3263  0.3895  0.0262
  735MOL0     O99114  10.911  10.734   2.468 -0.9829 -0.8740 -0.2519
  735MOL0     C99115  10.857  10.691   2.586 -0.0313  0.1414 -0.4005
  735MOL0     C99116  10.896  10.569   2.629  0.1504  0.6334 -1.1708
  735MOL0     C99117  10.829  10.516   2.738 -0.0956 -0.2290 -0.5087
  735MOL0     C99118  10.730  10.573   2.819 -0.1598 -0.4136 -0.0164
  735MOL0     C99119  10.678  10.502   2.936 -0.3357 -0.5808  0.0490
  735MOL0     O99120  10.714  10.374   2.934 -0.6385  0.1956 -0.2263
  735MOL0     C99121  10.672  10.287   3.028  0.9952  0.6702  0.2397
  735MOL0     C99122  10.763  10.196   3.082 -0.8373 -0.4692  0.0522
  735MOL0     C99123  10.729  10.100   3.177  0.0124  0.9202 -0.6590
  735MOL0     C99124  10.596  10.101   3.228  0.0902  0.6820  0.2232
  735MOL0     O99125  10.542  10.002   3.315 -0.7782  0.8750  0.3625
  735MOL0     C99126  10.437   9.924   3.259  0.7037  0.2648  0.1620
  735MOL0     C99127  10.425   9.781   3.323  0.3880 -0.0398  0.0684
  735MOL0     C99128  10.555   9.720   3.359 -0.2261  0.6657 -0.2185
  735MOL0     C99129  10.642   9.693   3.233  0.3112 -0.5013  0.4575
  735MOL0     C99130  10.772   9.624   3.274  0.3683 -0.3536  0.4120
  735MOL0     C99131  10.873   9.624   3.164 -0.9544 -0.4339 -0.2833
  735MOL0     C99132  10.906   9.749   3.100  0.4514 -0.8072 -0.4669
  735MOL0     C99133  11.016   9.753   3.004 -0.2895  0.0622  0.0404
  735MOL0    Cl99134  11.010   9.598   2.897  0.3839 -0.2546 -0.5129
  735MOL0     C99135  10.505  10.195   3.172 -0.6960  0.9581  0.2702
  735MOL0     C99136  10.535  10.270   3.062  0.2866  0.5884  0.0083
  735MOL0     O99137  10.583  10.549   2.996 -0.0038 -0.1719  0.5937
  735MOL0     C99138  10.700  10.704   2.777 -0.1296 -0.6600  0.6825
  735MOL0     C99139  10.764  10.769   2.670 -0.3666  0.5003 -0.3616
  735MOL0     N99140  10.704  10.737   1.909  0.7433  0.6713 -0.5368
  735MOL0     N99141  10.701  10.647   1.826  0.7289  0.0185  0.4590
  735MOL0     C99142  10.913   9.435   1.907  0.7439  1.1472  0.5946
  735MOL0     C99143  10.863   9.303   1.927 -0.5748  0.1334 -0.1520
  735MOL0     C99144  10.698   8.945   2.165  0.0774  0.3932  0.2217
  735MOL0     C99145  10.569   8.956   2.122  0.3731  0.9572 -0.0189
  735MOL0     C99146  10.479   8.848   2.124 -0.1697  0.5893  0.1127
  735MOL0     C99147  10.521   8.721   2.166  0.0149  0.0702  0.7653
  735MOL0     O99148  10.435   8.624   2.137  0.4309 -1.0726 -0.9345
  735MOL0     C99149  10.442   8.495   2.191 -0.1482 -0.1981  0.4779
  735MOL0     C99150  10.507   8.405   2.082  0.0825  0.1926  0.3613
  735MOL0     C99151  10.656   8.366   2.114 -0.2762 -0.4233 -0.0847
  735MOL0     C99152  10.700   8.262   2.014  0.0356  0.1414 -0.1237
  735MOL0     C99153  10.723   8.328   1.885  0.3606 -0.3373  0.2259
  735MOL0     C99154  10.756   8.372   1.782  0.5802  0.6527  0.3890
  735MOL0     C99155  10.650   8.711   2.211  0.0115  0.1664 -0.7474
  735MOL0     C99156  10.745   8.816   2.205  0.2522  0.6968 -0.1661
  735MOL0     C99157  10.888   8.787   2.229  0.2905 -0.1514 -0.2115
  735MOL0     H99158  10.725   9.352   2.235 -1.2214 -2.4171 -0.6056
  735MOL0     H99159  10.842   9.583   2.209  1.2123  0.6083  0.4008
  735MOL0     H99160  11.110   9.619   1.870 -0.7535  0.0750 -0.9318
  735MOL0     H99161  10.966   9.679   1.791 -0.3065 -0.8899  0.3228
  735MOL0     H99162  11.131   9.854   1.812  2.7331 -0.5622  1.3270
  735MOL0     H99163  11.134   9.836   1.989  1.6499 -1.8527 -0.6231
  735MOL0     H99164  10.872   9.898   1.975 -1.1142 -1.9026 -2.3677
  735MOL0     H99165  10.896   9.928   1.809 -3.4439 -1.7312  1.7237
  735MOL0     H99166  11.035  10.069   2.044 -0.1049  2.3209 -1.0362
  735MOL0     H99167  11.066  10.093   1.876  2.5976 -1.6449  1.3367
  735MOL0     H99168  10.793  10.128   2.012  1.9674 -3.1011 -0.3810
  735MOL0     H99169  10.899  10.259   1.972  0.9806  1.2453 -0.9999
  735MOL0     H99170  10.869  10.170   1.721  1.1704 -2.1292  1.5283
  735MOL0     H99171  10.731  10.095   1.789  2.4555 -1.8210  0.3624
  735MOL0     H99172  10.662  10.321   1.879  0.4300  0.8795 -0.3362
  735MOL0     H99173  10.662  10.303   1.705  0.8707  4.0022 -1.0329
  735MOL0     H99174  10.927  10.400   1.803  0.4960 -0.3857 -0.2078
  735MOL0     H99175  10.837  10.465   1.682  0.8315 -2.1813  0.3659
  735MOL0     H99176  10.914  10.537   2.060 -0.4632  0.3810  0.1689
  735MOL0     H99177  10.912  10.787   2.184  0.1135 -0.7359 -3.2763
  735MOL0     H99178  10.808  10.905   2.105 -0.7156  1.5745  0.5819
  735MOL0     H99179  10.613  10.769   2.191 -0.4025 -2.0803 -1.1669
  735MOL0     H99180  10.732  10.665   2.267  1.9866  0.7094 -0.6202
  735MOL0     H99181  10.658  10.827   2.438  0.0511 -0.2093  1.2375
  735MOL0     H99182  10.705  10.965   2.326 -0.2192  0.1312 -0.4125
  735MOL0     H99183  10.882  10.934   2.508  3.5370 -1.9870  1.7303
  735MOL0     H99184  10.951  10.906   2.353  0.7902  0.1308  0.4023
  735MOL0     H99185  10.976  10.518   2.576  1.0277 -0.8162  1.3377
  735MOL0     H99186  10.848  10.412   2.762 -1.8177 -0.4800 -0.0786
  735MOL0     H99187  10.869  10.202   3.057 -1.1577  1.6539 -1.0475
  735MOL0     H99188  10.795  10.018   3.202 -1.3616 -1.1006 -3.0841
  735MOL0     H99189  10.353   9.992   3.276  2.6323  2.4145  1.8249
  735MOL0     H99190  10.461   9.913   3.153 -0.3089 -2.2774  0.1386
  735MOL0     H99191  10.362   9.779   3.412 -2.1733  2.0264 -1.5802
  735MOL0     H99192  10.372   9.709   3.261 -4.5411  1.3580  2.2053
  735MOL0     H99193  10.611   9.781   3.430  1.2506 -0.5153 -0.3272
  735MOL0     H99194  10.536   9.619   3.395 -0.0696 -0.4618 -3.0175
  735MOL0     H99195  10.669   9.785   3.181  1.7361 -0.6314  0.9202
  735MOL0     H99196  10.594   9.631   3.157 -1.9506  1.4325  0.1892
  735MOL0     H99197  10.759   9.522   3.311 -1.1164  0.5870  2.6865
  735MOL0     H99198  10.826   9.661   3.361  1.5165  0.1732 -0.4914
  735MOL0     H99199  10.968   9.595   3.209  0.4798  1.5870 -1.8228
  735MOL0     H99200  10.853   9.542   3.095  1.3109 -2.0407  0.8539
  735MOL0     H99201  10.940   9.815   3.181  3.5022 -2.4768 -0.2207
  735MOL0     H99202  10.818   9.790   3.049 -1.1035 -1.5748  1.4802
  735MOL0     H99203  11.013   9.839   2.936  1.6221  0.0541 -0.1020
  735MOL0     H99204  11.112   9.755   3.058  0.0778  0.6993 -0.6161
  735MOL0     H99205  10.404  10.191   3.213 -1.8523  2.9459 -2.0610
  735MOL0     H99206  10.456  10.321   3.007 -1.3435 -1.3908  0.3733
  735MOL0     H99207  10.630  10.755   2.843  0.7592 -0.2622  1.3408
  735MOL0     H99208  10.744  10.870   2.635 -1.0738  0.4909  0.0146
  735MOL0     H99209  10.957   9.442   1.808  3.2164 -3.7234  1.0347
  735MOL0     H99210  10.872   9.237   1.841  2.5114  2.0590 -1.4952
  735MOL0     H99211  10.534   9.048   2.077  2.7058  1.9984  0.1380
  735MOL0     H99212  10.375   8.861   2.096 -0.2933  0.1308  0.3485
  735MOL0     H99213  10.345   8.457   2.221 -0.0238  0.5622  1.9823
  735MOL0     H99214  10.499   8.495   2.285  2.6282 -2.1657 -1.0692
  735MOL0     H99215  10.494   8.457   1.987 -2.2333  0.2901  0.6615
  735MOL0     H99216  10.442   8.317   2.070  0.1672  0.1327  0.3354
  735MOL0     H99217  10.667   8.316   2.211 -3.3682  0.8910  1.0685
  735MOL0     H99218  10.727   8.449   2.118 -0.0558 -0.2945 -3.6623
  735MOL0     H99219  10.794   8.220   2.051  0.9163  0.7350 -1.5997
  735MOL0     H99220  10.635   8.174   2.011  1.2101 -0.7440 -0.4622
  735MOL0     H99221  10.792   8.391   1.683 -1.8863  0.0442 -0.6850
  735MOL0     H99222  10.677   8.610   2.240 -5.7896 -2.1567 -2.0384
  735MOL0     H99223  10.909   8.801   2.335  3.6994 -1.4484 -0.5967
  735MOL0     H99224  10.917   8.684   2.210 -1.8141 -1.0758  1.2295
  735MOL0     H99225  10.950   8.863   2.180  0.6659 -0.3193  0.0009
  736MOL0     O99226  10.064   1.193  10.834  0.2246  0.2682 -0.2759
  736MOL0     C99227  10.168   1.189  10.896 -0.5108 -0.8110 -0.3079
  736MOL0     O99228  10.222   1.082  10.954  0.3465 -0.1770  0.3799
  736MOL0     C99229  10.167   0.957  10.952  0.1406 -0.4786  1.1267
  736MOL0     C99230  10.031   0.954  10.984 -0.4744 -0.3213 -0.3263
  736MOL0     C99231   9.976   0.823  10.996  0.5732 -0.3440  0.8128
  736MOL0     C99232  10.055   0.712  10.969 -0.3547  0.1487 -0.4200
  736MOL0     O99233  10.002   0.584  10.959  0.8164 -0.1041  0.4483
  736MOL0     C99234   9.860   0.575  10.956  0.7076  0.4780 -0.6292
  736MOL0     C99235   9.810   0.436  10.952  0.0485  0.0584  0.5631
  736MOL0     C99236   9.868   0.352  11.061  0.0505  0.3781 -0.3281
  736MOL0     C99237   9.799   0.387  11.192 -0.1198  0.2683 -0.6204
  736MOL0     C99238   9.772   0.267  11.284  0.2201 -0.7156 -0.2332
  736MOL0     C99239   9.758   0.292  11.434 -0.1593 -0.8897 -0.4926
  736MOL0     C99240   9.703   0.172  11.516  0.7040  0.1203  0.5009
  736MOL0     C99241   9.568   0.131  11.454  0.5484  0.1602 -0.2262
  736MOL0     N99242   9.491   0.056  11.555 -0.1177  0.2623  0.5120
  736MOL0     C99243   9.505  -0.071  11.603 -0.6020  0.1616 -0.6105
  736MOL0     C99244   9.388  -0.100  11.661  0.4662  0.3489  0.8967
  736MOL0     C99245   9.352  -0.237  11.715 -0.2771  0.1602  0.1923
  736MOL0     C99246   9.252  -0.300  11.620 -0.1248  0.7214 -0.8574
  736MOL0     C99247   9.322  -0.356  11.494  1.0635 -0.8762 -0.4536
  736MOL0     C99248   9.237  -0.460  11.433 -0.5584  1.2075  0.0864
  736MOL0     O99249   9.325  -0.566  11.400  0.1384  0.1917 -0.4442
  736MOL0     C99250   9.289  -0.660  11.308 -0.6619 -0.0242 -0.0470
  736MOL0     C99251   9.161  -0.689  11.267  0.3738 -0.5538 -0.5953
  736MOL0     C99252   9.135  -0.788  11.177  0.0375  0.4885  1.5279
  736MOL0     C99253   9.240  -0.862  11.111  0.3173 -0.7760  0.1599
  736MOL0     C99254   9.196  -0.969  11.017 -0.6574  0.0210 -0.0567
  736MOL0     O99255   9.293  -1.058  10.973 -0.5101 -0.2469 -0.5298
  736MOL0     C99256   9.262  -1.141  10.861 -0.6339  0.8754  0.3180
  736MOL0     C99257   9.356  -1.139  10.749  0.7610 -0.6767 -0.2131
  736MOL0     C99258   9.318  -1.192  10.631  0.6391  1.1086  0.4185
  736MOL0     C99259   9.198  -1.265  10.607  0.0492 -0.9720 -1.1523
  736MOL0     O99260   9.178  -1.299  10.479  0.3126  0.0263  0.0214
  736MOL0     C99261   9.061  -1.387  10.457 -0.3749 -0.2334  0.1433
  736MOL0     C99262   9.079  -1.466  10.331  0.5584 -0.0270 -0.3108
  736MOL0     C99263   9.121  -1.378  10.208  0.9807 -0.1346  0.5342
  736MOL0     C99264   9.177  -1.459  10.094  1.3817 -0.0698  0.3032
  736MOL0     C99265   9.068  -1.497  10.004 -0.4698 -0.0271  0.0773
  736MOL0     C99266   9.126  -1.566   9.881 -0.3061 -0.4711  0.0193
  736MOL0     C99267   9.212  -1.693   9.902 -0.2981  0.6886 -0.1428
  736MOL0     C99268   9.140  -1.825   9.926  0.4581 -0.2270  0.4362
  736MOL0    Cl99269   9.090  -1.852  10.096  0.4188 -0.0624  0.0693
  736MOL0     C99270   9.114  -1.270  10.725  0.5690 -0.5805 -0.6405
  736MOL0     C99271   9.153  -1.209  10.843 -0.1163  0.4889 -0.1742
  736MOL0     O99272   9.086  -0.969  10.977  0.8489  0.6888 -0.4325
  736MOL0     C99273   9.373  -0.834  11.153 -0.2650  0.4230 -0.2611
  736MOL0     C99274   9.393  -0.734  11.252  0.4292  0.8365  0.3755
  736MOL0     N99275   9.314   0.019  11.678 -0.9229 -0.3941  0.3227
  736MOL0     N99276   9.384   0.111  11.631 -0.9206  0.3217  0.5301
  736MOL0     C99277  10.193   0.726  10.948  0.5213  0.9605 -0.5522
  736MOL0     C99278  10.248   0.854  10.934 -0.3356  0.8806 -0.1576
  736MOL0     C99279  10.253   1.316  10.895  0.4172 -0.2516  0.4771
  736MOL0     C99280  10.185   1.442  10.887  0.4675  0.4053  0.2365
  736MOL0     C99281  10.257   1.562  10.892 -0.1442 -0.2500  0.5427
  736MOL0     C99282  10.391   1.568  10.902 -0.2684 -0.1280 -0.8077
  736MOL0     O99283  10.469   1.680  10.917 -0.1348 -0.0475 -0.1989
  736MOL0     C99284  10.397   1.810  10.950 -0.4426 -0.4864  0.4479
  736MOL0     C99285  10.515   1.897  10.992 -0.0256  0.3224 -1.2510
  736MOL0     C99286  10.579   1.837  11.120 -0.3552  0.2080 -0.5575
  736MOL0     C99287  10.715   1.901  11.144 -0.0493 -0.3261 -0.7801
  736MOL0     C99288  10.672   2.039  11.187  0.0411 -0.1545  0.2841
  736MOL0     C99289  10.612   2.144  11.214  0.2857 -0.0600 -0.9359
  736MOL0     C99290  10.449   1.441  10.915  0.5171 -1.4874  0.4441
  736MOL0     C99291  10.391   1.314  10.904 -0.3157 -0.3179  0.0636
  736MOL0     C99292  10.494   1.202  10.898 -0.2750 -0.5105 -0.1726
  736MOL0     H99293   9.968   1.042  10.983 -0.0597 -0.0075  0.5733
  736MOL0     H99294   9.868   0.822  11.011  0.3975  0.1378 -0.3564
  736MOL0     H99295   9.814   0.610  11.049 -0.8892  0.6295 -1.4476
  736MOL0     H99296   9.810   0.637  10.881 -2.1455 -1.6307 -0.6509
  736MOL0     H99297   9.842   0.391  10.858  2.0111  1.8031  0.3265
  736MOL0     H99298   9.700   0.437  10.951  0.0392  1.4651 -0.9057
  736MOL0     H99299   9.976   0.361  11.080  0.0559 -1.5437  0.8812
  736MOL0     H99300   9.853   0.246  11.038 -0.6593 -0.7081  4.1381
  736MOL0     H99301   9.862   0.452  11.254  0.0195 -0.8018  0.4038
  736MOL0     H99302   9.700   0.431  11.177 -1.2489 -1.8281  0.2021
  736MOL0     H99303   9.674   0.238  11.245  1.0169 -1.2143 -1.9607
  736MOL0     H99304   9.847   0.189  11.267  1.9160  0.2457  2.2183
  736MOL0     H99305   9.853   0.315  11.485 -2.1328  2.4816  2.0814
  736MOL0     H99306   9.691   0.376  11.452  2.7638  1.2082  1.5129
  736MOL0     H99307   9.689   0.215  11.616 -1.7931 -0.5339  0.4924
  736MOL0     H99308   9.779   0.095  11.531 -0.7024 -1.5600 -0.6335
  736MOL0     H99309   9.504   0.214  11.421  0.2702  0.1641  0.3165
  736MOL0     H99310   9.594   0.068  11.368  0.9421  0.6894 -0.5012
  736MOL0     H99311   9.585  -0.143  11.588 -0.9428 -0.4430  0.3873
  736MOL0     H99312   9.440  -0.302  11.728  0.8694  1.6184  0.0144
  736MOL0     H99313   9.317  -0.218  11.817 -2.3839  3.1551 -0.9677
  736MOL0     H99314   9.209  -0.385  11.673  1.4061  1.5809  1.9286
  736MOL0     H99315   9.171  -0.228  11.605 -1.7835  0.9871  6.0096
  736MOL0     H99316   9.412  -0.410  11.526  0.5666 -0.7809  1.2120
  736MOL0     H99317   9.339  -0.273  11.425 -5.5200 -0.5431 -2.3588
  736MOL0     H99318   9.192  -0.414  11.345 -3.1613 -0.4404  0.4233
  736MOL0     H99319   9.148  -0.498  11.485 -3.0864  3.9570 -1.8910
  736MOL0     H99320   9.076  -0.635  11.305 -1.3458 -2.9532 -0.8387
  736MOL0     H99321   9.032  -0.820  11.165 -0.7528  2.9179  1.4178
  736MOL0     H99322   9.446  -1.079  10.739  1.1109  0.4647  5.7978
  736MOL0     H99323   9.382  -1.167  10.548 -0.7506  0.2457 -0.9652
  736MOL0     H99324   9.049  -1.459  10.539 -0.3941 -0.4441 -0.0413
  736MOL0     H99325   8.979  -1.315  10.460  0.8380  1.1414  3.0571
  736MOL0     H99326   9.153  -1.543  10.357  2.0021  1.2795 -0.4567
  736MOL0     H99327   8.992  -1.529  10.310 -0.1765  1.2608 -1.2415
  736MOL0     H99328   9.041  -1.310  10.180  1.2666  0.2637  0.6770
  736MOL0     H99329   9.209  -1.320  10.239  2.2585 -1.2397 -0.8255
  736MOL0     H99330   9.237  -1.545  10.125  3.6032  0.1443 -2.8748
  736MOL0     H99331   9.249  -1.396  10.041  1.3308  0.6077  1.0209
  736MOL0     H99332   9.021  -1.406   9.965 -2.0143 -0.2562  1.3026
  736MOL0     H99333   8.991  -1.564  10.045 -2.0205  1.6813  0.1009
  736MOL0     H99334   9.049  -1.597   9.810 -0.7416 -3.6244  1.6788
  736MOL0     H99335   9.195  -1.498   9.829 -0.9180  0.5201  0.4573
  736MOL0     H99336   9.288  -1.691   9.980  0.1181 -1.0943 -0.4444
  736MOL0     H99337   9.263  -1.707   9.806  1.0582 -1.0799  0.7741
  736MOL0     H99338   9.055  -1.848   9.861 -0.7817 -1.7859  2.4708
  736MOL0     H99339   9.223  -1.893   9.903  1.6753  1.4465 -0.2957
  736MOL0     H99340   9.024  -1.327  10.708  0.1460  0.4750 -2.1358
  736MOL0     H99341   9.074  -1.217  10.918  1.6265 -2.2857  1.5501
  736MOL0     H99342   9.451  -0.881  11.095  0.1946  1.8060 -0.8094
  736MOL0     H99343   9.495  -0.709  11.280  0.2612 -0.7471  2.6745
  736MOL0     H99344  10.236   0.627  10.948 -2.8393 -0.6502 -1.2985
  736MOL0     H99345  10.351   0.884  10.919 -0.1579  1.3938  1.7363
  736MOL0     H99346  10.078   1.439  10.871  0.4973  0.0650  0.0980
  736MOL0     H99347  10.193   1.649  10.878 -0.8852 -0.6008  1.6761
  736MOL0     H99348  10.325   1.797  11.032  0.6219  3.1896  2.1592
  736MOL0     H99349  10.333   1.854  10.874  0.1849 -1.8264 -0.9260
  736MOL0     H99350  10.476   1.998  11.006 -6.2677 -1.6541 -1.3511
  736MOL0     H99351  10.584   1.900  10.907 -1.3238  2.0517 -2.3113
  736MOL0     H99352  10.589   1.728  11.116 -1.7376  0.0673 -0.4914
  736MOL0     H99353  10.513   1.853  11.205 -0.0700 -0.9720 -0.0864
  736MOL0     H99354  10.774   1.850  11.221  0.8091 -0.5915 -1.5795
  736MOL0     H99355  10.768   1.884  11.049  2.7861 -1.1880  0.8372
  736MOL0     H99356  10.562   2.238  11.220 -0.0011 -0.1501 -1.7889
  736MOL0     H99357  10.557   1.444  10.924  0.6084 -1.0838 -0.6606
  736MOL0     H99358  10.447   1.111  10.860  0.8935  0.3985 -4.3941
  736MOL0     H99359  10.568   1.218  10.818  1.1136  2.2271  1.4960
  736MOL0     H99360  10.556   1.184  10.986  1.4450  1.0495 -0.9811
  737MOL0     O99361  10.709   3.876   3.535 -0.1717  0.4692 -0.6374
  737MOL0     C99362  10.792   3.870   3.431  0.5559  1.0055 -0.4490
  737MOL0     O99363  10.759   3.926   3.311  0.0934  1.4144  0.1681
  737MOL0     C99364  10.630   3.958   3.283  0.0325  0.0628 -0.6769
  737MOL0     C99365  10.558   3.850   3.224 -0.3777  0.8146 -0.0905
  737MOL0     C99366  10.433   3.867   3.172  0.3680 -0.1219  0.8268
  737MOL0     C99367  10.381   4.000   3.175  0.4567  0.2503  0.5302
  737MOL0     O99368  10.256   4.034   3.124  0.0436  0.2941  0.0988
  737MOL0     C99369  10.139   3.963   3.163 -0.2358  0.7239  0.2349
  737MOL0     C99370  10.004   4.004   3.095  0.0919  0.7430 -0.5487
  737MOL0     C99371   9.885   3.907   3.123 -0.1394  0.1923 -0.1422
  737MOL0     C99372   9.830   3.914   3.259 -1.0141 -0.6627  0.3523
  737MOL0     C99373   9.685   3.864   3.269  0.6943  0.8284  0.2983
  737MOL0     C99374   9.633   3.886   3.416 -0.2561 -0.2951 -0.4253
  737MOL0     C99375   9.477   3.875   3.418 -0.2819 -0.7753  0.2062
  737MOL0     C99376   9.416   3.890   3.558  0.0207  0.3259  0.5655
  737MOL0     N99377   9.405   4.021   3.605  0.7997  0.1254 -0.0998
  737MOL0     C99378   9.292   4.101   3.589 -0.5850  0.7765 -1.3419
  737MOL0     C99379   9.333   4.212   3.656  0.2200  0.6167  0.1914
  737MOL0     C99380   9.266   4.340   3.677  0.1760  0.1637  0.0853
  737MOL0     C99381   9.125   4.348   3.621 -0.0192  0.2546 -0.0253
  737MOL0     C99382   9.064   4.487   3.678  0.0166  0.1671  0.5859
  737MOL0     C99383   8.941   4.527   3.608  0.3798  0.3696  0.4346
  737MOL0     O99384   8.969   4.541   3.475 -0.5584  0.1200 -0.3728
  737MOL0     C99385   8.863   4.513   3.395 -0.0523  0.1393 -0.2641
  737MOL0     C99386   8.787   4.612   3.331 -0.6804 -0.2588 -0.4287
  737MOL0     C99387   8.678   4.589   3.248 -0.0766  0.2453  0.6431
  737MOL0     C99388   8.646   4.449   3.227 -0.8843 -0.0814  0.4815
  737MOL0     C99389   8.519   4.421   3.158 -0.0648  0.3657 -0.2059
  737MOL0     O99390   8.491   4.291   3.108 -0.5241 -0.6314 -0.8353
  737MOL0     C99391   8.371   4.281   3.040  0.6223  0.8055 -0.2379
  737MOL0     C99392   8.376   4.213   2.924  0.5759  0.0270  0.1742
  737MOL0     C99393   8.253   4.171   2.854 -0.3641  0.1682 -0.0565
  737MOL0     C99394   8.130   4.205   2.907  0.4417  0.3686  0.2574
  737MOL0     O99395   8.007   4.179   2.844  0.3568 -0.7732 -0.4855
  737MOL0     C99396   7.997   4.254   2.719 -0.3766 -0.1334 -0.1724
  737MOL0     C99397   7.927   4.388   2.733 -0.1596 -0.8050  0.4475
  737MOL0     C99398   8.007   4.497   2.810  0.1808  0.1883  0.2477
  737MOL0     C99399   8.003   4.645   2.752 -0.2851  0.0246 -0.5923
  737MOL0     C99400   8.003   4.758   2.852 -0.0580 -0.2457 -0.7477
  737MOL0     C99401   8.131   4.774   2.937  0.0136 -0.2050 -0.0557
  737MOL0     C99402   8.270   4.766   2.859 -1.0952 -1.0866 -0.7237
  737MOL0     C99403   8.363   4.873   2.913  0.1143 -0.1206  1.1242
  737MOL0    Cl99404   8.391   4.877   3.081 -0.2106  0.3861 -0.2103
  737MOL0     C99405   8.120   4.270   3.034 -0.4649  0.2119  0.1489
  737MOL0     C99406   8.241   4.308   3.100 -0.2694  0.5254  0.2904
  737MOL0     O99407   8.455   4.520   3.131  0.5719 -0.3599 -0.2434
  737MOL0     C99408   8.720   4.346   3.285  0.2299  0.4339  0.0421
  737MOL0     C99409   8.820   4.378   3.377  0.6747 -0.2510 -0.3579
  737MOL0     N99410   9.454   4.191   3.715 -0.3121  0.6336 -0.2293
  737MOL0     N99411   9.501   4.080   3.683  0.4266  0.7128 -0.0602
  737MOL0     C99412  10.457   4.110   3.226  0.2819  0.7919 -0.4570
  737MOL0     C99413  10.576   4.092   3.282 -1.1483  0.6027  0.6792
  737MOL0     C99414  10.926   3.810   3.441 -0.6644  0.4190  1.1444
  737MOL0     C99415  11.025   3.874   3.365 -0.0572 -0.7942 -0.2247
  737MOL0     C99416  11.149   3.813   3.365 -0.2028 -0.6938 -0.3831
  737MOL0     C99417  11.186   3.704   3.440 -1.1207  0.7191 -0.0815
  737MOL0     O99418  11.326   3.675   3.435  0.6566  0.1760  0.0024
  737MOL0     C99419  11.380   3.575   3.523  0.9606 -0.3691 -0.7848
  737MOL0     C99420  11.534   3.562   3.508  0.6049 -0.5282 -0.0765
  737MOL0     C99421  11.581   3.531   3.370  0.2177 -0.3006 -0.0313
  737MOL0     C99422  11.510   3.404   3.321 -0.7021 -0.0886 -0.1423
  737MOL0     C99423  11.564   3.351   3.198 -0.1130  0.7263 -0.2029
  737MOL0     C99424  11.640   3.303   3.113  0.3308  0.3461  0.2130
  737MOL0     C99425  11.091   3.630   3.507 -0.1387 -0.0151  0.2738
  737MOL0     C99426  10.957   3.686   3.517 -0.3760 -0.5659  0.1404
  737MOL0     C99427  10.862   3.617   3.599 -0.2985 -0.1355 -0.5450
  737MOL0     H99428  10.609   3.754   3.217  0.5522  1.4060 -2.1405
  737MOL0     H99429  10.384   3.779   3.133  0.5932 -0.6094  1.6407
  737MOL0     H99430  10.153   3.859   3.132  0.4724  1.0764 -0.6606
  737MOL0     H99431  10.138   3.966   3.273 -0.9718  1.8433  0.2147
  737MOL0     H99432  10.032   4.001   2.990  4.3482  1.2160  0.3864
  737MOL0     H99433   9.985   4.109   3.119 -1.7782  0.3097  0.0046
  737MOL0     H99434   9.925   3.807   3.107  2.2890  0.3928  3.5853
  737MOL0     H99435   9.797   3.928   3.060 -3.6425  0.6742  4.3546
  737MOL0     H99436   9.894   3.852   3.322  1.9260 -2.6267 -4.0922
  737MOL0     H99437   9.846   4.020   3.283  0.1132 -0.4857 -1.0797
  737MOL0     H99438   9.635   3.926   3.194  0.8320 -0.8806 -1.3005
  737MOL0     H99439   9.678   3.759   3.239  0.2678  1.4324 -1.9028
  737MOL0     H99440   9.683   3.827   3.493  0.0707 -1.0497 -1.2033
  737MOL0     H99441   9.663   3.981   3.462 -0.1114 -1.5181  2.1970
  737MOL0     H99442   9.455   3.775   3.381  2.9977 -0.7617 -2.2547
  737MOL0     H99443   9.428   3.952   3.357 -1.8761 -1.1616  0.9432
  737MOL0     H99444   9.314   3.852   3.554 -0.7712  2.4503 -1.2243
  737MOL0     H99445   9.483   3.839   3.628  2.3035 -1.2228 -2.4868
  737MOL0     H99446   9.195   4.079   3.546 -1.6255 -0.4088  1.4216
  737MOL0     H99447   9.260   4.349   3.785 -0.5939 -2.9236  0.3999
  737MOL0     H99448   9.339   4.412   3.638  0.2674 -0.2405 -0.5041
  737MOL0     H99449   9.145   4.358   3.514 -0.2640  0.4571 -0.0522
  737MOL0     H99450   9.059   4.268   3.654 -1.7312  1.4372 -0.4160
  737MOL0     H99451   9.131   4.569   3.649  0.9340 -0.9845 -0.7230
  737MOL0     H99452   9.057   4.482   3.787 -0.6205 -1.0384  0.5119
  737MOL0     H99453   8.919   4.621   3.658  1.0362 -0.1860  1.8077
  737MOL0     H99454   8.869   4.447   3.628  0.7357  0.3217  1.5572
  737MOL0     H99455   8.816   4.716   3.342  1.8579 -1.1123  2.1946
  737MOL0     H99456   8.618   4.668   3.204 -1.9946 -2.3257 -1.7902
  737MOL0     H99457   8.463   4.169   2.877  0.1741 -1.1135  0.4767
  737MOL0     H99458   8.248   4.121   2.758 -1.6722 -0.5507  0.3744
  737MOL0     H99459   8.091   4.266   2.663 -0.0970  2.6015  0.7297
  737MOL0     H99460   7.933   4.187   2.661 -1.8128 -0.6764  1.9227
  737MOL0     H99461   7.917   4.430   2.633 -3.6346  2.2799  1.8856
  737MOL0     H99462   7.827   4.367   2.771  0.2868 -0.5736  1.8319
  737MOL0     H99463   7.972   4.474   2.911 -1.7057 -0.9286 -0.6129
  737MOL0     H99464   8.113   4.471   2.811  0.1533 -0.1214  2.8204
  737MOL0     H99465   7.910   4.645   2.693 -0.7945 -3.5225  0.0004
  737MOL0     H99466   8.070   4.656   2.666 -1.3783 -2.0559 -1.8134
  737MOL0     H99467   7.911   4.747   2.911 -0.6614  1.1137 -1.3965
  737MOL0     H99468   8.000   4.853   2.799  0.1519  0.5384  0.5993
  737MOL0     H99469   8.127   4.869   2.990 -0.0575 -0.2820  0.0765
  737MOL0     H99470   8.135   4.698   3.015 -0.9064 -0.1289  0.0767
  737MOL0     H99471   8.261   4.799   2.756  1.1984  0.5792 -0.4812
  737MOL0     H99472   8.318   4.669   2.875  3.8398  1.1619 -0.1310
  737MOL0     H99473   8.453   4.867   2.852 -0.2799  0.3869  0.4864
  737MOL0     H99474   8.314   4.969   2.897  1.1351 -0.1102 -2.8743
  737MOL0     H99475   8.019   4.283   3.071 -0.8797 -1.9576 -0.0673
  737MOL0     H99476   8.246   4.359   3.195  0.5530 -0.1470  0.6286
  737MOL0     H99477   8.677   4.246   3.286  1.9022 -0.3117  1.2277
  737MOL0     H99478   8.853   4.297   3.441 -0.2487  1.3184  2.2960
  737MOL0     H99479  10.420   4.212   3.223  2.4468  1.6046 -2.3871
  737MOL0     H99480  10.628   4.180   3.319 -0.5159  0.5843 -0.1325
  737MOL0     H99481  11.017   3.970   3.314  2.1213  0.3719  1.4927
  737MOL0     H99482  11.219   3.872   3.306 -1.7253 -2.5378 -4.4383
  737MOL0     H99483  11.336   3.477   3.506 -2.9766  0.9491  0.6250
  737MOL0     H99484  11.350   3.609   3.622 -2.3485 -3.3016 -0.5705
  737MOL0     H99485  11.568   3.481   3.573 -1.0713  1.0424  3.0019
  737MOL0     H99486  11.567   3.662   3.539 -1.8588  0.0302  0.9696
  737MOL0     H99487  11.689   3.521   3.385  0.3379  1.9247  0.9640
  737MOL0     H99488  11.553   3.604   3.294  0.1596 -2.4906 -2.2659
  737MOL0     H99489  11.504   3.326   3.398 -2.8065  0.5451  0.4153
  737MOL0     H99490  11.408   3.432   3.294 -0.6366  0.3931  0.1091
  737MOL0     H99491  11.709   3.271   3.037  0.7716 -1.6375  1.3522
  737MOL0     H99492  11.133   3.538   3.545  1.3300 -0.2897 -1.8614
  737MOL0     H99493  10.911   3.524   3.627  0.4908  0.5909  0.5697
  737MOL0     H99494  10.845   3.677   3.689  3.7165 -0.2572  0.4622
  737MOL0     H99495  10.769   3.606   3.543  0.8275  1.0249 -2.7643
  738MOL0     O99496   4.069  11.241   8.501  0.6143  0.3373  0.2002
  738MOL0     C99497   4.049  11.146   8.430  0.0618  0.8840 -0.2777
  738MOL0     O99498   4.135  11.048   8.387  0.0413 -0.4756 -0.4100
  738MOL0     C99499   4.271  11.051   8.407 -0.9053  0.6523 -0.5274
  738MOL0     C99500   4.350  11.167   8.428  1.2904 -0.4364  0.6528
  738MOL0     C99501   4.494  11.147   8.437  0.3841 -0.2845  0.7946
  738MOL0     C99502   4.549  11.023   8.426 -0.1736  0.0661 -0.0267
  738MOL0     O99503   4.685  11.022   8.453  0.4790 -0.3462 -0.5028
  738MOL0     C99504   4.756  10.894   8.464  0.8861 -0.0437 -0.8640
  738MOL0     C99505   4.825  10.865   8.333 -0.9545  0.2921  0.2072
  738MOL0     C99506   4.923  10.965   8.278 -0.2284 -1.1216 -0.0849
  738MOL0     C99507   4.940  10.961   8.132  0.1783 -0.4848  0.0746
  738MOL0     C99508   5.054  11.054   8.093  0.0569  0.1407  0.4833
  738MOL0     C99509   5.070  11.109   7.951  0.2848 -0.0948  0.0525
  738MOL0     C99510   5.035  10.991   7.853 -0.2579 -0.2572 -0.8134
  738MOL0     C99511   5.068  11.035   7.712 -0.8073 -0.8155 -0.8969
  738MOL0     N99512   5.020  10.933   7.620  0.9850  0.2453  0.5903
  738MOL0     C99513   4.889  10.924   7.581 -0.7463  0.9788  0.0210
  738MOL0     C99514   4.886  10.804   7.520  0.6789  0.3982 -0.6057
  738MOL0     C99515   4.770  10.755   7.442 -0.5343 -0.5252 -0.3139
  738MOL0     C99516   4.639  10.785   7.521  0.6212 -0.4691  0.1213
  738MOL0     C99517   4.527  10.691   7.479 -0.4540  0.4939 -0.4666
  738MOL0     C99518   4.516  10.678   7.322  0.2267 -0.5098  0.3535
  738MOL0     O99519   4.489  10.806   7.263 -0.2736  0.6050  0.1258
  738MOL0     C99520   4.374  10.862   7.278  0.9206 -0.2437  0.3032
  738MOL0     C99521   4.354  10.961   7.369 -0.0278 -0.8241 -0.1840
  738MOL0     C99522   4.233  11.021   7.388  0.5476  0.8587  0.2819
  738MOL0     C99523   4.122  10.981   7.303 -0.0006  0.5305 -0.4472
  738MOL0     C99524   4.007  11.074   7.312  0.6668  0.3657  0.4492
  738MOL0     O99525   3.999  11.162   7.423  0.8513  0.7630  0.5914
  738MOL0     C99526   3.889  11.244   7.433 -0.2786  0.0072  0.9001
  738MOL0     C99527   3.886  11.360   7.353  0.3480  0.4536 -0.8000
  738MOL0     C99528   3.792  11.460   7.375  0.9104  0.2535 -0.0241
  738MOL0     C99529   3.694  11.454   7.478  0.7589  0.3821  0.1124
  738MOL0     O99530   3.616  11.559   7.496 -0.5442 -0.6975  0.1225
  738MOL0     C99531   3.598  11.599   7.635 -0.7567  0.5474 -0.1878
  738MOL0     C99532   3.621  11.747   7.663  0.8197  0.0227  0.7744
  738MOL0     C99533   3.764  11.805   7.643 -0.0239 -1.4206  0.3183
  738MOL0     C99534   3.770  11.956   7.609  0.1879  1.2147 -0.4306
  738MOL0     C99535   3.710  12.043   7.715  0.3701 -0.3701 -0.0351
  738MOL0     C99536   3.766  12.030   7.854 -0.3896 -0.3503 -0.0317
  738MOL0     C99537   3.698  12.123   7.952  1.1634  0.3755  0.5016
  738MOL0     C99538   3.775  12.119   8.095 -0.3950  1.2383  0.6624
  738MOL0    Cl99539   3.673  12.125   8.243  0.4786 -0.5826 -0.0536
  738MOL0     C99540   3.697  11.329   7.561 -0.3679  0.3630  0.3534
  738MOL0     C99541   3.797  11.231   7.534 -0.2258 -1.0690 -1.0173
  738MOL0     O99542   3.926  11.070   7.220 -0.0417 -0.0455  0.3108
  738MOL0     C99543   4.135  10.869   7.217 -0.6962 -0.3398  0.5575
  738MOL0     C99544   4.265  10.812   7.212 -1.2358 -0.2412  0.5570
  738MOL0     N99545   5.013  10.750   7.509 -0.1968 -0.3375 -1.2039
  738MOL0     N99546   5.095  10.840   7.548 -0.4911 -0.0186  0.3119
  738MOL0     C99547   4.473  10.918   8.390 -0.6421 -0.5897 -0.3561
  738MOL0     C99548   4.337  10.930   8.375  0.6766 -0.3311  0.1079
  738MOL0     C99549   3.906  11.119   8.384  0.1107 -0.0943  0.9186
  738MOL0     C99550   3.838  11.237   8.343  0.4794 -0.1841 -0.2770
  738MOL0     C99551   3.720  11.221   8.278  1.0937  0.2234 -0.5960
  738MOL0     C99552   3.660  11.097   8.262  0.3274  0.4305  0.4656
  738MOL0     O99553   3.534  11.075   8.209 -0.7457  0.0774 -0.3895
  738MOL0     C99554   3.425  11.173   8.231 -0.3591 -0.2836 -0.5163
  738MOL0     C99555   3.380  11.193   8.380  0.6381  0.9021  0.5932
  738MOL0     C99556   3.362  11.048   8.443 -0.0405  0.3409  0.5019
  738MOL0     C99557   3.234  11.018   8.527  0.3099  0.4663  0.0954
  738MOL0     C99558   3.249  11.094   8.652 -0.4969 -0.2033  0.3635
  738MOL0     C99559   3.262  11.167   8.745  0.3789 -0.0686 -0.2375
  738MOL0     C99560   3.727  10.988   8.313 -0.4264 -0.2916  0.1995
  738MOL0     C99561   3.854  10.990   8.367  0.4913  0.1043 -0.0180
  738MOL0     C99562   3.922  10.870   8.403  0.2400  0.3483 -0.1636
  738MOL0     H99563   4.308  11.264   8.454 -2.0915 -1.8043  0.8284
  738MOL0     H99564   4.542  11.232   8.482 -0.4089  1.4170 -1.3831
  738MOL0     H99565   4.826  10.905   8.547 -1.2765  0.2167  1.0143
  738MOL0     H99566   4.691  10.808   8.486 -0.8741  1.3384 -0.4429
  738MOL0     H99567   4.742  10.830   8.271 -1.5963 -1.2610  1.8641
  738MOL0     H99568   4.891  10.778   8.335 -1.1434 -0.3490 -5.2327
  738MOL0     H99569   5.018  10.971   8.331 -1.2746  4.1044  1.8089
  738MOL0     H99570   4.881  11.061   8.308 -1.6796 -2.0754  1.0892
  738MOL0     H99571   4.975  10.860   8.107 -0.6345 -0.8352  0.3365
  738MOL0     H99572   4.846  10.983   8.082  0.0242  0.1134  0.6164
  738MOL0     H99573   5.062  11.135   8.167 -0.3608  1.4079 -0.8008
  738MOL0     H99574   5.137  10.989   8.121 -3.1725 -4.2637  0.8477
  738MOL0     H99575   4.998  11.191   7.938 -0.3285 -0.2575  2.0712
  738MOL0     H99576   5.174  11.134   7.930 -0.0150  0.1422 -1.2619
  738MOL0     H99577   4.929  10.968   7.867 -0.3540  0.7475  0.2417
  738MOL0     H99578   5.096  10.902   7.866  0.2945 -0.0970 -2.1375
  738MOL0     H99579   5.027  11.134   7.691 -2.1377 -1.7219 -2.8684
  738MOL0     H99580   5.176  11.051   7.703 -1.1439  1.3516 -1.6285
  738MOL0     H99581   4.806  10.992   7.596  0.7619  2.7889  0.6124
  738MOL0     H99582   4.770  10.801   7.343 -0.1025 -0.0266 -0.0832
  738MOL0     H99583   4.792  10.652   7.412 -1.8183  0.3395 -5.0005
  738MOL0     H99584   4.654  10.782   7.630 -3.3784 -0.2566  0.8105
  738MOL0     H99585   4.614  10.891   7.512 -1.8062 -0.7738  2.1263
  738MOL0     H99586   4.440  10.728   7.533  0.7960  1.7749  0.7836
  738MOL0     H99587   4.557  10.590   7.507 -0.6495  0.2641 -1.0799
  738MOL0     H99588   4.450  10.592   7.306 -0.4923 -0.3173  2.0468
  738MOL0     H99589   4.613  10.646   7.282 -0.5775 -1.8263 -0.6263
  738MOL0     H99590   4.434  11.010   7.424 -1.0759 -0.0765  0.7149
  738MOL0     H99591   4.218  11.102   7.458 -0.1097 -1.0581  2.5227
  738MOL0     H99592   3.953  11.371   7.268  2.5173 -2.7398  0.3180
  738MOL0     H99593   3.786  11.547   7.310  3.3412 -1.1805 -2.3626
  738MOL0     H99594   3.496  11.578   7.669 -0.0839  0.5366  1.9270
  738MOL0     H99595   3.674  11.555   7.700 -0.4444  0.9231 -0.2943
  738MOL0     H99596   3.564  11.794   7.581  0.8897 -0.0413  0.6898
  738MOL0     H99597   3.587  11.788   7.758 -0.2150  0.1840  0.3536
  738MOL0     H99598   3.821  11.781   7.733  1.4276 -0.7047 -0.3778
  738MOL0     H99599   3.804  11.748   7.560 -2.2098 -0.3577 -1.5854
  738MOL0     H99600   3.732  11.976   7.509 -2.4419  0.0360  0.2326
  738MOL0     H99601   3.873  11.992   7.613 -0.0422  1.7814  0.9967
  738MOL0     H99602   3.604  12.015   7.721 -0.6545  2.2900 -3.1990
  738MOL0     H99603   3.705  12.149   7.692 -1.6055 -0.7322 -1.4715
  738MOL0     H99604   3.755  11.931   7.900 -1.0486  0.2428  1.1348
  738MOL0     H99605   3.869  12.063   7.842 -1.0126  1.0838 -1.9720
  738MOL0     H99606   3.598  12.087   7.978  1.7096  0.0110  2.2597
  738MOL0     H99607   3.680  12.225   7.918  0.4446  0.0508 -0.1220
  738MOL0     H99608   3.835  12.028   8.092 -1.4136  0.4414  2.7256
  738MOL0     H99609   3.846  12.202   8.087  2.7023 -1.3647 -4.6008
  738MOL0     H99610   3.627  11.298   7.638  1.1134 -4.5862  0.0867
  738MOL0     H99611   3.799  11.157   7.614  0.0542  0.5962  0.6040
  738MOL0     H99612   4.050  10.825   7.167 -0.4081  0.6815 -0.9105
  738MOL0     H99613   4.274  10.715   7.163 -0.8179  0.1558 -0.1680
  738MOL0     H99614   4.515  10.821   8.365 -0.9612 -1.3403  1.8175
  738MOL0     H99615   4.274  10.842   8.361 -1.8882  1.4381 -0.3062
  738MOL0     H99616   3.859  11.338   8.377 -1.0370 -1.1106  4.1806
  738MOL0     H99617   3.671  11.314   8.249  0.4838  0.3140  0.6365
  738MOL0     H99618   3.335  11.145   8.176  1.3222 -3.5730 -1.8552
  738MOL0     H99619   3.456  11.272   8.195  0.5824 -1.3546 -2.8621
  738MOL0     H99620   3.291  11.256   8.391 -1.9528 -2.5643  1.2729
  738MOL0     H99621   3.477  11.232   8.412  3.6790 -3.7377 -1.7589
  738MOL0     H99622   3.453  11.032   8.502  0.1869 -0.1032  0.0398
  738MOL0     H99623   3.370  10.971   8.365  0.7709 -1.8073  2.5912
  738MOL0     H99624   3.137  11.046   8.485 -0.5511  0.6915  2.1166
  738MOL0     H99625   3.227  10.910   8.545  0.8379  0.4707  0.3420
  738MOL0     H99626   3.266  11.230   8.831  0.5447 -1.0734  0.5065
  738MOL0     H99627   3.677  10.891   8.307  1.9851 -1.8055  2.6414
  738MOL0     H99628   3.956  10.897   8.503  0.6687 -0.0565 -0.1942
  738MOL0     H99629   3.854  10.785   8.416 -0.2876  0.5021 -1.7393
  738MOL0     H99630   4.000  10.839   8.332  1.0108 -1.4849  1.3854
  739MOL0     O99631   5.395   4.892   6.723  0.2461 -0.0202 -0.1536
  739MOL0     C99632   5.418   4.916   6.604  0.2181 -0.8575  0.2862
  739MOL0     O99633   5.473   5.040   6.552  0.0708  0.3615  0.4420
  739MOL0     C99634   5.475   5.156   6.620 -0.3305  0.8833 -0.6223
  739MOL0     C99635   5.426   5.288   6.584  0.3551 -0.7731  0.8813
  739MOL0     C99636   5.431   5.401   6.660 -0.5426  0.6781 -0.5168
  739MOL0     C99637   5.493   5.399   6.787 -0.3710  0.9114  0.2339
  739MOL0     O99638   5.504   5.506   6.868 -0.1722  0.4419 -0.0216
  739MOL0     C99639   5.478   5.634   6.813 -0.4715 -0.3974 -0.0867
  739MOL0     C99640   5.502   5.744   6.930 -0.2129  0.6854  0.3330
  739MOL0     C99641   5.448   5.874   6.905  0.4213 -0.8364  0.2226
  739MOL0     C99642   5.497   5.973   7.005 -0.3734 -0.7296  0.1373
  739MOL0     C99643   5.476   6.121   6.958  0.7369 -0.4920 -0.3430
  739MOL0     C99644   5.528   6.202   7.078 -1.1854 -0.1001 -0.4020
  739MOL0     C99645   5.499   6.351   7.058  0.2112 -0.4771  0.0844
  739MOL0     C99646   5.574   6.438   7.160  0.2885 -0.2102  0.0618
  739MOL0     N99647   5.528   6.409   7.306  0.3215 -0.0601 -0.0486
  739MOL0     C99648   5.406   6.428   7.367  0.3246 -0.2392 -0.1824
  739MOL0     C99649   5.422   6.389   7.495 -0.0667  0.6959  0.5578
  739MOL0     C99650   5.314   6.397   7.594 -0.3880 -0.7767 -0.1687
  739MOL0     C99651   5.355   6.341   7.735  0.3884 -0.1113  0.2956
  739MOL0     C99652   5.372   6.192   7.752  0.6284  0.0840 -0.4603
  739MOL0     C99653   5.387   6.157   7.905 -0.7029 -0.2300  0.1567
  739MOL0     O99654   5.266   6.124   7.972  0.4486 -0.6206  0.0314
  739MOL0     C99655   5.257   6.067   8.102  0.0984 -0.0354  0.4659
  739MOL0     C99656   5.365   6.074   8.186 -0.8234 -0.0667  0.2606
  739MOL0     C99657   5.354   6.022   8.316  0.6579  0.1553  0.3019
  739MOL0     C99658   5.231   5.947   8.343 -0.2303 -0.7484 -0.0553
  739MOL0     C99659   5.214   5.869   8.472 -0.8563 -0.4116 -0.4579
  739MOL0     O99660   5.311   5.884   8.561  0.2198  0.0453 -0.1061
  739MOL0     C99661   5.268   5.895   8.698 -0.3631  0.3862 -0.1795
  739MOL0     C99662   5.143   5.936   8.746  0.2315 -0.2424  0.4277
  739MOL0     C99663   5.115   5.940   8.889  0.0301  0.9462  0.1623
  739MOL0     C99664   5.203   5.899   8.985  0.7574  0.3433  0.0052
  739MOL0     O99665   5.167   5.891   9.119 -0.1450 -0.1207  0.1785
  739MOL0     C99666   5.035   5.842   9.145 -0.2220 -0.2700  0.3483
  739MOL0     C99667   5.022   5.804   9.287  0.7130  0.5050  0.9146
  739MOL0     C99668   4.870   5.766   9.310  0.0091 -0.1347 -0.2282
  739MOL0     C99669   4.842   5.684   9.432 -0.2591  0.3826 -0.6527
  739MOL0     C99670   4.756   5.560   9.403 -0.4862  0.3162  0.9252
  739MOL0     C99671   4.720   5.487   9.538 -0.0676 -0.1883  0.3227
  739MOL0     C99672   4.640   5.365   9.522  0.9095  1.2228 -0.1703
  739MOL0     C99673   4.661   5.284   9.646  0.8779 -0.1099 -0.5030
  739MOL0    Cl99674   4.567   5.137   9.634  0.0593  0.3413  0.8847
  739MOL0     C99675   5.335   5.873   8.941 -0.0632  0.1427  0.0179
  739MOL0     C99676   5.362   5.867   8.797 -0.4793  0.0927 -0.1468
  739MOL0     O99677   5.114   5.797   8.486  0.6212 -0.3671  0.7280
  739MOL0     C99678   5.128   5.936   8.249  0.3777  0.3339  0.2563
  739MOL0     C99679   5.132   6.004   8.122  0.1435 -0.4145 -0.7320
  739MOL0     N99680   5.543   6.328   7.506  0.4621  0.8378  0.6759
  739MOL0     N99681   5.613   6.349   7.395 -0.1857 -0.1412  0.4394
  739MOL0     C99682   5.544   5.272   6.827  0.0087  0.3432  0.0771
  739MOL0     C99683   5.534   5.148   6.748  0.4725 -0.1200 -0.6922
  739MOL0     C99684   5.418   4.808   6.489 -0.5377  0.1610  0.3098
  739MOL0     C99685   5.529   4.802   6.392 -0.4692  0.1776  0.3880
  739MOL0     C99686   5.545   4.692   6.304 -0.5307  0.0389 -0.2847
  739MOL0     C99687   5.456   4.587   6.309  0.6818 -0.9610  0.6087
  739MOL0     O99688   5.492   4.481   6.231  1.1204  0.3478 -0.5116
  739MOL0     C99689   5.384   4.399   6.177  0.6990  0.3397 -0.0731
  739MOL0     C99690   5.452   4.283   6.098  0.7798 -1.7446 -0.2560
  739MOL0     C99691   5.348   4.200   6.041 -0.1338  0.0749 -0.6559
  739MOL0     C99692   5.426   4.112   5.938 -0.7999  0.0479 -0.4773
  739MOL0     C99693   5.328   4.021   5.867  0.5200 -0.2118  0.6975
  739MOL0     C99694   5.252   3.942   5.810 -0.1842 -0.4533  0.7402
  739MOL0     C99695   5.347   4.597   6.399  0.3977  0.1348 -1.5062
  739MOL0     C99696   5.333   4.699   6.488  0.4245  0.2216 -0.6785
  739MOL0     C99697   5.224   4.693   6.606 -0.3481 -0.3195  0.4738
  739MOL0     H99698   5.363   5.303   6.498 -2.0355  0.3813  2.7192
  739MOL0     H99699   5.382   5.485   6.613 -4.3770 -0.6273  0.7954
  739MOL0     H99700   5.546   5.660   6.731  0.0258  3.6669  1.3787
  739MOL0     H99701   5.372   5.635   6.785 -1.5679 -1.4025  3.4939
  739MOL0     H99702   5.611   5.752   6.939 -0.0753  0.4965 -1.0521
  739MOL0     H99703   5.460   5.701   7.022  2.6001 -1.1958  0.8592
  739MOL0     H99704   5.339   5.867   6.903  0.3681  0.1046 -1.3118
  739MOL0     H99705   5.471   5.916   6.807  3.3596  0.7270  1.4497
  739MOL0     H99706   5.443   5.941   7.095 -0.9539 -1.2162 -0.3682
  739MOL0     H99707   5.603   5.952   7.020  0.1609  1.4453 -0.2092
  739MOL0     H99708   5.514   6.152   6.860  0.2828 -1.0548 -0.7008
  739MOL0     H99709   5.368   6.132   6.955  0.3757 -2.8758  1.1405
  739MOL0     H99710   5.482   6.165   7.170 -2.5416  1.0279 -0.5881
  739MOL0     H99711   5.633   6.172   7.078 -1.6462 -2.0272 -2.5558
  739MOL0     H99712   5.391   6.364   7.073  0.2701 -2.4776  3.3298
  739MOL0     H99713   5.535   6.389   6.962  0.9896  0.0531  0.5743
  739MOL0     H99714   5.683   6.432   7.146  0.4841 -0.6514  1.6433
  739MOL0     H99715   5.559   6.544   7.135  0.0459 -0.7289 -2.1992
  739MOL0     H99716   5.316   6.462   7.317 -0.5640 -0.5178  1.1724
  739MOL0     H99717   5.305   6.506   7.595 -1.5984 -0.8598 -0.5047
  739MOL0     H99718   5.216   6.368   7.557 -2.8098  3.4022  2.2113
  739MOL0     H99719   5.449   6.385   7.768  0.9096  0.0211 -1.2620
  739MOL0     H99720   5.272   6.366   7.802  1.3191  1.0947  1.0552
  739MOL0     H99721   5.465   6.173   7.698  0.6656 -0.3417 -0.2514
  739MOL0     H99722   5.287   6.130   7.720 -1.3133  0.9327  2.6245
  739MOL0     H99723   5.447   6.234   7.955 -2.3865  1.6624 -0.5730
  739MOL0     H99724   5.460   6.077   7.921  0.0397  0.7501  1.9636
  739MOL0     H99725   5.458   6.118   8.151 -1.1192  0.4153  0.0716
  739MOL0     H99726   5.446   6.023   8.373 -0.5791 -0.3776  2.4403
  739MOL0     H99727   5.067   5.961   8.672  1.6239  0.7524 -0.7157
  739MOL0     H99728   5.014   5.971   8.916  0.0459  2.1029 -1.0058
  739MOL0     H99729   4.966   5.925   9.127 -0.9454 -1.2316 -1.6087
  739MOL0     H99730   5.010   5.761   9.077  4.5773 -2.5660  0.8787
  739MOL0     H99731   5.090   5.719   9.301 -0.1302 -0.3626 -0.0606
  739MOL0     H99732   5.054   5.890   9.347  1.4919 -2.5398  5.4527
  739MOL0     H99733   4.804   5.854   9.311  0.3049  0.0987 -0.9769
  739MOL0     H99734   4.832   5.714   9.222 -0.6089  3.5069 -2.3399
  739MOL0     H99735   4.802   5.746   9.513  0.3227 -1.5790  1.2235
  739MOL0     H99736   4.942   5.648   9.456 -0.5007  0.0662 -0.1065
  739MOL0     H99737   4.798   5.494   9.326 -2.8862  1.8688 -1.9668
  739MOL0     H99738   4.665   5.597   9.354  0.9351  2.1841 -0.4390
  739MOL0     H99739   4.817   5.475   9.588  0.6896  3.2304 -0.0324
  739MOL0     H99740   4.664   5.563   9.594 -0.1664  1.1843 -1.5549
  739MOL0     H99741   4.658   5.304   9.433 -0.5681 -3.3329  2.3166
  739MOL0     H99742   4.534   5.392   9.511  0.2325 -1.1819 -0.3382
  739MOL0     H99743   4.766   5.253   9.654  2.6809  4.2356 -3.1852
  739MOL0     H99744   4.645   5.332   9.743  0.7109 -2.9890  0.9950
  739MOL0     H99745   5.399   5.842   9.024  0.4595  2.1508  0.4333
  739MOL0     H99746   5.458   5.826   8.769  0.1650  0.3164  1.5885
  739MOL0     H99747   5.039   5.877   8.267 -1.3584  2.5016 -0.6964
  739MOL0     H99748   5.055   5.991   8.046 -1.5493 -0.3267  0.8895
  739MOL0     H99749   5.583   5.268   6.928  0.7120  0.9211 -0.1624
  739MOL0     H99750   5.561   5.051   6.789 -0.8669 -0.6885 -1.1020
  739MOL0     H99751   5.607   4.876   6.404 -2.0655  1.9915  0.2391
  739MOL0     H99752   5.625   4.683   6.231 -1.4462  0.3014 -1.3515
  739MOL0     H99753   5.329   4.462   6.106  0.9577  2.4616  1.5410
  739MOL0     H99754   5.327   4.358   6.261  1.7061  2.7385  1.8978
  739MOL0     H99755   5.525   4.228   6.158  0.0178 -0.0627  2.3689
  739MOL0     H99756   5.500   4.335   6.014 -2.1563  0.0448 -0.9691
  739MOL0     H99757   5.267   4.256   5.992 -0.3217 -1.8879 -2.7065
  739MOL0     H99758   5.302   4.134   6.115  3.5851 -2.2840 -0.2140
  739MOL0     H99759   5.474   4.179   5.865  1.1595  0.2240  0.8965
  739MOL0     H99760   5.504   4.055   5.988  2.0654  1.1291 -3.3663
  739MOL0     H99761   5.179   3.885   5.755  1.3913 -0.3479 -1.5816
  739MOL0     H99762   5.287   4.506   6.401  1.9025 -0.9644  2.3720
  739MOL0     H99763   5.136   4.653   6.554  1.0272 -1.7691 -0.8791
  739MOL0     H99764   5.270   4.633   6.686  0.7470  0.3598  0.3744
  739MOL0     H99765   5.187   4.790   6.639 -0.8181 -0.0271 -0.8355
  740MOL0     O99766   9.652   6.571   7.197 -0.5798  0.6630 -0.7784
  740MOL0     C99767   9.773   6.538   7.190 -0.6368 -0.0995 -0.5976
  740MOL0     O99768   9.829   6.442   7.265  0.3635  0.2210  0.4750
  740MOL0     C99769   9.781   6.362   7.367  0.0373 -0.4171  0.2818
  740MOL0     C99770   9.661   6.373   7.442 -1.0919  1.0991 -0.0773
  740MOL0     C99771   9.634   6.290   7.553  0.3884 -0.9241 -0.2759
  740MOL0     C99772   9.731   6.193   7.585  0.4820 -0.0535 -0.2138
  740MOL0     O99773   9.720   6.107   7.697  0.2653 -0.8235 -0.1942
  740MOL0     C99774   9.629   6.143   7.803  0.6588  0.1819 -0.1684
  740MOL0     C99775   9.689   6.076   7.925 -0.7084  0.8298  0.4191
  740MOL0     C99776   9.593   6.057   8.042 -0.1437 -0.1482  0.2412
  740MOL0     C99777   9.654   5.946   8.141  0.6674 -0.9128  1.0876
  740MOL0     C99778   9.565   5.925   8.265 -0.8451  0.6708 -0.3125
  740MOL0     C99779   9.420   5.885   8.217 -1.0734 -0.4361 -0.0225
  740MOL0     C99780   9.335   5.839   8.333  0.1704  0.1368  0.3592
  740MOL0     C99781   9.191   5.803   8.279  0.8962 -0.1141  0.0593
  740MOL0     N99782   9.096   5.917   8.261 -0.0613 -0.0172  0.0056
  740MOL0     C99783   9.002   5.955   8.364 -0.4140 -0.8119  0.2334
  740MOL0     C99784   8.941   6.064   8.317  0.8390 -0.4592  0.9771
  740MOL0     C99785   8.836   6.125   8.401 -0.0349  0.2733 -0.0057
  740MOL0     C99786   8.898   6.223   8.508 -0.7809 -0.2958  0.1249
  740MOL0     C99787   8.812   6.262   8.628 -0.0766  0.6041  0.6779
  740MOL0     C99788   8.685   6.334   8.569  1.5653  0.2379  0.4536
  740MOL0     O99789   8.578   6.372   8.665  0.8659  0.3052  0.3930
  740MOL0     C99790   8.527   6.281   8.756 -1.3122 -0.2696  0.3342
  740MOL0     C99791   8.486   6.344   8.866  0.4625  0.4496 -0.3418
  740MOL0     C99792   8.428   6.268   8.962 -0.8521 -1.0493 -0.6431
  740MOL0     C99793   8.425   6.128   8.960  0.1824  1.1366 -0.3994
  740MOL0     C99794   8.352   6.040   9.063 -0.0666  0.2948  1.0075
  740MOL0     O99795   8.377   5.908   9.078  0.1785 -0.7996  0.3221
  740MOL0     C99796   8.277   5.844   9.149  0.4944  0.3024  0.4030
  740MOL0     C99797   8.144   5.841   9.100  0.1452  0.0741  0.4819
  740MOL0     C99798   8.044   5.769   9.158 -0.4151  0.5443 -0.9560
  740MOL0     C99799   8.074   5.691   9.274  1.5208 -0.6212 -0.6398
  740MOL0     O99800   7.958   5.640   9.333  0.1813  0.1312  0.2008
  740MOL0     C99801   7.972   5.619   9.475  0.3673  0.9979 -0.2947
  740MOL0     C99802   7.841   5.596   9.560  0.3954 -0.1718 -0.2772
  740MOL0     C99803   7.767   5.474   9.504 -0.2303 -0.1132 -0.9590
  740MOL0     C99804   7.631   5.456   9.561  0.6024  0.1863  0.1693
  740MOL0     C99805   7.551   5.348   9.485  0.4392  0.0852 -0.0641
  740MOL0     C99806   7.430   5.295   9.566  0.1759  0.5267  0.9278
  740MOL0     C99807   7.359   5.165   9.514  0.5561  0.1258 -0.4895
  740MOL0     C99808   7.229   5.133   9.577 -0.7508  1.5488 -1.4131
  740MOL0    Cl99809   7.096   5.238   9.538 -0.0986  0.0489  0.7273
  740MOL0     C99810   8.205   5.687   9.321  0.0553  0.1288 -0.9262
  740MOL0     C99811   8.308   5.749   9.252 -0.1537  0.6140 -1.0909
  740MOL0     O99812   8.291   6.108   9.142  0.1110  0.3464 -0.7536
  740MOL0     C99813   8.494   6.065   8.853 -0.2911 -0.8402  0.2005
  740MOL0     C99814   8.544   6.140   8.745  1.6089  0.2952 -1.0409
  740MOL0     N99815   8.978   6.083   8.189 -0.3717  0.1660 -0.4271
  740MOL0     N99816   9.063   5.999   8.157 -0.6351 -0.9416  0.2805
  740MOL0     C99817   9.838   6.169   7.499 -0.2219  0.5875 -0.8898
  740MOL0     C99818   9.868   6.261   7.392 -0.3258 -0.3022 -0.6761
  740MOL0     C99819   9.868   6.620   7.097 -0.2558  0.1212 -0.1647
  740MOL0     C99820   9.859   6.756   7.106  0.0858  0.3133  0.6155
  740MOL0     C99821   9.928   6.841   7.027 -0.4567 -1.0188 -0.2714
  740MOL0     C99822  10.016   6.787   6.926 -0.3806 -0.1509 -0.0852
  740MOL0     O99823  10.078   6.882   6.846 -0.2438  0.1380  0.1680
  740MOL0     C99824  10.198   6.853   6.790 -0.0291  0.4250 -0.0764
  740MOL0     C99825  10.319   6.886   6.868 -0.5637  0.6255  0.3371
  740MOL0     C99826  10.432   6.787   6.847 -1.4401  0.7015  0.7098
  740MOL0     C99827  10.546   6.775   6.947 -0.9740 -1.1308 -0.5431
  740MOL0     C99828  10.608   6.905   6.983  0.0612 -0.0491  1.0139
  740MOL0     C99829  10.638   7.022   7.007  0.1823 -0.2282  0.2851
  740MOL0     C99830  10.030   6.641   6.918 -0.3077  0.1335  0.6186
  740MOL0     C99831   9.958   6.558   7.008 -0.1744  0.3761  0.4414
  740MOL0     C99832   9.985   6.410   7.017  0.2580  0.3531 -0.8297
  740MOL0     H99833   9.590   6.450   7.413 -0.4010  2.2305  1.0882
  740MOL0     H99834   9.542   6.297   7.610  1.8220 -3.3056  2.6128
  740MOL0     H99835   9.625   6.252   7.815  0.1873  0.0373  1.1673
  740MOL0     H99836   9.524   6.116   7.790  0.8991 -1.2663  0.7154
  740MOL0     H99837   9.775   6.133   7.960  1.5938 -2.5954  0.9293
  740MOL0     H99838   9.729   5.975   7.906  2.7588  2.3386 -1.1000
  740MOL0     H99839   9.495   6.025   8.007  0.0109 -1.0748  0.6259
  740MOL0     H99840   9.580   6.155   8.090 -1.8102 -0.0183 -0.4200
  740MOL0     H99841   9.686   5.855   8.089 -0.6874 -1.2079  0.7084
  740MOL0     H99842   9.748   5.975   8.189  0.1691  1.2531  0.8429
  740MOL0     H99843   9.602   5.840   8.323 -1.3169  1.7670  1.6670
  740MOL0     H99844   9.565   6.016   8.326  0.4562  0.5576 -0.1277
  740MOL0     H99845   9.366   5.971   8.178 -1.1809 -0.1339  0.7647
  740MOL0     H99846   9.425   5.802   8.147 -1.6293  0.5112 -1.2237
  740MOL0     H99847   9.328   5.927   8.397 -1.0526  1.8939 -2.0609
  740MOL0     H99848   9.386   5.756   8.383  1.5629  1.2830  0.9109
  740MOL0     H99849   9.192   5.774   8.173  0.5802  1.9258 -0.5502
  740MOL0     H99850   9.147   5.727   8.344 -0.3575  0.0711 -0.5389
  740MOL0     H99851   8.999   5.915   8.465  1.8755 -2.3290 -0.2059
  740MOL0     H99852   8.778   6.185   8.331  1.1362 -0.0456 -1.2966
  740MOL0     H99853   8.764   6.056   8.446 -2.2329  2.2501 -0.3296
  740MOL0     H99854   8.985   6.162   8.535 -0.3699 -0.0991 -0.6998
  740MOL0     H99855   8.943   6.303   8.449  2.3584 -2.4603 -0.6653
  740MOL0     H99856   8.867   6.333   8.690 -1.5090  1.9528  0.4702
  740MOL0     H99857   8.801   6.174   8.693  4.7405 -0.5324  0.3088
  740MOL0     H99858   8.638   6.274   8.491 -2.0536  0.1425  2.4746
  740MOL0     H99859   8.717   6.429   8.527 -1.2637  1.4872  0.9062
  740MOL0     H99860   8.499   6.452   8.865  1.4313  0.3385 -0.2527
  740MOL0     H99861   8.389   6.313   9.053 -1.7376 -2.9541 -0.0429
  740MOL0     H99862   8.122   5.908   9.017 -1.2750 -1.2711 -0.2723
  740MOL0     H99863   7.945   5.777   9.116 -0.6735 -0.3535 -0.5295
  740MOL0     H99864   8.032   5.529   9.484  1.6558  1.8927  0.3955
  740MOL0     H99865   8.012   5.712   9.516 -3.2724  2.2389  0.8331
  740MOL0     H99866   7.883   5.584   9.661  1.6674  3.8837 -0.1254
  740MOL0     H99867   7.775   5.682   9.575  0.9226  0.2649 -0.4113
  740MOL0     H99868   7.758   5.485   9.396 -0.2229 -2.2267 -1.2061
  740MOL0     H99869   7.822   5.386   9.538 -3.3041 -1.1604  1.8722
  740MOL0     H99870   7.573   5.549   9.566  4.1440  2.6607 -1.1776
  740MOL0     H99871   7.630   5.422   9.665  0.2241 -4.0639 -1.0086
  740MOL0     H99872   7.623   5.267   9.470  0.9826  0.6025 -0.3353
  740MOL0     H99873   7.522   5.393   9.390 -2.6503 -1.0373  0.2557
  740MOL0     H99874   7.467   5.273   9.666 -2.1374 -0.0599  1.7015
  740MOL0     H99875   7.359   5.378   9.563 -0.0351  0.3465 -1.2662
  740MOL0     H99876   7.414   5.071   9.530 -0.8436 -0.4917  0.9677
  740MOL0     H99877   7.347   5.174   9.406 -0.6818 -1.4676 -0.5361
  740MOL0     H99878   7.212   5.027   9.560  0.2980  0.8833  1.2350
  740MOL0     H99879   7.252   5.140   9.684  1.5837 -1.0396 -1.6318
  740MOL0     H99880   8.240   5.626   9.404  0.8251  0.2742 -1.1384
  740MOL0     H99881   8.413   5.753   9.277  0.1722  0.9513 -2.4106
  740MOL0     H99882   8.496   5.957   8.851 -3.1307 -1.0531  2.2623
  740MOL0     H99883   8.595   6.091   8.662  4.4797  2.0598 -0.4617
  740MOL0     H99884   9.889   6.074   7.515 -0.7890  0.2685 -0.9476
  740MOL0     H99885   9.958   6.257   7.332  1.3210 -0.6742  1.6885
  740MOL0     H99886   9.790   6.797   7.179 -0.8499 -1.7010  0.9441
  740MOL0     H99887   9.913   6.948   7.025  0.5041 -0.8726  0.2255
  740MOL0     H99888  10.205   6.917   6.703 -0.8803  1.6204  0.6989
  740MOL0     H99889  10.208   6.753   6.746  0.1033  0.4566 -0.1176
  740MOL0     H99890  10.294   6.882   6.975  0.2394  1.2330  0.5525
  740MOL0     H99891  10.359   6.981   6.833  0.4017 -0.3352 -1.3219
  740MOL0     H99892  10.484   6.811   6.754  2.9023  1.3937  3.0612
  740MOL0     H99893  10.393   6.685   6.840 -1.1966  0.4347  2.7152
  740MOL0     H99894  10.503   6.731   7.037 -0.7499  1.0722  0.7300
  740MOL0     H99895  10.626   6.709   6.912  1.7235  1.6823 -0.1276
  740MOL0     H99896  10.662   7.126   7.023  1.5622 -0.5557  0.5312
  740MOL0     H99897  10.084   6.587   6.841  0.5237  3.5069 -1.3641
  740MOL0     H99898  10.016   6.365   6.922  1.9008 -1.5216  0.4850
  740MOL0     H99899  10.052   6.378   7.098  1.8645  0.3522 -2.1077
  740MOL0     H99900   9.886   6.365   7.027  0.6100 -0.0766  1.2810
  741MOL0     O99901   4.034  10.475  10.776 -0.4216  0.5504  1.4171
  741MOL0     C99902   3.918  10.497  10.741 -1.0655  0.1303  0.1308
  741MOL0     O99903   3.814  10.534  10.826 -0.3774 -0.0241 -0.8314
  741MOL0     C99904   3.832  10.572  10.953 -0.1738 -0.3756  0.8359
  741MOL0     C99905   3.939  10.652  10.997  0.2289  0.8372 -0.5525
  741MOL0     C99906   3.961  10.689  11.124  0.5293 -0.0100  0.5863
  741MOL0     C99907   3.859  10.669  11.216  0.1670  0.6985  0.0368
  741MOL0     O99908   3.869  10.714  11.338 -0.1714 -0.4671 -0.6910
  741MOL0     C99909   3.888  10.613  11.441 -1.1866  0.9601 -0.3830
  741MOL0     C99910   3.800  10.636  11.559  0.6366  0.1225  0.5543
  741MOL0     C99911   3.816  10.538  11.677 -0.6327  0.3298  0.0000
  741MOL0     C99912   3.759  10.398  11.639 -0.3737 -0.1876 -0.0414
  741MOL0     C99913   3.757  10.291  11.759 -0.0180 -0.8486 -0.1319
  741MOL0     C99914   3.891  10.242  11.805 -0.2484 -0.2267 -0.4567
  741MOL0     C99915   3.927  10.278  11.954  0.3855  1.3447 -0.4389
  741MOL0     C99916   4.082  10.270  11.993 -0.3104 -0.0516  0.1890
  741MOL0     N99917   4.169  10.377  11.940  0.2828  0.0268  0.2492
  741MOL0     C99918   4.176  10.499  12.007 -0.6926  0.8405  0.0376
  741MOL0     C99919   4.206  10.582  11.905 -0.3084  0.5943  0.4590
  741MOL0     C99920   4.197  10.734  11.888  0.4185 -0.1958 -0.1407
  741MOL0     C99921   4.296  10.819  11.971  0.3519 -0.2928 -0.1358
  741MOL0     C99922   4.255  10.967  11.983  0.0638  0.0495  0.4981
  741MOL0     C99923   4.282  11.044  11.856  0.6448  0.5998  0.2946
  741MOL0     O99924   4.219  11.170  11.876  0.1960 -0.0119  0.1119
  741MOL0     C99925   4.225  11.269  11.779 -0.4296  0.3579 -0.5911
  741MOL0     C99926   4.163  11.387  11.814 -0.6766 -0.5019  0.6895
  741MOL0     C99927   4.148  11.493  11.725  0.8803 -0.0340  0.0830
  741MOL0     C99928   4.207  11.485  11.598  0.1801  0.5919  0.8593
  741MOL0     C99929   4.213  11.611  11.511  0.2766 -0.0546 -0.7380
  741MOL0     O99930   4.119  11.704  11.543  0.3584 -0.6747  0.5562
  741MOL0     C99931   4.109  11.821  11.477  0.3008 -0.1649 -1.1607
  741MOL0     C99932   4.167  11.866  11.360 -0.4027 -0.4930  0.1966
  741MOL0     C99933   4.146  12.004  11.318  0.2081  0.5372 -0.3110
  741MOL0     C99934   4.044  12.078  11.372  0.5318 -0.2507 -0.7255
  741MOL0     O99935   4.020  12.199  11.323 -0.7188 -0.2339  0.0471
  741MOL0     C99936   3.935  12.195  11.201 -0.7875 -0.0573  0.2768
  741MOL0     C99937   3.984  12.308  11.112 -0.5242 -0.0425  0.2254
  741MOL0     C99938   4.094  12.254  11.018  0.3013  0.5513 -0.0232
  741MOL0     C99939   4.183  12.357  10.962  0.2939 -1.1098  0.2561
  741MOL0     C99940   4.120  12.483  10.893  0.3475 -0.2508 -0.2675
  741MOL0     C99941   4.025  12.441  10.781 -0.0352  0.0531 -1.3272
  741MOL0     C99942   4.020  12.546  10.673 -0.0622  1.4694 -0.3032
  741MOL0     C99943   3.972  12.689  10.724 -0.5960  0.4639  0.3652
  741MOL0    Cl99944   3.977  12.814  10.592  0.1944 -0.0007 -0.1757
  741MOL0     C99945   3.972  12.036  11.479  0.5207 -0.4102 -0.5276
  741MOL0     C99946   4.011  11.908  11.536  0.0069 -0.4232  0.2473
  741MOL0     O99947   4.274  11.601  11.402 -0.0343 -0.2931 -0.2354
  741MOL0     C99948   4.292  11.375  11.577 -0.2182 -0.0188  1.0900
  741MOL0     C99949   4.293  11.264  11.656 -0.0619 -1.1172 -0.2380
  741MOL0     N99950   4.215  10.514  11.786  0.3894 -0.3468  0.6166
  741MOL0     N99951   4.201  10.395  11.805  0.6523 -0.0702 -0.4870
  741MOL0     C99952   3.737  10.604  11.172 -0.9638 -0.8964 -0.1195
  741MOL0     C99953   3.722  10.569  11.040 -0.4758  0.2019  0.0492
  741MOL0     C99954   3.890  10.484  10.597 -0.2714  0.4508 -0.5815
  741MOL0     C99955   3.750  10.503  10.571  0.1619 -0.4279 -0.9545
  741MOL0     C99956   3.697  10.465  10.454  0.1786  0.1341  0.2887
  741MOL0     C99957   3.771  10.417  10.347  0.5153 -0.1531 -0.0661
  741MOL0     O99958   3.728  10.361  10.229  0.4557  0.1278 -0.8766
  741MOL0     C99959   3.606  10.425  10.178 -0.9379  0.1549 -0.3468
  741MOL0     C99960   3.537  10.326  10.089 -0.9547  0.4487  0.1388
  741MOL0     C99961   3.501  10.184  10.152 -0.4165 -0.9870 -0.6013
  741MOL0     C99962   3.435  10.207  10.286 -0.5960 -0.4226 -0.7172
  741MOL0     C99963   3.309  10.276  10.275  0.1792  0.7699 -0.1473
  741MOL0     C99964   3.203  10.338  10.272 -0.1242 -0.3935 -0.3590
  741MOL0     C99965   3.902  10.408  10.369  0.4387  0.5038  0.6004
  741MOL0     C99966   3.967  10.438  10.491 -0.3385 -0.2552  0.2643
  741MOL0     C99967   4.112  10.401  10.503 -0.5860  0.3583 -0.0893
  741MOL0     H99968   4.023  10.667  10.930  1.3140 -2.2779 -0.0399
  741MOL0     H99969   4.052  10.734  11.162  1.0588 -0.9531  0.4547
  741MOL0     H99970   3.873  10.514  11.397 -2.4311  1.4427 -1.0759
  741MOL0     H99971   3.992  10.606  11.472 -2.2797 -2.6707  3.4042
  741MOL0     H99972   3.695  10.638  11.526  1.0223  2.7970 -0.7877
  741MOL0     H99973   3.830  10.734  11.598  2.7825  0.7198 -2.3064
  741MOL0     H99974   3.755  10.576  11.760  0.6564  1.8248  0.3205
  741MOL0     H99975   3.921  10.542  11.707  0.2914 -0.3744 -2.8249
  741MOL0     H99976   3.656  10.422  11.614 -0.7170  2.2042  3.0156
  741MOL0     H99977   3.806  10.359  11.548 -0.8672 -1.8766  0.4049
  741MOL0     H99978   3.704  10.339  11.842 -2.8074 -0.1514 -2.1267
  741MOL0     H99979   3.700  10.204  11.724  2.2124 -2.7898  0.8207
  741MOL0     H99980   3.899  10.134  11.793 -2.1279 -0.1731 -2.8333
  741MOL0     H99981   3.956  10.286  11.729 -2.3507  1.7613 -1.2445
  741MOL0     H99982   3.885  10.200  12.019  1.9882  1.4505  0.7978
  741MOL0     H99983   3.895  10.378  11.983 -1.2913  0.2906  1.6469
  741MOL0     H99984   4.095  10.273  12.101 -0.1855 -0.2045  0.1788
  741MOL0     H99985   4.122  10.173  11.961  1.4396  0.9607 -0.8951
  741MOL0     H99986   4.147  10.525  12.109  2.1214  0.1794  1.0943
  741MOL0     H99987   4.209  10.749  11.781 -0.1012 -0.4281 -0.2361
  741MOL0     H99988   4.097  10.764  11.921  0.4663  0.4240 -0.5591
  741MOL0     H99989   4.293  10.774  12.071 -0.9951 -2.9001 -1.2498
  741MOL0     H99990   4.401  10.821  11.939  0.0065  5.6857 -2.0970
  741MOL0     H99991   4.305  11.016  12.068  0.9420 -0.8704  0.5267
  741MOL0     H99992   4.146  10.973  11.994 -0.0389  0.9025 -0.7492
  741MOL0     H99993   4.228  10.998  11.772  0.7648  2.4968 -0.8771
  741MOL0     H99994   4.390  11.041  11.838  0.5651 -5.5942 -1.5324
  741MOL0     H99995   4.116  11.399  11.912 -0.6045  0.1966  0.6476
  741MOL0     H99996   4.095  11.582  11.757  0.6366  0.6159 -1.9741
  741MOL0     H99997   4.231  11.808  11.295  0.1434  2.3504 -2.0264
  741MOL0     H99998   4.201  12.039  11.231  0.7496  0.0571 -0.1718
  741MOL0     H99999   3.947  12.101  11.147  2.4780 -0.3368  1.2344
  741MOL0     H    0   3.830  12.225  11.209  0.3039  4.3567  1.0573
  741MOL0     H    1   3.893  12.352  11.071 -2.9703 -2.0923  2.9874
  741MOL0     H    2   4.028  12.382  11.179  0.4986  0.6298 -1.1449
  741MOL0     H    3   4.155  12.172  11.056  0.8824  0.7550 -0.4838
  741MOL0     H    4   4.042  12.199  10.939  0.5093  0.3252 -0.0043
  741MOL0     H    5   4.234  12.304  10.881  1.9208 -0.5212  0.8560
  741MOL0     H    6   4.255  12.394  11.036  0.1451  5.3764 -2.1575
  741MOL0     H    7   4.204  12.536  10.847  0.6706  0.4602  1.0950
  741MOL0     H    8   4.065  12.536  10.971 -1.0625  0.2441 -1.5326
  741MOL0     H    9   4.049  12.344  10.735 -4.3135 -0.5365 -2.7469
  741MOL0     H   10   3.929  12.423  10.829  0.9546  2.6433  1.9433
  741MOL0     H   11   3.956  12.510  10.593  2.8155 -0.5356 -1.8953
  741MOL0     H   12   4.116  12.558  10.622  0.3257 -1.7628 -0.5377
  741MOL0     H   13   3.871  12.677  10.765 -1.3590 -0.1964 -1.5906
  741MOL0     H   14   4.035  12.717  10.809  0.9772 -4.0140  0.9427
  741MOL0     H   15   3.888  12.085  11.528 -1.2382 -1.6224 -2.1539
  741MOL0     H   16   3.965  11.867  11.626  1.7498  0.9630  1.8461
  741MOL0     H   17   4.368  11.379  11.500 -0.5806  1.7676  0.7844
  741MOL0     H   18   4.347  11.176  11.621  1.3376  0.1148 -1.2845
  741MOL0     H   19   3.662  10.579  11.246 -1.2478 -2.5096 -0.9194
  741MOL0     H   20   3.634  10.508  11.019 -1.6101  1.3805  1.2353
  741MOL0     H   21   3.672  10.532  10.640  0.4218 -1.1377 -0.3442
  741MOL0     H   22   3.589  10.475  10.450  0.1210  0.2514  1.8057
  741MOL0     H   23   3.627  10.513  10.116  0.6833  0.2691  0.2925
  741MOL0     H   24   3.533  10.454  10.254 -3.1862 -1.7287 -1.6804
  741MOL0     H   25   3.596  10.304   9.999 -0.1576  0.6628  0.6048
  741MOL0     H   26   3.444  10.375  10.057 -2.4332 -0.9610  2.0622
  741MOL0     H   27   3.597  10.136  10.175  2.0830  2.0658 -3.4693
  741MOL0     H   28   3.445  10.124  10.080 -0.3314 -0.9563 -0.6946
  741MOL0     H   29   3.419  10.104  10.319  0.0160 -0.5505 -0.8023
  741MOL0     H   30   3.505  10.256  10.355 -0.0659  0.3876 -1.7947
  741MOL0     H   31   3.114  10.396  10.283 -0.2210 -0.6126  0.0462
  741MOL0     H   32   3.961  10.376  10.283  1.2702  0.7706  1.0625
  741MOL0     H   33   4.116  10.320  10.577  1.4483 -0.6758 -1.2363
  741MOL0     H   34   4.157  10.372  10.408 -1.3498 -2.8964  0.4141
  741MOL0     H   35   4.179  10.481  10.537  1.6433 -2.6362  3.4514
  742MOL0     O   36   3.559   2.826  10.234  0.0325  0.1355  0.8074
  742MOL0     C   37   3.593   2.716  10.282 -0.4735  0.0684 -0.8497
  742MOL0     O   38   3.678   2.708  10.397  0.0787  0.2516  0.3525
  742MOL0     C   39   3.715   2.830  10.447  0.3954 -0.4443  0.2806
  742MOL0     C   40   3.631   2.881  10.542 -0.0149  0.4800  0.4705
  742MOL0     C   41   3.654   3.009  10.589 -0.4805 -0.4207  0.5559
  742MOL0     C   42   3.785   3.071  10.556  0.8817 -0.0455  0.2737
  742MOL0     O   43   3.835   3.183  10.611  0.1802  0.0381  0.3546
  742MOL0     C   44   3.744   3.253  10.692  0.7664  0.0863  1.8086
  742MOL0     C   45   3.804   3.394  10.700 -0.3464  0.2068  0.4023
  742MOL0     C   46   3.726   3.488  10.797 -0.2871 -0.6583  1.1293
  742MOL0     C   47   3.585   3.534  10.753 -0.8253 -0.5980 -0.0282
  742MOL0     C   48   3.584   3.611  10.615  0.3673 -0.0320 -0.2860
  742MOL0     C   49   3.448   3.588  10.547 -0.1199 -0.4822  0.1178
  742MOL0     C   50   3.428   3.665  10.415 -0.4943 -0.4304 -0.4156
  742MOL0     C   51   3.426   3.814  10.448 -0.4075 -0.4851 -0.2274
  742MOL0     N   52   3.399   3.896  10.326 -0.2729 -0.2389  0.1051
  742MOL0     C   53   3.488   3.918  10.221 -1.1010 -0.9525  0.6000
  742MOL0     C   54   3.443   4.016  10.156  0.1172 -0.0906 -0.1535
  742MOL0     C   55   3.506   4.086  10.032 -0.1324 -0.3157  0.5782
  742MOL0     C   56   3.450   4.040   9.897 -0.2024 -0.6912  0.0493
  742MOL0     C   57   3.521   4.114   9.781  0.3499  0.1157 -0.1404
  742MOL0     C   58   3.467   4.056   9.653 -0.8728 -0.8004 -0.7251
  742MOL0     O   59   3.538   4.117   9.542  0.0704  0.0947 -0.4675
  742MOL0     C   60   3.509   4.068   9.418 -0.3652 -1.5314 -0.6682
  742MOL0     C   61   3.576   4.143   9.319  0.4306 -0.7657  0.6145
  742MOL0     C   62   3.561   4.097   9.188 -0.8047  0.7082 -0.5690
  742MOL0     C   63   3.474   3.996   9.155 -0.4575  0.2136  0.7908
  742MOL0     C   64   3.468   3.952   9.018 -0.2741  0.8726 -0.3640
  742MOL0     O   65   3.523   4.036   8.923  0.1902 -0.3814 -0.9048
  742MOL0     C   66   3.518   4.004   8.792 -0.1709 -0.7605 -0.2691
  742MOL0     C   67   3.392   3.991   8.730  0.0117 -0.8000 -0.4270
  742MOL0     C   68   3.387   3.947   8.595 -0.8421 -0.8086  0.9691
  742MOL0     C   69   3.499   3.934   8.508  0.5542 -0.4113 -0.1478
  742MOL0     O   70   3.466   3.887   8.376  0.0706 -0.0141 -0.1998
  742MOL0     C   71   3.570   3.796   8.324 -0.4066 -0.2636 -0.7948
  742MOL0     C   72   3.668   3.875   8.241  0.2003  0.3030  0.8244
  742MOL0     C   73   3.716   3.795   8.119  0.6374 -1.1648  0.3942
  742MOL0     C   74   3.842   3.703   8.147 -0.1467 -0.3492  0.0197
  742MOL0     C   75   3.909   3.653   8.016 -0.6404  0.0516  0.8761
  742MOL0     C   76   4.063   3.691   8.012  0.2473 -0.1060 -0.0112
  742MOL0     C   77   4.143   3.639   7.887  0.8815  0.2795  0.3418
  742MOL0     C   78   4.279   3.608   7.930 -0.1539 -1.1165  0.4464
  742MOL0    Cl   79   4.372   3.748   7.979 -0.3576  0.0282 -0.6463
  742MOL0     C   80   3.625   3.939   8.573 -0.1213  0.1758  0.1233
  742MOL0     C   81   3.632   3.986   8.710 -0.6195  0.1763 -0.1093
  742MOL0     O   82   3.413   3.842   8.991  0.0564  0.4283 -0.3934
  742MOL0     C   83   3.396   3.928   9.253  0.9275 -0.1735  0.0175
  742MOL0     C   84   3.428   3.956   9.387 -0.2953 -0.0493 -0.8471
  742MOL0     N   85   3.321   4.050  10.206 -0.3867 -0.1862  0.5184
  742MOL0     N   86   3.291   3.975  10.309  0.1297 -0.0493  0.7508
  742MOL0     C   87   3.869   3.007  10.468  0.5301 -0.3085  0.4273
  742MOL0     C   88   3.833   2.888  10.411  0.1854  0.5581 -0.4973
  742MOL0     C   89   3.561   2.592  10.217 -0.6975 -1.0558  0.5213
  742MOL0     C   90   3.536   2.597  10.070  0.0734  0.2658 -0.6750
  742MOL0     C   91   3.494   2.498   9.978  0.5089  0.2550 -1.1194
  742MOL0     C   92   3.453   2.381  10.041 -1.0432  0.0939 -0.9777
  742MOL0     O   93   3.422   2.273   9.961  0.4585 -0.4871  0.3517
  742MOL0     C   94   3.426   2.139  10.014 -0.7488 -0.6788  0.1836
  742MOL0     C   95   3.417   2.032   9.908  0.8509 -0.2615 -0.0294
  742MOL0     C   96   3.514   2.045   9.788  0.2715  0.0980  0.2750
  742MOL0     C   97   3.661   1.997   9.823  0.5670 -0.6833  0.5271
  742MOL0     C   98   3.741   2.008   9.697 -0.4455  1.0320 -0.7703
  742MOL0     C   99   3.803   2.027   9.601  0.1875 -0.5002  0.6937
  742MOL0     C  100   3.477   2.364  10.184  0.2984 -0.7874 -0.8798
  742MOL0     C  101   3.544   2.461  10.269 -0.1800  0.2817 -1.2055
  742MOL0     C  102   3.567   2.437  10.414 -0.4247 -0.4167 -0.6288
  742MOL0     H  103   3.547   2.817  10.568  0.5290 -1.4711 -2.1410
  742MOL0     H  104   3.587   3.046  10.666 -0.6594 -0.1752  0.2885
  742MOL0     H  105   3.649   3.255  10.639  1.0143  2.2561  1.3518
  742MOL0     H  106   3.735   3.212  10.793  1.5585  1.4967  2.4752
  742MOL0     H  107   3.800   3.419  10.593 -1.5827 -2.8984 -0.4029
  742MOL0     H  108   3.906   3.375  10.736 -0.2681 -1.8567 -0.7117
  742MOL0     H  109   3.791   3.576  10.805  0.8286 -1.3723  0.2004
  742MOL0     H  110   3.718   3.436  10.893  0.9079 -0.4064  1.3917
  742MOL0     H  111   3.530   3.443  10.728  0.3501 -0.9528 -1.4678
  742MOL0     H  112   3.540   3.589  10.836 -0.5918  0.0857 -0.3476
  742MOL0     H  113   3.602   3.716  10.639 -0.3239 -0.2137  1.1246
  742MOL0     H  114   3.664   3.584  10.545 -0.6064 -0.7545 -1.1571
  742MOL0     H  115   3.438   3.481  10.527  0.4249 -0.4425 -0.3890
  742MOL0     H  116   3.377   3.620  10.624  1.6642  0.9050  1.2704
  742MOL0     H  117   3.329   3.645  10.374  0.0033 -2.4051 -0.7214
  742MOL0     H  118   3.500   3.642  10.336 -2.1000 -2.1439 -1.4632
  742MOL0     H  119   3.347   3.831  10.522  0.4590 -1.3626  0.9414
  742MOL0     H  120   3.524   3.853  10.476  0.3102 -0.0611 -2.9755
  742MOL0     H  121   3.585   3.875  10.200 -0.0691  1.0237  1.0865
  742MOL0     H  122   3.483   4.193  10.043  1.4917  0.0654  0.6035
  742MOL0     H  123   3.615   4.077  10.027 -0.1280  0.5669 -1.8309
  742MOL0     H  124   3.448   3.931   9.889 -0.4468 -0.7492  0.7764
  742MOL0     H  125   3.341   4.048   9.896 -0.1594  0.5521  1.3936
  742MOL0     H  126   3.631   4.107   9.780  0.3021 -0.9938  0.2019
  742MOL0     H  127   3.481   4.215   9.786 -0.7998 -0.2273 -1.7200
  742MOL0     H  128   3.362   4.088   9.655 -0.4610  0.8923  3.3193
  742MOL0     H  129   3.475   3.947   9.659 -2.2594 -0.9010 -0.4029
  742MOL0     H  130   3.639   4.226   9.350 -0.1088 -0.1601  0.1067
  742MOL0     H  131   3.627   4.132   9.109 -1.0034  0.6602 -0.7559
  742MOL0     H  132   3.302   4.006   8.789  1.0257 -1.6073  1.3999
  742MOL0     H  133   3.288   3.929   8.553 -1.1057  2.4778 -0.0797
  742MOL0     H  134   3.625   3.734   8.395 -0.8530 -0.0757 -0.2738
  742MOL0     H  135   3.518   3.721   8.264 -1.9884 -0.9021  1.2626
  742MOL0     H  136   3.622   3.967   8.203  1.0574 -0.3103 -1.9187
  742MOL0     H  137   3.759   3.904   8.295  1.3291 -3.7840  1.4473
  742MOL0     H  138   3.630   3.736   8.087  0.8631 -1.4797  0.3671
  742MOL0     H  139   3.728   3.869   8.039 -2.9542  0.2077  0.9523
  742MOL0     H  140   3.823   3.615   8.210  1.8125 -0.0148  1.1736
  742MOL0     H  141   3.919   3.754   8.204 -0.2573 -0.1455 -0.0126
  742MOL0     H  142   3.856   3.704   7.935 -1.0271 -0.7730  0.6004
  742MOL0     H  143   3.897   3.545   8.004  1.2212  0.0363 -1.8542
  742MOL0     H  144   4.075   3.799   8.027  2.9010 -0.4798  1.1041
  742MOL0     H  145   4.092   3.642   8.105 -3.6519  2.7739  3.0673
  742MOL0     H  146   4.133   3.702   7.798  1.0177 -1.0293 -0.6156
  742MOL0     H  147   4.102   3.543   7.855 -0.6929  0.7605  0.8463
  742MOL0     H  148   4.272   3.527   8.003 -1.4199 -3.8738 -2.4891
  742MOL0     H  149   4.323   3.574   7.835 -1.9203 -0.5877 -0.6051
  742MOL0     H  150   3.715   3.932   8.512  0.7512  0.0228  1.3935
  742MOL0     H  151   3.736   4.002   8.737  0.4714 -0.8245 -3.2755
  742MOL0     H  152   3.339   3.839   9.228  0.7859  0.2010 -1.0536
  742MOL0     H  153   3.382   3.892   9.462 -0.3129  1.4126  0.4272
  742MOL0     H  154   3.967   3.052  10.455  0.9165 -0.7110  1.7210
  742MOL0     H  155   3.912   2.836  10.358  0.8729  0.0678  0.9365
  742MOL0     H  156   3.562   2.685  10.011 -1.0314  1.3212  0.3419
  742MOL0     H  157   3.480   2.517   9.872 -1.5828  0.3863 -0.8591
  742MOL0     H  158   3.342   2.148  10.083 -1.1595 -2.1900 -0.0898
  742MOL0     H  159   3.515   2.122  10.076 -1.0478 -1.3971  0.4249
  742MOL0     H  160   3.310   2.030   9.886  0.6787 -0.1823  0.7811
  742MOL0     H  161   3.436   1.934   9.954 -0.3913 -1.7881 -2.5415
  742MOL0     H  162   3.526   2.148   9.751  3.0842 -1.2909 -3.2188
  742MOL0     H  163   3.474   1.990   9.703 -0.7358 -0.4765  1.0979
  742MOL0     H  164   3.694   2.075   9.892 -1.9579  2.3882 -1.4575
  742MOL0     H  165   3.652   1.899   9.870  0.2866 -0.6834  0.4701
  742MOL0     H  166   3.848   2.060   9.510  0.6904  2.2363  1.8264
  742MOL0     H  167   3.445   2.276  10.239 -3.2393  0.3570 -0.8517
  742MOL0     H  168   3.520   2.346  10.453  1.1784 -1.6131 -1.3802
  742MOL0     H  169   3.675   2.427  10.430 -0.2340  0.5138 -1.2599
  742MOL0     H  170   3.519   2.518  10.469 -1.6532 -1.1305 -0.6176
  743MOL0     O  171  10.514   4.321  11.043 -0.7126  0.1574 -0.3442
  743MOL0     C  172  10.459   4.418  10.998  0.2461  0.2221  0.1905
  743MOL0     O  173  10.452   4.459  10.867  0.3691 -0.3587  0.5210
  743MOL0     C  174  10.501   4.365  10.779  0.2095  0.8135  0.4402
  743MOL0     C  175  10.641   4.328  10.771 -0.3180  0.3151 -0.2603
  743MOL0     C  176  10.676   4.234  10.674 -0.5017  0.1807 -0.1783
  743MOL0     C  177  10.584   4.167  10.594  0.9501 -0.7695  0.1953
  743MOL0     O  178  10.629   4.074  10.501 -0.2288  0.0315  0.0828
  743MOL0     C  179  10.550   4.051  10.382 -1.5683 -0.0000  0.0556
  743MOL0     C  180  10.460   3.927  10.389  0.0008 -0.6600 -0.7162
  743MOL0     C  181  10.440   3.859  10.254 -0.6378 -0.4033 -0.8472
  743MOL0     C  182  10.352   3.746  10.271  0.1926 -0.2862 -0.4895
  743MOL0     C  183  10.330   3.672  10.137 -0.3054 -0.4035  0.0037
  743MOL0     C  184  10.193   3.605  10.130  0.0294  0.8687  0.0570
  743MOL0     C  185  10.161   3.587   9.977 -1.1788 -0.1938 -0.2672
  743MOL0     C  186  10.039   3.496   9.947  0.0835 -0.4419  1.4505
  743MOL0     N  187   9.921   3.568   9.967  0.1992  0.1930  0.3312
  743MOL0     C  188   9.816   3.534  10.055 -0.0346  0.2831  0.3349
  743MOL0     C  189   9.715   3.619  10.007 -0.1935 -0.1768 -0.4794
  743MOL0     C  190   9.570   3.621  10.064 -0.5256 -1.1572  0.6749
  743MOL0     C  191   9.540   3.760  10.122  0.2359  0.0800  0.5280
  743MOL0     C  192   9.557   3.767  10.279  0.0699 -0.0464 -0.5795
  743MOL0     C  193   9.693   3.711  10.326  0.0888 -0.1817 -0.1551
  743MOL0     O  194   9.667   3.588  10.388 -0.9381  0.6041  0.2296
  743MOL0     C  195   9.777   3.519  10.436  0.0955 -0.8700  0.5770
  743MOL0     C  196   9.747   3.408  10.514  0.4907  0.0541 -0.2295
  743MOL0     C  197   9.850   3.321  10.561  0.1099 -0.3590  0.4558
  743MOL0     C  198   9.987   3.351  10.523  0.9900  0.7948  0.3547
  743MOL0     C  199  10.092   3.260  10.575  0.3538  0.6097  0.6055
  743MOL0     O  200  10.208   3.264  10.523 -0.8302 -0.5749  0.3990
  743MOL0     C  201  10.320   3.201  10.578  0.6502 -0.5774 -0.8648
  743MOL0     C  202  10.430   3.287  10.593  0.3709 -0.4607  0.4114
  743MOL0     C  203  10.553   3.229  10.646  0.0900 -0.7264  0.3173
  743MOL0     C  204  10.563   3.099  10.681  0.8660  0.2384  0.1460
  743MOL0     O  205  10.677   3.052  10.739 -0.4101 -0.2328 -0.0241
  743MOL0     C  206  10.685   2.933  10.808  0.2981  1.4003  0.4580
  743MOL0     C  207  10.829   2.882  10.823 -0.4320 -1.5661 -0.8760
  743MOL0     C  208  10.883   2.956  10.950  0.8225 -0.1335  0.6809
  743MOL0     C  209  11.018   2.899  11.001 -0.0270  0.4487 -0.8803
  743MOL0     C  210  11.128   2.917  10.907 -0.0599 -0.6583  0.5784
  743MOL0     C  211  11.250   2.951  10.983  0.5969  0.1684 -0.0054
  743MOL0     C  212  11.314   2.818  11.041 -0.3693 -0.5856  0.1596
  743MOL0     C  213  11.455   2.835  11.106 -0.0799  0.4398 -1.0574
  743MOL0    Cl  214  11.562   2.872  10.975 -0.3506 -0.1252 -0.1196
  743MOL0     C  215  10.449   3.016  10.663  0.0039  1.4145  0.3259
  743MOL0     C  216  10.323   3.066  10.611  1.4448 -0.0961  0.6580
  743MOL0     O  217  10.061   3.195  10.674 -0.2312 -0.0464 -0.0694
  743MOL0     C  218  10.018   3.471  10.448 -0.0047  0.3142 -0.0661
  743MOL0     C  219   9.914   3.560  10.412 -0.5551 -0.6861 -0.5210
  743MOL0     N  220   9.758   3.694   9.906 -0.3408 -0.6307 -0.6378
  743MOL0     N  221   9.875   3.662   9.880 -0.0467 -0.1526  0.3966
  743MOL0     C  222  10.445   4.199  10.615 -0.1183  0.5710 -0.3100
  743MOL0     C  223  10.401   4.297  10.701 -0.1431  0.4218  0.4558
  743MOL0     C  224  10.387   4.520  11.080  0.4979  0.6226  0.6897
  743MOL0     C  225  10.367   4.655  11.031 -0.1006 -0.6747 -0.5402
  743MOL0     C  226  10.339   4.755  11.125  0.2599 -0.3118 -0.3692
  743MOL0     C  227  10.299   4.728  11.258 -0.2155  0.1974 -0.0939
  743MOL0     O  228  10.263   4.822  11.347  0.2261 -0.0708  0.3904
  743MOL0     C  229  10.273   4.963  11.319 -0.1976  0.6506  0.3087
  743MOL0     C  230  10.408   5.031  11.329 -0.8018  0.0552 -0.8482
  743MOL0     C  231  10.476   5.016  11.470 -0.7897 -0.0267 -0.5905
  743MOL0     C  232  10.483   5.155  11.537 -0.4214 -1.1236 -0.5478
  743MOL0     C  233  10.583   5.258  11.475 -0.0339 -0.3331 -0.5944
  743MOL0     C  234  10.658   5.340  11.429 -0.1081  0.1652 -0.0494
  743MOL0     C  235  10.297   4.595  11.293  0.2953  0.1065 -1.0826
  743MOL0     C  236  10.344   4.487  11.212 -0.7388 -0.3636  1.7009
  743MOL0     C  237  10.336   4.342  11.259 -0.4788 -0.9422  0.6793
  743MOL0     H  238  10.725   4.374  10.821 -0.1910 -0.3198  0.1220
  743MOL0     H  239  10.780   4.209  10.660  0.0595  1.8495  0.7963
  743MOL0     H  240  10.484   4.137  10.366  2.0350  2.5938 -2.7264
  743MOL0     H  241  10.608   4.048  10.289 -1.5644  0.3574  0.0445
  743MOL0     H  242  10.359   3.950  10.423  0.1971  1.0673 -1.1970
  743MOL0     H  243  10.511   3.856  10.455 -0.1208  2.4616  3.0704
  743MOL0     H  244  10.528   3.808  10.213 -1.1449 -0.4156 -1.9521
  743MOL0     H  245  10.414   3.936  10.181 -0.3219  0.0859 -0.4466
  743MOL0     H  246  10.388   3.683  10.353  0.9234  0.9317  0.1480
  743MOL0     H  247  10.256   3.781  10.311  0.4537 -1.4317  1.2449
  743MOL0     H  248  10.329   3.741  10.052 -2.5457 -1.2188 -0.7181
  743MOL0     H  249  10.408   3.598  10.115  2.1177  1.5676  1.4432
  743MOL0     H  250  10.202   3.507  10.179  1.4216  0.1112 -1.6130
  743MOL0     H  251  10.116   3.671  10.169  1.3840  1.9119  1.0796
  743MOL0     H  252  10.242   3.536   9.923  1.1155  1.6241  1.2985
  743MOL0     H  253  10.143   3.679   9.921 -2.7800 -2.4204 -3.7733
  743MOL0     H  254  10.037   3.468   9.842  0.8239  0.7821  1.0984
  743MOL0     H  255  10.038   3.411  10.016  1.4055 -1.3494  0.4024
  743MOL0     H  256   9.798   3.462  10.135 -1.2247 -1.5307 -1.4878
  743MOL0     H  257   9.503   3.605   9.978  0.9958  1.8795 -1.2386
  743MOL0     H  258   9.549   3.544  10.139 -1.2559 -1.4999  0.1365
  743MOL0     H  259   9.612   3.831  10.078 -0.9194  0.7935 -0.2543
  743MOL0     H  260   9.445   3.807  10.095  0.4858 -0.4851 -1.4907
  743MOL0     H  261   9.475   3.719  10.334  2.5685 -1.2640  2.3189
  743MOL0     H  262   9.555   3.876  10.293 -0.2262  0.2676 -2.6999
  743MOL0     H  263   9.723   3.782  10.404  1.1676  0.2705 -0.9555
  743MOL0     H  264   9.759   3.708  10.239 -2.3082 -2.3218 -2.0668
  743MOL0     H  265   9.644   3.410  10.548  1.0866  3.9947  2.0035
  743MOL0     H  266   9.817   3.240  10.626 -0.5300 -0.3024  0.2089
  743MOL0     H  267  10.425   3.388  10.554 -1.7438 -1.7098 -3.0503
  743MOL0     H  268  10.640   3.293  10.665  0.1529 -1.0818  1.2968
  743MOL0     H  269  10.624   2.934  10.899  0.4555  0.8954  0.5709
  743MOL0     H  270  10.632   2.858  10.750  1.4640  2.4327 -2.0886
  743MOL0     H  271  10.839   2.779  10.856  0.1205 -0.7519  1.7397
  743MOL0     H  272  10.878   2.882  10.725 -1.2028 -3.5782 -1.3085
  743MOL0     H  273  10.899   3.059  10.918  1.6833 -0.6958 -0.7618
  743MOL0     H  274  10.813   2.955  11.035  0.2428 -3.7838  0.3647
  743MOL0     H  275  11.016   2.793  11.029  1.5679  0.7878  0.7436
  743MOL0     H  276  11.037   2.953  11.095 -2.0869  0.4735 -0.4310
  743MOL0     H  277  11.111   3.006  10.845  2.7310  0.0825  0.7560
  743MOL0     H  278  11.134   2.829  10.842 -3.3049 -0.4808 -0.1585
  743MOL0     H  279  11.317   3.000  10.912  1.8417  0.0789  1.0460
  743MOL0     H  280  11.228   3.012  11.072  3.3805 -0.3975  1.1824
  743MOL0     H  281  11.313   2.750  10.956 -2.6831 -0.3376 -0.0676
  743MOL0     H  282  11.246   2.773  11.114 -0.0247 -2.3619 -0.5811
  743MOL0     H  283  11.463   2.913  11.182  3.7405 -1.5924  0.9550
  743MOL0     H  284  11.472   2.742  11.162 -1.3325  1.9864  2.1731
  743MOL0     H  285  10.448   2.916  10.705 -0.0974  2.4221  2.8976
  743MOL0     H  286  10.249   2.987  10.600 -1.5379  2.3729  1.5597
  743MOL0     H  287  10.119   3.491  10.411  0.6090 -0.9919  0.7983
  743MOL0     H  288   9.954   3.653  10.374  1.1601 -0.9753  0.4802
  743MOL0     H  289  10.380   4.143  10.549  0.6898 -0.1929 -0.4717
  743MOL0     H  290  10.297   4.324  10.712 -1.2154 -3.1496  0.4248
  743MOL0     H  291  10.398   4.679  10.930 -1.6659 -1.7212 -1.3048
  743MOL0     H  292  10.373   4.852  11.089 -0.0889 -0.0741 -0.0754
  743MOL0     H  293  10.204   5.016  11.387 -0.2089  1.3640 -0.2470
  743MOL0     H  294  10.232   4.983  11.219  0.1345  0.6428  0.1707
  743MOL0     H  295  10.386   5.136  11.305  1.5772  0.9182  0.3769
  743MOL0     H  296  10.476   4.998  11.250 -1.5085 -0.6684 -1.1670
  743MOL0     H  297  10.576   4.973  11.475 -1.6048 -2.2711 -1.8295
  743MOL0     H  298  10.414   4.952  11.534 -0.8492  0.4542 -0.1576
  743MOL0     H  299  10.381   5.194  11.547 -0.0306 -0.1001 -0.3660
  743MOL0     H  300  10.517   5.144  11.640 -1.2121 -2.6912 -0.4281
  743MOL0     H  301  10.722   5.411  11.382  0.5785 -0.8481 -0.6915
  743MOL0     H  302  10.240   4.579  11.384 -0.4913 -1.6596 -1.8380
  743MOL0     H  303  10.276   4.343  11.351  0.1554 -0.0361  1.1016
  743MOL0     H  304  10.282   4.289  11.180  0.0474  1.4075 -1.3859
  743MOL0     H  305  10.430   4.287  11.271  1.4382  1.8001 -0.5748
  744MOL0     O  306   9.283   6.867   3.442  0.1583  0.0078 -0.2703
  744MOL0     C  307   9.204   6.807   3.365  0.3711 -0.4580 -0.3987
  744MOL0     O  308   9.162   6.673   3.375  0.0759 -0.3485  0.8195
  744MOL0     C  309   9.226   6.586   3.453 -0.2891 -0.4646  0.2118
  744MOL0     C  310   9.141   6.511   3.536 -0.2973 -0.3601 -0.0021
  744MOL0     C  311   9.193   6.429   3.634 -0.6108 -0.0202  0.2001
  744MOL0     C  312   9.332   6.410   3.653 -0.2482 -1.0861  0.1059
  744MOL0     O  313   9.365   6.338   3.755  0.0843  0.4175 -0.3363
  744MOL0     C  314   9.500   6.286   3.782 -0.3448  0.5540  0.1198
  744MOL0     C  315   9.498   6.196   3.899  0.1760  0.1524  0.1361
  744MOL0     C  316   9.443   6.262   4.026 -0.4906  0.8205 -0.0351
  744MOL0     C  317   9.454   6.182   4.156 -0.3859 -0.5309 -0.0779
  744MOL0     C  318   9.414   6.280   4.273  0.3199  0.3413  0.0802
  744MOL0     C  319   9.441   6.225   4.414  0.8189  0.5778  0.2102
  744MOL0     C  320   9.333   6.124   4.447 -1.3541  0.7424  0.2423
  744MOL0     C  321   9.364   6.053   4.578 -0.5315 -0.1511  0.1173
  744MOL0     N  322   9.283   5.931   4.603 -0.2325  0.5548 -0.3504
  744MOL0     C  323   9.266   5.823   4.515 -0.1926  0.5585  0.1127
  744MOL0     C  324   9.161   5.753   4.578  0.0994  0.6086  0.6869
  744MOL0     C  325   9.079   5.637   4.525  0.1156 -0.4496  0.4905
  744MOL0     C  326   9.145   5.502   4.557  0.5363 -0.1165  0.1525
  744MOL0     C  327   9.279   5.474   4.476  0.1899 -0.0742 -0.4180
  744MOL0     C  328   9.249   5.418   4.333  0.1097 -0.1891 -0.4007
  744MOL0     O  329   9.229   5.270   4.329  0.3360  0.2568  0.1613
  744MOL0     C  330   9.346   5.197   4.289  0.8131  0.8116 -0.3548
  744MOL0     C  331   9.329   5.107   4.186 -0.1020  0.3412 -0.1457
  744MOL0     C  332   9.444   5.036   4.140  0.3961  0.3426  0.0273
  744MOL0     C  333   9.571   5.046   4.196  0.0191 -1.2901 -0.2288
  744MOL0     C  334   9.702   5.002   4.137  0.4636  0.2090 -0.1423
  744MOL0     O  335   9.696   4.965   4.009  0.3110  0.3704  0.6984
  744MOL0     C  336   9.813   4.923   3.952 -1.0943 -0.2191  0.1645
  744MOL0     C  337   9.829   4.799   3.904  0.9283  0.1970 -0.7075
  744MOL0     C  338   9.940   4.754   3.846 -0.2043 -0.8011  0.5087
  744MOL0     C  339  10.058   4.827   3.847 -0.7804 -0.9054  0.5509
  744MOL0     O  340  10.166   4.773   3.778  0.9020  0.4815  0.2777
  744MOL0     C  341  10.288   4.793   3.846  0.3081 -0.8605  0.0403
  744MOL0     C  342  10.397   4.722   3.775  0.0879  0.1091  0.3194
  744MOL0     C  343  10.421   4.810   3.647 -0.8912 -0.0734 -0.4554
  744MOL0     C  344  10.555   4.767   3.572  0.3972 -0.9060 -0.0284
  744MOL0     C  345  10.541   4.635   3.488 -0.4912 -0.6856 -0.2007
  744MOL0     C  346  10.638   4.621   3.377  0.2271  0.1645 -0.2603
  744MOL0     C  347  10.616   4.489   3.299  1.0764 -0.7894  0.0993
  744MOL0     C  348  10.717   4.475   3.177  0.7626 -0.8561  0.1421
  744MOL0    Cl  349  10.858   4.374   3.212 -0.0896  0.2969  0.0929
  744MOL0     C  350  10.055   4.960   3.886 -0.1111 -0.6358 -0.6210
  744MOL0     C  351   9.933   5.004   3.937 -0.0295  0.9321 -0.1521
  744MOL0     O  352   9.810   5.013   4.209  0.0642  0.6216  0.4323
  744MOL0     C  353   9.577   5.126   4.318  0.3833 -1.2233  0.5212
  744MOL0     C  354   9.468   5.213   4.352  0.9219  0.3767 -0.6981
  744MOL0     N  355   9.133   5.817   4.700 -0.1115 -0.4372  1.0720
  744MOL0     N  356   9.202   5.926   4.712 -0.9680 -0.3695 -1.4791
  744MOL0     C  357   9.416   6.477   3.565  0.4607  0.0872  0.2335
  744MOL0     C  358   9.367   6.570   3.474  0.2555  0.3033 -0.0850
  744MOL0     C  359   9.145   6.882   3.252 -0.7227 -1.5485  0.7967
  744MOL0     C  360   9.049   6.811   3.171  0.7304 -0.2914  0.5303
  744MOL0     C  361   8.985   6.878   3.066  0.5998  0.3420  1.4989
  744MOL0     C  362   9.004   7.013   3.038 -0.9591  0.5193  0.3023
  744MOL0     O  363   8.927   7.062   2.940  0.0672  0.1269  0.7711
  744MOL0     C  364   8.898   7.200   2.937  0.2755 -0.0828  0.6151
  744MOL0     C  365   8.769   7.224   2.856 -0.8485 -0.1619 -0.1977
  744MOL0     C  366   8.652   7.174   2.942  0.4330 -0.2119  0.0868
  744MOL0     C  367   8.539   7.132   2.852 -0.4700  0.3996  0.0559
  744MOL0     C  368   8.476   7.241   2.775  0.8623 -0.1020  0.0375
  744MOL0     C  369   8.432   7.330   2.707 -0.9955 -0.2620 -0.0803
  744MOL0     C  370   9.109   7.079   3.108  0.3168  0.3493  0.8014
  744MOL0     C  371   9.179   7.014   3.210  0.1291 -0.3417  1.1541
  744MOL0     C  372   9.267   7.106   3.284  0.0473  0.0677 -1.3654
  744MOL0     H  373   9.036   6.525   3.513 -0.0608  4.5346  0.7259
  744MOL0     H  374   9.130   6.381   3.709 -1.2038  1.6977  0.8670
  744MOL0     H  375   9.535   6.228   3.697 -0.3657  1.2267 -0.3614
  744MOL0     H  376   9.560   6.377   3.790  1.9972 -0.7641 -1.2984
  744MOL0     H  377   9.603   6.169   3.915  0.4728  1.7166  1.1218
  744MOL0     H  378   9.445   6.103   3.878  2.0348 -1.1825  1.0284
  744MOL0     H  379   9.338   6.287   4.012 -0.8160  1.1311  2.4645
  744MOL0     H  380   9.498   6.357   4.031  0.2697  0.3481  1.7875
  744MOL0     H  381   9.384   6.098   4.161  0.5283 -1.2904  0.4559
  744MOL0     H  382   9.555   6.141   4.170  0.6613  2.0150  0.3900
  744MOL0     H  383   9.477   6.369   4.263 -1.1526  1.5647  1.2550
  744MOL0     H  384   9.311   6.315   4.264 -0.4879 -1.9139  0.0903
  744MOL0     H  385   9.542   6.183   4.408  1.6371  2.5321 -4.1156
  744MOL0     H  386   9.436   6.310   4.482  2.7447  1.7160 -0.9584
  744MOL0     H  387   9.337   6.046   4.370  0.1749 -0.9025  1.8582
  744MOL0     H  388   9.236   6.173   4.456 -0.3113  3.0968 -0.4164
  744MOL0     H  389   9.472   6.036   4.585 -0.3110  0.2910 -1.7973
  744MOL0     H  390   9.351   6.130   4.656 -0.2654  2.2276 -2.0437
  744MOL0     H  391   9.307   5.825   4.415 -1.5564 -2.6623 -0.6548
  744MOL0     H  392   8.975   5.633   4.559 -0.5669  0.1381 -1.4022
  744MOL0     H  393   9.067   5.653   4.417  1.0993 -2.4349  0.0343
  744MOL0     H  394   9.172   5.524   4.661 -0.1060 -1.1950  0.5667
  744MOL0     H  395   9.070   5.426   4.535 -1.7875  1.4464  2.0712
  744MOL0     H  396   9.332   5.404   4.541 -2.3028  0.4525  2.3940
  744MOL0     H  397   9.331   5.569   4.473  0.4070 -0.2042 -2.7854
  744MOL0     H  398   9.335   5.441   4.270  1.6480  0.2802  1.7277
  744MOL0     H  399   9.165   5.473   4.288  0.2496 -0.6733 -1.2760
  744MOL0     H  400   9.235   5.096   4.133  0.5857  2.2194 -1.8826
  744MOL0     H  401   9.435   4.967   4.058 -0.2724 -0.1660  0.5107
  744MOL0     H  402   9.756   4.720   3.919  0.6459  0.7304  0.8583
  744MOL0     H  403   9.937   4.652   3.809  0.6173  0.3388 -3.0810
  744MOL0     H  404  10.322   4.897   3.854  3.4974 -1.6995 -1.3489
  744MOL0     H  405  10.294   4.749   3.945 -0.5827 -2.5507 -0.6105
  744MOL0     H  406  10.489   4.722   3.836  0.0880  3.6903  0.5325
  744MOL0     H  407  10.367   4.618   3.764  0.9720  0.0642 -2.2854
  744MOL0     H  408  10.337   4.807   3.577 -3.5117  2.4060  2.2651
  744MOL0     H  409  10.426   4.917   3.673  2.4163 -0.5362  1.3490
  744MOL0     H  410  10.626   4.766   3.655 -0.8544 -2.1737  1.0668
  744MOL0     H  411  10.570   4.849   3.501 -0.3411 -0.3331  0.4772
  744MOL0     H  412  10.445   4.637   3.435 -0.0780  0.2889 -0.9613
  744MOL0     H  413  10.540   4.551   3.558  0.0767 -0.5118  0.0247
  744MOL0     H  414  10.617   4.710   3.316 -0.7843  0.2113  0.1268
  744MOL0     H  415  10.740   4.618   3.417  0.4532  0.9968 -0.7343
  744MOL0     H  416  10.519   4.490   3.249  1.1121  1.4175 -0.0118
  744MOL0     H  417  10.628   4.396   3.356  0.3005 -1.2860 -0.5242
  744MOL0     H  418  10.663   4.421   3.099  3.4291 -3.7767  0.1263
  744MOL0     H  419  10.733   4.576   3.138 -4.3089 -0.8622 -2.8261
  744MOL0     H  420  10.147   5.018   3.891 -0.3506 -0.1979 -1.3105
  744MOL0     H  421   9.938   5.108   3.970 -0.4269  1.2332 -0.9928
  744MOL0     H  422   9.670   5.145   4.370  0.8483 -1.3210 -0.2653
  744MOL0     H  423   9.477   5.283   4.435  0.4828  0.8220 -1.0203
  744MOL0     H  424   9.519   6.473   3.598  0.3221 -2.6438  0.5970
  744MOL0     H  425   9.449   6.634   3.442  0.7158 -0.8119 -1.2223
  744MOL0     H  426   9.020   6.711   3.201  1.4959 -0.8391 -0.4952
  744MOL0     H  427   8.905   6.828   3.012  1.0927 -1.1618  2.1093
  744MOL0     H  428   8.986   7.237   2.883  2.6555 -3.1534  2.1051
  744MOL0     H  429   8.896   7.241   3.039  2.4320  0.2931  0.5478
  744MOL0     H  430   8.783   7.173   2.760  1.2219  1.2503 -0.7027
  744MOL0     H  431   8.771   7.330   2.831  2.6415 -0.0007  0.2722
  744MOL0     H  432   8.609   7.256   3.000 -1.3505 -1.2890  0.3841
  744MOL0     H  433   8.689   7.093   3.005  4.6935  1.6401  0.2928
  744MOL0     H  434   8.571   7.045   2.793 -1.5246 -0.1985  0.3199
  744MOL0     H  435   8.462   7.089   2.918  0.4806  1.2442  1.7841
  744MOL0     H  436   8.386   7.409   2.651 -1.7154 -1.8467 -1.7879
  744MOL0     H  437   9.118   7.183   3.077  1.0846  0.0847  0.0948
  744MOL0     H  438   9.292   7.080   3.387 -0.2332 -0.0502 -1.3267
  744MOL0     H  439   9.366   7.117   3.240  0.8914  0.4817  0.5406
  744MOL0     H  440   9.221   7.205   3.296 -0.8904 -0.5543  0.7622
  745MOL0     O  441   1.976   6.555   5.461 -0.0838  0.3721 -0.2625
  745MOL0     C  442   1.948   6.644   5.543 -0.0988  0.9013 -0.3927
  745MOL0     O  443   1.892   6.617   5.662  0.6933  0.3946  0.2891
  745MOL0     C  444   1.869   6.489   5.705 -0.2790 -0.2553 -0.1176
  745MOL0     C  445   1.951   6.371   5.695  0.1982 -0.0724  0.6906
  745MOL0     C  446   1.926   6.255   5.775 -1.1283 -0.2996  0.1766
  745MOL0     C  447   1.800   6.245   5.833 -0.6363  0.0085  0.2124
  745MOL0     O  448   1.746   6.134   5.888  0.0341 -0.0329  0.4757
  745MOL0     C  449   1.842   6.041   5.930 -0.1104  0.3292  0.1230
  745MOL0     C  450   1.774   5.931   6.007 -0.0557  0.3928 -0.2531
  745MOL0     C  451   1.866   5.815   6.010  1.3213  0.1359  0.4465
  745MOL0     C  452   1.786   5.695   6.064 -0.0225  0.5060 -0.3861
  745MOL0     C  453   1.881   5.573   6.070  0.1621  0.5781  0.2021
  745MOL0     C  454   1.829   5.445   6.138  0.1957  0.1624  0.2626
  745MOL0     C  455   1.935   5.340   6.166  0.2594  0.0314 -0.6231
  745MOL0     C  456   1.893   5.222   6.250  0.8456  0.8233 -0.6016
  745MOL0     N  457   1.811   5.113   6.200 -0.0498 -0.0239  0.0999
  745MOL0     C  458   1.671   5.111   6.170 -1.4809  0.4799 -0.0820
  745MOL0     C  459   1.652   5.000   6.103 -0.6715  1.0453 -0.1260
  745MOL0     C  460   1.531   4.929   6.052 -0.5665  0.3329 -0.5697
  745MOL0     C  461   1.560   4.863   5.919 -0.1696 -1.1861 -0.5941
  745MOL0     C  462   1.438   4.793   5.853  0.1473  0.0825  0.4762
  745MOL0     C  463   1.484   4.723   5.720  0.8453  0.3578 -0.5696
  745MOL0     O  464   1.358   4.665   5.668 -0.1695  0.3716 -0.3212
  745MOL0     C  465   1.347   4.640   5.535 -0.2366  0.4513 -0.3432
  745MOL0     C  466   1.456   4.594   5.461 -0.4688  0.8955  0.2286
  745MOL0     C  467   1.439   4.560   5.323  0.4081 -0.1772  0.0702
  745MOL0     C  468   1.311   4.567   5.264  0.2430 -0.5054  1.0898
  745MOL0     C  469   1.282   4.517   5.132 -1.5054  0.2978  0.6112
  745MOL0     O  470   1.385   4.507   5.039 -0.6757 -0.2735  0.1216
  745MOL0     C  471   1.363   4.470   4.910 -0.2432 -0.7326 -0.1139
  745MOL0     C  472   1.372   4.335   4.874  0.2848 -0.2803  0.9950
  745MOL0     C  473   1.336   4.303   4.746 -0.0106  0.9084  0.0872
  745MOL0     C  474   1.301   4.389   4.645  0.3818  0.0647 -0.9158
  745MOL0     O  475   1.260   4.340   4.521 -0.1719  0.0588  0.1726
  745MOL0     C  476   1.282   4.429   4.413 -0.4541  0.2783  0.1169
  745MOL0     C  477   1.159   4.511   4.389  0.7292 -0.5923 -0.2975
  745MOL0     C  478   1.019   4.447   4.343 -0.0522  0.9403 -0.4989
  745MOL0     C  479   0.893   4.527   4.341  0.6143 -0.5916  0.6452
  745MOL0     C  480   0.896   4.629   4.233 -0.6494  0.1153 -0.5413
  745MOL0     C  481   0.765   4.707   4.248 -0.5917  0.6943 -0.9074
  745MOL0     C  482   0.778   4.828   4.155  0.3539 -0.3112 -0.8419
  745MOL0     C  483   0.628   4.859   4.114 -0.9716 -0.0277 -0.1326
  745MOL0    Cl  484   0.532   4.729   4.027  0.4833  0.1824  0.0717
  745MOL0     C  485   1.302   4.525   4.685  0.1118  0.1991 -0.4322
  745MOL0     C  486   1.337   4.568   4.812 -0.3546  0.0189 -1.2693
  745MOL0     O  487   1.168   4.487   5.096 -0.3010 -0.1417 -0.4043
  745MOL0     C  488   1.203   4.623   5.340 -0.8870  0.4631  0.5843
  745MOL0     C  489   1.219   4.638   5.481  0.0946  0.2102  0.2908
  745MOL0     N  490   1.780   4.934   6.086 -0.5618 -0.7961  0.3196
  745MOL0     N  491   1.868   5.000   6.154  0.1140 -0.4262  0.1664
  745MOL0     C  492   1.713   6.356   5.834 -0.2504 -0.2452 -0.2229
  745MOL0     C  493   1.755   6.482   5.787  0.3940  0.7950 -0.1249
  745MOL0     C  494   1.998   6.783   5.521 -0.1428 -0.7276  0.1105
  745MOL0     C  495   2.023   6.866   5.637 -0.4353 -0.2142 -0.8453
  745MOL0     C  496   2.099   6.978   5.629  0.5325  0.1167 -0.7746
  745MOL0     C  497   2.165   7.015   5.515  0.6589  0.0171  0.1166
  745MOL0     O  498   2.237   7.134   5.511 -0.6200  0.7771  0.4953
  745MOL0     C  499   2.374   7.111   5.477  0.5923  0.0406  0.9691
  745MOL0     C  500   2.459   7.198   5.566 -0.2397 -0.1453  0.1581
  745MOL0     C  501   2.573   7.109   5.624 -0.2646 -0.1790  0.9389
  745MOL0     C  502   2.688   7.193   5.683  0.2690 -0.1788  0.6396
  745MOL0     C  503   2.765   7.106   5.764 -0.0454  0.4175  0.6288
  745MOL0     C  504   2.831   7.022   5.820 -0.0610  0.6785  0.8718
  745MOL0     C  505   2.134   6.941   5.400  0.3543  0.1867  0.2857
  745MOL0     C  506   2.043   6.832   5.393 -0.7647 -0.8502  0.0076
  745MOL0     C  507   2.010   6.773   5.260 -0.6819  0.1176  0.5154
  745MOL0     H  508   2.043   6.373   5.637 -0.7655  0.6208 -0.8663
  745MOL0     H  509   2.009   6.187   5.787 -0.8680 -0.0868 -0.3756
  745MOL0     H  510   1.897   5.996   5.847 -0.0082  0.4152  0.1440
  745MOL0     H  511   1.914   6.089   5.996 -1.9220  1.3087  1.4936
  745MOL0     H  512   1.680   5.897   5.963 -0.1212 -1.8944  1.4523
  745MOL0     H  513   1.758   5.973   6.107  0.2600  2.2081 -0.9218
  745MOL0     H  514   1.955   5.836   6.069  1.0343  2.7070  0.0857
  745MOL0     H  515   1.895   5.791   5.907 -2.2487 -0.9517 -0.4693
  745MOL0     H  516   1.735   5.706   6.160  2.6632 -0.4943  1.2628
  745MOL0     H  517   1.712   5.657   5.993  0.7493 -4.8469  1.2089
  745MOL0     H  518   1.895   5.553   5.963 -2.6513  1.9859 -0.5359
  745MOL0     H  519   1.975   5.611   6.111 -0.3688  1.2694  0.8136
  745MOL0     H  520   1.771   5.471   6.227 -1.4720  1.4967 -1.1525
  745MOL0     H  521   1.769   5.393   6.062  0.8734 -0.0812 -0.1150
  745MOL0     H  522   2.021   5.380   6.222  0.9937  1.8889 -2.8915
  745MOL0     H  523   1.976   5.320   6.066  1.6246  0.1171 -0.1097
  745MOL0     H  524   1.983   5.173   6.287 -1.6660 -2.6317  1.5372
  745MOL0     H  525   1.841   5.256   6.341 -0.6618 -1.5772 -0.4789
  745MOL0     H  526   1.597   5.186   6.195  0.1848  1.9169  0.8278
  745MOL0     H  527   1.506   4.849   6.122 -0.5891  1.5846  0.8952
  745MOL0     H  528   1.450   5.002   6.042 -0.1430  0.4745 -4.9640
  745MOL0     H  529   1.596   4.952   5.866 -3.3084  1.5398  1.4940
  745MOL0     H  530   1.631   4.782   5.942  1.0786  0.0962  0.2397
  745MOL0     H  531   1.370   4.875   5.829  3.9857  3.6863  0.8855
  745MOL0     H  532   1.408   4.723   5.932  0.7588  0.3517  0.9494
  745MOL0     H  533   1.556   4.642   5.736  0.0506 -0.3449 -0.5287
  745MOL0     H  534   1.514   4.804   5.652  0.9822 -0.3183 -1.3315
  745MOL0     H  535   1.558   4.583   5.499  0.5172 -2.7213 -2.7654
  745MOL0     H  536   1.515   4.511   5.263 -4.3265 -4.7273 -3.1927
  745MOL0     H  537   1.402   4.258   4.944  3.6583 -0.4447 -0.4291
  745MOL0     H  538   1.342   4.203   4.702 -1.8803  0.2507  1.2262
  745MOL0     H  539   1.372   4.485   4.441  0.1037 -1.7067  2.6405
  745MOL0     H  540   1.309   4.379   4.319 -1.5593  1.8275 -1.0721
  745MOL0     H  541   1.132   4.576   4.473 -3.2585 -2.7472  0.3304
  745MOL0     H  542   1.181   4.572   4.301 -2.2563 -0.0752 -0.7744
  745MOL0     H  543   1.038   4.405   4.244  1.1747  1.2958 -0.4308
  745MOL0     H  544   1.011   4.360   4.407  1.5567  1.0306 -0.1286
  745MOL0     H  545   0.889   4.580   4.437  2.5192  0.1842  0.3413
  745MOL0     H  546   0.816   4.452   4.321  0.7260 -0.2801 -1.1355
  745MOL0     H  547   0.910   4.581   4.136 -0.3116  1.6896 -1.2930
  745MOL0     H  548   0.977   4.701   4.249 -1.6396  0.8468  1.4970
  745MOL0     H  549   0.676   4.650   4.219 -1.4238  0.9215  1.0073
  745MOL0     H  550   0.744   4.742   4.350 -4.2005 -2.4036 -0.3608
  745MOL0     H  551   0.841   4.817   4.066 -0.4774 -0.9496 -1.3732
  745MOL0     H  552   0.815   4.913   4.212 -0.2521  0.9059 -2.1949
  745MOL0     H  553   0.571   4.878   4.205 -0.6709  0.9090 -0.1348
  745MOL0     H  554   0.633   4.946   4.048  0.3732 -1.1739 -1.6166
  745MOL0     H  555   1.279   4.610   4.621  1.3611  0.7511 -0.1921
  745MOL0     H  556   1.336   4.673   4.839  4.1676  0.7484 -3.0966
  745MOL0     H  557   1.111   4.643   5.286  0.3051  1.6740 -1.0903
  745MOL0     H  558   1.141   4.668   5.550 -0.6653 -3.1306  1.0711
  745MOL0     H  559   1.621   6.338   5.890 -0.1641 -1.0037 -0.3087
  745MOL0     H  560   1.691   6.568   5.802  0.0796  0.7644 -1.1984
  745MOL0     H  561   1.989   6.831   5.734  0.9405 -0.7349 -0.5349
  745MOL0     H  562   2.126   7.038   5.716 -2.5757 -0.2789  0.5845
  745MOL0     H  563   2.382   7.150   5.375 -0.3451 -0.7223  0.5925
  745MOL0     H  564   2.406   7.006   5.473  0.8387  0.1101  1.0732
  745MOL0     H  565   2.409   7.242   5.652  4.8548  1.7524  2.5914
  745MOL0     H  566   2.503   7.278   5.504 -2.7137  0.9489 -0.3156
  745MOL0     H  567   2.611   7.044   5.544 -1.2058 -0.1167  0.4292
  745MOL0     H  568   2.522   7.037   5.688 -1.6537 -1.2635 -1.2643
  745MOL0     H  569   2.757   7.221   5.603  0.3020 -3.1353 -0.4944
  745MOL0     H  570   2.658   7.270   5.755  0.2253 -0.5836  1.0588
  745MOL0     H  571   2.900   6.947   5.854 -0.6285 -1.9967 -3.1376
  745MOL0     H  572   2.187   6.970   5.309  0.2995 -1.9415 -0.4854
  745MOL0     H  573   1.902   6.759   5.270 -0.6268  0.0804  1.0869
  745MOL0     H  574   2.042   6.834   5.176 -2.7806  2.0241  1.0184
  745MOL0     H  575   2.059   6.675   5.255 -2.5140 -0.7816 -3.0079
  746MOL0     O  576   1.956   8.536   3.649  0.3738 -0.0878  1.2559
  746MOL0     C  577   1.833   8.517   3.658  0.3010 -0.3891  0.2846
  746MOL0     O  578   1.746   8.600   3.720 -0.2219 -0.5922 -0.1203
  746MOL0     C  579   1.783   8.709   3.802  1.0544  0.0330  0.9430
  746MOL0     C  580   1.672   8.796   3.823  1.0953 -0.7369  0.3384
  746MOL0     C  581   1.698   8.910   3.894 -1.1508 -1.3731 -0.0219
  746MOL0     C  582   1.824   8.960   3.935  0.0693  0.4944  0.1106
  746MOL0     O  583   1.843   9.074   4.010 -0.3780  0.5301 -0.1617
  746MOL0     C  584   1.974   9.134   4.002  0.3591 -0.0863 -0.1080
  746MOL0     C  585   1.982   9.204   3.871 -0.1524 -0.3168  0.3133
  746MOL0     C  586   1.866   9.302   3.849 -0.6422 -0.2092  0.3301
  746MOL0     C  587   1.892   9.376   3.718  0.1487  0.0564  0.9063
  746MOL0     C  588   1.775   9.464   3.665  0.4605 -0.2449  0.2962
  746MOL0     C  589   1.810   9.522   3.523  0.3382  0.8325  0.3134
  746MOL0     C  590   1.726   9.630   3.469  0.4288  0.2806 -0.0262
  746MOL0     C  591   1.578   9.583   3.459  0.0406 -0.9049  0.0232
  746MOL0     N  592   1.485   9.674   3.380  0.0436  0.4514  0.3064
  746MOL0     C  593   1.474   9.671   3.245 -0.1969  0.7894  0.3982
  746MOL0     C  594   1.370   9.757   3.214 -0.6134 -0.0657 -0.0613
  746MOL0     C  595   1.322   9.790   3.077 -0.0428  0.4811  0.1270
  746MOL0     C  596   1.218   9.687   3.020 -0.4480 -0.2689  0.6343
  746MOL0     C  597   1.115   9.646   3.125  0.2445  0.0880 -0.3421
  746MOL0     C  598   1.010   9.738   3.176 -0.3672 -0.0454 -0.3841
  746MOL0     O  599   0.906   9.677   3.252  0.1358  0.2244 -0.1788
  746MOL0     C  600   0.924   9.657   3.389  0.2374 -0.0310  0.1932
  746MOL0     C  601   0.813   9.600   3.457 -0.3240  0.5238 -0.0984
  746MOL0     C  602   0.809   9.583   3.595 -0.3414  0.4890  0.2816
  746MOL0     C  603   0.930   9.607   3.668  0.0741  1.0345 -0.4944
  746MOL0     C  604   0.944   9.547   3.801 -0.2824 -0.1671 -0.5400
  746MOL0     O  605   1.057   9.575   3.862 -0.0099  0.0025 -1.0144
  746MOL0     C  606   1.065   9.561   3.997  1.1715 -0.1118 -1.0515
  746MOL0     C  607   1.158   9.651   4.062  0.2800  0.0565  0.0452
  746MOL0     C  608   1.180   9.633   4.200  0.1055 -0.3864 -1.2936
  746MOL0     C  609   1.143   9.515   4.270 -0.3739  0.4921 -0.1116
  746MOL0     O  610   1.181   9.489   4.402 -0.7209  0.1581 -0.7063
  746MOL0     C  611   1.202   9.352   4.452 -0.8998 -0.3466 -0.1653
  746MOL0     C  612   1.089   9.306   4.547 -0.4336  0.7683  0.5710
  746MOL0     C  613   1.122   9.170   4.606 -0.1206 -0.3872 -0.0504
  746MOL0     C  614   1.083   9.054   4.503 -0.2507 -0.2169  0.1604
  746MOL0     C  615   1.136   8.921   4.546  0.9532 -0.4175  0.3489
  746MOL0     C  616   1.053   8.807   4.473  0.6751  0.1387 -0.5561
  746MOL0     C  617   1.131   8.679   4.504  0.5876  0.0588 -0.6601
  746MOL0     C  618   1.066   8.574   4.420 -0.3485 -0.1569 -0.0042
  746MOL0    Cl  619   1.156   8.422   4.424  0.0537  0.1946  0.3928
  746MOL0     C  620   1.048   9.429   4.198 -0.9258  0.4555 -0.3936
  746MOL0     C  621   1.018   9.451   4.066 -0.0015  0.3951  0.4537
  746MOL0     O  622   0.851   9.491   3.842  0.3368  0.1839  0.4221
  746MOL0     C  623   1.025   9.679   3.607 -0.0572  0.0841  0.0542
  746MOL0     C  624   1.022   9.711   3.475 -0.2394  1.1352 -0.5500
  746MOL0     N  625   1.330   9.813   3.331 -0.1918 -0.4272 -0.6340
  746MOL0     N  626   1.407   9.775   3.429  0.6344  0.0689  0.3626
  746MOL0     C  627   1.924   8.869   3.913 -1.1433 -0.6134  0.0382
  746MOL0     C  628   1.909   8.746   3.845 -0.7826  0.1086 -0.3599
  746MOL0     C  629   1.780   8.390   3.605 -0.1036  0.2551  0.2103
  746MOL0     C  630   1.876   8.294   3.571  0.0316  0.0927  0.2232
  746MOL0     C  631   1.839   8.173   3.521 -0.2998 -0.6769 -0.0051
  746MOL0     C  632   1.705   8.132   3.511 -1.2447 -0.2600  0.9585
  746MOL0     O  633   1.668   8.014   3.441  0.8887  0.0705  0.0930
  746MOL0     C  634   1.759   7.907   3.430  0.0454  1.3847  0.1016
  746MOL0     C  635   1.684   7.777   3.416 -0.0681  0.1009 -0.3436
  746MOL0     C  636   1.595   7.756   3.292 -0.1147 -0.2383  0.3129
  746MOL0     C  637   1.448   7.804   3.304  0.7297 -0.3466  0.0803
  746MOL0     C  638   1.358   7.772   3.193 -0.7281 -0.5613 -1.2976
  746MOL0     C  639   1.287   7.744   3.104  0.7508  0.6442 -0.9756
  746MOL0     C  640   1.618   8.226   3.539  0.8136 -0.0856 -1.0628
  746MOL0     C  641   1.641   8.356   3.586  1.0288  0.0966 -0.3098
  746MOL0     C  642   1.520   8.429   3.642 -0.3189 -0.9442  0.9074
  746MOL0     H  643   1.574   8.758   3.796  0.7317 -0.6830  1.5080
  746MOL0     H  644   1.624   8.985   3.920  1.2456  2.4949 -3.1847
  746MOL0     H  645   1.971   9.193   4.094 -2.9265  1.4664 -1.0611
  746MOL0     H  646   2.062   9.070   4.017  0.0544 -0.5570 -0.3137
  746MOL0     H  647   1.992   9.131   3.791  0.2744  0.8107 -0.7046
  746MOL0     H  648   2.076   9.261   3.877  0.3374 -1.0017 -0.4995
  746MOL0     H  649   1.856   9.381   3.925 -1.6144 -0.0455  0.0407
  746MOL0     H  650   1.769   9.253   3.849 -2.1948  2.5873 -2.0844
  746MOL0     H  651   1.977   9.442   3.736 -1.3708  1.9043  1.7219
  746MOL0     H  652   1.898   9.304   3.636 -6.7665 -1.5461  1.2062
  746MOL0     H  653   1.684   9.403   3.662 -1.3609  2.2241  1.6931
  746MOL0     H  654   1.765   9.540   3.743 -1.4466 -3.1464  3.1708
  746MOL0     H  655   1.912   9.561   3.535  0.2720  0.9841  0.3974
  746MOL0     H  656   1.822   9.450   3.443  1.6528  0.9620  0.3704
  746MOL0     H  657   1.762   9.654   3.368 -4.1256  2.6459 -1.3512
  746MOL0     H  658   1.741   9.710   3.542 -2.9542  0.7502  0.2932
  746MOL0     H  659   1.579   9.481   3.419  6.0989 -1.0038 -0.6251
  746MOL0     H  660   1.538   9.581   3.561  1.7411 -1.1812  0.7159
  746MOL0     H  661   1.526   9.605   3.177 -2.5409 -0.3055 -0.4256
  746MOL0     H  662   1.268   9.884   3.087 -1.2772 -0.2233  0.3026
  746MOL0     H  663   1.407   9.807   3.009 -2.2227  3.0902 -2.2219
  746MOL0     H  664   1.160   9.734   2.940  0.3769 -1.4214 -0.7014
  746MOL0     H  665   1.257   9.597   2.972 -1.4476 -1.1225  1.3631
  746MOL0     H  666   1.168   9.603   3.210 -0.4808 -0.0553  0.0529
  746MOL0     H  667   1.065   9.566   3.070 -1.0967  0.6339  0.0366
  746MOL0     H  668   0.964   9.756   3.078  1.0504 -1.1801 -1.2987
  746MOL0     H  669   1.060   9.827   3.215 -2.0834  1.4598 -1.4716
  746MOL0     H  670   0.731   9.585   3.388 -0.4072  0.0162  0.1011
  746MOL0     H  671   0.720   9.539   3.638 -0.1937  1.0207  1.1440
  746MOL0     H  672   1.196   9.742   4.016  0.1012  0.4438  0.6511
  746MOL0     H  673   1.251   9.691   4.259 -0.7060  0.9888 -1.6102
  746MOL0     H  674   1.204   9.279   4.371 -2.6530  1.8517 -2.3394
  746MOL0     H  675   1.297   9.370   4.502 -1.7940 -0.1170  1.5327
  746MOL0     H  676   1.066   9.379   4.625  0.8273 -0.7037  2.4351
  746MOL0     H  677   1.002   9.289   4.483  0.3818 -1.0237 -0.1346
  746MOL0     H  678   1.226   9.166   4.640  0.1093  4.3621  0.4825
  746MOL0     H  679   1.071   9.161   4.702  1.8360  0.2788  1.1207
  746MOL0     H  680   1.122   9.075   4.403  3.4217  0.3074  1.5516
  746MOL0     H  681   0.974   9.060   4.498 -0.1866 -0.1032 -2.4929
  746MOL0     H  682   1.127   8.908   4.654 -2.0501 -1.5484  0.0804
  746MOL0     H  683   1.236   8.912   4.502  1.4206  1.7867  0.8872
  746MOL0     H  684   0.948   8.803   4.505  1.0380  0.3262  0.7181
  746MOL0     H  685   1.053   8.830   4.366  4.2469  1.1912 -0.4475
  746MOL0     H  686   1.115   8.653   4.609  3.0094  1.6563  0.2128
  746MOL0     H  687   1.235   8.697   4.473  0.1150 -0.9495 -3.0325
  746MOL0     H  688   0.964   8.559   4.456 -0.5833 -0.5896 -0.8185
  746MOL0     H  689   1.048   8.604   4.316  0.2442  1.2897  0.2947
  746MOL0     H  690   1.014   9.332   4.233 -0.7093  0.6076  0.2478
  746MOL0     H  691   0.961   9.372   4.019 -1.4842  2.1310 -0.7784
  746MOL0     H  692   1.106   9.719   3.668  0.6692 -2.4303  0.8864
  746MOL0     H  693   1.099   9.781   3.444 -2.1924  3.3877 -0.6512
  746MOL0     H  694   2.023   8.902   3.942 -2.1349  1.2380  1.5562
  746MOL0     H  695   1.998   8.685   3.836  0.6649  2.1068 -0.1697
  746MOL0     H  696   1.982   8.309   3.560  0.3494 -2.2781 -0.7373
  746MOL0     H  697   1.917   8.111   3.479  1.1150  0.7753  0.3835
  746MOL0     H  698   1.814   7.898   3.524  3.4524 -3.7418 -1.9834
  746MOL0     H  699   1.837   7.922   3.354  1.3774  1.7965  1.4819
  746MOL0     H  700   1.630   7.764   3.510  2.3009 -1.8025  0.8498
  746MOL0     H  701   1.754   7.693   3.414 -1.1043 -0.7829 -1.4190
  746MOL0     H  702   1.591   7.654   3.251  0.1008 -0.2080  0.2146
  746MOL0     H  703   1.647   7.818   3.218  1.1323  0.7376  1.9354
  746MOL0     H  704   1.410   7.743   3.387 -0.5231 -1.1078 -1.0178
  746MOL0     H  705   1.440   7.907   3.338 -1.4593 -1.1017  2.1835
  746MOL0     H  706   1.198   7.711   3.054 -0.7226  0.3824  1.5967
  746MOL0     H  707   1.514   8.194   3.527  0.3240  1.8892 -2.8555
  746MOL0     H  708   1.492   8.403   3.744 -0.2805 -1.9084  0.6773
  746MOL0     H  709   1.539   8.535   3.619 -0.0830 -0.7749  1.8535
  746MOL0     H  710   1.432   8.406   3.581  1.5809 -1.0225 -2.0275
  747MOL0     O  711   6.540  10.195   4.356  0.7718  0.1610  0.5090
  747MOL0     C  712   6.654  10.150   4.372 -1.0985  0.3913  0.8636
  747MOL0     O  713   6.684  10.043   4.451 -0.3926 -0.0893 -0.3529
  747MOL0     C  714   6.577   9.965   4.490  0.1434 -0.7188  0.0276
  747MOL0     C  715   6.518   9.887   4.388  0.8810 -0.7198 -1.0172
  747MOL0     C  716   6.400   9.808   4.413  0.1904 -1.0094  0.9767
  747MOL0     C  717   6.349   9.813   4.549 -0.7141  0.4143 -0.4187
  747MOL0     O  718   6.241   9.734   4.590 -0.5026  0.0986 -0.4083
  747MOL0     C  719   6.132   9.716   4.498  0.3802 -0.3871  0.4334
  747MOL0     C  720   6.006   9.744   4.580  0.0729  0.8240 -0.2427
  747MOL0     C  721   5.884   9.707   4.507  0.3701 -0.2028  0.0780
  747MOL0     C  722   5.756   9.755   4.564 -0.2616  0.0003  0.0398
  747MOL0     C  723   5.631   9.696   4.497 -0.8826  0.1036 -0.0069
  747MOL0     C  724   5.607   9.745   4.360 -0.5142 -0.1016  0.8620
  747MOL0     C  725   5.617   9.628   4.258  0.3338 -0.7104 -0.8787
  747MOL0     C  726   5.590   9.653   4.108  0.8193  0.1761 -0.3447
  747MOL0     N  727   5.452   9.680   4.074  0.8715 -1.1157  0.1301
  747MOL0     C  728   5.355   9.592   4.097  0.3682 -0.0003 -0.5483
  747MOL0     C  729   5.252   9.656   4.053  0.4013 -0.3519 -0.2757
  747MOL0     C  730   5.114   9.612   4.054  0.0951  0.1152 -0.7609
  747MOL0     C  731   5.052   9.677   4.184  0.9313  0.1219 -0.1280
  747MOL0     C  732   4.906   9.620   4.198  0.0112  0.6060 -0.9049
  747MOL0     C  733   4.869   9.644   4.348  0.4532 -0.5865  0.2548
  747MOL0     O  734   4.875   9.779   4.384  0.1952 -0.3360  0.1745
  747MOL0     C  735   4.841   9.820   4.508 -0.2073 -0.3777 -0.1768
  747MOL0     C  736   4.732   9.767   4.567  0.1768 -0.0909  0.3367
  747MOL0     C  737   4.710   9.811   4.692 -0.1836 -0.2449 -0.5927
  747MOL0     C  738   4.794   9.904   4.763  0.7698  0.4930 -0.6334
  747MOL0     C  739   4.764   9.953   4.897 -0.9161 -0.0932  0.0314
  747MOL0     O  740   4.676   9.877   4.964 -0.4494 -0.2930 -0.6297
  747MOL0     C  741   4.657   9.898   5.099 -0.9160  1.7386  0.0051
  747MOL0     C  742   4.537   9.861   5.165  0.3542  0.4936 -0.0230
  747MOL0     C  743   4.517   9.886   5.305  0.0294 -0.5581 -0.1537
  747MOL0     C  744   4.606   9.948   5.387  0.5503 -0.2150  0.1595
  747MOL0     O  745   4.568   9.959   5.526  0.4106 -0.0004  0.3994
  747MOL0     C  746   4.685   9.974   5.610 -0.8580  0.5271  0.5310
  747MOL0     C  747   4.654   9.943   5.757  0.2467 -0.2730 -0.2814
  747MOL0     C  748   4.545  10.026   5.825  0.2888  0.0157 -0.3558
  747MOL0     C  749   4.545  10.171   5.783  0.4124  0.1545  0.3631
  747MOL0     C  750   4.425  10.246   5.851  0.1854 -0.3382  0.0521
  747MOL0     C  751   4.401  10.386   5.789  0.1546 -0.1753  0.2822
  747MOL0     C  752   4.280  10.462   5.848  0.3633 -0.1220 -0.3372
  747MOL0     C  753   4.325  10.604   5.874  0.4551 -0.4565  0.4911
  747MOL0    Cl  754   4.197  10.714   5.936  0.1609  0.4543 -0.3956
  747MOL0     C  755   4.738   9.994   5.331  0.6156  0.4642 -0.5188
  747MOL0     C  756   4.756   9.967   5.187 -0.2772  0.0335 -0.2398
  747MOL0     O  757   4.804  10.066   4.932  0.0160  0.5386  1.0818
  747MOL0     C  758   4.899   9.951   4.694 -0.2041 -0.4392  0.4303
  747MOL0     C  759   4.921   9.917   4.563 -0.2080 -0.5013 -0.5522
  747MOL0     N  760   5.283   9.783   4.011  0.3277  0.5561 -0.2922
  747MOL0     N  761   5.400   9.794   4.029  0.0659  0.1469  0.5504
  747MOL0     C  762   6.414   9.894   4.651  0.2076  0.2166  0.0521
  747MOL0     C  763   6.528   9.964   4.615  0.5983 -0.1922  0.0551
  747MOL0     C  764   6.772  10.235   4.351  0.1393  1.0469 -0.0878
  747MOL0     C  765   6.873  10.242   4.447 -0.1147  0.7339 -0.0357
  747MOL0     C  766   6.992  10.307   4.429 -0.1321  0.9095 -0.5080
  747MOL0     C  767   7.005  10.393   4.324 -0.2107 -0.6652  0.8195
  747MOL0     O  768   7.113  10.475   4.292  0.4564 -0.4111 -0.3251
  747MOL0     C  769   7.244  10.447   4.363  0.3441  0.1559  0.3241
  747MOL0     C  770   7.272  10.524   4.495 -1.0565  0.0186 -0.4263
  747MOL0     C  771   7.232  10.666   4.474  0.8947 -0.7147  0.3699
  747MOL0     C  772   7.285  10.764   4.578 -0.8517  0.3706  0.2080
  747MOL0     C  773   7.245  10.905   4.562 -0.1127  0.3490 -0.0454
  747MOL0     C  774   7.212  11.023   4.571  0.5143 -0.9893  0.2543
  747MOL0     C  775   6.909  10.391   4.217  0.2095 -0.4534  0.7106
  747MOL0     C  776   6.790  10.313   4.233 -0.6092  0.4362  0.2662
  747MOL0     C  777   6.687  10.320   4.117  1.6254  0.4402  0.5167
  747MOL0     H  778   6.543   9.917   4.287  2.0277  1.6974 -0.1016
  747MOL0     H  779   6.354   9.751   4.333 -1.1990  2.7699 -1.1767
  747MOL0     H  780   6.133   9.772   4.404 -1.5028 -1.5981 -0.3746
  747MOL0     H  781   6.135   9.609   4.473  3.8141 -1.1247  3.1937
  747MOL0     H  782   5.997   9.850   4.606 -2.8875 -0.0397  3.0870
  747MOL0     H  783   6.008   9.683   4.671  2.1749  0.4723 -0.4728
  747MOL0     H  784   5.876   9.598   4.509 -1.5961 -0.0927  0.6489
  747MOL0     H  785   5.896   9.747   4.406 -1.2374  0.2419  0.0275
  747MOL0     H  786   5.753   9.729   4.671  1.8165  0.5955  0.3003
  747MOL0     H  787   5.751   9.864   4.556  3.5527  0.2536 -0.9971
  747MOL0     H  788   5.622   9.590   4.522  0.2853  0.6266  3.0593
  747MOL0     H  789   5.545   9.732   4.554 -0.4519  2.0233 -0.4961
  747MOL0     H  790   5.506   9.786   4.350 -0.3731 -0.2655 -2.3782
  747MOL0     H  791   5.690   9.814   4.342  0.4913 -1.6336 -0.7974
  747MOL0     H  792   5.553   9.550   4.299  0.8206 -1.6210 -1.7781
  747MOL0     H  793   5.716   9.582   4.265  0.3291 -0.7501 -1.0652
  747MOL0     H  794   5.653   9.736   4.075 -0.9021  2.0508  0.8303
  747MOL0     H  795   5.633   9.577   4.043 -0.4613  0.4455 -1.5553
  747MOL0     H  796   5.362   9.487   4.123 -1.8351 -0.0573 -0.0051
  747MOL0     H  797   5.066   9.641   3.961  0.0535  0.4410 -0.6402
  747MOL0     H  798   5.109   9.503   4.054 -1.2646  0.0638  2.4560
  747MOL0     H  799   5.102   9.661   4.280 -1.3733  2.7010  1.6743
  747MOL0     H  800   5.035   9.784   4.168 -1.6285  0.3431  2.9087
  747MOL0     H  801   4.909   9.512   4.178  1.0280  0.2838  0.7643
  747MOL0     H  802   4.839   9.677   4.134  0.3923  0.5374 -1.3728
  747MOL0     H  803   4.937   9.579   4.404 -1.6334 -3.5662 -0.4374
  747MOL0     H  804   4.770   9.601   4.362  0.4239  0.3214  3.4597
  747MOL0     H  805   4.668   9.691   4.521 -0.2948 -0.1876  1.1428
  747MOL0     H  806   4.628   9.757   4.737  0.4320 -0.7575 -0.0605
  747MOL0     H  807   4.470   9.813   5.094  1.2299  1.6612 -1.7048
  747MOL0     H  808   4.430   9.838   5.348  0.4515 -2.6851 -1.4987
  747MOL0     H  809   4.768   9.915   5.570  0.2352  0.1985  3.0679
  747MOL0     H  810   4.713  10.079   5.595  2.2693  0.2410  3.1006
  747MOL0     H  811   4.631   9.837   5.772 -3.1723  0.0789 -1.9246
  747MOL0     H  812   4.740   9.957   5.822  0.0584 -3.6543  0.9168
  747MOL0     H  813   4.451   9.972   5.808  0.8883 -1.6158  1.2421
  747MOL0     H  814   4.563  10.033   5.933  0.6349  0.3071 -0.4318
  747MOL0     H  815   4.532  10.182   5.675  1.0259 -3.1290 -0.1639
  747MOL0     H  816   4.647  10.204   5.803  1.7565 -2.0694 -2.1899
  747MOL0     H  817   4.431  10.260   5.960 -0.6516 -2.7774  0.4667
  747MOL0     H  818   4.338  10.183   5.829  1.4191 -1.8352 -0.6326
  747MOL0     H  819   4.497  10.438   5.793 -0.7389  1.7981 -1.7224
  747MOL0     H  820   4.382  10.371   5.682  3.5077  0.3451 -0.5126
  747MOL0     H  821   4.259  10.427   5.950 -3.3094  0.5060 -0.7493
  747MOL0     H  822   4.187  10.454   5.792  0.7802 -0.2523 -1.0218
  747MOL0     H  823   4.416  10.600   5.935 -0.0253 -2.1165  1.1407
  747MOL0     H  824   4.357  10.645   5.777 -0.0703  0.5984  0.7416
  747MOL0     H  825   4.812  10.034   5.399  0.6902 -1.7452  0.8019
  747MOL0     H  826   4.848  10.010   5.147 -0.7381 -0.3323 -1.7272
  747MOL0     H  827   4.974  10.016   4.739  0.0288  0.2870 -0.9487
  747MOL0     H  828   5.005   9.966   4.514  0.7865 -0.5265  1.0571
  747MOL0     H  829   6.369   9.885   4.749 -0.0607 -2.1271 -0.2373
  747MOL0     H  830   6.581  10.011   4.697  4.4652 -4.2256  0.2125
  747MOL0     H  831   6.841  10.186   4.534  2.2101  1.8559  1.6478
  747MOL0     H  832   7.073  10.306   4.502  0.5008 -2.9325 -1.0118
  747MOL0     H  833   7.308  10.461   4.275 -1.9906 -0.7952 -1.6632
  747MOL0     H  834   7.236  10.344   4.401 -0.1317  0.0012 -0.1797
  747MOL0     H  835   7.375  10.515   4.531 -0.9193 -0.5345 -0.9233
  747MOL0     H  836   7.213  10.482   4.577  0.4255 -1.0791  0.1134
  747MOL0     H  837   7.123  10.680   4.476  1.1575  2.3781 -1.3454
  747MOL0     H  838   7.272  10.694   4.376 -3.8291 -0.2637 -1.6935
  747MOL0     H  839   7.243  10.731   4.674 -1.3011 -3.0859 -1.0094
  747MOL0     H  840   7.394  10.759   4.573 -0.9004 -3.0012 -0.2226
  747MOL0     H  841   7.189  11.127   4.580  1.6009 -0.2745 -3.5397
  747MOL0     H  842   6.931  10.437   4.121 -2.0366 -0.9800 -0.1306
  747MOL0     H  843   6.586  10.306   4.157  0.9668  0.9373 -0.9052
  747MOL0     H  844   6.684  10.419   4.070  0.2824 -0.7096 -2.0585
  747MOL0     H  845   6.708  10.244   4.041 -1.4487  0.5351 -0.5650
  748MOL0     O  846   6.942   3.591   2.649  0.3149 -0.1140 -0.9116
  748MOL0     C  847   7.061   3.581   2.626  0.0181 -0.1643  0.3452
  748MOL0     O  848   7.119   3.599   2.507 -0.1244  0.5448  0.4146
  748MOL0     C  849   7.034   3.632   2.398 -0.4389  0.0302  0.1552
  748MOL0     C  850   6.979   3.761   2.379  0.2973  0.7054  0.3438
  748MOL0     C  851   6.883   3.785   2.279 -0.1434  0.3358  0.5537
  748MOL0     C  852   6.843   3.672   2.204  0.0167 -0.7543 -0.4307
  748MOL0     O  853   6.728   3.680   2.132 -0.4756  0.0260  0.7351
  748MOL0     C  854   6.731   3.774   2.021  0.4781 -0.7699 -0.3845
  748MOL0     C  855   6.643   3.716   1.917  0.0194  0.1476  0.1253
  748MOL0     C  856   6.715   3.595   1.843  0.3208 -0.4995 -1.6499
  748MOL0     C  857   6.631   3.553   1.724 -0.5503 -0.1633 -0.2508
  748MOL0     C  858   6.642   3.638   1.595 -0.5043 -1.0678 -0.0994
  748MOL0     C  859   6.793   3.655   1.538 -0.7766  0.6721 -1.4236
  748MOL0     C  860   6.856   3.518   1.537 -1.0349  0.0670 -0.0532
  748MOL0     C  861   6.995   3.524   1.461  0.3469  0.6642 -0.0509
  748MOL0     N  862   7.107   3.554   1.548  0.3621 -0.4022  0.2574
  748MOL0     C  863   7.114   3.663   1.628 -0.1717 -0.1586  0.0483
  748MOL0     C  864   7.221   3.629   1.709  0.7073 -0.7594  0.7355
  748MOL0     C  865   7.289   3.730   1.805  0.3717 -0.2527 -0.0659
  748MOL0     C  866   7.207   3.747   1.939 -0.4672  0.1693  1.3852
  748MOL0     C  867   7.208   3.640   2.042  0.4313 -0.0787 -0.2454
  748MOL0     C  868   7.337   3.564   2.060 -0.2468 -0.1196 -0.9482
  748MOL0     O  869   7.457   3.632   2.085 -0.0135 -0.8846 -0.2924
  748MOL0     C  870   7.462   3.713   2.196  0.4579  0.1698  0.2178
  748MOL0     C  871   7.581   3.791   2.190  0.1936  0.1357  0.7156
  748MOL0     C  872   7.621   3.861   2.303 -0.2110  1.8603  0.1274
  748MOL0     C  873   7.541   3.874   2.412  0.2751  0.5730  0.0473
  748MOL0     C  874   7.575   3.945   2.536 -0.1929 -1.0752 -0.0850
  748MOL0     O  875   7.484   4.023   2.592 -0.5449  0.2244  0.4664
  748MOL0     C  876   7.499   4.116   2.691 -0.6465  0.7992 -0.2568
  748MOL0     C  877   7.598   4.110   2.789 -0.0379  0.1153 -0.4736
  748MOL0     C  878   7.604   4.195   2.897  0.4296 -0.7108  0.4987
  748MOL0     C  879   7.513   4.303   2.896 -0.0394 -0.0648  0.4195
  748MOL0     O  880   7.526   4.397   3.004 -0.0780  0.2472 -0.3576
  748MOL0     C  881   7.413   4.478   3.050  0.2386  0.3357 -0.6496
  748MOL0     C  882   7.297   4.409   3.118 -0.3360  0.1152  0.2066
  748MOL0     C  883   7.188   4.493   3.165  0.5447 -0.2447  0.8485
  748MOL0     C  884   7.141   4.598   3.050 -0.1453 -0.9476 -0.5531
  748MOL0     C  885   6.991   4.639   3.065  1.0085 -0.3183  0.1687
  748MOL0     C  886   6.976   4.793   3.054 -0.2594  0.0105 -0.8781
  748MOL0     C  887   6.836   4.848   3.048 -0.7142 -0.3241  1.0013
  748MOL0     C  888   6.847   4.995   3.035  0.5540  0.3446  0.2628
  748MOL0    Cl  889   6.686   5.057   3.069 -0.3943  0.4761 -0.2404
  748MOL0     C  890   7.425   4.320   2.800 -0.0651 -0.2713 -0.4043
  748MOL0     C  891   7.415   4.230   2.690  0.2128  0.6304 -0.4038
  748MOL0     O  892   7.698   3.937   2.574 -0.9028 -0.8880  0.3649
  748MOL0     C  893   7.419   3.804   2.413  0.1424 -0.2173  0.1455
  748MOL0     C  894   7.376   3.715   2.308  0.2726  0.5026  0.2667
  748MOL0     N  895   7.274   3.502   1.677 -0.8806  0.0499 -0.3571
  748MOL0     N  896   7.205   3.458   1.578  0.0744 -0.4567 -1.3251
  748MOL0     C  897   6.907   3.552   2.209  0.3738 -0.0456  0.0624
  748MOL0     C  898   6.998   3.532   2.310 -0.0231  0.0069  1.3332
  748MOL0     C  899   7.150   3.532   2.739  0.2705 -0.0693 -0.8865
  748MOL0     C  900   7.102   3.552   2.875  0.0140  0.3101 -0.7641
  748MOL0     C  901   7.187   3.524   2.986  0.3605 -0.0351  1.1666
  748MOL0     C  902   7.310   3.470   2.967  0.1887  0.6644  1.3452
  748MOL0     O  903   7.387   3.423   3.074 -0.3175 -0.3144 -0.5039
  748MOL0     C  904   7.350   3.444   3.213  0.0638  0.4442 -0.9064
  748MOL0     C  905   7.253   3.341   3.273 -0.3367  0.4120 -0.5271
  748MOL0     C  906   7.263   3.210   3.194  0.3001  0.6145 -0.6008
  748MOL0     C  907   7.163   3.108   3.250  0.5209 -0.8998  0.8252
  748MOL0     C  908   7.196   2.975   3.191  1.0108  0.4329 -0.3362
  748MOL0     C  909   7.235   2.865   3.145  0.3684 -0.2036 -0.8795
  748MOL0     C  910   7.350   3.435   2.835  0.8399  0.3247 -0.5983
  748MOL0     C  911   7.281   3.474   2.717  0.1453 -1.0742 -0.1223
  748MOL0     C  912   7.328   3.426   2.584  0.1448  0.1075 -0.4273
  748MOL0     H  913   7.004   3.840   2.449  0.9778  0.5793  0.2490
  748MOL0     H  914   6.827   3.878   2.277 -0.5011  0.1254  0.7987
  748MOL0     H  915   6.695   3.869   2.062  1.3038 -1.3045  1.7382
  748MOL0     H  916   6.831   3.790   1.982  0.7644 -0.9185  0.2736
  748MOL0     H  917   6.606   3.786   1.842 -0.2460  2.4113  2.2570
  748MOL0     H  918   6.553   3.670   1.961 -0.7005  0.3202 -1.1167
  748MOL0     H  919   6.720   3.513   1.916 -0.1519  0.2099 -0.7968
  748MOL0     H  920   6.816   3.611   1.806  2.2999 -0.2418  3.1804
  748MOL0     H  921   6.656   3.450   1.694 -2.8592 -0.4945 -1.3395
  748MOL0     H  922   6.525   3.551   1.753 -0.4977  0.6061  0.0109
  748MOL0     H  923   6.570   3.589   1.528 -2.2145 -2.1149  2.3609
  748MOL0     H  924   6.608   3.740   1.617 -1.3159 -1.3560  0.0138
  748MOL0     H  925   6.789   3.705   1.441 -0.3360  2.1083 -0.7376
  748MOL0     H  926   6.847   3.722   1.606 -2.5533 -0.8847  1.7638
  748MOL0     H  927   6.789   3.445   1.492 -3.4870  1.4610  1.1248
  748MOL0     H  928   6.863   3.476   1.638 -1.7022  2.6846  1.1919
  748MOL0     H  929   7.015   3.427   1.414  2.4390  0.5452  0.9924
  748MOL0     H  930   6.976   3.592   1.378 -0.3721  0.3549 -0.1510
  748MOL0     H  931   7.062   3.758   1.620  1.0993  0.4606 -1.2141
  748MOL0     H  932   7.393   3.705   1.828  1.2315 -0.0187 -3.3385
  748MOL0     H  933   7.288   3.827   1.756  4.5348  0.5432  1.0391
  748MOL0     H  934   7.251   3.838   1.982 -0.3237  1.5307 -1.4430
  748MOL0     H  935   7.104   3.774   1.917  0.8171  2.4976 -2.8965
  748MOL0     H  936   7.141   3.558   2.015  1.7531 -1.6321  0.9346
  748MOL0     H  937   7.162   3.685   2.130  1.0730  0.0761  0.0182
  748MOL0     H  938   7.354   3.513   1.964  0.8515  0.2208 -0.9477
  748MOL0     H  939   7.322   3.495   2.143 -1.0761  2.1837  0.9283
  748MOL0     H  940   7.641   3.779   2.100 -0.5973  1.9972 -0.1429
  748MOL0     H  941   7.718   3.908   2.287  0.8148  0.0357  0.7594
  748MOL0     H  942   7.672   4.030   2.790  0.9975  1.0166 -1.2315
  748MOL0     H  943   7.671   4.196   2.982 -2.3298  2.5855  2.9081
  748MOL0     H  944   7.452   4.546   3.127  1.4958 -2.1057  1.0115
  748MOL0     H  945   7.389   4.546   2.968 -0.7049  0.1296 -0.5560
  748MOL0     H  946   7.269   4.336   3.041 -1.7731  0.1625  0.6524
  748MOL0     H  947   7.340   4.349   3.198  0.9844 -1.6276 -1.7351
  748MOL0     H  948   7.104   4.429   3.193  1.2442 -0.1717  3.3695
  748MOL0     H  949   7.200   4.535   3.266 -4.1011  4.1521 -0.0237
  748MOL0     H  950   7.154   4.553   2.951 -1.2083 -4.1261  0.6203
  748MOL0     H  951   7.198   4.691   3.055  0.0590 -1.0945 -0.1323
  748MOL0     H  952   6.947   4.613   3.162  0.6033  4.3139  1.4472
  748MOL0     H  953   6.925   4.605   2.984  0.8777  1.6547 -0.5911
  748MOL0     H  954   7.024   4.825   3.147 -2.4517 -0.2363  0.4216
  748MOL0     H  955   7.028   4.835   2.968 -1.5212  0.2838 -1.5354
  748MOL0     H  956   6.774   4.819   3.133 -2.4286 -0.2460 -0.1794
  748MOL0     H  957   6.792   4.813   2.954 -1.7911  1.3908  0.8373
  748MOL0     H  958   6.908   5.044   3.112  1.6202  0.6159 -0.7209
  748MOL0     H  959   6.859   5.022   2.929 -2.0326 -1.4306 -0.5658
  748MOL0     H  960   7.360   4.407   2.797 -2.7610 -2.0602  1.2875
  748MOL0     H  961   7.345   4.247   2.610  1.3036  0.1948 -1.4844
  748MOL0     H  962   7.349   3.832   2.490 -1.3501  1.5653 -1.7413
  748MOL0     H  963   7.277   3.671   2.304  0.5904 -0.2102  0.0528
  748MOL0     H  964   6.873   3.469   2.149  0.0731  0.6152 -0.7009
  748MOL0     H  965   7.032   3.429   2.322  0.1057  0.1429  2.2100
  748MOL0     H  966   7.003   3.597   2.878 -1.6661 -3.0102 -1.2530
  748MOL0     H  967   7.155   3.538   3.089  0.0985 -4.1284  1.8224
  748MOL0     H  968   7.326   3.548   3.237 -0.7243  0.8546 -3.1648
  748MOL0     H  969   7.442   3.414   3.263 -1.3109 -2.9228 -0.1719
  748MOL0     H  970   7.150   3.378   3.271 -1.3367 -2.1939 -2.5824
  748MOL0     H  971   7.279   3.321   3.377  1.8727 -1.6221 -1.3860
  748MOL0     H  972   7.367   3.175   3.204  0.4648  1.2721  0.1610
  748MOL0     H  973   7.237   3.226   3.089 -0.4022 -3.5970 -1.2547
  748MOL0     H  974   7.176   3.102   3.358  0.5559 -1.1762  0.8056
  748MOL0     H  975   7.059   3.126   3.222  0.4930  1.9722  2.3792
  748MOL0     H  976   7.283   2.784   3.094  2.5233  1.9146 -2.4430
  748MOL0     H  977   7.440   3.375   2.827 -1.1966 -2.9927 -0.7002
  748MOL0     H  978   7.249   3.407   2.511 -0.7800 -1.7612  0.9722
  748MOL0     H  979   7.393   3.508   2.554 -1.1477  1.1839 -0.3794
  748MOL0     H  980   7.376   3.328   2.594  0.6553 -0.1333 -4.0917
  749MOL0     O  981   5.116   1.851   1.536 -0.5234 -0.2858  0.7600
  749MOL0     C  982   5.233   1.836   1.579 -0.2210 -1.2588 -0.6923
  749MOL0     O  983   5.269   1.804   1.705  0.7867 -0.5679  0.2216
  749MOL0     C  984   5.168   1.755   1.790  0.4529 -0.3738 -0.9171
  749MOL0     C  985   5.083   1.842   1.864  0.0698  0.5996 -0.0332
  749MOL0     C  986   4.984   1.778   1.948  0.2013  0.0634  0.5519
  749MOL0     C  987   4.987   1.640   1.970  0.8712  0.0198 -0.2404
  749MOL0     O  988   4.899   1.581   2.062  0.0766  0.0995  0.1529
  749MOL0     C  989   4.773   1.636   2.085 -0.0137 -1.0175  0.7777
  749MOL0     C  990   4.714   1.561   2.197  0.4857 -0.3610 -0.4305
  749MOL0     C  991   4.582   1.626   2.219  0.7045 -0.3867 -0.4081
  749MOL0     C  992   4.533   1.580   2.354 -0.5106  0.1031  0.2081
  749MOL0     C  993   4.394   1.638   2.388 -1.3074 -0.2781 -0.1799
  749MOL0     C  994   4.395   1.784   2.416  0.0326  0.6361 -0.5890
  749MOL0     C  995   4.265   1.811   2.497 -0.8514 -0.1573 -0.0031
  749MOL0     C  996   4.238   1.960   2.511 -0.4401 -0.0330 -0.1349
  749MOL0     N  997   4.120   1.974   2.598  0.8600 -0.3009  0.4128
  749MOL0     C  998   4.087   1.940   2.719  0.4797  0.0715  0.1969
  749MOL0     C  999   3.958   1.984   2.743  1.2171  0.7891  0.5073
  749MOL0     C 1000   3.882   1.968   2.869  0.5241  0.5306  0.1352
  749MOL0     C 1001   3.774   1.861   2.874 -0.2544  0.6696  0.3786
  749MOL0     C 1002   3.643   1.918   2.805 -0.2842  0.0233 -0.4386
  749MOL0     C 1003   3.524   1.837   2.843 -0.9940 -1.1833 -0.0042
  749MOL0     O 1004   3.512   1.809   2.986 -0.6227  0.4660  0.2855
  749MOL0     C 1005   3.523   1.679   3.020 -0.9647 -1.0252  0.1326
  749MOL0     C 1006   3.611   1.636   3.118  0.5004  0.3378 -0.5023
  749MOL0     C 1007   3.614   1.500   3.161 -0.9132  0.5252 -0.0746
  749MOL0     C 1008   3.547   1.403   3.086 -0.1575  0.4170 -0.3928
  749MOL0     C 1009   3.553   1.263   3.134 -0.4038  1.0306 -0.3035
  749MOL0     O 1010   3.645   1.234   3.233  0.1945  0.4318  0.3459
  749MOL0     C 1011   3.677   1.106   3.263 -0.2654  0.7642  0.0497
  749MOL0     C 1012   3.710   1.095   3.393  0.1489  0.9672 -0.0296
  749MOL0     C 1013   3.759   0.969   3.443 -0.4798  1.1151  0.3278
  749MOL0     C 1014   3.765   0.859   3.359  0.6449  0.0625 -0.6564
  749MOL0     O 1015   3.805   0.734   3.397 -0.2779 -0.2303  0.4790
  749MOL0     C 1016   3.884   0.723   3.515  0.1764 -0.7428  0.8870
  749MOL0     C 1017   3.901   0.569   3.547  0.6718 -0.2759 -0.3083
  749MOL0     C 1018   3.988   0.552   3.667 -0.4841  0.2609  0.9348
  749MOL0     C 1019   4.006   0.405   3.713 -0.0622  0.2810  0.5614
  749MOL0     C 1020   4.108   0.401   3.822  0.2613  0.3339 -0.7618
  749MOL0     C 1021   4.157   0.256   3.864 -0.9205 -0.2563  0.1849
  749MOL0     C 1022   4.281   0.257   3.957  0.1160 -0.1024  0.2133
  749MOL0     C 1023   4.265   0.327   4.089  0.1457 -0.2314 -1.1243
  749MOL0    Cl 1024   4.195   0.216   4.206 -0.1967  0.0295  0.0284
  749MOL0     C 1025   3.721   0.873   3.229 -0.0854 -0.2163  0.8878
  749MOL0     C 1026   3.680   0.995   3.176  0.4632  0.4858 -0.1680
  749MOL0     O 1027   3.486   1.180   3.069 -0.3391  0.4354 -0.8936
  749MOL0     C 1028   3.467   1.449   2.975  0.2421 -0.3325  0.4183
  749MOL0     C 1029   3.452   1.582   2.957  0.4098  0.2654 -0.1802
  749MOL0     N 1030   3.918   2.054   2.630 -0.8112  0.0178  0.6517
  749MOL0     N 1031   4.011   2.044   2.546 -0.5823  0.1365  0.2341
  749MOL0     C 1032   5.078   1.561   1.903  0.9907 -0.2161  0.0013
  749MOL0     C 1033   5.161   1.619   1.811  0.4657 -2.0714  0.5538
  749MOL0     C 1034   5.346   1.834   1.483 -0.5352  0.7314  0.5506
  749MOL0     C 1035   5.454   1.740   1.490  0.3429  0.3199 -0.4622
  749MOL0     C 1036   5.568   1.741   1.408  1.2297 -0.4144  1.0226
  749MOL0     C 1037   5.570   1.837   1.296 -0.1318  0.3104 -0.7082
  749MOL0     O 1038   5.679   1.852   1.214 -0.0913 -0.0930 -0.2086
  749MOL0     C 1039   5.762   1.734   1.199 -0.1520 -0.5751  0.7558
  749MOL0     C 1040   5.869   1.778   1.094 -0.0241 -0.4268  0.7632
  749MOL0     C 1041   5.981   1.667   1.067  1.3923 -0.4591 -0.5769
  749MOL0     C 1042   6.077   1.638   1.188 -0.3763 -0.4750 -1.0923
  749MOL0     C 1043   6.185   1.537   1.160 -0.4019 -0.2064  0.1993
  749MOL0     C 1044   6.249   1.435   1.147  0.5441  0.2347  0.7253
  749MOL0     C 1045   5.461   1.926   1.287  0.3809 -0.4401  0.4025
  749MOL0     C 1046   5.355   1.928   1.371  0.8311  0.4259 -0.7389
  749MOL0     C 1047   5.242   2.028   1.362 -0.9137  0.6787  0.7711
  749MOL0     H 1048   5.097   1.949   1.855 -3.1199  0.9312 -3.8782
  749MOL0     H 1049   4.920   1.855   1.991 -0.5163  1.2268 -2.3583
  749MOL0     H 1050   4.772   1.745   2.094  2.9816 -0.8768  0.4773
  749MOL0     H 1051   4.716   1.623   1.993  0.0767 -0.5102  0.6510
  749MOL0     H 1052   4.775   1.585   2.285 -3.4552  0.4073  2.3756
  749MOL0     H 1053   4.703   1.455   2.170  0.9669 -0.5819  0.2090
  749MOL0     H 1054   4.509   1.598   2.142  0.1658  1.7422 -0.7315
  749MOL0     H 1055   4.589   1.735   2.213  3.6877 -0.3270  1.8108
  749MOL0     H 1056   4.519   1.472   2.353  0.1527 -0.0075 -1.6186
  749MOL0     H 1057   4.600   1.590   2.440 -3.5221  3.0420  2.5056
  749MOL0     H 1058   4.333   1.603   2.304  0.5555 -1.6138 -1.0694
  749MOL0     H 1059   4.351   1.578   2.468  0.9437 -3.0771 -0.8666
  749MOL0     H 1060   4.481   1.819   2.474  0.3172  3.9861 -2.7547
  749MOL0     H 1061   4.397   1.835   2.319 -1.3150 -0.6861 -1.3660
  749MOL0     H 1062   4.272   1.762   2.594 -0.3376  0.8492  0.4785
  749MOL0     H 1063   4.178   1.767   2.446  1.4466 -1.5822 -3.0462
  749MOL0     H 1064   4.327   2.008   2.553 -0.7315 -0.7290  1.3588
  749MOL0     H 1065   4.221   2.009   2.415  0.8457  0.7776  0.0167
  749MOL0     H 1066   4.151   1.892   2.792  0.9653  0.2217 -0.1223
  749MOL0     H 1067   3.964   1.953   2.940  0.5391 -0.3921 -0.0669
  749MOL0     H 1068   3.836   2.066   2.880  2.4189  1.5805 -0.7096
  749MOL0     H 1069   3.805   1.766   2.830 -0.4174 -0.5971  2.8265
  749MOL0     H 1070   3.752   1.834   2.977  1.4730  0.8358  0.8086
  749MOL0     H 1071   3.656   1.913   2.696  2.8085 -1.1127 -0.1203
  749MOL0     H 1072   3.632   2.022   2.838 -0.4351 -0.6477  1.7563
  749MOL0     H 1073   3.533   1.749   2.779  0.2889  0.8974 -2.8932
  749MOL0     H 1074   3.453   1.912   2.810 -0.8920 -1.9610 -2.1337
  749MOL0     H 1075   3.652   1.711   3.184  1.6948 -0.7664  0.0525
  749MOL0     H 1076   3.682   1.469   3.240 -2.6274 -2.4389  0.3836
  749MOL0     H 1077   3.711   1.171   3.470  3.4315  0.7425  0.2885
  749MOL0     H 1078   3.769   0.962   3.550 -1.3768  0.6786  0.3993
  749MOL0     H 1079   3.978   0.778   3.500  0.7964 -1.3835  2.2532
  749MOL0     H 1080   3.828   0.779   3.591 -1.5700  2.0971 -2.1806
  749MOL0     H 1081   3.811   0.510   3.569  0.4542 -1.1643 -3.1479
  749MOL0     H 1082   3.932   0.513   3.459  2.5484 -0.9076  0.7054
  749MOL0     H 1083   4.079   0.613   3.654 -0.9585  0.4122 -2.8942
  749MOL0     H 1084   3.938   0.600   3.751 -0.6344  1.3860  0.2338
  749MOL0     H 1085   4.042   0.333   3.638 -0.6835  0.6202 -0.0737
  749MOL0     H 1086   3.908   0.371   3.748 -0.6309  1.1274 -0.1578
  749MOL0     H 1087   4.067   0.460   3.905 -1.7515  0.7507 -2.0023
  749MOL0     H 1088   4.203   0.444   3.788 -0.1185 -1.5188 -4.7027
  749MOL0     H 1089   4.074   0.210   3.918 -0.7206 -0.6183  0.1922
  749MOL0     H 1090   4.187   0.197   3.777  0.6767 -0.4285  0.8065
  749MOL0     H 1091   4.370   0.299   3.908  0.3144 -1.5753 -0.7376
  749MOL0     H 1092   4.294   0.150   3.974 -3.6999 -0.6362  0.7321
  749MOL0     H 1093   4.359   0.357   4.136 -0.4307  2.0254 -1.2923
  749MOL0     H 1094   4.206   0.418   4.077 -0.0338 -0.2820 -0.6327
  749MOL0     H 1095   3.719   0.791   3.158 -2.1807  1.0565 -0.6847
  749MOL0     H 1096   3.663   1.016   3.071 -0.1324  1.8716  0.1760
  749MOL0     H 1097   3.415   1.379   2.911 -0.5888  0.3137  0.3705
  749MOL0     H 1098   3.396   1.614   2.869 -2.4305  1.3065  1.8791
  749MOL0     H 1099   5.076   1.452   1.908 -1.5534 -0.1445  3.0287
  749MOL0     H 1100   5.227   1.562   1.746  0.4060 -1.2577 -0.2368
  749MOL0     H 1101   5.460   1.677   1.578  0.0211  1.3303  0.3045
  749MOL0     H 1102   5.649   1.672   1.430 -0.1051 -1.4316  3.0822
  749MOL0     H 1103   5.719   1.640   1.165  1.9449 -1.2156 -0.3453
  749MOL0     H 1104   5.815   1.711   1.292  1.6090  0.6092  0.1030
  749MOL0     H 1105   5.924   1.864   1.133  3.2054 -0.3502 -3.2056
  749MOL0     H 1106   5.818   1.799   1.000  1.0642 -1.1104 -0.0142
  749MOL0     H 1107   6.042   1.703   0.984 -0.2714  2.4914 -0.6717
  749MOL0     H 1108   5.922   1.578   1.043 -1.8204  0.9351  1.4341
  749MOL0     H 1109   6.123   1.736   1.203  1.9040 -0.7288 -5.0831
  749MOL0     H 1110   6.015   1.606   1.272  3.3473 -2.7183  1.1089
  749MOL0     H 1111   6.302   1.342   1.145 -2.3985 -1.5571  0.2157
  749MOL0     H 1112   5.451   1.984   1.195 -0.8844 -1.1025  0.0985
  749MOL0     H 1113   5.270   2.114   1.299 -3.5769  2.7185  2.1340
  749MOL0     H 1114   5.158   1.976   1.314  1.1876  1.0833 -3.8557
  749MOL0     H 1115   5.214   2.069   1.460 -0.9699  0.5668  0.8018
  750MOL0     O 1116   0.942   8.438  10.233  0.0083  0.2757 -0.2926
  750MOL0     C 1117   0.921   8.542  10.306 -0.8861 -0.1405 -0.6611
  750MOL0     O 1118   0.955   8.669  10.279 -0.2313 -0.3985 -0.5608
  750MOL0     C 1119   0.984   8.714  10.151  0.2266  0.7832 -0.1036
  750MOL0     C 1120   1.005   8.851  10.126 -0.2243 -0.1933 -0.5823
  750MOL0     C 1121   1.030   8.912  10.005 -1.0786  0.3448  0.7663
  750MOL0     C 1122   1.031   8.840   9.889  0.9499 -0.2008  0.8031
  750MOL0     O 1123   1.070   8.903   9.777  0.3928  0.2328  0.6764
  750MOL0     C 1124   1.085   8.818   9.663  0.1921  0.5012  0.1318
  750MOL0     C 1125   1.076   8.883   9.524  0.1868 -0.3513  0.1225
  750MOL0     C 1126   1.088   8.766   9.425 -0.1457  0.1494 -0.4701
  750MOL0     C 1127   1.078   8.818   9.281 -0.8077 -0.0774 -0.2776
  750MOL0     C 1128   1.088   8.704   9.170 -0.4868 -0.1357 -0.7676
  750MOL0     C 1129   1.039   8.729   9.021 -0.7421  0.3220  0.2282
  750MOL0     C 1130   1.065   8.634   8.902 -1.1049 -0.0408  0.1598
  750MOL0     C 1131   1.026   8.693   8.759 -0.7051 -0.0576  0.1485
  750MOL0     N 1132   0.906   8.771   8.757 -0.2473  0.5936 -0.5643
  750MOL0     C 1133   0.776   8.726   8.772  0.0442 -0.3430  0.5371
  750MOL0     C 1134   0.705   8.846   8.776  0.1777 -0.9400  0.3032
  750MOL0     C 1135   0.552   8.863   8.782 -0.1331  0.0957 -0.5600
  750MOL0     C 1136   0.500   8.962   8.893 -0.7886 -1.4784  0.1383
  750MOL0     C 1137   0.585   8.942   9.024  0.5811  0.4357  0.0159
  750MOL0     C 1138   0.509   9.014   9.142 -0.5809  0.0946  1.0229
  750MOL0     O 1139   0.568   8.967   9.269  0.7464  0.2952  0.5298
  750MOL0     C 1140   0.624   9.049   9.358 -0.3192  0.1668  1.0710
  750MOL0     C 1141   0.553   9.086   9.478 -0.5391 -0.2247  0.9345
  750MOL0     C 1142   0.629   9.157   9.560 -0.3087 -0.7703  0.4158
  750MOL0     C 1143   0.759   9.210   9.534  0.3869  0.4734  0.0716
  750MOL0     C 1144   0.838   9.283   9.633  0.2113 -0.4536 -0.7980
  750MOL0     O 1145   0.920   9.372   9.580 -0.2831  0.2457  0.2297
  750MOL0     C 1146   0.996   9.448   9.663  0.2442 -0.0641  0.7370
  750MOL0     C 1147   1.094   9.379   9.734  0.1079  0.1196  0.9644
  750MOL0     C 1148   1.183   9.441   9.815  0.2806  0.3048  0.0544
  750MOL0     C 1149   1.176   9.578   9.837 -0.1035 -0.3625 -0.0589
  750MOL0     O 1150   1.273   9.635   9.913 -0.2989  0.1750 -0.9867
  750MOL0     C 1151   1.306   9.772   9.892  0.1157  0.2522 -0.1156
  750MOL0     C 1152   1.454   9.785   9.956  0.4803 -0.7674  0.2036
  750MOL0     C 1153   1.530   9.917   9.941 -0.1192 -0.5346 -0.2870
  750MOL0     C 1154   1.658   9.928  10.027 -0.1219 -0.5648  0.8743
  750MOL0     C 1155   1.750  10.039   9.966  0.0761  0.1188 -0.0503
  750MOL0     C 1156   1.701  10.183   9.988 -0.1408  0.0272 -0.0555
  750MOL0     C 1157   1.803  10.291   9.940 -0.2946  0.0527 -0.1552
  750MOL0     C 1158   1.935  10.302  10.021  0.0886  0.2837 -0.4399
  750MOL0    Cl 1159   2.023  10.444   9.960  0.0738 -0.2989  0.3247
  750MOL0     C 1160   1.063   9.648   9.781 -0.1409  1.0058 -0.9060
  750MOL0     C 1161   0.974   9.585   9.690 -1.6440 -0.5789 -1.2637
  750MOL0     O 1162   0.805   9.273   9.753  0.7748  0.1697  0.4397
  750MOL0     C 1163   0.814   9.187   9.411  0.0830 -0.3083  0.9426
  750MOL0     C 1164   0.751   9.102   9.329 -0.0978  0.3982 -0.0764
  750MOL0     N 1165   0.799   8.954   8.771  0.6357 -0.0107 -0.1888
  750MOL0     N 1166   0.916   8.909   8.747 -0.5629  0.0180 -0.7134
  750MOL0     C 1167   0.991   8.702   9.909 -0.4475 -1.2532 -0.6186
  750MOL0     C 1168   0.966   8.641  10.034  0.9726  0.4561 -1.1260
  750MOL0     C 1169   0.852   8.519  10.433  0.5260  0.3290 -0.2627
  750MOL0     C 1170   0.903   8.592  10.542 -0.5198 -0.6423  0.3040
  750MOL0     C 1171   0.854   8.571  10.664  0.9191 -0.6636 -0.2851
  750MOL0     C 1172   0.740   8.493  10.685 -0.8529  0.6121 -0.5953
  750MOL0     O 1173   0.697   8.484  10.818 -0.5368  0.6730 -0.0561
  750MOL0     C 1174   0.570   8.419  10.847  0.0314  0.8576  0.6935
  750MOL0     C 1175   0.526   8.465  10.989 -0.0443 -0.2733  0.4703
  750MOL0     C 1176   0.500   8.618  10.997 -0.3619 -0.2227 -0.0309
  750MOL0     C 1177   0.356   8.648  10.944 -0.1346 -0.2178 -0.2584
  750MOL0     C 1178   0.330   8.789  10.920  0.0310  0.1367  0.3654
  750MOL0     C 1179   0.317   8.910  10.893 -0.6524 -0.8445  0.8322
  750MOL0     C 1180   0.677   8.428  10.575 -0.2906 -0.4330 -0.6037
  750MOL0     C 1181   0.738   8.436  10.450  0.5134  0.7045 -0.2626
  750MOL0     C 1182   0.666   8.381  10.329 -0.0585  0.3717 -0.6496
  750MOL0     H 1183   0.992   8.910  10.216 -2.7932  0.9976 -1.6365
  750MOL0     H 1184   1.041   9.020  10.006 -0.3069  0.3658 -1.7446
  750MOL0     H 1185   1.181   8.764   9.661  0.4545  0.7881  2.5981
  750MOL0     H 1186   1.010   8.739   9.649  2.3376 -1.6786  0.2263
  750MOL0     H 1187   1.160   8.951   9.506 -1.8708  2.6438  1.0099
  750MOL0     H 1188   0.989   8.947   9.504  1.5703  2.1760  1.6883
  750MOL0     H 1189   1.011   8.690   9.436 -0.8149 -0.1332 -5.2225
  750MOL0     H 1190   1.175   8.707   9.452 -1.4138 -1.2467  0.7452
  750MOL0     H 1191   0.982   8.870   9.271 -0.1710  1.9180  2.6806
  750MOL0     H 1192   1.167   8.882   9.281 -0.4082 -0.5758 -1.7623
  750MOL0     H 1193   1.196   8.687   9.163 -0.5708  0.0259 -3.0032
  750MOL0     H 1194   1.033   8.618   9.211 -2.5106  0.9687 -1.0647
  750MOL0     H 1195   0.932   8.752   9.024 -0.4558  2.1817 -1.3364
  750MOL0     H 1196   1.095   8.820   8.999 -4.0365  2.7363  0.9106
  750MOL0     H 1197   1.012   8.542   8.930 -0.5495 -0.5433 -0.3922
  750MOL0     H 1198   1.173   8.616   8.907 -0.3472  2.5630 -2.9887
  750MOL0     H 1199   1.107   8.763   8.736  2.1888 -1.2972  5.2047
  750MOL0     H 1200   1.018   8.617   8.681 -1.5953 -2.2869  2.2859
  750MOL0     H 1201   0.754   8.620   8.784  1.3548 -0.8748 -1.4310
  750MOL0     H 1202   0.506   8.896   8.688 -2.6772 -1.0893  0.1625
  750MOL0     H 1203   0.507   8.763   8.795  3.6418 -1.8864 -1.4461
  750MOL0     H 1204   0.509   9.069   8.871 -2.1766 -1.2354  0.6550
  750MOL0     H 1205   0.394   8.949   8.918 -0.8727 -1.1351 -0.0362
  750MOL0     H 1206   0.681   8.993   9.014  0.1373  1.5633  1.2800
  750MOL0     H 1207   0.592   8.837   9.054 -5.5117  0.4521  2.9205
  750MOL0     H 1208   0.404   8.985   9.145 -0.7904  0.5120  6.2762
  750MOL0     H 1209   0.526   9.122   9.132 -1.7820  0.1954 -0.2516
  750MOL0     H 1210   0.456   9.049   9.507 -1.6032  0.6954 -1.1987
  750MOL0     H 1211   0.575   9.178   9.652  1.7706 -1.9957  1.9948
  750MOL0     H 1212   1.110   9.272   9.728 -1.0777 -0.0226 -0.1521
  750MOL0     H 1213   1.260   9.384   9.866  1.8078  3.0355  1.0086
  750MOL0     H 1214   1.309   9.811   9.790 -0.4024  0.3859 -0.0808
  750MOL0     H 1215   1.236   9.834   9.949  1.0220  0.9502  0.2676
  750MOL0     H 1216   1.436   9.770  10.063 -0.2161 -2.7685 -0.1443
  750MOL0     H 1217   1.512   9.696   9.929 -0.8504 -1.4167 -0.6707
  750MOL0     H 1218   1.555   9.907   9.835  0.1771 -2.1789 -0.0816
  750MOL0     H 1219   1.465  10.005   9.953  0.0776 -0.4774  0.3751
  750MOL0     H 1220   1.709   9.832  10.014  0.4734 -0.6582  3.4279
  750MOL0     H 1221   1.633   9.942  10.132 -2.4621 -2.4955  0.6650
  750MOL0     H 1222   1.759  10.012   9.860 -0.5355 -1.5075  0.2797
  750MOL0     H 1223   1.847  10.035  10.015 -0.7514  0.1740  1.6545
  750MOL0     H 1224   1.612  10.201   9.929  0.8345  0.0636 -1.5641
  750MOL0     H 1225   1.673  10.203  10.092 -2.9374  0.6515 -0.8416
  750MOL0     H 1226   1.756  10.390   9.938  1.5102  0.9507  0.2829
  750MOL0     H 1227   1.820  10.258   9.837 -5.0063 -4.0719 -0.0128
  750MOL0     H 1228   1.916  10.288  10.128 -2.8182  0.9255 -0.7823
  750MOL0     H 1229   1.997  10.219   9.985  3.9047  2.4046  0.6615
  750MOL0     H 1230   1.053   9.749   9.820  1.6110  1.6937 -2.0854
  750MOL0     H 1231   0.887   9.643   9.662 -0.8193  1.0811 -0.5360
  750MOL0     H 1232   0.908   9.226   9.374 -0.9568  0.5471 -0.9968
  750MOL0     H 1233   0.804   9.064   9.242 -0.6031 -0.8467  0.1448
  750MOL0     H 1234   0.975   8.638   9.824  3.3981 -0.4556 -2.1849
  750MOL0     H 1235   0.924   8.542  10.025  1.5364  0.2082 -1.0833
  750MOL0     H 1236   0.990   8.656  10.542 -0.2013 -0.9932 -1.9694
  750MOL0     H 1237   0.904   8.615  10.749 -1.2516 -0.7946  1.1522
  750MOL0     H 1238   0.576   8.310  10.850 -0.8279  0.8119  1.0877
  750MOL0     H 1239   0.490   8.444  10.777 -1.9551  0.6611  2.7613
  750MOL0     H 1240   0.612   8.440  11.051  0.7216  0.4696 -0.2474
  750MOL0     H 1241   0.444   8.402  11.024  2.3639 -2.7031  2.1209
  750MOL0     H 1242   0.581   8.665  10.941 -2.1021 -2.2345 -4.8440
  750MOL0     H 1243   0.492   8.658  11.098 -0.9015  0.1549 -0.2136
  750MOL0     H 1244   0.331   8.593  10.852  1.1328 -1.2602 -0.0186
  750MOL0     H 1245   0.279   8.632  11.019  0.1697  0.1649  0.1348
  750MOL0     H 1246   0.333   9.014  10.876  0.6160 -0.9672  1.1602
  750MOL0     H 1247   0.578   8.383  10.582  0.5466 -2.5151 -1.1961
  750MOL0     H 1248   0.681   8.437  10.236  1.6493 -0.6880 -1.0677
  750MOL0     H 1249   0.705   8.281  10.305 -0.6348 -0.2885  1.0047
  750MOL0     H 1250   0.560   8.366  10.350 -0.6434  2.2865 -1.9488
  751MOL0     O 1251   4.713   5.614   6.432  0.3231 -0.2191  0.0099
  751MOL0     C 1252   4.630   5.701   6.407 -0.2710 -0.2200 -0.4479
  751MOL0     O 1253   4.508   5.722   6.481 -0.1483  0.4938  0.0792
  751MOL0     C 1254   4.461   5.647   6.584  0.3911  0.4132 -0.5974
  751MOL0     C 1255   4.544   5.563   6.666  0.7178 -1.2646 -0.6016
  751MOL0     C 1256   4.488   5.494   6.778  0.0870 -0.2640 -0.5975
  751MOL0     C 1257   4.358   5.511   6.816  0.1605 -0.0528 -1.0484
  751MOL0     O 1258   4.315   5.439   6.922 -0.5844  0.2296 -0.8667
  751MOL0     C 1259   4.320   5.301   6.905  0.3981  0.0858 -0.6465
  751MOL0     C 1260   4.249   5.243   7.030 -0.2316  0.7400 -0.4767
  751MOL0     C 1261   4.095   5.255   7.036  0.7555  0.1434 -0.0413
  751MOL0     C 1262   4.029   5.358   6.935 -0.0556  0.6439  0.2603
  751MOL0     C 1263   3.873   5.372   6.949 -0.8876  0.0257  0.3708
  751MOL0     C 1264   3.785   5.246   6.957  0.5112  0.1751 -0.0792
  751MOL0     C 1265   3.642   5.282   6.955 -0.2041 -0.0108 -0.5319
  751MOL0     C 1266   3.600   5.328   7.099  1.4424  0.1342 -0.1415
  751MOL0     N 1267   3.495   5.425   7.093  0.7686  0.1898 -0.4891
  751MOL0     C 1268   3.403   5.443   6.998  0.7898 -0.0872  1.0544
  751MOL0     C 1269   3.313   5.526   7.040 -0.3438  0.2839 -0.1711
  751MOL0     C 1270   3.201   5.593   6.969 -0.3562 -0.9351 -0.1050
  751MOL0     C 1271   3.076   5.500   6.965 -0.4056 -0.1446 -0.8379
  751MOL0     C 1272   2.963   5.570   6.898  0.6778 -0.4652 -0.6949
  751MOL0     C 1273   2.831   5.490   6.898 -0.0932 -0.8015 -0.0482
  751MOL0     O 1274   2.706   5.558   6.857 -0.0825 -0.4071  0.4412
  751MOL0     C 1275   2.589   5.500   6.897  0.0797 -0.0350 -0.4540
  751MOL0     C 1276   2.574   5.378   6.974 -0.5811 -0.9446  0.9817
  751MOL0     C 1277   2.441   5.330   6.989 -1.0722 -0.4312  0.4141
  751MOL0     C 1278   2.332   5.402   6.948 -0.1227 -0.1463  0.3429
  751MOL0     C 1279   2.197   5.364   6.988  0.1016  0.5511 -0.5546
  751MOL0     O 1280   2.175   5.315   7.118  0.4551 -0.5810  0.0801
  751MOL0     C 1281   2.054   5.264   7.158 -0.3205 -0.0979 -0.8004
  751MOL0     C 1282   1.990   5.154   7.101 -0.4408  0.3229 -0.1323
  751MOL0     C 1283   1.894   5.083   7.178  0.7391  0.6365 -0.3981
  751MOL0     C 1284   1.844   5.133   7.296 -0.1858  0.0842 -0.5191
  751MOL0     O 1285   1.748   5.074   7.374 -0.1212  0.5153 -0.4827
  751MOL0     C 1286   1.697   4.938   7.342 -0.1349 -0.2391 -0.2917
  751MOL0     C 1287   1.633   4.865   7.470  0.3492  0.0326  0.4290
  751MOL0     C 1288   1.471   4.879   7.472  0.6933 -0.3465  0.1862
  751MOL0     C 1289   1.423   4.772   7.578 -0.1444 -0.4116 -0.0603
  751MOL0     C 1290   1.285   4.709   7.552  0.0794  0.2592 -0.5733
  751MOL0     C 1291   1.291   4.622   7.436  0.6867 -0.0809  0.8404
  751MOL0     C 1292   1.160   4.564   7.387 -0.0725  0.0450 -0.3360
  751MOL0     C 1293   1.097   4.473   7.488 -0.4711  0.3502 -0.1446
  751MOL0    Cl 1294   0.986   4.557   7.592  0.0965 -0.3263  0.2557
  751MOL0     C 1295   1.904   5.249   7.352 -0.8034  0.1782  0.0451
  751MOL0     C 1296   2.011   5.310   7.278 -0.6257  0.7302 -0.7215
  751MOL0     O 1297   2.111   5.374   6.906  0.3785 -0.1565 -0.1033
  751MOL0     C 1298   2.347   5.525   6.890  0.4799 -0.2217  0.7355
  751MOL0     C 1299   2.473   5.571   6.857 -0.5744 -0.3817 -0.4125
  751MOL0     N 1300   3.353   5.562   7.166 -0.4869  0.7526  0.9860
  751MOL0     N 1301   3.454   5.491   7.207 -0.1147  0.3132  0.3845
  751MOL0     C 1302   4.276   5.597   6.745  0.0497 -0.4595  0.5739
  751MOL0     C 1303   4.323   5.659   6.625 -0.5078 -0.4857  0.0725
  751MOL0     C 1304   4.657   5.792   6.298 -0.2528  0.5469  0.7589
  751MOL0     C 1305   4.619   5.926   6.313 -0.1020  0.2347 -0.5379
  751MOL0     C 1306   4.659   6.015   6.215 -0.6689 -1.1230 -0.3617
  751MOL0     C 1307   4.739   5.980   6.109  0.7119  0.7207  0.1862
  751MOL0     O 1308   4.787   6.072   6.022 -0.4597  1.0782 -0.7773
  751MOL0     C 1309   4.798   6.038   5.883 -0.0517 -0.1441  0.2783
  751MOL0     C 1310   4.784   6.166   5.811  0.8233  0.1535 -0.0014
  751MOL0     C 1311   4.811   6.155   5.659 -0.6171  0.6785  0.4150
  751MOL0     C 1312   4.959   6.156   5.630 -0.1635 -0.6767 -0.0349
  751MOL0     C 1313   4.987   6.181   5.483  0.3248 -0.3042 -0.5580
  751MOL0     C 1314   5.003   6.188   5.363 -0.4212 -0.8516  0.7751
  751MOL0     C 1315   4.777   5.848   6.095  0.1094 -0.8656  0.0268
  751MOL0     C 1316   4.737   5.753   6.181  0.1508 -0.1794 -0.4276
  751MOL0     C 1317   4.778   5.605   6.153 -0.3172  0.2481  0.4142
  751MOL0     H 1318   4.651   5.554   6.648  1.5584 -0.9191  3.2625
  751MOL0     H 1319   4.560   5.438   6.837 -1.6660 -0.8754  1.0569
  751MOL0     H 1320   4.284   5.267   6.807  1.1477 -2.5916 -0.0890
  751MOL0     H 1321   4.418   5.253   6.911  0.1276 -0.2913  1.3309
  751MOL0     H 1322   4.290   5.274   7.127 -1.2561 -3.6223  1.5887
  751MOL0     H 1323   4.278   5.138   7.038  0.0711  0.8700  0.2248
  751MOL0     H 1324   4.064   5.270   7.140  1.3966 -3.8254  0.8796
  751MOL0     H 1325   4.050   5.156   7.022 -0.8184  1.1165 -2.8911
  751MOL0     H 1326   4.067   5.461   6.937  0.7617  0.3283  1.8954
  751MOL0     H 1327   4.048   5.333   6.830 -1.8517  2.5574 -0.6250
  751MOL0     H 1328   3.854   5.434   7.037 -1.4632  0.3159  0.0463
  751MOL0     H 1329   3.836   5.412   6.854 -0.8650 -2.5313 -0.7945
  751MOL0     H 1330   3.798   5.189   6.865 -0.0212  1.5326 -1.0397
  751MOL0     H 1331   3.812   5.187   7.045 -1.1734 -0.4602  0.0331
  751MOL0     H 1332   3.582   5.202   6.911 -0.2477  0.6568 -1.7043
  751MOL0     H 1333   3.626   5.361   6.882  1.7796 -1.2190 -2.4170
  751MOL0     H 1334   3.582   5.247   7.170 -1.0736  0.8030  0.0832
  751MOL0     H 1335   3.684   5.384   7.141  0.7910  0.3949  0.8644
  751MOL0     H 1336   3.409   5.403   6.897 -0.0931  2.0638  0.0857
  751MOL0     H 1337   3.187   5.686   7.026  2.2118  0.4336 -1.5244
  751MOL0     H 1338   3.238   5.620   6.869 -0.5190 -1.8337 -0.4157
  751MOL0     H 1339   3.087   5.396   6.934  3.4654 -0.7163  1.7725
  751MOL0     H 1340   3.049   5.498   7.072 -0.7193 -1.1789 -0.9195
  751MOL0     H 1341   2.992   5.592   6.795 -2.5175 -0.6214 -1.7109
  751MOL0     H 1342   2.952   5.668   6.946 -0.0835 -0.4179 -0.9541
  751MOL0     H 1343   2.812   5.439   6.993 -1.7140 -2.9191 -1.4069
  751MOL0     H 1344   2.843   5.417   6.817  0.0867  1.2009 -1.9011
  751MOL0     H 1345   2.650   5.307   7.006 -1.2282 -1.2147  1.9887
  751MOL0     H 1346   2.438   5.228   7.026  0.7425 -0.3877  0.7751
  751MOL0     H 1347   2.033   5.114   7.010 -1.1565 -0.3007 -0.2052
  751MOL0     H 1348   1.852   4.993   7.135  0.8523  1.5259 -2.4946
  751MOL0     H 1349   1.620   4.954   7.266 -0.0212 -3.6084 -1.2776
  751MOL0     H 1350   1.780   4.879   7.302  0.0926  1.4791 -2.5304
  751MOL0     H 1351   1.669   4.762   7.462  1.8407  0.6589 -2.2748
  751MOL0     H 1352   1.694   4.888   7.557  4.1444 -1.1957 -1.6842
  751MOL0     H 1353   1.442   4.977   7.511  0.5505  0.5366 -1.9688
  751MOL0     H 1354   1.417   4.883   7.377  3.4327  0.9062 -1.4596
  751MOL0     H 1355   1.419   4.811   7.681  0.8177 -1.0966  0.2539
  751MOL0     H 1356   1.497   4.693   7.595  1.2805  1.1686  1.6641
  751MOL0     H 1357   1.215   4.790   7.531  1.7146  1.3260 -2.1316
  751MOL0     H 1358   1.250   4.662   7.644  0.9408 -0.9695 -0.8379
  751MOL0     H 1359   1.328   4.678   7.350 -0.6307 -0.8337 -0.2589
  751MOL0     H 1360   1.368   4.546   7.452  3.1153  1.7389 -1.3680
  751MOL0     H 1361   1.176   4.518   7.289  0.6511  0.0185 -0.2115
  751MOL0     H 1362   1.091   4.647   7.367  0.9440  0.6776 -1.3942
  751MOL0     H 1363   1.031   4.394   7.451 -1.9868  0.6896  1.6646
  751MOL0     H 1364   1.174   4.425   7.549  0.0751  1.5514  0.1419
  751MOL0     H 1365   1.881   5.275   7.454 -1.0063  0.4683 -0.0708
  751MOL0     H 1366   2.078   5.380   7.325  1.0539 -2.2477  1.6437
  751MOL0     H 1367   2.262   5.588   6.863  0.3907 -0.6785 -0.0598
  751MOL0     H 1368   2.483   5.669   6.813  1.0292 -1.1069 -1.7524
  751MOL0     H 1369   4.171   5.597   6.771 -0.3632 -3.9200 -0.5789
  751MOL0     H 1370   4.256   5.719   6.566 -0.6973 -0.9842 -0.2240
  751MOL0     H 1371   4.556   5.966   6.392  1.1165  0.6193  0.2634
  751MOL0     H 1372   4.619   6.115   6.231  1.5528 -0.2949  0.4784
  751MOL0     H 1373   4.718   5.966   5.862 -2.0513  1.9555  0.3345
  751MOL0     H 1374   4.898   5.995   5.867 -0.4231 -0.8641 -0.1302
  751MOL0     H 1375   4.838   6.250   5.856  3.1210 -1.6977  0.9100
  751MOL0     H 1376   4.679   6.195   5.818  1.1164  0.8653  2.1548
  751MOL0     H 1377   4.773   6.242   5.606 -0.3257  0.8797  0.5353
  751MOL0     H 1378   4.768   6.061   5.623  2.4560 -2.0540  3.2091
  751MOL0     H 1379   5.009   6.235   5.686  1.0032 -0.6870 -1.0201
  751MOL0     H 1380   4.997   6.055   5.650 -2.3429 -2.1557 -2.6248
  751MOL0     H 1381   5.000   6.204   5.257 -0.8420 -0.9950  0.7637
  751MOL0     H 1382   4.847   5.829   6.014  0.9369 -0.3294  0.6000
  751MOL0     H 1383   4.771   5.587   6.045 -0.8153  1.8443  0.1538
  751MOL0     H 1384   4.881   5.584   6.183  0.1079  0.4700 -0.8210
  751MOL0     H 1385   4.716   5.533   6.208  1.0047 -1.2799 -0.0319
  752MOL0     O 1386   8.273   7.534   6.302 -0.1492 -0.3440 -0.0372
  752MOL0     C 1387   8.200   7.577   6.392  0.3499  0.5937 -0.4250
  752MOL0     O 1388   8.084   7.509   6.436 -0.1723  0.8347  0.5076
  752MOL0     C 1389   8.059   7.369   6.418 -0.1769  0.8086 -0.1402
  752MOL0     C 1390   8.150   7.277   6.381 -0.4887  1.6132 -0.7032
  752MOL0     C 1391   8.125   7.151   6.336  0.3602  0.1219 -0.5673
  752MOL0     C 1392   7.997   7.096   6.340  0.6801  0.4927  0.3581
  752MOL0     O 1393   7.969   6.967   6.299  0.9475 -0.7415  0.7366
  752MOL0     C 1394   7.837   6.917   6.323  1.1020 -0.4718 -0.6514
  752MOL0     C 1395   7.820   6.773   6.286  0.0762 -0.0096 -0.0122
  752MOL0     C 1396   7.703   6.696   6.359  0.2823 -0.3715  0.2133
  752MOL0     C 1397   7.707   6.545   6.327 -0.5159 -0.0285 -0.2870
  752MOL0     C 1398   7.593   6.472   6.405  0.9895  0.0278 -0.7673
  752MOL0     C 1399   7.590   6.318   6.364 -0.5063  0.0822  0.3854
  752MOL0     C 1400   7.475   6.240   6.421  0.5264 -0.1901 -0.6679
  752MOL0     C 1401   7.509   6.196   6.564  0.2525 -0.4628  0.4223
  752MOL0     N 1402   7.462   6.279   6.674 -0.4999 -0.2754 -0.1438
  752MOL0     C 1403   7.545   6.324   6.779  1.6143 -0.3791 -0.6896
  752MOL0     C 1404   7.468   6.420   6.843  0.6615  0.8405 -0.6336
  752MOL0     C 1405   7.486   6.498   6.967  0.2979 -1.0607  0.0947
  752MOL0     C 1406   7.617   6.580   6.970  0.3662 -0.5832  0.2690
  752MOL0     C 1407   7.635   6.692   6.870  0.4672  1.1150  0.1601
  752MOL0     C 1408   7.782   6.740   6.847  0.3338  0.4386  0.1363
  752MOL0     O 1409   7.785   6.875   6.807  0.0881 -0.6239  0.3550
  752MOL0     C 1410   7.754   6.977   6.898  0.0953 -0.0118  0.5198
  752MOL0     C 1411   7.730   6.956   7.029 -0.3993  0.6341 -0.6386
  752MOL0     C 1412   7.666   7.050   7.110 -0.0943 -1.1874 -0.0236
  752MOL0     C 1413   7.642   7.181   7.050  0.6391  0.5704  0.3649
  752MOL0     C 1414   7.574   7.286   7.124 -0.0309 -0.1689  0.8003
  752MOL0     O 1415   7.521   7.395   7.046 -0.2000 -0.1176 -0.8570
  752MOL0     C 1416   7.466   7.513   7.104 -0.6285 -1.3342 -0.9993
  752MOL0     C 1417   7.353   7.572   7.051  0.4382 -0.3875  0.5033
  752MOL0     C 1418   7.312   7.699   7.083 -0.4549  0.0533 -0.5385
  752MOL0     C 1419   7.366   7.763   7.201  0.8622 -0.1392  0.9583
  752MOL0     O 1420   7.343   7.894   7.227  0.3722 -0.8177  0.9095
  752MOL0     C 1421   7.231   7.916   7.300  0.3238 -0.9167 -0.5966
  752MOL0     C 1422   7.230   8.063   7.349  0.6587  0.5031 -0.6222
  752MOL0     C 1423   7.138   8.151   7.260  0.1001 -1.4834 -1.0622
  752MOL0     C 1424   7.113   8.292   7.316  0.4325 -0.0225 -0.1028
  752MOL0     C 1425   7.021   8.385   7.242  0.7239  0.5130 -0.4832
  752MOL0     C 1426   6.998   8.516   7.318 -0.1456 -0.0549 -0.2469
  752MOL0     C 1427   6.933   8.611   7.220 -0.4709 -0.7769 -0.4055
  752MOL0     C 1428   6.891   8.745   7.282 -1.3797 -0.4636  0.0486
  752MOL0    Cl 1429   6.748   8.724   7.379  0.5208  0.3399  0.0542
  752MOL0     C 1430   7.466   7.698   7.268 -0.3872  0.2673 -1.3095
  752MOL0     C 1431   7.512   7.576   7.223 -0.0911 -0.5690  0.3819
  752MOL0     O 1432   7.583   7.284   7.247  1.0862  1.1022  0.4069
  752MOL0     C 1433   7.681   7.213   6.917 -0.0902 -0.3337 -0.6125
  752MOL0     C 1434   7.734   7.108   6.846  0.6517 -0.1734  0.1210
  752MOL0     N 1435   7.346   6.428   6.778  0.3045 -0.0476 -0.6443
  752MOL0     N 1436   7.346   6.359   6.673 -0.3352 -0.2490 -0.0667
  752MOL0     C 1437   7.902   7.192   6.387 -0.0333  0.6650 -0.1868
  752MOL0     C 1438   7.929   7.321   6.439  0.2951 -0.6985  0.2995
  752MOL0     C 1439   8.236   7.705   6.468  0.2324 -0.0613  0.6606
  752MOL0     C 1440   8.156   7.744   6.571 -0.3295  0.0769 -0.0226
  752MOL0     C 1441   8.187   7.855   6.649  0.0697 -0.2774 -0.2776
  752MOL0     C 1442   8.296   7.939   6.613  0.5882  0.5710 -0.3093
  752MOL0     O 1443   8.318   8.064   6.670  0.1116 -0.2757  0.0521
  752MOL0     C 1444   8.447   8.075   6.732 -0.0615 -0.1461 -0.8314
  752MOL0     C 1445   8.497   8.214   6.671 -0.5148  0.3666  0.2217
  752MOL0     C 1446   8.631   8.246   6.738 -0.8286  0.3234 -0.2034
  752MOL0     C 1447   8.673   8.395   6.745  1.1960  0.3094 -0.1000
  752MOL0     C 1448   8.713   8.462   6.619  0.8708 -0.8115  0.0910
  752MOL0     C 1449   8.761   8.498   6.511 -0.0202 -0.2224  0.8582
  752MOL0     C 1450   8.370   7.907   6.500 -0.0299 -0.1957  0.2500
  752MOL0     C 1451   8.349   7.791   6.431  0.0444  0.0354  0.0066
  752MOL0     C 1452   8.456   7.757   6.327 -0.1073  0.4527 -0.1202
  752MOL0     H 1453   8.254   7.303   6.363  0.1697 -0.3274  0.0216
  752MOL0     H 1454   8.202   7.102   6.277  1.5105  0.9649  0.2077
  752MOL0     H 1455   7.826   6.913   6.432 -1.3489 -2.4543 -0.8899
  752MOL0     H 1456   7.753   6.972   6.281 -0.0409 -1.3536  0.3853
  752MOL0     H 1457   7.908   6.711   6.309 -1.7682 -1.7610  2.9909
  752MOL0     H 1458   7.827   6.762   6.177  4.1315  1.7914 -0.1320
  752MOL0     H 1459   7.604   6.730   6.326 -0.9654 -3.6533  0.1487
  752MOL0     H 1460   7.709   6.709   6.468 -2.3682  0.5637  0.3173
  752MOL0     H 1461   7.700   6.524   6.220  1.2666  1.1066 -0.6611
  752MOL0     H 1462   7.802   6.496   6.350  0.5226  2.5402  1.3519
  752MOL0     H 1463   7.603   6.486   6.512 -5.4960  1.3079  0.1141
  752MOL0     H 1464   7.494   6.511   6.379  0.7174  0.7395  1.1714
  752MOL0     H 1465   7.581   6.314   6.255  2.7401 -3.2823  0.0377
  752MOL0     H 1466   7.686   6.269   6.383  0.4793  0.9557 -1.9978
  752MOL0     H 1467   7.460   6.146   6.367  0.2128 -0.0644 -0.8025
  752MOL0     H 1468   7.382   6.299   6.423  0.6903  0.0653 -0.5251
  752MOL0     H 1469   7.445   6.108   6.573  0.7968 -0.9279 -0.1025
  752MOL0     H 1470   7.616   6.176   6.574  0.1690 -2.7459 -2.0524
  752MOL0     H 1471   7.649   6.306   6.800  1.7311  1.1358  0.2016
  752MOL0     H 1472   7.396   6.561   6.974  0.7351 -0.1200 -1.9116
  752MOL0     H 1473   7.493   6.422   7.044  1.1150 -0.8521  0.2361
  752MOL0     H 1474   7.636   6.630   7.066 -0.9306 -0.2530  0.3684
  752MOL0     H 1475   7.706   6.517   6.953  0.7045 -0.1757  0.5084
  752MOL0     H 1476   7.590   6.776   6.924 -0.4924  2.3370 -2.3709
  752MOL0     H 1477   7.577   6.683   6.778 -0.8606 -4.3498  1.1871
  752MOL0     H 1478   7.811   6.693   6.753 -3.1230  0.5969 -1.1666
  752MOL0     H 1479   7.830   6.708   6.939 -1.2272 -2.1796  0.1345
  752MOL0     H 1480   7.775   6.870   7.079  1.2520  1.4179 -0.7199
  752MOL0     H 1481   7.643   7.036   7.214 -1.0808 -1.5387 -0.2828
  752MOL0     H 1482   7.301   7.516   6.973 -3.3612  2.1902  0.9523
  752MOL0     H 1483   7.239   7.749   7.020  0.5900  1.1168 -0.9311
  752MOL0     H 1484   7.138   7.894   7.247 -2.3245  2.8610  1.9125
  752MOL0     H 1485   7.239   7.860   7.394  0.6373  0.4191  0.2040
  752MOL0     H 1486   7.193   8.070   7.452 -2.0973 -0.7658 -1.4382
  752MOL0     H 1487   7.331   8.100   7.365  1.3094 -1.1076 -0.8125
  752MOL0     H 1488   7.169   8.165   7.156  0.2703 -2.7891 -1.2148
  752MOL0     H 1489   7.042   8.100   7.253 -0.4189 -0.5580 -0.7809
  752MOL0     H 1490   7.213   8.336   7.323  0.8635 -0.2574 -3.2938
  752MOL0     H 1491   7.085   8.287   7.421 -0.3395  1.0054 -0.2392
  752MOL0     H 1492   6.931   8.333   7.205  3.1665 -2.9314 -2.2302
  752MOL0     H 1493   7.071   8.413   7.149 -0.0144  1.3399 -0.6459
  752MOL0     H 1494   6.934   8.510   7.407 -0.3143  0.9245 -0.2917
  752MOL0     H 1495   7.095   8.550   7.356 -0.7207  0.8297  0.4661
  752MOL0     H 1496   6.842   8.566   7.178 -2.1210  0.4814  1.6271
  752MOL0     H 1497   7.008   8.633   7.144  0.1882 -2.6654 -0.3592
  752MOL0     H 1498   6.965   8.776   7.356 -0.0489  2.8608 -2.4299
  752MOL0     H 1499   6.886   8.827   7.210  0.3366  1.0147  1.5046
  752MOL0     H 1500   7.513   7.748   7.352 -0.2497 -1.7541 -0.1237
  752MOL0     H 1501   7.592   7.533   7.282  0.2448 -2.1729 -1.1552
  752MOL0     H 1502   7.658   7.309   6.871 -1.2731 -0.7609 -0.9314
  752MOL0     H 1503   7.737   7.131   6.740 -3.4604  0.3614 -0.0322
  752MOL0     H 1504   7.797   7.164   6.386  0.4724 -1.4021 -2.2508
  752MOL0     H 1505   7.852   7.395   6.460  0.6663  0.5082 -2.2526
  752MOL0     H 1506   8.068   7.685   6.595 -0.7361  0.9463  0.6538
  752MOL0     H 1507   8.133   7.886   6.737  0.5651  0.8155 -0.3369
  752MOL0     H 1508   8.513   7.989   6.721  0.7243  0.2445  0.5741
  752MOL0     H 1509   8.432   8.087   6.840  0.2599 -1.0668 -0.6696
  752MOL0     H 1510   8.424   8.294   6.687 -0.2760  0.5064  0.6110
  752MOL0     H 1511   8.513   8.207   6.563  3.5182  1.5349  0.5679
  752MOL0     H 1512   8.716   8.189   6.700 -2.2906 -3.3819  1.6010
  752MOL0     H 1513   8.630   8.216   6.843 -1.3732  1.9137  0.2775
  752MOL0     H 1514   8.588   8.450   6.787  2.1356  1.8754 -0.1735
  752MOL0     H 1515   8.753   8.409   6.818 -1.5197 -0.5205  3.3130
  752MOL0     H 1516   8.798   8.530   6.416 -1.3069 -0.3035  0.3129
  752MOL0     H 1517   8.451   7.973   6.470 -1.1362  2.0802  1.9101
  752MOL0     H 1518   8.541   7.825   6.325  0.3282 -0.0880 -0.1464
  752MOL0     H 1519   8.499   7.657   6.338  0.4020  0.9363  3.3851
  752MOL0     H 1520   8.413   7.761   6.226  0.6418 -0.5549 -0.5020
  753MOL0     O 1521   1.270   8.242   6.667  0.0264  0.3893 -0.7794
  753MOL0     C 1522   1.158   8.200   6.679 -0.3752  1.2566 -0.6763
  753MOL0     O 1523   1.082   8.192   6.788 -0.5867 -0.0112 -0.6050
  753MOL0     C 1524   1.145   8.209   6.909 -0.4071  0.2834  0.3590
  753MOL0     C 1525   1.200   8.327   6.947  0.7736 -1.1474 -0.7308
  753MOL0     C 1526   1.291   8.325   7.063  0.0550 -0.4366 -0.0525
  753MOL0     C 1527   1.314   8.208   7.137 -1.0004  0.1405  0.1016
  753MOL0     O 1528   1.397   8.211   7.244 -0.0846  1.1013 -0.1569
  753MOL0     C 1529   1.432   8.094   7.321  0.4511  0.1618 -0.5951
  753MOL0     C 1530   1.498   8.123   7.451 -0.1721  0.4635  0.3281
  753MOL0     C 1531   1.637   8.193   7.426  0.2688 -0.8080 -0.7820
  753MOL0     C 1532   1.706   8.230   7.557  0.6242  0.1172 -0.3690
  753MOL0     C 1533   1.851   8.260   7.517 -0.0295 -0.6650  0.2923
  753MOL0     C 1534   1.915   8.344   7.626 -0.1302 -0.0368  0.1121
  753MOL0     C 1535   1.962   8.264   7.748 -0.0200  0.2268  0.7937
  753MOL0     C 1536   2.071   8.323   7.836 -0.0999 -0.5378 -0.2846
  753MOL0     N 1537   2.197   8.346   7.759  0.3518 -0.3908 -0.7163
  753MOL0     C 1538   2.241   8.468   7.710 -0.3683  0.0072 -0.5563
  753MOL0     C 1539   2.375   8.450   7.695  0.0303 -0.6002 -0.2220
  753MOL0     C 1540   2.473   8.563   7.653 -0.4531  0.0225 -0.1489
  753MOL0     C 1541   2.589   8.613   7.747 -0.6116 -0.3228  0.5141
  753MOL0     C 1542   2.703   8.518   7.768 -0.1407  0.4531 -0.7723
  753MOL0     C 1543   2.778   8.573   7.894 -0.3928  0.7948 -1.5186
  753MOL0     O 1544   2.818   8.710   7.880  0.2624  0.8067  0.0816
  753MOL0     C 1545   2.835   8.793   7.980 -0.3829 -0.3589 -0.4941
  753MOL0     C 1546   2.823   8.759   8.114  0.6991 -0.0847  0.1259
  753MOL0     C 1547   2.825   8.870   8.211 -0.2789  1.2314  0.4859
  753MOL0     C 1548   2.824   9.003   8.173  0.0257 -0.0913  0.5522
  753MOL0     C 1549   2.819   9.105   8.276  0.8597  0.8054 -0.1969
  753MOL0     O 1550   2.735   9.074   8.388 -0.7678  1.0065  0.0272
  753MOL0     C 1551   2.712   9.153   8.499 -0.6472 -0.0245  0.2922
  753MOL0     C 1552   2.702   9.095   8.626  0.3887  0.2265  0.3699
  753MOL0     C 1553   2.643   9.171   8.724  0.1786  0.8314 -0.4724
  753MOL0     C 1554   2.591   9.302   8.706  0.0313 -0.1037 -0.1907
  753MOL0     O 1555   2.529   9.361   8.817 -0.5581  0.3516 -1.1673
  753MOL0     C 1556   2.458   9.480   8.806 -0.3272 -0.2398  0.1185
  753MOL0     C 1557   2.443   9.546   8.941  0.1497 -0.0478  0.3507
  753MOL0     C 1558   2.348   9.468   9.031  0.0231  1.1732  1.0106
  753MOL0     C 1559   2.320   9.554   9.148  1.7197  0.0240 -0.5967
  753MOL0     C 1560   2.176   9.532   9.207  0.3255  0.6959  0.6385
  753MOL0     C 1561   2.081   9.647   9.150 -0.2858 -0.2276 -0.3585
  753MOL0     C 1562   1.936   9.624   9.155 -0.4366 -0.0170  0.4304
  753MOL0     C 1563   1.872   9.628   9.291 -0.9595 -0.2193 -0.5549
  753MOL0    Cl 1564   1.867   9.793   9.358 -0.6401 -0.1223 -0.3918
  753MOL0     C 1565   2.599   9.354   8.581  0.8236 -0.1919  0.9667
  753MOL0     C 1566   2.658   9.280   8.475 -0.2940 -0.4096  0.1439
  753MOL0     O 1567   2.890   9.200   8.266 -0.4971 -0.3707 -0.0609
  753MOL0     C 1568   2.851   9.030   8.037  0.0496 -0.5662  0.2178
  753MOL0     C 1569   2.851   8.926   7.941  0.4283  0.8764  0.1149
  753MOL0     N 1570   2.406   8.318   7.713  0.1283  0.1490  0.0504
  753MOL0     N 1571   2.301   8.257   7.757  0.1893  0.0868 -0.0397
  753MOL0     C 1572   1.246   8.095   7.103 -0.1634 -0.7082  0.3219
  753MOL0     C 1573   1.161   8.097   6.989 -0.5880  0.4321  0.1841
  753MOL0     C 1574   1.108   8.129   6.557  0.7843  0.0192 -0.2294
  753MOL0     C 1575   0.986   8.050   6.574 -0.6224  0.3415 -0.3386
  753MOL0     C 1576   0.921   8.000   6.462 -0.4130 -0.3098 -0.2588
  753MOL0     C 1577   0.976   8.008   6.333  0.1550  0.1331 -0.5300
  753MOL0     O 1578   0.899   7.976   6.224 -0.8212 -0.7060  0.8107
  753MOL0     C 1579   0.901   7.833   6.198  0.6501  0.1860  0.8824
  753MOL0     C 1580   0.867   7.818   6.045 -0.3356  0.1015 -0.3737
  753MOL0     C 1581   0.887   7.674   5.998 -0.3815  0.2254 -0.2640
  753MOL0     C 1582   0.813   7.641   5.862  0.2621  0.0784  0.4441
  753MOL0     C 1583   0.896   7.701   5.757  0.1367 -0.7216  0.7162
  753MOL0     C 1584   0.952   7.732   5.650 -0.1241 -0.8832 -1.0100
  753MOL0     C 1585   1.094   8.066   6.315  0.5874  1.4603  0.5537
  753MOL0     C 1586   1.167   8.117   6.425  0.5035  0.9403  0.3535
  753MOL0     C 1587   1.290   8.199   6.393 -0.3741  1.4068 -0.0110
  753MOL0     H 1588   1.191   8.419   6.889  1.4034 -1.5048 -1.4053
  753MOL0     H 1589   1.334   8.421   7.089 -0.5604 -0.7138  2.1180
  753MOL0     H 1590   1.347   8.028   7.335  0.6985  0.4418  3.1624
  753MOL0     H 1591   1.499   8.035   7.257  0.4797 -1.7895  1.1180
  753MOL0     H 1592   1.519   8.031   7.507  1.7719 -0.1682 -1.3091
  753MOL0     H 1593   1.424   8.176   7.511 -1.5606  0.2866 -1.1811
  753MOL0     H 1594   1.633   8.284   7.366 -0.5202  0.6315  1.3583
  753MOL0     H 1595   1.694   8.118   7.371  2.0766  0.1097 -0.2430
  753MOL0     H 1596   1.650   8.308   7.609 -1.2956 -0.1126 -1.9843
  753MOL0     H 1597   1.698   8.147   7.628  1.0917 -0.5783 -1.0971
  753MOL0     H 1598   1.911   8.170   7.499 -0.5100 -0.9641  0.1795
  753MOL0     H 1599   1.845   8.318   7.424 -4.9494 -1.6143 -0.2203
  753MOL0     H 1600   2.008   8.393   7.596 -0.7306  1.7746  1.0797
  753MOL0     H 1601   1.839   8.420   7.649  1.2268  1.9706 -1.6337
  753MOL0     H 1602   2.011   8.170   7.720  1.6313  0.8887  1.3194
  753MOL0     H 1603   1.879   8.242   7.815 -0.2277 -0.5213  0.3048
  753MOL0     H 1604   2.048   8.421   7.880  0.6065 -0.3783 -0.2528
  753MOL0     H 1605   2.082   8.256   7.921 -2.2243  1.4105  1.6684
  753MOL0     H 1606   2.180   8.556   7.697 -0.2499 -0.1344 -2.3068
  753MOL0     H 1607   2.536   8.520   7.574  0.5280  0.1402  0.5560
  753MOL0     H 1608   2.410   8.638   7.604 -1.3575 -2.0553 -2.4058
  753MOL0     H 1609   2.641   8.688   7.687  1.7473 -1.9140  0.4440
  753MOL0     H 1610   2.541   8.657   7.835  0.3346  0.1768  0.7925
  753MOL0     H 1611   2.765   8.510   7.678  0.5917  2.2275 -0.4754
  753MOL0     H 1612   2.664   8.423   7.805 -0.1148  0.2873 -1.1680
  753MOL0     H 1613   2.865   8.510   7.913 -0.0802  1.2798 -1.3228
  753MOL0     H 1614   2.708   8.568   7.978  2.5367  0.7033  1.0841
  753MOL0     H 1615   2.789   8.664   8.155 -0.7178  1.6133  3.3098
  753MOL0     H 1616   2.813   8.842   8.316  0.3361 -1.0561  0.0040
  753MOL0     H 1617   2.738   9.000   8.662 -2.8779 -1.0723  0.5286
  753MOL0     H 1618   2.628   9.135   8.825 -0.9586  1.3400 -0.4412
  753MOL0     H 1619   2.515   9.554   8.749  1.4226 -2.6680 -1.4962
  753MOL0     H 1620   2.356   9.471   8.765  0.7523  0.3738 -3.0080
  753MOL0     H 1621   2.544   9.557   8.981  0.7737  1.5152 -1.4790
  753MOL0     H 1622   2.394   9.642   8.923 -0.2542  0.1739  2.3725
  753MOL0     H 1623   2.264   9.439   8.967  1.1358 -1.4772  0.6041
  753MOL0     H 1624   2.399   9.376   9.062 -1.3134  0.3053  0.6919
  753MOL0     H 1625   2.324   9.660   9.121 -0.0206  0.9910  2.4078
  753MOL0     H 1626   2.396   9.529   9.222  1.3725  0.5038 -0.0722
  753MOL0     H 1627   2.180   9.527   9.317 -0.3758  0.0383  0.6440
  753MOL0     H 1628   2.146   9.433   9.170 -2.4531  0.3037  3.4762
  753MOL0     H 1629   2.095   9.735   9.213 -1.3275 -0.4512  0.2113
  753MOL0     H 1630   2.114   9.677   9.050  2.5323 -0.6963  0.3476
  753MOL0     H 1631   1.911   9.537   9.094 -0.3114  0.1460  0.1414
  753MOL0     H 1632   1.903   9.705   9.089 -1.2665  0.4642  1.3997
  753MOL0     H 1633   1.771   9.586   9.286 -0.3823 -1.6331 -0.7852
  753MOL0     H 1634   1.939   9.579   9.362 -0.6211  1.9793  0.7443
  753MOL0     H 1635   2.565   9.453   8.552 -2.9194 -0.6085  3.1568
  753MOL0     H 1636   2.654   9.321   8.374 -3.8654 -1.4518 -0.2833
  753MOL0     H 1637   2.861   9.134   8.009 -0.6416 -0.9901 -1.7820
  753MOL0     H 1638   2.878   8.943   7.838  0.6312 -0.6415 -0.1096
  753MOL0     H 1639   1.243   8.005   7.164 -3.4966 -0.7360  0.3092
  753MOL0     H 1640   1.121   8.005   6.947  1.7849 -0.4046 -0.3741
  753MOL0     H 1641   0.936   8.036   6.669 -1.4027  2.0412 -0.4652
  753MOL0     H 1642   0.821   7.964   6.484  0.7300 -2.9215  1.1256
  753MOL0     H 1643   0.827   7.776   6.254  1.0562 -0.8648  0.3804
  753MOL0     H 1644   1.001   7.790   6.210  0.0710 -0.9210  1.9078
  753MOL0     H 1645   0.948   7.876   5.999  0.9784 -2.2760 -1.2896
  753MOL0     H 1646   0.768   7.856   6.021 -0.3408 -0.4445 -1.2973
  753MOL0     H 1647   0.830   7.619   6.073  2.8465 -0.2593  2.0787
  753MOL0     H 1648   0.992   7.644   6.003 -0.3435  0.5203  1.1823
  753MOL0     H 1649   0.813   7.533   5.843 -0.2089 -0.3356  2.5371
  753MOL0     H 1650   0.708   7.671   5.858  0.1959 -0.0538  1.0073
  753MOL0     H 1651   1.010   7.754   5.563  0.3272 -0.6654 -0.6625
  753MOL0     H 1652   1.132   8.063   6.214  2.1509  1.3289  1.1222
  753MOL0     H 1653   1.328   8.180   6.292  1.4492 -0.4020  0.9342
  753MOL0     H 1654   1.270   8.305   6.407  1.0043  1.6062  0.6388
  753MOL0     H 1655   1.372   8.179   6.463 -0.3831  1.0047 -0.1108
  754MOL0     O 1656   5.117   4.737   1.494 -0.4253 -0.6413 -0.7822
  754MOL0     C 1657   5.024   4.805   1.459 -0.0495 -0.0440 -0.0268
  754MOL0     O 1658   5.027   4.940   1.419  0.1331 -0.0387 -0.3399
  754MOL0     C 1659   5.137   5.016   1.434 -0.0800 -0.0856  0.6550
  754MOL0     C 1660   5.273   4.974   1.426  0.1284  0.5051  0.3242
  754MOL0     C 1661   5.376   5.066   1.442  0.9932 -0.7921 -0.0622
  754MOL0     C 1662   5.353   5.202   1.455 -0.1400 -0.2816 -0.8799
  754MOL0     O 1663   5.454   5.293   1.441 -0.3303  0.6148 -0.0990
  754MOL0     C 1664   5.441   5.424   1.491  1.3645  0.3230 -0.7610
  754MOL0     C 1665   5.583   5.468   1.495  0.1757 -0.3165  0.1690
  754MOL0     C 1666   5.596   5.627   1.499 -0.2364  0.3156  0.1506
  754MOL0     C 1667   5.735   5.660   1.450 -0.0707  0.0614 -0.3190
  754MOL0     C 1668   5.742   5.813   1.448  0.2792 -0.3522  0.8317
  754MOL0     C 1669   5.868   5.844   1.370 -0.3533 -0.4664 -0.1771
  754MOL0     C 1670   5.875   5.994   1.332 -0.0841 -0.1099  0.3954
  754MOL0     C 1671   6.022   6.033   1.300  0.1097  0.0501 -0.1537
  754MOL0     N 1672   6.085   5.945   1.198 -0.4293 -0.4495 -0.3127
  754MOL0     C 1673   6.043   5.922   1.070  0.2799 -0.1380 -0.2871
  754MOL0     C 1674   6.104   5.812   1.032 -0.5576 -0.2988  0.3188
  754MOL0     C 1675   6.072   5.752   0.896  0.2084  0.7169  0.1114
  754MOL0     C 1676   6.185   5.673   0.828 -0.5792 -1.2948  0.2831
  754MOL0     C 1677   6.164   5.603   0.689 -0.3962 -0.1259  0.2597
  754MOL0     C 1678   6.293   5.560   0.633  0.0256  0.1207 -0.2348
  754MOL0     O 1679   6.359   5.454   0.709  0.1656  0.4850  0.5249
  754MOL0     C 1680   6.491   5.430   0.675 -0.3804 -0.3970 -0.4984
  754MOL0     C 1681   6.531   5.364   0.550  0.3964  0.0598 -0.6566
  754MOL0     C 1682   6.666   5.319   0.538 -0.4960  0.9783  0.8910
  754MOL0     C 1683   6.769   5.357   0.627 -1.0627 -0.6348  0.0111
  754MOL0     C 1684   6.910   5.339   0.595  0.0857 -0.1229  0.0935
  754MOL0     O 1685   6.994   5.415   0.667 -0.0885  0.1885 -0.6288
  754MOL0     C 1686   7.131   5.421   0.643 -0.1094  0.3659  1.1118
  754MOL0     C 1687   7.196   5.406   0.518 -0.7142  0.3488  1.0500
  754MOL0     C 1688   7.326   5.445   0.500 -0.3477  0.3707 -0.1307
  754MOL0     C 1689   7.404   5.483   0.613 -1.1328  0.3885 -0.3347
  754MOL0     O 1690   7.531   5.525   0.612 -0.3034  0.2917 -0.3900
  754MOL0     C 1691   7.573   5.595   0.498  0.2892 -0.1945  0.0165
  754MOL0     C 1692   7.724   5.601   0.507  0.1996  0.0597 -0.0495
  754MOL0     C 1693   7.791   5.639   0.374  0.8419 -0.3525 -0.2677
  754MOL0     C 1694   7.754   5.780   0.319 -0.7653 -1.6296 -0.4440
  754MOL0     C 1695   7.818   5.804   0.187 -0.2257  0.6448 -0.4278
  754MOL0     C 1696   7.972   5.806   0.199  0.6129 -0.5096  0.1929
  754MOL0     C 1697   8.036   5.854   0.071  0.4649 -0.1004  0.2036
  754MOL0     C 1698   8.003   5.800  -0.069  0.0030 -1.5018  0.2044
  754MOL0    Cl 1699   8.112   5.871  -0.193  0.4819 -0.0606  0.2656
  754MOL0     C 1700   7.342   5.472   0.738  0.3414  0.3124 -0.2622
  754MOL0     C 1701   7.208   5.438   0.749 -0.4522 -0.6433 -1.1395
  754MOL0     O 1702   6.937   5.258   0.506  0.1956 -0.3636  0.2057
  754MOL0     C 1703   6.729   5.428   0.740  0.2315  0.6266 -0.2960
  754MOL0     C 1704   6.597   5.465   0.766 -0.5594  0.3923 -0.0973
  754MOL0     N 1705   6.195   5.775   1.127  0.2113 -0.6356 -0.7521
  754MOL0     N 1706   6.178   5.859   1.225 -0.6938  0.3221 -0.5317
  754MOL0     C 1707   5.225   5.246   1.481 -0.3491 -0.6288 -0.2744
  754MOL0     C 1708   5.114   5.157   1.461 -0.1414  0.4524  1.0803
  754MOL0     C 1709   4.894   4.732   1.441 -0.6736 -0.5149  0.5902
  754MOL0     C 1710   4.801   4.782   1.342  0.6156 -0.0636 -0.1892
  754MOL0     C 1711   4.677   4.728   1.321  0.0259 -0.0333  0.6418
  754MOL0     C 1712   4.647   4.620   1.402  0.2487  0.2394 -0.3091
  754MOL0     O 1713   4.531   4.558   1.376  0.4762  0.8712  0.3180
  754MOL0     C 1714   4.523   4.411   1.419  0.1788  0.1483  0.1268
  754MOL0     C 1715   4.376   4.371   1.390  0.1727  0.0433  0.3010
  754MOL0     C 1716   4.350   4.344   1.242  0.0564  0.7154  1.4753
  754MOL0     C 1717   4.197   4.350   1.217  0.0557 -0.9419  0.1311
  754MOL0     C 1718   4.135   4.218   1.212  0.7366  0.0043 -0.9108
  754MOL0     C 1719   4.077   4.114   1.209 -0.3744 -0.1785 -0.4643
  754MOL0     C 1720   4.735   4.563   1.497  0.5042 -0.1038  0.4114
  754MOL0     C 1721   4.859   4.622   1.521 -0.3800 -0.8398 -0.1672
  754MOL0     C 1722   4.944   4.559   1.624 -0.0552 -1.4727  0.1958
  754MOL0     H 1723   5.305   4.876   1.393 -2.9300 -1.1159  1.7760
  754MOL0     H 1724   5.482   5.047   1.423  0.9921 -1.5526  0.6457
  754MOL0     H 1725   5.372   5.472   1.422  1.2701 -0.4034 -1.1793
  754MOL0     H 1726   5.412   5.432   1.597 -0.4757  2.7410 -1.3330
  754MOL0     H 1727   5.627   5.431   1.402  0.1534  3.3102 -1.4616
  754MOL0     H 1728   5.633   5.411   1.573 -1.4808 -0.2886  1.3041
  754MOL0     H 1729   5.569   5.672   1.595  1.0128 -0.7821  1.0569
  754MOL0     H 1730   5.524   5.670   1.428 -0.2738  2.6411  1.4950
  754MOL0     H 1731   5.803   5.632   1.531 -0.1318  0.5908 -0.0837
  754MOL0     H 1732   5.764   5.606   1.360  1.9123  1.0384 -0.3104
  754MOL0     H 1733   5.652   5.859   1.408 -0.9255 -0.0605  3.6673
  754MOL0     H 1734   5.747   5.855   1.549 -6.7470  0.5734  1.2877
  754MOL0     H 1735   5.961   5.815   1.421 -0.8918 -0.9926  0.5232
  754MOL0     H 1736   5.866   5.778   1.283 -0.6891  0.5933 -0.9905
  754MOL0     H 1737   5.845   6.059   1.414  0.7190  0.3569  0.3275
  754MOL0     H 1738   5.806   6.010   1.249  1.1504 -2.0407 -1.0945
  754MOL0     H 1739   6.026   6.135   1.261  4.8977 -0.6597 -2.2862
  754MOL0     H 1740   6.085   6.035   1.390 -2.3209 -1.1840  1.6724
  754MOL0     H 1741   5.968   5.973   1.011  0.1319  0.9625  0.8289
  754MOL0     H 1742   5.987   5.686   0.912  0.6256  0.3352  0.7786
  754MOL0     H 1743   6.039   5.834   0.830 -0.9123  1.0389  1.0368
  754MOL0     H 1744   6.275   5.736   0.824 -1.3162 -0.2648 -0.2237
  754MOL0     H 1745   6.196   5.596   0.906 -2.2454 -0.9430  0.9003
  754MOL0     H 1746   6.112   5.670   0.621 -1.3384  1.2587  2.2315
  754MOL0     H 1747   6.096   5.522   0.718 -1.8444  0.1686 -2.0594
  754MOL0     H 1748   6.352   5.651   0.623 -1.7176  1.1048 -2.4413
  754MOL0     H 1749   6.289   5.524   0.529  1.2297  2.3837 -1.1277
  754MOL0     H 1750   6.450   5.344   0.481 -3.2742  1.0685  2.9538
  754MOL0     H 1751   6.690   5.250   0.458 -1.3483 -0.1405  1.5666
  754MOL0     H 1752   7.136   5.384   0.430  1.9861 -3.2062 -0.1365
  754MOL0     H 1753   7.364   5.453   0.399  1.0160  3.4076  0.5134
  754MOL0     H 1754   7.540   5.560   0.400 -1.6113  3.4397 -0.8145
  754MOL0     H 1755   7.527   5.694   0.510  0.6220 -0.2682  2.3210
  754MOL0     H 1756   7.759   5.666   0.587 -1.3882 -1.0872  1.6766
  754MOL0     H 1757   7.763   5.500   0.523  0.6717  0.0233 -1.3387
  754MOL0     H 1758   7.896   5.612   0.389 -0.1622 -4.2374  1.0075
  754MOL0     H 1759   7.759   5.564   0.301 -0.0059  1.7011 -2.1062
  754MOL0     H 1760   7.800   5.850   0.390 -0.4008  0.9059 -3.0265
  754MOL0     H 1761   7.646   5.784   0.306 -0.7473 -2.2051 -0.7878
  754MOL0     H 1762   7.772   5.893   0.144  0.1091  0.4923 -1.1162
  754MOL0     H 1763   7.783   5.718   0.129  0.3420 -0.6829  1.1256
  754MOL0     H 1764   7.998   5.893   0.260 -0.4418  1.2595 -1.7379
  754MOL0     H 1765   8.005   5.706   0.225 -1.0508 -1.8510 -2.4161
  754MOL0     H 1766   8.145   5.848   0.079  0.5171 -0.2579 -0.6021
  754MOL0     H 1767   8.005   5.959   0.067  0.7125  0.0005  0.8265
  754MOL0     H 1768   8.010   5.691  -0.072 -0.6912 -1.5612  0.6363
  754MOL0     H 1769   7.899   5.819  -0.095  0.0177 -3.5433 -1.6086
  754MOL0     H 1770   7.401   5.503   0.824  1.6000 -2.7926  0.1525
  754MOL0     H 1771   7.165   5.450   0.848  1.4410  1.4388 -0.4714
  754MOL0     H 1772   6.803   5.457   0.814 -0.3620  2.1896 -0.2851
  754MOL0     H 1773   6.559   5.528   0.847  2.2114  4.1023 -1.4162
  754MOL0     H 1774   5.188   5.344   1.508  1.5589  0.4520 -1.3243
  754MOL0     H 1775   5.009   5.183   1.455 -0.2627 -0.0970  0.7827
  754MOL0     H 1776   4.827   4.870   1.283  0.7097  2.3361  3.1877
  754MOL0     H 1777   4.611   4.752   1.239 -1.8800  0.1025  2.1303
  754MOL0     H 1778   4.529   4.395   1.527  2.5372  1.8953  0.3348
  754MOL0     H 1779   4.584   4.348   1.354 -0.8107  0.6601 -1.3595
  754MOL0     H 1780   4.314   4.455   1.423  0.4849 -0.3756  2.0203
  754MOL0     H 1781   4.341   4.290   1.454 -1.9064  0.9057  0.3432
  754MOL0     H 1782   4.401   4.256   1.200 -2.0085 -0.1141  0.5353
  754MOL0     H 1783   4.400   4.424   1.186  3.1754 -2.6264 -0.9893
  754MOL0     H 1784   4.146   4.428   1.274  2.8977  2.2761 -1.3758
  754MOL0     H 1785   4.181   4.394   1.118 -0.3882  0.2363  0.7018
  754MOL0     H 1786   4.028   4.023   1.178  0.1923  0.4746 -3.5699
  754MOL0     H 1787   4.710   4.475   1.555 -1.7148  1.8198  2.5753
  754MOL0     H 1788   5.040   4.527   1.584  0.7125  1.5735 -0.6015
  754MOL0     H 1789   4.969   4.633   1.700 -0.4504  0.3713 -1.3945
  754MOL0     H 1790   4.890   4.478   1.674 -2.0069  1.2009  2.7630
  755MOL0     O 1791   5.088   1.424   4.029 -0.4793 -0.0398 -0.3655
  755MOL0     C 1792   4.968   1.424   4.064 -0.2119  0.6967  0.2996
  755MOL0     O 1793   4.882   1.533   4.047 -0.4589  0.4801 -0.0012
  755MOL0     C 1794   4.931   1.622   3.958 -0.2303 -0.6448 -0.0178
  755MOL0     C 1795   5.041   1.706   3.988 -0.2934 -1.1659  0.4801
  755MOL0     C 1796   5.126   1.759   3.889  0.0586  0.0489 -0.2508
  755MOL0     C 1797   5.100   1.744   3.748 -0.2427 -0.6165 -0.5700
  755MOL0     O 1798   5.190   1.805   3.657 -0.2731  0.5498 -0.2351
  755MOL0     C 1799   5.156   1.796   3.516  0.8412  0.3081 -0.6793
  755MOL0     C 1800   5.251   1.869   3.424  0.1802 -0.5292  0.3287
  755MOL0     C 1801   5.375   1.792   3.403 -0.4251  0.0568 -0.0660
  755MOL0     C 1802   5.462   1.868   3.294 -0.1504 -0.1181  0.0767
  755MOL0     C 1803   5.597   1.807   3.273  0.8357 -0.0560  0.6562
  755MOL0     C 1804   5.672   1.867   3.162 -0.1015  0.1876  0.8559
  755MOL0     C 1805   5.692   2.022   3.149 -0.1258 -0.4539  0.3076
  755MOL0     C 1806   5.599   2.087   3.050  1.1052  0.9174 -0.3368
  755MOL0     N 1807   5.619   2.231   3.023 -0.1171 -0.2494 -0.5613
  755MOL0     C 1808   5.730   2.261   2.959  0.2489  0.0357 -1.0429
  755MOL0     C 1809   5.730   2.395   2.962  0.2045  0.4844 -0.0578
  755MOL0     C 1810   5.844   2.473   2.902  1.2147 -0.0595  0.0829
  755MOL0     C 1811   5.899   2.420   2.770  0.3012 -0.5694 -0.6783
  755MOL0     C 1812   5.951   2.533   2.683 -0.1184  0.5268  0.8264
  755MOL0     C 1813   5.987   2.489   2.539  0.2831 -0.1222  0.4877
  755MOL0     O 1814   6.030   2.609   2.464  0.0198  1.0665 -0.3316
  755MOL0     C 1815   5.944   2.700   2.406  0.3764  0.2516  0.7291
  755MOL0     C 1816   6.009   2.795   2.316  0.0113 -0.0557 -0.3150
  755MOL0     C 1817   5.938   2.906   2.267  0.2035 -0.8193  0.7441
  755MOL0     C 1818   5.799   2.920   2.289  0.2112  0.5011  0.2381
  755MOL0     C 1819   5.724   3.033   2.235 -0.4640 -0.4423 -0.1776
  755MOL0     O 1820   5.791   3.155   2.232  0.0824 -0.3551 -0.2717
  755MOL0     C 1821   5.725   3.255   2.177  1.4253  0.1354  0.7248
  755MOL0     C 1822   5.732   3.279   2.035  0.6707 -0.0366  0.1946
  755MOL0     C 1823   5.665   3.386   1.980  0.6803  0.9107 -0.8287
  755MOL0     C 1824   5.590   3.465   2.070  0.2573 -0.4851  0.1778
  755MOL0     O 1825   5.514   3.555   2.004  0.2725 -0.4799 -0.6115
  755MOL0     C 1826   5.439   3.644   2.079  0.5538 -0.4703 -0.3411
  755MOL0     C 1827   5.359   3.738   1.987 -0.1155  0.5327 -0.3273
  755MOL0     C 1828   5.277   3.840   2.066 -0.3369  1.0866  0.0170
  755MOL0     C 1829   5.188   3.914   1.962  0.1393 -0.7651  0.5085
  755MOL0     C 1830   5.098   4.033   2.016 -1.4430  0.4127  0.1647
  755MOL0     C 1831   5.177   4.163   2.042 -0.1105  0.2279 -0.2821
  755MOL0     C 1832   5.087   4.258   2.115  0.1177 -0.7844 -0.1583
  755MOL0     C 1833   4.937   4.280   2.059  0.1711 -0.7030  0.9064
  755MOL0    Cl 1834   4.851   4.415   2.134 -0.2581 -0.4575 -0.5492
  755MOL0     C 1835   5.595   3.455   2.209  0.3752  0.7171 -0.2531
  755MOL0     C 1836   5.653   3.339   2.262 -1.6769 -0.4113 -0.0956
  755MOL0     O 1837   5.612   3.015   2.194  0.0892 -0.3137  0.8432
  755MOL0     C 1838   5.733   2.820   2.363 -0.3785  0.5648 -0.0897
  755MOL0     C 1839   5.805   2.708   2.414  0.3219  0.3359 -0.8842
  755MOL0     N 1840   5.616   2.447   3.029  0.2146  0.0228  0.0244
  755MOL0     N 1841   5.564   2.340   3.084 -0.5723  0.1220  0.0084
  755MOL0     C 1842   4.988   1.671   3.719 -0.4125 -0.0275  1.0552
  755MOL0     C 1843   4.910   1.610   3.817  0.1505  0.3219  0.8157
  755MOL0     C 1844   4.909   1.303   4.128  0.1854  0.5217  0.1945
  755MOL0     C 1845   4.775   1.320   4.179 -0.5283  0.0349  1.1251
  755MOL0     C 1846   4.706   1.214   4.233 -0.3921  0.4064  0.3802
  755MOL0     C 1847   4.774   1.088   4.237 -0.3033  0.6612 -0.0676
  755MOL0     O 1848   4.709   0.975   4.276 -0.4827  0.0979  0.0711
  755MOL0     C 1849   4.571   0.953   4.231 -0.3748 -0.2664  0.0435
  755MOL0     C 1850   4.465   0.977   4.341 -0.1221  1.6645  0.4116
  755MOL0     C 1851   4.496   0.906   4.474  0.3841  0.3570 -0.2613
  755MOL0     C 1852   4.366   0.837   4.535  0.2079  0.3199  0.2587
  755MOL0     C 1853   4.320   0.720   4.464  0.3414  1.1398 -1.2813
  755MOL0     C 1854   4.273   0.618   4.414 -0.5461 -0.5116 -0.2317
  755MOL0     C 1855   4.905   1.067   4.200 -0.3194 -0.4379 -0.6383
  755MOL0     C 1856   4.970   1.175   4.130 -0.1683 -0.0385 -0.3510
  755MOL0     C 1857   5.099   1.141   4.057 -0.2938 -0.8048  0.1083
  755MOL0     H 1858   5.084   1.704   4.088 -0.3690 -1.9143  0.5093
  755MOL0     H 1859   5.211   1.822   3.914 -0.9043  0.4863  2.2177
  755MOL0     H 1860   5.154   1.695   3.475 -0.1285  1.1754 -2.9309
  755MOL0     H 1861   5.058   1.842   3.501  0.3011 -1.6168 -3.9916
  755MOL0     H 1862   5.265   1.965   3.474 -1.5299  0.3674 -0.8049
  755MOL0     H 1863   5.196   1.894   3.332  1.7264  1.5113 -0.0934
  755MOL0     H 1864   5.360   1.694   3.355  1.3616 -0.6710  0.7554
  755MOL0     H 1865   5.422   1.779   3.501 -0.2804  2.4574  0.2333
  755MOL0     H 1866   5.403   1.872   3.202 -0.7008  1.1128  0.4570
  755MOL0     H 1867   5.479   1.969   3.332  0.9035 -0.9521  1.9184
  755MOL0     H 1868   5.642   1.829   3.370 -2.9767 -0.0069  2.6331
  755MOL0     H 1869   5.608   1.700   3.253 -1.5885 -0.3887  0.7910
  755MOL0     H 1870   5.775   1.829   3.160 -1.1722 -3.1077 -1.9940
  755MOL0     H 1871   5.631   1.814   3.076  0.7223  0.3845  0.3287
  755MOL0     H 1872   5.791   2.039   3.106 -2.4452  3.0358 -4.4777
  755MOL0     H 1873   5.694   2.074   3.245  3.7001  0.5752 -0.1705
  755MOL0     H 1874   5.620   2.037   2.955 -1.6307 -1.4724  0.1816
  755MOL0     H 1875   5.493   2.068   3.068  0.3934  2.7822 -2.1932
  755MOL0     H 1876   5.808   2.191   2.931  0.8556  1.2922 -2.6457
  755MOL0     H 1877   5.817   2.578   2.892  0.9889  0.2140  2.8182
  755MOL0     H 1878   5.921   2.464   2.979  1.1252  3.4851  0.7229
  755MOL0     H 1879   5.970   2.341   2.796 -2.7765 -3.4844 -0.4966
  755MOL0     H 1880   5.809   2.372   2.731  0.5151 -1.3879 -0.1801
  755MOL0     H 1881   6.042   2.577   2.726  0.0894  1.4938 -0.5210
  755MOL0     H 1882   5.881   2.617   2.690 -1.4081 -0.3994 -0.3792
  755MOL0     H 1883   5.903   2.437   2.492  2.2782 -2.9817 -0.1262
  755MOL0     H 1884   6.072   2.421   2.548  0.4699  0.1128  0.4928
  755MOL0     H 1885   6.115   2.780   2.300  0.2977  1.0580  0.3759
  755MOL0     H 1886   5.974   2.990   2.208 -0.2637 -1.8626 -1.1345
  755MOL0     H 1887   5.790   3.210   1.974 -2.1528 -2.1486 -0.2815
  755MOL0     H 1888   5.660   3.393   1.872 -1.8405  1.8715 -0.7143
  755MOL0     H 1889   5.380   3.598   2.159 -0.3908 -0.7512 -1.1783
  755MOL0     H 1890   5.512   3.712   2.124  0.1358  0.7539 -1.4482
  755MOL0     H 1891   5.436   3.786   1.926  0.8118  1.2995  1.3858
  755MOL0     H 1892   5.303   3.667   1.926 -0.3442  1.0320 -0.7004
  755MOL0     H 1893   5.216   3.781   2.135 -1.1080  2.5117  0.5815
  755MOL0     H 1894   5.344   3.908   2.119 -1.1461  1.3278  0.7431
  755MOL0     H 1895   5.127   3.834   1.920 -2.4133 -0.0051  2.5408
  755MOL0     H 1896   5.242   3.960   1.879 -2.0715 -1.6948 -1.5650
  755MOL0     H 1897   5.048   3.998   2.107 -0.3967  1.1516  1.0569
  755MOL0     H 1898   5.017   4.052   1.946 -1.5189  0.5326  0.2841
  755MOL0     H 1899   5.257   4.139   2.112  1.4578 -0.9131 -2.3689
  755MOL0     H 1900   5.223   4.204   1.951  1.0516  0.0465  0.2108
  755MOL0     H 1901   5.135   4.356   2.108 -1.1235 -0.2454 -2.0498
  755MOL0     H 1902   5.082   4.226   2.219 -3.7477  1.3230  0.4779
  755MOL0     H 1903   4.942   4.312   1.954 -0.8326 -1.5578  0.5852
  755MOL0     H 1904   4.880   4.187   2.062 -0.7399 -0.3245 -1.7846
  755MOL0     H 1905   5.552   3.520   2.284  1.2710  1.5857 -0.4692
  755MOL0     H 1906   5.657   3.310   2.367 -0.0921 -0.1883 -0.0746
  755MOL0     H 1907   5.627   2.836   2.378 -0.1185  0.1347  2.7965
  755MOL0     H 1908   5.763   2.628   2.474 -0.5698  0.5223 -1.2481
  755MOL0     H 1909   4.961   1.635   3.621 -0.1782  2.2840  0.0813
  755MOL0     H 1910   4.823   1.550   3.794  0.1763  0.9349 -1.0413
  755MOL0     H 1911   4.726   1.416   4.163  0.9481  0.6228 -0.1635
  755MOL0     H 1912   4.605   1.222   4.271 -0.0717  1.2431  1.1191
  755MOL0     H 1913   4.554   0.857   4.183 -0.6117 -1.0266  1.5828
  755MOL0     H 1914   4.561   1.025   4.149 -0.0618 -1.1554 -0.7884
  755MOL0     H 1915   4.371   0.936   4.302  0.5369 -2.0382  2.3041
  755MOL0     H 1916   4.453   1.080   4.375  0.0987  0.8064  3.3903
  755MOL0     H 1917   4.537   0.976   4.547 -0.4846 -0.9924  1.6007
  755MOL0     H 1918   4.569   0.827   4.457 -2.1216 -1.6943 -2.4018
  755MOL0     H 1919   4.390   0.808   4.638 -2.8505 -1.4131  0.6126
  755MOL0     H 1920   4.283   0.908   4.533  1.0128  1.3473  1.4197
  755MOL0     H 1921   4.229   0.533   4.364  0.1103 -0.2962 -1.2161
  755MOL0     H 1922   4.943   0.966   4.204 -0.6625 -0.6249 -1.5792
  755MOL0     H 1923   5.098   1.158   3.949  4.2019 -3.0325 -0.5152
  755MOL0     H 1924   5.184   1.192   4.102 -1.2798  0.9096  0.1113
  755MOL0     H 1925   5.116   1.037   4.084  2.4134 -0.3614  0.3780
  756MOL0     O 1926   2.913  10.465  10.756 -0.5586  0.2156 -0.1129
  756MOL0     C 1927   2.907  10.574  10.814 -0.3839 -0.0500  0.4881
  756MOL0     O 1928   3.017  10.631  10.886 -0.4467 -0.2438  0.7485
  756MOL0     C 1929   3.138  10.559  10.859 -0.0707 -0.8037  0.4881
  756MOL0     C 1930   3.187  10.462  10.952  0.1146  0.7628 -0.2847
  756MOL0     C 1931   3.306  10.400  10.926 -0.3869  0.0209 -0.8318
  756MOL0     C 1932   3.383  10.430  10.817 -0.3671 -0.1759  0.2542
  756MOL0     O 1933   3.509  10.369  10.804 -0.0148  0.0057  0.1585
  756MOL0     C 1934   3.514  10.229  10.838  0.2693 -0.2845 -0.0423
  756MOL0     C 1935   3.634  10.157  10.771 -0.4316  0.8142 -0.5936
  756MOL0     C 1936   3.778  10.205  10.816  0.1217 -0.5222  0.2180
  756MOL0     C 1937   3.860  10.077  10.845  0.2233 -0.7222 -0.3790
  756MOL0     C 1938   4.002  10.105  10.898  0.2287 -0.7826 -0.3075
  756MOL0     C 1939   4.066   9.976  10.926  0.1640 -0.0060  0.2749
  756MOL0     C 1940   4.166   9.990  11.038  0.6081  0.7182 -0.3720
  756MOL0     C 1941   4.243   9.857  11.053 -0.9122  0.9980 -0.0137
  756MOL0     N 1942   4.365   9.857  11.132  0.2303  0.8321 -0.8252
  756MOL0     C 1943   4.479   9.805  11.097 -0.3409 -0.0874  0.0527
  756MOL0     C 1944   4.567   9.844  11.193 -0.0503  0.5882  0.0433
  756MOL0     C 1945   4.722   9.814  11.211  0.0345  0.1311  0.1818
  756MOL0     C 1946   4.757   9.693  11.292 -0.5334 -0.0948 -0.1548
  756MOL0     C 1947   4.653   9.665  11.404 -0.5083  0.2674  0.0269
  756MOL0     C 1948   4.710   9.559  11.508  0.2445 -0.0926  0.2023
  756MOL0     O 1949   4.627   9.554  11.620  0.3534 -0.0897 -0.0484
  756MOL0     C 1950   4.663   9.459  11.715 -1.2219  0.3825 -1.1372
  756MOL0     C 1951   4.592   9.461  11.835  0.3621 -0.1597  0.2239
  756MOL0     C 1952   4.608   9.365  11.928  0.6187  0.4735  0.3509
  756MOL0     C 1953   4.689   9.248  11.901  0.1675 -0.1539  0.9893
  756MOL0     C 1954   4.708   9.142  11.998  0.9050  0.2898  0.2821
  756MOL0     O 1955   4.607   9.131  12.099  0.2483 -0.3259 -0.0457
  756MOL0     C 1956   4.634   9.053  12.206  0.7022 -0.2609 -0.7574
  756MOL0     C 1957   4.682   9.106  12.324 -0.5273 -0.5668 -0.5663
  756MOL0     C 1958   4.702   9.034  12.443 -1.3134 -0.6738  0.5703
  756MOL0     C 1959   4.660   8.909  12.453 -0.2773 -0.0826 -0.5958
  756MOL0     O 1960   4.686   8.840  12.567  0.2524 -0.2969 -0.5640
  756MOL0     C 1961   4.630   8.900  12.690 -0.1281  0.0265  0.0479
  756MOL0     C 1962   4.480   8.934  12.687 -0.2380 -0.7835  0.4275
  756MOL0     C 1963   4.379   8.833  12.629  1.1888  0.0425 -0.1825
  756MOL0     C 1964   4.399   8.687  12.680  0.7718 -0.1439 -0.1562
  756MOL0     C 1965   4.324   8.583  12.595  0.9547 -0.6373 -0.3409
  756MOL0     C 1966   4.331   8.440  12.650 -0.2415  0.1759 -0.2032
  756MOL0     C 1967   4.278   8.335  12.550  0.6722  0.1910 -0.2713
  756MOL0     C 1968   4.141   8.275  12.598  0.2155  0.1349  0.1436
  756MOL0    Cl 1969   4.176   8.149  12.726 -0.1202  0.1715 -0.0797
  756MOL0     C 1970   4.596   8.850  12.341  0.1531  0.0155  0.6329
  756MOL0     C 1971   4.583   8.919  12.222 -0.0217 -0.6888  1.0305
  756MOL0     O 1972   4.807   9.072  11.987  0.0359 -0.1542 -0.1223
  756MOL0     C 1973   4.780   9.261  11.790  0.8328 -0.2756 -0.7826
  756MOL0     C 1974   4.763   9.365  11.700  0.2726 -0.7398 -0.3342
  756MOL0     N 1975   4.488   9.912  11.291 -0.5468 -0.1328  0.7295
  756MOL0     N 1976   4.374   9.930  11.251  0.3235 -0.2224  0.6688
  756MOL0     C 1977   3.342  10.526  10.727  1.0918  0.3535  0.5914
  756MOL0     C 1978   3.214  10.591  10.750 -0.6597 -0.6367  0.0259
  756MOL0     C 1979   2.798  10.670  10.780  0.1441  0.4115  0.4115
  756MOL0     C 1980   2.829  10.807  10.796  1.2404 -0.8142  0.7510
  756MOL0     C 1981   2.734  10.903  10.762 -0.1639  0.4056 -0.3317
  756MOL0     C 1982   2.612  10.869  10.705  0.8709  0.7850  0.9795
  756MOL0     O 1983   2.525  10.972  10.687 -0.2406 -0.2219  0.1072
  756MOL0     C 1984   2.475  11.016  10.559  0.1075 -0.0442  0.0293
  756MOL0     C 1985   2.569  10.981  10.441 -0.8463 -0.2480 -0.2489
  756MOL0     C 1986   2.512  11.042  10.313 -0.4179  0.1467 -0.2041
  756MOL0     C 1987   2.606  11.024  10.200  0.4660 -0.0533  0.1241
  756MOL0     C 1988   2.744  11.065  10.226  0.1759 -0.3318  0.2828
  756MOL0     C 1989   2.850  11.116  10.247 -0.6403 -0.6422 -0.2223
  756MOL0     C 1990   2.581  10.731  10.681  0.9442 -0.0465 -1.2049
  756MOL0     C 1991   2.669  10.633  10.727  0.3709  0.8047  0.4765
  756MOL0     C 1992   2.613  10.494  10.726 -0.1975  0.3804 -0.5735
  756MOL0     H 1993   3.132  10.438  11.043 -0.3254  2.6471 -0.0191
  756MOL0     H 1994   3.337  10.316  10.988  1.8458  0.3986 -1.3373
  756MOL0     H 1995   3.514  10.218  10.947 -2.5387 -0.5701 -0.0032
  756MOL0     H 1996   3.422  10.181  10.803  0.0653  1.2743 -1.7966
  756MOL0     H 1997   3.629  10.164  10.662  2.1435 -0.0982 -0.8301
  756MOL0     H 1998   3.632  10.049  10.786  1.3428  0.5736 -1.8009
  756MOL0     H 1999   3.776  10.265  10.908  0.1168 -0.0442 -0.0930
  756MOL0     H 2000   3.813  10.280  10.745 -0.1013 -1.6344 -1.0978
  756MOL0     H 2001   3.809  10.016  10.920 -0.8694  1.9094  1.1606
  756MOL0     H 2002   3.867  10.008  10.761  3.1590 -1.6097  0.4880
  756MOL0     H 2003   4.046  10.168  10.820 -3.5011  2.5402 -0.0663
  756MOL0     H 2004   3.995  10.169  10.986 -0.9666  0.8283 -1.5137
  756MOL0     H 2005   3.993   9.898  10.947  1.1598 -1.4622 -1.4140
  756MOL0     H 2006   4.113   9.940  10.834 -2.0867  1.5215 -1.5809
  756MOL0     H 2007   4.109  10.024  11.125 -1.2240  0.8249 -1.5718
  756MOL0     H 2008   4.235  10.071  11.014  2.0060 -0.1641  0.4469
  756MOL0     H 2009   4.176   9.779  11.090  2.4145 -1.7086  0.8397
  756MOL0     H 2010   4.277   9.835  10.952 -0.2657  1.5606  0.0705
  756MOL0     H 2011   4.499   9.747  11.007 -0.6463  0.9048 -0.6860
  756MOL0     H 2012   4.759   9.800  11.109 -0.6414  0.4273 -0.1109
  756MOL0     H 2013   4.769   9.902  11.256 -2.5050  0.4034  2.5322
  756MOL0     H 2014   4.776   9.600  11.239  0.0527 -0.4211  0.6047
  756MOL0     H 2015   4.857   9.718  11.330  0.5610  0.1530 -2.9513
  756MOL0     H 2016   4.554   9.643  11.363 -0.0589 -1.4071 -0.2060
  756MOL0     H 2017   4.642   9.756  11.463 -1.4018  0.3805 -0.3051
  756MOL0     H 2018   4.806   9.589  11.551  0.0547 -2.2382  2.3781
  756MOL0     H 2019   4.730   9.464  11.457 -0.3309 -0.1907  0.1451
  756MOL0     H 2020   4.521   9.538  11.863  1.3487  0.0971  2.2131
  756MOL0     H 2021   4.550   9.371  12.019 -2.4120 -0.1094 -1.4241
  756MOL0     H 2022   4.740   9.197  12.313  0.3616 -1.1759 -1.1252
  756MOL0     H 2023   4.754   9.079  12.528 -2.0912 -0.8656  1.1590
  756MOL0     H 2024   4.656   8.823  12.764  1.1542 -1.3140 -1.7052
  756MOL0     H 2025   4.694   8.987  12.706  1.7160  0.0553 -5.4803
  756MOL0     H 2026   4.449   8.960  12.788  1.2417  1.0241  0.4655
  756MOL0     H 2027   4.466   9.030  12.636 -1.5478 -1.5128 -0.6643
  756MOL0     H 2028   4.275   8.861  12.653  2.1250  4.6915 -0.6438
  756MOL0     H 2029   4.399   8.835  12.522  2.0697  3.5611 -0.0806
  756MOL0     H 2030   4.366   8.684  12.785 -0.4338  0.7423 -0.4784
  756MOL0     H 2031   4.503   8.657  12.688  1.2072  0.5734 -2.3128
  756MOL0     H 2032   4.366   8.595  12.494  1.5890  1.2244  0.1115
  756MOL0     H 2033   4.224   8.626  12.584  1.0440 -0.5850 -1.0075
  756MOL0     H 2034   4.439   8.428  12.665 -0.2668 -2.7439 -1.6637
  756MOL0     H 2035   4.289   8.418  12.749 -0.4220  1.7885  0.1079
  756MOL0     H 2036   4.362   8.267  12.532  0.7715 -0.3215  1.8690
  756MOL0     H 2037   4.257   8.385  12.455 -0.2778  0.1665 -0.0830
  756MOL0     H 2038   4.088   8.356  12.649 -3.9182  0.0472 -3.4814
  756MOL0     H 2039   4.079   8.236  12.517 -1.4985  0.9170  1.0285
  756MOL0     H 2040   4.562   8.750  12.364 -2.8633  0.7728 -0.1202
  756MOL0     H 2041   4.520   8.880  12.143  0.8821 -1.3344  0.6242
  756MOL0     H 2042   4.861   9.189  11.781  1.1251 -0.1448  0.6424
  756MOL0     H 2043   4.846   9.382  11.632  0.9790 -2.5466  0.0149
  756MOL0     H 2044   3.399  10.545  10.637  0.3648 -0.4738 -0.0666
  756MOL0     H 2045   3.183  10.660  10.672 -0.0983  0.0808  0.4289
  756MOL0     H 2046   2.930  10.835  10.824  1.4110  1.6658 -1.8865
  756MOL0     H 2047   2.759  11.005  10.787  0.6690  0.2121 -0.3367
  756MOL0     H 2048   2.462  11.125  10.563  3.2716  0.4208 -0.0864
  756MOL0     H 2049   2.378  10.975  10.527  0.8984 -0.2454 -2.3192
  756MOL0     H 2050   2.573  10.872  10.433 -1.5124 -0.6147  3.1265
  756MOL0     H 2051   2.668  11.019  10.468  0.3983 -3.1594 -0.3419
  756MOL0     H 2052   2.492  11.149  10.325 -1.0672  0.3406 -2.5678
  756MOL0     H 2053   2.415  10.991  10.300  0.5171 -3.2278  3.6784
  756MOL0     H 2054   2.610  10.916  10.186  0.0769 -0.6064  3.4846
  756MOL0     H 2055   2.568  11.083  10.116  2.2449 -0.1223 -0.7837
  756MOL0     H 2056   2.938  11.160  10.289 -1.8503  3.2652 -1.2622
  756MOL0     H 2057   2.487  10.697  10.638  0.6986  3.0173 -3.4696
  756MOL0     H 2058   2.691  10.422  10.701  0.4788  0.9681 -0.1985
  756MOL0     H 2059   2.587  10.479  10.831  0.6720 -3.6925 -0.7702
  756MOL0     H 2060   2.537  10.481  10.648  0.2189 -0.3447 -0.8659
  757MOL0     O 2061   8.105  10.265   6.202 -0.4729  0.2941 -0.8012
  757MOL0     C 2062   8.198  10.269   6.290 -0.2409 -0.2944  0.7907
  757MOL0     O 2063   8.259  10.380   6.337  0.6024  0.2394  0.0220
  757MOL0     C 2064   8.241  10.496   6.265 -0.5493  0.1262 -0.3225
  757MOL0     C 2065   8.351  10.552   6.208  0.2937 -0.5348 -0.2017
  757MOL0     C 2066   8.346  10.688   6.168  0.7392 -0.1199 -0.3181
  757MOL0     C 2067   8.228  10.762   6.181 -0.4774  0.1630  0.8624
  757MOL0     O 2068   8.238  10.887   6.117 -0.0147 -0.1045  0.0679
  757MOL0     C 2069   8.124  10.975   6.109  0.3526  0.7694  0.2249
  757MOL0     C 2070   8.146  11.124   6.063  0.1079  0.0505  0.0498
  757MOL0     C 2071   8.144  11.140   5.914 -0.6009  0.3672 -1.0501
  757MOL0     C 2072   8.121  11.279   5.869 -0.8035  0.8440  0.3585
  757MOL0     C 2073   8.137  11.302   5.717  0.3743  0.5075 -0.3629
  757MOL0     C 2074   8.265  11.271   5.642  0.4802  0.2262 -0.3689
  757MOL0     C 2075   8.292  11.356   5.517  0.4741  0.2612  0.1668
  757MOL0     C 2076   8.425  11.314   5.438 -0.3971 -0.7465 -0.5193
  757MOL0     N 2077   8.555  11.355   5.510  0.2586  0.3389 -0.3475
  757MOL0     C 2078   8.651  11.439   5.458  0.6826  0.0794 -0.1266
  757MOL0     C 2079   8.760  11.426   5.548  0.9188  0.1148  0.2479
  757MOL0     C 2080   8.888  11.488   5.527 -0.0677 -0.1957  1.1169
  757MOL0     C 2081   8.955  11.449   5.391 -1.0501 -0.8323  0.5613
  757MOL0     C 2082   9.093  11.515   5.380 -0.7527 -0.2537  0.4900
  757MOL0     C 2083   9.137  11.511   5.229 -0.4303  0.0668  0.4160
  757MOL0     O 2084   9.152  11.649   5.163  0.4127  0.5869 -0.2383
  757MOL0     C 2085   9.264  11.731   5.187  0.3393  0.2214 -0.1525
  757MOL0     C 2086   9.273  11.850   5.115 -0.1858  0.0236 -0.6153
  757MOL0     C 2087   9.382  11.938   5.137  0.5484 -0.0357 -0.3076
  757MOL0     C 2088   9.476  11.895   5.234 -1.0142  0.4163  0.0570
  757MOL0     C 2089   9.603  11.986   5.242  0.2892  0.3130  0.1226
  757MOL0     O 2090   9.721  11.929   5.284 -0.0032  0.9317 -0.8732
  757MOL0     C 2091   9.848  11.983   5.289  0.3921 -0.7458  0.0814
  757MOL0     C 2092   9.940  11.880   5.322 -0.6706  0.5594  0.4414
  757MOL0     C 2093  10.081  11.905   5.341  0.4355  0.6056 -0.1546
  757MOL0     C 2094  10.123  12.038   5.331  0.7914 -0.0588  0.6006
  757MOL0     O 2095  10.256  12.067   5.342 -0.5092  0.6092 -0.0721
  757MOL0     C 2096  10.354  11.970   5.384 -0.1531  0.1527 -0.8096
  757MOL0     C 2097  10.486  12.037   5.434  0.8690 -0.3273  0.3340
  757MOL0     C 2098  10.473  12.131   5.559 -0.2127  0.1423  0.4610
  757MOL0     C 2099  10.590  12.227   5.573  0.8019  0.4123 -0.2757
  757MOL0     C 2100  10.563  12.331   5.684 -0.1381  0.5694  0.0086
  757MOL0     C 2101  10.538  12.273   5.833 -0.6033 -0.3832  0.3932
  757MOL0     C 2102  10.514  12.383   5.940 -0.6100 -0.5701 -0.9801
  757MOL0     C 2103  10.650  12.452   5.977  0.5544 -0.3517 -0.0530
  757MOL0    Cl 2104  10.758  12.327   6.047 -0.0925  0.6533  0.2234
  757MOL0     C 2105  10.031  12.144   5.299 -0.1081  0.1145 -0.4390
  757MOL0     C 2106   9.889  12.114   5.283 -0.6203 -0.6526  0.0011
  757MOL0     O 2107   9.598  12.107   5.217  1.2609 -0.0291 -0.1109
  757MOL0     C 2108   9.445  11.790   5.317 -0.9599  0.2228  0.0107
  757MOL0     C 2109   9.343  11.713   5.297  0.4198  0.8352  0.2988
  757MOL0     N 2110   8.726  11.361   5.664  0.3717  0.2747 -0.3917
  757MOL0     N 2111   8.600  11.317   5.635 -0.1658 -0.5255 -0.5360
  757MOL0     C 2112   8.114  10.701   6.219  0.8638 -0.8931 -0.0816
  757MOL0     C 2113   8.118  10.569   6.269 -0.3209  0.5477 -0.4444
  757MOL0     C 2114   8.233  10.148   6.362  0.6919 -0.1785  0.6729
  757MOL0     C 2115   8.216  10.153   6.498 -0.0479  0.8387  0.0393
  757MOL0     C 2116   8.251  10.047   6.580 -1.1758  0.5798  0.4070
  757MOL0     C 2117   8.288   9.926   6.527  0.4371 -0.0678  0.6003
  757MOL0     O 2118   8.316   9.811   6.599  0.1064  0.0389 -0.1850
  757MOL0     C 2119   8.278   9.790   6.733  0.0659  0.3511  0.1152
  757MOL0     C 2120   8.330   9.653   6.787 -0.6008  0.0010  0.3123
  757MOL0     C 2121   8.288   9.533   6.702  0.1872  0.7970 -1.3224
  757MOL0     C 2122   8.139   9.497   6.717  0.0768  0.2183 -0.0216
  757MOL0     C 2123   8.097   9.418   6.837 -0.4065 -1.0639  0.0536
  757MOL0     C 2124   8.053   9.356   6.939 -0.1195 -2.0422  0.1158
  757MOL0     C 2125   8.304   9.928   6.393 -0.8835 -0.1937 -0.4525
  757MOL0     C 2126   8.292  10.038   6.301 -0.3237  0.3447 -0.4731
  757MOL0     C 2127   8.295  10.032   6.158 -1.2624 -0.7389  0.2716
  757MOL0     H 2128   8.446  10.499   6.207  0.7363  0.2370 -1.0896
  757MOL0     H 2129   8.435  10.743   6.140 -0.4092  0.7398 -2.5486
  757MOL0     H 2130   8.044  10.929   6.049  0.5946  1.4887 -0.6800
  757MOL0     H 2131   8.071  10.980   6.204 -0.0330  0.4608  0.0300
  757MOL0     H 2132   8.243  11.164   6.092  1.8297 -2.2365 -2.0783
  757MOL0     H 2133   8.066  11.179   6.113 -1.7555 -1.8572 -0.6619
  757MOL0     H 2134   8.061  11.081   5.874 -0.9657  0.3196 -0.2388
  757MOL0     H 2135   8.238  11.100   5.875  0.1487 -0.9768  1.8029
  757MOL0     H 2136   8.021  11.317   5.893 -1.6661 -1.5378  0.7800
  757MOL0     H 2137   8.193  11.349   5.913 -0.5578  0.0114  1.3136
  757MOL0     H 2138   8.059  11.249   5.662  0.4544 -3.5702  2.9599
  757MOL0     H 2139   8.135  11.410   5.701  0.3265  0.3891 -1.1782
  757MOL0     H 2140   8.340  11.289   5.719  0.0429  1.8129 -0.2928
  757MOL0     H 2141   8.276  11.167   5.607 -2.3568  0.1830 -1.3384
  757MOL0     H 2142   8.298  11.463   5.541 -2.6941  0.8800 -1.3065
  757MOL0     H 2143   8.197  11.346   5.464 -0.3482  0.2796  1.5864
  757MOL0     H 2144   8.425  11.206   5.420  0.2840 -1.0054  0.9007
  757MOL0     H 2145   8.422  11.351   5.336  1.9489  3.6214  0.7420
  757MOL0     H 2146   8.660  11.502   5.371 -0.5542 -0.3414 -0.5709
  757MOL0     H 2147   8.889  11.597   5.523  0.9360 -0.2374 -0.5637
  757MOL0     H 2148   8.941  11.460   5.619 -2.1083 -3.1528  1.5286
  757MOL0     H 2149   8.981  11.344   5.376 -0.0472 -0.4010 -0.9071
  757MOL0     H 2150   8.880  11.474   5.316 -2.8704 -0.4381  2.4092
  757MOL0     H 2151   9.164  11.472   5.451 -0.4887 -0.6293  0.0009
  757MOL0     H 2152   9.077  11.622   5.397 -1.0286 -0.1664 -0.2563
  757MOL0     H 2153   9.069  11.438   5.184  0.3114 -0.1342 -0.4114
  757MOL0     H 2154   9.232  11.457   5.236 -1.4461 -1.6439  1.5455
  757MOL0     H 2155   9.191  11.874   5.047 -0.5597 -1.1729 -0.6175
  757MOL0     H 2156   9.389  12.035   5.089  1.0606 -0.0014 -0.1677
  757MOL0     H 2157   9.907  11.777   5.330 -0.3683  0.2587 -1.7009
  757MOL0     H 2158  10.148  11.823   5.364 -0.5950 -0.1470  0.2480
  757MOL0     H 2159  10.317  11.902   5.462 -0.6232  0.8037 -0.4509
  757MOL0     H 2160  10.388  11.904   5.304  3.8788  2.2100 -1.0521
  757MOL0     H 2161  10.558  11.964   5.472  0.1407 -1.3359 -0.1597
  757MOL0     H 2162  10.527  12.084   5.345 -1.7687  0.6834 -0.4574
  757MOL0     H 2163  10.381  12.190   5.560 -0.1636  0.3241 -1.7456
  757MOL0     H 2164  10.468  12.062   5.643 -0.1278 -0.5306 -0.0777
  757MOL0     H 2165  10.590  12.288   5.482 -4.0285  3.1601  1.1920
  757MOL0     H 2166  10.684  12.171   5.582 -1.0167 -2.4975  2.9725
  757MOL0     H 2167  10.469  12.382   5.661  0.5299  2.2588  0.8435
  757MOL0     H 2168  10.632  12.416   5.681 -1.8275  2.0370  0.5384
  757MOL0     H 2169  10.446  12.215   5.816  0.4198 -1.9615 -0.0037
  757MOL0     H 2170  10.618  12.206   5.865 -1.1643 -0.0845  2.5863
  757MOL0     H 2171  10.482  12.331   6.030  1.5411 -0.9960 -0.4002
  757MOL0     H 2172  10.435  12.456   5.919 -0.0456  0.8364  1.4746
  757MOL0     H 2173  10.691  12.500   5.888  1.0165  1.5282  1.1162
  757MOL0     H 2174  10.625  12.524   6.056  0.7749 -2.0152  1.6207
  757MOL0     H 2175  10.081  12.240   5.307  0.5291 -0.2866  0.6947
  757MOL0     H 2176   9.827  12.201   5.261  1.9006  0.8147 -1.8613
  757MOL0     H 2177   9.518  11.772   5.396  1.5973  0.4644 -2.1588
  757MOL0     H 2178   9.323  11.636   5.371  0.6912 -1.3279 -1.7594
  757MOL0     H 2179   8.014  10.745   6.216  0.5831 -1.5082  0.1138
  757MOL0     H 2180   8.041  10.516   6.325 -1.0716  3.6406  1.6975
  757MOL0     H 2181   8.163  10.238   6.540 -0.7614  0.4837 -0.1233
  757MOL0     H 2182   8.236  10.047   6.687  1.9399 -4.0005  1.1596
  757MOL0     H 2183   8.169   9.790   6.745  0.0166 -1.4584 -0.1370
  757MOL0     H 2184   8.316   9.877   6.788  1.4308  1.7447 -2.8151
  757MOL0     H 2185   8.311   9.646   6.894  2.6282  1.2362  1.0927
  757MOL0     H 2186   8.438   9.666   6.769 -1.0292  1.1151 -1.8752
  757MOL0     H 2187   8.358   9.448   6.705 -1.8276 -0.9090 -0.6158
  757MOL0     H 2188   8.301   9.556   6.595  3.6946  1.4383 -0.9019
  757MOL0     H 2189   8.067   9.579   6.709 -2.1245 -1.7348 -1.3556
  757MOL0     H 2190   8.112   9.436   6.631  1.7237 -1.6168  0.6751
  757MOL0     H 2191   8.026   9.287   7.017  2.4668 -2.9700  0.2747
  757MOL0     H 2192   8.338   9.830   6.360  0.5070 -1.3236  3.7123
  757MOL0     H 2193   8.207   9.977   6.121 -2.8277  0.7008  1.6665
  757MOL0     H 2194   8.301  10.128   6.106 -3.5086 -1.3026 -1.1725
  757MOL0     H 2195   8.389   9.981   6.137 -0.3197  1.1214 -0.2504
  758MOL0     O 2196   2.791   5.812   7.369  0.1489 -0.9301 -0.1264
  758MOL0     C 2197   2.856   5.887   7.441  0.6528  0.0204 -0.5586
  758MOL0     O 2198   2.815   6.022   7.482 -0.1890 -0.5379 -0.2581
  758MOL0     C 2199   2.686   6.051   7.460 -0.0666 -0.3894 -0.0924
  758MOL0     C 2200   2.573   5.991   7.520 -0.3277  0.4917  0.6414
  758MOL0     C 2201   2.442   6.022   7.480  0.3982 -0.8879  0.4589
  758MOL0     C 2202   2.417   6.130   7.399 -0.3341 -0.1465  0.6509
  758MOL0     O 2203   2.290   6.171   7.357 -0.1294  1.0409 -0.2686
  758MOL0     C 2204   2.168   6.122   7.410  0.2640  0.0809  0.5884
  758MOL0     C 2205   2.077   6.185   7.306  0.1123 -0.2268 -0.2602
  758MOL0     C 2206   1.927   6.161   7.337 -0.3103 -0.5735 -1.1777
  758MOL0     C 2207   1.881   6.023   7.325  1.6407  0.0825  0.1008
  758MOL0     C 2208   1.721   6.009   7.342 -0.0438 -0.0355  0.6187
  758MOL0     C 2209   1.688   5.983   7.493 -0.6684  0.2577 -0.3756
  758MOL0     C 2210   1.535   5.925   7.500  0.6037 -0.1824 -0.4049
  758MOL0     C 2211   1.499   5.894   7.648 -0.4225  0.6188  0.2887
  758MOL0     N 2212   1.547   6.002   7.729  1.1880  0.3287 -0.8065
  758MOL0     C 2213   1.498   6.128   7.721  0.5495  0.3707  0.0356
  758MOL0     C 2214   1.587   6.203   7.787  0.0329  0.1533 -0.5616
  758MOL0     C 2215   1.585   6.354   7.820 -0.2011  0.5209 -0.0501
  758MOL0     C 2216   1.691   6.435   7.742  0.7166 -0.6726 -0.7745
  758MOL0     C 2217   1.692   6.411   7.594  0.1160 -0.1854  0.3740
  758MOL0     C 2218   1.793   6.499   7.513 -0.0724  0.5115 -0.5963
  758MOL0     O 2219   1.924   6.459   7.555 -0.0011 -0.0911 -0.4845
  758MOL0     C 2220   2.035   6.508   7.487  0.6943  0.2448  0.2441
  758MOL0     C 2221   2.164   6.466   7.515  0.1139 -0.4086 -0.5728
  758MOL0     C 2222   2.274   6.517   7.452 -0.3943  0.5341  0.0859
  758MOL0     C 2223   2.262   6.590   7.332 -0.5542 -1.4509 -0.6631
  758MOL0     C 2224   2.383   6.624   7.257  0.0184  0.3000  0.1189
  758MOL0     O 2225   2.507   6.597   7.311  0.5052 -0.2690 -0.0582
  758MOL0     C 2226   2.613   6.595   7.224 -0.1192 -0.2834  0.0992
  758MOL0     C 2227   2.721   6.529   7.282 -0.3813  0.2987 -0.2296
  758MOL0     C 2228   2.851   6.517   7.225 -0.3774 -0.4203  0.3612
  758MOL0     C 2229   2.878   6.577   7.100  0.0347  0.0908  0.2715
  758MOL0     O 2230   3.002   6.582   7.037 -0.3384  0.1525  0.3037
  758MOL0     C 2231   3.123   6.518   7.101  0.6810 -0.0548  0.3070
  758MOL0     C 2232   3.184   6.598   7.220  0.0268  0.0970  0.1488
  758MOL0     C 2233   3.323   6.549   7.241  1.1651  0.0871  1.0722
  758MOL0     C 2234   3.371   6.611   7.377 -1.0702 -0.3748  0.6255
  758MOL0     C 2235   3.524   6.607   7.371 -0.5106 -0.5356 -0.5211
  758MOL0     C 2236   3.596   6.679   7.492 -0.1347  1.0877 -0.6685
  758MOL0     C 2237   3.741   6.671   7.483 -0.7220  0.1441 -0.3514
  758MOL0     C 2238   3.795   6.758   7.377 -0.5626 -0.4412  0.2677
  758MOL0    Cl 2239   3.971   6.754   7.378 -0.2017  0.3243 -0.3652
  758MOL0     C 2240   2.779   6.656   7.047 -0.4426 -0.1024 -0.6792
  758MOL0     C 2241   2.639   6.657   7.100 -0.3583 -0.6267 -0.4271
  758MOL0     O 2242   2.368   6.673   7.143  1.0109  0.0569 -0.1551
  758MOL0     C 2243   2.134   6.636   7.294  0.0285 -0.5627  0.9960
  758MOL0     C 2244   2.024   6.581   7.363 -0.0720 -0.9834  0.7551
  758MOL0     N 2245   1.687   6.116   7.840  0.1918  0.1838 -1.3925
  758MOL0     N 2246   1.658   6.001   7.801  0.1951 -0.0050 -0.2205
  758MOL0     C 2247   2.524   6.204   7.349 -0.0629 -0.2200  0.4637
  758MOL0     C 2248   2.666   6.168   7.383  0.1777 -0.4712  0.6270
  758MOL0     C 2249   2.996   5.833   7.475  0.3273 -0.9338 -0.7933
  758MOL0     C 2250   3.082   5.931   7.538  0.2558 -1.1449  0.1379
  758MOL0     C 2251   3.211   5.893   7.575  0.2868 -0.9176 -0.2270
  758MOL0     C 2252   3.260   5.759   7.542 -0.0470 -0.2340  0.0082
  758MOL0     O 2253   3.381   5.723   7.603  0.2591 -0.6851  0.2115
  758MOL0     C 2254   3.461   5.642   7.518 -0.6830 -0.7236 -0.1693
  758MOL0     C 2255   3.463   5.489   7.545  0.5348 -0.1783  0.0700
  758MOL0     C 2256   3.549   5.443   7.672  0.2746 -0.4328  0.2359
  758MOL0     C 2257   3.536   5.291   7.688  0.1222  0.3870  0.8189
  758MOL0     C 2258   3.588   5.206   7.579 -0.2284  0.4413 -0.3533
  758MOL0     C 2259   3.642   5.150   7.490  0.4392 -0.1320  0.4233
  758MOL0     C 2260   3.166   5.667   7.496 -0.7090 -0.7516  0.0748
  758MOL0     C 2261   3.043   5.701   7.460  0.0472  0.0704  0.0257
  758MOL0     C 2262   2.954   5.593   7.413 -1.0250 -0.5824 -1.0094
  758MOL0     H 2263   2.575   5.910   7.593 -1.5264  0.7988  1.0463
  758MOL0     H 2264   2.363   5.973   7.536  2.0622 -1.6522  2.3052
  758MOL0     H 2265   2.161   6.013   7.400  1.1359 -0.1885  2.6301
  758MOL0     H 2266   2.153   6.152   7.514  0.0291 -1.9898  1.1848
  758MOL0     H 2267   2.099   6.135   7.212  1.2525 -1.7333  0.7670
  758MOL0     H 2268   2.099   6.293   7.310  0.5752 -0.2809  4.2589
  758MOL0     H 2269   1.868   6.233   7.279 -0.4335  0.1760 -0.1440
  758MOL0     H 2270   1.912   6.199   7.438  0.7541  0.8247 -1.5187
  758MOL0     H 2271   1.910   5.983   7.228 -0.4446 -0.9565 -0.1516
  758MOL0     H 2272   1.929   5.972   7.410  0.8523  1.8873  1.7088
  758MOL0     H 2273   1.668   6.101   7.314 -0.5948  0.3008  2.6180
  758MOL0     H 2274   1.703   5.929   7.270  1.7843  0.7766 -0.8277
  758MOL0     H 2275   1.746   5.898   7.531  0.3278  0.2859 -1.7671
  758MOL0     H 2276   1.705   6.066   7.562  3.0163 -1.7734  1.4622
  758MOL0     H 2277   1.534   5.838   7.434 -1.0482 -0.6425  0.1847
  758MOL0     H 2278   1.455   5.993   7.472 -2.0239 -1.8663  2.3869
  758MOL0     H 2279   1.392   5.877   7.664 -0.2625 -0.0544  0.7121
  758MOL0     H 2280   1.548   5.798   7.668 -1.6041 -0.5796 -2.2348
  758MOL0     H 2281   1.398   6.161   7.696 -0.9776 -2.3450  2.0337
  758MOL0     H 2282   1.494   6.391   7.771  0.7805  0.4987 -1.9613
  758MOL0     H 2283   1.597   6.385   7.924  0.2565 -0.9957  0.3707
  758MOL0     H 2284   1.658   6.538   7.762  0.2496 -1.1839  1.2599
  758MOL0     H 2285   1.790   6.416   7.785  1.5862  1.0165 -1.8888
  758MOL0     H 2286   1.589   6.420   7.557 -0.8294 -1.5862  2.4587
  758MOL0     H 2287   1.721   6.309   7.567 -0.7753  0.2306 -2.5250
  758MOL0     H 2288   1.776   6.607   7.513 -1.3957  0.3382 -1.5216
  758MOL0     H 2289   1.764   6.463   7.413 -1.4260 -2.9859  0.8953
  758MOL0     H 2290   2.170   6.396   7.598 -0.7448  1.8179  1.5212
  758MOL0     H 2291   2.373   6.486   7.486 -1.2134 -2.9759 -0.3473
  758MOL0     H 2292   2.713   6.491   7.383 -0.1337  1.1208  0.1104
  758MOL0     H 2293   2.934   6.470   7.277 -0.1718 -0.8752 -0.3633
  758MOL0     H 2294   3.102   6.419   7.143 -0.4867 -1.4805 -3.2605
  758MOL0     H 2295   3.200   6.496   7.028 -1.2153 -1.2709 -1.4535
  758MOL0     H 2296   3.192   6.704   7.194 -0.3059 -0.0202 -0.4692
  758MOL0     H 2297   3.122   6.575   7.307 -0.3916 -2.3759 -0.7140
  758MOL0     H 2298   3.318   6.439   7.243 -1.1680 -0.1325 -3.2824
  758MOL0     H 2299   3.383   6.588   7.158 -0.5612  6.0367  2.1487
  758MOL0     H 2300   3.324   6.556   7.459 -0.0272  0.4060  1.7770
  758MOL0     H 2301   3.328   6.712   7.380 -2.9883 -1.1355  0.3489
  758MOL0     H 2302   3.553   6.655   7.277 -1.3688 -0.4279 -0.7345
  758MOL0     H 2303   3.560   6.504   7.375 -1.3895 -0.8391 -0.4209
  758MOL0     H 2304   3.570   6.784   7.509 -2.0685  0.1882  2.8084
  758MOL0     H 2305   3.564   6.629   7.584  2.2923  1.5185  0.4707
  758MOL0     H 2306   3.770   6.566   7.479 -1.2754 -0.2355  2.6839
  758MOL0     H 2307   3.773   6.706   7.582 -3.2139 -0.5950  0.8025
  758MOL0     H 2308   3.750   6.738   7.280 -0.3568 -0.3193  0.1461
  758MOL0     H 2309   3.776   6.864   7.395  2.6389  1.0457 -3.6460
  758MOL0     H 2310   2.806   6.711   6.958  1.7456  0.9156  0.5387
  758MOL0     H 2311   2.567   6.703   7.033  1.8196 -1.7429 -3.7562
  758MOL0     H 2312   2.100   6.695   7.210  0.1646 -1.5050  0.2690
  758MOL0     H 2313   1.925   6.606   7.327  0.1655 -3.9555 -2.6233
  758MOL0     H 2314   2.493   6.280   7.277 -1.8440  0.4782  1.9082
  758MOL0     H 2315   2.752   6.222   7.347  0.5332 -1.5762 -0.2576
  758MOL0     H 2316   3.047   6.032   7.555  1.6302 -0.7413  0.7637
  758MOL0     H 2317   3.271   5.968   7.626 -0.5491 -1.1087  1.0782
  758MOL0     H 2318   3.565   5.676   7.513 -1.5252  2.1567 -4.2409
  758MOL0     H 2319   3.430   5.647   7.413  2.1430 -2.6979 -1.1962
  758MOL0     H 2320   3.493   5.434   7.456  1.6606  0.9005 -0.2453
  758MOL0     H 2321   3.360   5.463   7.573  0.6534 -0.9952 -0.2207
  758MOL0     H 2322   3.505   5.494   7.758  1.4551  0.2191  0.4710
  758MOL0     H 2323   3.655   5.462   7.653  0.1919 -0.6796 -0.5224
  758MOL0     H 2324   3.583   5.267   7.784  2.2087 -1.3039 -0.5283
  758MOL0     H 2325   3.431   5.268   7.706 -0.3396  0.0831 -1.8031
  758MOL0     H 2326   3.684   5.097   7.407  1.0516  2.3366 -0.9424
  758MOL0     H 2327   3.190   5.563   7.478 -0.5693 -0.7573  0.2966
  758MOL0     H 2328   2.852   5.609   7.450 -0.6744  2.7400 -1.1286
  758MOL0     H 2329   2.958   5.601   7.304  2.0144  0.6819 -0.9046
  758MOL0     H 2330   2.991   5.494   7.439 -1.6138 -0.5399  0.0713
  759MOL0     O 2331   2.540   9.686   1.010  0.2997  0.3508 -0.8170
  759MOL0     C 2332   2.494   9.640   1.114  0.0258  0.4975  0.1621
  759MOL0     O 2333   2.537   9.528   1.182  0.7271 -0.1478  0.7198
  759MOL0     C 2334   2.583   9.435   1.094  0.1263 -0.2630 -0.3539
  759MOL0     C 2335   2.514   9.311   1.087  0.1673  0.3291 -0.2981
  759MOL0     C 2336   2.553   9.207   1.000  0.5127 -0.3902 -0.1300
  759MOL0     C 2337   2.671   9.220   0.927  0.2519 -0.6472  0.5182
  759MOL0     O 2338   2.731   9.123   0.849 -0.7911  0.7611  0.6163
  759MOL0     C 2339   2.716   8.985   0.886 -0.3880  0.2728  0.4542
  759MOL0     C 2340   2.819   8.898   0.802  0.5765 -1.0472 -0.0614
  759MOL0     C 2341   2.825   8.761   0.866 -0.3065  0.1831  1.3638
  759MOL0     C 2342   2.691   8.691   0.890 -1.5424 -0.0400 -1.3037
  759MOL0     C 2343   2.718   8.572   0.987  0.1760  0.0076 -0.6749
  759MOL0     C 2344   2.698   8.602   1.138 -0.0155  0.3068 -0.1828
  759MOL0     C 2345   2.775   8.499   1.223 -0.4480  0.2251  0.0009
  759MOL0     C 2346   2.924   8.519   1.218  0.3353 -0.2410  0.6381
  759MOL0     N 2347   2.996   8.388   1.232 -1.0422  0.1348  0.0874
  759MOL0     C 2348   3.007   8.294   1.143  0.3560  0.0114  0.2587
  759MOL0     C 2349   3.099   8.211   1.183 -0.1131  0.1221  0.1313
  759MOL0     C 2350   3.123   8.068   1.140  0.0528 -0.4331  0.4483
  759MOL0     C 2351   3.208   8.063   1.015 -0.4000  0.0140  0.1411
  759MOL0     C 2352   3.239   7.915   0.966 -0.0089 -0.3541  0.0664
  759MOL0     C 2353   3.310   7.923   0.825  0.7497 -0.6530  0.5797
  759MOL0     O 2354   3.442   7.973   0.835  0.3144  0.1134 -0.4129
  759MOL0     C 2355   3.473   8.070   0.739  0.6823  0.3424 -0.4928
  759MOL0     C 2356   3.496   8.032   0.606 -0.0817 -0.0713  0.0920
  759MOL0     C 2357   3.515   8.133   0.506  0.0559  0.1575  0.5722
  759MOL0     C 2358   3.535   8.267   0.539 -0.0663 -0.7499 -0.4087
  759MOL0     C 2359   3.553   8.367   0.439 -1.0904  0.0452 -0.3885
  759MOL0     O 2360   3.557   8.318   0.307 -0.8014 -0.4774  0.3891
  759MOL0     C 2361   3.583   8.410   0.205  0.5305 -0.5477  0.8047
  759MOL0     C 2362   3.676   8.518   0.222 -0.0701  0.1582  0.2836
  759MOL0     C 2363   3.694   8.606   0.112 -0.5735  0.2412  0.0226
  759MOL0     C 2364   3.634   8.586  -0.016  0.5010 -1.1419 -0.0489
  759MOL0     O 2365   3.673   8.678  -0.109 -0.1918 -0.3218 -0.1860
  759MOL0     C 2366   3.664   8.630  -0.245  0.6688 -0.1459 -0.2361
  759MOL0     C 2367   3.717   8.734  -0.337 -0.9735  0.2423 -0.5006
  759MOL0     C 2368   3.623   8.858  -0.357  0.7126 -0.4876 -0.2982
  759MOL0     C 2369   3.704   8.980  -0.417  0.5393  0.1868  0.4191
  759MOL0     C 2370   3.611   9.090  -0.463  0.0395  0.3306 -0.0409
  759MOL0     C 2371   3.686   9.204  -0.526 -0.4712  0.3233 -0.0225
  759MOL0     C 2372   3.595   9.312  -0.593  0.3251  0.5056 -1.1335
  759MOL0     C 2373   3.680   9.406  -0.673  0.3672  0.5345  0.0618
  759MOL0    Cl 2374   3.842   9.451  -0.601  0.1832 -0.4424  0.2388
  759MOL0     C 2375   3.551   8.471  -0.028 -0.1714  0.6376 -0.0968
  759MOL0     C 2376   3.528   8.385   0.077  0.5589 -1.5165  1.2540
  759MOL0     O 2377   3.550   8.489   0.479  0.2723  0.0788 -0.0915
  759MOL0     C 2378   3.523   8.303   0.676 -0.3316  0.5201  0.7330
  759MOL0     C 2379   3.483   8.207   0.772 -0.8712 -1.4875 -0.8376
  759MOL0     N 2380   3.150   8.262   1.298 -0.0949 -0.6090 -0.5000
  759MOL0     N 2381   3.092   8.375   1.328 -0.1408  0.4022  0.5036
  759MOL0     C 2382   2.740   9.350   0.933  0.0497 -0.3057 -1.1258
  759MOL0     C 2383   2.702   9.450   1.018 -0.1151  0.2774 -0.5312
  759MOL0     C 2384   2.415   9.723   1.197 -0.6964 -0.2225 -0.6646
  759MOL0     C 2385   2.449   9.746   1.334  0.1252 -0.0620 -0.0334
  759MOL0     C 2386   2.374   9.827   1.418  0.1533  0.6969  0.6984
  759MOL0     C 2387   2.266   9.899   1.362 -1.0463  0.4572 -0.1343
  759MOL0     O 2388   2.178   9.975   1.439 -0.1223 -0.2940 -0.4487
  759MOL0     C 2389   2.232  10.028   1.562  0.5093  0.1501 -0.0641
  759MOL0     C 2390   2.167  10.156   1.603 -0.7775 -0.0123  0.4727
  759MOL0     C 2391   2.021  10.136   1.619  0.3846  0.3299 -0.3616
  759MOL0     C 2392   1.979  10.259   1.707 -0.2958 -0.4823  0.1400
  759MOL0     C 2393   2.020  10.226   1.844 -0.2938  0.3384  0.2766
  759MOL0     C 2394   2.039  10.207   1.957 -1.0729  0.9684 -0.3739
  759MOL0     C 2395   2.230   9.873   1.231  0.7333  0.5922  0.9264
  759MOL0     C 2396   2.308   9.802   1.145 -0.3419 -0.2144  0.0783
  759MOL0     C 2397   2.263   9.780   1.003  0.4010  0.0997 -0.3736
  759MOL0     H 2398   2.422   9.312   1.145  1.4438 -2.0664  1.9639
  759MOL0     H 2399   2.504   9.111   1.005 -1.8396  0.6704 -1.4272
  759MOL0     H 2400   2.740   8.963   0.991 -3.4542 -2.8719  0.7028
  759MOL0     H 2401   2.614   8.948   0.870  0.4660 -1.6897 -0.9173
  759MOL0     H 2402   2.917   8.944   0.784  0.4821 -0.6520  0.4347
  759MOL0     H 2403   2.771   8.884   0.705  1.5612 -0.3485 -0.6702
  759MOL0     H 2404   2.873   8.778   0.963  0.5911 -2.3260  1.4568
  759MOL0     H 2405   2.895   8.702   0.806  0.0089  0.8933  1.0273
  759MOL0     H 2406   2.614   8.760   0.925 -3.0061 -0.1714 -3.9615
  759MOL0     H 2407   2.658   8.650   0.794 -3.0170 -3.6515  0.5466
  759MOL0     H 2408   2.657   8.484   0.963  0.5454 -1.2070  2.3987
  759MOL0     H 2409   2.821   8.538   0.972  0.6289  1.5620 -1.2875
  759MOL0     H 2410   2.733   8.703   1.160  0.0494  0.1845  0.2997
  759MOL0     H 2411   2.592   8.598   1.164  0.2783  1.3302  1.2849
  759MOL0     H 2412   2.749   8.396   1.196  0.1399  0.2305 -0.6158
  759MOL0     H 2413   2.748   8.505   1.328  1.2481 -1.6578  0.6149
  759MOL0     H 2414   2.954   8.594   1.143 -1.9679  0.1109  0.0031
  759MOL0     H 2415   2.966   8.570   1.305  3.4387 -1.4818  0.0143
  759MOL0     H 2416   2.946   8.275   1.055  1.4278 -1.1497 -0.2752
  759MOL0     H 2417   3.182   8.019   1.218  0.6909 -1.5550 -0.7021
  759MOL0     H 2418   3.030   8.013   1.124  0.2747 -1.3111  2.0017
  759MOL0     H 2419   3.155   8.111   0.932 -1.6305 -1.5367 -0.0106
  759MOL0     H 2420   3.301   8.117   1.032 -0.5141 -0.2014  1.5328
  759MOL0     H 2421   3.147   7.860   0.944  0.8243 -2.6484  1.9626
  759MOL0     H 2422   3.294   7.863   1.044 -0.7201  0.0803  0.8752
  759MOL0     H 2423   3.244   7.981   0.761  1.6210 -0.4485 -0.1546
  759MOL0     H 2424   3.327   7.823   0.784  2.3612 -0.9415  1.8442
  759MOL0     H 2425   3.499   7.924   0.593  1.1547  0.0405 -0.6513
  759MOL0     H 2426   3.518   8.104   0.402  0.1178 -4.4184  1.6311
  759MOL0     H 2427   3.737   8.525   0.311  1.6880 -2.5304 -0.5906
  759MOL0     H 2428   3.763   8.689   0.127 -0.8125  0.9499 -2.3827
  759MOL0     H 2429   3.714   8.533  -0.256  2.0905  0.5287  0.1420
  759MOL0     H 2430   3.557   8.614  -0.261  0.9126 -3.1563  0.5104
  759MOL0     H 2431   3.811   8.769  -0.292 -2.0324 -0.5180  2.5375
  759MOL0     H 2432   3.741   8.682  -0.430 -1.0649 -2.7591  1.0242
  759MOL0     H 2433   3.535   8.834  -0.418 -1.0805  3.5036  0.4414
  759MOL0     H 2434   3.579   8.893  -0.264  0.5259  0.1476 -0.6254
  759MOL0     H 2435   3.765   8.946  -0.502 -1.5956  0.5478 -1.3767
  759MOL0     H 2436   3.774   9.018  -0.343  0.1888 -1.4182  1.6296
  759MOL0     H 2437   3.552   9.114  -0.374  1.2140  1.7731  0.3825
  759MOL0     H 2438   3.533   9.057  -0.533 -1.2175 -0.1577  1.5168
  759MOL0     H 2439   3.733   9.249  -0.438 -0.6130 -2.0225  1.3318
  759MOL0     H 2440   3.743   9.165  -0.610  1.2580  1.9743  0.3172
  759MOL0     H 2441   3.545   9.365  -0.511 -0.4767 -0.0004 -1.2879
  759MOL0     H 2442   3.509   9.278  -0.652 -1.9724  0.8084  1.7898
  759MOL0     H 2443   3.699   9.359  -0.770  0.7286 -0.9772  0.8425
  759MOL0     H 2444   3.629   9.500  -0.695  2.8795  1.5512 -2.0319
  759MOL0     H 2445   3.516   8.458  -0.130  3.3843  1.7700 -1.6382
  759MOL0     H 2446   3.455   8.307   0.058  0.1299 -0.5831 -1.2735
  759MOL0     H 2447   3.528   8.403   0.718 -4.6192  0.3981  1.9725
  759MOL0     H 2448   3.470   8.241   0.874 -0.8907 -0.8454 -1.0511
  759MOL0     H 2449   2.826   9.378   0.873 -0.3755  3.7083 -0.1221
  759MOL0     H 2450   2.757   9.539   1.049  0.0831 -1.4725  5.6125
  759MOL0     H 2451   2.528   9.680   1.369  0.8246 -0.0578 -1.5096
  759MOL0     H 2452   2.399   9.834   1.523  1.1737 -2.2389  0.7378
  759MOL0     H 2453   2.338  10.053   1.549  0.0293  0.9690 -3.1442
  759MOL0     H 2454   2.227   9.943   1.630  2.5602 -1.4131 -1.7171
  759MOL0     H 2455   2.192  10.229   1.525 -0.5949 -1.3266 -0.7486
  759MOL0     H 2456   2.212  10.186   1.698 -0.1681 -3.0669  1.2867
  759MOL0     H 2457   1.998  10.047   1.679 -0.9087  1.7464  1.3888
  759MOL0     H 2458   1.976  10.140   1.519 -0.8244 -0.4596  0.1249
  759MOL0     H 2459   2.028  10.347   1.664 -1.8572 -0.2146 -1.2336
  759MOL0     H 2460   1.870  10.262   1.707 -0.3095  0.5530 -1.5155
  759MOL0     H 2461   2.073  10.199   2.059  1.5431  2.3516 -1.0398
  759MOL0     H 2462   2.132   9.912   1.205  1.0003 -0.2969 -1.7579
  759MOL0     H 2463   2.174   9.841   0.984 -1.5050 -2.3699  0.1497
  759MOL0     H 2464   2.345   9.806   0.935  1.0588 -1.8993 -0.4060
  759MOL0     H 2465   2.241   9.675   0.983  0.0058  0.4137 -1.7224
  760MOL0     O 2466   6.202   1.173  11.405  0.1085  0.3288 -0.2763
  760MOL0     C 2467   6.165   1.229  11.505 -1.0309  0.2018 -1.0414
  760MOL0     O 2468   6.074   1.332  11.511 -0.3630 -0.1801  0.1577
  760MOL0     C 2469   6.081   1.428  11.414 -0.7311 -0.2685  0.1273
  760MOL0     C 2470   5.954   1.492  11.392  0.7998  0.1298  0.9555
  760MOL0     C 2471   5.950   1.599  11.294  0.0015  0.1505 -0.0922
  760MOL0     C 2472   6.068   1.634  11.226 -0.8282 -0.9125  0.8747
  760MOL0     O 2473   6.068   1.740  11.139  0.4046 -0.9766 -0.5303
  760MOL0     C 2474   5.977   1.735  11.031  0.3439  0.0494  0.4895
  760MOL0     C 2475   6.024   1.779  10.890  0.3492  0.2873 -0.0332
  760MOL0     C 2476   5.918   1.743  10.789  0.2736  0.2173  0.8661
  760MOL0     C 2477   5.930   1.811  10.658  0.4081 -0.4349  0.7863
  760MOL0     C 2478   5.805   1.906  10.637 -0.3037  0.3936 -0.0307
  760MOL0     C 2479   5.808   2.005  10.523 -0.4107 -0.3449  0.2879
  760MOL0     C 2480   5.670   2.063  10.491 -0.4913 -0.6505 -0.1775
  760MOL0     C 2481   5.605   2.123  10.610  0.9147  0.4952 -0.1835
  760MOL0     N 2482   5.467   2.184  10.586  0.2771  0.2594  0.5559
  760MOL0     C 2483   5.400   2.263  10.669  1.0943  0.0864  0.1361
  760MOL0     C 2484   5.323   2.334  10.593 -0.5488  0.4113  0.3500
  760MOL0     C 2485   5.263   2.457  10.651  0.7355 -0.4144 -0.7183
  760MOL0     C 2486   5.369   2.562  10.688  0.9236  0.2698 -0.5556
  760MOL0     C 2487   5.292   2.685  10.756 -0.1480 -0.8921  0.6923
  760MOL0     C 2488   5.379   2.767  10.847  0.5018  0.1977  0.9765
  760MOL0     O 2489   5.465   2.827  10.750  0.3340  0.0270  0.3160
  760MOL0     C 2490   5.580   2.880  10.795  0.7399 -0.2738 -0.3036
  760MOL0     C 2491   5.645   2.856  10.914  0.2257  0.5314 -0.6203
  760MOL0     C 2492   5.757   2.938  10.948  0.3007 -0.8480  0.3970
  760MOL0     C 2493   5.792   3.050  10.860 -0.2562 -0.5249  0.8446
  760MOL0     C 2494   5.905   3.145  10.877 -0.1013  0.1370  0.5669
  760MOL0     O 2495   6.017   3.079  10.925  0.2100  0.3687  0.8383
  760MOL0     C 2496   6.140   3.134  10.926 -0.1837 -0.2674  0.1475
  760MOL0     C 2497   6.186   3.246  10.848 -0.2743  0.4264  0.7484
  760MOL0     C 2498   6.312   3.305  10.874 -0.0775 -0.0506  0.8660
  760MOL0     C 2499   6.409   3.240  10.954  0.8711  0.9179  0.8844
  760MOL0     O 2500   6.536   3.288  10.973 -0.6329  0.0814 -0.4110
  760MOL0     C 2501   6.603   3.364  10.869  0.2203  0.6570  1.0547
  760MOL0     C 2502   6.624   3.285  10.725  0.3616 -0.5387 -0.3109
  760MOL0     C 2503   6.740   3.185  10.753  0.6386 -0.3055 -0.2937
  760MOL0     C 2504   6.768   3.120  10.619  0.6732  0.4445 -0.3053
  760MOL0     C 2505   6.897   3.053  10.605 -0.0587 -0.2351  0.7240
  760MOL0     C 2506   6.927   2.980  10.465  0.6467  1.2076  0.8526
  760MOL0     C 2507   6.982   3.083  10.354  0.1448 -0.1876 -0.0424
  760MOL0     C 2508   7.050   3.012  10.234 -0.0961  0.1229 -0.4150
  760MOL0    Cl 2509   7.201   2.939  10.277  0.1381  0.2435  0.0293
  760MOL0     C 2510   6.374   3.120  11.010  0.4013  0.9925  0.0985
  760MOL0     C 2511   6.247   3.070  10.999 -0.0312 -0.0309  0.7245
  760MOL0     O 2512   5.902   3.260  10.830  0.1683 -0.7124  0.2763
  760MOL0     C 2513   5.727   3.059  10.734 -0.1529 -0.2208 -0.0586
  760MOL0     C 2514   5.618   2.979  10.709 -0.2749  0.5776  0.1235
  760MOL0     N 2515   5.325   2.295  10.459  0.9641  0.1070  0.1150
  760MOL0     N 2516   5.402   2.190  10.462 -0.0619  0.5906  0.6552
  760MOL0     C 2517   6.192   1.573  11.259 -0.5145  0.0551 -0.3136
  760MOL0     C 2518   6.202   1.472  11.353 -0.1712 -0.3038  0.4202
  760MOL0     C 2519   6.198   1.162  11.631  0.2004  0.2699  0.3204
  760MOL0     C 2520   6.222   1.021  11.648 -0.2118 -0.6362  0.9133
  760MOL0     C 2521   6.263   0.969  11.769  0.1726 -0.4289  0.4112
  760MOL0     C 2522   6.249   1.036  11.888  0.2480  0.1612  0.7189
  760MOL0     O 2523   6.266   0.973  12.004  0.1476 -0.3751  0.2830
  760MOL0     C 2524   6.164   0.993  12.095  0.3681  1.0826 -0.0942
  760MOL0     C 2525   6.131   0.852  12.150  0.0084 -0.0029 -0.0615
  760MOL0     C 2526   6.252   0.772  12.204 -0.9107 -0.6746  0.2076
  760MOL0     C 2527   6.219   0.630  12.255  0.1665 -0.2812  0.1311
  760MOL0     C 2528   6.190   0.531  12.142 -0.7326  0.2097 -0.3859
  760MOL0     C 2529   6.164   0.436  12.067  0.0120 -0.6628  0.2316
  760MOL0     C 2530   6.220   1.172  11.884 -0.9246  0.5797  0.1057
  760MOL0     C 2531   6.203   1.237  11.751 -0.3440 -0.3512  0.0441
  760MOL0     C 2532   6.205   1.390  11.768 -0.4367 -0.3322  0.0307
  760MOL0     H 2533   5.863   1.467  11.446 -1.2091  1.2178 -1.6772
  760MOL0     H 2534   5.865   1.661  11.271  1.8280  1.7103 -3.3974
  760MOL0     H 2535   5.947   1.635  10.997 -2.0045  1.2225 -1.2368
  760MOL0     H 2536   5.885   1.783  11.067  0.3691 -0.3113  1.0503
  760MOL0     H 2537   6.121   1.739  10.860 -0.4752 -1.4006 -0.5794
  760MOL0     H 2538   6.035   1.887  10.908 -1.6098  0.6570 -0.7032
  760MOL0     H 2539   5.818   1.757  10.831 -0.2559  0.8148 -0.5272
  760MOL0     H 2540   5.936   1.636  10.776  1.2576  0.4689  0.0314
  760MOL0     H 2541   6.025   1.865  10.649 -0.7854  1.6046 -0.2820
  760MOL0     H 2542   5.918   1.738  10.578 -1.0507 -1.7110  2.1013
  760MOL0     H 2543   5.716   1.846  10.614  0.7042 -2.3897  2.5261
  760MOL0     H 2544   5.787   1.956  10.733  1.7804 -0.8111  1.0601
  760MOL0     H 2545   5.881   2.085  10.538 -1.6309  0.5560  1.5828
  760MOL0     H 2546   5.836   1.954  10.430  0.4099  0.8088 -0.1315
  760MOL0     H 2547   5.601   1.989  10.449  1.4712 -1.5108 -2.0985
  760MOL0     H 2548   5.686   2.135  10.410  3.5442  2.2078  2.7485
  760MOL0     H 2549   5.594   2.052  10.693 -1.9667 -1.2797 -1.9282
  760MOL0     H 2550   5.670   2.203  10.646 -2.0036  1.5693  3.2775
  760MOL0     H 2551   5.413   2.284  10.775  0.2922 -1.5737  0.5925
  760MOL0     H 2552   5.206   2.496  10.566  1.9739  0.5532 -1.1284
  760MOL0     H 2553   5.194   2.429  10.731 -1.2598 -1.1396 -2.5734
  760MOL0     H 2554   5.439   2.529  10.765 -1.9415 -0.1626  2.0809
  760MOL0     H 2555   5.436   2.586  10.605  2.1721  0.7146  0.5608
  760MOL0     H 2556   5.207   2.645  10.812 -0.4636 -3.6369 -1.5321
  760MOL0     H 2557   5.246   2.758  10.689 -1.7094 -1.5866  0.9533
  760MOL0     H 2558   5.421   2.701  10.923 -1.2487  0.6153  2.3591
  760MOL0     H 2559   5.328   2.852  10.894 -0.2307 -1.3745  3.1824
  760MOL0     H 2560   5.614   2.773  10.975  3.7617 -1.3186 -1.0804
  760MOL0     H 2561   5.809   2.915  11.040  0.9665 -0.7273  0.0526
  760MOL0     H 2562   6.119   3.303  10.785 -0.0146 -2.0804 -1.9743
  760MOL0     H 2563   6.324   3.402  10.826  0.3375 -1.1172 -1.3286
  760MOL0     H 2564   6.535   3.448  10.853 -3.3080 -1.8672  1.4869
  760MOL0     H 2565   6.707   3.389  10.891  0.9534  0.2064 -1.5877
  760MOL0     H 2566   6.533   3.238  10.687  1.2949 -3.3811  0.6393
  760MOL0     H 2567   6.656   3.349  10.643  2.9944 -2.6898 -1.1429
  760MOL0     H 2568   6.827   3.243  10.786  2.0907 -2.0178 -0.9264
  760MOL0     H 2569   6.701   3.122  10.833 -0.2965  4.0288  3.0582
  760MOL0     H 2570   6.744   3.192  10.541 -0.5437  0.9364  0.4854
  760MOL0     H 2571   6.699   3.035  10.614 -0.1535  1.1678 -1.9852
  760MOL0     H 2572   6.912   2.985  10.690 -0.6732  3.0570  3.6899
  760MOL0     H 2573   6.969   3.132  10.629  1.1577 -0.6702 -1.2810
  760MOL0     H 2574   7.006   2.909  10.490 -1.5567 -2.7813 -2.2377
  760MOL0     H 2575   6.839   2.922  10.436  0.4243  1.9131  0.0691
  760MOL0     H 2576   7.055   3.150  10.399  0.5417 -1.2906  1.0095
  760MOL0     H 2577   6.896   3.140  10.317  0.7714  1.2139  0.5962
  760MOL0     H 2578   6.983   2.937  10.191 -0.2243 -0.3195  0.5540
  760MOL0     H 2579   7.085   3.088  10.163 -1.9042  1.1688 -0.2608
  760MOL0     H 2580   6.457   3.066  11.056  0.1169  1.3262  1.0105
  760MOL0     H 2581   6.211   2.983  11.054 -0.5194  0.3410  1.0036
  760MOL0     H 2582   5.763   3.132  10.661 -1.3971  0.0376 -0.4432
  760MOL0     H 2583   5.549   3.002  10.628 -3.2758  1.5291  2.7704
  760MOL0     H 2584   6.285   1.602  11.212  1.1539 -0.3782  2.4714
  760MOL0     H 2585   6.301   1.431  11.372 -1.1006 -2.8191  0.2711
  760MOL0     H 2586   6.214   0.959  11.559  1.0046 -0.7313  0.8570
  760MOL0     H 2587   6.294   0.867  11.787  2.8030  0.3884  0.9312
  760MOL0     H 2588   6.079   1.045  12.051  1.2881  1.9411 -0.9190
  760MOL0     H 2589   6.198   1.051  12.181 -1.3545  0.3903  1.1045
  760MOL0     H 2590   6.114   0.800  12.055  0.6820 -2.9814  1.3076
  760MOL0     H 2591   6.038   0.850  12.206  0.5866  1.4905  1.0223
  760MOL0     H 2592   6.298   0.826  12.286  0.5876 -2.1094  0.3499
  760MOL0     H 2593   6.326   0.768  12.123  1.2351 -2.0161  2.1109
  760MOL0     H 2594   6.297   0.596  12.324 -0.3068  0.4779  1.0790
  760MOL0     H 2595   6.128   0.631  12.316  1.0585 -1.0953  1.5210
  760MOL0     H 2596   6.125   0.359  12.003 -2.7457  1.2462 -0.5921
  760MOL0     H 2597   6.210   1.235  11.971  0.5352  2.6599 -1.1422
  760MOL0     H 2598   6.230   1.450  11.680  3.1993 -0.0653  1.0984
  760MOL0     H 2599   6.111   1.431  11.807  0.4012  2.6078 -0.8014
  760MOL0     H 2600   6.287   1.414  11.836  0.5278 -0.3032 -1.1086
  761MOL0     O 2601   2.623  10.065   2.348  0.3905  0.4174 -0.3237
  761MOL0     C 2602   2.659  10.030   2.465 -1.2557  0.6300 -0.1796
  761MOL0     O 2603   2.617   9.920   2.531 -0.9984 -0.1169  0.5227
  761MOL0     C 2604   2.527   9.839   2.469 -0.1925 -0.6079 -0.5287
  761MOL0     C 2605   2.577   9.716   2.430 -0.0412 -0.3324  0.1161
  761MOL0     C 2606   2.474   9.633   2.374 -0.5567  0.4444 -0.5338
  761MOL0     C 2607   2.339   9.667   2.367  0.1234  0.1384  1.1128
  761MOL0     O 2608   2.242   9.585   2.314 -0.2147 -0.0159  0.1233
  761MOL0     C 2609   2.239   9.452   2.358  0.9385 -0.2005  0.4445
  761MOL0     C 2610   2.090   9.402   2.320  0.1317 -0.3743 -0.5783
  761MOL0     C 2611   2.045   9.454   2.185  0.2957 -0.3385  0.2049
  761MOL0     C 2612   1.909   9.391   2.140  0.2180 -0.9371  0.1608
  761MOL0     C 2613   1.844   9.442   2.007 -0.0113  1.4972  0.7196
  761MOL0     C 2614   1.708   9.381   1.993 -0.0013 -0.4406  0.4241
  761MOL0     C 2615   1.653   9.408   1.860  0.5438 -0.0896  0.1294
  761MOL0     C 2616   1.518   9.348   1.834 -0.1764 -1.1345 -0.3172
  761MOL0     N 2617   1.480   9.373   1.692  0.4168  0.6752  0.4066
  761MOL0     C 2618   1.528   9.311   1.574  0.5775  0.1260  0.3351
  761MOL0     C 2619   1.437   9.357   1.477 -0.2748  0.6487  0.9716
  761MOL0     C 2620   1.444   9.337   1.324 -0.0395 -0.3673 -0.6315
  761MOL0     C 2621   1.294   9.295   1.274 -0.1713 -0.1153  0.0943
  761MOL0     C 2622   1.252   9.157   1.336 -1.1303 -0.3913  0.6095
  761MOL0     C 2623   1.310   9.046   1.260  0.4298  0.3728 -0.0982
  761MOL0     O 2624   1.275   9.064   1.120  0.1626 -0.0952  0.0852
  761MOL0     C 2625   1.281   8.954   1.041  0.6285  0.1782 -0.6679
  761MOL0     C 2626   1.233   8.958   0.907  0.6044 -0.0244  0.1311
  761MOL0     C 2627   1.260   8.855   0.815  0.1553 -0.6232  0.0375
  761MOL0     C 2628   1.317   8.737   0.843 -0.1474  0.2782 -0.4979
  761MOL0     C 2629   1.346   8.638   0.746  0.0489 -0.2181 -0.9483
  761MOL0     O 2630   1.310   8.666   0.619 -0.4224  0.2063  0.4201
  761MOL0     C 2631   1.329   8.581   0.513  0.0014  0.8393 -0.3724
  761MOL0     C 2632   1.428   8.475   0.501 -1.4467  1.2292 -0.4107
  761MOL0     C 2633   1.447   8.408   0.381  0.1535 -1.0325  0.0254
  761MOL0     C 2634   1.363   8.438   0.273 -0.2958 -0.8997  0.1944
  761MOL0     O 2635   1.389   8.362   0.160 -0.3842  0.5160 -0.6364
  761MOL0     C 2636   1.299   8.361   0.053 -0.1342  0.2856 -0.7466
  761MOL0     C 2637   1.323   8.226  -0.021 -0.5049  0.9673  0.5562
  761MOL0     C 2638   1.255   8.248  -0.155 -0.5981  1.0897 -0.0918
  761MOL0     C 2639   1.281   8.122  -0.246  0.9254  0.3627 -0.0663
  761MOL0     C 2640   1.428   8.086  -0.271  0.2822  1.3498 -0.4865
  761MOL0     C 2641   1.452   7.951  -0.340  0.8514 -0.3863  0.5786
  761MOL0     C 2642   1.362   7.917  -0.456 -0.0572  0.3833  0.0894
  761MOL0     C 2643   1.388   7.993  -0.584  0.3029  0.5946 -0.0207
  761MOL0    Cl 2644   1.285   7.915  -0.708  0.2501 -0.0758 -0.0916
  761MOL0     C 2645   1.252   8.525   0.285 -0.8741  0.6937  0.2160
  761MOL0     C 2646   1.237   8.596   0.402 -0.7002 -0.1215 -0.4694
  761MOL0     O 2647   1.396   8.531   0.780 -0.3412 -0.6300  0.3187
  761MOL0     C 2648   1.356   8.725   0.984 -0.2585 -0.0768 -0.1303
  761MOL0     C 2649   1.343   8.833   1.084  0.8036  0.2855 -0.1243
  761MOL0     N 2650   1.346   9.434   1.543  0.7938  0.1497 -0.2358
  761MOL0     N 2651   1.372   9.441   1.668 -0.3046 -0.4399 -0.1226
  761MOL0     C 2652   2.292   9.795   2.408 -0.4053 -0.6154  0.7325
  761MOL0     C 2653   2.394   9.880   2.450  0.4364  0.5766  0.6801
  761MOL0     C 2654   2.748  10.127   2.550  0.1788 -0.3676  0.8797
  761MOL0     C 2655   2.820  10.234   2.486  0.1849  0.1280 -0.1352
  761MOL0     C 2656   2.899  10.314   2.556  0.3938 -0.0052 -0.5191
  761MOL0     C 2657   2.916  10.314   2.693 -0.2607 -0.0244 -1.0677
  761MOL0     O 2658   3.001  10.386   2.769  0.2909 -0.3058  0.2100
  761MOL0     C 2659   3.020  10.522   2.717  0.8236  0.0134  0.1159
  761MOL0     C 2660   3.047  10.613   2.832  0.6673  0.3861 -0.9836
  761MOL0     C 2661   3.017  10.761   2.798 -1.0657 -0.1756 -0.7689
  761MOL0     C 2662   3.135  10.824   2.717 -0.0132 -0.7828 -0.0097
  761MOL0     C 2663   3.099  10.946   2.644 -0.2222  1.1431 -0.8180
  761MOL0     C 2664   3.040  11.041   2.597  0.3369  0.1853  0.1719
  761MOL0     C 2665   2.840  10.224   2.763 -0.3029 -0.3134  0.5312
  761MOL0     C 2666   2.758  10.128   2.694 -0.2424  0.4011  0.3809
  761MOL0     C 2667   2.667  10.045   2.775  0.6061 -0.6571 -0.4429
  761MOL0     H 2668   2.684   9.699   2.442  0.0652  0.7073  0.8017
  761MOL0     H 2669   2.501   9.531   2.348  3.0571  0.5878  1.8874
  761MOL0     H 2670   2.314   9.403   2.295  0.8857  1.1892 -0.7473
  761MOL0     H 2671   2.257   9.450   2.465 -1.4755  0.4776  0.9329
  761MOL0     H 2672   2.013   9.436   2.390 -1.3112 -1.8540 -1.3825
  761MOL0     H 2673   2.085   9.293   2.313 -0.1234 -0.4566  0.5909
  761MOL0     H 2674   2.121   9.431   2.110  0.0687 -0.2492 -0.0567
  761MOL0     H 2675   2.037   9.563   2.197 -1.5581 -0.6466  2.3233
  761MOL0     H 2676   1.928   9.284   2.133  0.2490 -0.9511  0.4568
  761MOL0     H 2677   1.835   9.406   2.220 -1.6697 -3.3306 -1.0054
  761MOL0     H 2678   1.831   9.551   2.013  0.0008  1.4150  4.1757
  761MOL0     H 2679   1.897   9.410   1.917 -1.4093 -1.6715  0.9024
  761MOL0     H 2680   1.721   9.273   2.007 -0.5126 -0.8506 -1.8223
  761MOL0     H 2681   1.646   9.430   2.068  0.7461 -1.6807  1.9131
  761MOL0     H 2682   1.726   9.362   1.793 -0.8942 -1.0906 -0.7890
  761MOL0     H 2683   1.652   9.515   1.837  0.1345 -0.6122 -2.6614
  761MOL0     H 2684   1.515   9.241   1.855  2.0474 -1.1193  0.3097
  761MOL0     H 2685   1.449   9.400   1.902  0.0734 -1.9798  0.5987
  761MOL0     H 2686   1.621   9.256   1.564  1.3539  0.5600  3.6890
  761MOL0     H 2687   1.473   9.434   1.283  1.9258 -1.4596 -2.0097
  761MOL0     H 2688   1.514   9.266   1.278  1.0413  1.6201 -2.2546
  761MOL0     H 2689   1.221   9.371   1.302  0.2147 -0.4520  2.2217
  761MOL0     H 2690   1.305   9.291   1.165 -1.0544  0.4700 -0.0234
  761MOL0     H 2691   1.143   9.156   1.326 -1.3552  3.1035  1.2868
  761MOL0     H 2692   1.276   9.149   1.443  1.0647  1.8162  0.3547
  761MOL0     H 2693   1.266   8.951   1.294  2.3516 -0.0747  1.3162
  761MOL0     H 2694   1.419   9.040   1.266  0.8792  4.5439 -1.1671
  761MOL0     H 2695   1.180   9.049   0.877  1.7286  0.2600 -1.0888
  761MOL0     H 2696   1.231   8.867   0.711  0.3574 -1.4125 -0.1191
  761MOL0     H 2697   1.486   8.455   0.590 -0.6915 -2.5577 -1.6076
  761MOL0     H 2698   1.513   8.322   0.377  1.8888  0.2931 -2.0952
  761MOL0     H 2699   1.194   8.362   0.083 -1.1576  0.3048 -3.9527
  761MOL0     H 2700   1.323   8.445  -0.012  0.4682  0.1526 -0.7037
  761MOL0     H 2701   1.430   8.206  -0.021 -0.4053  1.1619 -1.9810
  761MOL0     H 2702   1.267   8.141   0.019 -1.4510  1.5307  0.4631
  761MOL0     H 2703   1.150   8.267  -0.133 -0.2998 -0.2711  2.9852
  761MOL0     H 2704   1.288   8.334  -0.213 -1.5446  3.2370  2.3928
  761MOL0     H 2705   1.240   8.143  -0.345  1.7781 -1.0338 -0.7371
  761MOL0     H 2706   1.226   8.035  -0.209  0.2231  0.9990  0.4033
  761MOL0     H 2707   1.485   8.087  -0.178 -1.5860  1.1853  0.7101
  761MOL0     H 2708   1.463   8.175  -0.325 -1.1791  1.2846 -1.6073
  761MOL0     H 2709   1.557   7.950  -0.372  0.6525  1.3664 -0.3202
  761MOL0     H 2710   1.445   7.867  -0.272 -1.9376 -3.4626 -3.0730
  761MOL0     H 2711   1.258   7.942  -0.434 -0.1396  1.2523 -1.1426
  761MOL0     H 2712   1.366   7.808  -0.463  3.6177  0.3416  0.4868
  761MOL0     H 2713   1.365   8.099  -0.571 -0.6864  0.0435  3.5844
  761MOL0     H 2714   1.493   7.989  -0.616  0.2516  1.6317 -0.3521
  761MOL0     H 2715   1.202   8.538   0.189  2.9134 -0.0598 -2.0354
  761MOL0     H 2716   1.158   8.670   0.409  0.8876  1.4415  2.9475
  761MOL0     H 2717   1.394   8.631   1.023 -0.6009  0.1193  0.6994
  761MOL0     H 2718   1.371   8.806   1.185 -0.8994  0.8460  0.5324
  761MOL0     H 2719   2.188   9.815   2.382  0.2396  0.0653 -1.4887
  761MOL0     H 2720   2.375   9.984   2.474  0.7989  0.4179  1.6780
  761MOL0     H 2721   2.827  10.250   2.379  2.3981  3.4265  0.3547
  761MOL0     H 2722   2.958  10.386   2.500  1.4248 -1.3090 -1.1758
  761MOL0     H 2723   2.926  10.557   2.673  0.6540  2.4667  2.1939
  761MOL0     H 2724   3.103  10.524   2.647  1.1024 -1.0819  0.3824
  761MOL0     H 2725   3.149  10.588   2.862 -0.5622 -1.7496  1.9303
  761MOL0     H 2726   2.979  10.587   2.913 -0.1952  1.8730 -1.1925
  761MOL0     H 2727   3.016  10.815   2.893  0.9647 -0.7853 -0.3677
  761MOL0     H 2728   2.919  10.768   2.750 -1.5515  2.6286  0.4526
  761MOL0     H 2729   3.212  10.861   2.785 -1.1307 -1.1463  1.5055
  761MOL0     H 2730   3.184  10.762   2.640  0.7288  0.9433 -1.0037
  761MOL0     H 2731   3.018  11.136   2.552  0.8307  0.4758  0.5291
  761MOL0     H 2732   2.846  10.231   2.871  2.0274  0.0844  0.4386
  761MOL0     H 2733   2.566  10.062   2.736  1.2971  2.5619 -1.1111
  761MOL0     H 2734   2.708   9.944   2.787  1.6118  0.0064  2.6588
  761MOL0     H 2735   2.662  10.086   2.876 -1.2721 -2.5574  0.3202
  762MOL0     O 2736   0.779   5.511   3.181 -0.0555  0.4674 -0.6206
  762MOL0     C 2737   0.866   5.555   3.247 -0.8224 -0.5976  0.8516
  762MOL0     O 2738   0.884   5.688   3.279  0.9649  0.0616 -1.0864
  762MOL0     C 2739   0.807   5.784   3.214 -0.4316  0.0831 -0.2817
  762MOL0     C 2740   0.817   5.801   3.073 -0.0600  0.2116  0.6346
  762MOL0     C 2741   0.715   5.874   3.007 -0.3067 -0.0403 -0.2374
  762MOL0     C 2742   0.609   5.936   3.080 -0.2361 -0.2103  0.1228
  762MOL0     O 2743   0.493   5.989   3.011  0.4578 -0.5945  0.1788
  762MOL0     C 2744   0.524   6.064   2.896  0.7109 -0.0607  0.1864
  762MOL0     C 2745   0.404   6.134   2.838 -0.2863  0.2240  0.0408
  762MOL0     C 2746   0.357   6.249   2.940 -0.1086  0.4050  0.3805
  762MOL0     C 2747   0.225   6.320   2.898 -0.5902  1.0502 -0.1385
  762MOL0     C 2748   0.182   6.413   3.016 -0.6324  0.5116 -1.1972
  762MOL0     C 2749   0.043   6.476   2.998 -0.3978 -0.9960  0.2503
  762MOL0     C 2750   0.042   6.582   2.880  0.4141 -0.0134 -0.2869
  762MOL0     C 2751  -0.087   6.663   2.895  0.7659  0.1354 -0.1002
  762MOL0     N 2752  -0.217   6.585   2.923 -0.2291 -0.1987 -0.7725
  762MOL0     C 2753  -0.267   6.543   3.042  0.1339  0.6397 -0.2254
  762MOL0     C 2754  -0.384   6.477   3.001 -0.6339 -0.2153  0.4349
  762MOL0     C 2755  -0.485   6.412   3.098 -0.2323  0.4811  0.1501
  762MOL0     C 2756  -0.511   6.269   3.053 -0.2583 -0.0316  1.0879
  762MOL0     C 2757  -0.388   6.179   3.067 -0.4655 -0.2036  0.2598
  762MOL0     C 2758  -0.424   6.031   3.023  0.3373  0.5912 -0.2621
  762MOL0     O 2759  -0.534   5.984   3.081 -0.0950 -0.3939 -0.2072
  762MOL0     C 2760  -0.517   5.903   3.193 -0.0400  1.0192  0.6641
  762MOL0     C 2761  -0.614   5.914   3.295 -1.6268 -0.7611 -0.0820
  762MOL0     C 2762  -0.585   5.852   3.419 -0.0179 -0.3554 -0.0738
  762MOL0     C 2763  -0.478   5.762   3.446 -0.7005 -0.1254 -1.2627
  762MOL0     C 2764  -0.445   5.708   3.579  0.1923  0.2718 -0.8522
  762MOL0     O 2765  -0.371   5.604   3.584 -0.0853  0.5899  0.0377
  762MOL0     C 2766  -0.361   5.503   3.679  0.6776  0.1222  0.2598
  762MOL0     C 2767  -0.451   5.478   3.780 -1.1919  0.3350  0.1538
  762MOL0     C 2768  -0.437   5.363   3.864 -0.1355 -0.4642  0.0585
  762MOL0     C 2769  -0.335   5.266   3.832 -0.0335  0.5381  0.3241
  762MOL0     O 2770  -0.315   5.150   3.897 -0.0110 -0.1065 -0.3814
  762MOL0     C 2771  -0.418   5.094   3.989 -0.5768  0.3633  0.7946
  762MOL0     C 2772  -0.362   4.958   4.046 -0.8211  0.8135  1.4021
  762MOL0     C 2773  -0.258   4.984   4.159  0.3025  0.4680  0.1861
  762MOL0     C 2774  -0.247   4.866   4.259  0.0660  0.4254  0.4387
  762MOL0     C 2775  -0.168   4.884   4.385 -0.5766  0.0211  0.2222
  762MOL0     C 2776  -0.132   4.753   4.460  0.7467  0.3105  0.8442
  762MOL0     C 2777  -0.247   4.684   4.543  0.1004  0.8509 -0.0631
  762MOL0     C 2778  -0.216   4.534   4.594  0.2456 -0.7170 -1.2681
  762MOL0    Cl 2779  -0.065   4.533   4.678 -0.1041 -0.5254  0.3009
  762MOL0     C 2780  -0.248   5.287   3.728  0.5239  0.1379 -0.4310
  762MOL0     C 2781  -0.265   5.400   3.647 -0.7705 -0.1242 -0.0360
  762MOL0     O 2782  -0.498   5.759   3.677 -0.3118 -0.2675  0.0710
  762MOL0     C 2783  -0.396   5.743   3.345 -0.0552  0.4977  0.1846
  762MOL0     C 2784  -0.416   5.800   3.213 -1.2298  0.0274  0.3733
  762MOL0     N 2785  -0.402   6.482   2.859 -0.0087  0.1513 -0.6582
  762MOL0     N 2786  -0.296   6.538   2.821 -0.5331 -0.4453  0.1371
  762MOL0     C 2787   0.608   5.936   3.220  1.0777  1.5147  0.1153
  762MOL0     C 2788   0.712   5.855   3.286 -0.9506  0.3477 -0.1145
  762MOL0     C 2789   0.966   5.451   3.292  0.5493 -0.5582 -0.5686
  762MOL0     C 2790   1.029   5.476   3.417  0.6283 -0.4523  0.5126
  762MOL0     C 2791   1.126   5.381   3.450 -0.2986  1.3103 -1.1405
  762MOL0     C 2792   1.159   5.263   3.384  0.0355  0.4233  0.1479
  762MOL0     O 2793   1.254   5.177   3.435  0.7266 -0.3006  0.6024
  762MOL0     C 2794   1.217   5.043   3.430 -0.8839 -0.9555 -0.1021
  762MOL0     C 2795   1.280   4.975   3.542  0.2931 -0.5533  0.3461
  762MOL0     C 2796   1.261   4.830   3.555  0.6333 -0.5221 -0.7424
  762MOL0     C 2797   1.117   4.791   3.614 -0.1351 -0.0267  0.9242
  762MOL0     C 2798   1.092   4.646   3.609 -0.7087 -0.0071 -0.7807
  762MOL0     C 2799   1.071   4.528   3.612  0.0195 -0.5796  1.0665
  762MOL0     C 2800   1.103   5.249   3.264 -0.0853 -0.6123 -0.8324
  762MOL0     C 2801   1.001   5.336   3.215  0.3664  0.2685 -0.2955
  762MOL0     C 2802   0.963   5.309   3.074 -0.4069  0.0349 -0.0904
  762MOL0     H 2803   0.888   5.756   3.004 -2.6152 -1.3026 -1.1636
  762MOL0     H 2804   0.723   5.888   2.900  0.5721  0.0001 -0.1729
  762MOL0     H 2805   0.610   6.130   2.912  1.1725  0.3141 -3.1680
  762MOL0     H 2806   0.549   5.985   2.826  3.4505 -0.4574  1.4869
  762MOL0     H 2807   0.317   6.076   2.808  0.4823  0.0602 -2.0398
  762MOL0     H 2808   0.435   6.177   2.742 -1.3491 -4.9380 -2.9912
  762MOL0     H 2809   0.438   6.321   2.954  2.8018 -1.9714 -2.4964
  762MOL0     H 2810   0.338   6.199   3.035 -2.4894 -0.7785 -0.6354
  762MOL0     H 2811   0.236   6.383   2.810 -1.5774  0.8486 -0.4204
  762MOL0     H 2812   0.154   6.239   2.876 -0.1262  0.8175 -0.8064
  762MOL0     H 2813   0.164   6.354   3.107  1.5187  1.6738  0.0561
  762MOL0     H 2814   0.253   6.492   3.040 -1.2254  0.4276  1.0654
  762MOL0     H 2815  -0.033   6.398   2.993  0.0048 -1.4761  1.2989
  762MOL0     H 2816   0.033   6.540   3.086 -0.5336  0.1210 -0.5563
  762MOL0     H 2817   0.055   6.528   2.785 -0.9863 -2.5518  0.8907
  762MOL0     H 2818   0.140   6.632   2.877  0.9168 -0.9343  0.3234
  762MOL0     H 2819  -0.084   6.728   2.982 -1.2027  0.3974 -0.1740
  762MOL0     H 2820  -0.103   6.734   2.813 -2.4856  1.3618  1.3949
  762MOL0     H 2821  -0.223   6.560   3.140 -1.6632  3.1105  0.2302
  762MOL0     H 2822  -0.460   6.426   3.203 -1.0221  1.3192  0.2376
  762MOL0     H 2823  -0.584   6.457   3.083  0.0020 -0.0747 -4.3945
  762MOL0     H 2824  -0.583   6.224   3.122 -1.3856 -1.5230 -0.9575
  762MOL0     H 2825  -0.556   6.264   2.954  0.0428  0.7724  0.9051
  762MOL0     H 2826  -0.374   6.179   3.176  2.4748 -1.9237 -0.0234
  762MOL0     H 2827  -0.299   6.207   3.011 -0.8144  1.6637  0.5740
  762MOL0     H 2828  -0.336   5.976   3.057 -0.1705  2.8197  5.8475
  762MOL0     H 2829  -0.435   6.017   2.915 -0.1546 -2.3613  0.0909
  762MOL0     H 2830  -0.691   5.991   3.302 -0.3958  1.0036 -3.4918
  762MOL0     H 2831  -0.646   5.884   3.504  1.1328  3.2534 -0.4186
  762MOL0     H 2832  -0.525   5.554   3.802 -0.6441  0.9351 -0.0579
  762MOL0     H 2833  -0.504   5.373   3.948 -3.6157  1.4763 -2.6842
  762MOL0     H 2834  -0.452   5.155   4.074 -2.8071 -0.2610  0.4045
  762MOL0     H 2835  -0.504   5.078   3.923 -0.7469  0.8536  0.8934
  762MOL0     H 2836  -0.441   4.890   4.079  0.2324 -1.2011 -0.0224
  762MOL0     H 2837  -0.315   4.895   3.970 -0.3955 -0.0297  2.3437
  762MOL0     H 2838  -0.165   5.018   4.114 -0.6711  1.3645 -1.2432
  762MOL0     H 2839  -0.281   5.073   4.219 -0.6938  1.3193 -1.3731
  762MOL0     H 2840  -0.204   4.781   4.204  1.1817 -0.4765  2.5790
  762MOL0     H 2841  -0.350   4.838   4.282  0.4273 -1.0099  0.4392
  762MOL0     H 2842  -0.227   4.950   4.450  0.6747  0.4280  0.9878
  762MOL0     H 2843  -0.074   4.935   4.360 -1.6084  2.3070  0.7493
  762MOL0     H 2844  -0.108   4.679   4.383 -2.2221 -0.1815  0.2782
  762MOL0     H 2845  -0.043   4.772   4.521  0.6337  0.6138  0.9160
  762MOL0     H 2846  -0.331   4.665   4.475 -0.7643  0.1593  1.1680
  762MOL0     H 2847  -0.280   4.738   4.632 -2.5004 -1.0377  0.2273
  762MOL0     H 2848  -0.290   4.492   4.663  0.1269  0.9790 -0.3193
  762MOL0     H 2849  -0.222   4.462   4.512 -2.2219 -1.4782 -0.5096
  762MOL0     H 2850  -0.181   5.206   3.701  1.9614  1.6822 -1.7692
  762MOL0     H 2851  -0.204   5.403   3.558 -0.3348  0.5654  0.2785
  762MOL0     H 2852  -0.318   5.667   3.341  1.1230  1.7275 -1.8128
  762MOL0     H 2853  -0.354   5.771   3.129 -0.0240  2.6902  0.2190
  762MOL0     H 2854   0.532   5.977   3.286  2.1737  0.3577  2.1905
  762MOL0     H 2855   0.709   5.852   3.394  2.8112 -1.1965  0.0743
  762MOL0     H 2856   1.019   5.569   3.472 -1.4401  1.2751 -2.5145
  762MOL0     H 2857   1.191   5.408   3.532 -1.2749  3.6094 -1.0538
  762MOL0     H 2858   1.247   4.999   3.334  1.6535  0.1005  0.1163
  762MOL0     H 2859   1.110   5.026   3.441 -0.8141 -1.4103 -0.0884
  762MOL0     H 2860   1.242   5.029   3.630 -0.9508  0.3297 -0.7027
  762MOL0     H 2861   1.385   5.001   3.529 -0.5582  2.8732 -0.6429
  762MOL0     H 2862   1.336   4.796   3.626  2.2211 -0.9616 -2.5435
  762MOL0     H 2863   1.292   4.776   3.464  0.6154  2.2974 -2.5461
  762MOL0     H 2864   1.117   4.820   3.719  0.3200  0.5194  0.7809
  762MOL0     H 2865   1.042   4.843   3.554 -1.1237  1.2323  3.1420
  762MOL0     H 2866   1.045   4.427   3.592  1.4042 -0.2653 -3.4849
  762MOL0     H 2867   1.113   5.156   3.210 -0.3009 -0.1489 -1.6988
  762MOL0     H 2868   0.922   5.391   3.014 -2.7086  0.5774  2.0392
  762MOL0     H 2869   1.049   5.270   3.019 -1.8719 -1.3325 -1.5411
  762MOL0     H 2870   0.891   5.226   3.070  0.1403 -0.4885  0.6552
  763MOL0     O 2871   4.811   8.097   1.787 -0.0804 -0.1705  0.0464
  763MOL0     C 2872   4.862   8.027   1.700  0.1573 -1.1967  0.4104
  763MOL0     O 2873   4.951   7.933   1.732 -0.0101 -0.2881  0.6386
  763MOL0     C 2874   4.995   7.920   1.860  0.6090  0.0283  0.7897
  763MOL0     C 2875   4.945   7.818   1.937  0.4344  0.0996  0.1706
  763MOL0     C 2876   5.005   7.780   2.062 -0.1184 -0.4972 -0.4345
  763MOL0     C 2877   5.107   7.861   2.111  0.6235  0.0850  0.1872
  763MOL0     O 2878   5.153   7.832   2.237 -0.3579 -0.7025 -0.3564
  763MOL0     C 2879   5.056   7.790   2.333 -1.1694  0.2676 -0.6189
  763MOL0     C 2880   5.115   7.848   2.468 -1.2286  0.4029  0.3811
  763MOL0     C 2881   5.051   7.772   2.588  0.9186  0.3830 -0.4630
  763MOL0     C 2882   5.091   7.822   2.730  0.0314 -0.3137 -0.3072
  763MOL0     C 2883   5.003   7.758   2.839  0.6016 -0.6885 -1.0636
  763MOL0     C 2884   5.031   7.805   2.984 -0.1388 -0.2456 -0.5168
  763MOL0     C 2885   5.174   7.778   3.022 -0.2740  0.1896 -0.1920
  763MOL0     C 2886   5.208   7.809   3.168  0.3311 -0.1818 -0.6807
  763MOL0     N 2887   5.208   7.952   3.194  0.1951 -0.4115  0.2275
  763MOL0     C 2888   5.274   8.051   3.123 -0.1365 -0.7532  0.2747
  763MOL0     C 2889   5.211   8.165   3.162 -0.0763 -0.2830 -0.3467
  763MOL0     C 2890   5.238   8.300   3.128 -0.4796 -0.8022  0.8386
  763MOL0     C 2891   5.244   8.393   3.241 -0.5889  0.3017  0.3111
  763MOL0     C 2892   5.314   8.521   3.189  0.1267 -1.3849 -0.3008
  763MOL0     C 2893   5.356   8.602   3.316  0.2744 -0.4302  0.5945
  763MOL0     O 2894   5.329   8.737   3.273  0.1148 -0.0658 -0.6743
  763MOL0     C 2895   5.196   8.783   3.276  0.4572  0.3030 -0.3561
  763MOL0     C 2896   5.087   8.709   3.314  0.5397 -0.1047  0.0315
  763MOL0     C 2897   4.955   8.763   3.324 -0.4439  0.2922 -0.3654
  763MOL0     C 2898   4.941   8.907   3.291 -0.2035 -0.3019  0.6658
  763MOL0     C 2899   4.804   8.961   3.291  0.7422 -0.0819  0.5253
  763MOL0     O 2900   4.789   9.085   3.232  0.7173 -0.1928 -0.1778
  763MOL0     C 2901   4.668   9.143   3.255  0.2740 -0.1193  0.0649
  763MOL0     C 2902   4.568   9.153   3.156  0.4166 -0.6811 -0.2904
  763MOL0     C 2903   4.452   9.230   3.164  0.3538  0.5762 -0.0114
  763MOL0     C 2904   4.436   9.316   3.274  0.4927 -0.1089 -0.0795
  763MOL0     O 2905   4.314   9.381   3.295 -0.8504 -0.8814 -0.0842
  763MOL0     C 2906   4.297   9.488   3.395 -0.0392  0.2361 -0.3485
  763MOL0     C 2907   4.155   9.546   3.377  0.2735  0.2170  0.4809
  763MOL0     C 2908   4.042   9.451   3.423  1.2018  1.4351  0.1328
  763MOL0     C 2909   3.912   9.521   3.393 -0.3474  0.4242 -0.2147
  763MOL0     C 2910   3.794   9.448   3.453 -0.8701  0.5200 -0.3171
  763MOL0     C 2911   3.661   9.493   3.389  0.8752 -0.7811  0.7071
  763MOL0     C 2912   3.634   9.650   3.388 -0.2861  0.3862 -0.5986
  763MOL0     C 2913   3.499   9.696   3.340  0.5393  0.4737  0.1933
  763MOL0    Cl 2914   3.516   9.862   3.278 -0.3147  0.3336  0.6541
  763MOL0     C 2915   4.539   9.320   3.372 -0.4800 -0.3923 -0.5884
  763MOL0     C 2916   4.648   9.228   3.363 -0.1200 -0.2690 -0.0730
  763MOL0     O 2917   4.715   8.900   3.343  0.1501  0.5239  1.1359
  763MOL0     C 2918   5.058   8.983   3.269 -1.3599 -0.5580 -0.1313
  763MOL0     C 2919   5.182   8.918   3.260  0.3997 -0.5510  0.1152
  763MOL0     N 2920   5.118   8.136   3.267  0.8312  0.0995 -0.1069
  763MOL0     N 2921   5.118   8.009   3.276  0.0727 -0.4455  0.8734
  763MOL0     C 2922   5.152   7.971   2.034 -0.7790 -0.4342 -0.8460
  763MOL0     C 2923   5.096   8.000   1.911 -0.1641 -0.3201  0.1096
  763MOL0     C 2924   4.828   8.056   1.556 -0.7057  0.8194 -0.5251
  763MOL0     C 2925   4.699   8.120   1.534 -0.4649  0.2946  0.0430
  763MOL0     C 2926   4.660   8.154   1.409  0.5264 -0.3206  0.4040
  763MOL0     C 2927   4.737   8.117   1.294 -0.1666  0.2365 -0.6142
  763MOL0     O 2928   4.678   8.163   1.170 -0.1625  0.0725  0.0335
  763MOL0     C 2929   4.733   8.114   1.048 -0.2602 -0.4918 -0.1437
  763MOL0     C 2930   4.671   8.180   0.924 -0.4856  0.2003  0.4805
  763MOL0     C 2931   4.664   8.332   0.934 -0.1688 -0.0203 -0.8923
  763MOL0     C 2932   4.624   8.397   0.796 -0.0922 -1.0625 -0.6105
  763MOL0     C 2933   4.509   8.331   0.728  0.0253  0.0207  0.8553
  763MOL0     C 2934   4.417   8.270   0.680 -0.0314  0.2066  1.0313
  763MOL0     C 2935   4.867   8.056   1.317 -0.3411  0.1168  0.7873
  763MOL0     C 2936   4.913   8.031   1.441 -0.9436  0.6512 -0.7992
  763MOL0     C 2937   5.042   7.971   1.455 -0.2021 -0.5797  0.2044
  763MOL0     H 2938   4.862   7.759   1.901  0.6330  1.1292 -2.1270
  763MOL0     H 2939   4.956   7.695   2.109 -0.4404 -0.5155 -0.7990
  763MOL0     H 2940   4.953   7.828   2.329 -1.1225  1.8782  5.1180
  763MOL0     H 2941   5.039   7.682   2.333 -1.5564  0.3171  0.9873
  763MOL0     H 2942   5.092   7.955   2.468  0.7110  0.9268 -2.3374
  763MOL0     H 2943   5.223   7.829   2.459 -1.7398 -2.1256 -1.8114
  763MOL0     H 2944   5.071   7.664   2.590  3.4043  0.7712 -0.4612
  763MOL0     H 2945   4.948   7.796   2.560  0.6989  1.6023  1.1991
  763MOL0     H 2946   5.198   7.804   2.742  0.0520  0.8880  1.6544
  763MOL0     H 2947   5.067   7.928   2.740 -1.1571 -0.6635  0.8653
  763MOL0     H 2948   4.896   7.779   2.829  0.5288  0.3891  1.1449
  763MOL0     H 2949   5.012   7.649   2.837 -0.5957 -0.9228  1.7373
  763MOL0     H 2950   5.005   7.910   2.999  1.3078  0.0196  0.4095
  763MOL0     H 2951   4.962   7.755   3.053 -1.8712  2.0383 -0.4828
  763MOL0     H 2952   5.237   7.840   2.957 -1.9486  2.5041  0.2971
  763MOL0     H 2953   5.203   7.675   3.000 -4.9821 -1.7232  1.3444
  763MOL0     H 2954   5.132   7.764   3.233  0.3073  0.3824 -0.3184
  763MOL0     H 2955   5.307   7.765   3.173  0.9420  0.1869 -5.0111
  763MOL0     H 2956   5.355   8.043   3.051  3.5468  1.4263  3.7710
  763MOL0     H 2957   5.337   8.300   3.082 -0.3561 -1.3349  1.1024
  763MOL0     H 2958   5.166   8.338   3.054  0.2328 -1.0985 -0.0240
  763MOL0     H 2959   5.145   8.418   3.280 -0.7906  1.0790 -0.6779
  763MOL0     H 2960   5.299   8.357   3.329 -1.2291  0.6414  0.8672
  763MOL0     H 2961   5.238   8.571   3.129 -0.8049 -1.5404  0.7120
  763MOL0     H 2962   5.406   8.499   3.135  0.1724 -1.9893  0.0127
  763MOL0     H 2963   5.457   8.574   3.348 -0.3309 -2.7549  0.6328
  763MOL0     H 2964   5.290   8.592   3.402 -2.1221 -0.0266 -1.0809
  763MOL0     H 2965   5.081   8.603   3.336 -1.8244  0.2021  1.2832
  763MOL0     H 2966   4.867   8.701   3.323 -0.7596  0.7133 -2.0060
  763MOL0     H 2967   4.574   9.078   3.077  0.1445  0.1530 -1.1171
  763MOL0     H 2968   4.378   9.228   3.084 -0.8974 -0.8004  1.1199
  763MOL0     H 2969   4.304   9.446   3.496  0.3874 -2.0174 -1.2658
  763MOL0     H 2970   4.384   9.553   3.381  0.2808 -0.3567 -1.1223
  763MOL0     H 2971   4.145   9.641   3.430  2.1438  3.2545 -4.0094
  763MOL0     H 2972   4.137   9.576   3.273 -2.1135 -0.1773  0.7062
  763MOL0     H 2973   4.044   9.354   3.373 -1.4147  1.1139  0.5237
  763MOL0     H 2974   4.059   9.426   3.528  1.8122 -0.9961 -0.4695
  763MOL0     H 2975   3.913   9.527   3.284 -1.1060  0.5077 -0.2231
  763MOL0     H 2976   3.905   9.617   3.444 -0.6441 -0.0219  0.5953
  763MOL0     H 2977   3.794   9.457   3.562  1.7136 -1.5366 -0.0534
  763MOL0     H 2978   3.812   9.343   3.425  0.2401  0.6607 -0.1668
  763MOL0     H 2979   3.670   9.467   3.283 -0.5335 -0.9295  0.6057
  763MOL0     H 2980   3.570   9.445   3.428  0.1182  0.3961  0.4342
  763MOL0     H 2981   3.707   9.704   3.328 -2.8526  1.5155 -2.9218
  763MOL0     H 2982   3.632   9.683   3.492 -1.0328 -1.3932 -0.0113
  763MOL0     H 2983   3.469   9.624   3.263  0.6485  0.5149  0.1111
  763MOL0     H 2984   3.434   9.680   3.427  2.6280 -0.8575  1.6205
  763MOL0     H 2985   4.529   9.362   3.472  1.3942  3.2167 -1.7245
  763MOL0     H 2986   4.731   9.224   3.434  0.2695  1.2650 -0.4025
  763MOL0     H 2987   5.057   9.091   3.260 -0.5740 -0.3060  2.0179
  763MOL0     H 2988   5.271   8.974   3.235  1.1531 -1.2344  1.1698
  763MOL0     H 2989   5.220   8.052   2.058 -1.8572  0.7663 -1.6991
  763MOL0     H 2990   5.144   8.085   1.864  4.4213  0.6731  5.5624
  763MOL0     H 2991   4.616   8.122   1.604 -1.5354 -1.9731 -1.0393
  763MOL0     H 2992   4.571   8.215   1.394  2.4632  2.3303 -1.0362
  763MOL0     H 2993   4.722   8.005   1.040  0.8327 -0.7598  1.5177
  763MOL0     H 2994   4.838   8.145   1.047  0.2725 -2.1335  0.6146
  763MOL0     H 2995   4.568   8.144   0.909 -0.9891  2.0535 -0.8019
  763MOL0     H 2996   4.722   8.132   0.840 -3.2725 -2.2514 -0.0134
  763MOL0     H 2997   4.754   8.378   0.975 -0.8427  0.1995  0.3900
  763MOL0     H 2998   4.583   8.355   1.003  1.0144 -1.8547  1.2227
  763MOL0     H 2999   4.600   8.503   0.811  1.2362 -0.8591  0.2823
  763MOL0     H 3000   4.701   8.412   0.719 -2.5638  2.6834 -2.6666
  763MOL0     H 3001   4.327   8.229   0.637 -0.3397 -0.9973  2.7199
  763MOL0     H 3002   4.925   8.039   1.227 -0.7688 -2.8274  0.9595
  763MOL0     H 3003   5.046   7.878   1.512  2.1107 -2.0526 -2.1599
  763MOL0     H 3004   5.090   7.949   1.359  1.4040  2.4317  0.1745
  763MOL0     H 3005   5.102   8.038   1.519 -0.8935 -0.3567  0.6316
  764MOL0     O 3006   6.954   6.578   7.596 -0.4530 -0.9345  0.0533
  764MOL0     C 3007   6.861   6.628   7.643  1.1051 -0.3645 -0.1226
  764MOL0     O 3008   6.851   6.757   7.674  0.6519 -0.0084 -0.2333
  764MOL0     C 3009   6.956   6.847   7.653  0.1636  1.0377 -0.8851
  764MOL0     C 3010   6.997   6.869   7.524  0.5851 -0.4064  0.5024
  764MOL0     C 3011   7.083   6.968   7.497 -0.4914  0.0498  0.0092
  764MOL0     C 3012   7.146   7.050   7.596 -0.4972 -0.4521 -0.0485
  764MOL0     O 3013   7.234   7.153   7.558 -0.2503 -0.0834 -0.0265
  764MOL0     C 3014   7.304   7.230   7.660  0.2141 -1.4849  0.9952
  764MOL0     C 3015   7.234   7.366   7.702  0.5339  0.4885 -0.1785
  764MOL0     C 3016   7.330   7.490   7.697  0.1688 -0.9713  0.2793
  764MOL0     C 3017   7.279   7.628   7.749  0.2831  1.4022  0.1529
  764MOL0     C 3018   7.258   7.619   7.898  0.4447 -1.3244 -0.5516
  764MOL0     C 3019   7.238   7.764   7.965 -0.1634  0.5295  1.2462
  764MOL0     C 3020   7.222   7.762   8.118 -0.2668 -0.6490 -0.0450
  764MOL0     C 3021   7.362   7.763   8.188 -0.4040  0.2975 -0.1042
  764MOL0     N 3022   7.438   7.888   8.156 -0.1527 -0.1974 -0.3896
  764MOL0     C 3023   7.431   8.012   8.211 -0.5406  0.5112  0.5416
  764MOL0     C 3024   7.518   8.084   8.132  0.6649  0.7762  0.3211
  764MOL0     C 3025   7.554   8.236   8.135 -0.2166  0.1820 -0.1986
  764MOL0     C 3026   7.678   8.252   8.221 -0.8450 -0.3480 -0.6055
  764MOL0     C 3027   7.722   8.398   8.232 -0.9246 -0.1441  0.1222
  764MOL0     C 3028   7.857   8.393   8.303  0.4029 -0.4507 -0.5641
  764MOL0     O 3029   7.894   8.530   8.330  0.1140 -0.3376  0.7030
  764MOL0     C 3030   7.975   8.570   8.425 -0.2834  0.7198  0.6204
  764MOL0     C 3031   8.052   8.473   8.499  0.0461 -0.1863 -0.0137
  764MOL0     C 3032   8.161   8.518   8.568  0.1195  0.8202 -0.0407
  764MOL0     C 3033   8.189   8.653   8.584  0.6485 -0.4958  0.0263
  764MOL0     C 3034   8.309   8.690   8.660  0.0315 -1.4413 -0.3406
  764MOL0     O 3035   8.424   8.627   8.630  0.1832  0.7539 -0.3365
  764MOL0     C 3036   8.541   8.667   8.686  0.1698 -0.7451 -0.0452
  764MOL0     C 3037   8.620   8.587   8.762  0.5114 -0.5979  0.8307
  764MOL0     C 3038   8.729   8.640   8.825 -0.9650  0.0857  0.3006
  764MOL0     C 3039   8.768   8.773   8.812 -0.4105  0.6219 -0.3012
  764MOL0     O 3040   8.873   8.799   8.892 -0.7011 -0.7330 -0.7311
  764MOL0     C 3041   8.950   8.908   8.857 -1.0904 -0.3578  0.3293
  764MOL0     C 3042   9.062   8.925   8.961  0.2974 -0.7018 -0.4412
  764MOL0     C 3043   9.008   8.958   9.099 -0.2382 -0.1084  0.0260
  764MOL0     C 3044   9.120   8.991   9.204 -0.7416 -0.2740  0.5644
  764MOL0     C 3045   9.064   9.036   9.340 -0.2872  1.0770  0.8338
  764MOL0     C 3046   9.169   9.066   9.452 -0.0190 -0.1176  0.8526
  764MOL0     C 3047   9.204   8.945   9.532  0.2390  0.4897  0.7761
  764MOL0     C 3048   9.299   8.986   9.652  0.3751  0.1164  0.3559
  764MOL0    Cl 3049   9.434   9.077   9.588  0.2716  0.3038  0.0970
  764MOL0     C 3050   8.693   8.862   8.725 -0.0254 -0.8178  0.2253
  764MOL0     C 3051   8.579   8.799   8.660 -0.2253 -1.0067 -0.7711
  764MOL0     O 3052   8.298   8.794   8.728 -0.6857  0.0213 -0.3760
  764MOL0     C 3053   8.102   8.750   8.527  0.7001 -0.4842  1.1514
  764MOL0     C 3054   8.003   8.707   8.443 -0.7135  0.8342  0.5329
  764MOL0     N 3055   7.574   8.013   8.036 -0.5866 -0.5977 -0.7337
  764MOL0     N 3056   7.528   7.894   8.054 -0.4175  0.1788  0.5296
  764MOL0     C 3057   7.104   7.019   7.734 -0.2293  0.1322 -0.1413
  764MOL0     C 3058   7.006   6.928   7.759 -0.7875  0.8154 -0.5273
  764MOL0     C 3059   6.728   6.558   7.639  0.9114 -0.1448 -0.6289
  764MOL0     C 3060   6.620   6.618   7.704  1.1773 -0.4703 -0.1686
  764MOL0     C 3061   6.500   6.559   7.719 -0.3691  0.3975  0.3394
  764MOL0     C 3062   6.476   6.436   7.661 -0.7249  0.6941 -0.2703
  764MOL0     O 3063   6.354   6.375   7.667 -0.5373 -0.5794 -0.2109
  764MOL0     C 3064   6.362   6.248   7.733  0.1366 -0.2401 -0.8274
  764MOL0     C 3065   6.340   6.262   7.882  0.1987  1.0820  0.6121
  764MOL0     C 3066   6.197   6.279   7.937  0.7914 -0.7311 -0.4039
  764MOL0     C 3067   6.207   6.275   8.084 -0.3479 -0.2981  0.1193
  764MOL0     C 3068   6.176   6.150   8.146  0.4445 -0.3276 -0.7213
  764MOL0     C 3069   6.149   6.045   8.205  0.1705 -0.2633  0.3756
  764MOL0     C 3070   6.575   6.379   7.582  0.4816 -0.6434 -0.2094
  764MOL0     C 3071   6.700   6.445   7.569 -0.1195 -0.9116  0.1813
  764MOL0     C 3072   6.792   6.393   7.460 -0.2678 -0.0363 -0.2288
  764MOL0     H 3073   6.969   6.801   7.444  2.8494 -0.0575 -0.6629
  764MOL0     H 3074   7.122   6.972   7.396 -0.3173 -0.8866  0.0348
  764MOL0     H 3075   7.334   7.170   7.746  1.1420  1.1548  2.5927
  764MOL0     H 3076   7.397   7.255   7.608 -0.0468 -4.2518 -1.0811
  764MOL0     H 3077   7.192   7.343   7.800  0.0768 -0.1558 -0.5114
  764MOL0     H 3078   7.140   7.389   7.650 -2.1868  0.2451  4.1962
  764MOL0     H 3079   7.351   7.494   7.590 -0.7193  0.5160  0.1291
  764MOL0     H 3080   7.426   7.468   7.743  0.3138  0.6289  0.8023
  764MOL0     H 3081   7.353   7.705   7.729 -0.1603  2.9827  3.9129
  764MOL0     H 3082   7.183   7.645   7.698 -0.2737  0.6928  0.9316
  764MOL0     H 3083   7.171   7.562   7.931 -0.1876  0.6182  1.4148
  764MOL0     H 3084   7.346   7.579   7.947  0.1566 -0.1103  1.0417
  764MOL0     H 3085   7.317   7.831   7.928 -1.5446  0.9020 -1.2766
  764MOL0     H 3086   7.149   7.809   7.920  1.5401  1.2141 -1.7433
  764MOL0     H 3087   7.147   7.687   8.145 -1.9226  1.2437  0.9442
  764MOL0     H 3088   7.181   7.863   8.128  2.1365  0.5817 -1.6994
  764MOL0     H 3089   7.327   7.779   8.291  2.1950  0.4568  0.8461
  764MOL0     H 3090   7.423   7.675   8.168 -1.0070  0.0974 -1.1022
  764MOL0     H 3091   7.368   8.050   8.290 -1.8433  3.1311 -1.6134
  764MOL0     H 3092   7.572   8.266   8.031  0.9284 -0.9982 -0.3651
  764MOL0     H 3093   7.461   8.286   8.164 -0.4963 -0.5872  0.2738
  764MOL0     H 3094   7.656   8.202   8.317  0.3728 -2.8866 -1.5485
  764MOL0     H 3095   7.768   8.208   8.178 -0.8523 -1.0235  0.0309
  764MOL0     H 3096   7.640   8.455   8.275  0.8241  0.1766  3.3459
  764MOL0     H 3097   7.741   8.449   8.137  3.0414 -2.0353 -0.3116
  764MOL0     H 3098   7.928   8.336   8.242  1.5684 -1.5103  1.6467
  764MOL0     H 3099   7.855   8.327   8.391 -1.5182 -3.4862 -2.7060
  764MOL0     H 3100   8.047   8.367   8.475  3.8042 -0.3680 -0.5924
  764MOL0     H 3101   8.229   8.447   8.615  2.1506  2.4877 -0.3104
  764MOL0     H 3102   8.590   8.484   8.778  2.5442 -1.4060 -0.1219
  764MOL0     H 3103   8.778   8.572   8.894 -1.4979 -3.4523 -2.5616
  764MOL0     H 3104   8.993   8.890   8.758 -1.1342  0.8020  0.0858
  764MOL0     H 3105   8.902   9.006   8.863  0.4465  0.4355  0.2934
  764MOL0     H 3106   9.119   8.831   8.963 -0.2099 -1.0567  2.7607
  764MOL0     H 3107   9.123   9.007   8.923  0.0354 -1.7278 -3.3484
  764MOL0     H 3108   8.959   9.055   9.093  0.3690  0.2654  0.8687
  764MOL0     H 3109   8.935   8.882   9.130  1.2066 -1.2387  0.8155
  764MOL0     H 3110   9.197   9.062   9.171 -0.2215 -1.2718 -0.4281
  764MOL0     H 3111   9.171   8.895   9.202  2.6891  1.3974 -0.5385
  764MOL0     H 3112   8.998   8.952   9.362  1.4075 -0.9058 -1.1064
  764MOL0     H 3113   8.992   9.117   9.321 -2.8474 -1.8704 -4.2755
  764MOL0     H 3114   9.256   9.117   9.408  0.4275 -1.4740  0.1023
  764MOL0     H 3115   9.112   9.127   9.523 -0.3011 -2.4526  2.7623
  764MOL0     H 3116   9.256   8.867   9.475  1.1026  1.6677 -0.1025
  764MOL0     H 3117   9.117   8.895   9.573  0.8888 -0.8742  0.5512
  764MOL0     H 3118   9.249   9.043   9.730  0.0295 -0.9544  0.9399
  764MOL0     H 3119   9.342   8.895   9.696 -0.5742  0.4146  1.9525
  764MOL0     H 3120   8.707   8.968   8.712 -2.8147 -0.5211 -1.2415
  764MOL0     H 3121   8.520   8.863   8.596  0.3489  0.9798  0.5703
  764MOL0     H 3122   8.134   8.852   8.545  3.0395 -1.3410  2.2999
  764MOL0     H 3123   7.940   8.762   8.373 -0.1393 -0.1179 -0.7749
  764MOL0     H 3124   7.145   7.083   7.812  0.3869 -0.4412  0.0142
  764MOL0     H 3125   6.979   6.901   7.861  0.9396  0.7826 -0.0437
  764MOL0     H 3126   6.635   6.711   7.757  3.6841 -1.7434  1.6421
  764MOL0     H 3127   6.415   6.602   7.772 -1.4050 -3.7887  2.4669
  764MOL0     H 3128   6.451   6.187   7.714 -3.0294 -6.5544  1.3573
  764MOL0     H 3129   6.287   6.176   7.699  2.4099 -2.6234 -1.1305
  764MOL0     H 3130   6.415   6.339   7.902  2.0857 -0.2264 -1.0519
  764MOL0     H 3131   6.375   6.169   7.928 -2.9142 -0.4586  0.0811
  764MOL0     H 3132   6.138   6.192   7.905 -0.7204  0.5499 -1.2801
  764MOL0     H 3133   6.143   6.370   7.907 -1.3907 -2.5476 -2.3996
  764MOL0     H 3134   6.304   6.307   8.122 -0.3340 -2.1812  1.8932
  764MOL0     H 3135   6.135   6.342   8.131 -3.0194 -2.4569 -0.6072
  764MOL0     H 3136   6.136   5.954   8.260 -2.8223 -0.6387 -0.7738
  764MOL0     H 3137   6.548   6.290   7.526  1.3618 -0.9821 -0.0996
  764MOL0     H 3138   6.820   6.479   7.398  0.2696  2.6919  3.4882
  764MOL0     H 3139   6.888   6.355   7.497  1.0025  4.0803  1.2063
  764MOL0     H 3140   6.739   6.313   7.407  0.0287  1.0499 -2.3099
  765MOL0     O 3141   4.335   1.050   5.919 -0.0471  0.1819  0.2962
  765MOL0     C 3142   4.436   1.115   5.950  0.5800 -1.0241 -0.9278
  765MOL0     O 3143   4.562   1.072   5.918 -0.1068 -0.9233  0.2217
  765MOL0     C 3144   4.585   0.945   5.865 -0.0346  0.7346  0.2371
  765MOL0     C 3145   4.550   0.910   5.737 -0.3929  0.0441 -0.4325
  765MOL0     C 3146   4.573   0.785   5.684  1.0466 -0.4392  0.4804
  765MOL0     C 3147   4.628   0.692   5.766 -0.1580  0.5051  1.1625
  765MOL0     O 3148   4.662   0.563   5.727 -0.3212  0.3524 -0.1401
  765MOL0     C 3149   4.648   0.529   5.590 -0.5863  0.2367 -0.3808
  765MOL0     C 3150   4.735   0.406   5.552  0.3776 -0.4661  0.3631
  765MOL0     C 3151   4.884   0.420   5.588  0.3545 -1.0994 -1.1471
  765MOL0     C 3152   4.975   0.477   5.477  0.4893  0.2795 -1.1909
  765MOL0     C 3153   4.959   0.626   5.435 -1.3611 -0.6547  0.8507
  765MOL0     C 3154   5.050   0.723   5.507  0.5924  0.7546 -0.0818
  765MOL0     C 3155   5.032   0.731   5.653 -0.3460  1.1072 -0.4237
  765MOL0     C 3156   5.114   0.840   5.702 -0.5672  0.3416  0.3616
  765MOL0     N 3157   5.044   0.964   5.687 -0.0557 -0.3228  0.4557
  765MOL0     C 3158   4.954   1.023   5.783 -0.3265 -0.0932  0.6582
  765MOL0     C 3159   4.947   1.151   5.739  0.0656 -0.1584 -0.5808
  765MOL0     C 3160   4.875   1.263   5.804 -0.1467 -1.1478 -1.1964
  765MOL0     C 3161   4.875   1.264   5.958 -0.1036  0.1545 -0.4482
  765MOL0     C 3162   4.866   1.409   6.021  0.2457  0.3246 -0.1908
  765MOL0     C 3163   4.751   1.484   5.969  0.0797  0.3063 -0.8054
  765MOL0     O 3164   4.775   1.630   5.955 -0.3813  0.3506  0.4540
  765MOL0     C 3165   4.807   1.715   6.056 -0.6024  0.3580  0.3783
  765MOL0     C 3166   4.903   1.818   6.032  0.8032 -0.8209 -0.0317
  765MOL0     C 3167   4.926   1.917   6.141  0.3125 -0.0493  1.1858
  765MOL0     C 3168   4.857   1.906   6.259 -1.0362  0.0280 -0.6717
  765MOL0     C 3169   4.871   2.022   6.358  0.2069 -0.0425 -0.3530
  765MOL0     O 3170   4.953   2.120   6.312 -0.4017  0.2753  0.2515
  765MOL0     C 3171   4.981   2.231   6.385 -0.2347 -0.7614 -0.1706
  765MOL0     C 3172   4.972   2.241   6.525  0.7698 -0.6747  0.0802
  765MOL0     C 3173   5.013   2.361   6.592  0.1588  0.1368  0.0756
  765MOL0     C 3174   5.056   2.474   6.510 -0.3503  0.3389 -0.7993
  765MOL0     O 3175   5.095   2.593   6.567 -0.0302 -0.6080 -0.3594
  765MOL0     C 3176   5.142   2.586   6.703 -0.0833  0.5949 -1.0064
  765MOL0     C 3177   5.150   2.716   6.760 -0.9824  0.4536  0.2810
  765MOL0     C 3178   5.248   2.740   6.874  1.2708  0.3619 -0.3247
  765MOL0     C 3179   5.260   2.887   6.909  0.4552 -0.2627 -0.0240
  765MOL0     C 3180   5.350   2.901   7.033 -0.1254 -0.1476  0.5289
  765MOL0     C 3181   5.379   3.054   7.048 -1.1847  0.6927 -0.4309
  765MOL0     C 3182   5.423   3.087   7.186 -0.6463 -0.5890 -0.3357
  765MOL0     C 3183   5.573   3.071   7.207 -0.1216  0.5032  0.9622
  765MOL0    Cl 3184   5.602   3.154   7.360 -0.1415 -0.1468  0.0497
  765MOL0     C 3185   5.061   2.456   6.375 -0.1495 -0.7979  0.5075
  765MOL0     C 3186   5.027   2.338   6.311  0.1216 -0.9006  0.4575
  765MOL0     O 3187   4.781   2.034   6.445 -0.0378  0.3379 -0.1680
  765MOL0     C 3188   4.760   1.798   6.271 -0.5342 -0.4159 -0.2027
  765MOL0     C 3189   4.731   1.709   6.168 -0.0165  0.6066  0.1576
  765MOL0     N 3190   5.022   1.181   5.630  0.3576  0.3749 -0.5942
  765MOL0     N 3191   5.075   1.062   5.595  0.6011 -0.0517  0.3810
  765MOL0     C 3192   4.654   0.712   5.899  0.4363  0.1886  1.6663
  765MOL0     C 3193   4.630   0.844   5.943  0.1452 -0.5996  0.1405
  765MOL0     C 3194   4.411   1.266   5.958 -0.4068  0.6157 -0.5035
  765MOL0     C 3195   4.361   1.325   5.843 -1.0541 -0.5329  1.8164
  765MOL0     C 3196   4.325   1.461   5.839  1.3687 -0.2026  0.0577
  765MOL0     C 3197   4.346   1.538   5.943 -0.5832 -0.3370 -0.6720
  765MOL0     O 3198   4.299   1.670   5.925  0.0086  0.0376 -0.6996
  765MOL0     C 3199   4.401   1.770   5.910  0.4487 -0.1218  0.5573
  765MOL0     C 3200   4.347   1.913   5.919  0.1387 -0.5581 -0.1437
  765MOL0     C 3201   4.216   1.928   5.828  0.6180  0.5345  0.2495
  765MOL0     C 3202   4.176   2.080   5.810  0.9151  0.0678 -0.2177
  765MOL0     C 3203   4.271   2.146   5.719  0.5458 -0.0367  0.0295
  765MOL0     C 3204   4.357   2.199   5.660 -0.8404  0.7349 -0.3541
  765MOL0     C 3205   4.399   1.487   6.071  0.4149 -0.0211  0.2077
  765MOL0     C 3206   4.440   1.350   6.074  0.2598 -0.0854  0.0339
  765MOL0     C 3207   4.520   1.304   6.190  0.1084  0.4389  1.0486
  765MOL0     H 3208   4.501   0.982   5.672  0.0845 -3.0952 -4.6698
  765MOL0     H 3209   4.537   0.756   5.586 -0.3935  0.4458  0.7216
  765MOL0     H 3210   4.546   0.500   5.566 -1.1990  1.5106  0.6166
  765MOL0     H 3211   4.682   0.611   5.526  0.1166  0.5637  0.3981
  765MOL0     H 3212   4.723   0.404   5.443 -1.1960 -0.5978  0.5184
  765MOL0     H 3213   4.703   0.309   5.593 -1.5673 -0.1186 -0.2580
  765MOL0     H 3214   4.928   0.326   5.622  0.6219 -1.0874 -1.4590
  765MOL0     H 3215   4.884   0.490   5.672 -0.3881 -2.5209  0.0920
  765MOL0     H 3216   5.076   0.456   5.513 -0.9556 -2.0277  2.0233
  765MOL0     H 3217   4.972   0.406   5.393 -2.0366 -1.4667  0.2495
  765MOL0     H 3218   4.975   0.630   5.327 -1.5746 -0.6945  0.8180
  765MOL0     H 3219   4.860   0.670   5.444 -1.5857 -1.0132  0.2026
  765MOL0     H 3220   5.155   0.698   5.486  0.4014 -1.3617  1.2035
  765MOL0     H 3221   5.019   0.817   5.459 -2.5669 -0.7519 -1.2315
  765MOL0     H 3222   5.054   0.641   5.711  0.6409  1.7035  0.1497
  765MOL0     H 3223   4.925   0.742   5.674 -0.5401  0.6150 -1.1294
  765MOL0     H 3224   5.144   0.821   5.805 -0.0530  1.3597  0.4182
  765MOL0     H 3225   5.205   0.842   5.642  1.2811 -0.8406  2.9228
  765MOL0     H 3226   4.914   0.983   5.876  0.7661  1.9096  2.0946
  765MOL0     H 3227   4.928   1.355   5.777  1.6369 -2.0840 -1.0679
  765MOL0     H 3228   4.775   1.275   5.763 -0.4233 -0.1853 -0.2942
  765MOL0     H 3229   4.792   1.201   5.987  0.4164  0.0099  0.7672
  765MOL0     H 3230   4.964   1.220   6.004  0.5684  0.0585 -1.7835
  765MOL0     H 3231   4.958   1.460   5.991  0.2370 -0.1835 -1.0896
  765MOL0     H 3232   4.852   1.397   6.129  0.8208  0.0810 -0.1361
  765MOL0     H 3233   4.675   1.471   6.047 -0.2483 -1.8501 -1.4104
  765MOL0     H 3234   4.717   1.456   5.869 -1.7179  2.7598 -0.9875
  765MOL0     H 3235   4.953   1.819   5.936  0.0314  0.1116 -0.4398
  765MOL0     H 3236   4.983   2.005   6.116 -0.5576  0.6616  1.6408
  765MOL0     H 3237   4.930   2.168   6.593 -1.9688  1.5597  0.9952
  765MOL0     H 3238   5.002   2.352   6.700  1.0625  4.3195  0.6623
  765MOL0     H 3239   5.074   2.522   6.760  1.5947 -1.7582 -1.4653
  765MOL0     H 3240   5.238   2.533   6.706 -0.9193 -0.9762 -0.7600
  765MOL0     H 3241   5.158   2.789   6.679  2.8338  1.5311  1.4293
  765MOL0     H 3242   5.052   2.733   6.807 -0.5102  1.9918  0.7795
  765MOL0     H 3243   5.210   2.688   6.963 -0.2204  2.0060  0.0422
  765MOL0     H 3244   5.351   2.704   6.867  0.9178 -0.8010  0.1573
  765MOL0     H 3245   5.168   2.944   6.922 -0.1354 -0.3735 -2.8740
  765MOL0     H 3246   5.314   2.932   6.825  2.6645 -1.2924  0.7617
  765MOL0     H 3247   5.442   2.841   7.029  0.9984  1.5289  0.1278
  765MOL0     H 3248   5.303   2.863   7.124  0.2457  0.4355  0.9691
  765MOL0     H 3249   5.449   3.087   6.971  0.0446 -2.7988 -1.0223
  765MOL0     H 3250   5.289   3.114   7.034 -2.2125 -0.8119 -0.5297
  765MOL0     H 3251   5.382   3.009   7.251  0.2597 -0.0385  0.9413
  765MOL0     H 3252   5.388   3.189   7.205 -5.0047 -1.6333 -1.6139
  765MOL0     H 3253   5.609   2.968   7.197  0.6298  0.9679 -2.0998
  765MOL0     H 3254   5.635   3.121   7.133 -0.2151  2.6184  2.2328
  765MOL0     H 3255   5.105   2.535   6.314  1.0508 -3.1961 -1.9399
  765MOL0     H 3256   5.054   2.336   6.207 -1.2175 -1.1392  0.0888
  765MOL0     H 3257   4.690   1.794   6.354 -1.2706  2.6330 -0.5627
  765MOL0     H 3258   4.654   1.633   6.175  1.1660 -0.7830 -1.1257
  765MOL0     H 3259   4.678   0.627   5.962 -2.2530 -1.3281  0.7944
  765MOL0     H 3260   4.640   0.867   6.049  0.5901 -0.1410  0.0019
  765MOL0     H 3261   4.334   1.268   5.755 -0.4086 -1.5866  2.2819
  765MOL0     H 3262   4.296   1.504   5.744  2.5613  0.8922  0.1571
  765MOL0     H 3263   4.448   1.763   5.812  0.5054 -0.7409  0.6256
  765MOL0     H 3264   4.472   1.755   5.992  1.4178  2.8083  0.3591
  765MOL0     H 3265   4.429   1.976   5.884 -0.4378 -0.5864 -1.5852
  765MOL0     H 3266   4.314   1.940   6.020  0.0377 -2.5243  0.3951
  765MOL0     H 3267   4.133   1.875   5.875 -0.2941  1.0782 -0.6913
  765MOL0     H 3268   4.242   1.890   5.729  1.8073  1.6016  0.1218
  765MOL0     H 3269   4.080   2.073   5.758  0.6829  0.6041  0.1356
  765MOL0     H 3270   4.150   2.130   5.903 -1.6931  0.3926 -1.0391
  765MOL0     H 3271   4.429   2.247   5.598 -1.3409  3.5220  1.0886
  765MOL0     H 3272   4.416   1.562   6.147  1.7427  0.8478 -0.8997
  765MOL0     H 3273   4.566   1.204   6.186 -0.0663  0.3993 -2.8132
  765MOL0     H 3274   4.599   1.379   6.205  1.4197 -0.4911 -0.7822
  765MOL0     H 3275   4.456   1.309   6.279  0.7976 -0.1212  1.5929
  766MOL0     O 3276   6.254   8.464  10.536  0.6567 -0.3592  0.3124
  766MOL0     C 3277   6.336   8.532  10.468  0.5501  1.0149  0.7700
  766MOL0     O 3278   6.425   8.481  10.380  0.3064 -1.0611  0.6048
  766MOL0     C 3279   6.418   8.349  10.343  0.3878 -0.0831  0.3468
  766MOL0     C 3280   6.449   8.243  10.422 -0.5315  0.2547  0.7158
  766MOL0     C 3281   6.454   8.112  10.365  0.5353 -0.3150  1.1677
  766MOL0     C 3282   6.438   8.089  10.227  1.0344  0.6777  0.4013
  766MOL0     O 3283   6.447   7.964  10.159  0.0364 -0.3938  0.7407
  766MOL0     C 3284   6.376   7.845  10.220 -0.6119 -0.5677 -0.6952
  766MOL0     C 3285   6.364   7.737  10.121 -0.2070 -0.1157  0.3186
  766MOL0     C 3286   6.365   7.598  10.172  0.6349  0.1735  0.0095
  766MOL0     C 3287   6.230   7.549  10.218  0.4408  0.7608 -0.0278
  766MOL0     C 3288   6.201   7.575  10.369 -0.0492 -0.3147  0.0658
  766MOL0     C 3289   6.127   7.461  10.434  0.0794  0.0513  0.0263
  766MOL0     C 3290   5.998   7.437  10.371 -0.2424  0.5014 -1.1828
  766MOL0     C 3291   5.902   7.347  10.450  0.1400  0.0926  0.3226
  766MOL0     N 3292   5.948   7.217  10.419 -0.3564  0.5107 -0.4166
  766MOL0     C 3293   5.886   7.127  10.332 -0.1953 -0.3892  0.1683
  766MOL0     C 3294   5.945   7.010  10.351 -0.2852  0.8279  1.2909
  766MOL0     C 3295   5.897   6.890  10.276  0.1860 -0.4988 -0.7651
  766MOL0     C 3296   5.936   6.879  10.128 -0.2996  0.1985  0.8542
  766MOL0     C 3297   6.077   6.813  10.129  0.7396  0.0537 -0.4173
  766MOL0     C 3298   6.139   6.805   9.993  0.2706  0.3593  0.1150
  766MOL0     O 3299   6.072   6.727   9.894 -0.1202 -0.1875  0.1597
  766MOL0     C 3300   6.142   6.683   9.784  0.1638  0.3025 -0.5683
  766MOL0     C 3301   6.262   6.719   9.726 -0.0372 -0.3996 -0.0507
  766MOL0     C 3302   6.302   6.664   9.612  0.3980 -0.6148 -1.1621
  766MOL0     C 3303   6.220   6.575   9.540 -0.1255 -0.4379 -0.7114
  766MOL0     C 3304   6.256   6.533   9.400 -0.6294 -0.6141 -0.0858
  766MOL0     O 3305   6.182   6.438   9.327  0.0922 -0.9790  0.4342
  766MOL0     C 3306   6.225   6.418   9.198 -0.1210  0.6857 -1.2404
  766MOL0     C 3307   6.311   6.313   9.164  1.4600 -0.3930 -0.2091
  766MOL0     C 3308   6.344   6.285   9.031  0.1705 -0.0746 -0.5109
  766MOL0     C 3309   6.280   6.358   8.926  0.2295 -0.3309 -0.0572
  766MOL0     O 3310   6.296   6.349   8.796  0.2893 -0.2635  0.1782
  766MOL0     C 3311   6.185   6.272   8.744  0.6205  0.0992  0.2784
  766MOL0     C 3312   6.195   6.233   8.595 -0.4084  0.0317 -0.9329
  766MOL0     C 3313   6.308   6.137   8.543 -1.2004  0.4249 -0.6044
  766MOL0     C 3314   6.294   5.986   8.574  0.2032 -0.1631  0.2448
  766MOL0     C 3315   6.411   5.904   8.525 -0.4272  0.1050 -0.3640
  766MOL0     C 3316   6.383   5.753   8.565  0.2077  0.4605  0.2381
  766MOL0     C 3317   6.471   5.642   8.509 -1.2536 -0.3594 -0.1896
  766MOL0     C 3318   6.436   5.500   8.555  1.4469 -0.2965 -0.1422
  766MOL0    Cl 3319   6.265   5.457   8.522  0.4488  0.4487 -0.0182
  766MOL0     C 3320   6.200   6.464   8.961 -0.3701  0.6458 -0.3815
  766MOL0     C 3321   6.160   6.492   9.094  0.2667  0.2731  0.3268
  766MOL0     O 3322   6.357   6.584   9.361  0.1569  0.2422  0.3032
  766MOL0     C 3323   6.103   6.534   9.599  0.8576  0.6682 -0.5258
  766MOL0     C 3324   6.059   6.591   9.721 -0.2800 -0.1234  0.1308
  766MOL0     N 3325   6.028   7.027  10.462 -0.2436  0.5923 -0.3859
  766MOL0     N 3326   6.023   7.145  10.509  1.1943  0.3300  0.5974
  766MOL0     C 3327   6.402   8.200  10.151 -1.0628  0.3922 -0.6219
  766MOL0     C 3328   6.392   8.327  10.211 -0.3228  0.9983  0.2976
  766MOL0     C 3329   6.327   8.686  10.478 -0.3839 -0.3079  0.5229
  766MOL0     C 3330   6.413   8.754  10.386  0.3180  0.5808 -1.3516
  766MOL0     C 3331   6.419   8.895  10.403  0.7200  0.5455  0.9803
  766MOL0     C 3332   6.348   8.967  10.502  0.7931  0.1669 -0.3825
  766MOL0     O 3333   6.357   9.100  10.528  0.1420  0.2108  0.0826
  766MOL0     C 3334   6.442   9.184  10.445 -0.6736 -0.3468  0.0896
  766MOL0     C 3335   6.478   9.316  10.525  0.3001 -0.0736  0.0499
  766MOL0     C 3336   6.585   9.401  10.445  0.2329  0.1639  0.1866
  766MOL0     C 3337   6.719   9.366  10.494 -0.7348 -0.4384  0.4334
  766MOL0     C 3338   6.755   9.425  10.623 -0.7957  0.5726 -0.3744
  766MOL0     C 3339   6.795   9.472  10.728  0.2854 -0.4328 -0.0246
  766MOL0     C 3340   6.257   8.894  10.578  0.2977 -0.9956 -1.0221
  766MOL0     C 3341   6.235   8.759  10.563  0.0727 -0.0494 -0.2504
  766MOL0     C 3342   6.142   8.700  10.654 -0.3569 -0.0097 -0.0423
  766MOL0     H 3343   6.459   8.270  10.527  2.4027  2.2496  0.0414
  766MOL0     H 3344   6.489   8.028  10.424  1.0130 -0.3500  0.8463
  766MOL0     H 3345   6.438   7.826  10.308  0.9305 -0.2714 -1.6868
  766MOL0     H 3346   6.278   7.875  10.260 -0.6203 -1.3617 -0.0999
  766MOL0     H 3347   6.443   7.753  10.046 -0.6210  2.0572  0.2944
  766MOL0     H 3348   6.278   7.765  10.060  0.3692  0.6777 -0.1404
  766MOL0     H 3349   6.441   7.599  10.251  1.7448 -0.9808 -1.0003
  766MOL0     H 3350   6.391   7.538  10.084 -0.5738  0.2147 -0.3933
  766MOL0     H 3351   6.150   7.592  10.157 -0.5283  0.6446  1.1345
  766MOL0     H 3352   6.216   7.441  10.208 -0.8612  0.5648  2.8203
  766MOL0     H 3353   6.290   7.594  10.430 -0.6732  1.4891  0.4600
  766MOL0     H 3354   6.149   7.670  10.378  3.4441  1.8750 -0.7467
  766MOL0     H 3355   6.187   7.370  10.424  0.4258  0.3488 -0.6695
  766MOL0     H 3356   6.114   7.493  10.538  1.3962  1.1341 -0.1122
  766MOL0     H 3357   6.010   7.391  10.273 -1.3079 -1.3083 -0.5174
  766MOL0     H 3358   5.948   7.532  10.354 -2.5914 -0.3684  0.3134
  766MOL0     H 3359   5.927   7.356  10.556  1.2091 -1.5579  0.2488
  766MOL0     H 3360   5.796   7.356  10.425  0.5950  0.6490 -1.5531
  766MOL0     H 3361   5.795   7.137  10.274 -1.1812 -2.9832  1.1441
  766MOL0     H 3362   5.930   6.801  10.331  0.2931  0.9293  1.6482
  766MOL0     H 3363   5.788   6.893  10.279  0.1683 -1.4400  1.1981
  766MOL0     H 3364   5.860   6.823  10.073  0.8814  1.2268 -2.0353
  766MOL0     H 3365   5.947   6.967  10.064  2.5516 -0.8182 -0.2205
  766MOL0     H 3366   6.078   6.724  10.192  0.3623  1.9041  2.3945
  766MOL0     H 3367   6.137   6.884  10.187 -0.2023  0.1612  0.4563
  766MOL0     H 3368   6.242   6.771  10.010  0.4450  0.3935 -0.8416
  766MOL0     H 3369   6.148   6.909   9.960 -0.9416  0.2376 -0.6460
  766MOL0     H 3370   6.318   6.786   9.790 -0.9279  0.0643  0.2645
  766MOL0     H 3371   6.394   6.704   9.570 -0.3346  0.7426 -1.5392
  766MOL0     H 3372   6.364   6.249   9.234  1.1174 -0.9724 -0.4739
  766MOL0     H 3373   6.395   6.195   8.998  0.5009  0.6476 -2.0787
  766MOL0     H 3374   6.180   6.178   8.800 -0.0211 -0.2727 -0.4020
  766MOL0     H 3375   6.093   6.330   8.758 -0.8738 -2.7307  3.8280
  766MOL0     H 3376   6.101   6.181   8.575 -0.5626  0.1892 -0.6298
  766MOL0     H 3377   6.198   6.327   8.539 -0.6600  0.2679 -0.5561
  766MOL0     H 3378   6.327   6.148   8.435  2.5007 -2.7382 -0.4913
  766MOL0     H 3379   6.401   6.176   8.584 -1.9605 -0.0783  1.7065
  766MOL0     H 3380   6.209   5.949   8.518  0.8035 -0.5466 -0.4243
  766MOL0     H 3381   6.292   5.952   8.678  5.0982  1.6430  1.2467
  766MOL0     H 3382   6.507   5.926   8.572  1.6973 -1.9599 -3.3943
  766MOL0     H 3383   6.417   5.896   8.416 -1.9830 -2.0039 -0.3630
  766MOL0     H 3384   6.372   5.748   8.674 -1.5833  0.4312  0.0806
  766MOL0     H 3385   6.286   5.724   8.523  0.5550 -3.8681  1.9401
  766MOL0     H 3386   6.575   5.657   8.539 -0.9050 -1.8505 -0.5595
  766MOL0     H 3387   6.478   5.644   8.399  1.2749  0.4384 -0.0788
  766MOL0     H 3388   6.502   5.425   8.511 -0.6514 -2.8329  0.7429
  766MOL0     H 3389   6.459   5.487   8.661  2.4226  0.3280 -0.2686
  766MOL0     H 3390   6.170   6.532   8.882  0.9275 -2.9388 -4.3075
  766MOL0     H 3391   6.105   6.579   9.130  3.3645  1.2186  3.2535
  766MOL0     H 3392   6.035   6.464   9.552  0.4260 -1.8693  3.4526
  766MOL0     H 3393   5.957   6.572   9.753 -0.2105 -5.9309 -1.9873
  766MOL0     H 3394   6.383   8.181  10.046 -2.8609  1.8857 -0.5963
  766MOL0     H 3395   6.370   8.415  10.152  0.7453  1.2976  0.3218
  766MOL0     H 3396   6.476   8.700  10.316  1.8236  0.5767 -0.0331
  766MOL0     H 3397   6.479   8.943  10.326 -1.7783  0.5596 -1.0863
  766MOL0     H 3398   6.391   9.201  10.350 -0.1378  0.2025 -0.1048
  766MOL0     H 3399   6.538   9.135  10.432 -0.1309  0.9639 -1.0620
  766MOL0     H 3400   6.528   9.295  10.620  0.7660  0.0168 -0.1713
  766MOL0     H 3401   6.384   9.367  10.546 -0.3714 -1.4724  0.5499
  766MOL0     H 3402   6.552   9.503  10.465 -4.2066 -1.1493  0.6717
  766MOL0     H 3403   6.571   9.391  10.337 -0.1228  1.4839  0.0947
  766MOL0     H 3404   6.732   9.258  10.500  1.6168 -0.2629 -0.4439
  766MOL0     H 3405   6.785   9.403  10.415 -2.7004  0.2309 -0.9903
  766MOL0     H 3406   6.829   9.527  10.814 -0.6994  2.3062 -1.2906
  766MOL0     H 3407   6.198   8.959  10.642  1.9624  0.0224 -0.4466
  766MOL0     H 3408   6.066   8.775  10.677  0.9365  1.6864 -0.9998
  766MOL0     H 3409   6.084   8.626  10.598 -3.1196  1.9809 -0.0184
  766MOL0     H 3410   6.180   8.670  10.753 -1.7056  1.6673  1.0291
  767MOL0     O 3411   3.879   7.902   0.173 -0.6555 -0.2665  0.9999
  767MOL0     C 3412   3.859   7.982   0.078  1.2502 -0.3358  1.0731
  767MOL0     O 3413   3.794   7.949  -0.038  0.2347 -0.3055 -0.4860
  767MOL0     C 3414   3.727   7.822  -0.045 -0.4327 -0.9591  0.2571
  767MOL0     C 3415   3.622   7.801   0.043  0.1574 -0.4919 -0.0079
  767MOL0     C 3416   3.548   7.685   0.032  0.0175 -0.7975  0.3218
  767MOL0     C 3417   3.577   7.591  -0.064 -0.2622  0.6443  0.3795
  767MOL0     O 3418   3.505   7.486  -0.090  0.4560  0.1896  0.2724
  767MOL0     C 3419   3.421   7.424   0.014  0.2547 -0.3146 -0.3429
  767MOL0     C 3420   3.359   7.294  -0.033 -0.1198 -0.1857 -0.2218
  767MOL0     C 3421   3.246   7.247   0.055  0.6261  0.4238  0.1696
  767MOL0     C 3422   3.172   7.122   0.023 -0.7036  0.7357  0.0368
  767MOL0     C 3423   3.262   6.998   0.021 -0.3277 -0.1057 -0.5506
  767MOL0     C 3424   3.307   6.937   0.158  0.3528  0.2152 -1.0482
  767MOL0     C 3425   3.408   6.823   0.125  0.9027  0.9946 -0.0688
  767MOL0     C 3426   3.441   6.752   0.260  0.4209  0.6722  0.0082
  767MOL0     N 3427   3.339   6.672   0.330  0.8286 -1.4864  0.0992
  767MOL0     C 3428   3.267   6.570   0.277 -0.3262 -0.1294 -0.3832
  767MOL0     C 3429   3.167   6.545   0.363  0.7428 -0.0500  0.2307
  767MOL0     C 3430   3.065   6.430   0.356  0.1379  0.4999 -0.0480
  767MOL0     C 3431   2.933   6.470   0.292 -0.0196 -0.2644 -1.0421
  767MOL0     C 3432   2.852   6.575   0.367 -0.3356 -0.6548  0.1655
  767MOL0     C 3433   2.715   6.607   0.300  0.5046  0.2149  0.0187
  767MOL0     O 3434   2.653   6.723   0.360 -0.1541 -0.5340  0.0692
  767MOL0     C 3435   2.517   6.721   0.374  0.5557  0.3764  0.3988
  767MOL0     C 3436   2.460   6.805   0.471 -0.5624 -0.4941  0.7021
  767MOL0     C 3437   2.320   6.816   0.470 -0.1031  0.7132  0.0563
  767MOL0     C 3438   2.244   6.762   0.369 -0.5942  0.8993  0.3299
  767MOL0     C 3439   2.096   6.786   0.359  0.1090 -0.6268  0.7368
  767MOL0     O 3440   2.024   6.714   0.274 -0.7571  0.3293 -0.3556
  767MOL0     C 3441   1.897   6.732   0.234  0.4309 -0.4121  0.4066
  767MOL0     C 3442   1.867   6.672   0.118 -0.0328  0.0972  0.5693
  767MOL0     C 3443   1.748   6.694   0.048  0.1027  0.9449 -0.5344
  767MOL0     C 3444   1.655   6.781   0.109 -0.4675 -0.5072  0.0722
  767MOL0     O 3445   1.533   6.813   0.057 -0.6657  0.3231  0.0150
  767MOL0     C 3446   1.483   6.741  -0.051 -0.2721 -0.8810  0.5274
  767MOL0     C 3447   1.333   6.745  -0.070 -0.0736 -0.4370  0.7950
  767MOL0     C 3448   1.248   6.713   0.060 -0.2825  0.4687  0.5652
  767MOL0     C 3449   1.136   6.607   0.026 -0.5082  0.0183 -0.1477
  767MOL0     C 3450   1.021   6.670  -0.059  0.0377  0.3462  0.5451
  767MOL0     C 3451   0.916   6.566  -0.096  0.1267  0.1713  0.0716
  767MOL0     C 3452   0.836   6.611  -0.224  0.2173 -1.5031 -0.2804
  767MOL0     C 3453   0.740   6.502  -0.265  0.1810  0.4852  0.2087
  767MOL0    Cl 3454   0.663   6.534  -0.416 -0.2292 -0.4535 -0.2217
  767MOL0     C 3455   1.694   6.856   0.223 -0.1238 -0.2665  0.5661
  767MOL0     C 3456   1.813   6.819   0.293  0.9716 -1.0499  0.6326
  767MOL0     O 3457   2.057   6.873   0.443 -0.4532  0.0625  0.2575
  767MOL0     C 3458   2.304   6.683   0.270  0.7592  0.6888  0.1805
  767MOL0     C 3459   2.440   6.653   0.280  0.9684 -0.4411  0.0564
  767MOL0     N 3460   3.200   6.620   0.477 -0.8392 -0.5974  0.4692
  767MOL0     N 3461   3.297   6.701   0.448  0.5914  0.2590  0.1329
  767MOL0     C 3462   3.695   7.615  -0.146  0.4791 -0.2014 -0.0904
  767MOL0     C 3463   3.765   7.728  -0.142  0.7774 -0.2746  0.2496
  767MOL0     C 3464   3.936   8.112   0.075 -0.0565 -0.1810 -0.1059
  767MOL0     C 3465   3.872   8.226   0.018 -0.3145  0.9053 -0.1026
  767MOL0     C 3466   3.938   8.348   0.002  0.6867  0.1115 -0.4280
  767MOL0     C 3467   4.063   8.370   0.061 -0.0008  0.1522  1.1738
  767MOL0     O 3468   4.113   8.496   0.062 -0.5583 -0.2420 -0.2375
  767MOL0     C 3469   4.249   8.517   0.104 -0.8713 -0.4898 -0.9123
  767MOL0     C 3470   4.273   8.603   0.227  0.8292  0.7271  0.2445
  767MOL0     C 3471   4.259   8.516   0.359 -0.4666  0.0375  0.6457
  767MOL0     C 3472   4.317   8.582   0.482  0.0597 -0.0006  0.7536
  767MOL0     C 3473   4.462   8.604   0.452 -0.3286 -0.7041 -0.7318
  767MOL0     C 3474   4.573   8.621   0.418 -0.3906 -0.2988 -0.7030
  767MOL0     C 3475   4.121   8.261   0.129 -0.4709  0.2060  0.0190
  767MOL0     C 3476   4.062   8.138   0.136  0.5021  0.3606  0.9098
  767MOL0     C 3477   4.146   8.033   0.202  0.5937  0.0079  0.8045
  767MOL0     H 3478   3.595   7.862   0.129  1.9451 -1.9621  1.6816
  767MOL0     H 3479   3.468   7.671   0.103 -3.9281  1.3708 -3.2329
  767MOL0     H 3480   3.477   7.403   0.105 -0.5834  1.4023  0.6159
  767MOL0     H 3481   3.343   7.491   0.050  0.0559 -1.1419  0.8126
  767MOL0     H 3482   3.443   7.226  -0.050 -0.3798  0.1360 -3.4794
  767MOL0     H 3483   3.321   7.318  -0.133 -2.6321 -1.1923  0.4072
  767MOL0     H 3484   3.180   7.332   0.074 -0.2779  0.3138 -2.1746
  767MOL0     H 3485   3.297   7.233   0.151 -2.8730  0.6752  2.2123
  767MOL0     H 3486   3.109   7.091   0.107  1.3559 -0.3935  1.2411
  767MOL0     H 3487   3.122   7.127  -0.074  1.0490  0.5661 -0.9129
  767MOL0     H 3488   3.207   6.921  -0.035 -0.1142 -0.5320 -0.1875
  767MOL0     H 3489   3.356   7.026  -0.027  1.4117  0.1712  2.7825
  767MOL0     H 3490   3.355   7.012   0.222  1.1062  0.3798 -1.7791
  767MOL0     H 3491   3.221   6.910   0.220  2.3008 -0.6250  1.4798
  767MOL0     H 3492   3.503   6.869   0.096 -0.0283  1.1524 -3.3012
  767MOL0     H 3493   3.372   6.765   0.040  2.8987  1.9262 -1.6198
  767MOL0     H 3494   3.517   6.677   0.233 -0.4303 -0.5591  0.9280
  767MOL0     H 3495   3.482   6.832   0.322 -0.1776  0.3231  0.8612
  767MOL0     H 3496   3.296   6.508   0.193  1.6408 -0.1452  0.2437
  767MOL0     H 3497   3.101   6.344   0.298 -0.4260 -0.2309  0.6587
  767MOL0     H 3498   3.045   6.400   0.460 -0.2056 -2.8008 -0.9355
  767MOL0     H 3499   2.939   6.496   0.186  0.0172 -0.2334 -1.0324
  767MOL0     H 3500   2.863   6.387   0.308 -0.6541  0.5223  0.4238
  767MOL0     H 3501   2.913   6.665   0.353 -1.7620  0.5859  1.5840
  767MOL0     H 3502   2.851   6.536   0.469  2.5316 -1.8405 -0.1877
  767MOL0     H 3503   2.659   6.514   0.314  3.0065 -1.6576 -1.6751
  767MOL0     H 3504   2.727   6.640   0.197  0.2541 -1.7814 -0.6840
  767MOL0     H 3505   2.522   6.874   0.528  1.7675 -0.8227 -1.2670
  767MOL0     H 3506   2.295   6.884   0.552  0.0643 -0.5940  1.2382
  767MOL0     H 3507   1.935   6.597   0.078  0.1048 -0.7010  2.2320
  767MOL0     H 3508   1.724   6.642  -0.044 -2.1518 -0.1642  0.5898
  767MOL0     H 3509   1.527   6.781  -0.143 -2.5305  0.6578  0.0256
  767MOL0     H 3510   1.499   6.632  -0.050  2.0837 -0.5871  0.3164
  767MOL0     H 3511   1.311   6.849  -0.094  1.6817 -0.3617 -0.6896
  767MOL0     H 3512   1.312   6.680  -0.156  0.4963 -1.4923  1.4221
  767MOL0     H 3513   1.311   6.673   0.140  0.5672 -2.1840 -1.3018
  767MOL0     H 3514   1.213   6.812   0.093  1.2421  1.9700 -1.9780
  767MOL0     H 3515   1.092   6.565   0.117  1.3054 -3.0485 -0.5302
  767MOL0     H 3516   1.180   6.524  -0.030  2.4936 -0.2657  2.3244
  767MOL0     H 3517   1.055   6.714  -0.153  1.3741  4.6451  2.7659
  767MOL0     H 3518   0.982   6.751   0.005  1.3572  0.5679  1.0943
  767MOL0     H 3519   0.963   6.469  -0.115 -2.1195 -1.6687  3.0797
  767MOL0     H 3520   0.845   6.554  -0.014  1.0597 -2.5300  0.6168
  767MOL0     H 3521   0.895   6.637  -0.312 -3.0917  0.1325 -2.2091
  767MOL0     H 3522   0.777   6.699  -0.197  1.2876 -1.3279  1.6962
  767MOL0     H 3523   0.790   6.406  -0.284 -2.0999 -0.3630 -2.1610
  767MOL0     H 3524   0.660   6.489  -0.192 -2.1901 -1.0835 -2.4923
  767MOL0     H 3525   1.634   6.940   0.256  0.6578  1.0099 -1.0968
  767MOL0     H 3526   1.828   6.876   0.384 -0.1161 -4.2151  2.9893
  767MOL0     H 3527   2.257   6.628   0.189  2.4784  0.5872 -0.8051
  767MOL0     H 3528   2.483   6.603   0.194  0.7634  0.8637 -0.8354
  767MOL0     H 3529   3.732   7.536  -0.210  1.2447  0.8685 -1.0194
  767MOL0     H 3530   3.860   7.727  -0.196  1.2745 -3.0508  1.0455
  767MOL0     H 3531   3.778   8.213  -0.034 -0.7798 -2.1015  1.2448
  767MOL0     H 3532   3.889   8.437  -0.037  1.1931  0.4882 -0.2132
  767MOL0     H 3533   4.290   8.577   0.022  3.1485 -0.8009  0.6432
  767MOL0     H 3534   4.318   8.433   0.100 -0.6070 -0.4466  1.4226
  767MOL0     H 3535   4.182   8.665   0.228  0.2515 -0.1109  0.8420
  767MOL0     H 3536   4.373   8.647   0.219  1.1291  0.2888  1.4263
  767MOL0     H 3537   4.311   8.422   0.338 -0.8153 -0.1524  0.6155
  767MOL0     H 3538   4.159   8.478   0.383 -1.1502  0.1899 -1.6743
  767MOL0     H 3539   4.279   8.681   0.506  2.8028  1.4168 -0.2871
  767MOL0     H 3540   4.299   8.512   0.564 -0.1360  1.4654  1.9878
  767MOL0     H 3541   4.669   8.639   0.375 -1.6136  2.2517 -2.6343
  767MOL0     H 3542   4.214   8.285   0.179 -0.5975  0.3148  0.2037
  767MOL0     H 3543   4.078   7.987   0.275 -1.3790  0.8690 -0.4246
  767MOL0     H 3544   4.180   7.966   0.123  2.2391 -0.1929  1.6471
  767MOL0     H 3545   4.230   8.076   0.258 -0.4828  2.2334  0.8242
  768MOL0     O 3546   1.889  10.319   4.667  0.0306 -0.3342  0.1538
  768MOL0     C 3547   2.007  10.350   4.642 -0.2467 -0.1427 -0.4102
  768MOL0     O 3548   2.110  10.359   4.728 -0.2187  0.5571  0.4149
  768MOL0     C 3549   2.074  10.332   4.858  0.3719  1.1538 -0.2593
  768MOL0     C 3550   2.107  10.209   4.916  0.3859  0.6471 -0.4450
  768MOL0     C 3551   2.068  10.183   5.051 -0.4044  0.1467  0.6212
  768MOL0     C 3552   1.988  10.264   5.122  0.6251 -0.2328 -0.1984
  768MOL0     O 3553   1.976  10.247   5.254  0.8769 -0.1753 -0.6361
  768MOL0     C 3554   1.966  10.110   5.311  1.1531  0.0481 -0.5517
  768MOL0     C 3555   1.880  10.095   5.440 -0.7640  0.2446  0.5992
  768MOL0     C 3556   1.959  10.165   5.557  0.1383 -0.0244 -0.4415
  768MOL0     C 3557   1.883  10.131   5.696 -0.0470 -0.5500  0.7049
  768MOL0     C 3558   1.981  10.148   5.812  0.5798 -0.4040 -0.5960
  768MOL0     C 3559   2.049  10.290   5.818  0.9855  0.2991  0.1529
  768MOL0     C 3560   1.946  10.405   5.850 -0.3953  0.6307 -0.3014
  768MOL0     C 3561   2.014  10.524   5.798  0.6696 -0.3421 -0.1685
  768MOL0     N 3562   1.912  10.624   5.791  0.9884  0.5887 -0.3434
  768MOL0     C 3563   1.798  10.644   5.864 -0.0699  0.6494 -0.9243
  768MOL0     C 3564   1.730  10.742   5.811  0.6180 -0.1906 -0.6931
  768MOL0     C 3565   1.591  10.777   5.847  0.3150 -0.1290 -0.0135
  768MOL0     C 3566   1.568  10.929   5.835 -0.4170 -0.2983 -0.2519
  768MOL0     C 3567   1.423  10.962   5.886  0.7430 -0.6149  0.6637
  768MOL0     C 3568   1.405  10.974   6.038 -0.7541 -0.2855 -0.3101
  768MOL0     O 3569   1.482  11.085   6.090 -0.5071 -0.2045 -0.9144
  768MOL0     C 3570   1.472  11.114   6.227 -0.0041 -0.5517  0.3109
  768MOL0     C 3571   1.381  11.051   6.313 -0.3544 -0.0386  0.9515
  768MOL0     C 3572   1.366  11.074   6.444 -1.3939 -0.0159 -0.7035
  768MOL0     C 3573   1.457  11.168   6.510  1.1208  0.2308 -0.2815
  768MOL0     C 3574   1.463  11.188   6.651 -1.3969  0.2072  0.5827
  768MOL0     O 3575   1.587  11.194   6.714  0.1728 -0.5854 -0.1346
  768MOL0     C 3576   1.613  11.259   6.835  0.2247  0.0252  0.1429
  768MOL0     C 3577   1.748  11.281   6.870 -0.3979 -0.5031  0.1035
  768MOL0     C 3578   1.777  11.331   6.990  0.1809  0.1992  0.2342
  768MOL0     C 3579   1.676  11.373   7.078  0.3898 -0.0064 -0.9174
  768MOL0     O 3580   1.711  11.386   7.214  0.6441 -0.4132  0.0637
  768MOL0     C 3581   1.842  11.433   7.250 -0.1465  0.5654  0.3863
  768MOL0     C 3582   1.833  11.478   7.390 -0.0624  0.9250 -0.0199
  768MOL0     C 3583   1.772  11.618   7.399  0.4543  0.4932  0.9407
  768MOL0     C 3584   1.700  11.646   7.530  0.0752  0.2265  0.0949
  768MOL0     C 3585   1.800  11.658   7.647 -0.5007  0.2171  0.6743
  768MOL0     C 3586   1.768  11.771   7.740  0.6282  0.2846 -0.5949
  768MOL0     C 3587   1.623  11.755   7.801 -0.1103 -0.9495 -0.2024
  768MOL0     C 3588   1.595  11.856   7.918 -0.0886 -0.6795  0.4610
  768MOL0    Cl 3589   1.725  11.873   8.044 -0.1537 -0.0665  0.3157
  768MOL0     C 3590   1.541  11.352   7.049 -1.0358 -0.5529 -0.0792
  768MOL0     C 3591   1.509  11.302   6.923 -0.0415 -0.5254 -0.3137
  768MOL0     O 3592   1.359  11.147   6.708  0.0950 -0.0518  0.2767
  768MOL0     C 3593   1.547  11.237   6.427  0.3615 -0.4263 -0.1861
  768MOL0     C 3594   1.551  11.208   6.286 -0.7375  0.2170  0.1306
  768MOL0     N 3595   1.798  10.790   5.704  1.2991  0.1373  0.3137
  768MOL0     N 3596   1.902  10.713   5.686 -0.4228  0.5253  0.3963
  768MOL0     C 3597   1.942  10.382   5.069 -0.8212  0.6120  0.1875
  768MOL0     C 3598   1.984  10.411   4.932 -0.5449  0.0848 -0.5631
  768MOL0     C 3599   2.046  10.362   4.501 -0.3372 -0.5782 -1.1491
  768MOL0     C 3600   2.159  10.277   4.468  0.1643  0.1334  0.2507
  768MOL0     C 3601   2.214  10.283   4.344 -0.5404 -0.2411  0.4990
  768MOL0     C 3602   2.179  10.376   4.248 -0.4945  0.9203  0.2143
  768MOL0     O 3603   2.257  10.377   4.130  0.0881  0.3579  0.3640
  768MOL0     C 3604   2.222  10.468   4.025 -0.3408 -0.0272  0.0565
  768MOL0     C 3605   2.334  10.466   3.919 -0.8629  0.0841 -0.1061
  768MOL0     C 3606   2.468  10.525   3.966 -0.3661 -0.7485  0.3139
  768MOL0     C 3607   2.551  10.452   4.076  0.3163  0.9884 -0.1694
  768MOL0     C 3608   2.563  10.308   4.033  0.2884 -0.1806 -0.5715
  768MOL0     C 3609   2.589  10.194   3.985 -0.6639 -0.2493  0.6033
  768MOL0     C 3610   2.067  10.456   4.280  0.3934 -1.0442 -0.9695
  768MOL0     C 3611   1.995  10.455   4.404 -0.5794 -0.0976 -0.0139
  768MOL0     C 3612   1.891  10.558   4.434 -0.2913  0.6412 -0.9053
  768MOL0     H 3613   2.181  10.146   4.868 -1.4706 -0.9107 -1.3736
  768MOL0     H 3614   2.099  10.090   5.098  1.6040 -0.0038 -0.8809
  768MOL0     H 3615   1.909  10.053   5.238 -1.0497  2.7993 -1.1643
  768MOL0     H 3616   2.065  10.070   5.333  1.6393  1.5937  0.2399
  768MOL0     H 3617   1.880   9.992   5.475 -4.5070  0.5156  1.7909
  768MOL0     H 3618   1.782  10.144   5.437  0.5462  3.1083 -1.7438
  768MOL0     H 3619   1.962  10.273   5.544 -0.1645 -0.1339 -1.4861
  768MOL0     H 3620   2.060  10.124   5.553 -1.1239 -3.3344 -2.0958
  768MOL0     H 3621   1.785  10.176   5.714 -1.0022 -2.1513 -0.1990
  768MOL0     H 3622   1.868  10.023   5.699 -1.5609 -0.3577  1.0046
  768MOL0     H 3623   1.938  10.122   5.909  0.6631 -1.2537 -0.7830
  768MOL0     H 3624   2.067  10.080   5.806  1.8656  0.6302  3.1020
  768MOL0     H 3625   2.123  10.281   5.897 -0.1597 -2.5952  1.0158
  768MOL0     H 3626   2.104  10.302   5.724  3.4719  2.7170  1.7591
  768MOL0     H 3627   1.921  10.413   5.956  0.0441 -0.1625 -0.1287
  768MOL0     H 3628   1.848  10.387   5.806 -0.7375 -1.6103  1.1912
  768MOL0     H 3629   2.089  10.558   5.871 -2.2477  0.8482  2.5535
  768MOL0     H 3630   2.056  10.510   5.698 -1.8699 -0.6762 -1.2587
  768MOL0     H 3631   1.759  10.601   5.956 -0.4241  1.4592 -0.6840
  768MOL0     H 3632   1.528  10.726   5.774  0.8374 -2.7692  1.2646
  768MOL0     H 3633   1.562  10.727   5.940 -2.3722 -0.8539 -1.1516
  768MOL0     H 3634   1.639  10.986   5.895 -0.9331 -0.7747  0.8481
  768MOL0     H 3635   1.587  10.967   5.735 -0.3758  3.9211  1.1643
  768MOL0     H 3636   1.370  10.868   5.870 -0.0528 -0.3285  1.5369
  768MOL0     H 3637   1.376  11.033   5.817  0.3417  0.7424  2.2799
  768MOL0     H 3638   1.458  10.891   6.084  2.5254  1.7220 -0.1380
  768MOL0     H 3639   1.299  10.993   6.059 -1.3496 -0.1131 -3.0654
  768MOL0     H 3640   1.316  10.972   6.277  3.0451 -2.1981 -1.1103
  768MOL0     H 3641   1.287  11.016   6.491 -1.7748  1.3555  0.4369
  768MOL0     H 3642   1.823  11.255   6.795 -1.0630 -0.3903 -0.6071
  768MOL0     H 3643   1.880  11.343   7.021  0.2467 -0.3046  0.2170
  768MOL0     H 3644   1.928  11.366   7.245 -0.1387  0.6553 -1.0437
  768MOL0     H 3645   1.853  11.526   7.193  0.0164  0.9245  0.9959
  768MOL0     H 3646   1.792  11.410   7.465  0.1754  1.5748  0.7188
  768MOL0     H 3647   1.932  11.490   7.436 -0.3774  2.0418  0.4105
  768MOL0     H 3648   1.848  11.695   7.382  1.4867 -1.0238 -2.2613
  768MOL0     H 3649   1.693  11.616   7.323  2.0507 -0.7903 -0.7858
  768MOL0     H 3650   1.635  11.561   7.555 -2.0969  2.4506  2.7275
  768MOL0     H 3651   1.633  11.732   7.523 -0.4608 -0.1544  0.4391
  768MOL0     H 3652   1.901  11.685   7.614 -0.4553 -1.1731 -0.3811
  768MOL0     H 3653   1.795  11.563   7.701 -1.0649  0.2839  0.7441
  768MOL0     H 3654   1.838  11.752   7.822 -0.5421 -2.6381 -0.1410
  768MOL0     H 3655   1.784  11.863   7.684  0.6320  0.0434 -0.9940
  768MOL0     H 3656   1.604  11.655   7.840  3.2044 -2.6377 -2.4943
  768MOL0     H 3657   1.558  11.773   7.715 -1.1719 -0.2357  0.7130
  768MOL0     H 3658   1.581  11.959   7.884 -2.9583 -0.4023  2.1373
  768MOL0     H 3659   1.503  11.828   7.970 -0.2267 -1.2859 -0.1122
  768MOL0     H 3660   1.471  11.374   7.128 -0.3773  0.4098  0.2545
  768MOL0     H 3661   1.402  11.292   6.910 -0.4890 -0.2136  2.5904
  768MOL0     H 3662   1.613  11.314   6.467  0.2184  0.6754 -1.9712
  768MOL0     H 3663   1.600  11.271   6.213  0.5284 -0.7357  0.1146
  768MOL0     H 3664   1.881  10.460   5.114 -0.6534  0.4004  0.7827
  768MOL0     H 3665   1.935  10.492   4.878 -1.6489  0.3756  0.8190
  768MOL0     H 3666   2.213  10.211   4.535  1.5285  0.6436 -0.3248
  768MOL0     H 3667   2.289  10.206   4.330 -0.3356 -0.1511  1.0809
  768MOL0     H 3668   2.210  10.574   4.051 -2.2241 -0.0372 -0.6132
  768MOL0     H 3669   2.127  10.441   3.978 -0.2190 -1.3758  0.5676
  768MOL0     H 3670   2.316  10.533   3.834  0.7335  1.2903  0.4469
  768MOL0     H 3671   2.337  10.365   3.877 -1.8593 -0.0108  0.0348
  768MOL0     H 3672   2.447  10.631   3.980  2.8451  0.0589 -0.1705
  768MOL0     H 3673   2.544  10.535   3.888  2.7784  2.4443  3.3963
  768MOL0     H 3674   2.649  10.500   4.075  0.0255  1.5829 -0.7899
  768MOL0     H 3675   2.508  10.466   4.176  1.4750  1.7721  0.2372
  768MOL0     H 3676   2.615  10.110   3.923  0.5563 -0.5314  1.4571
  768MOL0     H 3677   2.036  10.527   4.204 -0.1785 -1.8388 -1.4968
  768MOL0     H 3678   1.904  10.638   4.360 -0.5560  1.4666 -0.0803
  768MOL0     H 3679   1.789  10.520   4.434  0.2443 -1.0446  1.3442
  768MOL0     H 3680   1.910  10.599   4.534  2.3745  0.6766 -1.3366
  769MOL0     O 3681   8.858  11.298   8.873 -0.0853  0.0083  0.4849
  769MOL0     C 3682   8.946  11.229   8.840 -0.2641  0.5495 -0.5750
  769MOL0     O 3683   9.075  11.264   8.834 -1.2192 -0.3877 -0.6112
  769MOL0     C 3684   9.119  11.381   8.885 -0.9901  0.0778 -0.5670
  769MOL0     C 3685   9.153  11.404   9.026 -0.2681 -0.4102 -0.1536
  769MOL0     C 3686   9.220  11.517   9.069  0.3824  0.3552 -0.4539
  769MOL0     C 3687   9.273  11.601   8.968 -0.2752  0.3390  0.3001
  769MOL0     O 3688   9.342  11.717   8.997 -0.1028 -0.5203 -0.3703
  769MOL0     C 3689   9.326  11.838   8.924  0.1728  0.2225 -0.0698
  769MOL0     C 3690   9.389  11.963   8.996  0.0443 -0.6625 -0.9831
  769MOL0     C 3691   9.537  11.946   8.981  0.5503  0.1868 -0.5109
  769MOL0     C 3692   9.614  12.081   9.016 -1.1051 -0.7551  0.1482
  769MOL0     C 3693   9.767  12.069   9.019  0.1560 -0.0834  0.0031
  769MOL0     C 3694   9.827  12.018   9.152  0.0981 -0.4017  0.7597
  769MOL0     C 3695   9.978  11.981   9.122 -0.2233 -1.0301 -0.7903
  769MOL0     C 3696  10.046  11.957   9.255  0.1544 -0.2550  0.0853
  769MOL0     N 3697  10.068  11.811   9.278  0.3723 -0.9321 -0.1669
  769MOL0     C 3698  10.048  11.743   9.399  1.1214 -0.7049  0.4799
  769MOL0     C 3699  10.118  11.632   9.391 -0.4788 -0.5861  0.0466
  769MOL0     C 3700  10.126  11.525   9.501 -0.7857 -0.3530  1.1197
  769MOL0     C 3701  10.067  11.399   9.457  0.9883  0.8798 -0.1439
  769MOL0     C 3702  10.172  11.311   9.378 -0.0831 -0.1399  0.6930
  769MOL0     C 3703  10.112  11.197   9.313  0.2681 -0.5145 -0.3905
  769MOL0     O 3704  10.036  11.111   9.406 -0.1931  0.2414 -0.4956
  769MOL0     C 3705   9.901  11.128   9.404  0.4216  0.9171 -0.3399
  769MOL0     C 3706   9.844  11.048   9.500  0.3964  0.0547 -0.5502
  769MOL0     C 3707   9.698  11.061   9.530  0.1374  0.2930  0.3396
  769MOL0     C 3708   9.625  11.160   9.461  0.1333 -0.3208 -0.2883
  769MOL0     C 3709   9.484  11.182   9.491 -0.1814  1.0819 -0.5964
  769MOL0     O 3710   9.461  11.197   9.624 -0.1172 -0.5698  0.3979
  769MOL0     C 3711   9.337  11.230   9.666  0.5550 -0.0864 -0.2654
  769MOL0     C 3712   9.243  11.131   9.693  0.1184  0.2879 -1.0443
  769MOL0     C 3713   9.121  11.173   9.750 -0.2483 -0.7287  0.2487
  769MOL0     C 3714   9.097  11.305   9.792 -0.5574  0.6643  0.4577
  769MOL0     O 3715   8.979  11.340   9.854  0.3292 -0.0980 -0.5252
  769MOL0     C 3716   8.894  11.424   9.771 -0.6625 -0.1871 -0.5060
  769MOL0     C 3717   8.793  11.342   9.688  0.4871 -0.3787  0.0144
  769MOL0     C 3718   8.725  11.222   9.765  0.3224  0.6423  0.5383
  769MOL0     C 3719   8.643  11.124   9.678 -0.0607  0.3402  0.4182
  769MOL0     C 3720   8.589  10.994   9.761  0.3397 -0.5055 -0.9939
  769MOL0     C 3721   8.493  10.905   9.680 -0.7085 -0.8387 -0.2096
  769MOL0     C 3722   8.356  10.956   9.647  0.1748  0.1099  0.0563
  769MOL0     C 3723   8.256  10.952   9.765 -0.4477 -0.5192  0.1617
  769MOL0    Cl 3724   8.086  10.966   9.701  0.0606 -0.2689  0.0136
  769MOL0     C 3725   9.198  11.391   9.760  0.0930  0.1598 -0.3277
  769MOL0     C 3726   9.314  11.364   9.688 -0.1228  0.6810 -1.5193
  769MOL0     O 3727   9.414  11.212   9.404 -0.2637 -0.2122  0.1516
  769MOL0     C 3728   9.685  11.224   9.347  0.9663  0.0152 -0.1778
  769MOL0     C 3729   9.821  11.202   9.314  0.4708  0.2289 -0.0518
  769MOL0     N 3730  10.196  11.627   9.278 -0.3306  1.1685  0.4427
  769MOL0     N 3731  10.161  11.727   9.214 -0.1978 -0.6538 -0.6999
  769MOL0     C 3732   9.250  11.569   8.827 -0.7443  0.0271 -0.0649
  769MOL0     C 3733   9.171  11.461   8.791  0.0550  0.3647  0.2535
  769MOL0     C 3734   8.910  11.094   8.796  0.0916  0.0479 -0.2335
  769MOL0     C 3735   8.998  10.993   8.829 -0.1826 -0.4123 -0.3955
  769MOL0     C 3736   8.970  10.861   8.798 -0.3647 -0.2229  0.6883
  769MOL0     C 3737   8.846  10.832   8.739 -0.3291  0.5142 -0.0229
  769MOL0     O 3738   8.815  10.699   8.721 -0.3038  0.3445 -0.1126
  769MOL0     C 3739   8.904  10.609   8.647  0.2897 -0.3228  0.3708
  769MOL0     C 3740   8.834  10.576   8.510 -0.0307 -0.2225 -0.2031
  769MOL0     C 3741   8.718  10.476   8.534  0.5722  0.2912  0.1590
  769MOL0     C 3742   8.637  10.460   8.406  0.8252 -0.1718 -0.5516
  769MOL0     C 3743   8.542  10.569   8.402  0.0427 -1.0528 -0.2041
  769MOL0     C 3744   8.463  10.660   8.406 -0.1799  0.2882  0.0733
  769MOL0     C 3745   8.760  10.936   8.713  0.4371  0.0695  0.6132
  769MOL0     C 3746   8.791  11.066   8.730  0.6988  0.0786 -0.5626
  769MOL0     C 3747   8.692  11.165   8.665 -0.0906  0.0903 -0.1643
  769MOL0     H 3748   9.115  11.331   9.097 -3.0546 -0.0031 -1.0723
  769MOL0     H 3749   9.228  11.543   9.175 -0.6076  0.0399 -0.2906
  769MOL0     H 3750   9.376  11.825   8.828  1.0354  0.2013  0.3666
  769MOL0     H 3751   9.221  11.843   8.896 -1.0415 -1.7266  3.5550
  769MOL0     H 3752   9.357  11.962   9.100  3.9158  2.1418  0.4822
  769MOL0     H 3753   9.345  12.053   8.953 -1.5746 -1.5339 -1.2508
  769MOL0     H 3754   9.572  11.920   8.881  2.0100  1.8959 -0.4939
  769MOL0     H 3755   9.569  11.868   9.051 -0.6378  0.1652  0.0459
  769MOL0     H 3756   9.597  12.161   8.944  0.2390  2.6366  3.2384
  769MOL0     H 3757   9.575  12.116   9.113  1.5026  1.6339  0.4667
  769MOL0     H 3758   9.800  12.006   8.936 -0.1024  2.3892 -2.0761
  769MOL0     H 3759   9.811  12.167   9.000  0.6897 -0.2240  0.4729
  769MOL0     H 3760   9.813  12.104   9.219 -1.2556  0.1318 -0.1499
  769MOL0     H 3761   9.775  11.927   9.182 -1.2502  0.7636  2.1304
  769MOL0     H 3762  10.033  12.062   9.072 -2.9306  1.4594  0.0274
  769MOL0     H 3763   9.980  11.892   9.058 -1.9667 -1.0008 -0.9119
  769MOL0     H 3764  10.143  12.008   9.259  0.8088 -1.5017  2.4371
  769MOL0     H 3765   9.991  11.994   9.342  1.3273  1.8560 -0.0191
  769MOL0     H 3766   9.985  11.773   9.482  1.1311 -0.4583  0.3992
  769MOL0     H 3767  10.230  11.511   9.532  0.5747  1.6446 -2.0670
  769MOL0     H 3768  10.069  11.566   9.586 -1.3460  0.9954  0.1221
  769MOL0     H 3769  10.039  11.340   9.545 -1.9815  3.2960  0.7007
  769MOL0     H 3770   9.978  11.419   9.397 -1.1098 -2.7590  1.4324
  769MOL0     H 3771  10.257  11.285   9.442  1.2758  0.5045 -0.8017
  769MOL0     H 3772  10.213  11.360   9.290 -3.2790  1.6350  0.0629
  769MOL0     H 3773  10.196  11.142   9.270  0.4715 -1.6510  1.3529
  769MOL0     H 3774  10.056  11.219   9.222  1.0984 -2.5300 -1.4612
  769MOL0     H 3775   9.907  10.993   9.569 -0.0304  0.1555 -0.0722
  769MOL0     H 3776   9.640  11.004   9.602 -0.6292 -1.9286 -1.8777
  769MOL0     H 3777   9.266  11.026   9.678 -0.9194 -0.4567  1.9518
  769MOL0     H 3778   9.038  11.103   9.756 -1.9668  0.8218 -2.8561
  769MOL0     H 3779   8.836  11.497   9.826  1.0330  2.4132 -1.9580
  769MOL0     H 3780   8.950  11.486   9.700 -0.6351 -0.3784 -0.6558
  769MOL0     H 3781   8.722  11.414   9.647  1.9928  3.0113  2.8390
  769MOL0     H 3782   8.842  11.291   9.604  0.1052 -0.9555  0.1338
  769MOL0     H 3783   8.807  11.165   9.808  1.8618  1.6326 -0.9420
  769MOL0     H 3784   8.659  11.267   9.840  2.4060  0.8655  2.3216
  769MOL0     H 3785   8.712  11.093   9.598 -0.6689 -0.9642  0.3772
  769MOL0     H 3786   8.559  11.177   9.633  0.1440  2.6155  2.5249
  769MOL0     H 3787   8.539  11.033   9.850  2.3995 -0.0666  0.0346
  769MOL0     H 3788   8.671  10.938   9.807 -0.2868  0.3002  1.2218
  769MOL0     H 3789   8.538  10.892   9.581  1.9814 -0.0558  0.8182
  769MOL0     H 3790   8.485  10.810   9.733  3.3478 -0.5413  1.3180
  769MOL0     H 3791   8.326  10.888   9.567  0.0398  1.8249 -1.4160
  769MOL0     H 3792   8.356  11.058   9.609  1.6066  0.1796  0.1600
  769MOL0     H 3793   8.264  10.853   9.812 -0.8542  0.2382  1.9387
  769MOL0     H 3794   8.284  11.013   9.851  2.3599 -0.5179 -0.6561
  769MOL0     H 3795   9.180  11.492   9.796  0.1847 -0.4334  1.5159
  769MOL0     H 3796   9.384  11.443   9.663  0.5244  1.2194  1.6208
  769MOL0     H 3797   9.634  11.283   9.271 -0.4086 -1.4195 -0.4116
  769MOL0     H 3798   9.861  11.246   9.223  2.3241 -3.3055 -1.1377
  769MOL0     H 3799   9.272  11.637   8.745 -0.2778 -1.5239 -1.2568
  769MOL0     H 3800   9.145  11.432   8.689  2.3315  0.5880 -0.4562
  769MOL0     H 3801   9.085  11.021   8.886 -0.9087 -0.7272  0.8994
  769MOL0     H 3802   9.045  10.784   8.813  0.6520  0.7283  0.6756
  769MOL0     H 3803   8.914  10.515   8.701  1.2242 -0.1525  0.5238
  769MOL0     H 3804   9.011  10.634   8.647  0.9623 -2.8672  2.1823
  769MOL0     H 3805   8.909  10.540   8.439  2.3952  4.4051 -0.3486
  769MOL0     H 3806   8.790  10.667   8.468 -4.1917 -2.1177 -0.4211
  769MOL0     H 3807   8.652  10.488   8.620 -0.9672 -2.7432 -0.4538
  769MOL0     H 3808   8.769  10.380   8.549 -0.6803 -0.5432 -0.7356
  769MOL0     H 3809   8.701  10.463   8.318  1.9519 -2.6574  0.0917
  769MOL0     H 3810   8.588  10.363   8.390 -1.0886  1.0192 -2.3766
  769MOL0     H 3811   8.391  10.739   8.409 -0.6253  0.0541 -2.1236
  769MOL0     H 3812   8.663  10.903   8.677  0.7299 -2.3562  1.8787
  769MOL0     H 3813   8.602  11.110   8.637  0.1711 -0.3851 -0.0665
  769MOL0     H 3814   8.654  11.240   8.736 -0.5026  1.3800 -1.6770
  769MOL0     H 3815   8.732  11.223   8.581  0.1556 -0.4897 -0.4534
  770MOL0     O 3816  10.499   1.481   3.094  0.4091 -0.5097 -0.1935
  770MOL0     C 3817  10.424   1.572   3.134 -0.0572  0.0064  1.0520
  770MOL0     O 3818  10.346   1.651   3.063  0.1305 -0.2123 -0.2917
  770MOL0     C 3819  10.330   1.637   2.930 -0.3040  0.4918  0.0805
  770MOL0     C 3820  10.250   1.528   2.878  0.2170  0.3010 -0.7188
  770MOL0     C 3821  10.247   1.501   2.738  0.5743 -0.2974 -0.3868
  770MOL0     C 3822  10.308   1.590   2.646  1.0901 -0.4033  0.0633
  770MOL0     O 3823  10.299   1.580   2.512  0.4012 -0.0834 -0.5261
  770MOL0     C 3824  10.226   1.467   2.461  0.5014 -1.0349  0.0203
  770MOL0     C 3825  10.244   1.464   2.309 -0.1833 -0.1585 -0.0615
  770MOL0     C 3826  10.160   1.358   2.254  0.5950  0.1885  0.5818
  770MOL0     C 3827  10.127   1.388   2.103  0.0780 -0.4011 -0.2919
  770MOL0     C 3828  10.010   1.304   2.064  0.0848  0.3945 -0.0406
  770MOL0     C 3829   9.968   1.328   1.916 -0.5773  0.9273  0.5446
  770MOL0     C 3830   9.900   1.460   1.883  0.1400  0.3553 -0.8700
  770MOL0     C 3831   9.929   1.508   1.741  0.5203 -0.3556  0.6343
  770MOL0     N 3832  10.067   1.560   1.728  0.1684  0.7641 -0.5702
  770MOL0     C 3833  10.138   1.634   1.820  0.3332 -0.6009  0.0232
  770MOL0     C 3834  10.251   1.666   1.749  0.1287  0.5055 -0.9716
  770MOL0     C 3835  10.366   1.758   1.796 -0.1074 -0.1042  0.0218
  770MOL0     C 3836  10.402   1.725   1.939  0.3969 -0.4412  0.3818
  770MOL0     C 3837  10.547   1.749   1.973  0.1017  0.3179  0.3760
  770MOL0     C 3838  10.584   1.720   2.120  0.6203  0.1928  0.2060
  770MOL0     O 3839  10.541   1.816   2.211  0.6784 -0.3132 -0.2162
  770MOL0     C 3840  10.601   1.824   2.331  0.8386 -0.7446 -0.6580
  770MOL0     C 3841  10.684   1.732   2.392  0.0650  0.8860 -0.7094
  770MOL0     C 3842  10.732   1.744   2.524  0.1633  0.1942 -0.8258
  770MOL0     C 3843  10.712   1.859   2.592  0.3594 -0.0055  0.2522
  770MOL0     C 3844  10.768   1.879   2.729 -0.9533 -0.1620 -0.0902
  770MOL0     O 3845  10.769   2.011   2.780 -0.3309 -0.9191  0.4302
  770MOL0     C 3846  10.783   2.034   2.920 -0.4741 -0.0032 -0.3603
  770MOL0     C 3847  10.865   2.135   2.971  0.6306  0.5592 -0.8570
  770MOL0     C 3848  10.866   2.150   3.109  0.5018 -0.8672  0.5550
  770MOL0     C 3849  10.800   2.065   3.200  0.3406  0.1732 -0.3650
  770MOL0     O 3850  10.792   2.084   3.335  0.2304  0.5471  0.1110
  770MOL0     C 3851  10.920   2.118   3.399 -0.0401 -0.6503  0.0791
  770MOL0     C 3852  10.917   2.269   3.429 -0.2986 -1.0115 -0.3704
  770MOL0     C 3853  11.054   2.327   3.420 -0.6860 -0.1406 -0.5374
  770MOL0     C 3854  11.044   2.481   3.461 -0.8520  0.0895 -0.3285
  770MOL0     C 3855  11.171   2.544   3.505 -0.0952  0.5786  0.3441
  770MOL0     C 3856  11.214   2.497   3.637 -0.2935 -0.2330 -0.7520
  770MOL0     C 3857  11.339   2.573   3.704 -0.3403 -0.9147 -0.8492
  770MOL0     C 3858  11.348   2.517   3.848 -0.1828  0.2108 -0.3172
  770MOL0    Cl 3859  11.422   2.346   3.859  0.0728 -0.0250 -0.5214
  770MOL0     C 3860  10.700   1.975   3.151 -0.5498 -0.6691  0.3083
  770MOL0     C 3861  10.700   1.964   3.010 -0.3947 -0.5025  0.5674
  770MOL0     O 3862  10.805   1.774   2.790 -0.4127  0.4401  0.6735
  770MOL0     C 3863  10.637   1.964   2.536  0.4190  0.3739  1.2229
  770MOL0     C 3864  10.580   1.949   2.405  0.2028  0.7715 -0.1865
  770MOL0     N 3865  10.254   1.601   1.626  0.8322  0.4899 -0.2027
  770MOL0     N 3866  10.139   1.546   1.616  0.0343  0.3872 -0.2543
  770MOL0     C 3867  10.377   1.704   2.698 -0.2500 -0.4293 -0.0451
  770MOL0     C 3868  10.390   1.721   2.834  0.6960 -0.3482 -1.1334
  770MOL0     C 3869  10.425   1.578   3.277 -0.6891  0.4184 -0.1113
  770MOL0     C 3870  10.301   1.567   3.341 -0.0771  0.1791  0.4533
  770MOL0     C 3871  10.285   1.553   3.476  0.5845  0.8848  0.2028
  770MOL0     C 3872  10.394   1.566   3.555  0.1537 -0.4197  0.0947
  770MOL0     O 3873  10.384   1.581   3.695  0.1523  0.8262  0.0459
  770MOL0     C 3874  10.301   1.482   3.765  0.8273  0.6171 -0.3527
  770MOL0     C 3875  10.389   1.401   3.865  1.0763  0.3339 -0.7590
  770MOL0     C 3876  10.312   1.295   3.943  0.4632  0.1139 -0.9542
  770MOL0     C 3877  10.389   1.198   4.027 -0.0514 -0.0867 -0.0722
  770MOL0     C 3878  10.297   1.097   4.071 -0.3075 -1.0396 -0.5397
  770MOL0     C 3879  10.243   0.996   4.095 -0.6218  0.5973  0.0214
  770MOL0     C 3880  10.522   1.568   3.501 -0.3194 -0.0600 -0.2468
  770MOL0     C 3881  10.543   1.578   3.360  0.1770  1.5417 -0.7326
  770MOL0     C 3882  10.685   1.593   3.317  0.2643 -0.2800 -0.1294
  770MOL0     H 3883  10.202   1.462   2.950  0.1544  0.6459 -0.4425
  770MOL0     H 3884  10.206   1.402   2.719  0.0509 -0.1645  0.0282
  770MOL0     H 3885  10.260   1.371   2.502 -1.5884 -2.2553 -0.9637
  770MOL0     H 3886  10.120   1.476   2.484  0.9431  0.7569  1.6744
  770MOL0     H 3887  10.351   1.456   2.288  0.4301  0.1268  2.5190
  770MOL0     H 3888  10.216   1.565   2.281 -1.2595 -0.3607  0.2439
  770MOL0     H 3889  10.064   1.349   2.305  0.5179 -0.2933  0.3640
  770MOL0     H 3890  10.214   1.262   2.254  1.8141  0.8386  2.2807
  770MOL0     H 3891  10.101   1.494   2.102  1.6578  0.1297  2.7627
  770MOL0     H 3892  10.214   1.389   2.038 -0.9378  1.1926 -1.7095
  770MOL0     H 3893  10.043   1.199   2.069  0.8051  0.6730  2.1606
  770MOL0     H 3894   9.927   1.328   2.131 -1.4591  1.1478 -2.1311
  770MOL0     H 3895  10.060   1.308   1.861 -2.5352 -3.4816 -1.5963
  770MOL0     H 3896   9.896   1.249   1.895  0.5718 -0.0751  0.2939
  770MOL0     H 3897   9.926   1.535   1.958 -0.2176 -0.7188  0.3688
  770MOL0     H 3898   9.791   1.446   1.885  0.4655 -2.8091 -0.1051
  770MOL0     H 3899   9.919   1.429   1.666 -1.6680 -0.1866  0.6798
  770MOL0     H 3900   9.861   1.591   1.717 -1.0822 -1.8437 -0.2260
  770MOL0     H 3901  10.115   1.686   1.913  0.0348  2.3294 -1.5662
  770MOL0     H 3902  10.451   1.733   1.732  0.8959  3.9972 -0.5212
  770MOL0     H 3903  10.333   1.861   1.778  2.6250  0.7081 -0.7180
  770MOL0     H 3904  10.350   1.794   2.006  1.2033 -0.4875  1.0646
  770MOL0     H 3905  10.368   1.624   1.965 -0.4887 -0.4469 -0.6911
  770MOL0     H 3906  10.572   1.854   1.955  1.4500  0.0127  0.3460
  770MOL0     H 3907  10.610   1.689   1.906 -2.1017  0.0524 -1.5890
  770MOL0     H 3908  10.693   1.721   2.128  0.7821 -1.2010 -1.2470
  770MOL0     H 3909  10.554   1.623   2.162 -0.9675  1.2852  1.7300
  770MOL0     H 3910  10.717   1.648   2.332  0.7833  0.4703  0.2636
  770MOL0     H 3911  10.792   1.662   2.560 -0.4142 -0.0615 -0.4308
  770MOL0     H 3912  10.907   2.206   2.900 -2.0747  1.3816 -1.7532
  770MOL0     H 3913  10.928   2.234   3.141  3.8592 -2.9795  0.0705
  770MOL0     H 3914  10.941   2.061   3.490  2.5672  3.1281  2.1142
  770MOL0     H 3915  10.993   2.095   3.321 -1.4690  1.4086 -2.0092
  770MOL0     H 3916  10.851   2.320   3.358  0.3132 -0.8372 -0.8286
  770MOL0     H 3917  10.890   2.297   3.531  5.3487  1.8583  0.7369
  770MOL0     H 3918  11.119   2.272   3.489  2.1983  1.8493 -1.4750
  770MOL0     H 3919  11.101   2.306   3.324 -2.4969 -3.1797 -0.8733
  770MOL0     H 3920  10.972   2.481   3.543  1.7815 -0.3993  2.1758
  770MOL0     H 3921  10.997   2.542   3.383 -2.1788  1.1804  1.2491
  770MOL0     H 3922  11.168   2.653   3.503  1.5821  0.6965  1.8712
  770MOL0     H 3923  11.245   2.519   3.428 -0.7353  1.0887 -0.4621
  770MOL0     H 3924  11.133   2.494   3.711  1.2513  2.4939  1.2787
  770MOL0     H 3925  11.253   2.396   3.626  1.0205 -0.3921  3.5013
  770MOL0     H 3926  11.321   2.681   3.716  1.9600 -0.3871 -1.5112
  770MOL0     H 3927  11.428   2.551   3.645  0.2269 -1.9357  0.3524
  770MOL0     H 3928  11.411   2.578   3.913  0.0186 -2.0780  1.7983
  770MOL0     H 3929  11.249   2.516   3.894 -0.6969  0.3810 -1.3635
  770MOL0     H 3930  10.628   1.934   3.221 -0.3891 -1.6185 -0.0723
  770MOL0     H 3931  10.634   1.887   2.972  0.2360 -0.3435 -0.9286
  770MOL0     H 3932  10.610   2.059   2.580 -3.1923  0.9161 -1.7037
  770MOL0     H 3933  10.525   2.027   2.355 -0.7722 -0.7325 -1.5922
  770MOL0     H 3934  10.406   1.777   2.624  2.9356  1.2360  2.5891
  770MOL0     H 3935  10.462   1.792   2.871  0.1077 -0.4839  0.3445
  770MOL0     H 3936  10.210   1.546   3.287  0.1454 -2.3951  0.9525
  770MOL0     H 3937  10.192   1.531   3.527  1.1697 -3.0735 -0.1495
  770MOL0     H 3938  10.260   1.400   3.707 -0.7949 -0.0422  1.6161
  770MOL0     H 3939  10.216   1.534   3.810  1.0615  0.9792 -0.3169
  770MOL0     H 3940  10.443   1.455   3.943  1.4870 -3.7058  2.0139
  770MOL0     H 3941  10.469   1.353   3.807  2.3328  2.6670 -1.1057
  770MOL0     H 3942  10.271   1.240   3.858 -1.2168  2.0652 -1.4827
  770MOL0     H 3943  10.240   1.344   4.010  0.4303 -1.6145  0.3405
  770MOL0     H 3944  10.467   1.149   3.968 -0.2685  0.9352 -1.2381
  770MOL0     H 3945  10.440   1.251   4.108 -0.3314  0.6227 -0.3564
  770MOL0     H 3946  10.203   0.897   4.102 -2.2690  1.2955  1.3013
  770MOL0     H 3947  10.607   1.560   3.568  0.2164 -0.5005 -0.9658
  770MOL0     H 3948  10.756   1.562   3.395  2.8406 -4.0063 -3.5519
  770MOL0     H 3949  10.716   1.539   3.227 -0.7889  0.4585 -0.9570
  770MOL0     H 3950  10.713   1.699   3.324  1.0049 -0.4350 -0.6300
  771MOL0     O 3951   7.004   9.972   9.406 -0.2412  0.7134  0.3551
  771MOL0     C 3952   7.013   9.996   9.530 -0.5264 -0.3808 -0.7247
  771MOL0     O 3953   6.927   9.953   9.633 -0.4403 -0.2541  0.8640
  771MOL0     C 3954   6.825   9.871   9.586 -0.1056  0.2665 -0.7014
  771MOL0     C 3955   6.693   9.901   9.601 -0.0036  0.3365 -0.4800
  771MOL0     C 3956   6.592   9.813   9.564  0.6501  0.3049  0.1622
  771MOL0     C 3957   6.611   9.686   9.521 -0.3628 -0.5722 -1.1921
  771MOL0     O 3958   6.527   9.584   9.506  0.6025 -0.5857  0.8817
  771MOL0     C 3959   6.383   9.601   9.479 -0.0200  0.8356  0.5305
  771MOL0     C 3960   6.309   9.464   9.502 -0.0504  0.0897 -1.3339
  771MOL0     C 3961   6.360   9.346   9.421 -0.3084 -0.3111  0.0293
  771MOL0     C 3962   6.300   9.217   9.484  0.0837 -0.0703 -0.2683
  771MOL0     C 3963   6.323   9.095   9.394  0.6212  0.3754  0.3571
  771MOL0     C 3964   6.469   9.052   9.371  0.1842 -0.2311 -0.8742
  771MOL0     C 3965   6.490   8.908   9.308  0.2973 -0.6219  0.3756
  771MOL0     C 3966   6.439   8.927   9.157 -0.7315 -0.9046 -0.0442
  771MOL0     N 3967   6.436   8.796   9.086  1.2101  0.4205  0.0401
  771MOL0     C 3968   6.329   8.755   9.011  1.3645 -0.1230  0.2199
  771MOL0     C 3969   6.353   8.638   8.954  0.6765  0.1281 -0.6999
  771MOL0     C 3970   6.270   8.551   8.858  0.0486 -0.6083 -0.4788
  771MOL0     C 3971   6.301   8.400   8.863 -0.0984  0.7801 -0.2838
  771MOL0     C 3972   6.244   8.336   8.736  0.0393 -0.1117 -1.1566
  771MOL0     C 3973   6.218   8.190   8.755 -0.0425  0.0572 -0.2243
  771MOL0     O 3974   6.115   8.140   8.675  0.2635  0.3786 -0.1343
  771MOL0     C 3975   6.143   8.049   8.579  0.2510  0.5332  1.2051
  771MOL0     C 3976   6.169   7.909   8.608  0.7497 -0.2094  1.2125
  771MOL0     C 3977   6.172   7.819   8.492 -0.9034  0.0051  0.7828
  771MOL0     C 3978   6.161   7.869   8.357 -0.4157 -0.2343  0.0103
  771MOL0     C 3979   6.175   7.779   8.240 -0.6178  0.3782 -0.5716
  771MOL0     O 3980   6.211   7.642   8.258 -0.2353 -0.1615  0.0354
  771MOL0     C 3981   6.215   7.567   8.142 -0.6941  0.0076 -0.3336
  771MOL0     C 3982   6.099   7.541   8.075 -0.1260 -0.0251  0.3538
  771MOL0     C 3983   6.095   7.458   7.966  1.1219  0.4751 -0.4942
  771MOL0     C 3984   6.211   7.401   7.913  0.2643 -0.8758 -0.2061
  771MOL0     O 3985   6.196   7.319   7.799  0.0534 -0.1695 -0.3127
  771MOL0     C 3986   6.302   7.319   7.704 -0.3947  0.1276  0.3158
  771MOL0     C 3987   6.236   7.256   7.579  0.3718 -0.6131  0.3783
  771MOL0     C 3988   6.176   7.367   7.493 -0.1912  0.3183 -0.0397
  771MOL0     C 3989   6.111   7.488   7.562 -0.0124  0.6650  0.1265
  771MOL0     C 3990   6.043   7.586   7.460 -0.1444  0.6026 -0.8894
  771MOL0     C 3991   6.132   7.658   7.375  0.4527 -1.0786 -0.1793
  771MOL0     C 3992   6.084   7.799   7.320 -0.5165 -0.2476  0.1304
  771MOL0     C 3993   6.166   7.837   7.206 -0.1798 -0.6089  0.0783
  771MOL0    Cl 3994   6.330   7.841   7.245 -0.2026 -0.2769  0.1607
  771MOL0     C 3995   6.332   7.428   7.976 -0.3776  0.1369 -0.0241
  771MOL0     C 3996   6.335   7.512   8.093 -0.2403  0.7732  0.1453
  771MOL0     O 3997   6.162   7.839   8.134  0.7822  0.1663 -0.1415
  771MOL0     C 3998   6.145   8.010   8.336 -0.3941  0.0146 -0.0344
  771MOL0     C 3999   6.134   8.090   8.445  0.1152  0.2297 -0.8121
  771MOL0     N 4000   6.477   8.600   9.007 -0.5023  0.3485  0.3091
  771MOL0     N 4001   6.526   8.695   9.089  0.1085  0.9170 -0.8662
  771MOL0     C 4002   6.749   9.648   9.519 -0.9280 -0.6651  1.2292
  771MOL0     C 4003   6.853   9.736   9.544  0.2209 -0.0396 -0.2795
  771MOL0     C 4004   7.110  10.101   9.572  0.4270 -0.2255 -0.8197
  771MOL0     C 4005   7.063  10.210   9.655 -0.4013  0.2855  0.7934
  771MOL0     C 4006   7.145  10.310   9.697 -0.9664 -0.1788 -0.4434
  771MOL0     C 4007   7.277  10.307   9.660  0.2785  0.6528 -0.1659
  771MOL0     O 4008   7.348  10.410   9.710 -0.0170 -0.1735  0.4659
  771MOL0     C 4009   7.415  10.376   9.829 -0.6082  0.4767 -0.3620
  771MOL0     C 4010   7.575  10.380   9.816  1.6112 -0.5429  0.0165
  771MOL0     C 4011   7.629  10.307   9.942  0.7499  0.8120  0.0872
  771MOL0     C 4012   7.780  10.295   9.928  0.6567  0.0724 -0.1851
  771MOL0     C 4013   7.825  10.188   9.840 -0.2343  0.4178  0.2496
  771MOL0     C 4014   7.863  10.096   9.764 -0.2248 -1.0283 -0.9316
  771MOL0     C 4015   7.334  10.191   9.601 -0.0332 -0.7635  0.4382
  771MOL0     C 4016   7.252  10.092   9.550  0.3430 -0.1890 -0.0889
  771MOL0     C 4017   7.318   9.982   9.470 -0.5321 -0.8548 -1.1922
  771MOL0     H 4018   6.669   9.996   9.648  1.4771 -0.5243  2.2614
  771MOL0     H 4019   6.489   9.848   9.563  1.1507  1.8603  0.0598
  771MOL0     H 4020   6.334   9.665   9.554 -2.5379 -0.5240  0.1536
  771MOL0     H 4021   6.362   9.639   9.379 -1.2159  0.3730  0.5879
  771MOL0     H 4022   6.200   9.473   9.496 -0.0880  2.6819  1.1695
  771MOL0     H 4023   6.325   9.453   9.610 -0.1801  6.2452 -0.3321
  771MOL0     H 4024   6.469   9.336   9.415 -0.4783 -2.3814 -0.3417
  771MOL0     H 4025   6.319   9.354   9.320 -1.3024 -3.4827  0.0702
  771MOL0     H 4026   6.361   9.203   9.574  0.2749  1.6258 -0.1076
  771MOL0     H 4027   6.193   9.219   9.506  0.1918 -2.1580  0.7935
  771MOL0     H 4028   6.269   9.005   9.426 -1.5891  1.1074 -1.0691
  771MOL0     H 4029   6.282   9.126   9.298 -0.5686  3.4173  1.7007
  771MOL0     H 4030   6.514   9.137   9.319  0.3121  1.1019  1.3267
  771MOL0     H 4031   6.501   9.054   9.475  1.2091 -2.4567 -1.0779
  771MOL0     H 4032   6.452   8.812   9.346  0.5674 -0.5951  0.7152
  771MOL0     H 4033   6.595   8.877   9.312 -0.1080 -1.9834  2.2738
  771MOL0     H 4034   6.340   8.971   9.170  1.1502  3.4111  1.5357
  771MOL0     H 4035   6.500   9.000   9.102 -0.6921  0.2840  1.4994
  771MOL0     H 4036   6.242   8.813   8.985 -0.4488 -3.2361 -1.1604
  771MOL0     H 4037   6.162   8.562   8.865 -0.5105 -2.9988 -3.5489
  771MOL0     H 4038   6.296   8.593   8.761  0.8436 -2.8907 -1.3226
  771MOL0     H 4039   6.408   8.385   8.876 -0.4193 -0.6704  0.9558
  771MOL0     H 4040   6.257   8.355   8.953  1.5127 -0.0931  0.1021
  771MOL0     H 4041   6.312   8.351   8.652 -0.2946  3.2517 -0.9532
  771MOL0     H 4042   6.153   8.388   8.707 -0.1747  1.6703  2.2142
  771MOL0     H 4043   6.186   8.177   8.859  0.0974 -0.5552 -0.2521
  771MOL0     H 4044   6.308   8.128   8.749  0.6700  0.7674  1.9140
  771MOL0     H 4045   6.183   7.874   8.710  4.4628  2.1965  1.6888
  771MOL0     H 4046   6.186   7.712   8.495 -1.1406 -0.2814 -3.1173
  771MOL0     H 4047   6.011   7.599   8.099  0.0659  0.9703 -1.1983
  771MOL0     H 4048   6.002   7.441   7.913  1.3468 -1.6245 -0.2948
  771MOL0     H 4049   6.341   7.420   7.689  1.7723 -0.3373  2.2473
  771MOL0     H 4050   6.385   7.257   7.740 -1.0209 -1.6251 -1.1309
  771MOL0     H 4051   6.320   7.222   7.517  1.5875  2.6003  0.0965
  771MOL0     H 4052   6.167   7.178   7.613 -0.3431  1.5895  4.5742
  771MOL0     H 4053   6.252   7.403   7.424 -1.0383 -1.6202 -2.1107
  771MOL0     H 4054   6.099   7.319   7.432  0.1952 -1.3693  0.7224
  771MOL0     H 4055   6.174   7.544   7.631 -1.5847  2.0473  0.4978
  771MOL0     H 4056   6.030   7.436   7.613  1.4196 -1.1027  0.7308
  771MOL0     H 4057   5.979   7.651   7.520 -3.9231  0.3968 -4.2288
  771MOL0     H 4058   5.978   7.532   7.390 -1.3767 -0.2848  0.8685
  771MOL0     H 4059   6.214   7.681   7.443 -0.8576  3.8572  0.0955
  771MOL0     H 4060   6.163   7.591   7.294  0.9008 -3.9160  2.1871
  771MOL0     H 4061   6.083   7.876   7.398  1.2403 -0.6258  0.5706
  771MOL0     H 4062   5.983   7.783   7.283 -0.4418 -1.5292  0.4413
  771MOL0     H 4063   6.130   7.794   7.112 -3.3288  4.2477 -1.3301
  771MOL0     H 4064   6.140   7.941   7.185  0.7860 -0.3647  0.0870
  771MOL0     H 4065   6.421   7.379   7.939 -1.4211 -1.7777 -0.1688
  771MOL0     H 4066   6.434   7.534   8.131  0.3416  0.8008 -1.3144
  771MOL0     H 4067   6.136   8.058   8.239  0.3403  3.4126  1.4445
  771MOL0     H 4068   6.123   8.198   8.435  1.6235  0.5703  0.7715
  771MOL0     H 4069   6.767   9.543   9.498  2.3749 -0.3864  2.0667
  771MOL0     H 4070   6.951   9.692   9.530 -0.2698 -1.2810  0.0284
  771MOL0     H 4071   6.957  10.215   9.677 -0.6864 -0.8897 -0.1854
  771MOL0     H 4072   7.103  10.389   9.759 -2.1331 -1.5003  0.5092
  771MOL0     H 4073   7.389  10.274   9.859  0.9613  0.2290  0.2334
  771MOL0     H 4074   7.367  10.436   9.907  2.3563 -1.5205  3.3182
  771MOL0     H 4075   7.603  10.485   9.808 -1.5231  0.5481  1.5256
  771MOL0     H 4076   7.594  10.330   9.721  0.6814 -0.6392 -0.1302
  771MOL0     H 4077   7.591  10.205   9.952  2.8212 -0.4934 -3.3404
  771MOL0     H 4078   7.599  10.370  10.026  1.1761  3.2941 -1.5071
  771MOL0     H 4079   7.817  10.381   9.870  1.1099 -1.5635 -2.4627
  771MOL0     H 4080   7.825  10.287  10.027 -0.6477  1.1616  0.5315
  771MOL0     H 4081   7.883  10.013   9.700  2.3671 -2.1870  1.1864
  771MOL0     H 4082   7.440  10.179   9.586  0.5957 -0.5471  3.8162
  771MOL0     H 4083   7.310  10.006   9.364 -3.0563  0.2505 -0.8310
  771MOL0     H 4084   7.422   9.971   9.501 -0.8849 -0.5627  0.1598
  771MOL0     H 4085   7.260   9.891   9.490 -1.2895 -0.3549 -1.0338
  772MOL0     O 4086  11.318   7.249   2.331 -0.0530 -0.0333  0.6820
  772MOL0     C 4087  11.282   7.288   2.225 -0.0395  0.2495  1.4173
  772MOL0     O 4088  11.342   7.388   2.147 -0.0867  0.6099 -0.3506
  772MOL0     C 4089  11.447   7.456   2.202  0.4452  0.7215  0.2673
  772MOL0     C 4090  11.575   7.422   2.181  0.3098 -0.5885  0.6229
  772MOL0     C 4091  11.676   7.512   2.226 -0.2671  0.7250  0.2311
  772MOL0     C 4092  11.645   7.622   2.304  0.0809  0.2987  1.0535
  772MOL0     O 4093  11.759   7.688   2.351  0.0031 -0.1699 -0.2331
  772MOL0     C 4094  11.753   7.815   2.407 -0.8207 -0.0826 -0.2292
  772MOL0     C 4095  11.724   7.828   2.558  0.6243 -0.4055 -0.4183
  772MOL0     C 4096  11.809   7.739   2.651  0.1064  0.7840  0.3714
  772MOL0     C 4097  11.922   7.807   2.726 -0.0076 -0.1663  0.8225
  772MOL0     C 4098  12.025   7.863   2.616 -0.5061  0.7328  0.1038
  772MOL0     C 4099  12.168   7.876   2.676  0.4899 -0.6638 -0.5778
  772MOL0     C 4100  12.267   7.907   2.556 -0.2044  0.2045  0.7723
  772MOL0     C 4101  12.404   7.942   2.620  0.3642  0.0389 -0.1940
  772MOL0     N 4102  12.459   7.822   2.666 -0.7689  1.0838 -0.5376
  772MOL0     C 4103  12.534   7.733   2.595 -0.0338 -0.4708  0.8110
  772MOL0     C 4104  12.614   7.666   2.679  1.0363  0.5295 -0.1324
  772MOL0     C 4105  12.728   7.558   2.648  0.0443 -0.2419 -0.1476
  772MOL0     C 4106  12.659   7.428   2.598  0.1759 -0.4489 -0.6476
  772MOL0     C 4107  12.761   7.315   2.565  0.0735 -0.5214 -0.8661
  772MOL0     C 4108  12.711   7.194   2.497 -0.7630 -0.3621  0.7041
  772MOL0     O 4109  12.740   7.195   2.351 -0.0616 -0.5958 -0.4348
  772MOL0     C 4110  12.702   7.093   2.267  0.3598 -1.0105 -1.9470
  772MOL0     C 4111  12.735   7.105   2.131 -0.2789 -0.3702  0.0065
  772MOL0     C 4112  12.691   7.012   2.035  0.0792  0.7983 -0.0736
  772MOL0     C 4113  12.616   6.902   2.080  0.3729 -0.0962  0.1968
  772MOL0     C 4114  12.546   6.833   1.981  0.4599 -0.5396 -0.1655
  772MOL0     O 4115  12.621   6.799   1.870  0.0913 -1.5824  0.6258
  772MOL0     C 4116  12.572   6.719   1.776 -0.7035  0.9360 -0.3307
  772MOL0     C 4117  12.495   6.598   1.806 -0.0025  0.0843 -0.5167
  772MOL0     C 4118  12.444   6.534   1.704  0.7966  0.5573  0.1189
  772MOL0     C 4119  12.485   6.568   1.571 -0.6941 -0.0544  0.3262
  772MOL0     O 4120  12.442   6.487   1.472  0.0686  0.5240  0.2771
  772MOL0     C 4121  12.396   6.546   1.349  0.3976 -0.6215 -1.1288
  772MOL0     C 4122  12.349   6.439   1.252  0.9566 -0.2254 -1.3693
  772MOL0     C 4123  12.303   6.509   1.122  0.7851 -0.0664 -0.8942
  772MOL0     C 4124  12.236   6.424   1.022 -1.2657  0.2148 -0.2709
  772MOL0     C 4125  12.142   6.509   0.932 -0.1465 -0.7337 -1.1325
  772MOL0     C 4126  12.104   6.427   0.803 -0.4710 -0.3437 -0.2426
  772MOL0     C 4127  12.010   6.312   0.843  0.3513 -0.7230 -0.0308
  772MOL0     C 4128  11.928   6.239   0.739 -0.0412 -0.2928 -0.5593
  772MOL0    Cl 4129  11.810   6.358   0.656 -0.0263 -0.3386 -0.0014
  772MOL0     C 4130  12.569   6.677   1.535 -0.0526  0.5436 -0.7055
  772MOL0     C 4131  12.605   6.753   1.649  0.4609 -0.7385  0.2839
  772MOL0     O 4132  12.433   6.792   2.011  0.6546 -0.2419 -0.2363
  772MOL0     C 4133  12.574   6.891   2.211 -0.3069 -0.6234 -0.0463
  772MOL0     C 4134  12.632   6.979   2.308 -0.3866 -0.9325  0.4750
  772MOL0     N 4135  12.581   7.701   2.808 -0.4201  0.0029  0.3781
  772MOL0     N 4136  12.492   7.792   2.794  1.0002 -0.5216 -0.0752
  772MOL0     C 4137  11.513   7.651   2.336 -0.2609 -0.0965 -0.1380
  772MOL0     C 4138  11.417   7.569   2.278  0.8854  0.4875 -0.4912
  772MOL0     C 4139  11.167   7.231   2.170 -0.0093  0.3569  1.9488
  772MOL0     C 4140  11.071   7.185   2.267  0.1074  0.1028  0.0104
  772MOL0     C 4141  10.947   7.132   2.230  0.2984 -0.3598  1.2435
  772MOL0     C 4142  10.906   7.152   2.097  0.4793  0.4645  0.1725
  772MOL0     O 4143  10.784   7.115   2.045 -0.3855 -0.3881 -0.3194
  772MOL0     C 4144  10.690   7.037   2.128 -0.2881  0.1263  0.2209
  772MOL0     C 4145  10.605   7.144   2.209  1.5014  0.9686  0.1427
  772MOL0     C 4146  10.482   7.089   2.296 -0.4370 -0.3113 -0.1189
  772MOL0     C 4147  10.527   6.996   2.411 -0.1864 -0.5556  0.8073
  772MOL0     C 4148  10.629   7.055   2.502 -0.7424 -0.4388  0.4951
  772MOL0     C 4149  10.724   7.097   2.557 -0.9700 -0.1922 -0.7023
  772MOL0     C 4150  10.990   7.196   2.003  0.5268  0.0026 -0.0794
  772MOL0     C 4151  11.125   7.227   2.032  0.1333 -0.4238  0.4713
  772MOL0     C 4152  11.209   7.279   1.913 -0.4582  0.4406 -0.0641
  772MOL0     H 4153  11.593   7.338   2.114 -1.4558 -1.2194  0.8714
  772MOL0     H 4154  11.782   7.493   2.209 -0.8958  0.0513 -4.0661
  772MOL0     H 4155  11.845   7.870   2.387 -3.0530  4.3520  0.3070
  772MOL0     H 4156  11.677   7.878   2.358 -0.9269 -0.2214 -0.2428
  772MOL0     H 4157  11.621   7.799   2.579  1.5411 -2.0771  2.2339
  772MOL0     H 4158  11.747   7.933   2.582 -3.3592  0.5086  0.0801
  772MOL0     H 4159  11.840   7.647   2.599 -0.2422  0.5250  0.6158
  772MOL0     H 4160  11.748   7.705   2.735  0.8581  4.7293  2.7605
  772MOL0     H 4161  11.883   7.883   2.795  2.1400 -1.2257  3.3794
  772MOL0     H 4162  11.966   7.733   2.793 -0.5086 -1.3385 -0.1139
  772MOL0     H 4163  12.027   7.798   2.528  2.2311  0.0102  0.5846
  772MOL0     H 4164  11.974   7.956   2.591 -0.0662  0.9997  0.1731
  772MOL0     H 4165  12.155   7.961   2.744 -1.0242 -0.8226 -0.6173
  772MOL0     H 4166  12.199   7.788   2.732  1.3338 -1.1945 -1.8357
  772MOL0     H 4167  12.227   7.991   2.498  0.3587 -1.1458 -1.7191
  772MOL0     H 4168  12.285   7.821   2.492  0.9631 -0.5061  2.0178
  772MOL0     H 4169  12.471   7.984   2.545 -0.4839 -1.3066 -1.7713
  772MOL0     H 4170  12.394   8.013   2.703  0.9555  1.0570 -0.9698
  772MOL0     H 4171  12.520   7.714   2.489  2.0755  2.1504 -0.0498
  772MOL0     H 4172  12.791   7.613   2.577 -1.3729  0.8192 -0.6295
  772MOL0     H 4173  12.775   7.527   2.741 -0.9116  0.7346  0.6946
  772MOL0     H 4174  12.592   7.399   2.680  1.2970 -0.8211  0.1671
  772MOL0     H 4175  12.601   7.444   2.507  0.9719  3.6031 -0.6380
  772MOL0     H 4176  12.798   7.283   2.663 -2.1342 -1.6277 -0.3200
  772MOL0     H 4177  12.847   7.365   2.520 -0.6851  1.2101 -0.4555
  772MOL0     H 4178  12.609   7.165   2.525 -1.4470 -0.6006 -1.8341
  772MOL0     H 4179  12.784   7.125   2.540  0.0162  0.2294  0.3482
  772MOL0     H 4180  12.802   7.187   2.105  1.0300  0.3024  4.5849
  772MOL0     H 4181  12.704   7.035   1.930  0.6973 -1.3924 -0.5282
  772MOL0     H 4182  12.461   6.576   1.907 -2.8083  0.7456 -1.2074
  772MOL0     H 4183  12.379   6.449   1.715  0.4064  1.1446  3.4443
  772MOL0     H 4184  12.328   6.625   1.381  1.3724 -0.3498  0.4002
  772MOL0     H 4185  12.483   6.584   1.294 -0.7555 -1.6548 -3.8498
  772MOL0     H 4186  12.434   6.371   1.252  0.1709 -1.6895  3.8338
  772MOL0     H 4187  12.266   6.386   1.299 -0.6306  3.0306 -0.1668
  772MOL0     H 4188  12.231   6.587   1.148 -1.7421 -2.2289 -0.9410
  772MOL0     H 4189  12.395   6.548   1.077  0.5647  0.1124 -1.1989
  772MOL0     H 4190  12.183   6.340   1.069  0.7173 -0.8187  0.2155
  772MOL0     H 4191  12.318   6.374   0.970 -1.5205 -0.1040 -0.3655
  772MOL0     H 4192  12.186   6.602   0.894 -2.8809  0.2944 -2.0334
  772MOL0     H 4193  12.056   6.538   0.994  0.4609 -2.0712  0.4004
  772MOL0     H 4194  12.057   6.499   0.736 -1.3219 -0.8614 -0.2145
  772MOL0     H 4195  12.194   6.385   0.758 -0.8417 -1.6462  0.1932
  772MOL0     H 4196  11.939   6.353   0.915 -1.7021 -1.3075 -1.6093
  772MOL0     H 4197  12.076   6.242   0.896  1.8755  0.2974 -0.5078
  772MOL0     H 4198  12.001   6.191   0.673  2.1752 -1.2761  2.3948
  772MOL0     H 4199  11.875   6.158   0.790 -0.9053 -1.9044 -3.7147
  772MOL0     H 4200  12.586   6.703   1.431  0.5493  1.8748 -0.2915
  772MOL0     H 4201  12.666   6.842   1.635  0.4256 -1.1505 -3.3865
  772MOL0     H 4202  12.512   6.808   2.243  0.3094 -0.5199  1.4954
  772MOL0     H 4203  12.605   6.969   2.413  0.4578 -2.7355  0.5551
  772MOL0     H 4204  11.481   7.732   2.401 -4.8675 -0.4067 -1.6676
  772MOL0     H 4205  11.314   7.597   2.294  0.9458  1.3363 -1.4490
  772MOL0     H 4206  11.103   7.165   2.369  1.5265  2.3319  0.0630
  772MOL0     H 4207  10.868   7.098   2.297 -2.9567 -0.7791 -2.4723
  772MOL0     H 4208  10.732   6.969   2.203 -0.6694  0.2722  0.5696
  772MOL0     H 4209  10.614   6.981   2.073 -0.4289  2.4501 -2.1508
  772MOL0     H 4210  10.568   7.225   2.145 -0.3817 -0.4532 -0.6687
  772MOL0     H 4211  10.675   7.190   2.279  0.5555  2.5339  0.1121
  772MOL0     H 4212  10.403   7.044   2.235 -1.7692  3.4270 -1.4535
  772MOL0     H 4213  10.435   7.178   2.340  0.0659  0.1677 -0.5341
  772MOL0     H 4214  10.434   6.972   2.463  1.0234 -3.6298  1.8185
  772MOL0     H 4215  10.573   6.906   2.369  0.5151  1.2427 -2.6591
  772MOL0     H 4216  10.799   7.133   2.625 -1.7921 -1.2616  0.8241
  772MOL0     H 4217  10.949   7.196   1.902 -2.1145 -0.8487  0.9030
  772MOL0     H 4218  11.160   7.254   1.818  1.3753 -2.7890 -0.2793
  772MOL0     H 4219  11.227   7.387   1.908  2.2048  0.1156  0.9625
  772MOL0     H 4220  11.309   7.239   1.931 -1.8554 -2.1541  2.9204
  773MOL0     O 4221   0.462   6.460   9.618 -0.0985  0.2404 -0.0234
  773MOL0     C 4222   0.530   6.505   9.704  0.0911  0.3040 -0.0872
  773MOL0     O 4223   0.654   6.449   9.743  0.1534  0.4680 -0.7246
  773MOL0     C 4224   0.694   6.342   9.671  0.8363  0.1700  0.1058
  773MOL0     C 4225   0.737   6.363   9.535 -0.4201  0.9344 -0.2922
  773MOL0     C 4226   0.789   6.255   9.459  0.2308  0.2793 -0.1099
  773MOL0     C 4227   0.815   6.134   9.526  0.4190 -0.4657 -0.7379
  773MOL0     O 4228   0.843   6.043   9.434 -0.3084 -0.2791  0.0188
  773MOL0     C 4229   0.847   5.903   9.466 -0.9453 -0.7314 -0.5158
  773MOL0     C 4230   0.920   5.823   9.351 -0.2260 -0.6611 -1.3327
  773MOL0     C 4231   0.914   5.663   9.360  0.2060 -0.4037 -0.0544
  773MOL0     C 4232   1.002   5.593   9.247 -0.2172 -0.1794  0.0416
  773MOL0     C 4233   1.022   5.441   9.276  0.0071  0.0827 -0.2490
  773MOL0     C 4234   0.896   5.375   9.317  0.3804  0.3262 -1.0492
  773MOL0     C 4235   0.934   5.224   9.341  0.4549 -0.0419  0.4026
  773MOL0     C 4236   0.822   5.129   9.378 -0.8961 -0.3036  0.7550
  773MOL0     N 4237   0.758   5.177   9.498 -0.2897 -0.0802 -0.1218
  773MOL0     C 4238   0.622   5.196   9.512  0.4235 -0.4157 -0.5189
  773MOL0     C 4239   0.598   5.203   9.645  0.1533 -0.0302  0.1632
  773MOL0     C 4240   0.469   5.254   9.700  1.2870 -0.3730  0.3494
  773MOL0     C 4241   0.343   5.171   9.679  0.1121 -0.3903 -0.2303
  773MOL0     C 4242   0.321   5.072   9.791  0.7777 -0.1997  0.5656
  773MOL0     C 4243   0.428   4.969   9.818  0.6657 -0.4366  0.1847
  773MOL0     O 4244   0.394   4.926   9.957 -0.0160  0.1805  0.7289
  773MOL0     C 4245   0.406   4.793   9.980  0.0456 -0.6878 -0.7810
  773MOL0     C 4246   0.522   4.717   9.947  0.0484  0.3516 -0.0925
  773MOL0     C 4247   0.530   4.586   9.974  0.1193  0.7041  0.4288
  773MOL0     C 4248   0.410   4.523  10.018 -0.3749  0.8792  0.6092
  773MOL0     C 4249   0.400   4.373  10.018  0.3221 -0.4273 -1.4913
  773MOL0     O 4250   0.284   4.322  10.090 -0.4447 -0.3079 -0.0301
  773MOL0     C 4251   0.265   4.195  10.110  0.5447  0.6252 -0.3331
  773MOL0     C 4252   0.265   4.101  10.001  0.2382 -0.8552  0.0365
  773MOL0     C 4253   0.234   3.963  10.023 -0.5182  0.2720  0.3855
  773MOL0     C 4254   0.215   3.913  10.153 -0.1164 -0.8055  0.0530
  773MOL0     O 4255   0.184   3.782  10.193  0.2832 -0.6241  0.1176
  773MOL0     C 4256   0.145   3.685  10.098 -0.6598  0.6705  0.4295
  773MOL0     C 4257   0.098   3.567  10.179 -0.0740  0.1245 -0.1797
  773MOL0     C 4258   0.090   3.440  10.099 -0.7301  1.0390 -0.5076
  773MOL0     C 4259   0.087   3.324  10.199  0.4404 -0.3252 -0.3387
  773MOL0     C 4260   0.090   3.191  10.133  0.1009  0.4015  0.1449
  773MOL0     C 4261   0.224   3.169  10.056  0.3823  0.5220 -0.6872
  773MOL0     C 4262   0.242   3.018  10.011  0.2207 -0.8474  0.0846
  773MOL0     C 4263   0.355   3.005   9.909 -0.0249  0.0658  1.0371
  773MOL0    Cl 4264   0.315   3.053   9.749  0.0833  0.2658 -0.2022
  773MOL0     C 4265   0.216   4.010  10.266 -1.0668  0.5637 -0.0305
  773MOL0     C 4266   0.245   4.143  10.243 -0.7087 -0.1897 -0.3578
  773MOL0     O 4267   0.492   4.310   9.964  1.1126  0.5666  0.4265
  773MOL0     C 4268   0.296   4.598  10.069 -0.5175 -0.3567  0.6359
  773MOL0     C 4269   0.293   4.730  10.029 -0.5598 -0.4915 -0.0796
  773MOL0     N 4270   0.720   5.183   9.708 -0.2471 -0.3569  0.0683
  773MOL0     N 4271   0.811   5.179   9.621 -0.2147 -0.0523  0.0948
  773MOL0     C 4272   0.786   6.118   9.658  0.7130  0.0480  0.5449
  773MOL0     C 4273   0.729   6.224   9.728  0.4768 -0.1551  0.0298
  773MOL0     C 4274   0.477   6.625   9.775  0.3457 -0.3721 -0.6917
  773MOL0     C 4275   0.374   6.698   9.712 -0.3805 -0.2387  0.1120
  773MOL0     C 4276   0.329   6.810   9.776  0.9527 -0.8510 -1.1276
  773MOL0     C 4277   0.387   6.868   9.895  0.8604  0.8086  0.2129
  773MOL0     O 4278   0.316   6.985   9.938  0.0877  0.2713  0.4811
  773MOL0     C 4279   0.379   7.056  10.042  0.3272  0.7767  1.0244
  773MOL0     C 4280   0.304   7.178  10.085 -0.3459  0.1319  0.2029
  773MOL0     C 4281   0.388   7.261  10.184 -1.1280 -0.8271 -0.7850
  773MOL0     C 4282   0.304   7.375  10.247 -0.0343 -0.0894  0.2621
  773MOL0     C 4283   0.237   7.473  10.159 -0.5213  0.1302  0.7381
  773MOL0     C 4284   0.173   7.555  10.086  0.1196  0.4254 -1.0004
  773MOL0     C 4285   0.483   6.793   9.955  0.2973  0.2965  0.4750
  773MOL0     C 4286   0.532   6.671   9.897  0.8796 -0.4876  0.0342
  773MOL0     C 4287   0.637   6.599   9.976  0.3506  0.0470  0.0696
  773MOL0     H 4288   0.734   6.463   9.492  0.4687  1.0910  0.0046
  773MOL0     H 4289   0.807   6.283   9.355  1.0758  1.6465  0.3857
  773MOL0     H 4290   0.911   5.875   9.550 -1.4021 -0.0018  0.0880
  773MOL0     H 4291   0.745   5.865   9.480 -1.3773  0.2344 -0.9439
  773MOL0     H 4292   1.024   5.856   9.350 -0.2504  0.1255  3.2984
  773MOL0     H 4293   0.878   5.844   9.252 -1.5977  0.2244 -0.5908
  773MOL0     H 4294   0.814   5.621   9.378  0.0865  0.7625  2.4658
  773MOL0     H 4295   0.958   5.635   9.457  0.1543 -2.8038 -0.6439
  773MOL0     H 4296   0.964   5.609   9.146  1.3526 -4.7638 -1.5001
  773MOL0     H 4297   1.106   5.627   9.257 -0.8525  1.5336  1.3454
  773MOL0     H 4298   1.051   5.392   9.182 -0.1778 -1.6266  0.5473
  773MOL0     H 4299   1.103   5.435   9.349 -1.9315 -0.8194  1.9463
  773MOL0     H 4300   0.852   5.419   9.407  0.5640  2.1946 -1.8280
  773MOL0     H 4301   0.820   5.379   9.238 -2.0112  2.8860  1.1446
  773MOL0     H 4302   1.015   5.226   9.414  1.4956  1.7541 -0.7050
  773MOL0     H 4303   0.985   5.184   9.253  2.2702  0.8774  0.9984
  773MOL0     H 4304   0.749   5.139   9.296 -0.1171 -0.1914  0.0584
  773MOL0     H 4305   0.856   5.029   9.405  1.7913 -0.5211 -2.7058
  773MOL0     H 4306   0.546   5.212   9.437 -0.2377 -1.1823 -0.0280
  773MOL0     H 4307   0.477   5.283   9.805 -1.4560  1.9425  0.0324
  773MOL0     H 4308   0.452   5.352   9.655  1.7292 -0.9048 -1.0209
  773MOL0     H 4309   0.261   5.243   9.680  1.1539  0.8390  0.1862
  773MOL0     H 4310   0.344   5.121   9.581 -1.8432 -1.4135  0.2243
  773MOL0     H 4311   0.233   5.014   9.763  2.1566  0.0509 -5.4940
  773MOL0     H 4312   0.282   5.136   9.872 -0.2746 -0.3450  0.1900
  773MOL0     H 4313   0.531   5.003   9.804  0.8036 -0.9238  0.0282
  773MOL0     H 4314   0.421   4.888   9.745 -2.5238 -0.2385  0.1330
  773MOL0     H 4315   0.613   4.767   9.914  0.5505  0.9855  2.0727
  773MOL0     H 4316   0.612   4.526   9.934 -0.9635  1.3218 -3.0555
  773MOL0     H 4317   0.277   4.139   9.900 -0.9841  0.8909  0.5180
  773MOL0     H 4318   0.258   3.888   9.948 -1.5727 -0.6482  0.9317
  773MOL0     H 4319   0.062   3.723  10.037 -1.5160 -1.2268  0.3422
  773MOL0     H 4320   0.227   3.657  10.031  0.1429  0.5985  1.4192
  773MOL0     H 4321   0.163   3.545  10.265 -0.6665 -2.5433 -0.3010
  773MOL0     H 4322  -0.004   3.579  10.216 -0.6005 -2.2745 -0.6843
  773MOL0     H 4323   0.005   3.426  10.031 -0.1530 -1.4535 -0.7808
  773MOL0     H 4324   0.180   3.424  10.038 -1.6644 -1.0485 -1.4220
  773MOL0     H 4325   0.000   3.342  10.263 -0.5776  0.6239 -1.9096
  773MOL0     H 4326   0.179   3.318  10.258  1.3676  0.4872 -1.6407
  773MOL0     H 4327   0.007   3.182  10.062  1.9641  0.6880 -2.2095
  773MOL0     H 4328   0.073   3.122  10.216  0.4408  4.2155  3.7449
  773MOL0     H 4329   0.212   3.228   9.964 -0.4483  1.3847 -0.0468
  773MOL0     H 4330   0.312   3.205  10.110  0.5316 -0.8320 -0.0054
  773MOL0     H 4331   0.148   2.974   9.975  1.6194 -3.0357 -1.1243
  773MOL0     H 4332   0.263   2.963  10.103  2.5255  0.9142  0.7049
  773MOL0     H 4333   0.440   3.068   9.936  0.1555  1.1408 -1.7819
  773MOL0     H 4334   0.373   2.898   9.895  2.5347  0.7768 -2.0267
  773MOL0     H 4335   0.197   3.964  10.362 -3.3771 -0.1079 -0.7320
  773MOL0     H 4336   0.260   4.206  10.330  0.7677 -1.1255  0.1099
  773MOL0     H 4337   0.218   4.561  10.135  0.9193 -0.3645  2.3957
  773MOL0     H 4338   0.207   4.792  10.055 -1.4634 -0.3797 -2.9468
  773MOL0     H 4339   0.795   6.021   9.706 -0.4538 -0.8915 -1.0181
  773MOL0     H 4340   0.712   6.212   9.834  2.7061  1.5829  0.6608
  773MOL0     H 4341   0.347   6.658   9.615  1.5979 -2.4119  0.3735
  773MOL0     H 4342   0.257   6.881   9.737  0.5243 -2.4321 -3.3662
  773MOL0     H 4343   0.476   7.095  10.009 -0.2244  1.7845  0.5638
  773MOL0     H 4344   0.394   6.984  10.123  2.5693 -0.1359 -0.0851
  773MOL0     H 4345   0.215   7.149  10.141 -0.1465  0.0487  0.4787
  773MOL0     H 4346   0.281   7.243  10.000  3.4004 -1.0255 -1.9208
  773MOL0     H 4347   0.479   7.303  10.141  0.2709 -1.5575  1.2880
  773MOL0     H 4348   0.406   7.198  10.272  0.0647  1.8265  0.9798
  773MOL0     H 4349   0.234   7.335  10.322 -0.7767 -1.7863 -1.2813
  773MOL0     H 4350   0.384   7.433  10.294 -1.4947  0.9915  1.5322
  773MOL0     H 4351   0.115   7.627  10.033  0.6425  1.2950 -0.4139
  773MOL0     H 4352   0.519   6.831  10.050 -2.3336  3.1179  0.4994
  773MOL0     H 4353   0.733   6.605   9.922  0.7070 -2.5295  0.2957
  773MOL0     H 4354   0.669   6.642  10.072 -0.4005 -0.3665  0.5097
  773MOL0     H 4355   0.611   6.493   9.981  2.2731 -0.4598  0.3341
  774MOL0     O 4356   8.288   5.923   3.866 -0.9535  0.6089 -0.1971
  774MOL0     C 4357   8.407   5.937   3.824  0.9357  1.1560 -0.0885
  774MOL0     O 4358   8.469   6.052   3.825 -0.5477 -0.3426 -0.0946
  774MOL0     C 4359   8.407   6.174   3.804  0.5214 -0.1678  0.1303
  774MOL0     C 4360   8.489   6.287   3.821 -0.1310 -0.6948 -0.1175
  774MOL0     C 4361   8.441   6.426   3.815 -0.8531  0.0854  0.5069
  774MOL0     C 4362   8.310   6.445   3.754 -0.0787  0.1270  0.4670
  774MOL0     O 4363   8.264   6.570   3.738  0.8475  0.1140  0.1179
  774MOL0     C 4364   8.125   6.602   3.727  0.6259  0.2045 -0.8594
  774MOL0     C 4365   8.113   6.755   3.694 -0.4748 -0.0218  0.2554
  774MOL0     C 4366   8.180   6.853   3.789 -0.2807 -0.3652  0.0143
  774MOL0     C 4367   8.175   6.992   3.721 -0.5332  0.1028 -0.8389
  774MOL0     C 4368   8.251   7.099   3.805  0.6305  0.6967 -0.0432
  774MOL0     C 4369   8.366   7.147   3.721  0.3770 -0.8272 -0.5687
  774MOL0     C 4370   8.435   7.263   3.806 -0.1775  0.1857 -0.1058
  774MOL0     C 4371   8.520   7.346   3.711 -0.1444 -0.0739  0.2433
  774MOL0     N 4372   8.614   7.441   3.785  0.4170 -0.6968 -0.3424
  774MOL0     C 4373   8.723   7.400   3.858  0.5339 -0.0262  0.4083
  774MOL0     C 4374   8.773   7.507   3.922  0.4809 -0.1332 -1.2021
  774MOL0     C 4375   8.900   7.508   4.008  0.4727 -0.7905 -0.6340
  774MOL0     C 4376   9.014   7.599   3.940  0.6419  0.1753  0.0072
  774MOL0     C 4377   9.152   7.568   4.006  1.0097  0.0476  0.0787
  774MOL0     C 4378   9.244   7.658   3.938 -0.8224  0.4409 -0.5076
  774MOL0     O 4379   9.362   7.625   4.015  0.9139 -0.0090  0.3992
  774MOL0     C 4380   9.469   7.705   3.980  0.6077  0.1940  0.2387
  774MOL0     C 4381   9.479   7.837   4.014 -0.2728  0.0816  0.5640
  774MOL0     C 4382   9.587   7.912   3.981  0.4509  0.0118 -0.0310
  774MOL0     C 4383   9.685   7.855   3.890  0.4101 -0.6343 -0.6051
  774MOL0     C 4384   9.785   7.943   3.833  0.3199  0.6430 -0.5903
  774MOL0     O 4385   9.860   7.872   3.733  0.0905  0.3083  0.4170
  774MOL0     C 4386   9.934   7.962   3.658 -1.3952 -0.2381 -0.3787
  774MOL0     C 4387   9.887   8.050   3.561 -0.2861 -0.9072 -0.2660
  774MOL0     C 4388   9.975   8.135   3.490 -0.1453 -0.7848 -0.2972
  774MOL0     C 4389  10.109   8.140   3.525 -0.0534  0.7016  0.7336
  774MOL0     O 4390  10.196   8.220   3.462  0.0733 -0.0135  0.7079
  774MOL0     C 4391  10.322   8.246   3.519  1.6900 -0.5397 -0.9089
  774MOL0     C 4392  10.403   8.338   3.430 -0.7177 -0.2332  0.0221
  774MOL0     C 4393  10.521   8.400   3.509 -0.4458  0.4330 -0.0084
  774MOL0     C 4394  10.624   8.465   3.411 -0.3838  0.1562  0.2331
  774MOL0     C 4395  10.752   8.530   3.477 -0.1943  0.3461 -0.3425
  774MOL0     C 4396  10.801   8.660   3.407  0.0040  1.2834 -0.1561
  774MOL0     C 4397  10.922   8.730   3.485 -0.1151 -0.2564 -0.2860
  774MOL0     C 4398  10.895   8.734   3.634  0.7060  0.0161 -0.7306
  774MOL0    Cl 4399  10.763   8.847   3.669 -0.2901 -0.6758 -0.1903
  774MOL0     C 4400  10.157   8.056   3.622 -0.1822 -0.0183 -0.5558
  774MOL0     C 4401  10.070   7.973   3.694  0.0193  0.9344  0.5031
  774MOL0     O 4402   9.801   8.059   3.876 -0.3622  0.0262  0.7595
  774MOL0     C 4403   9.681   7.720   3.861  0.1060  0.2988  0.5158
  774MOL0     C 4404   9.574   7.652   3.909  0.4347  0.4193  0.3919
  774MOL0     N 4405   8.689   7.609   3.893 -1.3949 -0.0482 -0.1512
  774MOL0     N 4406   8.594   7.571   3.826  0.7028  0.4034 -0.0785
  774MOL0     C 4407   8.233   6.328   3.733  0.2654 -0.6727  0.0523
  774MOL0     C 4408   8.276   6.202   3.751 -0.5854  0.6863  0.3628
  774MOL0     C 4409   8.487   5.820   3.791  0.0726 -0.1457  0.0019
  774MOL0     C 4410   8.622   5.842   3.766  0.3137  0.6018 -1.0203
  774MOL0     C 4411   8.707   5.733   3.745  0.1783 -0.8853  0.1736
  774MOL0     C 4412   8.659   5.602   3.720 -0.7391 -1.1034 -0.6407
  774MOL0     O 4413   8.735   5.491   3.681 -0.2221 -0.0193  0.8006
  774MOL0     C 4414   8.860   5.519   3.612  1.5407  0.2100 -0.3746
  774MOL0     C 4415   8.851   5.575   3.465 -0.0299  0.3788 -0.6773
  774MOL0     C 4416   8.992   5.606   3.409  0.0754  0.0104  0.0627
  774MOL0     C 4417   9.101   5.498   3.445  0.7687  0.1630 -0.4456
  774MOL0     C 4418   9.228   5.534   3.383 -0.9246  0.4469 -0.0806
  774MOL0     C 4419   9.319   5.574   3.317 -0.2234  0.8388  0.6177
  774MOL0     C 4420   8.527   5.582   3.755  0.7382  0.9999 -0.0895
  774MOL0     C 4421   8.439   5.685   3.784  0.1056 -0.0081 -0.1728
  774MOL0     C 4422   8.301   5.644   3.821  0.9184 -0.5854 -0.1853
  774MOL0     H 4423   8.588   6.282   3.866 -0.1545  1.8784  0.3905
  774MOL0     H 4424   8.501   6.509   3.849  0.1822 -0.5196  0.2035
  774MOL0     H 4425   8.064   6.534   3.667 -1.1046 -0.4115  1.4884
  774MOL0     H 4426   8.083   6.588   3.826  1.4815 -2.8491 -0.8404
  774MOL0     H 4427   8.007   6.780   3.697 -1.1056 -2.4117  3.6815
  774MOL0     H 4428   8.169   6.773   3.602 -0.6742 -0.1791  0.1059
  774MOL0     H 4429   8.282   6.818   3.809 -0.7133 -0.8782  1.4133
  774MOL0     H 4430   8.138   6.845   3.889  4.0746 -0.4672  2.0727
  774MOL0     H 4431   8.220   6.985   3.621  0.8388 -0.3779 -0.2075
  774MOL0     H 4432   8.072   7.024   3.699 -0.1721  0.3773 -2.2705
  774MOL0     H 4433   8.186   7.184   3.828  0.0140 -0.0764  1.1587
  774MOL0     H 4434   8.292   7.051   3.894 -1.7856  0.3942  0.9874
  774MOL0     H 4435   8.444   7.071   3.720  1.0826 -0.1176 -0.8993
  774MOL0     H 4436   8.319   7.182   3.629 -0.6126 -2.5907 -0.7714
  774MOL0     H 4437   8.496   7.218   3.885  3.0042  0.7777 -2.0433
  774MOL0     H 4438   8.359   7.332   3.845  1.2136  4.1528 -3.6080
  774MOL0     H 4439   8.579   7.271   3.656  1.5993  2.9040 -2.2497
  774MOL0     H 4440   8.472   7.406   3.634 -0.7476 -2.1106 -1.0607
  774MOL0     H 4441   8.751   7.295   3.852 -2.6182 -0.8926 -4.3296
  774MOL0     H 4442   8.888   7.550   4.108 -0.8263 -0.9011 -0.7260
  774MOL0     H 4443   8.931   7.404   4.025  0.8285 -0.7120 -0.7959
  774MOL0     H 4444   9.018   7.568   3.835  1.0439  0.2070  0.0115
  774MOL0     H 4445   8.994   7.706   3.933  1.8576  0.3484 -1.2279
  774MOL0     H 4446   9.184   7.464   3.995  0.1186 -0.3763  1.2285
  774MOL0     H 4447   9.142   7.585   4.114 -0.6540 -2.1188  0.3492
  774MOL0     H 4448   9.204   7.759   3.955 -0.3684  0.3575  1.2468
  774MOL0     H 4449   9.259   7.626   3.835 -1.8774 -0.2296 -0.4704
  774MOL0     H 4450   9.397   7.865   4.081  0.2120  1.2757  0.6892
  774MOL0     H 4451   9.581   8.015   4.014  1.1078 -0.6661  2.4734
  774MOL0     H 4452   9.783   8.046   3.532 -0.8988 -1.7101  1.8588
  774MOL0     H 4453   9.918   8.188   3.414 -2.8538 -1.5729  1.0744
  774MOL0     H 4454  10.308   8.307   3.608  1.9170 -1.2114 -0.4007
  774MOL0     H 4455  10.380   8.154   3.531  0.5237 -1.4512 -2.0105
  774MOL0     H 4456  10.448   8.286   3.345  1.4184  1.2604  0.1610
  774MOL0     H 4457  10.336   8.418   3.396 -1.1238  0.3807  2.1279
  774MOL0     H 4458  10.472   8.485   3.557 -1.1688 -0.2972  0.5771
  774MOL0     H 4459  10.572   8.332   3.578  1.9416  2.8225  0.7718
  774MOL0     H 4460  10.567   8.522   3.338 -1.8603 -2.2273 -0.5959
  774MOL0     H 4461  10.675   8.400   3.339  0.0554  3.7655 -3.0119
  774MOL0     H 4462  10.831   8.454   3.473 -1.6849 -1.5351  2.4944
  774MOL0     H 4463  10.715   8.551   3.578 -1.2389  1.7434 -0.9771
  774MOL0     H 4464  10.822   8.624   3.305 -0.2245  0.3768  0.1044
  774MOL0     H 4465  10.717   8.729   3.397 -0.2302  1.2231  1.1983
  774MOL0     H 4466  10.943   8.832   3.452  0.6533  0.2300  1.6027
  774MOL0     H 4467  11.012   8.669   3.472  0.5852  0.6050  0.4461
  774MOL0     H 4468  10.874   8.634   3.674 -0.2951 -0.4342 -2.2891
  774MOL0     H 4469  10.990   8.762   3.680  0.7222  2.9229 -2.3160
  774MOL0     H 4470  10.260   8.052   3.656 -0.0587  1.2499 -0.7656
  774MOL0     H 4471  10.115   7.908   3.769 -0.7431 -1.8859 -1.2909
  774MOL0     H 4472   9.763   7.671   3.810 -2.7617 -1.8139 -2.5157
  774MOL0     H 4473   9.562   7.545   3.899 -0.0304  0.3361  1.6652
  774MOL0     H 4474   8.135   6.334   3.686  1.0044  0.3607 -1.4131
  774MOL0     H 4475   8.222   6.119   3.709 -0.1579  0.6756 -0.1724
  774MOL0     H 4476   8.671   5.938   3.767 -0.3239  0.9341  0.3419
  774MOL0     H 4477   8.812   5.760   3.756 -0.3127  0.8896  0.9859
  774MOL0     H 4478   8.904   5.419   3.604 -0.5562 -0.6568 -2.9335
  774MOL0     H 4479   8.921   5.588   3.671  1.8727 -0.3657 -0.0381
  774MOL0     H 4480   8.787   5.664   3.460 -1.2282 -0.3021  1.4991
  774MOL0     H 4481   8.802   5.494   3.409  0.5168  0.1521 -0.8335
  774MOL0     H 4482   9.035   5.695   3.455  1.9582 -2.3122  3.1650
  774MOL0     H 4483   8.990   5.615   3.300 -1.8764 -2.9850 -0.2806
  774MOL0     H 4484   9.119   5.495   3.553  1.2289  1.1033 -0.4790
  774MOL0     H 4485   9.076   5.400   3.405 -0.2823  0.9579 -1.8112
  774MOL0     H 4486   9.392   5.608   3.246  1.2881 -1.0709  1.1687
  774MOL0     H 4487   8.488   5.481   3.747 -0.0795  1.1734  1.3087
  774MOL0     H 4488   8.263   5.677   3.919 -3.0741 -1.2239 -1.3249
  774MOL0     H 4489   8.229   5.681   3.748  0.9602 -2.0148 -0.9926
  774MOL0     H 4490   8.282   5.536   3.823 -1.3997 -0.3513 -3.0867
  775MOL0     O 4491   6.596   5.683   0.258 -0.2690  0.1376 -0.2662
  775MOL0     C 4492   6.707   5.751   0.274  0.5540  0.1022  0.8789
  775MOL0     O 4493   6.722   5.864   0.347 -0.1503 -0.8097  0.4417
  775MOL0     C 4494   6.611   5.930   0.403 -1.0227 -0.2261 -1.0927
  775MOL0     C 4495   6.502   5.860   0.465  0.1664  0.1921 -0.9137
  775MOL0     C 4496   6.407   5.940   0.523 -0.2781 -0.7555 -1.3827
  775MOL0     C 4497   6.431   6.077   0.549 -0.4193  0.9907  0.1538
  775MOL0     O 4498   6.320   6.143   0.587  0.4614  0.0047 -0.8240
  775MOL0     C 4499   6.309   6.155   0.728  0.3767  0.1676 -0.0681
  775MOL0     C 4500   6.174   6.104   0.787 -0.0368  0.3733 -0.2409
  775MOL0     C 4501   6.067   6.209   0.781 -0.4554 -0.3809  0.0984
  775MOL0     C 4502   6.040   6.274   0.647 -0.0514 -0.7733 -0.8176
  775MOL0     C 4503   5.955   6.189   0.558 -0.8395  0.5651 -0.3122
  775MOL0     C 4504   5.936   6.253   0.422  1.3620 -0.2902  0.3567
  775MOL0     C 4505   6.057   6.234   0.323  0.2640  0.4589 -0.8891
  775MOL0     C 4506   6.070   6.090   0.268 -0.8314 -0.3931  0.2190
  775MOL0     N 4507   6.160   6.083   0.153 -0.1582 -0.3741  0.3949
  775MOL0     C 4508   6.292   6.062   0.153  0.1070 -0.2119  0.0624
  775MOL0     C 4509   6.321   6.029   0.022 -0.1447  0.3589 -0.4238
  775MOL0     C 4510   6.457   6.023  -0.027  0.6237 -0.0445  0.4958
  775MOL0     C 4511   6.499   5.875  -0.033  0.1753  0.8340  0.4744
  775MOL0     C 4512   6.613   5.875  -0.141  0.6986 -0.0941  0.4342
  775MOL0     C 4513   6.679   5.745  -0.151 -0.6767  0.3004  0.4327
  775MOL0     O 4514   6.586   5.651  -0.195 -0.1480  0.7139  0.7664
  775MOL0     C 4515   6.636   5.527  -0.230 -0.6395  0.7218 -1.1659
  775MOL0     C 4516   6.549   5.420  -0.257 -0.0271 -0.2079  0.0619
  775MOL0     C 4517   6.594   5.291  -0.305  0.0343 -0.4435 -0.5348
  775MOL0     C 4518   6.730   5.256  -0.301  0.6078  0.0854  0.0924
  775MOL0     C 4519   6.767   5.123  -0.328  0.2439 -0.0079  0.1285
  775MOL0     O 4520   6.888   5.104  -0.389  0.2326 -0.0768 -0.3721
  775MOL0     C 4521   6.932   4.989  -0.444  0.1370 -0.4879 -0.3511
  775MOL0     C 4522   7.071   4.980  -0.479 -0.4630 -0.9568  0.2238
  775MOL0     C 4523   7.131   4.851  -0.493 -0.0995  1.2945 -0.4435
  775MOL0     C 4524   7.057   4.732  -0.482 -0.5060 -0.4925 -0.3585
  775MOL0     O 4525   7.119   4.608  -0.490 -0.1987 -0.0733  0.8979
  775MOL0     C 4526   7.069   4.508  -0.582  0.5335 -0.3417 -0.0376
  775MOL0     C 4527   7.145   4.522  -0.711  0.1246 -0.4514 -0.3282
  775MOL0     C 4528   7.095   4.613  -0.827  0.2809  0.5588 -0.5547
  775MOL0     C 4529   6.958   4.585  -0.887  0.6142 -1.2297  0.7264
  775MOL0     C 4530   6.940   4.681  -1.009  0.0881 -1.3412 -0.1664
  775MOL0     C 4531   6.931   4.835  -0.967 -0.6569  0.2132  0.0747
  775MOL0     C 4532   6.928   4.916  -1.092  0.1477  0.4361  0.0430
  775MOL0     C 4533   6.857   5.043  -1.076  0.2308  0.3557  0.0382
  775MOL0    Cl 4534   6.921   5.150  -0.946  0.1892  0.2462  0.3509
  775MOL0     C 4535   6.919   4.740  -0.468 -0.3300  0.2635 -0.8319
  775MOL0     C 4536   6.860   4.860  -0.438  0.0948  0.2974 -0.0128
  775MOL0     O 4537   6.674   5.045  -0.304 -0.1795  0.0039 -0.9865
  775MOL0     C 4538   6.812   5.366  -0.270  1.4582  0.0971  0.0044
  775MOL0     C 4539   6.767   5.497  -0.237 -0.3050 -0.8422  0.0013
  775MOL0     N 4540   6.206   6.024  -0.062 -0.1461 -0.0609 -0.7991
  775MOL0     N 4541   6.114   6.055   0.026 -0.2162  0.6753 -0.4871
  775MOL0     C 4542   6.533   6.148   0.486  0.8040 -0.3180  0.1464
  775MOL0     C 4543   6.621   6.068   0.411  0.5705 -1.2201 -0.3612
  775MOL0     C 4544   6.828   5.689   0.227 -0.3426 -0.6036 -0.0754
  775MOL0     C 4545   6.829   5.550   0.236 -0.5330 -0.1393 -0.2782
  775MOL0     C 4546   6.939   5.484   0.193  0.0384  0.4919 -0.1448
  775MOL0     C 4547   7.048   5.551   0.127  0.1745  0.0471  0.0004
  775MOL0     O 4548   7.146   5.486   0.064 -0.6780  0.2633  1.0605
  775MOL0     C 4549   7.167   5.342   0.065  0.4697 -0.2073  0.2105
  775MOL0     C 4550   7.273   5.319   0.167 -0.0547  0.0810  0.5205
  775MOL0     C 4551   7.361   5.198   0.133 -0.3287  1.1695  0.1288
  775MOL0     C 4552   7.456   5.161   0.247 -0.8419  0.6705 -0.7740
  775MOL0     C 4553   7.579   5.228   0.252  0.5270 -0.7615  0.3464
  775MOL0     C 4554   7.682   5.283   0.280  0.6710  0.0491  0.0946
  775MOL0     C 4555   7.042   5.688   0.116 -0.0491 -0.6396 -0.0365
  775MOL0     C 4556   6.940   5.758   0.180  0.5220  0.2702 -0.3973
  775MOL0     C 4557   6.956   5.910   0.177 -0.4734 -1.2621 -0.0464
  775MOL0     H 4558   6.492   5.752   0.467  3.6336 -0.2696  1.2279
  775MOL0     H 4559   6.307   5.905   0.546 -0.6313  0.7962 -0.3565
  775MOL0     H 4560   6.390   6.104   0.783  1.9583  3.3450  0.8111
  775MOL0     H 4561   6.322   6.263   0.738 -2.6965  0.8110 -1.7935
  775MOL0     H 4562   6.185   6.083   0.894 -1.1588  2.9293  0.4456
  775MOL0     H 4563   6.137   6.013   0.739  1.5746 -1.2430  1.4225
  775MOL0     H 4564   6.109   6.297   0.830  0.8904  1.3902 -3.8301
  775MOL0     H 4565   5.981   6.171   0.837  0.3575  0.7202  2.1808
  775MOL0     H 4566   5.989   6.368   0.667  2.6598  0.4607  0.8631
  775MOL0     H 4567   6.137   6.297   0.602  1.1949 -0.2138  1.9685
  775MOL0     H 4568   6.005   6.092   0.558  1.8347  1.8336  0.4806
  775MOL0     H 4569   5.859   6.170   0.606 -1.3189 -0.8906 -1.7633
  775MOL0     H 4570   5.846   6.214   0.374  1.4476  0.9758 -0.8922
  775MOL0     H 4571   5.931   6.361   0.438 -1.1506 -0.5432  1.7410
  775MOL0     H 4572   6.151   6.283   0.352 -0.5059  1.0670  0.7025
  775MOL0     H 4573   6.019   6.291   0.238 -0.6329  0.9109 -0.1972
  775MOL0     H 4574   6.122   6.025   0.339 -0.4321 -1.2640 -0.8406
  775MOL0     H 4575   5.977   6.043   0.236 -0.4738 -1.1463  0.2550
  775MOL0     H 4576   6.348   6.080   0.245  3.2776 -1.4175 -1.4808
  775MOL0     H 4577   6.454   6.072  -0.125 -0.0513  1.9829  1.4738
  775MOL0     H 4578   6.521   6.080   0.040  0.1360  0.4412  0.5579
  775MOL0     H 4579   6.529   5.833   0.064 -1.6331 -0.7772  0.3827
  775MOL0     H 4580   6.423   5.810  -0.076  1.6919  0.5393 -1.9213
  775MOL0     H 4581   6.685   5.954  -0.118 -1.5734  1.3675  2.9583
  775MOL0     H 4582   6.564   5.898  -0.236  0.5239  0.0783  0.5658
  775MOL0     H 4583   6.714   5.708  -0.054  0.5721  0.1027 -0.0647
  775MOL0     H 4584   6.769   5.759  -0.212 -1.9074 -1.0054 -1.8168
  775MOL0     H 4585   6.443   5.439  -0.272 -0.5922 -2.4375  0.7620
  775MOL0     H 4586   6.520   5.222  -0.343 -2.2266  1.3853  0.3237
  775MOL0     H 4587   7.126   5.073  -0.494 -3.5966  0.7548 -2.0865
  775MOL0     H 4588   7.233   4.841  -0.529 -0.6352 -1.9628 -1.3199
  775MOL0     H 4589   7.092   4.413  -0.532 -0.5525 -0.9641 -0.7065
  775MOL0     H 4590   6.961   4.504  -0.598  0.2655 -0.4608  1.5705
  775MOL0     H 4591   7.246   4.554  -0.680 -0.3459 -0.7310  1.6412
  775MOL0     H 4592   7.142   4.422  -0.754 -1.3349  0.3095 -2.0946
  775MOL0     H 4593   7.109   4.711  -0.781  1.8582 -0.6124  1.6495
  775MOL0     H 4594   7.167   4.607  -0.909  0.6256  2.6794 -0.4648
  775MOL0     H 4595   6.884   4.594  -0.807  1.7438  2.2889  1.5540
  775MOL0     H 4596   6.967   4.483  -0.926  3.5048 -0.1649 -1.7680
  775MOL0     H 4597   6.851   4.651  -1.065  0.8837  0.9003 -2.8904
  775MOL0     H 4598   7.023   4.677  -1.080  2.1858  3.1611  1.6146
  775MOL0     H 4599   6.840   4.847  -0.908 -0.6042  1.9693 -0.1392
  775MOL0     H 4600   7.028   4.865  -0.926  0.1102 -0.8522 -0.8784
  775MOL0     H 4601   6.852   4.865  -1.152 -2.5444 -1.0775  4.2707
  775MOL0     H 4602   7.024   4.936  -1.140  2.7156 -0.5856  4.2187
  775MOL0     H 4603   6.843   5.098  -1.169 -0.6458 -1.7184 -1.1442
  775MOL0     H 4604   6.753   5.019  -1.052  0.1239  0.8181  0.0348
  775MOL0     H 4605   6.855   4.652  -0.466  1.6705 -1.5376  5.0794
  775MOL0     H 4606   6.754   4.856  -0.414  0.3922 -2.9802  1.3603
  775MOL0     H 4607   6.918   5.345  -0.285  2.0018  1.9337  0.9478
  775MOL0     H 4608   6.850   5.557  -0.201 -0.1735 -0.7326 -0.4806
  775MOL0     H 4609   6.527   6.256   0.495 -1.8665 -0.2503 -1.3197
  775MOL0     H 4610   6.691   6.130   0.356  0.1562 -2.0590 -1.8830
  775MOL0     H 4611   6.753   5.480   0.267  1.2596 -1.6198  0.9713
  775MOL0     H 4612   6.944   5.376   0.202 -1.2771  0.5680  2.4805
  775MOL0     H 4613   7.195   5.304  -0.034 -1.3464 -0.6971 -0.1606
  775MOL0     H 4614   7.087   5.283   0.110  1.1977  0.5679  2.6845
  775MOL0     H 4615   7.244   5.304   0.271  5.2204  1.8675  2.5973
  775MOL0     H 4616   7.337   5.408   0.163 -1.2831  0.9724 -2.8348
  775MOL0     H 4617   7.418   5.214   0.041 -0.6988  2.2029  0.0615
  775MOL0     H 4618   7.307   5.108   0.104  2.0597 -1.2338  2.5640
  775MOL0     H 4619   7.396   5.172   0.338 -1.5327 -2.6483 -0.7161
  775MOL0     H 4620   7.483   5.056   0.238 -3.4476 -0.1410 -0.0481
  775MOL0     H 4621   7.779   5.328   0.286  0.2501  1.2116 -1.3472
  775MOL0     H 4622   7.128   5.738   0.071 -2.0018  0.5097 -2.7440
  775MOL0     H 4623   7.041   5.948   0.118 -0.2014 -0.2164  0.9908
  775MOL0     H 4624   6.868   5.946   0.123 -0.7593 -3.3445 -1.0779
  775MOL0     H 4625   6.963   5.941   0.281 -0.1755 -1.6250  0.0449
  776MOL0     O 4626   3.815   1.740   5.081  0.8278  0.4070 -0.3224
  776MOL0     C 4627   3.789   1.709   4.964 -0.3192 -0.7068 -0.5877
  776MOL0     O 4628   3.819   1.775   4.849 -0.0500 -0.2953  0.2269
  776MOL0     C 4629   3.921   1.871   4.845 -0.5161  0.9364 -0.3852
  776MOL0     C 4630   3.903   1.970   4.752 -0.3756  0.0292  0.3589
  776MOL0     C 4631   3.986   2.079   4.749 -0.5095 -0.3334 -0.9175
  776MOL0     C 4632   4.098   2.095   4.832 -0.3046 -0.5833  0.0352
  776MOL0     O 4633   4.179   2.206   4.824  0.0954 -0.6814 -0.4279
  776MOL0     C 4634   4.154   2.308   4.718 -0.2203  0.0860  0.0243
  776MOL0     C 4635   4.265   2.406   4.709  0.1725  0.7880  0.7417
  776MOL0     C 4636   4.272   2.492   4.839 -0.7701  0.9918 -0.1689
  776MOL0     C 4637   4.389   2.581   4.820 -0.7683 -0.2500  0.8865
  776MOL0     C 4638   4.523   2.522   4.858 -0.6067  0.0744 -0.3614
  776MOL0     C 4639   4.632   2.624   4.858  0.1001 -0.0222  0.2105
  776MOL0     C 4640   4.771   2.561   4.903 -0.6749 -0.3050 -0.8135
  776MOL0     C 4641   4.787   2.557   5.061  0.4090  1.3469 -0.6822
  776MOL0     N 4642   4.836   2.690   5.107  0.5552 -0.0749  1.3067
  776MOL0     C 4643   4.949   2.752   5.067  0.6467 -0.2247 -0.1503
  776MOL0     C 4644   4.969   2.868   5.139  0.5565 -0.0575 -0.3922
  776MOL0     C 4645   5.071   2.975   5.135  0.3143 -0.2340  0.4937
  776MOL0     C 4646   5.207   2.904   5.166 -0.6667  0.2619  0.1875
  776MOL0     C 4647   5.326   2.995   5.130  0.7391  0.5072 -0.0561
  776MOL0     C 4648   5.455   2.957   5.199 -0.0201 -0.4373  0.4188
  776MOL0     O 4649   5.576   3.025   5.148 -0.8588 -0.2351  0.1854
  776MOL0     C 4650   5.699   3.017   5.217  1.2112  0.4931 -0.5963
  776MOL0     C 4651   5.723   2.963   5.342  0.0476  1.4765  0.6834
  776MOL0     C 4652   5.845   2.950   5.392 -1.1348 -0.8666 -0.3156
  776MOL0     C 4653   5.957   2.997   5.327  0.3335  0.0632 -0.3852
  776MOL0     C 4654   6.093   2.991   5.395  0.4864  0.0559 -0.0719
  776MOL0     O 4655   6.082   2.935   5.515  0.2569  0.9862  0.6410
  776MOL0     C 4656   6.177   2.941   5.599  0.5843  0.1436 -0.4508
  776MOL0     C 4657   6.196   3.057   5.680  0.0188  0.1335  0.6349
  776MOL0     C 4658   6.273   3.046   5.800 -0.0536  0.0109 -0.3238
  776MOL0     C 4659   6.338   2.926   5.833  0.0005  0.2166  0.2032
  776MOL0     O 4660   6.432   2.928   5.940  0.6191 -0.0187 -0.1555
  776MOL0     C 4661   6.519   2.819   5.958  0.2497 -0.0171 -0.5280
  776MOL0     C 4662   6.614   2.841   6.074 -0.1790 -0.0530 -0.4130
  776MOL0     C 4663   6.730   2.742   6.079 -1.0172  0.3551  0.4066
  776MOL0     C 4664   6.809   2.728   6.215  0.0268 -0.3059 -0.6480
  776MOL0     C 4665   6.859   2.863   6.276  0.2236  0.7012 -0.2481
  776MOL0     C 4666   6.987   2.913   6.198 -0.0950 -0.2061  0.4861
  776MOL0     C 4667   7.045   3.033   6.278  0.0762  0.5589  0.0089
  776MOL0     C 4668   7.186   3.059   6.216 -0.2327  0.1243  0.1306
  776MOL0    Cl 4669   7.277   3.164   6.329 -0.1502 -0.2058  0.0380
  776MOL0     C 4670   6.325   2.817   5.745 -0.7073 -0.0333 -0.2181
  776MOL0     C 4671   6.239   2.815   5.629 -0.4618 -0.2618 -0.9725
  776MOL0     O 4672   6.195   3.028   5.334 -0.5527  0.3087  0.3583
  776MOL0     C 4673   5.931   3.082   5.215  0.3674 -0.3233 -0.4767
  776MOL0     C 4674   5.804   3.084   5.158 -0.2816 -0.0377 -0.8636
  776MOL0     N 4675   4.854   2.880   5.219 -0.5116  0.0962 -0.5512
  776MOL0     N 4676   4.779   2.771   5.193 -0.2633  0.0367 -0.0038
  776MOL0     C 4677   4.120   1.987   4.919 -0.5354  0.4392  0.1432
  776MOL0     C 4678   4.037   1.881   4.921  0.1801 -0.5445 -0.4319
  776MOL0     C 4679   3.713   1.588   4.953 -0.0001  0.1396 -0.4276
  776MOL0     C 4680   3.579   1.587   5.000 -0.3859  0.3488 -0.1438
  776MOL0     C 4681   3.496   1.482   4.979 -0.3336  0.6224  0.4771
  776MOL0     C 4682   3.548   1.366   4.912 -0.2201  0.2409 -0.0673
  776MOL0     O 4683   3.469   1.252   4.892 -0.4506  0.2776 -0.9385
  776MOL0     C 4684   3.378   1.219   5.003 -0.5229  0.3086  0.9097
  776MOL0     C 4685   3.457   1.171   5.138 -0.8012  0.3408  0.4292
  776MOL0     C 4686   3.536   1.029   5.124  0.7181  0.4476 -0.1410
  776MOL0     C 4687   3.596   0.979   5.258 -0.6687  0.0133  0.7389
  776MOL0     C 4688   3.499   0.924   5.354 -0.1244  0.8775  0.2696
  776MOL0     C 4689   3.410   0.896   5.433 -1.9465 -0.2268  0.5981
  776MOL0     C 4690   3.683   1.366   4.878 -0.2555 -0.5074  0.5183
  776MOL0     C 4691   3.773   1.475   4.895  0.2340  0.2372  0.0281
  776MOL0     C 4692   3.914   1.484   4.832  0.6693 -0.0346  0.6267
  776MOL0     H 4693   3.819   1.960   4.685 -1.1829 -0.1267  1.3651
  776MOL0     H 4694   3.956   2.157   4.680 -2.7290 -1.2882 -1.1206
  776MOL0     H 4695   4.164   2.252   4.624  0.2723 -0.3830  0.3528
  776MOL0     H 4696   4.051   2.345   4.727 -2.1061 -3.9748 -1.9910
  776MOL0     H 4697   4.246   2.482   4.632  1.6471  1.1280  0.6802
  776MOL0     H 4698   4.360   2.355   4.693  0.9996  1.7151  2.4249
  776MOL0     H 4699   4.269   2.436   4.933  2.1367 -0.1388 -0.6306
  776MOL0     H 4700   4.182   2.554   4.834 -0.8677  0.8685  0.0370
  776MOL0     H 4701   4.412   2.611   4.718  3.7529 -1.3827  1.3809
  776MOL0     H 4702   4.374   2.672   4.879 -3.2112 -0.8745  1.3410
  776MOL0     H 4703   4.529   2.467   4.952  2.7803 -2.8473 -2.0409
  776MOL0     H 4704   4.552   2.447   4.783  0.7172  0.6508 -0.4403
  776MOL0     H 4705   4.640   2.667   4.757 -0.7742  2.3041  1.0773
  776MOL0     H 4706   4.609   2.712   4.918  0.6554  0.2369  0.0496
  776MOL0     H 4707   4.855   2.613   4.855  0.2882 -0.2476  0.8886
  776MOL0     H 4708   4.774   2.457   4.868  0.1541 -0.4309 -0.3903
  776MOL0     H 4709   4.697   2.528   5.116  1.1702 -0.0765 -0.1481
  776MOL0     H 4710   4.859   2.476   5.078 -0.2679  1.0571  0.9512
  776MOL0     H 4711   5.017   2.705   4.997  1.5996  1.3326 -0.3273
  776MOL0     H 4712   5.062   2.997   5.028  0.5681 -2.2738  0.0234
  776MOL0     H 4713   5.049   3.059   5.202 -2.4056 -0.4494 -0.0450
  776MOL0     H 4714   5.213   2.872   5.270  3.6059  2.1879  0.7333
  776MOL0     H 4715   5.210   2.814   5.104 -1.5131  1.3183 -1.4439
  776MOL0     H 4716   5.310   3.100   5.156  1.7726  0.8635 -0.8187
  776MOL0     H 4717   5.346   3.009   5.024  2.2235  0.1689  0.1574
  776MOL0     H 4718   5.480   2.850   5.194  1.0815 -0.1252 -2.1010
  776MOL0     H 4719   5.444   2.973   5.307 -0.3845  1.4653  0.1366
  776MOL0     H 4720   5.647   2.931   5.413  0.1547 -2.6769 -0.7822
  776MOL0     H 4721   5.858   2.900   5.487 -1.7057  1.6550  1.1881
  776MOL0     H 4722   6.141   3.149   5.667 -1.5795 -1.1206 -2.5311
  776MOL0     H 4723   6.280   3.131   5.866 -2.8899 -2.0880  3.0619
  776MOL0     H 4724   6.465   2.729   5.987  1.8475 -1.4525 -1.8278
  776MOL0     H 4725   6.586   2.797   5.875  2.1787 -1.5189  1.3282
  776MOL0     H 4726   6.659   2.939   6.058 -0.0438  0.2290  1.4605
  776MOL0     H 4727   6.568   2.848   6.174  0.4871  2.8047 -0.2123
  776MOL0     H 4728   6.696   2.639   6.065 -1.8403  0.2363  2.7944
  776MOL0     H 4729   6.799   2.764   5.996 -0.2189  3.2041  1.7306
  776MOL0     H 4730   6.887   2.652   6.215  0.2495 -0.0867  0.5322
  776MOL0     H 4731   6.731   2.694   6.285 -1.7707  3.3502 -0.6130
  776MOL0     H 4732   6.866   2.846   6.384 -0.4370 -0.4765 -0.3755
  776MOL0     H 4733   6.787   2.944   6.280 -0.9056 -0.3031  3.4640
  776MOL0     H 4734   7.070   2.842   6.188  1.8749  1.7454  1.9507
  776MOL0     H 4735   6.951   2.955   6.104 -3.7867  1.9358  2.6121
  776MOL0     H 4736   7.047   3.011   6.385 -0.9454 -0.0014 -0.0771
  776MOL0     H 4737   6.987   3.125   6.265 -1.1806 -0.4819 -2.5610
  776MOL0     H 4738   7.245   2.967   6.213 -0.9343 -0.3853  1.2805
  776MOL0     H 4739   7.183   3.097   6.114  1.8855 -1.9756 -0.7958
  776MOL0     H 4740   6.365   2.719   5.764  1.0360  1.1222  2.7241
  776MOL0     H 4741   6.216   2.721   5.580 -3.3857 -1.6473  2.6028
  776MOL0     H 4742   6.019   3.127   5.170  2.0372 -1.9574  0.9641
  776MOL0     H 4743   5.801   3.127   5.058 -1.5735  0.2424 -0.7176
  776MOL0     H 4744   4.208   1.988   4.982  0.6603 -1.6608 -1.3586
  776MOL0     H 4745   4.057   1.789   4.974  2.2508 -0.5970 -1.2157
  776MOL0     H 4746   3.537   1.672   5.052  1.5618  1.9257 -1.0312
  776MOL0     H 4747   3.389   1.487   4.999 -0.4206 -2.1925  1.0988
  776MOL0     H 4748   3.315   1.138   4.966 -0.5503  1.7664 -2.6586
  776MOL0     H 4749   3.304   1.294   5.030 -0.5728  0.8683 -0.6931
  776MOL0     H 4750   3.389   1.158   5.222  1.4239 -2.7475  1.9117
  776MOL0     H 4751   3.536   1.242   5.164 -2.5399  1.6933  2.3467
  776MOL0     H 4752   3.614   1.062   5.055 -0.1449  0.7927 -0.9747
  776MOL0     H 4753   3.469   0.953   5.083  0.2659  0.6660  0.1728
  776MOL0     H 4754   3.659   0.897   5.222  1.7998  3.1121 -2.6511
  776MOL0     H 4755   3.648   1.059   5.312  0.7699 -0.4816  0.1449
  776MOL0     H 4756   3.331   0.850   5.488 -1.5358  0.9392  2.2601
  776MOL0     H 4757   3.721   1.276   4.829  0.8744  1.2241 -2.0068
  776MOL0     H 4758   3.890   1.542   4.742 -3.2076 -0.1402  1.4348
  776MOL0     H 4759   3.980   1.537   4.901  0.6175  1.4662 -0.4233
  776MOL0     H 4760   3.944   1.378   4.824  1.4698  0.0389  2.3200
  777MOL0     O 4761   5.900   4.772   8.481  0.2393 -0.4818  0.1809
  777MOL0     C 4762   5.957   4.884   8.480 -0.3239 -0.2615 -0.1687
  777MOL0     O 4763   6.001   4.949   8.601  0.0179  0.1396  0.8089
  777MOL0     C 4764   5.956   4.902   8.717 -0.3134  0.0209 -0.4947
  777MOL0     C 4765   6.047   4.810   8.777 -0.4950  0.3601 -0.2438
  777MOL0     C 4766   6.031   4.777   8.909  0.1557  0.7073  0.5261
  777MOL0     C 4767   5.915   4.821   8.976  0.0734 -0.3556 -0.2573
  777MOL0     O 4768   5.901   4.781   9.107  0.0502 -0.1199  0.0084
  777MOL0     C 4769   5.868   4.868   9.207  0.3089  1.1419 -0.5091
  777MOL0     C 4770   5.905   4.788   9.342 -0.3324 -0.0489 -0.1799
  777MOL0     C 4771   6.055   4.747   9.359  0.3511 -0.1252  0.0419
  777MOL0     C 4772   6.088   4.662   9.488  0.7471 -0.0171  0.2166
  777MOL0     C 4773   6.241   4.635   9.510  0.1205 -0.2100  0.0510
  777MOL0     C 4774   6.267   4.564   9.637 -0.4200  0.5573  0.7633
  777MOL0     C 4775   6.228   4.414   9.634 -0.4808  0.3280  0.4342
  777MOL0     C 4776   6.223   4.361   9.777  0.7390 -0.0872  0.5950
  777MOL0     N 4777   6.200   4.218   9.782  0.8459 -0.1773 -0.7196
  777MOL0     C 4778   6.313   4.142   9.782  0.4541 -0.9922 -0.4602
  777MOL0     C 4779   6.269   4.021   9.750  0.3885  0.3652  0.6796
  777MOL0     C 4780   6.359   3.905   9.719 -0.5611  0.2018  1.4944
  777MOL0     C 4781   6.340   3.785   9.816 -0.7970 -0.4635 -0.2336
  777MOL0     C 4782   6.413   3.809   9.948 -0.9925 -0.6241 -0.7304
  777MOL0     C 4783   6.398   3.693  10.047  0.0664  0.8233  0.0657
  777MOL0     O 4784   6.506   3.703  10.140  0.3446 -0.2845 -0.2127
  777MOL0     C 4785   6.623   3.650  10.112  0.4185  0.1671 -0.4363
  777MOL0     C 4786   6.722   3.681  10.215  0.8687  0.0963  0.9158
  777MOL0     C 4787   6.853   3.638  10.192  0.4848 -0.4704 -0.9234
  777MOL0     C 4788   6.893   3.577  10.077 -0.8328  0.4586  0.6163
  777MOL0     C 4789   7.041   3.553  10.050 -0.0743  0.3470  0.6821
  777MOL0     O 4790   7.074   3.471   9.944  0.8473 -0.7048 -0.0126
  777MOL0     C 4791   7.185   3.390   9.946  0.6039 -0.1041  0.4736
  777MOL0     C 4792   7.252   3.371   9.820 -0.8250  0.9803 -0.7759
  777MOL0     C 4793   7.363   3.280   9.803  1.0322  0.7301  0.7963
  777MOL0     C 4794   7.405   3.218   9.927 -1.9733  0.4033 -0.4533
  777MOL0     O 4795   7.514   3.137   9.933  0.1792 -0.7217  0.0715
  777MOL0     C 4796   7.570   3.088   9.815  0.1517  0.1388  0.6364
  777MOL0     C 4797   7.669   3.191   9.751  1.2790  0.8855 -0.0224
  777MOL0     C 4798   7.701   3.156   9.602  0.5020 -0.2323  1.0454
  777MOL0     C 4799   7.741   3.275   9.515  0.0296  0.0918 -0.0454
  777MOL0     C 4800   7.619   3.367   9.494 -0.5245 -0.1613  0.2777
  777MOL0     C 4801   7.645   3.462   9.375 -0.4981  0.6778  0.1901
  777MOL0     C 4802   7.639   3.390   9.248  0.4953  0.2348 -0.4358
  777MOL0     C 4803   7.595   3.488   9.133 -0.1101 -0.2200  0.4599
  777MOL0    Cl 4804   7.411   3.513   9.151  0.4486 -0.1296  0.1755
  777MOL0     C 4805   7.329   3.223  10.045  0.4306  0.5275 -0.5856
  777MOL0     C 4806   7.225   3.308  10.053  0.7070  0.2534 -1.0832
  777MOL0     O 4807   7.114   3.585  10.142 -0.1048 -0.2325  0.7223
  777MOL0     C 4808   6.802   3.558   9.975 -1.0601 -0.9001 -0.0567
  777MOL0     C 4809   6.667   3.593   9.991  0.6577  0.0152  1.0506
  777MOL0     N 4810   6.134   4.027   9.747 -0.0092  0.1344  0.3828
  777MOL0     N 4811   6.085   4.152   9.761 -0.6067  0.7776  0.1666
  777MOL0     C 4812   5.818   4.907   8.913  0.1853 -0.3335 -0.3003
  777MOL0     C 4813   5.843   4.953   8.788 -0.1838  0.1727  0.7951
  777MOL0     C 4814   5.997   4.937   8.344  0.0820 -1.0580  0.6409
  777MOL0     C 4815   5.933   4.884   8.230  0.0543  0.1302  0.8544
  777MOL0     C 4816   5.961   4.935   8.101 -0.3578  1.2153 -0.3765
  777MOL0     C 4817   6.071   5.017   8.087  0.4348 -0.7552 -0.7457
  777MOL0     O 4818   6.103   5.088   7.974 -0.4060 -0.3813 -0.4745
  777MOL0     C 4819   6.081   5.009   7.858 -0.8325 -0.8035  0.2452
  777MOL0     C 4820   6.134   5.079   7.737 -0.5388 -1.2196  0.0515
  777MOL0     C 4821   6.276   5.132   7.754  0.1208  0.3657  0.2042
  777MOL0     C 4822   6.318   5.196   7.622  0.6257  0.0659  0.3880
  777MOL0     C 4823   6.460   5.240   7.644  0.6212  0.6482 -0.6353
  777MOL0     C 4824   6.574   5.284   7.680 -0.8123 -0.0530  0.8185
  777MOL0     C 4825   6.139   5.056   8.198 -0.2830 -0.7750  0.1753
  777MOL0     C 4826   6.112   5.010   8.321  0.0904 -0.8440 -0.6526
  777MOL0     C 4827   6.200   5.065   8.437  0.0794  0.1293  0.5288
  777MOL0     H 4828   6.136   4.774   8.726  0.1873  3.2913 -1.3315
  777MOL0     H 4829   6.099   4.716   8.968 -0.1589 -0.1713  0.0091
  777MOL0     H 4830   5.931   4.956   9.193  0.9298  0.9105  0.6714
  777MOL0     H 4831   5.761   4.891   9.207 -0.4576 -1.4364  3.3904
  777MOL0     H 4832   5.842   4.699   9.350 -1.2501  0.6723  1.1309
  777MOL0     H 4833   5.885   4.857   9.425 -0.0451  0.4966 -0.5596
  777MOL0     H 4834   6.110   4.842   9.362 -0.9767  0.6573  1.0570
  777MOL0     H 4835   6.091   4.703   9.266 -1.6399  1.5750 -1.6352
  777MOL0     H 4836   6.058   4.722   9.574 -0.0262 -1.3124  0.8732
  777MOL0     H 4837   6.034   4.567   9.485  1.9411 -0.7348  0.4664
  777MOL0     H 4838   6.272   4.575   9.424 -2.3134 -2.9542  0.9213
  777MOL0     H 4839   6.290   4.733   9.517 -3.6083  1.7392  2.1055
  777MOL0     H 4840   6.372   4.560   9.666 -0.4698  1.5588  1.1187
  777MOL0     H 4841   6.213   4.623   9.711 -1.6686  0.8767 -0.3661
  777MOL0     H 4842   6.304   4.367   9.570 -1.1589 -0.4959  0.2154
  777MOL0     H 4843   6.133   4.396   9.582 -0.4745 -0.6922  0.7374
  777MOL0     H 4844   6.318   4.392   9.822  1.8813 -1.9168 -0.4163
  777MOL0     H 4845   6.149   4.424   9.827 -1.5243 -0.5306 -1.9450
  777MOL0     H 4846   6.412   4.184   9.767 -0.2765  0.6816 -0.7792
  777MOL0     H 4847   6.352   3.878   9.613 -0.3727  0.3548  1.4418
  777MOL0     H 4848   6.462   3.942   9.720 -0.1855 -0.8125  1.8010
  777MOL0     H 4849   6.238   3.762   9.847 -0.0894 -2.7187  0.5882
  777MOL0     H 4850   6.391   3.697   9.777  1.6798  1.1208 -0.8586
  777MOL0     H 4851   6.373   3.900   9.992  1.5548 -0.5793  1.8405
  777MOL0     H 4852   6.520   3.828   9.931 -1.0533 -1.2136 -1.8644
  777MOL0     H 4853   6.386   3.595  10.001  2.9536  0.7135 -0.6496
  777MOL0     H 4854   6.303   3.699  10.101  0.0847  0.8036  0.0995
  777MOL0     H 4855   6.694   3.739  10.302  1.1236  1.8869 -0.1292
  777MOL0     H 4856   6.930   3.667  10.263 -0.4216 -0.1495 -0.0474
  777MOL0     H 4857   7.210   3.431   9.739  1.9917  2.7622 -1.0763
  777MOL0     H 4858   7.412   3.260   9.708 -0.8528  2.0547 -0.5417
  777MOL0     H 4859   7.624   2.997   9.844 -0.3982 -1.1077 -2.0305
  777MOL0     H 4860   7.500   3.058   9.737  0.4756 -0.3183  0.5130
  777MOL0     H 4861   7.623   3.290   9.745 -2.5446 -0.7919 -1.0296
  777MOL0     H 4862   7.761   3.191   9.811  1.6714 -0.7020 -0.5760
  777MOL0     H 4863   7.780   3.081   9.612 -0.8720 -1.7104  1.2772
  777MOL0     H 4864   7.613   3.106   9.560 -0.0150  0.5565  1.1700
  777MOL0     H 4865   7.780   3.224   9.426  1.2453  0.5635  0.1971
  777MOL0     H 4866   7.821   3.332   9.563 -0.0317 -0.0303  0.2024
  777MOL0     H 4867   7.605   3.422   9.587 -0.1770 -3.9934  2.8024
  777MOL0     H 4868   7.531   3.306   9.472  1.1892 -3.2875  1.3670
  777MOL0     H 4869   7.562   3.533   9.377 -0.5316  0.6266  0.6933
  777MOL0     H 4870   7.734   3.521   9.397  0.1013  0.0585 -0.5049
  777MOL0     H 4871   7.553   3.323   9.261 -1.7999  3.3228  1.9512
  777MOL0     H 4872   7.734   3.338   9.231  0.6297  0.4323 -0.2960
  777MOL0     H 4873   7.654   3.578   9.115 -1.5459  0.8761  1.0846
  777MOL0     H 4874   7.606   3.427   9.042  0.3131  0.2740  0.1685
  777MOL0     H 4875   7.344   3.158  10.131 -4.6089  0.4351  0.5425
  777MOL0     H 4876   7.167   3.307  10.144  0.5037 -2.3961 -1.1771
  777MOL0     H 4877   6.835   3.525   9.877  1.2262  1.1640 -0.0631
  777MOL0     H 4878   6.595   3.576   9.912  0.9480 -0.2192  0.8355
  777MOL0     H 4879   5.718   4.927   8.951 -0.6637 -1.0979 -2.0103
  777MOL0     H 4880   5.776   5.022   8.738  1.3277  0.4429 -0.9892
  777MOL0     H 4881   5.862   4.801   8.235 -2.5265  2.1618  0.4684
  777MOL0     H 4882   5.903   4.898   8.017 -1.6136 -0.3948  1.1124
  777MOL0     H 4883   5.975   4.986   7.843 -1.1984  0.9166 -0.0064
  777MOL0     H 4884   6.138   4.916   7.865  0.6170  0.0740  0.4932
  777MOL0     H 4885   6.072   5.167   7.718  0.1825  0.2500  3.7354
  777MOL0     H 4886   6.143   5.005   7.656 -0.9183 -1.2281  0.0152
  777MOL0     H 4887   6.345   5.053   7.785  2.8242  2.6299  0.3442
  777MOL0     H 4888   6.286   5.213   7.828  0.1906  0.6976 -0.1676
  777MOL0     H 4889   6.302   5.115   7.550 -1.3584  1.0072 -0.3071
  777MOL0     H 4890   6.253   5.280   7.595  1.7010  1.0114  0.7042
  777MOL0     H 4891   6.673   5.321   7.693  0.6180 -2.9421 -0.8158
  777MOL0     H 4892   6.215   5.129   8.174 -0.5869 -0.5085  0.0210
  777MOL0     H 4893   6.258   4.981   8.476 -2.6060 -2.1930 -0.1472
  777MOL0     H 4894   6.269   5.141   8.399  1.8811 -1.2457  0.9137
  777MOL0     H 4895   6.136   5.112   8.512  1.0131  3.5599 -0.6316
  778MOL0     O 4896  10.562   5.813   5.840  1.1835  0.2259  0.2093
  778MOL0     C 4897  10.508   5.735   5.765 -0.1280  0.0167  0.4457
  778MOL0     O 4898  10.578   5.652   5.684 -0.5548 -0.1500 -0.0324
  778MOL0     C 4899  10.719   5.646   5.687  0.0618  0.3079  0.5744
  778MOL0     C 4900  10.789   5.761   5.689 -0.2161 -0.8970 -0.0685
  778MOL0     C 4901  10.926   5.751   5.678 -0.7994  0.5955 -0.0661
  778MOL0     C 4902  10.993   5.620   5.667 -0.1911 -0.5262  0.0537
  778MOL0     O 4903  11.129   5.616   5.660 -0.0564 -0.4282  0.6347
  778MOL0     C 4904  11.183   5.592   5.532 -0.7137  0.4717  0.1838
  778MOL0     C 4905  11.215   5.715   5.450 -0.1535 -0.4577 -0.9939
  778MOL0     C 4906  11.314   5.816   5.530 -1.0290 -0.3225  0.8035
  778MOL0     C 4907  11.362   5.934   5.447 -0.3363 -0.1120  0.1647
  778MOL0     C 4908  11.431   6.043   5.526 -0.1565  0.3222  0.3729
  778MOL0     C 4909  11.497   6.162   5.453 -0.7254 -0.5427  0.5887
  778MOL0     C 4910  11.413   6.234   5.341 -0.5537 -0.9254  0.7078
  778MOL0     C 4911  11.434   6.392   5.334 -0.1996  0.4752 -0.8186
  778MOL0     N 4912  11.340   6.482   5.410  0.3198  0.8034  0.0412
  778MOL0     C 4913  11.226   6.444   5.474  0.5713 -0.8274  0.8698
  778MOL0     C 4914  11.173   6.564   5.528 -0.0443  1.3319 -0.1744
  778MOL0     C 4915  11.054   6.573   5.613 -0.3673  0.0674 -0.5430
  778MOL0     C 4916  10.966   6.700   5.590  0.1076  0.2182 -0.2774
  778MOL0     C 4917  10.857   6.714   5.699  0.2419 -0.3644  0.1106
  778MOL0     C 4918  10.738   6.617   5.702 -0.0789 -0.0749  0.3286
  778MOL0     O 4919  10.728   6.554   5.826  0.7328 -0.4424 -0.3304
  778MOL0     C 4920  10.682   6.624   5.939  0.1852  0.2133 -0.1962
  778MOL0     C 4921  10.679   6.762   5.964 -0.1582 -0.0121  0.2128
  778MOL0     C 4922  10.631   6.812   6.087  1.1648 -0.8167 -0.5454
  778MOL0     C 4923  10.584   6.728   6.186 -0.0884  0.7815 -0.1548
  778MOL0     C 4924  10.530   6.782   6.311 -0.0749 -0.1094  0.9574
  778MOL0     O 4925  10.476   6.913   6.305 -0.3559 -0.2912  0.0290
  778MOL0     C 4926  10.452   6.988   6.415  0.0606  0.5812 -1.0024
  778MOL0     C 4927  10.529   6.994   6.526  0.6542  0.6524 -0.5664
  778MOL0     C 4928  10.502   7.093   6.620 -0.4720  0.5791  0.0818
  778MOL0     C 4929  10.401   7.195   6.599 -0.0340  0.3097 -0.1341
  778MOL0     O 4930  10.385   7.301   6.681  0.3376 -0.1589 -0.1555
  778MOL0     C 4931  10.336   7.280   6.818 -0.0591 -0.0271  0.6264
  778MOL0     C 4932  10.247   7.398   6.870  0.2356 -0.2214 -0.4932
  778MOL0     C 4933  10.168   7.358   6.996 -0.0337  1.2551  0.3719
  778MOL0     C 4934  10.096   7.480   7.050  0.2051  0.3903  0.6919
  778MOL0     C 4935  10.011   7.456   7.174 -0.0813  0.8073 -0.0692
  778MOL0     C 4936   9.961   7.586   7.238 -0.5404 -0.0627 -0.3745
  778MOL0     C 4937   9.888   7.567   7.372  0.4397  0.2246  0.4102
  778MOL0     C 4938   9.864   7.690   7.449  0.6264 -1.1539 -0.0927
  778MOL0    Cl 4939   9.763   7.819   7.372  0.1728 -0.1648  0.1057
  778MOL0     C 4940  10.321   7.183   6.486  0.0943  0.0797  0.6545
  778MOL0     C 4941  10.355   7.078   6.395 -0.1723 -0.9520  0.0289
  778MOL0     O 4942  10.520   6.711   6.409  0.2212  0.1832  0.9269
  778MOL0     C 4943  10.587   6.590   6.160  0.3524  0.6780  0.5820
  778MOL0     C 4944  10.639   6.538   6.041 -0.4371 -0.1981 -0.4715
  778MOL0     N 4945  11.263   6.665   5.506 -0.0825 -0.3700  0.8360
  778MOL0     N 4946  11.363   6.613   5.439  0.6893 -0.9267  0.1843
  778MOL0     C 4947  10.912   5.507   5.658 -0.0632 -0.0228 -0.2858
  778MOL0     C 4948  10.779   5.517   5.674 -0.6125  0.0422  0.1739
  778MOL0     C 4949  10.356   5.734   5.770  0.0815  0.8144 -0.4446
  778MOL0     C 4950  10.298   5.642   5.670 -0.2470  0.3063  0.2072
  778MOL0     C 4951  10.154   5.643   5.653  0.8343 -0.3790 -0.8862
  778MOL0     C 4952  10.070   5.723   5.730  0.9561  0.8604 -0.6414
  778MOL0     O 4953   9.937   5.717   5.698  1.1021  0.1504  0.0471
  778MOL0     C 4954   9.847   5.739   5.807  0.2815 -0.0646  0.0773
  778MOL0     C 4955   9.699   5.728   5.744  0.5430 -0.1610 -0.3737
  778MOL0     C 4956   9.599   5.805   5.831 -0.3970  0.7234 -0.3569
  778MOL0     C 4957   9.451   5.791   5.802 -0.8262 -1.0850 -1.0205
  778MOL0     C 4958   9.425   5.786   5.658  0.0909  0.9716  0.1434
  778MOL0     C 4959   9.415   5.769   5.539 -0.1045  0.9976  0.1467
  778MOL0     C 4960  10.128   5.784   5.841  0.5935 -0.3536  0.4099
  778MOL0     C 4961  10.266   5.800   5.861 -0.3236  0.4756  0.5073
  778MOL0     C 4962  10.319   5.877   5.979 -0.0628  0.3349  0.2697
  778MOL0     H 4963  10.734   5.854   5.693 -0.0687 -0.8632  2.0219
  778MOL0     H 4964  10.969   5.849   5.696 -2.8236  1.6108 -0.5088
  778MOL0     H 4965  11.269   5.525   5.526 -2.0898 -1.2321 -2.8027
  778MOL0     H 4966  11.110   5.537   5.471 -2.7512  0.1477  2.7398
  778MOL0     H 4967  11.118   5.761   5.428 -0.7553 -0.0105  2.1835
  778MOL0     H 4968  11.265   5.686   5.357  3.5646  1.0721  0.3591
  778MOL0     H 4969  11.409   5.769   5.557  0.0004  0.9621 -0.4620
  778MOL0     H 4970  11.264   5.855   5.620 -3.4756 -0.9018 -0.2092
  778MOL0     H 4971  11.429   5.898   5.368  0.2305 -1.4175  1.1846
  778MOL0     H 4972  11.278   5.986   5.400  0.8061  1.3497 -0.3301
  778MOL0     H 4973  11.360   6.089   5.596  0.8211  0.1565  1.4939
  778MOL0     H 4974  11.501   5.997   5.596 -1.3635  0.2679  1.5886
  778MOL0     H 4975  11.545   6.222   5.531 -0.2211 -1.4834  1.0260
  778MOL0     H 4976  11.585   6.121   5.404 -1.8177 -0.0916 -1.9089
  778MOL0     H 4977  11.306   6.211   5.336 -1.1179  1.6641 -2.8171
  778MOL0     H 4978  11.444   6.205   5.240  0.5714  2.8284 -0.1499
  778MOL0     H 4979  11.535   6.406   5.374 -0.7894  1.0234  0.5453
  778MOL0     H 4980  11.450   6.428   5.232 -0.1185  1.8207 -0.3496
  778MOL0     H 4981  11.179   6.348   5.487 -0.0464 -0.5028  1.0809
  778MOL0     H 4982  10.996   6.480   5.608  0.2714 -0.4696  1.1048
  778MOL0     H 4983  11.104   6.578   5.711 -1.2874 -1.7162  0.0674
  778MOL0     H 4984  11.032   6.788   5.586  0.4716  0.0640  1.4518
  778MOL0     H 4985  10.918   6.690   5.493 -1.5394 -1.2339  0.6410
  778MOL0     H 4986  10.825   6.816   5.672 -1.0203 -0.5416  0.8646
  778MOL0     H 4987  10.899   6.720   5.799  1.2840  0.1008 -0.3415
  778MOL0     H 4988  10.747   6.547   5.618 -0.9477  2.1179 -1.6959
  778MOL0     H 4989  10.655   6.687   5.690 -1.1009 -1.3982 -0.5398
  778MOL0     H 4990  10.724   6.827   5.890  1.8380 -1.0310  0.4699
  778MOL0     H 4991  10.636   6.920   6.097  0.9027 -0.8548  0.0691
  778MOL0     H 4992  10.608   6.927   6.555 -0.1309  0.3420  0.9285
  778MOL0     H 4993  10.555   7.096   6.715 -1.7586 -1.2731  0.9210
  778MOL0     H 4994  10.275   7.190   6.821 -1.4032  0.8588  0.9646
  778MOL0     H 4995  10.427   7.266   6.877  1.1108 -1.4102 -1.3810
  778MOL0     H 4996  10.310   7.485   6.891  0.1478 -0.2882  0.0481
  778MOL0     H 4997  10.185   7.438   6.789 -0.5050  0.0416  0.1877
  778MOL0     H 4998  10.096   7.280   6.970  2.1737 -0.6581 -0.3058
  778MOL0     H 4999  10.232   7.312   7.071  1.5471 -0.9171 -2.1429
  778MOL0     H 5000  10.029   7.538   6.985 -0.0817  2.5098  2.7431
  778MOL0     H 5001  10.171   7.551   7.086  0.8454 -0.5910  1.3143
  778MOL0     H 5002  10.080   7.405   7.242 -1.1380 -1.8398 -0.8739
  778MOL0     H 5003   9.925   7.389   7.172  0.3744  0.1594  1.2036
  778MOL0     H 5004  10.048   7.650   7.255  1.0414 -2.6417  1.8974
  778MOL0     H 5005   9.886   7.631   7.172 -1.0213 -2.5934 -1.6810
  778MOL0     H 5006   9.945   7.491   7.427  1.7081 -1.1509 -2.5763
  778MOL0     H 5007   9.789   7.523   7.357  1.8214 -2.0874 -3.2075
  778MOL0     H 5008   9.817   7.663   7.544  2.4706 -0.9106  0.9290
  778MOL0     H 5009   9.961   7.738   7.467 -0.2908  0.3144  1.1899
  778MOL0     H 5010  10.242   7.255   6.468 -1.1123 -1.5953 -1.0900
  778MOL0     H 5011  10.287   7.075   6.310  1.3608 -1.8156 -1.2177
  778MOL0     H 5012  10.555   6.522   6.239  1.1161  1.5769  1.7118
  778MOL0     H 5013  10.637   6.432   6.018  0.0101 -0.0439 -1.2394
  778MOL0     H 5014  10.962   5.411   5.657  2.1972  1.0874 -1.0275
  778MOL0     H 5015  10.715   5.429   5.669 -0.0652 -0.2699 -2.4805
  778MOL0     H 5016  10.360   5.576   5.610  0.3711 -0.3007  1.4848
  778MOL0     H 5017  10.102   5.580   5.582 -1.3127  1.3392 -0.9234
  778MOL0     H 5018   9.861   5.844   5.834  0.2784 -0.2252  0.7058
  778MOL0     H 5019   9.853   5.664   5.886  3.9448 -2.1158 -1.8651
  778MOL0     H 5020   9.673   5.621   5.742  2.5295 -0.6835 -0.2552
  778MOL0     H 5021   9.709   5.779   5.648  0.0952 -0.6439 -0.6857
  778MOL0     H 5022   9.641   5.906   5.826  0.7881  0.2795  0.3247
  778MOL0     H 5023   9.619   5.786   5.937  0.0046  1.2534 -0.3330
  778MOL0     H 5024   9.422   5.701   5.856  1.2519 -0.8170  0.6649
  778MOL0     H 5025   9.407   5.884   5.841  3.3805  0.4988  0.4620
  778MOL0     H 5026   9.424   5.757   5.433 -1.2158  1.5089 -0.0174
  778MOL0     H 5027  10.050   5.828   5.903  1.7902  3.5607 -0.5685
  778MOL0     H 5028  10.253   5.872   6.065  0.1425  2.2206  0.5854
  778MOL0     H 5029  10.412   5.832   6.014 -0.5053  0.6167  1.8913
  778MOL0     H 5030  10.333   5.981   5.946 -1.0172  0.5310  0.4635
  779MOL0     O 5031  10.328   6.190   8.034 -0.2882 -0.0304  0.4404
  779MOL0     C 5032  10.347   6.273   7.938  0.7842  1.0025 -1.0134
  779MOL0     O 5033  10.285   6.276   7.818  0.1090 -0.1037  0.2352
  779MOL0     C 5034  10.229   6.163   7.782 -0.5436  0.4681  0.7495
  779MOL0     C 5035  10.312   6.077   7.702  0.0240  0.0047  0.5333
  779MOL0     C 5036  10.259   5.955   7.662 -0.5284  0.1321  0.1171
  779MOL0     C 5037  10.124   5.921   7.679  0.7348  0.1339 -0.6617
  779MOL0     O 5038  10.082   5.794   7.650  0.1223 -0.2311 -0.0529
  779MOL0     C 5039  10.115   5.751   7.518  0.4919 -1.0833  0.8933
  779MOL0     C 5040  10.089   5.601   7.497  0.0500  0.0163 -0.6859
  779MOL0     C 5041   9.954   5.550   7.545 -0.3117 -0.0837 -0.0141
  779MOL0     C 5042   9.970   5.395   7.549 -0.3732  0.1185 -0.1224
  779MOL0     C 5043   9.845   5.332   7.615 -0.1718  0.5281 -0.4618
  779MOL0     C 5044   9.836   5.181   7.633  0.0361 -1.4595 -0.1550
  779MOL0     C 5045   9.767   5.117   7.518 -0.2140 -0.0394  0.2007
  779MOL0     C 5046   9.760   4.967   7.524 -0.3406  0.5002  0.0295
  779MOL0     N 5047   9.875   4.884   7.493 -0.3114 -1.4452 -0.2779
  779MOL0     C 5048   9.965   4.908   7.401  0.1210 -0.8479  0.8878
  779MOL0     C 5049  10.046   4.802   7.394 -0.0830 -0.0741 -0.1950
  779MOL0     C 5050  10.153   4.780   7.291  0.0650 -0.9968  0.1972
  779MOL0     C 5051  10.191   4.632   7.274 -1.2642 -0.0769  0.0639
  779MOL0     C 5052  10.294   4.604   7.159 -0.4797 -0.1699 -0.2261
  779MOL0     C 5053  10.437   4.654   7.193  0.3189 -0.0062 -1.3391
  779MOL0     O 5054  10.487   4.578   7.315 -0.6789  0.7033  0.6500
  779MOL0     C 5055  10.622   4.569   7.331 -0.2194  0.1758  0.6954
  779MOL0     C 5056  10.701   4.683   7.317 -0.1291 -0.0294 -0.6184
  779MOL0     C 5057  10.838   4.669   7.307 -0.2882 -0.3253 -0.0320
  779MOL0     C 5058  10.893   4.547   7.333  0.2170 -0.2502 -0.1892
  779MOL0     C 5059  11.042   4.518   7.334  0.4772  0.5026 -0.2057
  779MOL0     O 5060  11.077   4.388   7.287  0.6109  0.2154  0.0353
  779MOL0     C 5061  11.208   4.340   7.306  0.2837 -0.0420  0.7707
  779MOL0     C 5062  11.250   4.249   7.205  1.0994 -0.1453 -0.2531
  779MOL0     C 5063  11.376   4.189   7.209 -0.5763 -0.1670  0.3272
  779MOL0     C 5064  11.460   4.217   7.320  0.7306 -0.6341 -0.3438
  779MOL0     O 5065  11.582   4.156   7.307  0.4746 -0.4755  0.1389
  779MOL0     C 5066  11.662   4.118   7.412  0.0101 -0.3635 -1.1005
  779MOL0     C 5067  11.777   4.221   7.430  0.2199  0.1020  0.2552
  779MOL0     C 5068  11.866   4.228   7.304 -0.0535 -0.0231  0.3554
  779MOL0     C 5069  12.013   4.272   7.343  0.3877 -0.8694  0.4540
  779MOL0     C 5070  12.102   4.307   7.219 -0.3944  0.1809  0.3268
  779MOL0     C 5071  12.239   4.339   7.274  0.0125 -0.1176  0.1170
  779MOL0     C 5072  12.321   4.434   7.187  0.1395  0.0744  0.0390
  779MOL0     C 5073  12.303   4.578   7.224  0.2640 -0.4063  0.1798
  779MOL0    Cl 5074  12.147   4.637   7.201 -0.3697 -0.1108 -0.2026
  779MOL0     C 5075  11.417   4.304   7.429 -0.4333 -0.1111  0.6495
  779MOL0     C 5076  11.292   4.370   7.416  1.0051  0.5328 -0.3989
  779MOL0     O 5077  11.119   4.608   7.377 -0.0203  0.0728  0.3774
  779MOL0     C 5078  10.812   4.432   7.360  0.2910 -0.1633 -0.4825
  779MOL0     C 5079  10.676   4.446   7.351 -0.6747  0.2108 -0.1922
  779MOL0     N 5080  10.002   4.715   7.490 -0.3303 -0.1839 -0.2482
  779MOL0     N 5081   9.910   4.777   7.565 -0.5983  0.4260 -0.0872
  779MOL0     C 5082  10.047   6.010   7.742  0.3459 -0.7204 -1.1647
  779MOL0     C 5083  10.093   6.136   7.793 -0.5522  0.9313  1.7417
  779MOL0     C 5084  10.443   6.401   7.969  0.4788  0.5123 -0.3290
  779MOL0     C 5085  10.455   6.437   8.109  0.9118  0.2007 -0.0292
  779MOL0     C 5086  10.537   6.551   8.149  0.9073 -0.1076  0.2633
  779MOL0     C 5087  10.594   6.633   8.051 -0.4936  0.6005 -0.1879
  779MOL0     O 5088  10.683   6.740   8.066 -0.3964  0.8922 -0.5527
  779MOL0     C 5089  10.699   6.801   8.193 -0.0950 -0.6492 -0.1203
  779MOL0     C 5090  10.567   6.888   8.227 -0.1809  0.2677 -0.6284
  779MOL0     C 5091  10.553   7.007   8.123  0.4001 -0.2944 -0.7727
  779MOL0     C 5092  10.445   7.108   8.165  0.0224  0.4435  0.2357
  779MOL0     C 5093  10.486   7.191   8.273 -0.4241 -0.4487  0.4274
  779MOL0     C 5094  10.513   7.275   8.354 -0.3594  0.1748 -0.5837
  779MOL0     C 5095  10.575   6.598   7.912 -0.3857  0.3458 -1.1509
  779MOL0     C 5096  10.507   6.482   7.876  0.9650 -1.1095  0.3473
  779MOL0     C 5097  10.499   6.444   7.729 -1.2617  0.7938  0.0986
  779MOL0     H 5098  10.418   6.088   7.684  0.9631 -3.2926  3.0687
  779MOL0     H 5099  10.324   5.886   7.609 -1.3519  1.0666 -2.2465
  779MOL0     H 5100  10.053   5.800   7.442  0.7511 -0.1912  1.2485
  779MOL0     H 5101  10.222   5.763   7.496  0.3317  0.0933  0.6715
  779MOL0     H 5102  10.174   5.554   7.547  2.6370  3.0662 -1.8495
  779MOL0     H 5103  10.091   5.583   7.389  1.0713 -0.7497 -0.5468
  779MOL0     H 5104   9.878   5.574   7.470  1.2405 -1.1690 -2.0500
  779MOL0     H 5105   9.934   5.584   7.647  0.2213 -0.2410  0.1455
  779MOL0     H 5106   9.993   5.360   7.447 -0.1491  1.6426 -0.6311
  779MOL0     H 5107  10.052   5.363   7.614 -0.5963 -1.0717 -0.4025
  779MOL0     H 5108   9.831   5.372   7.715 -1.5632  3.6839 -1.7731
  779MOL0     H 5109   9.757   5.386   7.579 -0.5050 -0.9462 -2.0478
  779MOL0     H 5110   9.939   5.146   7.637  0.4290 -0.9194 -3.2050
  779MOL0     H 5111   9.786   5.165   7.728  1.2101 -0.8074  0.5913
  779MOL0     H 5112   9.814   5.141   7.423 -1.7553 -2.0572 -1.1545
  779MOL0     H 5113   9.666   5.160   7.517  0.1097  0.7529  0.3156
  779MOL0     H 5114   9.729   4.940   7.626  1.8803  1.7258  1.0949
  779MOL0     H 5115   9.678   4.927   7.463  1.2038 -0.5210 -1.4647
  779MOL0     H 5116   9.978   4.997   7.342 -0.5830 -1.1998  0.1859
  779MOL0     H 5117  10.119   4.813   7.192  0.5492 -1.0106  0.0205
  779MOL0     H 5118  10.234   4.836   7.338 -1.1548 -0.1104  1.2873
  779MOL0     H 5119  10.231   4.596   7.370 -1.6608 -1.3454 -0.2213
  779MOL0     H 5120  10.095   4.583   7.257 -0.1015 -1.9439 -1.6123
  779MOL0     H 5121  10.248   4.646   7.069 -1.8195 -0.1615  0.4205
  779MOL0     H 5122  10.289   4.495   7.150 -3.2818  0.0222 -2.7114
  779MOL0     H 5123  10.447   4.760   7.220  0.9431 -0.6599  1.2990
  779MOL0     H 5124  10.504   4.627   7.110  2.8784 -0.3368  0.6863
  779MOL0     H 5125  10.660   4.782   7.305 -0.8946 -0.6636 -4.5169
  779MOL0     H 5126  10.897   4.757   7.285 -0.7310 -0.0934 -0.3049
  779MOL0     H 5127  11.180   4.221   7.128 -0.0410 -0.5436  0.9025
  779MOL0     H 5128  11.413   4.128   7.128  1.8967  1.2783  0.2715
  779MOL0     H 5129  11.591   4.111   7.496  0.6568  1.0162 -0.3941
  779MOL0     H 5130  11.702   4.017   7.399  0.6905 -0.7994  2.8518
  779MOL0     H 5131  11.740   4.316   7.469 -0.0988 -0.6500  1.8800
  779MOL0     H 5132  11.842   4.187   7.511  0.0688  0.3075  0.4630
  779MOL0     H 5133  11.871   4.135   7.246  0.2105  0.9325 -1.2370
  779MOL0     H 5134  11.825   4.302   7.234 -0.2266  1.0558  1.5663
  779MOL0     H 5135  12.065   4.199   7.406  1.0457 -2.4185 -1.7836
  779MOL0     H 5136  12.004   4.365   7.400  1.2993 -0.6839  0.3118
  779MOL0     H 5137  12.056   4.385   7.159  2.4078  0.2766 -1.8768
  779MOL0     H 5138  12.109   4.221   7.152  1.7959  1.8673 -1.7434
  779MOL0     H 5139  12.237   4.389   7.371  0.5712 -0.4547  0.3054
  779MOL0     H 5140  12.303   4.251   7.282 -0.9410 -0.8240  0.1891
  779MOL0     H 5141  12.309   4.428   7.078 -1.4108  2.1130  0.0267
  779MOL0     H 5142  12.429   4.420   7.197  0.4730  0.5510 -2.2406
  779MOL0     H 5143  12.313   4.596   7.331 -3.2532 -0.8962  0.7195
  779MOL0     H 5144  12.376   4.632   7.163  1.0321  1.6523  2.7312
  779MOL0     H 5145  11.483   4.334   7.510 -1.1308 -2.2449  2.1027
  779MOL0     H 5146  11.262   4.441   7.493 -0.3065 -0.6725  0.2388
  779MOL0     H 5147  10.869   4.341   7.379  2.1765  0.8263 -1.2211
  779MOL0     H 5148  10.608   4.361   7.362 -0.2064 -0.1437 -0.0066
  779MOL0     H 5149   9.945   5.992   7.771 -0.5105  5.4185  1.1917
  779MOL0     H 5150  10.017   6.201   7.835 -2.9484  1.0923 -2.2719
  779MOL0     H 5151  10.419   6.359   8.175 -2.8170 -0.7783 -2.8764
  779MOL0     H 5152  10.552   6.568   8.255  2.5691 -0.1471  0.0611
  779MOL0     H 5153  10.790   6.863   8.192  0.3596 -1.2873  0.4595
  779MOL0     H 5154  10.721   6.728   8.272 -0.3103  0.4109  0.9644
  779MOL0     H 5155  10.602   6.925   8.323  2.7228  0.1047 -1.5252
  779MOL0     H 5156  10.476   6.828   8.243  1.8818 -2.5691  1.6059
  779MOL0     H 5157  10.522   6.960   8.029  1.4286  1.1341 -1.8613
  779MOL0     H 5158  10.648   7.060   8.112 -0.8990  2.1649 -0.8774
  779MOL0     H 5159  10.430   7.174   8.079  1.0397 -0.7622 -0.9067
  779MOL0     H 5160  10.347   7.063   8.180 -0.1278  0.1937 -1.3222
  779MOL0     H 5161  10.542   7.331   8.440  1.4755 -1.8520  0.2171
  779MOL0     H 5162  10.641   6.652   7.844  0.2015  0.6162 -0.3872
  779MOL0     H 5163  10.586   6.489   7.680 -0.1606 -1.2668  0.0685
  779MOL0     H 5164  10.510   6.336   7.727  1.5239  0.9882  0.6565
  779MOL0     H 5165  10.413   6.483   7.674 -1.0769  0.3277 -0.5229
  780MOL0     O 5166   9.281  10.325   9.452  0.2110 -0.5251  0.4321
  780MOL0     C 5167   9.380  10.315   9.389  0.0928  0.3984  0.3753
  780MOL0     O 5168   9.421  10.194   9.341 -0.2951 -0.0941 -0.4149
  780MOL0     C 5169   9.353  10.080   9.362  0.1937 -0.1868  0.7717
  780MOL0     C 5170   9.302  10.011   9.255  0.4355 -0.2778  0.0497
  780MOL0     C 5171   9.223   9.896   9.275  0.6209 -0.2869 -0.0796
  780MOL0     C 5172   9.220   9.838   9.400 -0.8494 -0.6839 -0.2817
  780MOL0     O 5173   9.153   9.717   9.408  0.1864 -0.0754 -0.1806
  780MOL0     C 5174   9.105   9.682   9.536 -0.3859 -0.1502 -0.2756
  780MOL0     C 5175   9.016   9.559   9.533 -0.4511  0.2251  0.9224
  780MOL0     C 5176   9.107   9.430   9.519 -0.1630  0.0637 -0.6799
  780MOL0     C 5177   9.191   9.393   9.631  0.0355 -0.4315 -0.4286
  780MOL0     C 5178   9.337   9.407   9.598 -0.5435 -0.1795  0.0635
  780MOL0     C 5179   9.429   9.382   9.719 -0.0804 -0.1118  0.6865
  780MOL0     C 5180   9.574   9.381   9.664  0.3555 -0.1154  0.4110
  780MOL0     C 5181   9.669   9.294   9.755 -0.2347 -0.2590 -0.1361
  780MOL0     N 5182   9.806   9.266   9.687 -0.7195  0.3674 -0.4068
  780MOL0     C 5183   9.826   9.206   9.564  0.1931  0.5933  0.4572
  780MOL0     C 5184   9.961   9.201   9.546  0.3403 -0.0358 -1.5064
  780MOL0     C 5185  10.039   9.147   9.425 -0.3042 -0.0668  0.3671
  780MOL0     C 5186   9.962   9.180   9.301 -0.2396 -0.3030 -0.4532
  780MOL0     C 5187  10.027   9.152   9.177  0.2695  0.5379  0.0809
  780MOL0     C 5188  10.004   9.267   9.077  0.4393  0.7450 -0.1677
  780MOL0     O 5189  10.091   9.270   8.966 -0.0081  0.9084  0.0010
  780MOL0     C 5190  10.220   9.289   9.011 -0.4401  0.4264  0.0150
  780MOL0     C 5191  10.261   9.398   9.084  0.2592 -1.2227  0.0543
  780MOL0     C 5192  10.395   9.437   9.092  0.1177  0.2801  0.1462
  780MOL0     C 5193  10.493   9.352   9.052 -0.0963  0.6585 -0.3420
  780MOL0     C 5194  10.631   9.404   9.051  0.5687  0.2827  0.2352
  780MOL0     O 5195  10.649   9.510   9.133  0.4191 -0.3229 -0.3165
  780MOL0     C 5196  10.763   9.587   9.131  0.5748 -0.4820  0.8589
  780MOL0     C 5197  10.889   9.537   9.123 -1.1021  0.7742 -0.5710
  780MOL0     C 5198  11.002   9.617   9.167  0.2599 -0.7812  0.1169
  780MOL0     C 5199  10.976   9.758   9.176  0.1753  0.1814  0.0742
  780MOL0     O 5200  11.082   9.838   9.195  0.5839 -0.7178 -0.1939
  780MOL0     C 5201  11.135   9.882   9.072  0.1497 -0.7775 -0.7146
  780MOL0     C 5202  11.234   9.999   9.089  0.3193 -0.8471  0.6984
  780MOL0     C 5203  11.351   9.961   9.173 -0.1459 -1.1654 -0.1062
  780MOL0     C 5204  11.450  10.073   9.176  0.0818  0.1504  0.7898
  780MOL0     C 5205  11.563  10.061   9.286  0.0505  0.3490 -0.0348
  780MOL0     C 5206  11.507  10.087   9.428 -0.2675 -0.1789 -0.0821
  780MOL0     C 5207  11.627  10.091   9.523 -1.3287 -0.9662 -0.3040
  780MOL0     C 5208  11.703  10.219   9.540  0.9968 -0.2878  0.2811
  780MOL0    Cl 5209  11.852  10.174   9.631 -0.2955 -0.1855  0.1118
  780MOL0     C 5210  10.842   9.808   9.179  0.3918 -0.0982  0.3725
  780MOL0     C 5211  10.733   9.724   9.158 -0.8309 -0.3552  0.4173
  780MOL0     O 5212  10.716   9.352   8.966 -0.2834  0.6873 -0.1864
  780MOL0     C 5213  10.453   9.235   8.978 -0.4013  0.8138 -0.9025
  780MOL0     C 5214  10.319   9.209   8.960  0.9044  0.5762 -0.3429
  780MOL0     N 5215  10.018   9.274   9.650  0.3822 -0.3069  0.2124
  780MOL0     N 5216   9.927   9.308   9.739  0.3376 -0.0179 -0.2763
  780MOL0     C 5217   9.291   9.890   9.508  0.0438 -0.6597 -0.0546
  780MOL0     C 5218   9.364  10.016   9.487  0.1238 -0.1306  0.2766
  780MOL0     C 5219   9.468  10.433   9.347  0.2985  0.2900 -0.4988
  780MOL0     C 5220   9.578  10.415   9.252  0.2058 -0.0360 -0.6091
  780MOL0     C 5221   9.669  10.523   9.226 -0.1646 -0.2154  0.8978
  780MOL0     C 5222   9.656  10.646   9.297 -0.1257  0.5260 -0.4405
  780MOL0     O 5223   9.726  10.756   9.271  0.1189  0.0837 -0.8263
  780MOL0     C 5224   9.847  10.739   9.197  0.3180 -0.5419  0.2447
  780MOL0     C 5225   9.940  10.688   9.303 -1.0114 -0.5020  0.4460
  780MOL0     C 5226  10.091  10.705   9.260 -0.5089  0.4022 -0.5043
  780MOL0     C 5227  10.156  10.837   9.299 -0.4165  0.6059 -0.2034
  780MOL0     C 5228  10.303  10.816   9.287 -0.4055 -0.6505  1.3872
  780MOL0     C 5229  10.422  10.804   9.270 -0.5353  0.3215  0.0577
  780MOL0     C 5230   9.554  10.655   9.387 -0.0071 -0.2370  0.4850
  780MOL0     C 5231   9.462  10.554   9.415  0.2950  1.0010 -0.1529
  780MOL0     C 5232   9.361  10.582   9.524  0.2105 -0.0342 -0.7536
  780MOL0     H 5233   9.304  10.051   9.154 -0.1584  0.9501  0.5018
  780MOL0     H 5234   9.164   9.855   9.194  0.3426 -1.1976  0.5653
  780MOL0     H 5235   9.187   9.663   9.606 -0.2335 -1.9525 -0.9044
  780MOL0     H 5236   9.053   9.760   9.592  1.8929 -0.3863  2.4129
  780MOL0     H 5237   8.943   9.571   9.452  1.1431  0.2449 -0.5493
  780MOL0     H 5238   8.962   9.554   9.628 -2.2955  0.4786 -0.0565
  780MOL0     H 5239   9.167   9.439   9.428  1.2878  1.7019  0.3727
  780MOL0     H 5240   9.044   9.342   9.503  3.1190 -2.6377  0.0562
  780MOL0     H 5241   9.168   9.455   9.718 -3.6771  0.3232 -1.7633
  780MOL0     H 5242   9.165   9.293   9.666 -0.5836 -0.6535 -1.4838
  780MOL0     H 5243   9.354   9.344   9.510  1.1451  0.0095  0.2194
  780MOL0     H 5244   9.354   9.513   9.576  5.4559 -0.5716  0.9729
  780MOL0     H 5245   9.405   9.452   9.800  4.6965  3.2101 -0.3203
  780MOL0     H 5246   9.417   9.285   9.768  4.0657 -0.6095  1.0917
  780MOL0     H 5247   9.614   9.481   9.644 -0.2195 -0.2042 -1.3774
  780MOL0     H 5248   9.579   9.324   9.571 -1.6321 -3.7948  2.3108
  780MOL0     H 5249   9.676   9.338   9.855 -1.3073 -0.6779  0.1365
  780MOL0     H 5250   9.641   9.190   9.771 -0.1267  0.0830  2.7223
  780MOL0     H 5251   9.744   9.167   9.504  0.5434  1.7705 -0.8256
  780MOL0     H 5252  10.140   9.189   9.422 -1.5500  3.3031  0.2105
  780MOL0     H 5253  10.049   9.039   9.430  0.3749  0.0354  3.9409
  780MOL0     H 5254   9.874   9.115   9.300  0.5715 -1.4432  0.6735
  780MOL0     H 5255   9.927   9.284   9.310 -1.5982 -0.8359  0.8001
  780MOL0     H 5256   9.986   9.058   9.140  1.4849  1.0578 -2.8748
  780MOL0     H 5257  10.135   9.144   9.195 -0.0191 -1.5669  1.1639
  780MOL0     H 5258   9.995   9.358   9.136 -1.4832  0.5842 -0.1491
  780MOL0     H 5259   9.903   9.265   9.034  0.8962  2.8322 -1.5031
  780MOL0     H 5260  10.185   9.468   9.117  1.6814 -0.0952  1.1036
  780MOL0     H 5261  10.423   9.532   9.138 -0.3248  1.3121 -1.5982
  780MOL0     H 5262  10.909   9.432   9.109 -0.2235 -0.1013  4.8185
  780MOL0     H 5263  11.106   9.588   9.172  0.6089  0.2416 -0.7739
  780MOL0     H 5264  11.188   9.800   9.022 -0.7381 -0.8215 -1.6105
  780MOL0     H 5265  11.062   9.932   9.007 -0.7499  2.6741  2.6059
  780MOL0     H 5266  11.276  10.019   8.990 -1.9912  1.9608  0.1206
  780MOL0     H 5267  11.178  10.088   9.122 -0.0649 -0.3894 -1.0573
  780MOL0     H 5268  11.317   9.925   9.270 -2.4875 -3.5859 -1.6853
  780MOL0     H 5269  11.395   9.871   9.128  2.7169 -0.7002  1.5197
  780MOL0     H 5270  11.400  10.169   9.191  3.6638  2.3764 -0.3080
  780MOL0     H 5271  11.496  10.079   9.077 -1.4607  0.7878  0.0860
  780MOL0     H 5272  11.635  10.137   9.256 -0.7164  0.2345 -2.3300
  780MOL0     H 5273  11.610   9.963   9.278 -2.9150 -1.2053  0.2994
  780MOL0     H 5274  11.466  10.188   9.442 -0.6946 -0.4550  0.7035
  780MOL0     H 5275  11.427  10.016   9.451 -0.4178  0.7546  2.5714
  780MOL0     H 5276  11.706  10.022   9.492  0.2153 -0.4075  2.1109
  780MOL0     H 5277  11.599  10.072   9.627  3.5395  1.8659  1.8527
  780MOL0     H 5278  11.723  10.258   9.440 -2.7313 -0.5505 -0.6801
  780MOL0     H 5279  11.649  10.304   9.585  2.4239  0.0472  1.4646
  780MOL0     H 5280  10.831   9.915   9.190  2.5389 -0.0545  2.9254
  780MOL0     H 5281  10.632   9.763   9.145 -0.7655 -0.5991 -0.9551
  780MOL0     H 5282  10.529   9.175   8.930 -0.5702 -0.7735  0.7035
  780MOL0     H 5283  10.290   9.127   8.895 -1.7866  0.9006  0.3517
  780MOL0     H 5284   9.307   9.856   9.610  2.9689 -2.5218 -1.0204
  780MOL0     H 5285   9.421  10.057   9.570 -2.5289  0.1454  2.1179
  780MOL0     H 5286   9.587  10.323   9.196 -3.0790 -0.6218 -0.3411
  780MOL0     H 5287   9.735  10.512   9.141 -0.0960 -3.2001  1.2229
  780MOL0     H 5288   9.877  10.833   9.148 -3.1722  1.1352  0.9957
  780MOL0     H 5289   9.838  10.673   9.110 -0.1809  1.9164 -1.6857
  780MOL0     H 5290   9.914  10.583   9.320  1.5019 -0.9697  1.7499
  780MOL0     H 5291   9.928  10.732   9.402  0.1307  2.1053 -0.4767
  780MOL0     H 5292  10.098  10.697   9.151 -0.5792 -2.5360 -0.3787
  780MOL0     H 5293  10.149  10.626   9.308 -0.9448  1.4522  1.8970
  780MOL0     H 5294  10.122  10.916   9.231  0.6294 -0.3704 -1.9143
  780MOL0     H 5295  10.130  10.874   9.399  1.2338  1.5166 -0.0586
  780MOL0     H 5296  10.524  10.778   9.251 -0.8849 -2.6307  1.7376
  780MOL0     H 5297   9.562  10.747   9.446  2.3110 -0.2674  0.3157
  780MOL0     H 5298   9.379  10.675   9.578  0.2314 -1.5223  2.0011
  780MOL0     H 5299   9.262  10.591   9.478 -1.7967  0.3824  3.2401
  780MOL0     H 5300   9.364  10.501   9.597 -2.4162 -0.4574 -1.0194
  781MOL0     O 5301   5.076   0.489   9.183  0.6886 -0.0314  0.1311
  781MOL0     C 5302   4.977   0.530   9.122 -1.0720  0.2544  1.2431
  781MOL0     O 5303   4.896   0.627   9.173  0.3529  0.4282 -0.0128
  781MOL0     C 5304   4.937   0.709   9.268 -0.9154  0.2542 -0.0675
  781MOL0     C 5305   5.076   0.755   9.283  0.6949 -0.5586  0.5211
  781MOL0     C 5306   5.116   0.839   9.385  0.0954  0.8922  0.0745
  781MOL0     C 5307   5.028   0.866   9.490 -1.0716 -0.1395 -1.1268
  781MOL0     O 5308   5.058   0.937   9.606 -0.0563 -0.1352  0.2212
  781MOL0     C 5309   5.144   1.054   9.596 -0.3306 -0.2419  0.4973
  781MOL0     C 5310   5.121   1.145   9.720  0.1700  0.4993 -0.3860
  781MOL0     C 5311   5.033   1.259   9.681 -0.8252 -0.4112  0.5356
  781MOL0     C 5312   5.115   1.376   9.620 -0.2924 -0.0480  0.5282
  781MOL0     C 5313   5.037   1.488   9.560  0.3091 -0.8247  0.3861
  781MOL0     C 5314   4.959   1.562   9.673 -0.3500  0.8904  0.2495
  781MOL0     C 5315   4.855   1.672   9.626 -0.2306 -0.0248 -0.1398
  781MOL0     C 5316   4.733   1.590   9.584 -0.3989  0.2193 -0.5438
  781MOL0     N 5317   4.629   1.578   9.686  0.4379  0.6063 -0.4163
  781MOL0     C 5318   4.566   1.687   9.738 -0.1432  0.5190 -0.5029
  781MOL0     C 5319   4.473   1.637   9.827  0.1969 -0.5511  0.1106
  781MOL0     C 5320   4.382   1.716   9.915 -0.5553 -0.4510  0.7914
  781MOL0     C 5321   4.406   1.681  10.060  0.2833  0.0103  0.2640
  781MOL0     C 5322   4.276   1.736  10.132  0.1201 -0.3011  0.9536
  781MOL0     C 5323   4.283   1.721  10.282 -0.1899 -0.3246 -0.0992
  781MOL0     O 5324   4.395   1.784  10.348 -0.5592 -0.0726 -0.2016
  781MOL0     C 5325   4.405   1.915  10.383 -0.2772 -0.2612  0.1335
  781MOL0     C 5326   4.484   1.962  10.479  0.0599  0.7165 -0.2968
  781MOL0     C 5327   4.505   2.103  10.499 -0.0555  0.2807 -0.5593
  781MOL0     C 5328   4.423   2.197  10.445 -0.2278  0.8122  0.0656
  781MOL0     C 5329   4.426   2.343  10.461 -0.4200 -0.2590  0.9686
  781MOL0     O 5330   4.333   2.414  10.388  0.1413  0.6119  0.0496
  781MOL0     C 5331   4.307   2.546  10.407  0.7937  0.0793 -1.1452
  781MOL0     C 5332   4.207   2.606  10.319 -0.4853 -0.3163  0.0936
  781MOL0     C 5333   4.171   2.739  10.328 -0.1876  0.3975  0.0518
  781MOL0     C 5334   4.221   2.829  10.421  0.5528 -0.4937 -0.3756
  781MOL0     O 5335   4.208   2.966  10.392 -0.6678 -0.0668  0.2514
  781MOL0     C 5336   4.299   3.047  10.459 -0.2038 -0.5149  0.7998
  781MOL0     C 5337   4.323   3.182  10.393  0.7677  0.4196 -0.0155
  781MOL0     C 5338   4.212   3.271  10.375  0.3359  0.1434 -0.3960
  781MOL0     C 5339   4.223   3.388  10.288  0.0699  0.1849 -0.2281
  781MOL0     C 5340   4.091   3.455  10.223 -0.2068  0.2602  0.2166
  781MOL0     C 5341   3.978   3.481  10.313 -0.2349 -0.0858 -0.5806
  781MOL0     C 5342   3.859   3.558  10.271  0.6728  0.8822 -0.0744
  781MOL0     C 5343   3.882   3.710  10.266  0.4377 -0.3258 -1.3982
  781MOL0    Cl 5344   3.878   3.778  10.435 -0.5357  0.1256  0.0705
  781MOL0     C 5345   4.308   2.769  10.522  1.5812 -0.5104  0.4520
  781MOL0     C 5346   4.344   2.633  10.513  0.3789  0.7933  0.3669
  781MOL0     O 5347   4.523   2.391  10.516  0.8447  0.1177 -0.2557
  781MOL0     C 5348   4.320   2.145  10.356  0.3172 -0.0673  0.4178
  781MOL0     C 5349   4.317   2.006  10.323  0.8735  0.2482 -0.3877
  781MOL0     N 5350   4.495   1.499   9.838  0.1251 -0.0585 -0.0780
  781MOL0     N 5351   4.593   1.471   9.751  0.4060  0.0246 -0.8037
  781MOL0     C 5352   4.907   0.808   9.494  0.7114 -0.8139 -0.0414
  781MOL0     C 5353   4.864   0.740   9.380 -0.3059  0.3618 -0.9015
  781MOL0     C 5354   4.923   0.458   9.009 -0.0472  1.4356  0.3011
  781MOL0     C 5355   4.777   0.435   9.002 -0.2691 -0.8980 -0.9017
  781MOL0     C 5356   4.719   0.362   8.898 -0.0143 -0.0244 -0.1951
  781MOL0     C 5357   4.802   0.305   8.806  1.0070  0.2666 -0.0360
  781MOL0     O 5358   4.740   0.231   8.705 -0.3030 -0.3184 -0.5035
  781MOL0     C 5359   4.721   0.295   8.579 -0.0283  0.0215  0.8381
  781MOL0     C 5360   4.626   0.219   8.480 -0.5722 -0.0488  0.0401
  781MOL0     C 5361   4.477   0.218   8.521  0.3914  0.5406  1.0305
  781MOL0     C 5362   4.454   0.120   8.643 -0.2239  0.5152  0.1312
  781MOL0     C 5363   4.330   0.043   8.636  0.6502  0.5842  0.1890
  781MOL0     C 5364   4.221  -0.007   8.617  0.8345 -0.9069 -0.0937
  781MOL0     C 5365   4.937   0.316   8.811  0.1126 -0.1485  0.3476
  781MOL0     C 5366   5.007   0.392   8.910  0.1650  0.0433  0.2254
  781MOL0     C 5367   5.158   0.410   8.897 -0.5043 -0.2230 -0.2475
  781MOL0     H 5368   5.152   0.751   9.206 -0.1679  0.6882 -0.4470
  781MOL0     H 5369   5.218   0.874   9.384  0.7875 -0.9464  1.1642
  781MOL0     H 5370   5.242   1.007   9.607 -1.5242 -2.6718  1.4204
  781MOL0     H 5371   5.132   1.117   9.508 -4.4665 -0.1292  0.9284
  781MOL0     H 5372   5.215   1.183   9.762  1.0795 -2.2160  0.2523
  781MOL0     H 5373   5.072   1.082   9.795 -0.4299 -0.2926 -1.4205
  781MOL0     H 5374   4.968   1.288   9.764 -0.2561  0.8206  0.5723
  781MOL0     H 5375   4.969   1.223   9.600  0.6670  2.0121 -1.8936
  781MOL0     H 5376   5.173   1.431   9.694 -2.1669  1.5367  0.9101
  781MOL0     H 5377   5.173   1.338   9.535 -2.5893  1.5706 -1.9150
  781MOL0     H 5378   5.110   1.554   9.514  1.7644 -3.3396 -1.1598
  781MOL0     H 5379   4.970   1.443   9.486  0.1306  0.1831 -0.0853
  781MOL0     H 5380   4.903   1.486   9.727  1.3367  0.1288  0.9851
  781MOL0     H 5381   5.025   1.610   9.746 -1.8892  0.3408  2.0847
  781MOL0     H 5382   4.901   1.725   9.543 -2.0216  3.5627  0.9392
  781MOL0     H 5383   4.844   1.744   9.708 -0.4193 -1.4891  1.1661
  781MOL0     H 5384   4.685   1.638   9.498 -4.9515  1.8621  2.5529
  781MOL0     H 5385   4.760   1.495   9.538  0.2559  0.6326 -1.0471
  781MOL0     H 5386   4.588   1.789   9.709 -0.4051 -0.1445 -3.4007
  781MOL0     H 5387   4.379   1.821   9.885 -0.7751 -0.8877 -0.7830
  781MOL0     H 5388   4.281   1.685   9.889 -0.3149 -2.9568  2.4428
  781MOL0     H 5389   4.424   1.576  10.088 -0.1578 -0.0776  0.2265
  781MOL0     H 5390   4.489   1.746  10.088  1.5613 -2.3471  2.4370
  781MOL0     H 5391   4.189   1.682  10.093 -1.8534  3.3895 -0.2738
  781MOL0     H 5392   4.275   1.840  10.096 -3.9722 -1.0848 -1.8544
  781MOL0     H 5393   4.295   1.615  10.307  1.7351  0.4683  2.8900
  781MOL0     H 5394   4.189   1.764  10.317  0.3840  2.7398 -1.9123
  781MOL0     H 5395   4.551   1.894  10.531 -1.1363 -2.2028 -2.2943
  781MOL0     H 5396   4.577   2.130  10.576  1.4196  0.4534 -1.9527
  781MOL0     H 5397   4.165   2.538  10.247 -1.3591  0.1533  0.1463
  781MOL0     H 5398   4.116   2.789  10.249 -1.3948 -1.8910 -0.6539
  781MOL0     H 5399   4.272   3.054  10.565 -3.4203 -1.6221  0.1963
  781MOL0     H 5400   4.397   2.999  10.460 -0.9325 -2.0787  0.6897
  781MOL0     H 5401   4.390   3.227  10.467 -0.2160 -1.4326  2.1062
  781MOL0     H 5402   4.372   3.160  10.297  5.0722  1.7857  1.6201
  781MOL0     H 5403   4.131   3.210  10.334 -0.9834 -0.0969  2.3206
  781MOL0     H 5404   4.180   3.299  10.476 -1.0932 -0.4181 -0.6815
  781MOL0     H 5405   4.294   3.365  10.209 -2.4891  0.5224 -2.7740
  781MOL0     H 5406   4.276   3.462  10.349  2.8964 -3.7716  2.6153
  781MOL0     H 5407   4.050   3.397  10.140 -2.0136 -0.3297  1.4506
  781MOL0     H 5408   4.118   3.543  10.164  0.6970  1.6968  2.6316
  781MOL0     H 5409   3.929   3.393  10.357  0.3785 -0.0706  0.1560
  781MOL0     H 5410   4.014   3.540  10.398 -0.3866  0.5292 -0.9368
  781MOL0     H 5411   3.783   3.522  10.340  1.3432 -0.1783  0.1310
  781MOL0     H 5412   3.839   3.530  10.167  2.0881 -0.8954  0.0673
  781MOL0     H 5413   3.974   3.738  10.214  2.0240 -1.6711  0.5530
  781MOL0     H 5414   3.794   3.747  10.212  0.5497 -0.1959 -1.4897
  781MOL0     H 5415   4.363   2.832  10.591  1.5827  0.4400 -0.3887
  781MOL0     H 5416   4.417   2.610  10.589  0.5683  0.6040  0.1296
  781MOL0     H 5417   4.248   2.209  10.306  0.9697  1.2590  1.1375
  781MOL0     H 5418   4.228   1.963  10.276 -0.4793  0.1305  2.1448
  781MOL0     H 5419   4.839   0.822   9.577 -0.2966  1.2907 -1.1461
  781MOL0     H 5420   4.761   0.711   9.362 -0.1262  0.0654 -1.4802
  781MOL0     H 5421   4.711   0.482   9.073 -0.0727  3.4714 -3.3054
  781MOL0     H 5422   4.612   0.346   8.889 -0.1184  0.1918  0.5715
  781MOL0     H 5423   4.813   0.324   8.528 -0.9194  1.3044 -0.1058
  781MOL0     H 5424   4.679   0.395   8.598 -0.5416  0.3379 -1.6323
  781MOL0     H 5425   4.656   0.114   8.476  1.4239  0.3110  2.7742
  781MOL0     H 5426   4.641   0.265   8.382 -0.3725  0.3323  0.2502
  781MOL0     H 5427   4.434   0.160   8.439  1.0393 -0.0535  1.0976
  781MOL0     H 5428   4.431   0.314   8.542 -0.2926  0.4695 -0.0365
  781MOL0     H 5429   4.528   0.041   8.656 -1.9351 -1.4640 -1.4885
  781MOL0     H 5430   4.462   0.178   8.735  0.8477  0.2044  0.2432
  781MOL0     H 5431   4.117  -0.032   8.608  0.6305 -0.8078  1.5602
  781MOL0     H 5432   4.998   0.266   8.737  1.8454  1.0334  0.9140
  781MOL0     H 5433   5.180   0.436   8.793 -1.6980  1.8477 -0.0251
  781MOL0     H 5434   5.205   0.474   8.972  1.4990 -2.6555  0.7437
  781MOL0     H 5435   5.206   0.312   8.907 -0.1463  0.1191  1.7981
  782MOL0     O 5436   9.547   5.665   4.556  0.3202 -0.1992 -0.1345
  782MOL0     C 5437   9.655   5.682   4.612  0.6844  0.4416 -0.1774
  782MOL0     O 5438   9.772   5.689   4.545 -0.9191 -1.4159  0.2973
  782MOL0     C 5439   9.751   5.719   4.409 -0.7870  0.6426 -0.1830
  782MOL0     C 5440   9.728   5.619   4.316 -0.7632 -0.2817  0.1415
  782MOL0     C 5441   9.689   5.641   4.193  0.9377 -0.6266 -0.1064
  782MOL0     C 5442   9.679   5.779   4.151  0.3379 -0.9818  0.1975
  782MOL0     O 5443   9.643   5.825   4.025  0.5469 -0.3381  0.2473
  782MOL0     C 5444   9.750   5.808   3.932  0.3167  0.2235  0.1181
  782MOL0     C 5445   9.711   5.754   3.797  0.3416 -0.5718  0.2788
  782MOL0     C 5446   9.609   5.832   3.713 -0.7507 -0.0774 -1.0989
  782MOL0     C 5447   9.462   5.782   3.742  0.4041 -0.2135 -0.0205
  782MOL0     C 5448   9.362   5.844   3.637  0.3669  0.3929 -0.1107
  782MOL0     C 5449   9.213   5.798   3.650 -0.9849 -0.9761  0.4577
  782MOL0     C 5450   9.125   5.883   3.739  0.3821  0.0497  0.6621
  782MOL0     C 5451   9.069   6.009   3.670  0.6554  0.7183  0.3099
  782MOL0     N 5452   8.989   6.094   3.768  0.2349  0.3514 -0.5803
  782MOL0     C 5453   9.033   6.148   3.892  1.1680  0.5787 -0.0417
  782MOL0     C 5454   8.917   6.196   3.957  0.3271  0.1597  0.2207
  782MOL0     C 5455   8.914   6.266   4.087 -0.4062 -0.1882  0.3564
  782MOL0     C 5456   8.958   6.193   4.212 -0.1631 -0.6137  0.5180
  782MOL0     C 5457   8.886   6.060   4.242 -0.2223 -0.2134 -0.8310
  782MOL0     C 5458   8.925   5.943   4.155  0.1477  0.2399  0.3098
  782MOL0     O 5459   9.064   5.897   4.162 -0.1755 -0.3660 -0.0149
  782MOL0     C 5460   9.113   5.790   4.099  0.4322 -0.2414  0.4059
  782MOL0     C 5461   9.253   5.768   4.106 -0.1119 -0.4932  0.8905
  782MOL0     C 5462   9.305   5.650   4.055  0.2175  0.0478 -0.0337
  782MOL0     C 5463   9.215   5.555   3.989 -0.5189  0.1241  1.5300
  782MOL0     C 5464   9.276   5.439   3.917  0.2043  0.4381  0.7008
  782MOL0     O 5465   9.414   5.424   3.932  0.6339  0.4565 -0.3103
  782MOL0     C 5466   9.480   5.354   3.832 -0.0268 -0.3833 -0.4563
  782MOL0     C 5467   9.469   5.386   3.702  0.0667 -0.3028 -0.7607
  782MOL0     C 5468   9.536   5.317   3.599 -0.3399  0.4520  0.0968
  782MOL0     C 5469   9.598   5.196   3.623 -0.4594  0.0805 -0.0272
  782MOL0     O 5470   9.660   5.112   3.531 -0.1718 -0.4149  0.6317
  782MOL0     C 5471   9.649   4.968   3.527  0.1456 -0.7070  0.6161
  782MOL0     C 5472   9.688   4.907   3.391 -0.0538  0.7635 -0.8703
  782MOL0     C 5473   9.843   4.897   3.375 -0.1708 -0.2023 -0.2105
  782MOL0     C 5474   9.899   5.030   3.324 -0.6171 -1.0145  0.2455
  782MOL0     C 5475  10.041   5.022   3.256  0.0217  0.7141  1.5664
  782MOL0     C 5476  10.132   4.990   3.364 -0.6377 -0.1045  1.0077
  782MOL0     C 5477  10.283   4.976   3.302 -0.7356  0.0027 -0.0267
  782MOL0     C 5478  10.373   5.091   3.353  0.4082 -0.1761 -0.5634
  782MOL0    Cl 5479  10.325   5.253   3.300  0.1630 -0.2784 -0.2024
  782MOL0     C 5480   9.590   5.155   3.757 -0.6661  0.9693 -0.8194
  782MOL0     C 5481   9.540   5.229   3.860 -0.4940 -0.1157 -0.3442
  782MOL0     O 5482   9.204   5.365   3.851  0.2575  0.1131 -0.1377
  782MOL0     C 5483   9.083   5.595   3.961 -0.3575  0.0125  0.3167
  782MOL0     C 5484   9.034   5.702   4.030 -0.7585  0.1058  0.3362
  782MOL0     N 5485   8.810   6.178   3.860 -0.0093 -0.2956 -0.4781
  782MOL0     N 5486   8.855   6.115   3.762  0.1539 -0.5052 -0.3920
  782MOL0     C 5487   9.708   5.888   4.243 -0.4413  1.0097  0.3549
  782MOL0     C 5488   9.742   5.854   4.375  0.4581 -0.1367  0.0342
  782MOL0     C 5489   9.649   5.698   4.764 -0.2116  0.3212  0.0311
  782MOL0     C 5490   9.548   5.645   4.840  0.0837  0.6248  0.0853
  782MOL0     C 5491   9.546   5.666   4.978 -0.6664 -0.1081 -0.4069
  782MOL0     C 5492   9.639   5.732   5.050 -0.7454  0.8205  0.7558
  782MOL0     O 5493   9.624   5.745   5.183  0.8043  0.0811  0.4366
  782MOL0     C 5494   9.655   5.873   5.245 -0.0797  0.2327 -0.1424
  782MOL0     C 5495   9.788   5.856   5.334  0.1720  0.2447  0.1855
  782MOL0     C 5496   9.843   5.989   5.375 -0.4791  0.4529 -0.1750
  782MOL0     C 5497   9.993   5.965   5.413  0.9010  0.1599 -0.3278
  782MOL0     C 5498  10.054   6.101   5.407 -0.2938 -0.2921 -0.0885
  782MOL0     C 5499  10.106   6.207   5.405 -0.2903 -0.2688  0.0479
  782MOL0     C 5500   9.748   5.771   4.974 -0.5141  0.5880 -0.0760
  782MOL0     C 5501   9.749   5.770   4.831  0.3629  0.8391 -0.0558
  782MOL0     C 5502   9.859   5.849   4.757 -0.5802 -0.3520 -0.1726
  782MOL0     H 5503   9.726   5.515   4.349 -1.5306 -1.0774 -2.2037
  782MOL0     H 5504   9.669   5.559   4.125 -3.6035 -0.2823  0.4861
  782MOL0     H 5505   9.805   5.902   3.920 -0.6806  0.5586 -2.2638
  782MOL0     H 5506   9.825   5.736   3.967  1.9326  0.6668 -2.2332
  782MOL0     H 5507   9.675   5.651   3.801 -1.7020  0.1320  2.1445
  782MOL0     H 5508   9.803   5.761   3.739  0.7151  0.3050  0.9690
  782MOL0     H 5509   9.647   5.815   3.612  0.0706 -2.4869 -0.4531
  782MOL0     H 5510   9.608   5.941   3.720 -0.1957 -0.0848 -0.8338
  782MOL0     H 5511   9.451   5.673   3.744 -2.3881  0.0206  1.4573
  782MOL0     H 5512   9.441   5.815   3.844  0.1880  2.6984 -0.9306
  782MOL0     H 5513   9.381   5.951   3.641  2.7438  0.0200  0.0009
  782MOL0     H 5514   9.392   5.798   3.542  2.3744  0.4636  0.4573
  782MOL0     H 5515   9.167   5.811   3.552  0.8368 -0.9072 -0.4462
  782MOL0     H 5516   9.210   5.693   3.680  0.5387 -2.3448 -3.5032
  782MOL0     H 5517   9.193   5.915   3.819  0.5599 -0.0272  0.5408
  782MOL0     H 5518   9.041   5.824   3.778 -1.2553 -0.2042 -2.8403
  782MOL0     H 5519   9.158   6.063   3.639  1.1243 -0.0057  0.3852
  782MOL0     H 5520   9.004   5.989   3.584  0.5691 -1.2275  0.7827
  782MOL0     H 5521   9.133   6.139   3.933  1.7623 -2.1167 -1.8773
  782MOL0     H 5522   8.983   6.350   4.076 -1.5665  0.8485  0.7257
  782MOL0     H 5523   8.814   6.307   4.107 -0.5603 -0.7149  0.6856
  782MOL0     H 5524   9.067   6.185   4.203 -0.2197 -0.1933 -0.6433
  782MOL0     H 5525   8.933   6.253   4.301 -0.6618  0.4996 -0.3471
  782MOL0     H 5526   8.780   6.070   4.217 -0.4107  3.1623  0.7118
  782MOL0     H 5527   8.898   6.033   4.347 -1.7414  1.4878 -0.1631
  782MOL0     H 5528   8.917   5.972   4.050  0.5560 -1.8929 -0.3774
  782MOL0     H 5529   8.854   5.864   4.181  0.6838 -1.2765 -2.5167
  782MOL0     H 5530   9.320   5.835   4.160 -0.2901  0.5474 -0.1282
  782MOL0     H 5531   9.412   5.640   4.072  0.2181 -0.1522 -0.1570
  782MOL0     H 5532   9.404   5.468   3.673 -0.1497  1.2107  3.3292
  782MOL0     H 5533   9.523   5.351   3.496 -0.7517  0.1550  0.0515
  782MOL0     H 5534   9.713   4.921   3.602  1.8832  1.9128  0.8804
  782MOL0     H 5535   9.541   4.949   3.532  0.1725 -1.1215 -0.1719
  782MOL0     H 5536   9.635   4.812   3.389  0.6611  0.2132  1.9080
  782MOL0     H 5537   9.643   4.972   3.315 -2.7936 -1.0678 -0.9660
  782MOL0     H 5538   9.892   4.863   3.467 -2.1487 -0.9893  0.5980
  782MOL0     H 5539   9.866   4.828   3.294 -3.0656  0.9270 -2.1331
  782MOL0     H 5540   9.890   5.109   3.400  1.7860  1.6648 -2.0313
  782MOL0     H 5541   9.834   5.064   3.243  1.4617  4.4706  0.4443
  782MOL0     H 5542  10.061   5.120   3.212  2.2181 -0.6107 -0.6631
  782MOL0     H 5543  10.038   4.942   3.181 -1.6186 -0.5387  2.8750
  782MOL0     H 5544  10.150   5.071   3.435  2.8036  0.2191 -0.0376
  782MOL0     H 5545  10.103   4.892   3.403 -4.0859 -0.0095 -0.9429
  782MOL0     H 5546  10.266   4.988   3.195 -1.3971 -1.9753 -0.1776
  782MOL0     H 5547  10.333   4.880   3.320  2.5163  1.2029 -1.7910
  782MOL0     H 5548  10.371   5.087   3.463  1.9477  1.0254 -0.4642
  782MOL0     H 5549  10.475   5.080   3.316  0.1810  0.9820 -1.5604
  782MOL0     H 5550   9.646   5.065   3.781 -1.0172  0.8287 -0.5086
  782MOL0     H 5551   9.542   5.199   3.964 -0.9717 -2.2760 -0.9171
  782MOL0     H 5552   9.019   5.530   3.903 -1.2921  0.9291  0.2910
  782MOL0     H 5553   8.928   5.718   4.013 -0.4045  1.1546 -1.2173
  782MOL0     H 5554   9.712   5.994   4.222  3.0181  0.8614 -0.2306
  782MOL0     H 5555   9.778   5.930   4.444  1.5773 -1.6476  1.1905
  782MOL0     H 5556   9.467   5.581   4.805  0.9928 -0.2978 -0.3591
  782MOL0     H 5557   9.463   5.631   5.038  0.0517  1.4789  1.6176
  782MOL0     H 5558   9.568   5.901   5.306 -0.7232 -2.3037  0.1981
  782MOL0     H 5559   9.676   5.953   5.173  4.7169  0.2757  0.9721
  782MOL0     H 5560   9.865   5.800   5.281  1.4473  0.4037  1.8030
  782MOL0     H 5561   9.766   5.789   5.418 -1.8093 -2.6809 -2.4251
  782MOL0     H 5562   9.781   6.050   5.441 -0.9928 -0.0681 -0.1643
  782MOL0     H 5563   9.849   6.047   5.283  0.0242  0.1358 -0.3476
  782MOL0     H 5564  10.007   5.921   5.512  0.5990 -1.1194 -0.8307
  782MOL0     H 5565  10.043   5.892   5.349  1.7718 -3.0309  3.5197
  782MOL0     H 5566  10.144   6.307   5.411  0.2827 -0.1502 -3.5507
  782MOL0     H 5567   9.839   5.807   5.021 -1.1422  3.4294 -0.8038
  782MOL0     H 5568   9.820   5.935   4.701  1.7886  0.1647 -1.1195
  782MOL0     H 5569   9.919   5.895   4.836 -3.3957  0.1164  1.8928
  782MOL0     H 5570   9.920   5.787   4.692 -0.8080 -1.7195  0.8621
  783MOL0     O 5571   7.085   6.252   2.671  0.6311  0.2219 -0.2379
  783MOL0     C 5572   7.202   6.231   2.698  0.5636 -0.7949  0.5939
  783MOL0     O 5573   7.240   6.161   2.810  0.4214  0.0133 -0.3280
  783MOL0     C 5574   7.142   6.106   2.891  0.7097  0.7036  0.1469
  783MOL0     C 5575   7.004   6.072   2.870 -0.3621  0.4139  0.5953
  783MOL0     C 5576   6.929   6.034   2.981 -0.4212  0.9416  0.7656
  783MOL0     C 5577   6.991   6.003   3.107  0.0624 -0.2769  0.4574
  783MOL0     O 5578   6.923   5.956   3.223  0.3787 -0.2218 -0.0588
  783MOL0     C 5579   6.792   6.017   3.246  0.7778  0.4118  0.2347
  783MOL0     C 5580   6.682   5.909   3.205 -0.6795 -0.4044  0.3866
  783MOL0     C 5581   6.693   5.769   3.264 -0.2164 -0.2111 -0.2399
  783MOL0     C 5582   6.569   5.693   3.210  0.7269  0.0935 -0.1132
  783MOL0     C 5583   6.567   5.538   3.241  0.6556 -0.1232 -0.0240
  783MOL0     C 5584   6.438   5.478   3.178 -0.1540 -0.3195 -0.1683
  783MOL0     C 5585   6.430   5.320   3.220  0.1271 -0.6992  0.8779
  783MOL0     C 5586   6.305   5.243   3.179  0.5995  0.3243  0.3804
  783MOL0     N 5587   6.294   5.113   3.250 -0.2631 -0.8654  0.8707
  783MOL0     C 5588   6.174   5.045   3.262 -0.1305 -0.2394  0.4147
  783MOL0     C 5589   6.200   4.914   3.293  0.3433  0.1230 -0.0032
  783MOL0     C 5590   6.096   4.807   3.298 -0.1486  0.3649  0.4014
  783MOL0     C 5591   6.077   4.727   3.160 -0.2044  0.2830 -0.6989
  783MOL0     C 5592   6.184   4.616   3.133  0.1228  0.6114  0.1141
  783MOL0     C 5593   6.151   4.532   3.003 -0.8507  0.0657 -0.1027
  783MOL0     O 5594   6.248   4.426   2.970  0.7796  0.5165  0.4705
  783MOL0     C 5595   6.227   4.346   2.854 -0.2576 -0.1704 -0.1969
  783MOL0     C 5596   6.157   4.394   2.742  0.3221  0.1560 -0.1307
  783MOL0     C 5597   6.141   4.297   2.631  1.1892 -0.3691  0.1218
  783MOL0     C 5598   6.184   4.160   2.651 -0.1349  0.5555  0.7726
  783MOL0     C 5599   6.180   4.065   2.539 -0.3153  0.2267  0.5744
  783MOL0     O 5600   6.219   3.928   2.554 -0.0511  0.1221 -0.2412
  783MOL0     C 5601   6.217   3.856   2.438  0.5857  0.4740  0.5423
  783MOL0     C 5602   6.121   3.751   2.419  0.3595  0.0259 -1.0905
  783MOL0     C 5603   6.131   3.672   2.304  0.0512  0.7656 -0.0669
  783MOL0     C 5604   6.232   3.691   2.212  0.7407  0.2790  0.6530
  783MOL0     O 5605   6.239   3.616   2.091  0.1505 -0.1642 -0.2818
  783MOL0     C 5606   6.237   3.481   2.112  0.1945  0.0301  0.5266
  783MOL0     C 5607   6.340   3.417   2.003  0.2988 -0.9025 -0.6084
  783MOL0     C 5608   6.294   3.429   1.853  0.6293  0.3925  0.0691
  783MOL0     C 5609   6.142   3.405   1.844 -0.2518  0.2379  0.1787
  783MOL0     C 5610   6.088   3.384   1.704 -0.5403  0.2819  0.1027
  783MOL0     C 5611   5.938   3.349   1.728  0.0440 -0.3653  0.4621
  783MOL0     C 5612   5.862   3.365   1.593 -0.0140  0.8592  0.0694
  783MOL0     C 5613   5.896   3.268   1.484 -0.7742  1.2597 -0.3694
  783MOL0    Cl 5614   5.777   3.257   1.352 -0.0443 -0.3636  0.5448
  783MOL0     C 5615   6.339   3.776   2.246 -0.4514 -0.2323 -0.2427
  783MOL0     C 5616   6.346   3.850   2.362  0.4543 -0.1941 -1.1197
  783MOL0     O 5617   6.128   4.108   2.432  0.0229 -0.4677 -0.3915
  783MOL0     C 5618   6.251   4.130   2.766 -0.2787  0.5412  0.0412
  783MOL0     C 5619   6.269   4.219   2.864 -0.0475  0.7423  0.3026
  783MOL0     N 5620   6.335   4.903   3.288 -0.4477 -0.1482  0.0759
  783MOL0     N 5621   6.390   5.023   3.284  0.2806 -0.5589  0.4188
  783MOL0     C 5622   7.125   6.027   3.120 -0.2290  0.6460 -0.1687
  783MOL0     C 5623   7.202   6.073   3.014 -0.4857 -0.0696  0.2230
  783MOL0     C 5624   7.294   6.292   2.598  0.3018  0.1430 -0.4930
  783MOL0     C 5625   7.232   6.338   2.479  0.5022 -0.6632 -0.4486
  783MOL0     C 5626   7.306   6.404   2.393 -0.1367 -0.7855  0.4232
  783MOL0     C 5627   7.443   6.432   2.410  0.5378 -0.7345 -0.1838
  783MOL0     O 5628   7.511   6.501   2.314  0.5091  0.5930 -0.6694
  783MOL0     C 5629   7.507   6.426   2.183  0.8315 -0.0862 -0.1745
  783MOL0     C 5630   7.548   6.497   2.062 -0.3114  0.0000  0.4366
  783MOL0     C 5631   7.693   6.543   2.072 -0.0548 -0.3029  0.6379
  783MOL0     C 5632   7.766   6.577   1.938 -0.4444 -0.2656  0.4208
  783MOL0     C 5633   7.691   6.666   1.858  0.1829 -0.6039 -0.9203
  783MOL0     C 5634   7.630   6.730   1.782 -0.0598  1.1241  0.5471
  783MOL0     C 5635   7.506   6.393   2.528 -0.1152  0.2152  0.6772
  783MOL0     C 5636   7.434   6.312   2.620 -0.4597 -0.6433 -0.3445
  783MOL0     C 5637   7.497   6.277   2.755 -0.6920  0.1027 -0.0160
  783MOL0     H 5638   6.942   6.096   2.785  0.5286 -0.6028 -0.3648
  783MOL0     H 5639   6.824   6.020   2.958 -0.0828 -2.7678  0.9454
  783MOL0     H 5640   6.760   6.036   3.349 -0.2536  0.7696 -0.1305
  783MOL0     H 5641   6.765   6.111   3.197  0.6470 -0.0538 -0.6051
  783MOL0     H 5642   6.684   5.898   3.096  3.5404 -0.3979  0.3205
  783MOL0     H 5643   6.592   5.955   3.246 -1.4671  0.0035 -1.6659
  783MOL0     H 5644   6.710   5.751   3.370 -3.4078  0.4084  0.4712
  783MOL0     H 5645   6.774   5.720   3.208 -1.7277 -1.4592 -1.4294
  783MOL0     H 5646   6.479   5.741   3.247 -0.2127 -1.5368 -0.1863
  783MOL0     H 5647   6.555   5.704   3.102 -1.8691  0.1831  0.1886
  783MOL0     H 5648   6.658   5.490   3.204  1.7578  0.9735  1.1526
  783MOL0     H 5649   6.559   5.519   3.348 -1.4961 -2.9514 -0.5741
  783MOL0     H 5650   6.350   5.535   3.211  0.7219  0.0181  1.7382
  783MOL0     H 5651   6.433   5.486   3.069 -2.1343  2.8169  0.0264
  783MOL0     H 5652   6.440   5.313   3.329  2.9466  0.2176  0.7589
  783MOL0     H 5653   6.516   5.284   3.163 -1.5615  0.7788 -2.9667
  783MOL0     H 5654   6.219   5.308   3.197  2.0035  1.8907  1.8252
  783MOL0     H 5655   6.303   5.216   3.073  0.2873 -1.0807  0.7284
  783MOL0     H 5656   6.076   5.083   3.234  0.2735  0.0078 -0.6845
  783MOL0     H 5657   6.116   4.742   3.384 -0.1388  0.2719  0.3289
  783MOL0     H 5658   6.000   4.851   3.328 -0.6606 -1.1626  1.1683
  783MOL0     H 5659   5.985   4.667   3.159  0.2824 -0.5210  0.6693
  783MOL0     H 5660   6.070   4.803   3.081 -0.0247  2.6818  1.4687
  783MOL0     H 5661   6.189   4.545   3.216  1.6528  0.3092 -0.2136
  783MOL0     H 5662   6.285   4.655   3.114 -0.2362  1.3155 -0.4051
  783MOL0     H 5663   6.140   4.604   2.922 -2.0384 -2.5001 -2.3666
  783MOL0     H 5664   6.054   4.482   3.012 -2.0305  1.6775 -2.7361
  783MOL0     H 5665   6.114   4.492   2.730  1.8780  0.6617 -2.1680
  783MOL0     H 5666   6.083   4.319   2.542 -0.4349  0.5727  1.3676
  783MOL0     H 5667   6.040   3.745   2.492  2.1329  1.1666  1.0856
  783MOL0     H 5668   6.044   3.608   2.288  0.9781  0.1256 -3.2544
  783MOL0     H 5669   6.271   3.453   2.212 -0.3759 -1.1943  0.4011
  783MOL0     H 5670   6.134   3.448   2.092 -0.2503  2.5634 -2.0254
  783MOL0     H 5671   6.439   3.463   2.011 -0.0277 -0.5214  3.3034
  783MOL0     H 5672   6.355   3.311   2.022 -1.3912 -1.7534 -3.4349
  783MOL0     H 5673   6.305   3.533   1.820  1.2603  0.5488  0.7455
  783MOL0     H 5674   6.339   3.356   1.784 -1.2948 -0.2167 -0.6067
  783MOL0     H 5675   6.091   3.494   1.881 -1.9117 -1.2240  1.5993
  783MOL0     H 5676   6.111   3.319   1.905  3.9493 -0.5240  1.5724
  783MOL0     H 5677   6.138   3.303   1.651  0.3484  1.2922 -0.6442
  783MOL0     H 5678   6.100   3.473   1.642 -1.6115 -1.0683 -2.1439
  783MOL0     H 5679   5.937   3.244   1.759 -0.4361 -0.3418  0.5215
  783MOL0     H 5680   5.898   3.399   1.817 -2.5476  0.6716 -1.2035
  783MOL0     H 5681   5.878   3.468   1.560  0.0082  0.8132 -0.0643
  783MOL0     H 5682   5.755   3.355   1.611  0.0701  0.3986  0.3377
  783MOL0     H 5683   5.995   3.274   1.437 -0.8670  0.3321 -0.7001
  783MOL0     H 5684   5.904   3.170   1.530  2.5392  2.1055  1.1574
  783MOL0     H 5685   6.432   3.783   2.191  0.6286 -1.5037  1.3537
  783MOL0     H 5686   6.437   3.894   2.401  1.0891  2.1623 -4.7561
  783MOL0     H 5687   6.303   4.037   2.786 -1.0194 -0.1565 -1.1534
  783MOL0     H 5688   6.310   4.185   2.959 -0.7257 -2.0759 -0.3054
  783MOL0     H 5689   7.167   6.009   3.218 -0.6263 -2.3075 -0.4525
  783MOL0     H 5690   7.309   6.082   3.028  0.0808 -2.3641 -1.7761
  783MOL0     H 5691   7.130   6.312   2.450 -0.0494  1.8413 -1.0970
  783MOL0     H 5692   7.258   6.432   2.300  1.2426 -0.2428 -0.1520
  783MOL0     H 5693   7.403   6.408   2.154  1.7487 -0.8764 -3.3069
  783MOL0     H 5694   7.555   6.330   2.201  0.5653 -0.0835  0.5989
  783MOL0     H 5695   7.481   6.571   2.018 -0.7896 -0.4986  0.3173
  783MOL0     H 5696   7.552   6.422   1.982  1.0147 -0.7120  1.1248
  783MOL0     H 5697   7.753   6.466   2.122 -1.6718 -2.2073 -0.2116
  783MOL0     H 5698   7.704   6.626   2.142 -0.7448 -0.1998  0.6269
  783MOL0     H 5699   7.860   6.630   1.955 -0.8186  0.5096  0.1197
  783MOL0     H 5700   7.792   6.485   1.886  0.1049 -0.9497  1.8630
  783MOL0     H 5701   7.570   6.781   1.709  2.9180  1.2489 -2.0221
  783MOL0     H 5702   7.608   6.426   2.540  1.0550 -2.2356 -1.4433
  783MOL0     H 5703   7.604   6.297   2.750  0.0031 -2.7118  1.1711
  783MOL0     H 5704   7.456   6.342   2.832 -0.4513 -0.9672  1.0555
  783MOL0     H 5705   7.492   6.174   2.792  0.0371  1.4500  4.3536
  784MOL0     O 5706   2.304   2.394   7.353 -0.5951  0.4433  0.9293
  784MOL0     C 5707   2.256   2.397   7.237 -0.5844  0.4840 -0.1622
  784MOL0     O 5708   2.305   2.483   7.144  0.1621 -0.0064 -0.0316
  784MOL0     C 5709   2.417   2.559   7.164  0.5822  1.1319  0.5776
  784MOL0     C 5710   2.504   2.562   7.063  0.3609  0.0100  0.1574
  784MOL0     C 5711   2.606   2.651   7.061  0.1519 -0.1438 -0.0190
  784MOL0     C 5712   2.625   2.739   7.171  0.3613  0.7527  0.6683
  784MOL0     O 5713   2.718   2.837   7.172  0.3481  0.2084  0.3037
  784MOL0     C 5714   2.661   2.964   7.133  0.0534  0.9014 -0.2997
  784MOL0     C 5715   2.764   3.068   7.077 -0.2021  0.0893  0.1927
  784MOL0     C 5716   2.865   3.124   7.174 -0.6313 -0.5301  0.5125
  784MOL0     C 5717   2.971   3.206   7.110 -0.2872  0.1819 -0.3183
  784MOL0     C 5718   3.054   3.285   7.212 -0.3613  0.1156 -0.0604
  784MOL0     C 5719   2.967   3.400   7.276 -0.2236 -0.0540 -0.0734
  784MOL0     C 5720   3.051   3.497   7.346  0.3994  0.2842 -0.3589
  784MOL0     C 5721   2.963   3.596   7.411 -0.3181 -0.2144  0.9104
  784MOL0     N 5722   3.014   3.694   7.500  0.1393  0.3227  0.3542
  784MOL0     C 5723   3.108   3.785   7.460  0.0759 -0.5565 -0.3523
  784MOL0     C 5724   3.140   3.873   7.565  0.5637  0.2227  0.5203
  784MOL0     C 5725   3.220   4.009   7.559  0.2686 -0.1096  0.0044
  784MOL0     C 5726   3.151   4.114   7.652  0.2404 -0.3373  0.5534
  784MOL0     C 5727   3.054   4.219   7.597 -0.5742 -0.1546 -0.3818
  784MOL0     C 5728   2.913   4.169   7.566  0.1194 -0.2382 -0.2180
  784MOL0     O 5729   2.839   4.278   7.620  0.7087 -0.8226 -0.3025
  784MOL0     C 5730   2.704   4.260   7.618  0.5834  0.0828 -0.1679
  784MOL0     C 5731   2.642   4.176   7.520  0.6555  0.3433 -0.4464
  784MOL0     C 5732   2.503   4.171   7.525 -0.1844  0.7123  0.7107
  784MOL0     C 5733   2.421   4.253   7.603 -0.3240  0.1609 -0.7071
  784MOL0     C 5734   2.273   4.238   7.613  0.3686  0.3108 -0.6492
  784MOL0     O 5735   2.225   4.251   7.739  0.0450 -0.2584  0.1513
  784MOL0     C 5736   2.096   4.228   7.764  1.0930  0.0882 -0.6291
  784MOL0     C 5737   2.063   4.140   7.868 -0.0656 -1.0664 -0.2966
  784MOL0     C 5738   1.929   4.121   7.910 -0.6467 -1.4975 -0.0602
  784MOL0     C 5739   1.827   4.190   7.845  0.7512  0.1524 -0.5944
  784MOL0     O 5740   1.696   4.163   7.879  0.5100 -0.6131 -0.6776
  784MOL0     C 5741   1.658   4.040   7.944  0.0894  0.6340 -0.3382
  784MOL0     C 5742   1.665   4.061   8.097  0.4044 -0.0237 -0.2120
  784MOL0     C 5743   1.546   4.127   8.167 -0.7388 -0.8243 -0.0568
  784MOL0     C 5744   1.596   4.275   8.190 -0.3849  0.4603  0.9315
  784MOL0     C 5745   1.697   4.302   8.302 -0.0980 -0.3126  0.3701
  784MOL0     C 5746   1.646   4.260   8.440 -0.1975  0.3805  0.1978
  784MOL0     C 5747   1.748   4.297   8.551  0.5927  0.0177  0.6826
  784MOL0     C 5748   1.679   4.265   8.683 -0.4415 -0.6207 -0.4075
  784MOL0    Cl 5749   1.795   4.220   8.810  0.1862  0.2694 -0.0240
  784MOL0     C 5750   1.862   4.288   7.752 -0.1271  0.0911  0.1863
  784MOL0     C 5751   2.000   4.313   7.711 -0.5483 -0.0836 -0.5750
  784MOL0     O 5752   2.203   4.216   7.516  0.1130 -0.2791 -0.1842
  784MOL0     C 5753   2.488   4.339   7.695  0.6314 -0.6796 -0.8310
  784MOL0     C 5754   2.627   4.343   7.699  0.5757  0.2532 -1.1714
  784MOL0     N 5755   3.047   3.834   7.662  0.4384  1.1254 -0.3522
  784MOL0     N 5756   2.978   3.729   7.626  0.2169 -0.2750  0.7990
  784MOL0     C 5757   2.551   2.725   7.282  0.2782 -0.1062 -0.9055
  784MOL0     C 5758   2.442   2.639   7.279 -0.3516  0.1841  0.0832
  784MOL0     C 5759   2.142   2.309   7.195  0.7987  0.5001  0.4379
  784MOL0     C 5760   2.116   2.308   7.047 -0.3798 -0.9367 -0.2284
  784MOL0     C 5761   2.010   2.234   6.991  0.5748 -0.0756  0.1326
  784MOL0     C 5762   1.936   2.159   7.077 -0.0467 -0.4768 -0.6380
  784MOL0     O 5763   1.821   2.100   7.035  0.1988 -0.9126  0.2224
  784MOL0     C 5764   1.842   1.968   6.984 -0.3203  0.6594 -0.7369
  784MOL0     C 5765   1.747   1.856   7.034  0.0093 -0.7419  0.0150
  784MOL0     C 5766   1.602   1.885   7.004 -0.2751 -0.7678 -1.0251
  784MOL0     C 5767   1.528   1.785   7.092  1.9660  0.0872 -0.3239
  784MOL0     C 5768   1.383   1.783   7.053 -0.6616 -0.2603 -0.5858
  784MOL0     C 5769   1.269   1.775   7.027  0.6177 -0.4691 -0.4804
  784MOL0     C 5770   1.949   2.167   7.216  0.4424  0.2904  0.5743
  784MOL0     C 5771   2.056   2.238   7.281 -0.1029 -0.0662  1.4298
  784MOL0     C 5772   2.066   2.243   7.427  0.5131  0.0004 -0.0771
  784MOL0     H 5773   2.484   2.504   6.973 -0.4549 -4.2372  2.8109
  784MOL0     H 5774   2.681   2.651   6.982 -0.2595 -1.3447 -0.4198
  784MOL0     H 5775   2.584   2.951   7.056 -1.3300 -0.7730  1.2943
  784MOL0     H 5776   2.615   3.008   7.221  0.0706 -2.9470  1.8169
  784MOL0     H 5777   2.707   3.151   7.036  0.9507  1.0192  0.4023
  784MOL0     H 5778   2.823   3.024   6.996 -0.1002  1.5468 -0.5541
  784MOL0     H 5779   2.915   3.037   7.216  2.4825  1.1793  0.6089
  784MOL0     H 5780   2.833   3.194   7.252  0.0857 -0.0944  0.4253
  784MOL0     H 5781   3.033   3.136   7.053 -0.6338 -1.2998  1.0679
  784MOL0     H 5782   2.922   3.281   7.046  1.0946 -0.6177 -2.4092
  784MOL0     H 5783   3.093   3.226   7.295 -0.8305 -1.9298 -1.2383
  784MOL0     H 5784   3.136   3.335   7.159  1.3544  0.5061  2.7849
  784MOL0     H 5785   2.902   3.437   7.196  0.5418  0.1063 -0.6343
  784MOL0     H 5786   2.904   3.362   7.357  2.2374 -3.4299  0.4910
  784MOL0     H 5787   3.118   3.559   7.285 -1.8762  1.4125 -1.8418
  784MOL0     H 5788   3.110   3.454   7.427 -0.4622  2.8127  1.7366
  784MOL0     H 5789   2.900   3.642   7.334 -0.4170 -0.3343  0.9190
  784MOL0     H 5790   2.900   3.537   7.478 -0.9211 -0.5932  0.0206
  784MOL0     H 5791   3.157   3.812   7.367  1.5593  4.5679  1.5513
  784MOL0     H 5792   3.314   3.978   7.605  1.6577 -0.4497 -2.8589
  784MOL0     H 5793   3.236   4.047   7.458  0.0907  1.9107  0.6940
  784MOL0     H 5794   3.101   4.068   7.738  0.5562  0.4071  1.1482
  784MOL0     H 5795   3.235   4.170   7.695 -0.3855  0.7108  0.4244
  784MOL0     H 5796   3.101   4.249   7.503  1.0150 -1.6449 -0.1225
  784MOL0     H 5797   3.040   4.302   7.666 -2.3430 -1.0473  0.3772
  784MOL0     H 5798   2.880   4.075   7.612  0.3688 -0.9405 -1.4397
  784MOL0     H 5799   2.885   4.157   7.461 -3.7855 -2.7096  0.8855
  784MOL0     H 5800   2.685   4.129   7.432 -1.7109 -1.9185 -0.5073
  784MOL0     H 5801   2.442   4.106   7.463 -1.2204  0.0951  2.3031
  784MOL0     H 5802   2.144   4.088   7.919  0.5081  0.0654 -0.0239
  784MOL0     H 5803   1.925   4.044   7.986  3.3177 -1.6053  0.2096
  784MOL0     H 5804   1.553   4.015   7.925  0.2117 -2.0524  1.8012
  784MOL0     H 5805   1.729   3.960   7.922  0.1387  0.2755  1.0303
  784MOL0     H 5806   1.651   3.959   8.135  1.2234  0.4143  1.3847
  784MOL0     H 5807   1.763   4.099   8.127  0.4395 -0.0860 -0.2481
  784MOL0     H 5808   1.451   4.116   8.114 -1.7918 -0.2242  1.6444
  784MOL0     H 5809   1.534   4.073   8.261  0.4151 -1.2659 -0.1431
  784MOL0     H 5810   1.507   4.330   8.221 -0.7263 -0.1956  1.1530
  784MOL0     H 5811   1.631   4.313   8.094 -1.8791 -1.0931 -0.3072
  784MOL0     H 5812   1.723   4.408   8.296 -1.7533  0.0587 -0.7001
  784MOL0     H 5813   1.789   4.245   8.286  0.2573  0.4617 -0.3968
  784MOL0     H 5814   1.553   4.307   8.472 -0.4169 -0.7886  1.3554
  784MOL0     H 5815   1.623   4.154   8.434 -1.2256  0.6662 -2.0653
  784MOL0     H 5816   1.762   4.406   8.545  2.1009 -0.2314 -3.1323
  784MOL0     H 5817   1.846   4.253   8.531  1.0650  1.6733 -1.0113
  784MOL0     H 5818   1.614   4.348   8.712 -1.3778 -1.4652  0.0048
  784MOL0     H 5819   1.609   4.181   8.671 -0.6449 -0.5863  0.4620
  784MOL0     H 5820   1.782   4.339   7.699 -1.4021 -2.1097 -0.1389
  784MOL0     H 5821   2.029   4.393   7.643  0.6330 -1.2304 -1.4596
  784MOL0     H 5822   2.430   4.397   7.766  0.1100 -1.6553 -0.4510
  784MOL0     H 5823   2.678   4.406   7.771  0.8366  1.4089 -2.3395
  784MOL0     H 5824   2.578   2.782   7.370  1.6062 -1.7615 -0.1770
  784MOL0     H 5825   2.378   2.639   7.366  0.1355 -1.8624  0.4977
  784MOL0     H 5826   2.176   2.374   6.985 -0.7491  1.3356  1.7078
  784MOL0     H 5827   1.977   2.253   6.889  2.6927 -0.8237 -0.7513
  784MOL0     H 5828   1.941   1.926   7.005 -2.5706 -4.9164  0.3497
  784MOL0     H 5829   1.827   1.975   6.876  1.4913 -2.2385 -1.2807
  784MOL0     H 5830   1.772   1.833   7.138 -0.6714 -0.0928  0.3306
  784MOL0     H 5831   1.773   1.766   6.978  1.5587  1.3794 -2.9634
  784MOL0     H 5832   1.581   1.870   6.898  0.2206 -3.2364 -0.8394
  784MOL0     H 5833   1.577   1.986   7.040 -1.7776 -2.0076  1.7599
  784MOL0     H 5834   1.564   1.682   7.081  2.1385  0.0021  0.8949
  784MOL0     H 5835   1.528   1.809   7.198  2.8839  1.8139 -0.6731
  784MOL0     H 5836   1.171   1.753   6.992  0.2248 -1.0114  0.8851
  784MOL0     H 5837   1.875   2.116   7.276 -0.7807 -1.1881 -2.0196
  784MOL0     H 5838   2.157   2.193   7.463 -0.3586 -0.7317  1.1733
  784MOL0     H 5839   2.064   2.346   7.465 -0.1438 -0.1037  0.1762
  784MOL0     H 5840   1.975   2.198   7.467 -1.2832  3.1111 -0.3396
  785MOL0     O 5841   7.187  10.803   7.939  0.8557 -0.0163 -0.0967
  785MOL0     C 5842   7.179  10.816   7.816 -0.0408  0.2142 -0.0708
  785MOL0     O 5843   7.123  10.737   7.725  0.0537  1.4052 -0.2351
  785MOL0     C 5844   7.051  10.631   7.761 -0.7994 -0.8977  0.1361
  785MOL0     C 5845   7.080  10.509   7.699 -0.4086  0.3792  0.1203
  785MOL0     C 5846   6.994  10.401   7.723 -1.0304 -0.3393  0.2374
  785MOL0     C 5847   6.890  10.410   7.825 -0.0464 -1.3762 -0.4335
  785MOL0     O 5848   6.820  10.301   7.868  0.2493 -0.6809 -0.0519
  785MOL0     C 5849   6.770  10.217   7.764  0.4162  0.0993  0.1212
  785MOL0     C 5850   6.673  10.110   7.814 -0.9056 -0.0010  0.1268
  785MOL0     C 5851   6.577  10.049   7.711 -0.3564 -0.2282  0.8658
  785MOL0     C 5852   6.649   9.949   7.613 -1.0803 -0.6871 -0.5135
  785MOL0     C 5853   6.553   9.910   7.499  0.5409 -1.4491 -0.6649
  785MOL0     C 5854   6.413   9.872   7.550  0.3097  0.9331  0.8887
  785MOL0     C 5855   6.418   9.739   7.640  1.0644  0.0810 -0.6161
  785MOL0     C 5856   6.280   9.698   7.687  0.3117 -0.0553  0.0163
  785MOL0     N 5857   6.201   9.799   7.762 -0.4398  0.2699  0.3399
  785MOL0     C 5858   6.224   9.858   7.885 -0.3862 -0.2833  1.0595
  785MOL0     C 5859   6.140   9.966   7.889  0.3401 -0.7812 -0.3966
  785MOL0     C 5860   6.112  10.053   8.004 -0.1456  0.5129  0.2858
  785MOL0     C 5861   6.223  10.142   8.035 -0.7450 -0.1632 -0.0863
  785MOL0     C 5862   6.254  10.230   7.917  0.0504 -0.4565 -0.3559
  785MOL0     C 5863   6.351  10.343   7.966 -0.2278  0.2055  0.2606
  785MOL0     O 5864   6.408  10.393   7.831  0.2740 -0.2218  0.0692
  785MOL0     C 5865   6.468  10.513   7.823 -0.1381  0.1255  0.2832
  785MOL0     C 5866   6.493  10.602   7.933 -1.1754 -0.6852 -0.7906
  785MOL0     C 5867   6.550  10.731   7.918  0.7998  1.1646 -0.5644
  785MOL0     C 5868   6.585  10.775   7.792  0.3351 -0.5708 -0.3480
  785MOL0     C 5869   6.638  10.905   7.773  0.0786 -0.6586 -0.3281
  785MOL0     O 5870   6.682  10.928   7.647  0.1028 -0.4002 -0.3183
  785MOL0     C 5871   6.710  11.055   7.604 -0.2124  0.9725  0.3132
  785MOL0     C 5872   6.624  11.162   7.625  0.7694  0.0767 -0.0725
  785MOL0     C 5873   6.658  11.285   7.580  0.1868 -0.7524  0.4681
  785MOL0     C 5874   6.774  11.302   7.497  0.0012 -1.0719 -0.6600
  785MOL0     O 5875   6.820  11.428   7.477  0.4500 -0.2991  0.3466
  785MOL0     C 5876   6.959  11.462   7.479  0.3413 -0.0499 -0.3273
  785MOL0     C 5877   6.982  11.611   7.478 -0.5393  0.3665 -0.2581
  785MOL0     C 5878   6.988  11.673   7.330  0.1800 -0.2200 -0.1926
  785MOL0     C 5879   6.976  11.827   7.340 -0.6609 -1.3117  0.4031
  785MOL0     C 5880   6.969  11.894   7.199 -0.3435  0.4237 -0.5027
  785MOL0     C 5881   7.018  12.043   7.208  0.7360 -0.1242  0.2711
  785MOL0     C 5882   7.015  12.104   7.069  0.3392 -0.4362  0.0074
  785MOL0     C 5883   6.977  12.256   7.058 -0.5144  0.4643 -0.1720
  785MOL0    Cl 5884   7.087  12.364   7.144 -0.0742 -0.0752 -0.1236
  785MOL0     C 5885   6.846  11.189   7.459 -0.5121 -0.2073  0.5974
  785MOL0     C 5886   6.813  11.061   7.508  0.1662 -1.0556  0.2238
  785MOL0     O 5887   6.637  10.977   7.868  0.7396  0.4299 -0.1363
  785MOL0     C 5888   6.561  10.678   7.686 -0.3640 -0.1853 -0.0457
  785MOL0     C 5889   6.506  10.547   7.699 -1.6824 -0.1414 -0.6742
  785MOL0     N 5890   6.075   9.976   7.770  0.8963 -0.3976 -0.0513
  785MOL0     N 5891   6.115   9.884   7.691  0.0183 -0.0527 -0.0370
  785MOL0     C 5892   6.876  10.530   7.889 -0.5946 -0.3844 -0.6629
  785MOL0     C 5893   6.957  10.639   7.858  0.0136 -0.6419 -0.2408
  785MOL0     C 5894   7.224  10.949   7.759 -0.6951  0.1812 -0.9583
  785MOL0     C 5895   7.168  10.994   7.639 -0.0355 -0.5080  0.4913
  785MOL0     C 5896   7.198  11.120   7.582 -0.1564  0.4503  1.2630
  785MOL0     C 5897   7.283  11.200   7.645 -0.3059 -0.2572  0.1976
  785MOL0     O 5898   7.305  11.319   7.581  0.1471  0.6167 -0.4001
  785MOL0     C 5899   7.397  11.418   7.628  0.0222 -1.0649 -0.2792
  785MOL0     C 5900   7.343  11.512   7.732 -0.6224 -0.2679 -0.7096
  785MOL0     C 5901   7.408  11.647   7.724  0.2832 -0.6953  0.3680
  785MOL0     C 5902   7.350  11.722   7.846  0.5444 -0.6422  0.4671
  785MOL0     C 5903   7.421  11.697   7.973  0.8977 -0.8794 -0.0982
  785MOL0     C 5904   7.462  11.670   8.082 -0.1042 -0.2192  0.3230
  785MOL0     C 5905   7.341  11.164   7.763  0.5901  0.7538 -0.5379
  785MOL0     C 5906   7.311  11.035   7.823 -0.4027 -0.0961  0.4906
  785MOL0     C 5907   7.387  11.010   7.946 -0.0897  0.6072  0.8100
  785MOL0     H 5908   7.157  10.492   7.624 -0.9345  0.1832 -0.3888
  785MOL0     H 5909   7.010  10.306   7.674 -1.4656  0.4113 -1.4178
  785MOL0     H 5910   6.726  10.278   7.685 -2.7861 -0.6029  1.2286
  785MOL0     H 5911   6.852  10.162   7.715  1.3071 -0.1580  1.8318
  785MOL0     H 5912   6.625  10.158   7.900  1.6764 -1.4091  2.5373
  785MOL0     H 5913   6.743  10.036   7.854  0.2463  0.8456 -0.2901
  785MOL0     H 5914   6.533  10.129   7.651 -1.2255 -1.5403 -0.3082
  785MOL0     H 5915   6.492   9.999   7.759  1.1975 -4.6165 -0.5214
  785MOL0     H 5916   6.737  10.000   7.574 -1.0979 -2.3401 -2.9203
  785MOL0     H 5917   6.692   9.863   7.666  2.3906  0.6439 -0.9300
  785MOL0     H 5918   6.550  10.002   7.439 -0.5646  2.1366  4.2397
  785MOL0     H 5919   6.600   9.834   7.436  2.7669 -1.8111  1.2830
  785MOL0     H 5920   6.358   9.953   7.599 -2.8004 -0.4467 -0.0476
  785MOL0     H 5921   6.348   9.856   7.464 -2.0349  0.5373  2.6303
  785MOL0     H 5922   6.482   9.766   7.725 -1.3782 -0.2436  1.4760
  785MOL0     H 5923   6.464   9.655   7.587  1.7444 -0.8032  1.2624
  785MOL0     H 5924   6.225   9.660   7.601 -1.2295  2.0684 -0.0269
  785MOL0     H 5925   6.295   9.621   7.764  1.1396  1.6456  1.6364
  785MOL0     H 5926   6.286   9.808   7.959  0.7248 -2.5419 -1.2672
  785MOL0     H 5927   6.019  10.106   7.980 -0.5782  0.8441  2.4898
  785MOL0     H 5928   6.099   9.999   8.098  0.1779  3.5156  2.1814
  785MOL0     H 5929   6.206  10.201   8.125  1.9326 -0.3346  0.6008
  785MOL0     H 5930   6.313  10.081   8.047 -2.6319 -3.5163 -1.3914
  785MOL0     H 5931   6.166  10.277   7.873  1.8565  2.4562 -1.1415
  785MOL0     H 5932   6.307  10.166   7.846  3.6559 -0.2181  1.8609
  785MOL0     H 5933   6.434  10.294   8.018  0.6724  0.4223 -0.9326
  785MOL0     H 5934   6.298  10.421   8.021 -1.3099  0.0960 -0.5970
  785MOL0     H 5935   6.474  10.581   8.038 -1.0846  2.7056  0.0313
  785MOL0     H 5936   6.554  10.792   8.008 -1.6987  0.2907  0.2236
  785MOL0     H 5937   6.534  11.151   7.685  1.6676 -0.8273  1.1707
  785MOL0     H 5938   6.591  11.358   7.624 -0.8064 -1.4354  0.1397
  785MOL0     H 5939   6.981  11.428   7.581  0.6929 -2.0664 -1.0338
  785MOL0     H 5940   7.020  11.421   7.398  0.8064  3.1241 -1.7525
  785MOL0     H 5941   6.901  11.653   7.539 -0.4908 -0.8466  0.6928
  785MOL0     H 5942   7.072  11.639   7.533  0.1706 -1.7637 -0.2436
  785MOL0     H 5943   7.074  11.634   7.275 -1.0791 -2.0318 -0.9447
  785MOL0     H 5944   6.900  11.638   7.275  0.2811 -2.1340  0.7894
  785MOL0     H 5945   7.071  11.862   7.384 -0.7989  1.8107 -1.5238
  785MOL0     H 5946   6.889  11.870   7.390  0.5585 -0.5700  1.9852
  785MOL0     H 5947   6.863  11.913   7.177 -0.8632  0.5038  1.7582
  785MOL0     H 5948   7.023  11.834   7.126  1.3809  0.3467  0.7666
  785MOL0     H 5949   6.966  12.100   7.286  0.8406 -1.5553  1.4485
  785MOL0     H 5950   7.123  12.050   7.239  0.3138 -1.7650  2.3019
  785MOL0     H 5951   6.950  12.049   7.000 -1.2283  0.6955  0.5071
  785MOL0     H 5952   7.116  12.097   7.027  0.6530  3.2047 -0.1949
  785MOL0     H 5953   6.971  12.276   6.951  0.6319  2.1758  0.0595
  785MOL0     H 5954   6.879  12.250   7.106  0.4465  0.4161  1.9031
  785MOL0     H 5955   6.931  11.197   7.392 -2.1421 -0.4984 -1.6204
  785MOL0     H 5956   6.866  10.972   7.477 -1.2275 -2.2458  1.1010
  785MOL0     H 5957   6.605  10.712   7.593  0.8604 -1.3360  0.0854
  785MOL0     H 5958   6.502  10.479   7.615 -2.1932 -0.3962 -0.4505
  785MOL0     H 5959   6.805  10.554   7.968  2.2241 -0.2186  2.0097
  785MOL0     H 5960   6.935  10.726   7.920 -1.4218 -0.0631 -1.4973
  785MOL0     H 5961   7.103  10.927   7.584 -0.8968  2.0716 -1.8439
  785MOL0     H 5962   7.139  11.160   7.500 -1.0943  0.0478  1.7295
  785MOL0     H 5963   7.414  11.480   7.540 -4.0439  0.5552 -0.1222
  785MOL0     H 5964   7.490  11.368   7.657  0.5358  1.5886  3.3174
  785MOL0     H 5965   7.387  11.463   7.820  2.6817  0.0571 -2.0249
  785MOL0     H 5966   7.234  11.515   7.736 -0.7136  2.9596 -2.2925
  785MOL0     H 5967   7.381  11.706   7.636 -1.1667  0.5681  1.5994
  785MOL0     H 5968   7.517  11.638   7.722  0.4660  1.0786  0.3596
  785MOL0     H 5969   7.360  11.829   7.826 -2.3527 -0.5452 -0.9723
  785MOL0     H 5970   7.242  11.703   7.855  0.2543  1.1459  1.3426
  785MOL0     H 5971   7.488  11.646   8.184 -4.9657 -2.5999  1.2962
  785MOL0     H 5972   7.416  11.227   7.810  0.8324  0.7395 -0.9082
  785MOL0     H 5973   7.317  11.012   8.029 -1.2085 -0.7372 -0.0553
  785MOL0     H 5974   7.438  10.912   7.942  0.3212  0.7353  2.3554
  785MOL0     H 5975   7.475  11.073   7.960  1.0170 -0.5521 -0.5860
  786MOL0     O 5976   4.442   6.785   5.114  0.1826  0.0420  0.1890
  786MOL0     C 5977   4.422   6.899   5.070 -0.5246  0.5239 -0.4528
  786MOL0     O 5978   4.370   6.925   4.952  0.5258  0.1443 -0.6548
  786MOL0     C 5979   4.333   6.821   4.872  0.8020  0.2893  0.6889
  786MOL0     C 5980   4.201   6.784   4.866  0.1515  0.5143 -0.4102
  786MOL0     C 5981   4.166   6.674   4.803  0.7953  0.3484  0.3426
  786MOL0     C 5982   4.262   6.584   4.741 -0.2956 -0.3469  0.4342
  786MOL0     O 5983   4.233   6.471   4.661 -0.1731  0.0052  0.0917
  786MOL0     C 5984   4.104   6.402   4.659  0.1550 -0.7954  0.2038
  786MOL0     C 5985   4.141   6.263   4.605 -0.0522  0.8937 -0.2948
  786MOL0     C 5986   4.175   6.264   4.462  0.2988 -0.1660 -0.8757
  786MOL0     C 5987   4.187   6.127   4.411 -0.3603 -0.0592 -1.0829
  786MOL0     C 5988   4.063   6.032   4.415  0.3355 -0.2609  0.3348
  786MOL0     C 5989   3.939   6.088   4.348  0.2381 -0.5956 -0.2281
  786MOL0     C 5990   3.820   5.999   4.380  0.1191  0.5482  0.0162
  786MOL0     C 5991   3.851   5.855   4.340  0.6151 -0.4368  0.0714
  786MOL0     N 5992   3.728   5.770   4.329 -0.5895 -0.0413  1.0926
  786MOL0     C 5993   3.635   5.774   4.228 -0.2947  0.6390 -0.7122
  786MOL0     C 5994   3.535   5.686   4.273  0.9149  0.3482 -0.0547
  786MOL0     C 5995   3.402   5.665   4.203  0.1030 -0.0405 -0.1057
  786MOL0     C 5996   3.287   5.687   4.300 -0.6493 -0.2195  0.6270
  786MOL0     C 5997   3.257   5.832   4.331 -0.5359  0.0528 -0.3895
  786MOL0     C 5998   3.150   5.847   4.441  0.3093  0.8459  0.3724
  786MOL0     O 5999   3.180   5.775   4.566 -0.5602  0.4558  0.6382
  786MOL0     C 6000   3.269   5.857   4.637 -0.1584 -0.2774 -0.5592
  786MOL0     C 6001   3.260   5.984   4.700 -0.1773 -0.1730  0.0502
  786MOL0     C 6002   3.359   6.062   4.753  0.5049  0.2909 -0.5701
  786MOL0     C 6003   3.487   6.006   4.748  0.3307  0.5361 -0.7385
  786MOL0     C 6004   3.591   6.088   4.809  0.3458  0.4076  0.7181
  786MOL0     O 6005   3.554   6.182   4.898  0.7058 -1.0854 -0.0737
  786MOL0     C 6006   3.646   6.263   4.963 -0.0399  0.4964  0.6159
  786MOL0     C 6007   3.756   6.329   4.906 -0.2005  0.1032 -0.6080
  786MOL0     C 6008   3.837   6.410   4.988 -0.2162  0.1255  0.4783
  786MOL0     C 6009   3.811   6.423   5.123 -0.6533  0.9998 -0.7572
  786MOL0     O 6010   3.892   6.492   5.208  0.3051  0.4303  0.4908
  786MOL0     C 6011   4.030   6.510   5.181 -0.0337 -0.1167 -0.0818
  786MOL0     C 6012   4.105   6.510   5.314 -0.2082 -0.6306  0.1924
  786MOL0     C 6013   4.250   6.534   5.308 -1.2661 -0.9472 -0.4553
  786MOL0     C 6014   4.330   6.412   5.261  0.0759  0.6742  0.2330
  786MOL0     C 6015   4.484   6.418   5.235 -0.0144 -0.1417  0.1363
  786MOL0     C 6016   4.549   6.497   5.339 -0.2208 -0.4255 -0.7063
  786MOL0     C 6017   4.546   6.433   5.478  0.4377 -0.1864 -0.1522
  786MOL0     C 6018   4.637   6.523   5.563  0.3613  0.6413  0.4021
  786MOL0    Cl 6019   4.617   6.469   5.739 -0.3962  0.0059  0.2153
  786MOL0     C 6020   3.699   6.358   5.181  0.6360  0.4092  0.9201
  786MOL0     C 6021   3.625   6.276   5.094  0.3696 -0.2880  0.9379
  786MOL0     O 6022   3.709   6.053   4.786 -0.7111  0.0412  0.0351
  786MOL0     C 6023   3.508   5.884   4.680  0.0805  0.7233 -0.6608
  786MOL0     C 6024   3.401   5.810   4.634  0.3083  0.1461 -0.9178
  786MOL0     N 6025   3.580   5.617   4.383 -0.1403  0.2066 -0.0533
  786MOL0     N 6026   3.700   5.661   4.406 -0.1043 -0.0877  0.2209
  786MOL0     C 6027   4.400   6.613   4.753 -0.1387 -0.2614 -0.6457
  786MOL0     C 6028   4.435   6.736   4.821 -0.3504  0.0348  0.6076
  786MOL0     C 6029   4.469   7.014   5.148 -0.6695 -0.1393  0.2679
  786MOL0     C 6030   4.518   6.993   5.284 -0.0822  0.9630  0.1765
  786MOL0     C 6031   4.553   7.101   5.364  0.2715 -0.4050  0.1908
  786MOL0     C 6032   4.557   7.238   5.316  1.8731 -0.3485  0.3064
  786MOL0     O 6033   4.582   7.348   5.383  0.3626  0.2961 -0.5495
  786MOL0     C 6034   4.714   7.367   5.438 -0.4854  0.2400  0.1603
  786MOL0     C 6035   4.735   7.345   5.592  0.8442 -0.2290 -0.5399
  786MOL0     C 6036   4.631   7.422   5.676  0.0086 -0.4985  0.7376
  786MOL0     C 6037   4.671   7.421   5.833 -0.0826  0.1845  0.3314
  786MOL0     C 6038   4.782   7.497   5.882 -0.4494 -0.4379 -0.4800
  786MOL0     C 6039   4.876   7.561   5.918  0.0563  0.2369 -0.3498
  786MOL0     C 6040   4.528   7.254   5.185 -0.4464  0.5600 -0.4899
  786MOL0     C 6041   4.479   7.156   5.100 -0.2327 -0.0545 -0.2850
  786MOL0     C 6042   4.465   7.203   4.959  0.5402 -0.3579 -0.1393
  786MOL0     H 6043   4.123   6.847   4.908 -0.3467  0.3226 -1.0415
  786MOL0     H 6044   4.060   6.653   4.792  1.0121  0.0101 -1.2787
  786MOL0     H 6045   4.050   6.402   4.753 -1.3575  0.8063 -0.6020
  786MOL0     H 6046   4.044   6.458   4.586 -0.0114  0.0979  1.0142
  786MOL0     H 6047   4.053   6.201   4.622 -0.8798  0.9013 -3.7738
  786MOL0     H 6048   4.219   6.220   4.669 -0.8815 -0.1463  0.0357
  786MOL0     H 6049   4.272   6.309   4.442  0.9428 -0.8715  0.5467
  786MOL0     H 6050   4.102   6.323   4.405 -0.0763 -1.5577 -1.8896
  786MOL0     H 6051   4.226   6.134   4.309  3.1908 -2.7667 -0.1111
  786MOL0     H 6052   4.268   6.069   4.456 -1.6371 -1.6384 -0.7347
  786MOL0     H 6053   4.093   5.939   4.365  0.0170  0.8057 -2.0186
  786MOL0     H 6054   4.041   6.014   4.520  1.5971  2.3243  1.1404
  786MOL0     H 6055   3.923   6.194   4.369  2.2109  0.5096 -3.5425
  786MOL0     H 6056   3.948   6.089   4.239  0.6372 -2.1115 -0.2326
  786MOL0     H 6057   3.731   6.026   4.322  0.0983 -0.9728 -0.7114
  786MOL0     H 6058   3.796   6.005   4.486 -0.8056  1.2228 -0.2186
  786MOL0     H 6059   3.909   5.857   4.247  1.1755 -0.8581  0.4023
  786MOL0     H 6060   3.921   5.806   4.408  0.4680  1.5838  1.7848
  786MOL0     H 6061   3.642   5.840   4.142  0.1562 -1.3805 -2.2860
  786MOL0     H 6062   3.386   5.737   4.123 -1.7746 -0.7063 -0.3873
  786MOL0     H 6063   3.394   5.565   4.158  0.3239 -0.2123  0.2293
  786MOL0     H 6064   3.194   5.645   4.260 -0.1018 -1.2170  0.3640
  786MOL0     H 6065   3.311   5.634   4.392  0.9691 -2.2449 -0.8725
  786MOL0     H 6066   3.235   5.880   4.235  0.5410 -0.9407 -1.1480
  786MOL0     H 6067   3.352   5.879   4.358 -0.2011 -0.2852 -0.9674
  786MOL0     H 6068   3.059   5.799   4.404  0.5605  2.3649 -2.4636
  786MOL0     H 6069   3.127   5.951   4.466 -1.3678 -0.0805  3.1342
  786MOL0     H 6070   3.166   6.037   4.709  0.4011  0.5776  2.3938
  786MOL0     H 6071   3.332   6.154   4.803  1.6181  0.8867 -1.0449
  786MOL0     H 6072   3.764   6.320   4.798  1.4869 -0.9392 -0.4325
  786MOL0     H 6073   3.923   6.459   4.943 -0.1029 -1.9440 -1.7980
  786MOL0     H 6074   4.063   6.430   5.114 -0.6691 -0.6285  0.2056
  786MOL0     H 6075   4.041   6.608   5.134 -0.8340  0.9910  1.8901
  786MOL0     H 6076   4.062   6.590   5.375  0.3878 -2.2512  2.9224
  786MOL0     H 6077   4.100   6.414   5.367  1.4206 -0.7276  0.2218
  786MOL0     H 6078   4.260   6.608   5.228 -3.6137 -2.1719 -2.0070
  786MOL0     H 6079   4.274   6.570   5.408  1.2452 -1.8006 -0.6836
  786MOL0     H 6080   4.281   6.377   5.169 -1.3239  1.3638  0.7028
  786MOL0     H 6081   4.319   6.331   5.333  0.6147  0.2425 -0.1562
  786MOL0     H 6082   4.517   6.464   5.141  2.7602 -0.7779  0.7069
  786MOL0     H 6083   4.522   6.317   5.222 -0.9358 -0.1620 -3.0542
  786MOL0     H 6084   4.652   6.530   5.324 -0.7770  1.3033 -1.0373
  786MOL0     H 6085   4.504   6.595   5.357  2.2057  0.5199  0.7461
  786MOL0     H 6086   4.569   6.327   5.471 -1.1206 -0.6711  1.4049
  786MOL0     H 6087   4.444   6.437   5.518 -0.0729 -2.1211 -1.1628
  786MOL0     H 6088   4.740   6.510   5.527 -0.7180 -1.2568 -2.3172
  786MOL0     H 6089   4.602   6.625   5.545 -1.2212  0.0112 -0.3043
  786MOL0     H 6090   3.683   6.358   5.288 -0.2260  0.5387  0.7963
  786MOL0     H 6091   3.538   6.224   5.134  0.4534 -1.7620 -0.6779
  786MOL0     H 6092   3.603   5.831   4.688 -0.7974 -0.7855  0.2104
  786MOL0     H 6093   3.409   5.705   4.610 -2.1121 -0.2854 -0.1133
  786MOL0     H 6094   4.471   6.546   4.705  1.3887  0.1298  0.9807
  786MOL0     H 6095   4.537   6.767   4.837 -0.1928 -0.4690  0.5857
  786MOL0     H 6096   4.521   6.892   5.325  4.0219  0.0100 -1.8981
  786MOL0     H 6097   4.586   7.080   5.465 -2.4654 -1.9909  0.8512
  786MOL0     H 6098   4.745   7.471   5.425 -1.5127  0.5425  0.0725
  786MOL0     H 6099   4.779   7.302   5.378 -1.4223 -0.7182  0.1594
  786MOL0     H 6100   4.835   7.386   5.612  0.4281  1.4606 -1.6403
  786MOL0     H 6101   4.724   7.240   5.618  1.1654 -0.0434  0.3740
  786MOL0     H 6102   4.533   7.383   5.648 -0.2233  1.2489 -1.0935
  786MOL0     H 6103   4.634   7.524   5.639  0.1876 -0.6061  0.4518
  786MOL0     H 6104   4.587   7.472   5.880  1.1216  2.7423 -0.1011
  786MOL0     H 6105   4.672   7.318   5.867  2.7335  0.0938  0.2153
  786MOL0     H 6106   4.968   7.610   5.941 -1.0413  2.0646  0.3832
  786MOL0     H 6107   4.523   7.358   5.156  0.3720  0.4254 -1.1773
  786MOL0     H 6108   4.429   7.306   4.952 -0.2341 -0.7128 -1.9228
  786MOL0     H 6109   4.563   7.196   4.911 -0.3449 -0.3107 -2.0769
  786MOL0     H 6110   4.389   7.151   4.900 -1.3171  1.2102  0.7521
  787MOL0     O 6111   3.946   1.442   6.669  0.4970  0.3765  0.4872
  787MOL0     C 6112   4.051   1.449   6.724 -0.0746  0.3249  0.2572
  787MOL0     O 6113   4.120   1.559   6.764  0.6671  0.3681 -0.2822
  787MOL0     C 6114   4.082   1.690   6.753 -0.1111  0.1621  0.0535
  787MOL0     C 6115   4.190   1.785   6.777 -0.0809  0.0875 -0.9034
  787MOL0     C 6116   4.160   1.916   6.795 -0.1498 -0.4944 -0.4621
  787MOL0     C 6117   4.031   1.964   6.781  0.4783 -0.7944  0.1963
  787MOL0     O 6118   4.011   2.103   6.793 -0.3622 -0.0362  0.1884
  787MOL0     C 6119   3.879   2.163   6.795  0.0760  0.2994  0.0892
  787MOL0     C 6120   3.819   2.134   6.936  0.0809 -0.6908  0.5064
  787MOL0     C 6121   3.681   2.194   6.942 -1.0848 -0.0104  0.3383
  787MOL0     C 6122   3.567   2.094   6.932 -0.5912 -0.3236  0.4569
  787MOL0     C 6123   3.435   2.173   6.937  0.6810  0.1044 -0.0281
  787MOL0     C 6124   3.316   2.079   6.902 -0.0879  0.0877  0.1066
  787MOL0     C 6125   3.182   2.156   6.904  0.0078  0.2931  0.2167
  787MOL0     C 6126   3.052   2.071   6.888  0.9938 -0.9312  0.8374
  787MOL0     N 6127   2.939   2.149   6.890  0.3688 -0.0905  0.4686
  787MOL0     C 6128   2.813   2.110   6.857  0.4106  0.6080  0.2742
  787MOL0     C 6129   2.734   2.209   6.884 -0.2566  0.3635  0.0060
  787MOL0     C 6130   2.579   2.210   6.859 -0.0786 -0.4015 -0.1707
  787MOL0     C 6131   2.489   2.164   6.971 -0.1707 -0.7800 -0.6327
  787MOL0     C 6132   2.475   2.016   6.964  0.6789  0.5650  0.4314
  787MOL0     C 6133   2.378   1.945   6.870 -0.1961 -0.7003 -0.4040
  787MOL0     O 6134   2.261   2.027   6.851  0.7040 -0.2857 -0.0908
  787MOL0     C 6135   2.179   1.991   6.748 -0.1133 -0.1961 -0.0506
  787MOL0     C 6136   2.097   2.085   6.693  0.2135 -0.4596 -0.3023
  787MOL0     C 6137   1.992   2.060   6.605  0.2772  0.0069  0.3083
  787MOL0     C 6138   1.982   1.926   6.550  0.1191  0.1646  0.3188
  787MOL0     C 6139   1.879   1.898   6.450 -0.2495  0.3650  0.2878
  787MOL0     O 6140   1.832   2.000   6.384  0.0205 -0.4537 -0.1633
  787MOL0     C 6141   1.719   1.965   6.308 -0.3378 -0.3921 -0.0571
  787MOL0     C 6142   1.753   1.932   6.176  0.3779  0.4101 -0.0023
  787MOL0     C 6143   1.648   1.921   6.080 -0.2868  0.2914  0.2659
  787MOL0     C 6144   1.509   1.946   6.117  0.4200  1.3216  0.8557
  787MOL0     O 6145   1.402   1.929   6.035  0.4415  0.5393  0.3057
  787MOL0     C 6146   1.418   1.824   5.939  0.5709 -0.6319  1.4288
  787MOL0     C 6147   1.288   1.820   5.850  0.1604 -0.1632 -0.1689
  787MOL0     C 6148   1.288   1.940   5.761  0.3172  0.3988 -0.4141
  787MOL0     C 6149   1.200   1.913   5.645  0.1393  0.4320  0.3680
  787MOL0     C 6150   1.183   2.024   5.545 -0.8507  0.0148 -0.7938
  787MOL0     C 6151   1.296   2.022   5.451 -0.5179  0.6857  0.0211
  787MOL0     C 6152   1.283   2.131   5.339 -0.1498  0.0381  0.7456
  787MOL0     C 6153   1.382   2.120   5.232 -0.0476 -0.4019 -0.1037
  787MOL0    Cl 6154   1.551   2.105   5.282 -0.1206 -0.3382  0.2076
  787MOL0     C 6155   1.488   1.983   6.249 -0.2018  0.4530 -0.6271
  787MOL0     C 6156   1.585   1.993   6.347  0.5521  0.1876  0.3812
  787MOL0     O 6157   1.846   1.781   6.445 -1.0950  0.0061  0.3724
  787MOL0     C 6158   2.080   1.828   6.596  0.0680  0.0651  0.5486
  787MOL0     C 6159   2.180   1.858   6.693 -0.7613  0.8143  0.3809
  787MOL0     N 6160   2.807   2.311   6.930 -0.0425  0.0439  0.4207
  787MOL0     N 6161   2.926   2.273   6.942  0.5798 -0.2972  0.1304
  787MOL0     C 6162   3.923   1.873   6.737 -0.4988 -0.2081  0.0286
  787MOL0     C 6163   3.955   1.738   6.716 -1.0964  0.6333  0.3859
  787MOL0     C 6164   4.122   1.321   6.727 -0.1941  0.3305  0.8003
  787MOL0     C 6165   4.212   1.302   6.623  0.0876 -0.6292 -0.2902
  787MOL0     C 6166   4.286   1.193   6.624  0.2377  0.1902  0.2431
  787MOL0     C 6167   4.255   1.080   6.694  0.0651  0.5145 -0.5195
  787MOL0     O 6168   4.318   0.956   6.686 -0.6398  0.4392  0.6804
  787MOL0     C 6169   4.459   0.951   6.668  0.4429 -0.9512  0.4932
  787MOL0     C 6170   4.540   1.009   6.789 -0.7326 -0.2594 -0.4482
  787MOL0     C 6171   4.690   0.984   6.773  1.2483  0.2685  0.1643
  787MOL0     C 6172   4.768   0.964   6.909  0.4604 -0.1970  0.4273
  787MOL0     C 6173   4.911   0.950   6.887  0.0887 -0.0223  0.7678
  787MOL0     C 6174   5.037   0.958   6.877  1.1611 -0.8796  0.3884
  787MOL0     C 6175   4.154   1.087   6.786  0.6226 -0.0455  0.4633
  787MOL0     C 6176   4.079   1.215   6.801 -0.6066  0.7719  0.2612
  787MOL0     C 6177   3.973   1.226   6.907  0.2150 -0.8203 -0.5846
  787MOL0     H 6178   4.288   1.749   6.804 -0.7351  1.0832  3.6375
  787MOL0     H 6179   4.243   1.985   6.812 -1.8194  1.9213 -1.6375
  787MOL0     H 6180   3.891   2.268   6.769 -0.1974  0.5748  1.0388
  787MOL0     H 6181   3.811   2.118   6.722 -0.8674 -1.6334  2.0370
  787MOL0     H 6182   3.887   2.171   7.014  0.4028  0.5203 -0.3126
  787MOL0     H 6183   3.809   2.025   6.941 -0.7210 -0.7442 -1.4658
  787MOL0     H 6184   3.680   2.269   6.861  0.4592  0.8362  1.0487
  787MOL0     H 6185   3.673   2.254   7.033  0.1277  2.5693 -1.1149
  787MOL0     H 6186   3.574   2.037   6.840 -1.8551  1.2492 -0.6827
  787MOL0     H 6187   3.571   2.027   7.018  2.5886  0.2720  0.8973
  787MOL0     H 6188   3.427   2.215   7.037  2.7596  1.2107 -0.2578
  787MOL0     H 6189   3.431   2.260   6.871 -2.3646  0.4973  0.5354
  787MOL0     H 6190   3.342   2.024   6.811 -0.9893 -3.3407  1.7490
  787MOL0     H 6191   3.311   1.995   6.972 -0.2229 -1.0637 -1.2411
  787MOL0     H 6192   3.182   2.228   6.822 -1.9572  0.9884  0.7747
  787MOL0     H 6193   3.171   2.214   6.996 -0.9653  0.2942  0.1093
  787MOL0     H 6194   3.069   2.020   6.793  2.1569 -0.5586  0.8227
  787MOL0     H 6195   3.047   1.998   6.969  0.6475  0.4108  2.0680
  787MOL0     H 6196   2.781   2.025   6.798  1.7255 -1.5645  2.4563
  787MOL0     H 6197   2.542   2.303   6.814 -2.1291 -1.3719 -0.6105
  787MOL0     H 6198   2.566   2.149   6.770  3.5653 -1.2482 -0.2517
  787MOL0     H 6199   2.536   2.191   7.065 -0.4260 -2.0036 -0.1372
  787MOL0     H 6200   2.394   2.215   6.987  0.2698 -0.5592  1.5678
  787MOL0     H 6201   2.435   1.983   7.061 -0.0382 -0.4896 -0.2099
  787MOL0     H 6202   2.569   1.962   6.954 -0.1130 -0.6940 -0.3959
  787MOL0     H 6203   2.355   1.853   6.925 -1.2305  0.2590  0.8446
  787MOL0     H 6204   2.428   1.929   6.774 -1.2689  1.8929 -1.4854
  787MOL0     H 6205   2.114   2.189   6.717  2.1932 -0.6611 -0.6472
  787MOL0     H 6206   1.917   2.134   6.576  2.2012  1.5314 -1.0766
  787MOL0     H 6207   1.854   1.926   6.135  0.6830 -0.0823  0.7906
  787MOL0     H 6208   1.678   1.889   5.981  0.0336 -0.0578  0.4714
  787MOL0     H 6209   1.506   1.839   5.875 -1.3640 -0.2070 -1.3121
  787MOL0     H 6210   1.428   1.730   5.994 -0.5881 -0.7668  1.4273
  787MOL0     H 6211   1.286   1.733   5.783 -1.2414 -0.1987 -0.0914
  787MOL0     H 6212   1.202   1.821   5.917  2.4922 -0.9881  3.1068
  787MOL0     H 6213   1.246   2.022   5.819 -3.6355 -1.8814  0.3246
  787MOL0     H 6214   1.389   1.972   5.733  0.0443  1.8029  0.1479
  787MOL0     H 6215   1.103   1.889   5.688  0.5000 -0.4271  0.7331
  787MOL0     H 6216   1.239   1.821   5.602  0.1903 -0.8752  2.9872
  787MOL0     H 6217   1.172   2.122   5.590  1.6883 -0.1586  0.3910
  787MOL0     H 6218   1.095   2.005   5.482 -3.2989  1.6799  1.8874
  787MOL0     H 6219   1.384   2.046   5.511  0.7625 -2.6387 -0.3341
  787MOL0     H 6220   1.314   1.926   5.402  1.1879 -0.1917  2.2428
  787MOL0     H 6221   1.285   2.230   5.385  1.8613  0.4092 -0.0369
  787MOL0     H 6222   1.190   2.136   5.282  1.5928 -0.5287 -2.4255
  787MOL0     H 6223   1.358   2.046   5.154  2.0599  1.8451 -3.1302
  787MOL0     H 6224   1.371   2.215   5.179 -1.3738  2.3415  4.5495
  787MOL0     H 6225   1.385   2.012   6.268 -0.8049 -2.1051  0.4584
  787MOL0     H 6226   1.566   2.020   6.450 -3.2461  0.4711 -0.2610
  787MOL0     H 6227   2.076   1.731   6.547 -1.8745  1.2673 -1.8873
  787MOL0     H 6228   2.248   1.779   6.724  0.0930  0.2910 -2.5380
  787MOL0     H 6229   3.827   1.913   6.708 -0.6623  0.3682  1.2908
  787MOL0     H 6230   3.876   1.679   6.670  1.6299 -1.3300 -2.2262
  787MOL0     H 6231   4.225   1.377   6.546 -2.8509 -2.0798 -2.3906
  787MOL0     H 6232   4.360   1.175   6.546  0.6410 -0.9887  0.8728
  787MOL0     H 6233   4.499   0.991   6.574  1.7195 -2.2950  0.4158
  787MOL0     H 6234   4.479   0.844   6.659 -2.9753 -1.8026  1.7151
  787MOL0     H 6235   4.506   0.965   6.883 -0.6755 -0.4842 -0.5344
  787MOL0     H 6236   4.518   1.116   6.802  0.6947  0.2845 -2.1230
  787MOL0     H 6237   4.730   1.067   6.713 -0.3776 -0.3576 -1.8983
  787MOL0     H 6238   4.717   0.896   6.713  0.2011  1.0720 -1.5928
  787MOL0     H 6239   4.747   1.047   6.978 -3.1478  0.4415 -1.1881
  787MOL0     H 6240   4.736   0.877   6.968  0.2926  1.4134  2.8915
  787MOL0     H 6241   5.143   0.962   6.860  0.9456 -2.2878 -1.8678
  787MOL0     H 6242   4.115   1.002   6.841 -2.1681 -0.5590 -2.0158
  787MOL0     H 6243   3.906   1.140   6.904 -0.8816 -0.0304  0.3080
  787MOL0     H 6244   4.010   1.226   7.010 -1.5578  0.4107  0.0982
  787MOL0     H 6245   3.897   1.302   6.887  2.0475  0.9860 -1.0766
  788MOL0     O 6246   9.496   9.908   2.355  0.2349 -0.3788 -0.2047
  788MOL0     C 6247   9.493   9.940   2.474  0.3942 -0.2544  0.4368
  788MOL0     O 6248   9.431  10.050   2.523  0.5886  0.3314  0.1375
  788MOL0     C 6249   9.368  10.137   2.440 -0.8139  0.6012 -0.7400
  788MOL0     C 6250   9.256  10.204   2.491 -0.3876  0.8096  0.3548
  788MOL0     C 6251   9.175  10.280   2.409 -0.3320 -0.1538  0.7425
  788MOL0     C 6252   9.225  10.309   2.281 -0.3926 -0.8538 -0.2475
  788MOL0     O 6253   9.147  10.385   2.201 -0.4621 -0.4534 -0.0505
  788MOL0     C 6254   9.184  10.431   2.071 -0.3486  1.0358  0.4062
  788MOL0     C 6255   9.098  10.546   2.007  1.1002 -0.2433 -0.2642
  788MOL0     C 6256   9.131  10.685   2.073 -0.8153 -1.5098 -0.8305
  788MOL0     C 6257   9.012  10.787   2.053 -0.4969  0.5780  0.1901
  788MOL0     C 6258   9.043  10.933   2.067  0.1975  1.0609 -0.8154
  788MOL0     C 6259   9.132  10.986   1.958  0.3853 -0.1471  0.4144
  788MOL0     C 6260   9.111  11.138   1.931  0.0554 -0.3544 -0.6794
  788MOL0     C 6261   9.219  11.218   2.026  0.1927 -0.1183  0.7719
  788MOL0     N 6262   9.217  11.360   2.004  0.0433  0.4309 -0.1924
  788MOL0     C 6263   9.102  11.436   2.012 -1.0124  0.0127 -0.0074
  788MOL0     C 6264   9.141  11.562   1.997 -0.2222 -0.9436  2.0573
  788MOL0     C 6265   9.064  11.687   2.005 -0.3430 -0.5793 -0.1351
  788MOL0     C 6266   9.089  11.756   2.138  0.4144 -0.6873  0.0005
  788MOL0     C 6267   8.947  11.744   2.225 -1.6398  0.6175  0.0937
  788MOL0     C 6268   8.979  11.754   2.377 -0.2355 -0.0426  0.1010
  788MOL0     O 6269   9.067  11.643   2.420  0.0915 -0.2962  0.4453
  788MOL0     C 6270   9.006  11.529   2.480  0.6617 -0.1171 -0.1320
  788MOL0     C 6271   9.017  11.406   2.404  0.4015  0.0268 -0.5243
  788MOL0     C 6272   8.971  11.297   2.461  0.5554 -0.1854  0.1885
  788MOL0     C 6273   8.913  11.297   2.587 -0.3272 -0.3869 -0.4615
  788MOL0     C 6274   8.869  11.164   2.642 -0.0401 -0.6049  0.1036
  788MOL0     O 6275   8.803  11.173   2.760 -0.5181 -1.1077  0.5103
  788MOL0     C 6276   8.744  11.057   2.793 -0.3374  0.1685  0.5864
  788MOL0     C 6277   8.832  10.960   2.838 -0.5583  0.4521 -0.9350
  788MOL0     C 6278   8.767  10.840   2.886  0.2667  0.1447 -0.8715
  788MOL0     C 6279   8.628  10.824   2.884  0.5537  1.1049  0.4751
  788MOL0     O 6280   8.571  10.719   2.952  0.0853  0.7000 -0.1041
  788MOL0     C 6281   8.660  10.619   3.002  1.5434 -0.4952  0.0206
  788MOL0     C 6282   8.581  10.513   3.079 -0.0066 -0.1427 -0.1784
  788MOL0     C 6283   8.574  10.380   2.991 -0.2226 -0.8419  0.0514
  788MOL0     C 6284   8.622  10.253   3.066  0.1076 -0.7282 -0.3079
  788MOL0     C 6285   8.777  10.258   3.076 -0.7947 -0.0576 -0.3864
  788MOL0     C 6286   8.823  10.144   3.168 -0.7909 -0.3730  0.2657
  788MOL0     C 6287   8.882  10.016   3.103 -0.2564  0.5504 -0.1838
  788MOL0     C 6288   8.985   9.939   3.201  0.5146 -0.7651  0.1315
  788MOL0    Cl 6289   9.130  10.055   3.225  0.6092  0.0256 -0.3712
  788MOL0     C 6290   8.546  10.916   2.809 -0.8560  1.0120 -0.9546
  788MOL0     C 6291   8.611  11.041   2.777 -0.4912  0.3592  0.3835
  788MOL0     O 6292   8.875  11.066   2.569 -0.3731  0.4579 -0.0900
  788MOL0     C 6293   8.894  11.417   2.655 -0.7136 -1.1436  0.1439
  788MOL0     C 6294   8.950  11.536   2.604  0.4118  0.0304  0.1381
  788MOL0     N 6295   9.282  11.555   1.969 -0.4089  0.2865  0.4512
  788MOL0     N 6296   9.325  11.434   1.975 -0.1490  0.3372  0.4485
  788MOL0     C 6297   9.352  10.265   2.237  0.4089  1.1130  0.3607
  788MOL0     C 6298   9.416  10.174   2.318  0.0562  0.0020 -0.3944
  788MOL0     C 6299   9.547   9.841   2.576  0.3211 -0.8236  1.8067
  788MOL0     C 6300   9.546   9.709   2.545 -0.5817  0.4760 -0.0024
  788MOL0     C 6301   9.582   9.609   2.630  0.6537  0.2767 -0.0779
  788MOL0     C 6302   9.653   9.639   2.750  0.2615  0.0479 -0.0813
  788MOL0     O 6303   9.716   9.548   2.838 -0.2498  0.0360  0.8863
  788MOL0     C 6304   9.726   9.415   2.788  0.2536  0.4736 -0.2121
  788MOL0     C 6305   9.689   9.317   2.902  0.3322  0.5667  0.7761
  788MOL0     C 6306   9.532   9.324   2.934 -0.1165 -0.3796  1.2066
  788MOL0     C 6307   9.497   9.232   3.050  0.3474  0.0675 -0.0250
  788MOL0     C 6308   9.536   9.296   3.178  0.5458  0.4952 -0.5791
  788MOL0     C 6309   9.563   9.356   3.285 -0.3136 -0.7759  0.6312
  788MOL0     C 6310   9.640   9.767   2.791  0.2299  0.6377 -1.1289
  788MOL0     C 6311   9.596   9.871   2.704  0.9788 -0.4046  0.7224
  788MOL0     C 6312   9.619  10.020   2.740  0.0168 -0.1020  0.4947
  788MOL0     H 6313   9.229  10.181   2.593  2.7431  0.1466  1.1492
  788MOL0     H 6314   9.080  10.324   2.437 -0.0395  0.1091  1.3286
  788MOL0     H 6315   9.289  10.462   2.074  1.2771 -2.9360 -3.7174
  788MOL0     H 6316   9.191  10.348   2.001  2.3950 -0.3403  2.1406
  788MOL0     H 6317   8.990  10.533   2.009  1.2398 -1.4236  0.7618
  788MOL0     H 6318   9.104  10.560   1.899 -1.3513  1.7142 -0.2400
  788MOL0     H 6319   9.233  10.721   2.052  0.1190 -1.3449  3.0837
  788MOL0     H 6320   9.139  10.666   2.181 -0.1641  0.3259 -0.5061
  788MOL0     H 6321   8.968  10.775   1.954  3.5717  0.4271 -1.7932
  788MOL0     H 6322   8.934  10.765   2.127 -0.6496 -1.9412 -0.6497
  788MOL0     H 6323   8.948  10.986   2.058 -1.0684 -1.0950 -0.7389
  788MOL0     H 6324   9.085  10.955   2.165  0.7384  1.7384 -1.1844
  788MOL0     H 6325   9.234  10.963   1.991  0.7700 -3.1238 -2.3291
  788MOL0     H 6326   9.123  10.918   1.872  2.5768 -2.3418  1.7625
  788MOL0     H 6327   9.006  11.163   1.950  0.9352  1.5574  2.3179
  788MOL0     H 6328   9.122  11.169   1.827 -0.7569 -0.0433 -0.6832
  788MOL0     H 6329   9.198  11.200   2.132  0.9504  1.5521  1.2284
  788MOL0     H 6330   9.316  11.185   1.989  1.0434  3.4543 -0.4952
  788MOL0     H 6331   9.003  11.404   2.042 -0.8704  0.0313  0.4888
  788MOL0     H 6332   9.105  11.759   1.933  3.5247 -3.7701 -1.4921
  788MOL0     H 6333   8.957  11.679   1.987 -0.6359 -0.6854  1.5217
  788MOL0     H 6334   9.171  11.720   2.200  0.8525 -2.4216 -1.5060
  788MOL0     H 6335   9.100  11.864   2.124 -0.1956 -0.7175 -0.7875
  788MOL0     H 6336   8.906  11.644   2.211 -0.0533 -0.1106  0.4477
  788MOL0     H 6337   8.880  11.828   2.202  0.8618  2.2140 -1.8942
  788MOL0     H 6338   8.893  11.764   2.444  2.3610  0.6088  3.6376
  788MOL0     H 6339   9.020  11.853   2.397 -2.2355  0.7209  0.6665
  788MOL0     H 6340   9.067  11.407   2.308 -0.8091 -2.5225 -1.2725
  788MOL0     H 6341   8.997  11.201   2.417 -3.0646 -1.7666  1.1004
  788MOL0     H 6342   8.940  10.958   2.849 -0.6377 -3.2662  0.7207
  788MOL0     H 6343   8.833  10.762   2.924  0.3839  0.2057 -0.9508
  788MOL0     H 6344   8.728  10.583   2.924  2.4551 -1.0036  1.0143
  788MOL0     H 6345   8.721  10.673   3.075 -0.9261 -1.1953  2.7687
  788MOL0     H 6346   8.645  10.505   3.167  0.8417  0.8819 -0.6840
  788MOL0     H 6347   8.479  10.548   3.103 -0.3964 -1.3396 -0.0247
  788MOL0     H 6348   8.469  10.362   2.967 -2.1228  4.1170  2.9890
  788MOL0     H 6349   8.624  10.397   2.895  1.2440  1.2962  1.1198
  788MOL0     H 6350   8.596  10.168   3.002  1.2186 -0.6913 -0.8270
  788MOL0     H 6351   8.566  10.246   3.160  1.3953 -3.2300  0.3842
  788MOL0     H 6352   8.820  10.354   3.106  2.0761 -1.0169 -1.1817
  788MOL0     H 6353   8.818  10.234   2.978  0.2921 -5.1335  1.0450
  788MOL0     H 6354   8.897  10.184   3.238  0.4086  1.0115 -1.6683
  788MOL0     H 6355   8.747  10.124   3.243 -0.1478  1.3749  1.4615
  788MOL0     H 6356   8.930  10.036   3.007 -2.2731 -0.3214 -1.4369
  788MOL0     H 6357   8.799   9.953   3.068  1.4478 -1.8621 -0.0699
  788MOL0     H 6358   8.949   9.924   3.304 -0.2335 -1.7278 -0.2551
  788MOL0     H 6359   9.027   9.851   3.152  1.1855  0.4603 -1.5754
  788MOL0     H 6360   8.441  10.888   2.799 -0.1762 -3.9626  2.6181
  788MOL0     H 6361   8.558  11.122   2.728  1.0889  1.8274  0.9769
  788MOL0     H 6362   8.864  11.411   2.759  1.7427  1.6041  1.1464
  788MOL0     H 6363   8.954  11.627   2.663 -1.4597  0.6095 -0.5402
  788MOL0     H 6364   9.403  10.297   2.147  0.1496  2.0777  0.5492
  788MOL0     H 6365   9.508  10.134   2.277  0.7429 -0.6142  1.6079
  788MOL0     H 6366   9.510   9.694   2.443 -3.0951  1.2084  0.6987
  788MOL0     H 6367   9.578   9.511   2.584  0.4916  1.3660 -2.5022
  788MOL0     H 6368   9.831   9.414   2.758  0.0745  2.5585 -1.1424
  788MOL0     H 6369   9.659   9.389   2.706 -0.7139 -3.7832  1.6853
  788MOL0     H 6370   9.744   9.349   2.991  2.1153 -0.4718  0.1020
  788MOL0     H 6371   9.716   9.213   2.881  0.4094  0.0535  3.1069
  788MOL0     H 6372   9.466   9.289   2.855 -0.7165  0.6133  1.2509
  788MOL0     H 6373   9.507   9.426   2.964  3.0816  0.3862  1.6525
  788MOL0     H 6374   9.388   9.219   3.049  0.3675 -0.1213  0.0937
  788MOL0     H 6375   9.539   9.131   3.043 -1.3510 -0.7134  0.5893
  788MOL0     H 6376   9.601   9.393   3.378  1.2728  1.2353 -0.7370
  788MOL0     H 6377   9.694   9.803   2.878  0.2718  0.4192 -1.0632
  788MOL0     H 6378   9.686  10.065   2.665  0.4540  1.1280  1.5877
  788MOL0     H 6379   9.525  10.075   2.734  0.4199  0.6688  1.0885
  788MOL0     H 6380   9.664  10.024   2.840  1.0192 -3.7382  0.3406
  789MOL0     O 6381   2.422   5.605   0.259 -0.0412 -0.6184 -0.9861
  789MOL0     C 6382   2.320   5.660   0.219 -0.0301 -0.4917  0.0293
  789MOL0     O 6383   2.246   5.753   0.286 -0.0457  0.1916  1.0720
  789MOL0     C 6384   2.294   5.814   0.392  0.1721 -0.6041  0.2308
  789MOL0     C 6385   2.419   5.866   0.411  0.4723  0.5572 -0.1434
  789MOL0     C 6386   2.445   5.941   0.524  0.4335 -0.9544 -0.9935
  789MOL0     C 6387   2.340   5.969   0.619  0.7201 -0.3566  0.4037
  789MOL0     O 6388   2.375   6.051   0.727 -0.2304 -0.6838 -0.0691
  789MOL0     C 6389   2.267   6.104   0.809 -0.5338 -0.0488  0.2887
  789MOL0     C 6390   2.315   6.227   0.890  0.2882  0.9565  0.0981
  789MOL0     C 6391   2.210   6.272   0.992 -0.7068 -0.7652 -0.1927
  789MOL0     C 6392   2.266   6.394   1.065  0.2634 -0.9281 -0.4013
  789MOL0     C 6393   2.175   6.414   1.183 -0.6360 -0.0401 -0.5773
  789MOL0     C 6394   2.186   6.555   1.247  0.4289 -0.1726 -0.7920
  789MOL0     C 6395   2.132   6.551   1.387 -0.7466 -0.1983  0.5394
  789MOL0     C 6396   2.258   6.537   1.478  0.2207  1.2861  0.2476
  789MOL0     N 6397   2.223   6.547   1.616 -0.4074 -0.1812 -1.5943
  789MOL0     C 6398   2.178   6.665   1.686  0.5393 -0.2285  0.6089
  789MOL0     C 6399   2.120   6.628   1.799  0.1223  0.6315 -0.0079
  789MOL0     C 6400   2.051   6.732   1.887 -0.4947  0.2776 -0.5905
  789MOL0     C 6401   2.157   6.801   1.976  0.3202 -0.3837 -0.0142
  789MOL0     C 6402   2.103   6.883   2.086  0.1974  0.0074  0.5615
  789MOL0     C 6403   2.219   6.945   2.164  0.0539 -0.1184  0.4767
  789MOL0     O 6404   2.170   7.034   2.263 -0.0954 -0.1713 -0.1111
  789MOL0     C 6405   2.255   7.077   2.361 -0.8590 -0.0293  0.3075
  789MOL0     C 6406   2.205   7.178   2.446  0.3113 -0.0042 -0.7954
  789MOL0     C 6407   2.286   7.238   2.539 -0.7571 -0.3095 -0.6124
  789MOL0     C 6408   2.428   7.210   2.551 -0.3662 -0.4086 -0.4127
  789MOL0     C 6409   2.517   7.291   2.645 -0.2038  0.1413 -0.0203
  789MOL0     O 6410   2.652   7.270   2.633 -0.3077  0.2661 -0.0881
  789MOL0     C 6411   2.733   7.330   2.723 -0.9511 -1.2841 -0.1268
  789MOL0     C 6412   2.712   7.464   2.773 -0.1908 -0.5271 -0.2577
  789MOL0     C 6413   2.814   7.542   2.831  0.2613  0.1566 -0.0594
  789MOL0     C 6414   2.939   7.482   2.851  0.1880  0.2265  0.2707
  789MOL0     O 6415   3.025   7.562   2.922 -0.0636 -0.1844  0.0341
  789MOL0     C 6416   3.166   7.518   2.945 -0.7379 -0.7507  0.5977
  789MOL0     C 6417   3.256   7.561   2.825  1.2127  0.2615  0.4211
  789MOL0     C 6418   3.391   7.487   2.822 -0.6149  0.1858  0.1793
  789MOL0     C 6419   3.470   7.521   2.688  0.9788 -1.2973  0.2742
  789MOL0     C 6420   3.592   7.436   2.663  0.0691 -0.3062 -0.7880
  789MOL0     C 6421   3.629   7.423   2.513  0.0136  0.0088  0.0505
  789MOL0     C 6422   3.766   7.362   2.494 -0.4374  0.1111 -0.3799
  789MOL0     C 6423   3.778   7.221   2.545 -0.5820  0.4546  0.1008
  789MOL0    Cl 6424   3.924   7.147   2.484  0.3516 -0.3942  0.3725
  789MOL0     C 6425   2.961   7.353   2.800  0.4033 -0.3859  0.6078
  789MOL0     C 6426   2.855   7.273   2.744  0.5312  0.2658 -0.0086
  789MOL0     O 6427   2.458   7.369   2.718  0.1266 -0.9099 -0.5959
  789MOL0     C 6428   2.471   7.113   2.467  0.4469 -0.3763  0.1995
  789MOL0     C 6429   2.387   7.048   2.375 -0.1198  0.6993  0.8350
  789MOL0     N 6430   2.124   6.484   1.801  0.0067 -0.6159  0.1343
  789MOL0     N 6431   2.178   6.448   1.698 -0.9663  0.0997  0.1598
  789MOL0     C 6432   2.211   5.916   0.603 -0.0624 -0.6306 -0.3658
  789MOL0     C 6433   2.198   5.833   0.495  0.5728  0.3521 -0.1891
  789MOL0     C 6434   2.260   5.621   0.091 -0.8346  0.3012 -0.1542
  789MOL0     C 6435   2.133   5.560   0.080 -0.8603 -0.0752  0.4552
  789MOL0     C 6436   2.084   5.517  -0.040  0.9303  0.2099 -0.5403
  789MOL0     C 6437   2.167   5.523  -0.149 -0.0255 -0.1803  0.6958
  789MOL0     O 6438   2.125   5.485  -0.275 -0.2395 -0.8141  0.2257
  789MOL0     C 6439   2.030   5.382  -0.292 -0.9456  0.3463 -0.1578
  789MOL0     C 6440   1.996   5.352  -0.433  0.2405 -0.7118 -0.3051
  789MOL0     C 6441   2.116   5.377  -0.535 -1.0347 -0.6557 -0.6815
  789MOL0     C 6442   2.070   5.347  -0.683 -0.3989  0.0597  0.1531
  789MOL0     C 6443   2.105   5.211  -0.722 -0.4575 -0.3655  0.0944
  789MOL0     C 6444   2.130   5.091  -0.747  0.1862 -0.4740  0.0659
  789MOL0     C 6445   2.298   5.579  -0.140 -0.3410  0.0097  0.1878
  789MOL0     C 6446   2.345   5.637  -0.019 -0.6825  0.5825  0.0555
  789MOL0     C 6447   2.495   5.693  -0.009 -0.0747 -0.4344  0.4881
  789MOL0     H 6448   2.500   5.850   0.340  1.2481 -1.4777  1.1160
  789MOL0     H 6449   2.542   5.989   0.536 -0.0455 -0.5462  2.2890
  789MOL0     H 6450   2.193   6.135   0.735  1.4016  1.8558 -0.9655
  789MOL0     H 6451   2.237   6.023   0.876 -0.2864 -0.0301  0.4213
  789MOL0     H 6452   2.339   6.297   0.810  1.1706 -2.2510 -2.7056
  789MOL0     H 6453   2.410   6.203   0.938  0.6045  0.7438 -0.6195
  789MOL0     H 6454   2.203   6.195   1.069 -0.1161  1.4662  2.2567
  789MOL0     H 6455   2.108   6.288   0.955 -0.4543 -1.4964 -1.2458
  789MOL0     H 6456   2.364   6.375   1.108 -0.0433  2.3587  2.1099
  789MOL0     H 6457   2.258   6.477   0.993  0.6206 -2.3144 -2.0850
  789MOL0     H 6458   2.074   6.402   1.144 -0.5125  1.4427 -1.4182
  789MOL0     H 6459   2.203   6.341   1.260 -0.6921 -0.1323 -0.6433
  789MOL0     H 6460   2.293   6.574   1.242  2.3035 -7.1228  1.8278
  789MOL0     H 6461   2.127   6.623   1.185  0.1767 -0.4362 -0.8470
  789MOL0     H 6462   2.056   6.474   1.398  0.6477 -1.7801 -0.4405
  789MOL0     H 6463   2.088   6.647   1.416 -0.6086  0.2195 -0.5711
  789MOL0     H 6464   2.300   6.437   1.462 -3.8610 -0.5869 -0.0637
  789MOL0     H 6465   2.344   6.600   1.451  1.9770 -0.3901  1.6183
  789MOL0     H 6466   2.178   6.767   1.650  1.0488 -0.4974 -0.1881
  789MOL0     H 6467   2.017   6.817   1.827 -1.9235  0.4327  0.3918
  789MOL0     H 6468   1.974   6.686   1.949  2.8205 -3.7459  1.0179
  789MOL0     H 6469   2.215   6.723   2.026  0.3111  0.6044  1.6227
  789MOL0     H 6470   2.208   6.873   1.911  2.6217 -2.1898 -0.3235
  789MOL0     H 6471   2.042   6.824   2.156  2.3090 -0.4224  2.1281
  789MOL0     H 6472   2.039   6.962   2.045  0.1083 -0.0258  0.6340
  789MOL0     H 6473   2.275   7.010   2.097  1.0406 -4.1034 -3.0317
  789MOL0     H 6474   2.280   6.863   2.204 -1.0472 -2.1213 -1.6677
  789MOL0     H 6475   2.099   7.199   2.433 -0.6666 -2.5666  1.9036
  789MOL0     H 6476   2.243   7.305   2.613  0.4636 -2.6913  2.4740
  789MOL0     H 6477   2.621   7.521   2.754  0.5911  0.3631 -1.5320
  789MOL0     H 6478   2.790   7.635   2.882 -2.0436  0.7826 -2.0630
  789MOL0     H 6479   3.205   7.577   3.028 -0.8992 -2.7773  2.1622
  789MOL0     H 6480   3.168   7.410   2.962 -1.3770 -0.8089  0.3274
  789MOL0     H 6481   3.195   7.535   2.738  1.8341  3.2606 -1.0384
  789MOL0     H 6482   3.276   7.669   2.828  3.5428 -0.0832 -0.6048
  789MOL0     H 6483   3.452   7.517   2.908  3.1464 -3.6928 -0.7898
  789MOL0     H 6484   3.382   7.381   2.848 -0.0539  0.4488  1.5570
  789MOL0     H 6485   3.491   7.627   2.705 -4.2841 -0.2339  1.9915
  789MOL0     H 6486   3.399   7.512   2.605  1.1955 -1.0222  0.0555
  789MOL0     H 6487   3.576   7.339   2.711 -2.1569 -0.2873 -1.3508
  789MOL0     H 6488   3.677   7.481   2.714 -0.8270 -1.3097  1.7634
  789MOL0     H 6489   3.556   7.360   2.462 -0.8476 -0.2719  1.5595
  789MOL0     H 6490   3.631   7.520   2.463  2.1613  1.2040  2.2378
  789MOL0     H 6491   3.842   7.426   2.540 -0.9496 -1.5315  3.0647
  789MOL0     H 6492   3.780   7.352   2.386  2.0630  3.5612 -0.5445
  789MOL0     H 6493   3.790   7.229   2.654  3.3360  1.0656 -0.2347
  789MOL0     H 6494   3.695   7.156   2.515 -1.1728  0.3740  1.8101
  789MOL0     H 6495   3.061   7.312   2.815 -1.0034 -3.1176  3.5602
  789MOL0     H 6496   2.876   7.177   2.697 -0.7943  0.9181 -2.0651
  789MOL0     H 6497   2.577   7.088   2.473  0.5391  0.2325  1.6814
  789MOL0     H 6498   2.440   6.975   2.313 -0.6639  1.7340 -0.9243
  789MOL0     H 6499   2.121   5.917   0.662  0.2227 -2.5222  0.1710
  789MOL0     H 6500   2.098   5.793   0.483  0.3368  0.4848  1.1763
  789MOL0     H 6501   2.077   5.543   0.172  0.8845  1.6722  1.9338
  789MOL0     H 6502   1.987   5.471  -0.050  1.1286 -0.6341  1.1470
  789MOL0     H 6503   1.936   5.405  -0.241 -1.6134  0.0629 -1.2216
  789MOL0     H 6504   2.068   5.290  -0.246 -0.9818  0.0948 -0.6216
  789MOL0     H 6505   1.906   5.400  -0.473 -1.5622 -3.4548  0.2262
  789MOL0     H 6506   1.970   5.246  -0.434  1.2706 -0.9899  0.5970
  789MOL0     H 6507   2.207   5.317  -0.527 -0.6644 -0.3114 -2.0295
  789MOL0     H 6508   2.141   5.483  -0.523 -1.4135 -0.6833  0.4948
  789MOL0     H 6509   1.961   5.354  -0.681 -0.3834  0.5674 -0.4398
  789MOL0     H 6510   2.106   5.427  -0.748  0.3931 -0.5140 -0.1219
  789MOL0     H 6511   2.153   4.990  -0.773 -3.1017 -0.8223 -2.0000
  789MOL0     H 6512   2.374   5.563  -0.215  0.0380 -0.6253  0.6881
  789MOL0     H 6513   2.490   5.787   0.046 -1.1779  0.5443 -1.1819
  789MOL0     H 6514   2.551   5.623   0.053  0.4879  1.2946  2.0175
  789MOL0     H 6515   2.544   5.702  -0.107 -0.8751 -1.0964  0.0051
  790MOL0     O 6516   0.892   7.281  11.144  0.3803  0.0373 -0.1872
  790MOL0     C 6517   0.883   7.158  11.129 -0.1966 -0.4526 -1.2243
  790MOL0     O 6518   0.903   7.062  11.231 -0.6485 -0.1493  0.1899
  790MOL0     C 6519   0.974   7.099  11.340 -0.2867  0.1281 -0.1019
  790MOL0     C 6520   0.916   7.195  11.426  0.5506  0.4638  0.5795
  790MOL0     C 6521   0.979   7.244  11.537  0.4998  0.7706  0.2665
  790MOL0     C 6522   1.100   7.190  11.577  0.5393  0.1084  0.1842
  790MOL0     O 6523   1.171   7.219  11.688 -0.1921  0.1674  0.1607
  790MOL0     C 6524   1.112   7.295  11.786  0.7217 -0.1766 -0.7205
  790MOL0     C 6525   1.025   7.223  11.886 -0.3043  0.0819  0.6231
  790MOL0     C 6526   1.099   7.095  11.938  0.4790  0.3523  0.7652
  790MOL0     C 6527   1.087   7.072  12.093 -0.7541  0.3938 -0.7498
  790MOL0     C 6528   1.163   6.948  12.137  0.2186  0.5611 -0.3775
  790MOL0     C 6529   1.308   6.974  12.175  0.6038 -0.9024  0.2641
  790MOL0     C 6530   1.413   6.871  12.142  0.4934 -0.5485 -0.4203
  790MOL0     C 6531   1.378   6.741  12.226  0.2126  0.2582 -0.3596
  790MOL0     N 6532   1.404   6.771  12.376  0.5729  0.3227  0.5152
  790MOL0     C 6533   1.522   6.746  12.431 -0.5585 -0.4961 -0.4182
  790MOL0     C 6534   1.504   6.750  12.560 -0.6614  0.0289 -0.4120
  790MOL0     C 6535   1.607   6.715  12.661  0.9595  0.1869 -1.3217
  790MOL0     C 6536   1.669   6.822  12.743  0.1379  0.5203 -0.3466
  790MOL0     C 6537   1.728   6.746  12.860 -0.0524 -0.6911 -1.1414
  790MOL0     C 6538   1.795   6.845  12.959 -0.0315 -0.2485 -0.7591
  790MOL0     O 6539   1.928   6.882  12.916  0.5562 -0.5275 -0.0909
  790MOL0     C 6540   2.005   6.954  12.998 -0.4705  0.3986  0.0170
  790MOL0     C 6541   2.143   6.963  12.969  0.1138 -0.4424  0.4754
  790MOL0     C 6542   2.235   7.032  13.049 -0.1207  0.1701  1.3183
  790MOL0     C 6543   2.200   7.082  13.170  0.4401  1.2958  0.0906
  790MOL0     C 6544   2.294   7.166  13.250  0.1140  0.3381  0.5879
  790MOL0     O 6545   2.242   7.266  13.329  0.6334 -0.1942 -0.8613
  790MOL0     C 6546   2.321   7.343  13.414 -1.4155 -0.5928  0.4554
  790MOL0     C 6547   2.296   7.361  13.546  0.1094 -0.8131  0.5811
  790MOL0     C 6548   2.379   7.428  13.636  0.2451 -1.0503 -0.0793
  790MOL0     C 6549   2.500   7.486  13.590 -0.3475  0.4451  0.1206
  790MOL0     O 6550   2.570   7.582  13.656 -0.5156  0.1746 -0.7939
  790MOL0     C 6551   2.535   7.591  13.796 -0.9639 -0.2009 -0.0334
  790MOL0     C 6552   2.650   7.651  13.872  0.5932  0.7523  0.0156
  790MOL0     C 6553   2.769   7.553  13.890 -0.7589 -0.4984  0.7854
  790MOL0     C 6554   2.898   7.638  13.903  1.0066 -0.3433  0.4038
  790MOL0     C 6555   3.018   7.549  13.927 -0.0618  0.1090 -0.1708
  790MOL0     C 6556   3.049   7.470  13.807  0.6815  0.0501 -0.7070
  790MOL0     C 6557   3.184   7.392  13.811 -0.5917  0.0794  0.4610
  790MOL0     C 6558   3.214   7.296  13.924  0.6758 -0.2794  0.6821
  790MOL0    Cl 6559   3.088   7.176  13.936  0.7169 -0.0703  0.2382
  790MOL0     C 6560   2.527   7.470  13.455  0.0177 -0.9700 -0.1055
  790MOL0     C 6561   2.440   7.408  13.373  0.0534  0.9789 -0.2294
  790MOL0     O 6562   2.412   7.127  13.255  0.5837  0.7657 -0.6713
  790MOL0     C 6563   2.065   7.079  13.208 -0.1531  0.5592  0.7990
  790MOL0     C 6564   1.968   7.014  13.125 -0.2768  1.0785 -0.3974
  790MOL0     N 6565   1.372   6.798  12.583  0.5527  0.7924  0.3733
  790MOL0     N 6566   1.317   6.821  12.466  0.0838 -0.3137 -1.5543
  790MOL0     C 6567   1.164   7.093  11.495 -0.7896  0.4480  0.4533
  790MOL0     C 6568   1.098   7.044  11.383  0.0932 -0.2757  0.4248
  790MOL0     C 6569   0.823   7.106  11.004  0.2810  0.4155 -0.2973
  790MOL0     C 6570   0.761   6.980  11.004 -0.6336  0.7143 -0.5957
  790MOL0     C 6571   0.692   6.937  10.889  0.1271  0.4713 -0.3463
  790MOL0     C 6572   0.689   7.015  10.783 -1.2940 -0.3881  0.4300
  790MOL0     O 6573   0.624   6.959  10.677 -0.2925 -0.2804 -0.2680
  790MOL0     C 6574   0.609   7.035  10.554  0.1997 -1.0791  0.7807
  790MOL0     C 6575   0.519   6.956  10.465  0.8557  0.9154 -0.6366
  790MOL0     C 6576   0.614   6.835  10.427  0.7927 -0.0175 -0.2942
  790MOL0     C 6577   0.749   6.866  10.351 -0.8471 -0.0808 -0.4924
  790MOL0     C 6578   0.735   6.943  10.232  0.5252 -0.0956 -1.9415
  790MOL0     C 6579   0.710   7.025  10.145 -0.3975 -0.5713  0.0090
  790MOL0     C 6580   0.764   7.135  10.776  0.5172  0.6282 -0.3939
  790MOL0     C 6581   0.831   7.182  10.887  1.3716 -0.1703  0.0776
  790MOL0     C 6582   0.934   7.293  10.868 -0.5472 -0.2200  0.2440
  790MOL0     H 6583   0.824   7.248  11.399  0.3162 -0.8533 -1.4125
  790MOL0     H 6584   0.927   7.323  11.590  0.0100  0.9011 -0.3800
  790MOL0     H 6585   1.196   7.345  11.835 -0.1799 -0.0706  0.7928
  790MOL0     H 6586   1.060   7.378  11.738  3.7764  2.4007  0.0347
  790MOL0     H 6587   0.925   7.204  11.845 -0.7357  2.8419  0.1842
  790MOL0     H 6588   1.018   7.292  11.970 -2.4071 -0.4058  0.9233
  790MOL0     H 6589   1.204   7.094  11.908  0.4341  1.2764  0.5342
  790MOL0     H 6590   1.046   7.016  11.884  4.2684 -1.0930 -1.1859
  790MOL0     H 6591   1.119   7.164  12.143  1.6254 -0.5953 -0.3417
  790MOL0     H 6592   0.985   7.053  12.128  0.0115  3.5940  4.2010
  790MOL0     H 6593   1.129   6.902  12.230  0.9516  0.1599 -0.2966
  790MOL0     H 6594   1.172   6.873  12.058 -1.2916 -0.8640  0.7524
  790MOL0     H 6595   1.332   7.065  12.119 -0.3206  0.0928  1.4395
  790MOL0     H 6596   1.318   7.001  12.280  2.7870 -1.3735  0.2352
  790MOL0     H 6597   1.510   6.915  12.165 -0.3765  0.4232  1.7514
  790MOL0     H 6598   1.404   6.860  12.034 -1.2278 -0.0420 -0.3601
  790MOL0     H 6599   1.274   6.711  12.207  1.0748 -2.6142 -1.1321
  790MOL0     H 6600   1.444   6.663  12.187 -0.5189 -2.6548  3.5288
  790MOL0     H 6601   1.616   6.723  12.382  1.2095  2.5383  1.2911
  790MOL0     H 6602   1.549   6.645  12.722  0.0081 -0.2511 -2.6931
  790MOL0     H 6603   1.679   6.660  12.600  0.1345 -0.8365 -1.4012
  790MOL0     H 6604   1.748   6.875  12.688 -1.4140  0.8352 -2.4223
  790MOL0     H 6605   1.609   6.899  12.792  1.5629 -0.0847  2.5625
  790MOL0     H 6606   1.799   6.675  12.818  0.5913 -0.0845 -1.1047
  790MOL0     H 6607   1.659   6.689  12.922  0.8313 -1.4698 -0.8466
  790MOL0     H 6608   1.808   6.789  13.051 -0.7609  0.1162 -0.4276
  790MOL0     H 6609   1.734   6.933  12.984  2.0800  0.9495  0.4553
  790MOL0     H 6610   2.164   6.942  12.864  1.5160  2.1008  0.1531
  790MOL0     H 6611   2.334   7.055  13.009 -1.0878  0.2628 -1.2208
  790MOL0     H 6612   2.192   7.331  13.558 -0.2045 -0.0252 -0.0249
  790MOL0     H 6613   2.318   7.462  13.719  1.7926  2.1221 -0.0868
  790MOL0     H 6614   2.457   7.667  13.808 -0.2167  0.5454  0.2767
  790MOL0     H 6615   2.504   7.497  13.841 -0.9025  0.5265  1.5883
  790MOL0     H 6616   2.688   7.737  13.815  1.8313 -0.8560 -1.7096
  790MOL0     H 6617   2.616   7.681  13.972 -0.7517  1.0992 -0.5138
  790MOL0     H 6618   2.750   7.493  13.980  1.1961 -1.9459  0.2840
  790MOL0     H 6619   2.775   7.493  13.799 -1.4704  2.2901 -1.2224
  790MOL0     H 6620   2.870   7.707  13.983 -2.2930 -4.3098  3.0682
  790MOL0     H 6621   2.915   7.701  13.816 -3.4809  1.1369  0.3520
  790MOL0     H 6622   3.003   7.481  14.011  1.0883  1.2011  0.9708
  790MOL0     H 6623   3.109   7.608  13.942 -0.6301  1.1992 -0.8989
  790MOL0     H 6624   2.963   7.403  13.809 -1.7066  2.5553  5.2005
  790MOL0     H 6625   3.056   7.532  13.718 -0.2086 -1.3563 -1.7890
  790MOL0     H 6626   3.259   7.472  13.824  0.5523 -0.4878 -2.0137
  790MOL0     H 6627   3.212   7.343  13.717 -0.7153 -2.5877  1.7456
  790MOL0     H 6628   3.308   7.243  13.903  0.7060  0.0245  0.0161
  790MOL0     H 6629   3.223   7.361  14.011 -1.3291 -1.3509  1.7559
  790MOL0     H 6630   2.614   7.522  13.416 -0.0162  2.7333  3.9284
  790MOL0     H 6631   2.474   7.407  13.269  1.6538 -2.5860  0.1486
  790MOL0     H 6632   2.046   7.129  13.303  2.6882  1.5562  0.9398
  790MOL0     H 6633   1.867   7.010  13.164  1.2276  0.1220  3.9097
  790MOL0     H 6634   1.262   7.053  11.519 -0.0292  0.8467 -1.7518
  790MOL0     H 6635   1.147   6.964  11.327 -0.4097 -1.4331  1.5821
  790MOL0     H 6636   0.764   6.920  11.094  1.6371  0.4073 -0.8167
  790MOL0     H 6637   0.637   6.843  10.889 -0.8688  1.0434 -0.8609
  790MOL0     H 6638   0.704   7.071  10.514  0.4353  4.2300  4.8944
  790MOL0     H 6639   0.558   7.128  10.583  1.9289 -0.3124  1.5071
  790MOL0     H 6640   0.488   7.013  10.377  1.1038 -0.9864 -2.0285
  790MOL0     H 6641   0.434   6.920  10.524 -1.6507  2.9039 -2.7932
  790MOL0     H 6642   0.567   6.760  10.363 -0.7539  0.9664 -0.3797
  790MOL0     H 6643   0.643   6.779  10.516  0.7699  0.8401  0.2689
  790MOL0     H 6644   0.829   6.899  10.418  0.7060 -0.4208 -2.1062
  790MOL0     H 6645   0.794   6.771  10.322 -0.5354 -0.6070  1.5466
  790MOL0     H 6646   0.696   7.099  10.069  2.2613 -2.1067 -2.1724
  790MOL0     H 6647   0.771   7.195  10.687  1.3211 -1.4726 -1.8314
  790MOL0     H 6648   0.980   7.291  10.768  1.7330  0.0613  1.2270
  790MOL0     H 6649   0.891   7.393  10.879 -3.1353 -0.6965 -3.4912
  790MOL0     H 6650   1.016   7.291  10.940  0.0255  1.4769 -0.2920
  791MOL0     O 6651   3.002   5.284   7.186  0.0224  0.1138  0.4856
  791MOL0     C 6652   2.958   5.193   7.246  0.0351 -0.4025 -0.4803
  791MOL0     O 6653   2.853   5.117   7.208 -0.1364  1.0551  0.4300
  791MOL0     C 6654   2.804   5.110   7.081 -0.1647 -0.4185 -0.0063
  791MOL0     C 6655   2.682   5.043   7.079  0.1258  1.7995  0.6653
  791MOL0     C 6656   2.617   5.016   6.957 -0.6317  0.3597  0.3313
  791MOL0     C 6657   2.676   5.055   6.834 -0.1094 -0.0110  0.0206
  791MOL0     O 6658   2.637   5.021   6.714  0.1780  0.2739  0.5210
  791MOL0     C 6659   2.554   4.914   6.692  0.9254  0.0744  0.4404
  791MOL0     C 6660   2.543   4.904   6.534  0.7384 -0.7105  0.1842
  791MOL0     C 6661   2.667   4.923   6.451 -0.2281 -0.2219  1.3197
  791MOL0     C 6662   2.649   4.941   6.300  0.1138 -0.8676 -0.5108
  791MOL0     C 6663   2.624   4.818   6.223 -0.2184 -0.5538  0.2008
  791MOL0     C 6664   2.746   4.782   6.149  0.2031  0.4581  0.3028
  791MOL0     C 6665   2.760   4.633   6.129  0.0707  0.1247  0.0683
  791MOL0     C 6666   2.781   4.554   6.265  0.1905 -0.3170 -0.2476
  791MOL0     N 6667   2.815   4.420   6.249 -0.3082  0.4450  0.3517
  791MOL0     C 6668   2.729   4.327   6.205  0.7038 -0.2253 -0.2005
  791MOL0     C 6669   2.812   4.226   6.164  0.2563 -0.4693 -0.3458
  791MOL0     C 6670   2.759   4.094   6.103  0.6700  0.3913  0.4042
  791MOL0     C 6671   2.831   4.065   5.970 -1.3198 -0.7689  0.0669
  791MOL0     C 6672   2.969   4.004   5.989 -0.1297 -0.0627  0.7588
  791MOL0     C 6673   2.966   3.857   6.041 -0.0243 -0.0480  0.1886
  791MOL0     O 6674   3.093   3.820   6.085 -0.0460  0.2877 -0.0846
  791MOL0     C 6675   3.092   3.690   6.127 -0.2366 -0.8093 -0.5162
  791MOL0     C 6676   3.166   3.591   6.060  0.6177  0.5715 -0.8292
  791MOL0     C 6677   3.145   3.456   6.082  0.2268  0.7770  0.2517
  791MOL0     C 6678   3.085   3.410   6.196 -0.2532 -0.0114 -1.4007
  791MOL0     C 6679   3.079   3.259   6.219 -0.1876 -0.5412 -0.2257
  791MOL0     O 6680   3.135   3.184   6.120 -0.2677  0.5299  0.0098
  791MOL0     C 6681   3.149   3.045   6.134  0.8748  0.5688 -0.3388
  791MOL0     C 6682   3.053   2.964   6.193  0.3178  0.8362  0.0540
  791MOL0     C 6683   3.065   2.828   6.208  0.0405 -0.5136 -0.2448
  791MOL0     C 6684   3.179   2.762   6.156  0.2379  0.2805 -0.5965
  791MOL0     O 6685   3.214   2.631   6.162  0.3675 -0.5867  0.0479
  791MOL0     C 6686   3.120   2.539   6.231  0.5875  0.9667 -0.1741
  791MOL0     C 6687   3.164   2.389   6.215 -1.6668 -0.5239  0.3481
  791MOL0     C 6688   3.279   2.355   6.307 -0.3081 -0.8428  0.1279
  791MOL0     C 6689   3.344   2.215   6.271  0.0705  0.4921 -0.8108
  791MOL0     C 6690   3.452   2.199   6.377  0.3980  0.1832  0.1375
  791MOL0     C 6691   3.475   2.051   6.402 -0.2870  0.0066 -0.3829
  791MOL0     C 6692   3.615   2.021   6.446 -0.6581  0.2628  0.0061
  791MOL0     C 6693   3.648   1.875   6.459 -0.2068 -0.6909  0.0657
  791MOL0    Cl 6694   3.529   1.795   6.584 -0.1689  0.4499  0.3857
  791MOL0     C 6695   3.269   2.837   6.088 -0.3206  0.2012 -1.1625
  791MOL0     C 6696   3.255   2.977   6.070 -0.3888 -0.4862 -0.8616
  791MOL0     O 6697   3.025   3.216   6.322  0.1271 -0.0917 -0.6332
  791MOL0     C 6698   3.017   3.503   6.279 -0.4573 -0.1570 -0.6385
  791MOL0     C 6699   3.022   3.644   6.242 -0.1376  0.1164  0.8437
  791MOL0     N 6700   2.951   4.259   6.193  0.5087  0.7560  0.4380
  791MOL0     N 6701   2.946   4.378   6.223 -0.1752  0.5812 -0.6099
  791MOL0     C 6702   2.800   5.128   6.838 -0.5088 -0.2796 -0.5830
  791MOL0     C 6703   2.870   5.154   6.964  0.1773  0.0880  0.4161
  791MOL0     C 6704   3.013   5.156   7.394  0.3183  0.2304  0.0915
  791MOL0     C 6705   2.927   5.092   7.487  0.7089  0.0709 -0.0801
  791MOL0     C 6706   2.968   5.067   7.616 -0.2497  0.0010  0.0055
  791MOL0     C 6707   3.110   5.070   7.640 -0.5200 -0.0062 -0.6317
  791MOL0     O 6708   3.169   5.033   7.763  0.5977 -0.3156 -0.3130
  791MOL0     C 6709   3.082   4.994   7.871 -1.3731  0.4073 -0.1033
  791MOL0     C 6710   3.182   4.971   7.991  0.4926 -0.6256  0.0608
  791MOL0     C 6711   3.303   4.866   7.966 -0.5875  0.4396 -0.8507
  791MOL0     C 6712   3.375   4.842   8.102 -0.5080  0.1521  0.1908
  791MOL0     C 6713   3.485   4.936   8.112 -0.9123 -0.1053 -0.0814
  791MOL0     C 6714   3.564   5.023   8.099  0.0680 -0.4044 -0.3725
  791MOL0     C 6715   3.199   5.116   7.540  0.1052  0.7908 -0.6766
  791MOL0     C 6716   3.155   5.172   7.420 -0.3166 -0.2935  0.1759
  791MOL0     C 6717   3.256   5.229   7.322  0.0336  0.5916  0.0777
  791MOL0     H 6718   2.632   5.010   7.169  0.9785  0.4081  0.6416
  791MOL0     H 6719   2.523   4.964   6.966 -0.7197 -0.2348 -2.7790
  791MOL0     H 6720   2.590   4.819   6.733 -1.3502 -0.0380  2.4021
  791MOL0     H 6721   2.449   4.932   6.717 -0.3346 -3.0297 -1.8897
  791MOL0     H 6722   2.482   4.989   6.505  0.7083 -0.3558  1.2215
  791MOL0     H 6723   2.485   4.813   6.514  0.7849 -0.5881 -0.5169
  791MOL0     H 6724   2.736   4.840   6.471  0.0650  0.1197  1.7465
  791MOL0     H 6725   2.722   5.014   6.475 -0.7391  0.7593 -0.9724
  791MOL0     H 6726   2.559   5.003   6.285 -0.7013 -1.7717  0.4439
  791MOL0     H 6727   2.732   5.000   6.260 -1.1307  1.1654 -0.2643
  791MOL0     H 6728   2.588   4.740   6.290 -0.8020  0.1073  0.6575
  791MOL0     H 6729   2.549   4.839   6.146  1.7895 -1.2232 -2.0859
  791MOL0     H 6730   2.760   4.836   6.055  1.7286 -0.2610  0.0903
  791MOL0     H 6731   2.829   4.812   6.214 -2.5791  4.0324  2.5894
  791MOL0     H 6732   2.850   4.602   6.074  0.5286  0.2825  0.7114
  791MOL0     H 6733   2.679   4.595   6.066  1.2358  0.7139 -1.8822
  791MOL0     H 6734   2.857   4.605   6.324  0.3756 -1.7905  0.8151
  791MOL0     H 6735   2.682   4.561   6.312 -0.2489  0.5841 -1.2489
  791MOL0     H 6736   2.623   4.339   6.186  0.5745 -1.7994 -0.5912
  791MOL0     H 6737   2.780   4.011   6.171 -1.3316  0.0082  0.6281
  791MOL0     H 6738   2.650   4.104   6.094  0.2941 -1.3202  2.2730
  791MOL0     H 6739   2.767   4.008   5.902 -0.5694 -2.0007  0.3596
  791MOL0     H 6740   2.830   4.159   5.915  0.1308 -2.0588 -2.3548
  791MOL0     H 6741   3.023   4.068   6.059  1.1826 -0.9459  0.5805
  791MOL0     H 6742   3.015   4.006   5.890 -0.3452 -2.7178  0.5444
  791MOL0     H 6743   2.932   3.794   5.958  1.6952 -0.2455 -0.4152
  791MOL0     H 6744   2.902   3.855   6.129 -0.6456  0.5319 -0.2441
  791MOL0     H 6745   3.227   3.621   5.976  2.4397 -0.0221  0.2318
  791MOL0     H 6746   3.180   3.389   6.004 -1.6123 -0.8648  0.7712
  791MOL0     H 6747   2.965   3.012   6.235  1.0531  0.7533  1.7306
  791MOL0     H 6748   2.985   2.781   6.265 -1.8351  1.8300 -0.7983
  791MOL0     H 6749   3.106   2.578   6.332  0.1273  0.7479 -0.1488
  791MOL0     H 6750   3.026   2.553   6.177  0.5451 -2.3238 -1.1899
  791MOL0     H 6751   3.081   2.318   6.225 -1.8237 -1.1885 -3.7549
  791MOL0     H 6752   3.205   2.384   6.114 -0.7632 -1.0543  0.7326
  791MOL0     H 6753   3.356   2.433   6.302  0.9407 -2.0847 -0.6563
  791MOL0     H 6754   3.237   2.343   6.407 -0.4440 -0.4861  0.1140
  791MOL0     H 6755   3.398   2.240   6.179 -0.5470  1.3358 -0.9562
  791MOL0     H 6756   3.265   2.140   6.271  0.2369  0.2418  1.5501
  791MOL0     H 6757   3.416   2.230   6.475  0.6296 -1.0881  0.6455
  791MOL0     H 6758   3.549   2.239   6.346  0.9175 -1.0472  0.1156
  791MOL0     H 6759   3.407   2.019   6.481  0.3250 -0.6862 -0.1321
  791MOL0     H 6760   3.433   1.998   6.316  0.3106 -1.4241  0.1851
  791MOL0     H 6761   3.643   2.075   6.537  0.9809  2.7015 -1.7904
  791MOL0     H 6762   3.678   2.051   6.360  0.2507 -0.9407  0.2309
  791MOL0     H 6763   3.639   1.817   6.367  3.4985  1.5132 -1.9279
  791MOL0     H 6764   3.757   1.869   6.470 -0.1847 -0.9192 -0.2761
  791MOL0     H 6765   3.354   2.789   6.039  0.2241 -2.3173  1.9082
  791MOL0     H 6766   3.332   3.030   6.016  0.2157  2.0628  2.1726
  791MOL0     H 6767   2.959   3.465   6.362  3.2692 -2.6603  1.1009
  791MOL0     H 6768   2.964   3.704   6.312 -0.4265  1.8363 -0.7827
  791MOL0     H 6769   2.854   5.153   6.748 -0.7308  0.4820 -0.5164
  791MOL0     H 6770   2.969   5.199   6.961 -0.2489  1.0453  0.1378
  791MOL0     H 6771   2.822   5.072   7.468  1.2636 -3.0833 -0.2586
  791MOL0     H 6772   2.895   5.038   7.691 -1.3323  2.3163 -0.0715
  791MOL0     H 6773   3.040   4.895   7.850 -0.1119 -0.3958  0.9708
  791MOL0     H 6774   3.021   5.080   7.896 -2.3763 -1.0283  2.9229
  791MOL0     H 6775   3.118   4.934   8.071 -1.2221 -1.5914 -1.6844
  791MOL0     H 6776   3.230   5.062   8.030  0.9251 -0.7274 -0.2256
  791MOL0     H 6777   3.367   4.902   7.885 -1.1573  2.7446 -0.3768
  791MOL0     H 6778   3.256   4.777   7.925  1.7838 -1.0044 -0.5987
  791MOL0     H 6779   3.307   4.840   8.188  0.0197 -1.0659  0.6082
  791MOL0     H 6780   3.428   4.746   8.102  1.3899  1.1546  0.6287
  791MOL0     H 6781   3.645   5.092   8.084 -1.2820  0.9550 -1.7459
  791MOL0     H 6782   3.305   5.101   7.557  0.8353  3.6475 -2.0097
  791MOL0     H 6783   3.247   5.338   7.316 -0.0879  0.5694 -0.1414
  791MOL0     H 6784   3.357   5.201   7.353  0.6555 -0.2157 -2.4658
  791MOL0     H 6785   3.251   5.181   7.224  4.3708  1.9277 -1.0239
  792MOL0     O 6786  11.257   5.252  11.052 -0.4799 -0.0721  0.4128
  792MOL0     C 6787  11.229   5.198  11.157  0.8028  1.2012  0.5442
  792MOL0     O 6788  11.180   5.264  11.264 -0.0105 -0.0611  0.0830
  792MOL0     C 6789  11.166   5.406  11.254 -0.0709 -0.7084  1.2724
  792MOL0     C 6790  11.274   5.491  11.283  0.3973 -0.6181  0.0715
  792MOL0     C 6791  11.260   5.624  11.318  0.2143 -0.1770 -0.0372
  792MOL0     C 6792  11.136   5.686  11.310  0.4051 -1.0876  0.3298
  792MOL0     O 6793  11.135   5.824  11.328 -0.4026  0.0911 -0.1550
  792MOL0     C 6794  11.007   5.888  11.312  0.2124 -0.6049 -0.5545
  792MOL0     C 6795  11.018   6.021  11.391  0.1096  0.5009  0.9074
  792MOL0     C 6796  10.895   6.108  11.392 -1.2833  0.2247 -0.4611
  792MOL0     C 6797  10.898   6.221  11.497 -0.6307 -0.0052 -0.2756
  792MOL0     C 6798  10.780   6.318  11.490 -0.0764 -0.9059 -0.0784
  792MOL0     C 6799  10.637   6.282  11.519 -0.4371  0.1463 -0.2376
  792MOL0     C 6800  10.531   6.392  11.520 -0.4318  0.8619 -1.1363
  792MOL0     C 6801  10.481   6.429  11.384  0.2506  0.3069  0.2128
  792MOL0     N 6802  10.445   6.317  11.305  0.6355  0.1534 -0.7979
  792MOL0     C 6803  10.514   6.267  11.201 -0.4312 -0.2623 -0.1934
  792MOL0     C 6804  10.445   6.160  11.162  0.4021  0.1157  0.1746
  792MOL0     C 6805  10.478   6.052  11.065  0.0516  0.0359  0.6407
  792MOL0     C 6806  10.450   6.098  10.921 -1.0137 -0.9079  0.7786
  792MOL0     C 6807  10.403   5.978  10.841  0.2210 -0.1274  0.5237
  792MOL0     C 6808  10.523   5.884  10.803  0.5298 -0.1951 -0.6763
  792MOL0     O 6809  10.477   5.744  10.762 -0.4320 -0.9088 -0.7994
  792MOL0     C 6810  10.526   5.634  10.829 -0.1786 -0.5349 -0.2130
  792MOL0     C 6811  10.650   5.626  10.889 -0.1561 -0.5220 -0.7421
  792MOL0     C 6812  10.709   5.505  10.949  0.6071  0.0060 -0.3442
  792MOL0     C 6813  10.642   5.382  10.928  1.1824  0.8886  0.1473
  792MOL0     C 6814  10.698   5.261  10.987 -0.3457 -0.3497 -0.9159
  792MOL0     O 6815  10.618   5.156  10.953 -0.1823  0.4967 -0.3618
  792MOL0     C 6816  10.661   5.025  10.985  0.5829  0.7315  1.0433
  792MOL0     C 6817  10.705   4.971  11.109  0.9882  0.5448 -0.0186
  792MOL0     C 6818  10.723   4.836  11.120 -0.0618  0.2910 -0.5742
  792MOL0     C 6819  10.726   4.751  11.008 -0.6003 -0.5017  0.2052
  792MOL0     O 6820  10.774   4.620  11.023 -0.0098 -0.8957 -0.4418
  792MOL0     C 6821  10.899   4.591  11.088  0.2329 -0.1896 -0.1653
  792MOL0     C 6822  10.941   4.445  11.050  1.2181 -0.2377 -0.8225
  792MOL0     C 6823  10.860   4.348  11.144  0.5416  0.5093 -0.3924
  792MOL0     C 6824  10.865   4.201  11.084  0.0906 -0.6858  0.3403
  792MOL0     C 6825  10.851   4.095  11.198 -0.7556  0.9296  0.8579
  792MOL0     C 6826  10.747   4.116  11.303 -0.3951  0.8364  1.0915
  792MOL0     C 6827  10.705   3.985  11.379  0.7263 -0.0056  0.4319
  792MOL0     C 6828  10.584   3.993  11.476 -0.2635  0.3419 -1.1836
  792MOL0    Cl 6829  10.645   4.081  11.618  0.0514  0.0180  0.0090
  792MOL0     C 6830  10.678   4.804  10.890  0.1619  1.1785  0.4885
  792MOL0     C 6831  10.650   4.933  10.874  0.4409 -0.2560  0.0440
  792MOL0     O 6832  10.800   5.257  11.045 -0.3030  0.3596  0.5059
  792MOL0     C 6833  10.524   5.390  10.850 -0.1596  0.1473  0.0912
  792MOL0     C 6834  10.469   5.510  10.807  0.9648 -0.1818  0.1786
  792MOL0     N 6835  10.329   6.151  11.241  0.2294  0.9862  0.2218
  792MOL0     N 6836  10.334   6.236  11.336  0.1532  0.0070  0.0049
  792MOL0     C 6837  11.020   5.606  11.275 -0.5065 -0.3978  1.2110
  792MOL0     C 6838  11.035   5.469  11.256  0.2400 -0.8395 -0.5705
  792MOL0     C 6839  11.219   5.039  11.153 -0.2540 -0.4277  0.1116
  792MOL0     C 6840  11.316   4.969  11.080 -0.3794 -0.9278  0.1704
  792MOL0     C 6841  11.320   4.829  11.087  0.5055 -0.5742 -0.5984
  792MOL0     C 6842  11.213   4.762  11.144 -0.4699  0.0569 -0.1138
  792MOL0     O 6843  11.234   4.626  11.158 -0.0317  0.0077  0.5960
  792MOL0     C 6844  11.293   4.588  11.289 -0.4928  0.6042 -0.3753
  792MOL0     C 6845  11.438   4.572  11.253  0.7980  0.5974  0.6450
  792MOL0     C 6846  11.468   4.464  11.143 -1.0569 -0.1450 -0.6007
  792MOL0     C 6847  11.618   4.413  11.138 -0.2385  0.5709 -0.0303
  792MOL0     C 6848  11.711   4.515  11.086  1.1187  0.4780  0.3377
  792MOL0     C 6849  11.779   4.604  11.040 -0.6272  0.0619 -0.0450
  792MOL0     C 6850  11.106   4.837  11.201 -0.2871 -0.3161  0.4754
  792MOL0     C 6851  11.107   4.973  11.211 -0.0082 -0.9286  0.6958
  792MOL0     C 6852  11.000   5.052  11.289 -0.0391  0.2128 -0.9772
  792MOL0     H 6853  11.369   5.445  11.305  1.9409  1.2805 -2.1863
  792MOL0     H 6854  11.347   5.680  11.352  0.4814 -0.2790 -0.5524
  792MOL0     H 6855  10.973   5.901  11.209 -1.7919  1.2960  0.2491
  792MOL0     H 6856  10.932   5.831  11.368 -0.7783  0.8655 -0.3187
  792MOL0     H 6857  11.095   6.072  11.333  0.5589 -3.2470 -2.1769
  792MOL0     H 6858  11.056   6.007  11.492  0.3580  0.4366  0.8040
  792MOL0     H 6859  10.807   6.049  11.419 -0.9042 -0.4422 -0.6515
  792MOL0     H 6860  10.883   6.164  11.299 -1.7843  2.1554  0.7045
  792MOL0     H 6861  10.904   6.171  11.594 -0.5203 -0.3894 -0.4774
  792MOL0     H 6862  10.989   6.281  11.485 -0.2510 -1.0555 -4.0641
  792MOL0     H 6863  10.815   6.398  11.557 -2.0962  0.7451 -0.8895
  792MOL0     H 6864  10.774   6.377  11.397 -3.5403  0.6556  0.9833
  792MOL0     H 6865  10.614   6.193  11.459  0.5506 -1.6139  1.8560
  792MOL0     H 6866  10.633   6.234  11.617 -3.1959 -1.2588 -0.9299
  792MOL0     H 6867  10.571   6.479  11.574 -3.5064  1.4939  0.3235
  792MOL0     H 6868  10.449   6.348  11.577 -0.4823  3.6879  1.2386
  792MOL0     H 6869  10.396   6.494  11.404 -0.1575 -0.5817  1.5174
  792MOL0     H 6870  10.540   6.509  11.338 -4.8925  4.4500 -0.0471
  792MOL0     H 6871  10.604   6.299  11.151 -0.2342  2.2838  1.6189
  792MOL0     H 6872  10.584   6.030  11.082  0.5951  1.7448 -0.2793
  792MOL0     H 6873  10.420   5.963  11.093  0.7363 -0.3767  0.7679
  792MOL0     H 6874  10.368   6.171  10.918  1.4425  2.0642  1.1801
  792MOL0     H 6875  10.535   6.151  10.877 -2.8527  3.0998  1.4974
  792MOL0     H 6876  10.351   6.021  10.756 -3.0805  0.3080  2.5888
  792MOL0     H 6877  10.324   5.925  10.895 -1.0490 -1.1143 -2.1097
  792MOL0     H 6878  10.592   5.870  10.886  1.7834 -1.7367 -1.9139
  792MOL0     H 6879  10.579   5.935  10.724  3.7590 -0.4943  1.2619
  792MOL0     H 6880  10.713   5.713  10.899  0.4114 -0.8002 -1.7689
  792MOL0     H 6881  10.791   5.500  11.021 -0.4383  1.4991  1.0136
  792MOL0     H 6882  10.705   5.039  11.194 -2.7604  1.6896 -0.7722
  792MOL0     H 6883  10.759   4.808  11.219 -2.2920 -0.3748  0.0857
  792MOL0     H 6884  10.973   4.661  11.048  0.6112 -1.5528 -2.0002
  792MOL0     H 6885  10.894   4.590  11.197  0.9590 -1.2062 -0.1246
  792MOL0     H 6886  10.921   4.427  10.944  1.8642  1.5325 -1.2806
  792MOL0     H 6887  11.048   4.435  11.067  1.1114 -0.3173 -0.1370
  792MOL0     H 6888  10.895   4.341  11.248  1.8856 -0.5178 -0.8873
  792MOL0     H 6889  10.755   4.379  11.152  0.5817  2.9788 -5.5051
  792MOL0     H 6890  10.954   4.180  11.024 -0.7176  1.5001 -1.8320
  792MOL0     H 6891  10.781   4.207  11.014 -1.5473  0.3514  2.2812
  792MOL0     H 6892  10.948   4.094  11.249 -0.0952  3.7643 -0.1861
  792MOL0     H 6893  10.838   4.001  11.144  2.2291  0.3240  1.0003
  792MOL0     H 6894  10.773   4.195  11.374  0.0591  2.0138 -0.3387
  792MOL0     H 6895  10.650   4.147  11.262 -0.4109 -1.1238 -0.5166
  792MOL0     H 6896  10.791   3.938  11.426 -1.0896 -3.9409  0.1977
  792MOL0     H 6897  10.669   3.920  11.299  1.5622  0.6837 -0.5296
  792MOL0     H 6898  10.498   4.050  11.439 -3.0583 -2.5690  0.3246
  792MOL0     H 6899  10.556   3.893  11.511 -0.5016  0.0173 -2.2809
  792MOL0     H 6900  10.667   4.744  10.800 -2.7706  2.4108 -0.0783
  792MOL0     H 6901  10.620   4.977  10.780 -1.3294  2.8216  1.8797
  792MOL0     H 6902  10.453   5.308  10.847  0.0347 -0.0171 -2.4335
  792MOL0     H 6903  10.374   5.513  10.754  1.5632 -0.4042 -0.9374
  792MOL0     H 6904  10.919   5.642  11.253 -0.2663 -0.0809  0.5962
  792MOL0     H 6905  10.951   5.404  11.233  0.0285  0.0284 -2.4172
  792MOL0     H 6906  11.389   5.032  11.031 -1.9144  0.5402 -0.3063
  792MOL0     H 6907  11.405   4.777  11.043  0.0841 -1.9251  0.1183
  792MOL0     H 6908  11.248   4.497  11.329 -0.9995  1.2999  0.6514
  792MOL0     H 6909  11.285   4.662  11.369  0.7896 -1.6098  1.9393
  792MOL0     H 6910  11.492   4.535  11.341  1.6148 -1.5237 -0.6602
  792MOL0     H 6911  11.487   4.668  11.236 -2.9145  2.5150 -0.4192
  792MOL0     H 6912  11.442   4.501  11.043 -0.9161 -1.0959 -0.9974
  792MOL0     H 6913  11.397   4.381  11.154 -1.0624 -0.0628 -0.0222
  792MOL0     H 6914  11.663   4.377  11.231  2.7440  0.6677 -1.3418
  792MOL0     H 6915  11.612   4.329  11.068 -1.0178 -1.2900  2.1032
  792MOL0     H 6916  11.849   4.675  11.001  0.1169  0.2923  1.6078
  792MOL0     H 6917  11.030   4.768  11.236 -0.1174  0.5351  2.6604
  792MOL0     H 6918  11.047   5.089  11.381 -2.1221  0.1532  0.1821
  792MOL0     H 6919  10.972   5.137  11.226  2.4513 -0.0334 -2.5154
  792MOL0     H 6920  10.914   4.996  11.328  0.0508  0.5957 -0.2064
  793MOL0     O 6921   9.649   8.406   0.256  0.4414  0.8992 -0.3648
  793MOL0     C 6922   9.704   8.510   0.298  0.1120 -0.1977  0.0906
  793MOL0     O 6923   9.806   8.510   0.394 -0.4667 -0.7024  0.4190
  793MOL0     C 6924   9.835   8.392   0.451  0.9016  0.4727 -0.3538
  793MOL0     C 6925   9.803   8.378   0.585 -0.1346  0.2415 -0.0764
  793MOL0     C 6926   9.839   8.263   0.663  0.1102  0.4171 -0.9276
  793MOL0     C 6927   9.909   8.159   0.596 -0.5000 -0.1080 -0.4811
  793MOL0     O 6928   9.946   8.050   0.669  0.0096  0.0575  0.4178
  793MOL0     C 6929   9.926   7.928   0.608  0.4448  0.3999  0.7220
  793MOL0     C 6930   9.914   7.825   0.721  0.0455 -0.0556  0.0465
  793MOL0     C 6931   9.912   7.686   0.651 -0.3087  0.8680 -0.1496
  793MOL0     C 6932   9.933   7.556   0.743  0.5609 -0.4051 -0.3649
  793MOL0     C 6933   9.882   7.425   0.685 -0.8762  0.6604  0.6918
  793MOL0     C 6934   9.977   7.380   0.570  0.3931  0.9604  0.1726
  793MOL0     C 6935   9.963   7.229   0.540  0.4531 -0.3946  0.5337
  793MOL0     C 6936   9.824   7.209   0.462  1.1963 -0.0104 -0.9462
  793MOL0     N 6937   9.824   7.068   0.409  0.3190  0.4870 -0.7107
  793MOL0     C 6938   9.774   7.026   0.295 -0.1357 -0.3922 -0.2317
  793MOL0     C 6939   9.785   6.894   0.297 -0.2449 -0.0533 -0.2753
  793MOL0     C 6940   9.730   6.802   0.191 -1.0003  0.2207 -0.0878
  793MOL0     C 6941   9.590   6.774   0.211  0.6930  0.1839  0.4121
  793MOL0     C 6942   9.549   6.653   0.130  0.3274 -0.0350 -0.9974
  793MOL0     C 6943   9.420   6.592   0.189 -1.2154  0.0028 -0.9959
  793MOL0     O 6944   9.380   6.476   0.119  0.1914 -0.2631 -0.0875
  793MOL0     C 6945   9.345   6.480  -0.015 -0.3249  0.0347  0.4336
  793MOL0     C 6946   9.366   6.366  -0.091 -0.1794  0.2756  0.5587
  793MOL0     C 6947   9.304   6.340  -0.213 -0.7651 -1.0142  0.1330
  793MOL0     C 6948   9.235   6.454  -0.271  1.1332 -0.6602 -0.4112
  793MOL0     C 6949   9.169   6.444  -0.405 -0.4293 -0.4136  0.9414
  793MOL0     O 6950   9.096   6.554  -0.455 -0.4248 -0.0547 -0.2194
  793MOL0     C 6951   8.999   6.532  -0.545  0.8375  0.4487  0.7476
  793MOL0     C 6952   9.003   6.587  -0.678  0.3809  0.3543 -1.1330
  793MOL0     C 6953   8.903   6.565  -0.767 -0.5151 -0.7755  0.2995
  793MOL0     C 6954   8.789   6.496  -0.729 -0.3567  0.4506  0.0949
  793MOL0     O 6955   8.685   6.465  -0.810  0.3440  0.0221 -0.4953
  793MOL0     C 6956   8.686   6.477  -0.950 -0.1791 -0.6082 -0.7657
  793MOL0     C 6957   8.556   6.421  -1.007  0.1617  0.3310 -0.1502
  793MOL0     C 6958   8.432   6.519  -1.022 -0.7052  0.2269 -0.1715
  793MOL0     C 6959   8.399   6.589  -0.881 -0.4606  0.4944  0.5572
  793MOL0     C 6960   8.260   6.657  -0.894 -0.9650  0.1876 -0.3424
  793MOL0     C 6961   8.212   6.692  -0.745 -0.7030 -1.0422 -0.4057
  793MOL0     C 6962   8.068   6.752  -0.738  0.2230  0.3522 -0.5395
  793MOL0     C 6963   8.070   6.907  -0.754 -0.4679  0.2659  0.3650
  793MOL0    Cl 6964   8.102   6.944  -0.923  0.0218 -0.5511 -0.2244
  793MOL0     C 6965   8.782   6.445  -0.597  1.1347  0.4493  0.0641
  793MOL0     C 6966   8.887   6.461  -0.508 -0.0014 -0.2053  0.2148
  793MOL0     O 6967   9.177   6.332  -0.457  0.0349 -0.3348  0.0387
  793MOL0     C 6968   9.221   6.574  -0.203 -0.2648  0.1220  0.9108
  793MOL0     C 6969   9.278   6.591  -0.071 -1.1436 -0.0193 -0.4022
  793MOL0     N 6970   9.837   6.857   0.418  0.0894 -0.3179  0.3182
  793MOL0     N 6971   9.853   6.960   0.486 -0.3047  0.8615  1.0351
  793MOL0     C 6972   9.939   8.169   0.460  0.5199 -1.6221  0.7486
  793MOL0     C 6973   9.902   8.286   0.390 -0.0510 -0.6757  0.9960
  793MOL0     C 6974   9.656   8.642   0.254 -0.4014 -0.8067  0.3609
  793MOL0     C 6975   9.666   8.748   0.347 -0.1083  0.9100  0.1780
  793MOL0     C 6976   9.614   8.871   0.314  0.6459  0.6114  0.7085
  793MOL0     C 6977   9.551   8.896   0.193  0.1695 -0.0178 -0.4311
  793MOL0     O 6978   9.496   9.020   0.174  0.3591  0.0705  0.1623
  793MOL0     C 6979   9.515   9.094   0.048 -0.5497 -0.1862 -0.8557
  793MOL0     C 6980   9.662   9.109   0.007  0.3481  0.1473  0.4775
  793MOL0     C 6981   9.676   9.171  -0.131 -0.4896  0.3134  0.1621
  793MOL0     C 6982   9.617   9.077  -0.239  0.0411  0.6509 -0.3000
  793MOL0     C 6983   9.644   9.136  -0.371  0.2715 -0.3445  0.1973
  793MOL0     C 6984   9.683   9.183  -0.473  0.0460 -0.8759 -0.0504
  793MOL0     C 6985   9.541   8.795   0.100  0.3944 -0.5667 -0.7760
  793MOL0     C 6986   9.590   8.670   0.129 -0.0997 -0.0341 -0.8844
  793MOL0     C 6987   9.583   8.567   0.028  1.4338  0.1894  0.5708
  793MOL0     H 6988   9.756   8.459   0.641  0.2288 -0.4061  1.1964
  793MOL0     H 6989   9.819   8.262   0.770  3.8356  1.2316 -0.0947
  793MOL0     H 6990   9.837   7.916   0.545 -0.4209  1.3107  1.7377
  793MOL0     H 6991  10.013   7.904   0.547 -0.1401 -4.0194  1.2305
  793MOL0     H 6992   9.818   7.841   0.773 -0.8161  2.2195 -2.0651
  793MOL0     H 6993  10.001   7.841   0.785  0.3306 -2.3360  0.3274
  793MOL0     H 6994   9.978   7.682   0.564  0.6677 -1.3400  0.6243
  793MOL0     H 6995   9.808   7.668   0.622 -0.7100 -2.4832  2.7309
  793MOL0     H 6996  10.040   7.550   0.764  0.9936 -1.0821 -2.5604
  793MOL0     H 6997   9.871   7.567   0.833  2.3209 -3.2774  1.3749
  793MOL0     H 6998   9.879   7.357   0.771 -1.4486  0.7855  0.7745
  793MOL0     H 6999   9.778   7.431   0.650  0.1674  3.6805 -2.5326
  793MOL0     H 7000   9.978   7.448   0.484  0.0021 -0.4026 -0.9355
  793MOL0     H 7001  10.077   7.386   0.614  0.1151 -2.1890  1.4991
  793MOL0     H 7002   9.961   7.167   0.630  2.6836  0.7408  1.4336
  793MOL0     H 7003  10.042   7.186   0.478  2.4292 -0.2307  2.8068
  793MOL0     H 7004   9.734   7.226   0.522  0.5677 -0.8909 -1.6269
  793MOL0     H 7005   9.821   7.281   0.380 -0.1183  0.5268 -0.4545
  793MOL0     H 7006   9.722   7.075   0.213 -0.2674 -1.6198 -0.9126
  793MOL0     H 7007   9.741   6.844   0.091  0.3768  0.2073  0.0380
  793MOL0     H 7008   9.786   6.708   0.180 -1.6441 -0.0163 -1.6529
  793MOL0     H 7009   9.560   6.756   0.314 -1.4303  1.3026  0.0600
  793MOL0     H 7010   9.520   6.855   0.184 -2.5990 -2.2429  1.0713
  793MOL0     H 7011   9.629   6.579   0.140 -0.8968 -1.3017 -0.2332
  793MOL0     H 7012   9.530   6.672   0.024 -0.3168 -0.6370 -0.9982
  793MOL0     H 7013   9.350   6.675   0.204 -0.2503  1.2039 -2.7756
  793MOL0     H 7014   9.459   6.561   0.287 -2.6401  2.5437  0.5122
  793MOL0     H 7015   9.436   6.306  -0.033 -0.4848 -1.6867 -1.0178
  793MOL0     H 7016   9.334   6.266  -0.286  2.1779  1.2783 -1.2133
  793MOL0     H 7017   9.088   6.640  -0.720  0.3996  0.5388 -0.8632
  793MOL0     H 7018   8.917   6.621  -0.860 -0.0503  0.2333  0.9570
  793MOL0     H 7019   8.697   6.583  -0.973 -2.5012 -0.3110 -0.7426
  793MOL0     H 7020   8.771   6.430  -1.000 -0.5618  0.2854 -2.3375
  793MOL0     H 7021   8.570   6.378  -1.107  1.8988  0.7678 -0.1354
  793MOL0     H 7022   8.535   6.336  -0.942 -0.3956 -1.0635 -2.0774
  793MOL0     H 7023   8.457   6.597  -1.094  5.1021 -0.5259  0.5812
  793MOL0     H 7024   8.345   6.469  -1.065  0.2842 -0.3999 -1.5050
  793MOL0     H 7025   8.478   6.657  -0.848 -1.5116  2.8977 -1.5834
  793MOL0     H 7026   8.386   6.518  -0.799 -2.4942  0.5217  0.3065
  793MOL0     H 7027   8.185   6.596  -0.944 -0.4970 -0.7231  0.0416
  793MOL0     H 7028   8.282   6.745  -0.954  0.6953  0.9644  1.2886
  793MOL0     H 7029   8.214   6.596  -0.693 -0.8142 -1.3525 -0.9684
  793MOL0     H 7030   8.296   6.752  -0.709  0.8671 -3.3134 -0.0604
  793MOL0     H 7031   8.040   6.727  -0.635  0.1572  1.3931 -0.2923
  793MOL0     H 7032   7.994   6.711  -0.807  0.3374  1.7478 -1.5368
  793MOL0     H 7033   7.985   6.944  -0.696 -0.6671  1.7342 -0.8245
  793MOL0     H 7034   8.159   6.940  -0.699  0.4130  0.3034 -1.0363
  793MOL0     H 7035   8.690   6.394  -0.571  0.7238  1.1635  0.0285
  793MOL0     H 7036   8.896   6.423  -0.407  0.7947  0.8243  0.5488
  793MOL0     H 7037   9.158   6.652  -0.244  1.9338  1.6021  0.1479
  793MOL0     H 7038   9.260   6.683  -0.016 -2.5003 -0.1159 -0.6416
  793MOL0     H 7039   9.994   8.087   0.415  3.7415  1.4693 -1.4649
  793MOL0     H 7040   9.930   8.302   0.286 -1.8476  0.8128  0.6912
  793MOL0     H 7041   9.721   8.727   0.438  0.4890  1.9227  0.0655
  793MOL0     H 7042   9.629   8.940   0.397 -0.9681 -0.8842  2.3243
  793MOL0     H 7043   9.474   9.194   0.063  1.8431  0.7884 -0.2519
  793MOL0     H 7044   9.457   9.053  -0.035 -0.2693  2.7952 -2.7018
  793MOL0     H 7045   9.694   9.005  -0.005 -0.9664 -0.0798 -1.9298
  793MOL0     H 7046   9.715   9.164   0.085  2.2698 -0.7917 -0.1010
  793MOL0     H 7047   9.784   9.182  -0.146 -0.0327 -1.8234  1.4905
  793MOL0     H 7048   9.616   9.262  -0.129 -0.9563  0.0367 -0.5592
  793MOL0     H 7049   9.659   8.979  -0.218  0.1613  0.3227 -1.9752
  793MOL0     H 7050   9.509   9.062  -0.237 -0.0763  1.4666 -0.0160
  793MOL0     H 7051   9.736   9.222  -0.557 -1.1234  2.5120  0.6044
  793MOL0     H 7052   9.503   8.810  -0.001  0.2496  2.3630 -0.3568
  793MOL0     H 7053   9.508   8.489   0.044  2.6701 -1.1237  0.2424
  793MOL0     H 7054   9.565   8.617  -0.068  5.7615  3.9283  1.3708
  793MOL0     H 7055   9.678   8.514   0.016  0.0912 -1.8883 -1.9528
  794MOL0     O 7056   5.599   7.813  10.049 -0.3535  0.5510 -0.3791
  794MOL0     C 7057   5.627   7.765   9.946  0.3034 -0.2568 -0.2009
  794MOL0     O 7058   5.660   7.843   9.837 -0.2040  0.5284 -0.3081
  794MOL0     C 7059   5.618   7.973   9.823 -0.6238 -0.0345 -0.5132
  794MOL0     C 7060   5.663   8.082   9.900  0.2032  0.2251 -1.1159
  794MOL0     C 7061   5.615   8.211   9.882  0.0191 -0.2107 -0.2362
  794MOL0     C 7062   5.503   8.230   9.808  0.7794 -0.8689 -0.1046
  794MOL0     O 7063   5.451   8.353   9.791  0.0788  0.0876 -0.1146
  794MOL0     C 7064   5.534   8.466   9.766  0.0354 -0.1201  0.0182
  794MOL0     C 7065   5.443   8.579   9.746 -0.6575  0.1233 -0.3757
  794MOL0     C 7066   5.347   8.578   9.623 -0.7781 -0.6251 -0.5325
  794MOL0     C 7067   5.285   8.714   9.599  0.0362  0.0665  0.4621
  794MOL0     C 7068   5.238   8.753   9.458  0.9216 -0.9737  0.6974
  794MOL0     C 7069   5.100   8.695   9.436  0.0326 -0.2822 -0.0057
  794MOL0     C 7070   5.031   8.724   9.301  0.3525 -0.1429  0.3531
  794MOL0     C 7071   4.973   8.870   9.295  0.2652 -0.5132 -0.2946
  794MOL0     N 7072   4.893   8.899   9.172  0.8585 -0.5790 -0.5392
  794MOL0     C 7073   4.817   9.013   9.146  0.1906 -0.1230  0.2324
  794MOL0     C 7074   4.777   8.984   9.014 -0.7243 -0.2088  0.2759
  794MOL0     C 7075   4.707   9.086   8.924  0.9132 -0.2399 -0.7591
  794MOL0     C 7076   4.791   9.203   8.884 -1.2686 -0.8096 -1.4651
  794MOL0     C 7077   4.888   9.192   8.769 -0.3575 -1.0925 -0.3447
  794MOL0     C 7078   4.997   9.091   8.792  0.1531 -0.8170  0.6871
  794MOL0     O 7079   5.076   9.130   8.916  0.3338  0.5817  0.0379
  794MOL0     C 7080   5.180   9.227   8.898 -0.1101 -0.3695 -0.1939
  794MOL0     C 7081   5.249   9.269   9.015  0.3697 -0.5042  0.2851
  794MOL0     C 7082   5.358   9.354   9.012 -0.9578  0.0077  0.3578
  794MOL0     C 7083   5.404   9.399   8.893 -0.6634  0.8616  0.5200
  794MOL0     C 7084   5.497   9.520   8.889  0.0155  0.8669 -0.7319
  794MOL0     O 7085   5.535   9.573   8.770 -0.1044  0.2706 -0.1099
  794MOL0     C 7086   5.620   9.673   8.765 -0.0697  0.2990  0.1912
  794MOL0     C 7087   5.615   9.795   8.834  0.2624  0.5627 -0.4314
  794MOL0     C 7088   5.708   9.893   8.794  0.4200  0.7661 -0.1600
  794MOL0     C 7089   5.800   9.877   8.695  0.0195  0.1039  0.7794
  794MOL0     O 7090   5.873   9.987   8.658 -0.0620 -0.2406  0.2779
  794MOL0     C 7091   5.982   9.979   8.556 -0.2646  0.7672  0.1116
  794MOL0     C 7092   6.083  10.098   8.586  0.1704  0.0966 -0.6621
  794MOL0     C 7093   6.131  10.101   8.732 -0.1650  0.2298 -0.8462
  794MOL0     C 7094   6.210  10.229   8.749 -0.0263  0.5914  0.5865
  794MOL0     C 7095   6.237  10.245   8.904  0.3066 -0.5694 -0.2618
  794MOL0     C 7096   6.284  10.393   8.922  0.4266 -0.5788  0.1981
  794MOL0     C 7097   6.435  10.419   8.878  0.3696  0.3853 -0.2233
  794MOL0     C 7098   6.532  10.349   8.970 -1.8301 -0.1997  0.3498
  794MOL0    Cl 7099   6.624  10.482   9.047 -0.0873  0.0092  0.0434
  794MOL0     C 7100   5.812   9.752   8.629 -0.2830 -0.0442  0.7313
  794MOL0     C 7101   5.722   9.656   8.666  0.2693 -1.0303 -0.9339
  794MOL0     O 7102   5.540   9.550   8.997  0.6084 -0.5486 -0.0324
  794MOL0     C 7103   5.343   9.359   8.771  0.1195 -0.2197 -0.5248
  794MOL0     C 7104   5.228   9.280   8.781 -0.1425  0.4015  0.9400
  794MOL0     N 7105   4.827   8.858   8.968  0.4166 -0.6046 -0.1575
  794MOL0     N 7106   4.870   8.804   9.074  0.7782  1.2943  0.5350
  794MOL0     C 7107   5.469   8.123   9.729  0.6839  0.5235 -0.4200
  794MOL0     C 7108   5.524   7.994   9.731 -0.8514  0.6165  0.0752
  794MOL0     C 7109   5.654   7.616   9.935  0.3415 -0.1932  1.3597
  794MOL0     C 7110   5.678   7.569   9.806 -0.5721  0.0062  0.1823
  794MOL0     C 7111   5.710   7.434   9.773  0.5658  0.1515  0.3521
  794MOL0     C 7112   5.697   7.346   9.874 -1.7233  0.8072 -0.2789
  794MOL0     O 7113   5.707   7.206   9.863  0.3469 -0.5196 -0.6812
  794MOL0     C 7114   5.760   7.139   9.755 -0.3722 -0.6679 -1.0342
  794MOL0     C 7115   5.907   7.184   9.716 -0.2615 -0.3371 -0.6522
  794MOL0     C 7116   6.016   7.114   9.795 -0.6610 -0.2693 -0.2167
  794MOL0     C 7117   6.156   7.152   9.746  0.1268  0.3644  0.0420
  794MOL0     C 7118   6.209   7.066   9.642 -0.1634 -0.2682 -0.0403
  794MOL0     C 7119   6.261   6.995   9.562  0.4656 -0.6458  0.4730
  794MOL0     C 7120   5.681   7.391  10.002 -0.3485  0.7072 -0.0608
  794MOL0     C 7121   5.681   7.525  10.040  0.5000 -0.0180 -0.3431
  794MOL0     C 7122   5.694   7.565  10.184 -0.0874  0.2302  0.6540
  794MOL0     H 7123   5.746   8.068   9.969  0.4683  3.0207 -0.7561
  794MOL0     H 7124   5.657   8.296   9.934  1.4441 -0.2317 -1.3052
  794MOL0     H 7125   5.609   8.484   9.843  0.8847 -1.6669 -0.4028
  794MOL0     H 7126   5.579   8.448   9.668  0.6412  1.9163 -0.1369
  794MOL0     H 7127   5.502   8.669   9.725 -0.7907 -0.2139 -2.3862
  794MOL0     H 7128   5.391   8.602   9.840  0.3795  0.4373  0.1274
  794MOL0     H 7129   5.273   8.502   9.649 -1.3420 -0.4605 -1.5938
  794MOL0     H 7130   5.402   8.548   9.534 -0.0623 -0.9445  0.0030
  794MOL0     H 7131   5.211   8.750   9.672 -1.1751  1.1389 -1.2070
  794MOL0     H 7132   5.368   8.782   9.618  2.5738 -2.6584 -0.2407
  794MOL0     H 7133   5.218   8.860   9.449  0.4513 -1.0768  0.4911
  794MOL0     H 7134   5.299   8.715   9.375 -3.2571 -0.8258 -2.7713
  794MOL0     H 7135   5.104   8.586   9.437 -2.6315 -0.5402 -3.0524
  794MOL0     H 7136   5.035   8.704   9.524  1.6768 -0.9921  1.3555
  794MOL0     H 7137   4.946   8.656   9.298  0.6355 -0.7058  2.8250
  794MOL0     H 7138   5.104   8.705   9.221 -2.3321  0.1511 -2.3235
  794MOL0     H 7139   4.899   8.892   9.373  0.7597 -1.0335  0.3322
  794MOL0     H 7140   5.057   8.937   9.308  0.0072 -0.4381  1.2050
  794MOL0     H 7141   4.794   9.103   9.203  2.3618  0.4629  0.2557
  794MOL0     H 7142   4.657   9.035   8.841 -2.0143 -0.6120  1.0766
  794MOL0     H 7143   4.623   9.124   8.983  0.5487 -3.0100  0.6591
  794MOL0     H 7144   4.726   9.288   8.868 -0.2370 -0.2183 -2.7440
  794MOL0     H 7145   4.852   9.234   8.969 -2.3303  0.3552 -1.1078
  794MOL0     H 7146   4.923   9.296   8.762 -2.6863 -0.3201 -1.6894
  794MOL0     H 7147   4.828   9.183   8.678 -0.5864  2.7708 -0.7759
  794MOL0     H 7148   5.067   9.071   8.709  2.4417 -0.3683  2.3977
  794MOL0     H 7149   4.957   8.993   8.820 -0.4655 -1.1629 -1.2411
  794MOL0     H 7150   5.213   9.238   9.113 -3.7448  0.6971 -0.6486
  794MOL0     H 7151   5.411   9.366   9.106  1.5849 -1.9245 -0.7214
  794MOL0     H 7152   5.529   9.809   8.899 -0.2101 -1.1653 -0.6314
  794MOL0     H 7153   5.692   9.994   8.833 -0.4202  0.7661 -0.4678
  794MOL0     H 7154   6.031   9.881   8.555  1.2712  1.5031 -0.2249
  794MOL0     H 7155   5.942   9.984   8.454  1.2114 -0.0283 -0.5469
  794MOL0     H 7156   6.168  10.076   8.521  0.6433 -6.5585  1.5109
  794MOL0     H 7157   6.037  10.194   8.560 -0.1795  0.7899  2.1656
  794MOL0     H 7158   6.056  10.098   8.811 -0.0302 -2.7431 -0.6924
  794MOL0     H 7159   6.193  10.013   8.750  0.0712  0.1290 -2.0230
  794MOL0     H 7160   6.154  10.315   8.712  1.3874  0.2088 -2.7683
  794MOL0     H 7161   6.312  10.216   8.711 -0.3572 -2.4104  0.5062
  794MOL0     H 7162   6.295  10.164   8.950 -0.6763 -2.5419 -2.3136
  794MOL0     H 7163   6.143  10.238   8.959 -0.0709 -0.8515 -0.9407
  794MOL0     H 7164   6.215  10.456   8.866 -1.1815 -3.4154 -1.2073
  794MOL0     H 7165   6.276  10.427   9.026 -0.6479  2.7647 -0.8547
  794MOL0     H 7166   6.457  10.525   8.859  3.4236 -0.1034 -0.0320
  794MOL0     H 7167   6.449  10.378   8.777 -2.1302 -3.2914  0.7467
  794MOL0     H 7168   6.486  10.295   9.054  0.6758 -2.8262  0.1955
  794MOL0     H 7169   6.604  10.284   8.919  0.8921 -0.1967  3.7739
  794MOL0     H 7170   5.882   9.734   8.547 -0.9961 -0.4663  0.2112
  794MOL0     H 7171   5.726   9.558   8.619 -1.1670 -1.7919  0.4343
  794MOL0     H 7172   5.377   9.397   8.676  0.6927 -1.2766 -0.7579
  794MOL0     H 7173   5.171   9.257   8.692 -0.8641  0.2194  1.4458
  794MOL0     H 7174   5.385   8.142   9.661  0.6387 -1.3224 -0.9219
  794MOL0     H 7175   5.494   7.912   9.666  2.5943 -0.5940 -0.1970
  794MOL0     H 7176   5.683   7.619   9.710 -0.5112 -2.2543 -1.0739
  794MOL0     H 7177   5.734   7.407   9.670  2.0094 -0.5593  0.8517
  794MOL0     H 7178   5.707   7.147   9.660  1.3551  1.0436 -1.9150
  794MOL0     H 7179   5.754   7.033   9.784 -2.6713 -0.1058  0.7733
  794MOL0     H 7180   5.923   7.292   9.707  2.4110 -0.7357 -1.9381
  794MOL0     H 7181   5.920   7.148   9.614  0.7053 -0.2145 -0.5872
  794MOL0     H 7182   6.016   7.006   9.778 -1.3070 -0.4968  1.1224
  794MOL0     H 7183   6.006   7.146   9.899 -1.2255  0.6222 -0.5345
  794MOL0     H 7184   6.142   7.249   9.697 -0.5830  1.3759  2.1465
  794MOL0     H 7185   6.225   7.162   9.831  0.3255 -0.1649 -0.0525
  794MOL0     H 7186   6.307   6.919   9.503  1.2296 -1.1700  1.7031
  794MOL0     H 7187   5.677   7.307  10.072  0.7124 -1.5878 -2.5771
  794MOL0     H 7188   5.590   7.562  10.217 -0.1763  0.0056  0.3613
  794MOL0     H 7189   5.760   7.493  10.232 -1.5458 -0.4954  1.6178
  794MOL0     H 7190   5.735   7.665  10.202 -1.1117  0.3027  2.8098
  795MOL0     O 7191   7.047   8.704   3.569 -0.1472 -0.1816  0.5052
  795MOL0     C 7192   7.103   8.746   3.672  0.4235 -0.7043  0.0795
  795MOL0     O 7193   7.041   8.765   3.787  0.0593 -0.5133  0.0755
  795MOL0     C 7194   6.908   8.724   3.787 -0.0862 -0.5113  0.5417
  795MOL0     C 7195   6.876   8.589   3.780  0.3705  0.0620 -0.7636
  795MOL0     C 7196   6.749   8.534   3.776 -0.2131  0.1729  0.4756
  795MOL0     C 7197   6.641   8.627   3.783  0.4376 -0.7188  0.4392
  795MOL0     O 7198   6.506   8.601   3.778 -0.1793  0.0248  0.6785
  795MOL0     C 7199   6.476   8.492   3.691 -0.0323  0.7865 -0.1978
  795MOL0     C 7200   6.326   8.477   3.693  0.9985 -0.7471  0.1984
  795MOL0     C 7201   6.257   8.375   3.603  0.0526  1.2262  0.1247
  795MOL0     C 7202   6.312   8.239   3.639 -0.6789  0.6658 -0.0894
  795MOL0     C 7203   6.214   8.128   3.597 -0.7595 -1.1151  0.9676
  795MOL0     C 7204   6.258   7.990   3.649  0.3444 -0.3124 -0.4865
  795MOL0     C 7205   6.181   7.881   3.587  0.1514  0.4906  0.1443
  795MOL0     C 7206   6.255   7.753   3.591  0.4997  0.2528  0.3466
  795MOL0     N 7207   6.154   7.647   3.557 -0.2330 -0.7316  0.8382
  795MOL0     C 7208   6.167   7.521   3.503 -1.0932 -0.2478  0.5081
  795MOL0     C 7209   6.057   7.445   3.512  0.1313 -0.2660 -0.7666
  795MOL0     C 7210   6.026   7.315   3.451 -0.3008  0.6039  0.2541
  795MOL0     C 7211   6.120   7.201   3.488  0.3917 -0.2175  0.3603
  795MOL0     C 7212   6.079   7.059   3.440  0.0252  0.3930  0.8835
  795MOL0     C 7213   6.079   7.059   3.280  0.2727  0.4131  0.2369
  795MOL0     O 7214   6.197   7.105   3.213  0.1627 -0.6196  0.4438
  795MOL0     C 7215   6.172   7.169   3.096 -0.7894 -0.0691 -0.0072
  795MOL0     C 7216   6.111   7.102   2.980  0.2662  1.4143 -0.6821
  795MOL0     C 7217   6.086   7.161   2.858 -0.1659  0.1449 -0.4802
  795MOL0     C 7218   6.126   7.298   2.850  0.1035  0.1479  0.3120
  795MOL0     C 7219   6.113   7.368   2.727  0.7572  0.1256  1.2181
  795MOL0     O 7220   6.093   7.305   2.611  0.4229 -0.7024  0.5114
  795MOL0     C 7221   6.113   7.365   2.485 -0.4147  0.7756  0.3171
  795MOL0     C 7222   6.134   7.268   2.383  0.0348 -0.4121 -0.3860
  795MOL0     C 7223   6.161   7.292   2.246  0.4861  0.4438  0.4388
  795MOL0     C 7224   6.137   7.425   2.199 -1.2524 -0.3820 -0.1276
  795MOL0     O 7225   6.157   7.471   2.069  0.4473  0.0416 -0.6794
  795MOL0     C 7226   6.165   7.376   1.962 -0.8705 -0.8428  0.5801
  795MOL0     C 7227   6.226   7.444   1.836  0.6927 -0.2564  0.0078
  795MOL0     C 7228   6.134   7.560   1.783 -0.0014 -0.9140 -0.3480
  795MOL0     C 7229   6.192   7.625   1.662 -0.5135  0.0420  0.0257
  795MOL0     C 7230   6.080   7.705   1.602 -0.4151 -0.6195  0.7782
  795MOL0     C 7231   6.112   7.720   1.448 -0.6560 -0.0598 -0.2811
  795MOL0     C 7232   5.977   7.753   1.373 -0.5625  0.1866  0.4428
  795MOL0     C 7233   5.979   7.716   1.227 -0.9685  0.3319  0.9174
  795MOL0    Cl 7234   5.832   7.729   1.139  0.2347  0.4915  0.2088
  795MOL0     C 7235   6.131   7.522   2.301  0.7374 -0.7321 -0.8233
  795MOL0     C 7236   6.125   7.495   2.443 -0.3190 -0.0609 -0.9599
  795MOL0     O 7237   6.146   7.487   2.731 -0.1758  0.3333  0.3400
  795MOL0     C 7238   6.180   7.370   2.965  0.3680  0.2409  0.3556
  795MOL0     C 7239   6.201   7.304   3.086  0.0426 -0.1231  0.0513
  795MOL0     N 7240   5.970   7.520   3.582 -0.2651 -0.4324  0.0102
  795MOL0     N 7241   6.023   7.638   3.599 -0.8773  0.4845  0.5419
  795MOL0     C 7242   6.669   8.767   3.780  0.2316  0.6906  0.8341
  795MOL0     C 7243   6.803   8.811   3.786  0.7170  1.0604  0.0433
  795MOL0     C 7244   7.247   8.763   3.666 -0.0764 -0.3087 -0.5198
  795MOL0     C 7245   7.291   8.764   3.534  0.0569 -0.2636  0.7237
  795MOL0     C 7246   7.431   8.768   3.499  0.0120 -0.4723  0.8970
  795MOL0     C 7247   7.525   8.769   3.604  0.2096  0.7757  0.2051
  795MOL0     O 7248   7.664   8.777   3.579  0.2571 -0.0171 -0.2575
  795MOL0     C 7249   7.710   8.833   3.457 -1.1235 -0.3286  0.4326
  795MOL0     C 7250   7.863   8.856   3.451  0.4648 -0.8419  0.1381
  795MOL0     C 7251   7.904   8.926   3.318 -0.1958 -0.3661  0.9854
  795MOL0     C 7252   8.038   8.883   3.253 -0.0327  0.3506  0.3202
  795MOL0     C 7253   8.148   8.899   3.346 -0.9468  0.0751  0.1318
  795MOL0     C 7254   8.225   8.934   3.430  0.6650 -0.0443  0.1969
  795MOL0     C 7255   7.477   8.769   3.740  1.3546  0.3646  0.4488
  795MOL0     C 7256   7.338   8.770   3.773  0.1800  0.2469  0.0232
  795MOL0     C 7257   7.291   8.775   3.917  0.3593  0.0043 -0.2386
  795MOL0     H 7258   6.964   8.525   3.780  1.0432  0.9121 -2.3126
  795MOL0     H 7259   6.741   8.427   3.764 -0.9780 -0.2200  3.6358
  795MOL0     H 7260   6.524   8.506   3.594 -0.5407  0.7405 -0.4585
  795MOL0     H 7261   6.517   8.400   3.735  0.1375 -0.6924 -3.1910
  795MOL0     H 7262   6.286   8.578   3.678  1.8992 -0.6016 -1.3732
  795MOL0     H 7263   6.295   8.461   3.797 -2.2270  0.3840 -0.4423
  795MOL0     H 7264   6.289   8.399   3.501 -0.3091 -0.5874 -0.4379
  795MOL0     H 7265   6.149   8.382   3.620  0.0366 -1.9442  2.1293
  795MOL0     H 7266   6.412   8.233   3.595 -0.1674  2.8682  0.6205
  795MOL0     H 7267   6.331   8.228   3.746  2.1012  1.7568 -0.3701
  795MOL0     H 7268   6.118   8.150   3.644 -1.8416 -2.7251 -0.3666
  795MOL0     H 7269   6.202   8.131   3.488  0.7095  0.3910  0.8001
  795MOL0     H 7270   6.365   7.974   3.631 -0.1955 -0.6804 -3.9467
  795MOL0     H 7271   6.248   7.989   3.758 -0.1838  2.0774 -0.4555
  795MOL0     H 7272   6.178   7.907   3.481  4.1887 -0.2302 -0.3194
  795MOL0     H 7273   6.088   7.868   3.643  0.9330  0.8259  1.5745
  795MOL0     H 7274   6.325   7.754   3.507  1.7679  3.0742  1.3093
  795MOL0     H 7275   6.321   7.734   3.677  1.1644  0.0103 -0.2020
  795MOL0     H 7276   6.264   7.489   3.467  0.5928  0.0774  4.2937
  795MOL0     H 7277   5.923   7.294   3.483  0.3642 -1.3348  1.2869
  795MOL0     H 7278   6.028   7.329   3.343  3.5963 -4.2847 -0.6516
  795MOL0     H 7279   6.220   7.215   3.446 -1.0597  0.9075 -3.1402
  795MOL0     H 7280   6.132   7.205   3.596 -0.2375  0.8466  0.4033
  795MOL0     H 7281   5.977   7.031   3.467  0.8378 -1.9195  1.7372
  795MOL0     H 7282   6.162   6.993   3.463  0.9639  0.3457 -2.1799
  795MOL0     H 7283   5.991   7.112   3.243 -1.7078 -4.4378 -3.0069
  795MOL0     H 7284   6.052   6.966   3.228 -0.8106  2.2323 -2.6907
  795MOL0     H 7285   6.081   6.999   2.996  3.3008  0.8294  2.3807
  795MOL0     H 7286   6.069   7.098   2.771  1.5158  0.4138 -1.0531
  795MOL0     H 7287   6.133   7.169   2.428 -3.6251  0.1480  1.0723
  795MOL0     H 7288   6.189   7.213   2.177  1.5826  1.8716 -0.8315
  795MOL0     H 7289   6.242   7.302   1.981  0.7665  1.2238  2.4696
  795MOL0     H 7290   6.072   7.326   1.934 -0.0996 -1.6656 -0.5959
  795MOL0     H 7291   6.330   7.474   1.853  1.0356 -0.4454 -1.5665
  795MOL0     H 7292   6.223   7.380   1.748 -0.5364  1.4563 -1.2882
  795MOL0     H 7293   6.039   7.508   1.766 -0.7494 -0.2670  1.5704
  795MOL0     H 7294   6.135   7.637   1.860 -0.1870 -1.7171  0.4758
  795MOL0     H 7295   6.247   7.553   1.601 -1.5250 -3.1081  2.5543
  795MOL0     H 7296   6.264   7.697   1.701 -1.0915  0.0214  1.1725
  795MOL0     H 7297   6.080   7.811   1.632 -0.1515 -0.7602  1.2795
  795MOL0     H 7298   5.979   7.665   1.619 -0.4954 -1.4171 -1.2886
  795MOL0     H 7299   6.185   7.801   1.436 -0.3481  0.2240  2.7273
  795MOL0     H 7300   6.158   7.626   1.415 -0.3520  0.2062 -0.6137
  795MOL0     H 7301   5.959   7.861   1.376  1.1488  0.7795 -3.6102
  795MOL0     H 7302   5.891   7.697   1.411  0.4361 -3.7313 -2.4290
  795MOL0     H 7303   6.057   7.779   1.182  1.2637 -3.1379 -0.4896
  795MOL0     H 7304   6.023   7.621   1.194 -3.1377  0.5084 -2.9929
  795MOL0     H 7305   6.142   7.625   2.269 -1.6650 -0.0785  0.2569
  795MOL0     H 7306   6.131   7.580   2.510  2.3668  2.5675 -4.1642
  795MOL0     H 7307   6.206   7.475   2.958 -1.6223  1.0309  2.9840
  795MOL0     H 7308   6.241   7.362   3.169 -2.5625 -1.0694  2.0801
  795MOL0     H 7309   6.588   8.840   3.781 -0.8249 -0.4572  1.1017
  795MOL0     H 7310   6.830   8.916   3.787 -1.1998  1.6223  1.6611
  795MOL0     H 7311   7.224   8.756   3.450  0.3867 -0.2933  0.4593
  795MOL0     H 7312   7.457   8.770   3.394  1.3084  2.2743  1.1717
  795MOL0     H 7313   7.653   8.920   3.425 -1.6120 -1.8736 -3.5571
  795MOL0     H 7314   7.678   8.762   3.380  0.1215 -1.6952  1.1163
  795MOL0     H 7315   7.920   8.765   3.470  0.2840 -0.9286  0.2591
  795MOL0     H 7316   7.897   8.924   3.530 -0.2284  3.3924 -2.8827
  795MOL0     H 7317   7.920   9.032   3.343  1.4654 -1.0419  3.1192
  795MOL0     H 7318   7.830   8.911   3.240  1.1193 -1.9923 -0.0130
  795MOL0     H 7319   8.029   8.781   3.215  0.7889  0.0312  0.9561
  795MOL0     H 7320   8.059   8.957   3.175  0.3042 -0.3854 -0.3034
  795MOL0     H 7321   8.282   8.945   3.520 -1.1109 -1.1668  1.5177
  795MOL0     H 7322   7.547   8.787   3.821 -1.8204  1.7911  3.1627
  795MOL0     H 7323   7.237   8.685   3.947  2.1210 -2.0261 -2.6721
  795MOL0     H 7324   7.382   8.770   3.978  0.0000  0.1595  0.3182
  795MOL0     H 7325   7.227   8.860   3.942  2.2847  0.5925  3.3053
  796MOL0     O 7326   3.817   2.759   2.684  0.6236 -0.3772 -0.4946
  796MOL0     C 7327   3.903   2.831   2.638 -0.2340 -0.0993 -0.6168
  796MOL0     O 7328   3.911   2.956   2.663 -0.4342  0.0643  0.1085
  796MOL0     C 7329   3.818   3.040   2.727  0.6377  0.6324 -0.6814
  796MOL0     C 7330   3.713   3.002   2.809 -0.6196  0.5122 -0.6096
  796MOL0     C 7331   3.622   3.090   2.855 -0.7154  0.6354 -0.2922
  796MOL0     C 7332   3.634   3.223   2.831 -0.7030 -0.6929  0.5158
  796MOL0     O 7333   3.550   3.312   2.880  0.1726 -0.5095  0.2221
  796MOL0     C 7334   3.591   3.440   2.903  0.5680  0.7825  0.5922
  796MOL0     C 7335   3.471   3.518   2.952 -0.6822  0.2223  0.2932
  796MOL0     C 7336   3.419   3.456   3.082 -0.3380 -0.4337  0.2901
  796MOL0     C 7337   3.348   3.568   3.164 -1.1858  0.3018 -0.3812
  796MOL0     C 7338   3.237   3.523   3.257  0.4202  1.5749 -0.4887
  796MOL0     C 7339   3.145   3.632   3.306  1.2334 -0.1584 -0.1620
  796MOL0     C 7340   3.208   3.708   3.419  0.7124 -0.4409 -0.5746
  796MOL0     C 7341   3.127   3.847   3.453  0.9267  0.3116 -0.8238
  796MOL0     N 7342   3.218   3.934   3.538 -0.2585  0.2357  0.1811
  796MOL0     C 7343   3.298   4.032   3.496  0.7958  1.2208  0.3526
  796MOL0     C 7344   3.350   4.071   3.608  1.1463 -0.6125  0.2371
  796MOL0     C 7345   3.458   4.169   3.626 -0.8689 -0.3158 -0.7309
  796MOL0     C 7346   3.586   4.132   3.540  0.2967  0.1567 -0.8206
  796MOL0     C 7347   3.640   3.988   3.548  0.0137  0.4264  0.0348
  796MOL0     C 7348   3.784   3.994   3.503 -0.3831 -0.5024 -0.9883
  796MOL0     O 7349   3.871   4.074   3.595 -0.7428  0.3906  0.8051
  796MOL0     C 7350   3.998   4.092   3.561  0.2052 -0.6032  0.8496
  796MOL0     C 7351   4.069   4.175   3.646  0.1695 -0.8609 -0.5745
  796MOL0     C 7352   4.193   4.218   3.618 -0.0753  0.6185  1.6203
  796MOL0     C 7353   4.256   4.187   3.492 -0.3389 -0.0404  0.3133
  796MOL0     C 7354   4.390   4.234   3.465  0.5799  0.5647 -0.6003
  796MOL0     O 7355   4.434   4.199   3.341  0.0233 -0.5713 -0.2948
  796MOL0     C 7356   4.550   4.259   3.289 -0.1440 -0.1480  0.2037
  796MOL0     C 7357   4.533   4.345   3.180  0.7305  0.4375 -0.0379
  796MOL0     C 7358   4.637   4.420   3.132 -0.2478 -0.1620  0.5526
  796MOL0     C 7359   4.762   4.404   3.181 -0.8262 -0.4911 -0.2612
  796MOL0     O 7360   4.863   4.491   3.130  0.4752  0.1424 -0.1248
  796MOL0     C 7361   5.001   4.471   3.179  0.2958  1.1126 -0.2704
  796MOL0     C 7362   5.097   4.567   3.098 -0.5668  0.7285  0.2473
  796MOL0     C 7363   5.105   4.531   2.943 -0.3707 -1.1708  0.5414
  796MOL0     C 7364   4.990   4.585   2.862  0.4571 -0.6293  0.5288
  796MOL0     C 7365   5.031   4.593   2.711 -0.0287  0.2792 -0.0890
  796MOL0     C 7366   4.924   4.666   2.613 -0.0154  0.0225  0.2632
  796MOL0     C 7367   4.963   4.812   2.580 -0.7442 -0.6088 -0.6744
  796MOL0     C 7368   4.933   4.919   2.690 -0.2847  0.1048  0.0960
  796MOL0    Cl 7369   5.063   4.945   2.805  0.0207  0.8331 -0.2797
  796MOL0     C 7370   4.782   4.322   3.290 -0.2013  0.1324  0.6239
  796MOL0     C 7371   4.679   4.252   3.346 -0.0882 -0.9908  0.4883
  796MOL0     O 7372   4.458   4.300   3.542 -0.3756 -0.3417 -0.8353
  796MOL0     C 7373   4.193   4.107   3.403  1.5111  0.2739  1.0211
  796MOL0     C 7374   4.056   4.062   3.434  0.3563  0.8086  0.9620
  796MOL0     N 7375   3.305   3.990   3.709  0.4717 -0.3274 -0.3093
  796MOL0     N 7376   3.239   3.900   3.666 -0.1255 -0.1876 -0.0793
  796MOL0     C 7377   3.739   3.271   2.744 -1.1350  0.6106 -0.0687
  796MOL0     C 7378   3.834   3.177   2.698  0.2658  0.3408 -0.5874
  796MOL0     C 7379   4.009   2.753   2.573 -0.1070  0.3902  1.1803
  796MOL0     C 7380   3.974   2.625   2.520  0.1961  1.0339 -0.3344
  796MOL0     C 7381   4.063   2.523   2.477 -1.8089 -0.7976  0.5859
  796MOL0     C 7382   4.195   2.562   2.470 -0.0274  0.2309  0.6832
  796MOL0     O 7383   4.280   2.472   2.410 -0.7235  0.9155  0.0267
  796MOL0     C 7384   4.425   2.490   2.404  0.0802  0.4506 -0.3237
  796MOL0     C 7385   4.467   2.358   2.342  0.4214  0.3014 -0.5051
  796MOL0     C 7386   4.610   2.370   2.309 -0.4230 -0.3975  0.8964
  796MOL0     C 7387   4.660   2.253   2.226  0.6775  0.7091 -0.5290
  796MOL0     C 7388   4.653   2.118   2.287 -0.1126 -0.0594 -0.4344
  796MOL0     C 7389   4.666   2.017   2.338 -0.6003 -0.5737 -0.3626
  796MOL0     C 7390   4.236   2.687   2.517  0.3777  1.1431  0.3137
  796MOL0     C 7391   4.145   2.786   2.560 -0.2456  0.0648 -0.8425
  796MOL0     C 7392   4.195   2.931   2.600  0.0888 -0.5391 -0.0315
  796MOL0     H 7393   3.703   2.901   2.848  1.0278 -0.5106 -2.6165
  796MOL0     H 7394   3.545   3.055   2.924 -1.7260 -0.3013 -1.8175
  796MOL0     H 7395   3.665   3.441   2.983 -2.8323  1.7925  4.0251
  796MOL0     H 7396   3.635   3.495   2.819 -0.9333 -0.5111 -1.1123
  796MOL0     H 7397   3.385   3.523   2.884 -1.3375  1.4232  1.1754
  796MOL0     H 7398   3.512   3.618   2.968  0.4095 -0.2519  0.5823
  796MOL0     H 7399   3.504   3.418   3.139 -1.0360  0.4896  2.0016
  796MOL0     H 7400   3.346   3.376   3.069 -0.7824 -0.2768  1.7320
  796MOL0     H 7401   3.431   3.627   3.204 -3.0909  1.2373  2.5196
  796MOL0     H 7402   3.298   3.632   3.090 -1.8486 -2.1750 -2.2005
  796MOL0     H 7403   3.175   3.449   3.205  2.6093 -1.2069  0.5530
  796MOL0     H 7404   3.275   3.468   3.344  0.2277 -0.3662 -1.5611
  796MOL0     H 7405   3.136   3.698   3.220 -0.9201  2.1149  1.6682
  796MOL0     H 7406   3.051   3.591   3.343 -0.6483  2.6112 -1.5867
  796MOL0     H 7407   3.311   3.735   3.395  1.5090  0.0484  2.8604
  796MOL0     H 7408   3.222   3.650   3.511  3.3948 -0.3186 -0.8200
  796MOL0     H 7409   3.101   3.904   3.363 -1.0682 -2.5159 -2.1801
  796MOL0     H 7410   3.029   3.838   3.500  1.4073  1.0840  0.3836
  796MOL0     H 7411   3.322   4.085   3.404  1.9202 -0.9196 -0.6682
  796MOL0     H 7412   3.417   4.270   3.614  3.4927  1.4815 -2.7310
  796MOL0     H 7413   3.504   4.171   3.725  0.1186 -0.2946 -1.1824
  796MOL0     H 7414   3.567   4.152   3.435 -1.4087 -2.7417 -1.1722
  796MOL0     H 7415   3.661   4.195   3.589 -1.3744 -1.5457  4.7268
  796MOL0     H 7416   3.577   3.919   3.492 -2.3035  0.2875  2.5538
  796MOL0     H 7417   3.645   3.956   3.653 -0.1844 -1.2278 -0.4446
  796MOL0     H 7418   3.787   4.038   3.403 -1.7172  3.4023  0.5277
  796MOL0     H 7419   3.837   3.898   3.498  2.6193  0.8509  1.4618
  796MOL0     H 7420   4.019   4.194   3.741  2.8832 -2.7715  1.4056
  796MOL0     H 7421   4.252   4.278   3.686  0.8298  0.4363  1.0132
  796MOL0     H 7422   4.430   4.359   3.149 -0.0211  0.7799  2.3609
  796MOL0     H 7423   4.613   4.489   3.052 -2.2396  0.5489  1.6671
  796MOL0     H 7424   5.017   4.507   3.281 -0.4607 -2.8655  1.4377
  796MOL0     H 7425   5.032   4.367   3.166  0.9513  1.2705  0.0106
  796MOL0     H 7426   5.085   4.673   3.117 -0.0267  0.8009  0.2121
  796MOL0     H 7427   5.201   4.553   3.128 -0.6374  1.3304  0.7919
  796MOL0     H 7428   5.204   4.562   2.909  0.0757 -0.9550  1.9540
  796MOL0     H 7429   5.099   4.422   2.932 -1.2362 -1.5962  4.0027
  796MOL0     H 7430   4.948   4.678   2.902  1.1071 -1.5873  3.7407
  796MOL0     H 7431   4.904   4.520   2.878 -0.1213  0.2563  1.1251
  796MOL0     H 7432   5.039   4.486   2.688  0.0343  0.5781 -1.5288
  796MOL0     H 7433   5.125   4.649   2.704  1.5767 -2.2712 -0.3489
  796MOL0     H 7434   4.923   4.616   2.516 -0.0822 -1.6770  1.1019
  796MOL0     H 7435   4.826   4.665   2.662  0.3111  1.6801  1.0041
  796MOL0     H 7436   4.899   4.842   2.496 -0.2580 -0.6873 -1.0774
  796MOL0     H 7437   5.062   4.823   2.536 -0.5171  4.4528  0.4511
  796MOL0     H 7438   4.913   5.011   2.633  2.9262 -0.8910 -2.9615
  796MOL0     H 7439   4.844   4.887   2.744  0.3398 -1.1307  0.4260
  796MOL0     H 7440   4.875   4.323   3.345  0.1891 -0.9899  0.0094
  796MOL0     H 7441   4.712   4.186   3.426 -0.8254 -0.2701  1.4096
  796MOL0     H 7442   4.240   4.082   3.309 -1.7003  0.3667 -0.7436
  796MOL0     H 7443   4.004   4.015   3.351  1.3151  2.4239 -0.6091
  796MOL0     H 7444   3.750   3.376   2.720  1.0348  0.9211  1.9215
  796MOL0     H 7445   3.914   3.210   2.633  1.7616 -1.5225  0.2228
  796MOL0     H 7446   3.870   2.594   2.526  0.4629  0.4199  1.4921
  796MOL0     H 7447   4.023   2.430   2.438 -2.0799 -0.1778 -0.6487
  796MOL0     H 7448   4.474   2.507   2.500 -2.0986 -0.7263  1.0623
  796MOL0     H 7449   4.442   2.575   2.337 -2.7703  0.0116 -1.7545
  796MOL0     H 7450   4.404   2.335   2.255 -3.4468 -2.4604  2.6480
  796MOL0     H 7451   4.452   2.273   2.409 -1.2818  0.3695 -0.7634
  796MOL0     H 7452   4.670   2.383   2.400 -0.0018  3.2935  0.2483
  796MOL0     H 7453   4.623   2.458   2.246  1.9056  0.4827  2.4587
  796MOL0     H 7454   4.604   2.270   2.133 -0.6351  2.6575  0.5327
  796MOL0     H 7455   4.768   2.269   2.216  0.8691  0.5320  1.0409
  796MOL0     H 7456   4.675   1.919   2.380 -1.9030 -0.4278  0.2973
  796MOL0     H 7457   4.339   2.717   2.504  0.7813 -0.8679 -1.7918
  796MOL0     H 7458   4.285   2.975   2.556 -0.4345  0.7592  0.1231
  796MOL0     H 7459   4.111   2.990   2.561 -0.0439 -0.8023 -0.1396
  796MOL0     H 7460   4.201   2.940   2.709  1.7902 -1.2279 -0.0509
  797MOL0     O 7461   4.533  10.905   8.733 -0.1730 -0.4651  0.3901
  797MOL0     C 7462   4.465  10.976   8.805  0.1364 -0.0150 -0.2974
  797MOL0     O 7463   4.335  10.954   8.843 -0.3970  0.1470  0.1316
  797MOL0     C 7464   4.270  10.829   8.821 -0.3966  0.0027 -0.2778
  797MOL0     C 7465   4.188  10.819   8.708  0.1373 -0.5554  0.3637
  797MOL0     C 7466   4.108  10.703   8.689  0.0649 -0.6703 -0.0292
  797MOL0     C 7467   4.106  10.595   8.779 -0.3306 -0.9296 -0.5618
  797MOL0     O 7468   4.025  10.491   8.748 -0.1388  0.3721 -0.2083
  797MOL0     C 7469   4.029  10.366   8.812 -0.5279 -0.1000  0.0862
  797MOL0     C 7470   3.879  10.314   8.792  1.1407  0.4086  0.4919
  797MOL0     C 7471   3.849  10.174   8.836 -1.3327  0.5516  0.2555
  797MOL0     C 7472   3.696  10.140   8.816  0.0950 -0.6363  0.7665
  797MOL0     C 7473   3.678  10.006   8.865 -0.2346  0.7566  0.4131
  797MOL0     C 7474   3.540   9.953   8.862 -0.7429  0.9848 -0.3727
  797MOL0     C 7475   3.530   9.815   8.926  1.0458 -0.9431  0.1332
  797MOL0     C 7476   3.370   9.783   8.950 -0.8795 -0.8081  0.0662
  797MOL0     N 7477   3.311   9.867   9.052  0.5731 -0.2003  0.3045
  797MOL0     C 7478   3.345   9.864   9.187 -1.4737 -0.5792 -0.1676
  797MOL0     C 7479   3.278   9.960   9.248 -0.1264 -0.1540 -0.5500
  797MOL0     C 7480   3.304   9.999   9.391 -0.0027 -0.0390  0.4555
  797MOL0     C 7481   3.418  10.094   9.420  0.1369  0.5171  0.1006
  797MOL0     C 7482   3.413  10.146   9.569 -0.3381  0.0654 -0.2267
  797MOL0     C 7483   3.455  10.030   9.659 -0.7092  0.1736  0.0155
  797MOL0     O 7484   3.600  10.016   9.649 -0.3605  0.4857  0.0990
  797MOL0     C 7485   3.674  10.010   9.765  0.6336  0.6033 -0.4686
  797MOL0     C 7486   3.760  10.116   9.775 -0.7410  0.3437 -0.7896
  797MOL0     C 7487   3.846  10.125   9.882 -0.4905 -0.2268 -0.6394
  797MOL0     C 7488   3.831  10.042   9.997 -0.0250  0.2800  0.3430
  797MOL0     C 7489   3.926  10.046  10.116 -0.5020 -0.7778 -0.4199
  797MOL0     O 7490   3.930   9.941  10.206  0.4997  0.2886 -0.3833
  797MOL0     C 7491   4.020   9.943  10.307 -0.6991 -0.4719  0.2263
  797MOL0     C 7492   4.117   9.846  10.320  0.2003  0.4329  1.4605
  797MOL0     C 7493   4.194   9.833  10.438  1.6265 -0.1616  0.1166
  797MOL0     C 7494   4.188   9.934  10.531  0.2163 -0.0886  0.0967
  797MOL0     O 7495   4.272   9.922  10.636 -0.1614 -0.0786 -0.1385
  797MOL0     C 7496   4.360  10.029  10.661 -0.2312  0.5789 -0.2853
  797MOL0     C 7497   4.504   9.980  10.708  0.1958 -0.3038 -0.0959
  797MOL0     C 7498   4.568  10.093  10.794 -0.5745 -0.2237 -0.1673
  797MOL0     C 7499   4.715  10.060  10.837  0.4534  0.3465  0.1483
  797MOL0     C 7500   4.787  10.181  10.886 -0.3095  0.0475  0.4811
  797MOL0     C 7501   4.785  10.187  11.039  0.2176 -0.0042  0.9336
  797MOL0     C 7502   4.813  10.329  11.093 -0.2107 -0.2727 -0.6737
  797MOL0     C 7503   4.826  10.336  11.250 -0.7554  0.6006  0.8496
  797MOL0    Cl 7504   4.947  10.214  11.295  0.2388 -0.3176  0.2703
  797MOL0     C 7505   4.085  10.033  10.522  0.0024  1.2133  0.2610
  797MOL0     C 7506   4.005  10.033  10.411 -0.8826 -0.1813 -0.1612
  797MOL0     O 7507   4.018  10.134  10.125 -0.4994  0.6861 -0.6204
  797MOL0     C 7508   3.731   9.933   9.988  0.1715 -0.8676 -0.4804
  797MOL0     C 7509   3.653   9.912   9.874  0.8998  0.8937  1.4629
  797MOL0     N 7510   3.180  10.006   9.159  0.2568  0.0959 -0.0579
  797MOL0     N 7511   3.202   9.952   9.042  0.1408  0.3259 -0.2276
  797MOL0     C 7512   4.197  10.600   8.886 -0.3999 -0.4308  0.1666
  797MOL0     C 7513   4.276  10.721   8.901 -0.4467  0.2960 -0.9301
  797MOL0     C 7514   4.525  11.099   8.852 -0.3288 -0.1052  1.4472
  797MOL0     C 7515   4.436  11.212   8.855  0.3527 -0.3142 -0.1330
  797MOL0     C 7516   4.483  11.342   8.887  0.1429 -0.9410 -0.8643
  797MOL0     C 7517   4.621  11.364   8.911  0.2128 -0.1232  0.1560
  797MOL0     O 7518   4.661  11.492   8.948 -0.3891  0.5973  0.0588
  797MOL0     C 7519   4.784  11.503   9.021  1.0308 -0.1772 -0.5278
  797MOL0     C 7520   4.750  11.467   9.167  0.1215  0.0348 -0.5444
  797MOL0     C 7521   4.873  11.459   9.252 -0.2096  0.3892  1.1476
  797MOL0     C 7522   4.834  11.513   9.389  1.1016 -0.0414  0.3675
  797MOL0     C 7523   4.947  11.522   9.487  0.5486  0.2715 -0.6447
  797MOL0     C 7524   5.014  11.518   9.584 -0.3927  0.4217 -0.7540
  797MOL0     C 7525   4.708  11.250   8.899  0.2422 -0.2906 -0.0061
  797MOL0     C 7526   4.666  11.117   8.877  0.3628 -0.7204  1.0121
  797MOL0     C 7527   4.760  11.002   8.880  0.8960 -0.5335  0.2989
  797MOL0     H 7528   4.191  10.899   8.635  0.6613 -0.5387  0.3972
  797MOL0     H 7529   4.034  10.693   8.610  0.1367  0.6694 -0.2787
  797MOL0     H 7530   4.098  10.298   8.762 -3.0938 -1.4987 -1.7769
  797MOL0     H 7531   4.047  10.365   8.920 -1.3166  4.2346  0.4442
  797MOL0     H 7532   3.855  10.320   8.685  1.8158 -1.6214  0.1934
  797MOL0     H 7533   3.815  10.368   8.863 -0.2554 -0.1492 -0.3002
  797MOL0     H 7534   3.878  10.153   8.939 -0.3013  2.9926  0.5207
  797MOL0     H 7535   3.902  10.102   8.773 -3.3171 -0.8843  0.1281
  797MOL0     H 7536   3.641  10.220   8.867  0.1644 -0.0033 -0.1193
  797MOL0     H 7537   3.659  10.159   8.714 -0.7328  1.6206  1.4133
  797MOL0     H 7538   3.743   9.942   8.805 -1.1380  0.0966  0.1240
  797MOL0     H 7539   3.714  10.002   8.969 -1.6319  4.8465  1.2814
  797MOL0     H 7540   3.481  10.025   8.920 -1.2575 -0.7051  1.2929
  797MOL0     H 7541   3.497   9.954   8.761  1.6994 -0.0624 -1.5265
  797MOL0     H 7542   3.576   9.820   9.026 -0.4760  4.4342  0.9162
  797MOL0     H 7543   3.572   9.742   8.856 -2.1760 -0.6284 -2.3478
  797MOL0     H 7544   3.324   9.820   8.858 -2.4423  0.6099  1.3517
  797MOL0     H 7545   3.366   9.679   8.981  1.9846 -0.5601  1.6567
  797MOL0     H 7546   3.407   9.792   9.240 -2.6109 -0.1485  1.8692
  797MOL0     H 7547   3.211  10.047   9.424  1.2859  2.7325  0.3442
  797MOL0     H 7548   3.321   9.910   9.452  0.0113 -0.0492  0.4364
  797MOL0     H 7549   3.512  10.046   9.394 -0.9750  0.4190 -4.5330
  797MOL0     H 7550   3.405  10.175   9.348  0.0148  1.4250  1.1109
  797MOL0     H 7551   3.313  10.188   9.587  0.1332  0.2847  2.2343
  797MOL0     H 7552   3.485  10.226   9.588 -1.1215  0.6360  0.4255
  797MOL0     H 7553   3.407   9.934   9.635  0.4554 -0.1487 -1.1786
  797MOL0     H 7554   3.432  10.049   9.764  1.7086  3.0899  0.1393
  797MOL0     H 7555   3.773  10.184   9.691 -3.2378  0.3600 -1.2354
  797MOL0     H 7556   3.933  10.190   9.876  0.2434 -1.1871 -0.6559
  797MOL0     H 7557   4.120   9.770  10.243 -3.4673  0.8459  0.7324
  797MOL0     H 7558   4.265   9.752  10.450  1.2891 -0.4635  0.0587
  797MOL0     H 7559   4.372  10.112  10.592 -3.1955  2.2618  1.0654
  797MOL0     H 7560   4.314  10.078  10.747  0.4221  1.6235 -0.5153
  797MOL0     H 7561   4.507   9.895  10.777 -0.3150 -2.8601 -3.0142
  797MOL0     H 7562   4.565   9.963  10.619  0.1307  2.6484 -0.8052
  797MOL0     H 7563   4.577  10.189  10.742  1.8222  1.4365  2.9354
  797MOL0     H 7564   4.505  10.110  10.882 -1.7767 -0.9901 -0.8507
  797MOL0     H 7565   4.756  10.019  10.744  1.4032 -0.5185  0.9333
  797MOL0     H 7566   4.718   9.988  10.919  0.1917  0.2993  0.1175
  797MOL0     H 7567   4.741  10.267  10.836  0.1464 -0.7187 -1.3482
  797MOL0     H 7568   4.887  10.169  10.843  0.2471  0.1215  1.7269
  797MOL0     H 7569   4.685  10.153  11.065 -0.7659 -0.4689 -2.8207
  797MOL0     H 7570   4.862  10.120  11.076  2.4067  0.2577 -2.6310
  797MOL0     H 7571   4.734  10.394  11.054 -0.5596 -0.8418 -0.9199
  797MOL0     H 7572   4.906  10.372  11.053 -1.3034  0.8195 -2.1301
  797MOL0     H 7573   4.855  10.433  11.290 -0.3596  0.9390 -0.2496
  797MOL0     H 7574   4.724  10.327  11.289 -0.7155  0.5630  0.9471
  797MOL0     H 7575   4.091  10.101  10.606  4.5334 -0.0646  1.2552
  797MOL0     H 7576   3.925  10.105  10.404 -1.2041 -0.1667  2.6357
  797MOL0     H 7577   3.731   9.861  10.070 -2.6750 -0.3575  0.0786
  797MOL0     H 7578   3.585   9.832   9.848  0.7156  1.0657  1.4087
  797MOL0     H 7579   4.210  10.521   8.959  0.7592  0.7817  1.3201
  797MOL0     H 7580   4.353  10.715   8.977 -1.4350  1.4451  0.2156
  797MOL0     H 7581   4.329  11.206   8.833  0.2188  1.6794 -0.2099
  797MOL0     H 7582   4.423  11.432   8.896 -0.2309 -1.2187 -0.5297
  797MOL0     H 7583   4.808  11.609   9.034 -1.9922  0.2755  3.6635
  797MOL0     H 7584   4.869  11.449   8.979  0.7501 -0.8152 -0.2824
  797MOL0     H 7585   4.704  11.368   9.177  2.5096 -1.0665  0.2407
  797MOL0     H 7586   4.682  11.544   9.205  0.0032  0.1059 -0.8908
  797MOL0     H 7587   4.943  11.522   9.197 -1.7983 -0.5445 -2.1756
  797MOL0     H 7588   4.921  11.361   9.258  0.2975  0.5757  0.2284
  797MOL0     H 7589   4.804  11.616   9.370  0.5407 -0.0308  1.2537
  797MOL0     H 7590   4.751  11.456   9.432  0.9049  0.0955  0.1743
  797MOL0     H 7591   5.070  11.531   9.674 -1.1552  3.1314 -0.5681
  797MOL0     H 7592   4.814  11.264   8.921  0.4778 -0.2522 -1.1266
  797MOL0     H 7593   4.807  10.989   8.783 -0.1621 -2.7236  0.0181
  797MOL0     H 7594   4.837  11.033   8.952  0.3274  3.4631 -0.5481
  797MOL0     H 7595   4.715  10.904   8.897  0.0270 -0.3639 -0.9449
  798MOL0     O 7596   5.474  10.423   0.871  0.3273 -1.0458  0.5164
  798MOL0     C 7597   5.575  10.493   0.895 -0.3385  0.2970  0.1004
  798MOL0     O 7598   5.672  10.458   0.997 -0.4304 -0.4224  0.6538
  798MOL0     C 7599   5.644  10.366   1.089 -0.7827  1.0859  0.1102
  798MOL0     C 7600   5.544  10.380   1.183 -0.1757  0.0970 -0.4663
  798MOL0     C 7601   5.532  10.289   1.288 -0.0049 -1.5359  0.2432
  798MOL0     C 7602   5.616  10.173   1.293 -0.1369  0.3319  0.7291
  798MOL0     O 7603   5.617  10.068   1.372  0.3635  0.4379 -0.5743
  798MOL0     C 7604   5.577  10.103   1.503  0.2194  0.6132  0.3642
  798MOL0     C 7605   5.617   9.990   1.594  0.9265 -1.0777  0.2780
  798MOL0     C 7606   5.513   9.873   1.592 -0.2378 -0.1106  0.4195
  798MOL0     C 7607   5.568   9.764   1.685  0.0604 -1.0165  0.0254
  798MOL0     C 7608   5.526   9.632   1.621  0.5653 -0.5367 -0.2297
  798MOL0     C 7609   5.617   9.526   1.691 -0.2548  0.2928 -0.0044
  798MOL0     C 7610   5.597   9.381   1.653 -0.0180  0.0911 -0.4166
  798MOL0     C 7611   5.460   9.341   1.710 -0.0313 -0.6941  0.0385
  798MOL0     N 7612   5.419   9.203   1.675  0.0133  0.4286  0.3646
  798MOL0     C 7613   5.334   9.165   1.570  0.1468 -0.5052  0.0573
  798MOL0     C 7614   5.290   9.046   1.623 -0.2491 -0.5218 -0.2753
  798MOL0     C 7615   5.179   8.965   1.557 -0.2553 -0.8108 -0.0397
  798MOL0     C 7616   5.048   9.029   1.587 -0.1128 -0.5246 -0.1826
  798MOL0     C 7617   4.924   8.983   1.526  0.2217  0.3138 -0.3196
  798MOL0     C 7618   4.784   9.046   1.558 -1.0084  0.2994 -0.8326
  798MOL0     O 7619   4.684   8.942   1.533  0.2649 -0.3682 -0.0617
  798MOL0     C 7620   4.584   8.919   1.621  0.0430 -0.1522  0.6081
  798MOL0     C 7621   4.557   8.980   1.747 -0.4996 -0.0022 -0.4331
  798MOL0     C 7622   4.448   8.932   1.816  0.1751  0.1850  0.2133
  798MOL0     C 7623   4.354   8.842   1.764 -0.4805  0.5148  0.2821
  798MOL0     C 7624   4.240   8.787   1.843  0.5416  0.6116  0.1806
  798MOL0     O 7625   4.148   8.702   1.782 -0.2356 -1.0202 -0.0894
  798MOL0     C 7626   4.050   8.647   1.857 -0.4835 -0.2275 -0.3730
  798MOL0     C 7627   4.072   8.579   1.975  0.1717 -0.1353  0.0700
  798MOL0     C 7628   3.966   8.515   2.036 -0.1952  0.0464  0.5854
  798MOL0     C 7629   3.838   8.510   1.979 -0.1788 -1.1858 -0.4647
  798MOL0     O 7630   3.742   8.442   2.042  0.3065  0.3176  0.6410
  798MOL0     C 7631   3.629   8.375   1.975 -0.2269  0.6999 -0.1305
  798MOL0     C 7632   3.542   8.307   2.071 -0.6021  0.3414 -1.6001
  798MOL0     C 7633   3.448   8.387   2.154 -0.0563 -0.1868 -0.8290
  798MOL0     C 7634   3.348   8.481   2.083 -0.0864 -0.2173 -0.0427
  798MOL0     C 7635   3.236   8.523   2.178 -0.5866  0.2743  0.8451
  798MOL0     C 7636   3.131   8.612   2.115  0.0975 -0.2423  0.1473
  798MOL0     C 7637   3.173   8.753   2.131  0.5949  1.0762  0.4294
  798MOL0     C 7638   3.193   8.811   2.267  1.0369  0.2535 -0.2521
  798MOL0    Cl 7639   3.030   8.852   2.334  0.5755  0.3204  0.1427
  798MOL0     C 7640   3.816   8.583   1.860  0.4497  0.2384  0.0170
  798MOL0     C 7641   3.926   8.655   1.802  0.2272 -0.1232 -0.4499
  798MOL0     O 7642   4.226   8.837   1.951  0.6724  0.0297 -0.3377
  798MOL0     C 7643   4.382   8.795   1.633  0.4512 -0.2002 -0.1384
  798MOL0     C 7644   4.499   8.821   1.573 -0.1242  0.5098  0.3023
  798MOL0     N 7645   5.348   9.013   1.742  0.0978  0.7549  0.6336
  798MOL0     N 7646   5.430   9.106   1.776  0.1771 -0.5834 -0.0689
  798MOL0     C 7647   5.725  10.169   1.195  0.3398  0.5940  0.6001
  798MOL0     C 7648   5.738  10.268   1.101  0.0350 -0.9715 -1.0200
  798MOL0     C 7649   5.614  10.608   0.815 -0.1869  0.5549 -0.9207
  798MOL0     C 7650   5.749  10.642   0.813 -0.0138  0.2797  0.4585
  798MOL0     C 7651   5.789  10.756   0.745 -0.1826 -0.3803  0.2342
  798MOL0     C 7652   5.696  10.835   0.674 -0.0926 -0.2322  0.6531
  798MOL0     O 7653   5.748  10.948   0.617  0.0559  0.7550 -0.3444
  798MOL0     C 7654   5.653  11.028   0.534 -0.6300 -0.2842  0.3711
  798MOL0     C 7655   5.735  11.097   0.421 -0.7712 -0.3278  0.6532
  798MOL0     C 7656   5.830  11.199   0.461 -0.4580 -0.8269 -0.3851
  798MOL0     C 7657   5.777  11.345   0.470  0.3317  0.4801  0.1680
  798MOL0     C 7658   5.728  11.397   0.341 -0.6980  0.3608  0.0952
  798MOL0     C 7659   5.691  11.444   0.239  0.1799  1.1696  0.3974
  798MOL0     C 7660   5.561  10.797   0.671 -0.7262  0.8374  0.0275
  798MOL0     C 7661   5.523  10.687   0.740 -0.1178 -0.3610  0.5213
  798MOL0     C 7662   5.373  10.671   0.747  0.1970  0.6692  0.2913
  798MOL0     H 7663   5.469  10.455   1.161 -2.8427 -1.9217  1.2330
  798MOL0     H 7664   5.452  10.303   1.359 -1.2024 -0.3043 -1.2627
  798MOL0     H 7665   5.632  10.191   1.536 -1.2816  1.5973  0.3539
  798MOL0     H 7666   5.469  10.118   1.515 -0.5299 -1.6354 -2.3829
  798MOL0     H 7667   5.635  10.030   1.694  3.1329 -0.8389 -0.1567
  798MOL0     H 7668   5.714   9.953   1.559  0.7225 -1.9843  0.6456
  798MOL0     H 7669   5.505   9.839   1.488 -3.5587 -0.6149  0.7291
  798MOL0     H 7670   5.412   9.894   1.629 -0.1302 -2.6207  2.3847
  798MOL0     H 7671   5.678   9.762   1.683  0.0711 -0.4348 -0.8055
  798MOL0     H 7672   5.544   9.773   1.791  0.4444 -3.1429  0.3408
  798MOL0     H 7673   5.419   9.628   1.642  0.4169  0.2080 -0.7819
  798MOL0     H 7674   5.536   9.625   1.512  3.0359  1.1253 -0.1810
  798MOL0     H 7675   5.719   9.561   1.675  0.0089  0.5965  2.0738
  798MOL0     H 7676   5.600   9.534   1.799  0.0724 -0.6060  0.1240
  798MOL0     H 7677   5.665   9.316   1.709 -1.1807  0.1507  1.1180
  798MOL0     H 7678   5.620   9.350   1.551 -0.5260 -2.0261  0.0644
  798MOL0     H 7679   5.479   9.347   1.817  4.9899  1.1425 -0.6810
  798MOL0     H 7680   5.381   9.407   1.676  0.4855 -0.2839 -0.3749
  798MOL0     H 7681   5.310   9.211   1.475  0.4603 -0.8152 -0.1760
  798MOL0     H 7682   5.195   8.951   1.449 -1.8004  1.6449 -0.6820
  798MOL0     H 7683   5.180   8.862   1.593  1.3147 -0.6382  0.4831
  798MOL0     H 7684   5.023   9.015   1.693 -1.2735 -3.2079 -0.7522
  798MOL0     H 7685   5.058   9.136   1.566 -0.0176 -0.4310  0.3152
  798MOL0     H 7686   4.916   8.876   1.547  1.3847 -0.1155 -1.8807
  798MOL0     H 7687   4.951   8.990   1.420 -2.8959 -1.1248 -1.3336
  798MOL0     H 7688   4.763   9.139   1.504  0.1682  0.6192 -0.7596
  798MOL0     H 7689   4.784   9.072   1.664 -0.4001 -2.6683 -0.0091
  798MOL0     H 7690   4.606   9.068   1.787 -2.1753  1.3301 -1.1544
  798MOL0     H 7691   4.427   8.988   1.907 -3.1829  0.4557 -0.5770
  798MOL0     H 7692   4.170   8.584   2.022  0.5883 -2.4261 -0.4688
  798MOL0     H 7693   3.984   8.462   2.129 -2.2513 -1.6056  0.1039
  798MOL0     H 7694   3.567   8.447   1.920 -0.1831  0.6652 -0.2255
  798MOL0     H 7695   3.663   8.297   1.906 -0.7591  1.0119 -0.7643
  798MOL0     H 7696   3.478   8.241   2.013 -1.3868 -1.2859  0.9364
  798MOL0     H 7697   3.603   8.239   2.131 -2.2489 -0.4096 -0.6934
  798MOL0     H 7698   3.383   8.314   2.204 -1.5928  2.0757  0.6638
  798MOL0     H 7699   3.502   8.436   2.235 -1.8742 -0.3798  0.5609
  798MOL0     H 7700   3.293   8.430   2.004  0.4806  2.1866 -2.1306
  798MOL0     H 7701   3.397   8.570   2.042 -1.4971  2.2083  3.0672
  798MOL0     H 7702   3.276   8.573   2.267  0.1044 -0.7652  1.1366
  798MOL0     H 7703   3.192   8.436   2.227  2.2369 -1.0818  1.2199
  798MOL0     H 7704   3.129   8.601   2.007  1.0776 -0.4329  0.1394
  798MOL0     H 7705   3.034   8.597   2.165  0.2734  2.2694  1.3881
  798MOL0     H 7706   3.097   8.814   2.080 -1.0927 -1.5403 -0.3795
  798MOL0     H 7707   3.257   8.772   2.064 -1.8456  3.3829 -2.3066
  798MOL0     H 7708   3.250   8.749   2.336  2.0134 -1.4285 -2.4658
  798MOL0     H 7709   3.246   8.902   2.238  1.2796 -0.6319 -2.8540
  798MOL0     H 7710   3.721   8.593   1.808  0.3776  0.0586  0.1146
  798MOL0     H 7711   3.920   8.712   1.710  0.3203 -0.1290 -0.4600
  798MOL0     H 7712   4.321   8.719   1.586 -2.8090  1.3015  1.3644
  798MOL0     H 7713   4.532   8.789   1.474  1.8837  1.8374  0.4872
  798MOL0     H 7714   5.794  10.089   1.218  1.5730  1.7586  1.0622
  798MOL0     H 7715   5.817  10.258   1.027  0.9704 -0.9372 -0.0533
  798MOL0     H 7716   5.829  10.592   0.866  0.3306 -0.6514 -0.8952
  798MOL0     H 7717   5.893  10.787   0.744 -0.3629  0.2969 -1.5871
  798MOL0     H 7718   5.593  11.095   0.595  0.7807  1.9068 -0.5284
  798MOL0     H 7719   5.584  10.969   0.472 -2.3120  2.4646 -0.5803
  798MOL0     H 7720   5.681  11.144   0.338 -0.9834  2.1033  2.0634
  798MOL0     H 7721   5.783  11.012   0.373  0.0206 -1.9161  4.0153
  798MOL0     H 7722   5.915  11.195   0.392  0.6719 -2.8525  1.0239
  798MOL0     H 7723   5.877  11.163   0.553 -2.0337 -2.3941 -0.1359
  798MOL0     H 7724   5.693  11.357   0.540  0.3095 -0.3361  0.2881
  798MOL0     H 7725   5.853  11.408   0.517 -1.6619  1.2168  2.6372
  798MOL0     H 7726   5.668  11.464   0.137 -1.9101 -1.2755  0.3029
  798MOL0     H 7727   5.488  10.843   0.605 -1.9342 -2.2073 -0.9024
  798MOL0     H 7728   5.342  10.685   0.851 -0.5443 -1.9623  0.4850
  798MOL0     H 7729   5.319  10.743   0.684 -2.6715  0.4723  2.3400
  798MOL0     H 7730   5.347  10.570   0.715 -1.1773  0.2195  2.5981
  799MOL0     O 7731   9.499   2.319   7.604  1.0239 -0.5656 -0.1821
  799MOL0     C 7732   9.472   2.225   7.678  0.3422  1.2409  0.7742
  799MOL0     O 7733   9.514   2.219   7.810  0.8811  0.6963  0.7385
  799MOL0     C 7734   9.640   2.259   7.844 -1.0081  0.0904 -0.2642
  799MOL0     C 7735   9.682   2.272   7.977  0.1765 -0.2599  0.5733
  799MOL0     C 7736   9.811   2.313   8.013  0.5936  0.7488 -0.5935
  799MOL0     C 7737   9.903   2.328   7.925 -0.3745 -0.3148  0.9433
  799MOL0     O 7738  10.026   2.367   7.972  0.4983 -0.2857 -0.3847
  799MOL0     C 7739  10.131   2.420   7.895  0.1934  0.1070 -0.8461
  799MOL0     C 7740  10.262   2.401   7.980  0.4198 -0.1010  1.1341
  799MOL0     C 7741  10.296   2.507   8.083 -0.4402  0.2742 -0.4046
  799MOL0     C 7742  10.293   2.652   8.035 -0.5441  0.5380 -0.0786
  799MOL0     C 7743  10.325   2.759   8.147  0.4535 -0.1362 -0.4177
  799MOL0     C 7744  10.215   2.736   8.262 -0.7358 -0.7345  0.3763
  799MOL0     C 7745  10.180   2.862   8.343 -0.4513  0.8725 -1.1652
  799MOL0     C 7746  10.295   2.913   8.436 -0.2976 -0.2769  0.0320
  799MOL0     N 7747  10.294   3.061   8.457 -0.0770  0.5429  0.3694
  799MOL0     C 7748  10.258   3.159   8.372 -1.2211 -0.0907  0.2264
  799MOL0     C 7749  10.299   3.269   8.435  0.3863 -0.9068  0.2209
  799MOL0     C 7750  10.278   3.415   8.387 -0.2609  0.0602  0.1778
  799MOL0     C 7751  10.168   3.482   8.480  0.8219 -0.2184  0.3680
  799MOL0     C 7752  10.115   3.618   8.425  0.4028 -0.2531  0.0981
  799MOL0     C 7753  10.215   3.734   8.419 -0.0224 -0.3464 -0.1616
  799MOL0     O 7754  10.261   3.790   8.541  0.6865 -0.3213 -0.0141
  799MOL0     C 7755  10.215   3.919   8.555  0.2090 -0.0331 -0.2448
  799MOL0     C 7756  10.075   3.954   8.539  0.2663  0.0903  0.3108
  799MOL0     C 7757  10.041   4.087   8.539  0.7616 -0.0269 -0.5068
  799MOL0     C 7758  10.135   4.184   8.569 -0.2209 -0.6523 -0.5099
  799MOL0     C 7759  10.091   4.325   8.574 -0.5999  0.4057 -0.8159
  799MOL0     O 7760   9.997   4.354   8.475 -0.6877 -0.7425 -0.4424
  799MOL0     C 7761   9.941   4.483   8.468  0.1536  0.1702  1.3778
  799MOL0     C 7762   9.895   4.531   8.342 -0.2780  0.1336  0.6961
  799MOL0     C 7763   9.820   4.649   8.340  0.0982  0.0723  0.7190
  799MOL0     C 7764   9.781   4.709   8.458  1.1244 -0.1335  0.2084
  799MOL0     O 7765   9.696   4.816   8.437  1.0697  0.2139  0.0565
  799MOL0     C 7766   9.623   4.871   8.541 -1.0267 -1.1460  0.4086
  799MOL0     C 7767   9.484   4.804   8.556 -1.2579  0.0333  0.0916
  799MOL0     C 7768   9.386   4.840   8.440  0.5537 -0.5856  1.1526
  799MOL0     C 7769   9.245   4.770   8.458 -0.7653 -0.7551  0.7583
  799MOL0     C 7770   9.164   4.765   8.329 -0.0283 -0.5154 -1.2292
  799MOL0     C 7771   9.023   4.701   8.363  0.3312 -0.8679 -0.0464
  799MOL0     C 7772   8.969   4.646   8.232 -0.2942  0.0156  0.0869
  799MOL0     C 7773   8.961   4.735   8.111 -0.5320  0.2602  0.0720
  799MOL0    Cl 7774   8.896   4.655   7.963  0.2428 -0.2047  0.6457
  799MOL0     C 7775   9.829   4.663   8.586 -0.5426 -0.4457  0.9187
  799MOL0     C 7776   9.917   4.555   8.585 -1.2238 -0.4553 -0.0712
  799MOL0     O 7777  10.147   4.402   8.652 -0.0702 -0.4045 -0.4729
  799MOL0     C 7778  10.270   4.146   8.599  0.5190  0.3242  0.0949
  799MOL0     C 7779  10.309   4.013   8.573 -1.0107 -0.8897 -0.1115
  799MOL0     N 7780  10.344   3.229   8.564 -0.0647  0.3569  0.6917
  799MOL0     N 7781  10.342   3.105   8.571  0.6725  0.1186 -1.0141
  799MOL0     C 7782   9.871   2.312   7.786  0.0136 -0.7323 -0.4617
  799MOL0     C 7783   9.741   2.279   7.748  0.7562 -0.6805  0.4944
  799MOL0     C 7784   9.393   2.107   7.631  0.1992  0.0775  0.0130
  799MOL0     C 7785   9.305   2.137   7.528  0.0457 -0.5688  0.6158
  799MOL0     C 7786   9.229   2.040   7.470 -0.2661  0.5128  0.7209
  799MOL0     C 7787   9.231   1.910   7.518 -0.7115  0.2643  0.1490
  799MOL0     O 7788   9.134   1.823   7.471  0.4381  0.7279  0.6017
  799MOL0     C 7789   9.119   1.696   7.535 -0.2333  0.3621 -0.2282
  799MOL0     C 7790   9.025   1.601   7.453  0.5161 -0.4320  0.4481
  799MOL0     C 7791   8.885   1.611   7.521 -1.5917  0.1106 -0.4305
  799MOL0     C 7792   8.787   1.521   7.451  0.3557 -0.2123  0.1224
  799MOL0     C 7793   8.666   1.524   7.523  0.5450  0.2316  0.5376
  799MOL0     C 7794   8.562   1.530   7.590  0.6523  0.5429 -0.1675
  799MOL0     C 7795   9.311   1.885   7.625  0.1297 -0.3819 -0.7743
  799MOL0     C 7796   9.397   1.975   7.681 -0.2752  0.0053  0.5143
  799MOL0     C 7797   9.482   1.915   7.797 -0.3365 -1.1874  0.0218
  799MOL0     H 7798   9.603   2.264   8.051  0.7910  0.4202  1.3128
  799MOL0     H 7799   9.836   2.325   8.118 -2.0204 -1.3269  0.3973
  799MOL0     H 7800  10.144   2.360   7.804  0.9405  0.7164 -1.1500
  799MOL0     H 7801  10.114   2.525   7.871  0.4119  0.0941 -1.0610
  799MOL0     H 7802  10.345   2.403   7.908 -1.6413  0.9972 -1.3890
  799MOL0     H 7803  10.255   2.307   8.034 -0.0343 -1.1911 -0.7125
  799MOL0     H 7804  10.397   2.480   8.115 -1.2831 -0.7938  1.5470
  799MOL0     H 7805  10.227   2.494   8.166 -0.3063 -0.6520 -0.4267
  799MOL0     H 7806  10.370   2.660   7.957 -0.0983 -1.7441  0.0592
  799MOL0     H 7807  10.192   2.658   7.993  0.0727 -1.7384 -2.1873
  799MOL0     H 7808  10.428   2.757   8.186 -0.6527 -3.4839  3.0079
  799MOL0     H 7809  10.317   2.859   8.105  0.8086  1.0809  2.1973
  799MOL0     H 7810  10.129   2.695   8.207 -0.6368  0.4445 -0.6917
  799MOL0     H 7811  10.253   2.659   8.329  1.0153  0.3380  0.6560
  799MOL0     H 7812  10.091   2.845   8.404  0.5172 -1.4322 -0.2676
  799MOL0     H 7813  10.157   2.936   8.265 -0.9391  1.0560 -0.8501
  799MOL0     H 7814  10.277   2.861   8.530 -3.9165  0.9923  0.2341
  799MOL0     H 7815  10.396   2.892   8.399 -0.3019  2.8723 -2.1749
  799MOL0     H 7816  10.219   3.167   8.271  3.1392  1.5746 -1.5596
  799MOL0     H 7817  10.366   3.480   8.393 -0.6674  0.5730  0.6865
  799MOL0     H 7818  10.239   3.415   8.285  0.2451 -0.5488 -0.0266
  799MOL0     H 7819  10.083   3.412   8.477 -0.9111  1.8155 -0.2630
  799MOL0     H 7820  10.210   3.482   8.581 -0.0030 -1.9198  0.7593
  799MOL0     H 7821  10.037   3.651   8.494  1.2498  2.4291 -0.1135
  799MOL0     H 7822  10.073   3.606   8.325 -0.4149 -1.4106  0.5567
  799MOL0     H 7823  10.168   3.810   8.356  0.5515 -1.1239 -1.5585
  799MOL0     H 7824  10.306   3.697   8.372  0.8365 -2.0216  2.5693
  799MOL0     H 7825   9.996   3.897   8.492  0.2820  2.2432 -2.6008
  799MOL0     H 7826   9.942   4.117   8.508  1.0744  1.9214  0.2735
  799MOL0     H 7827   9.910   4.465   8.257  0.1514  1.8482 -0.6079
  799MOL0     H 7828   9.781   4.702   8.254  1.2477  0.1204  0.2111
  799MOL0     H 7829   9.681   4.863   8.633  0.5192  0.0810 -0.4023
  799MOL0     H 7830   9.592   4.974   8.516 -0.0015 -1.3014 -1.7274
  799MOL0     H 7831   9.498   4.695   8.563 -0.3924 -0.1666 -3.2632
  799MOL0     H 7832   9.443   4.838   8.652 -1.7066  0.3344 -0.2047
  799MOL0     H 7833   9.365   4.947   8.437 -2.1206 -1.0684 -1.3716
  799MOL0     H 7834   9.424   4.817   8.340 -2.3814  1.6131 -0.6314
  799MOL0     H 7835   9.182   4.813   8.537 -1.9128 -0.5314 -0.2607
  799MOL0     H 7836   9.271   4.667   8.486  1.3621 -0.5804 -0.3493
  799MOL0     H 7837   9.224   4.706   8.260  0.0959 -2.9578  0.8395
  799MOL0     H 7838   9.159   4.867   8.290  0.9964 -0.2796 -0.7800
  799MOL0     H 7839   9.019   4.627   8.443  1.0002 -0.3766  0.4552
  799MOL0     H 7840   8.960   4.779   8.406  1.4358  0.4220 -0.6953
  799MOL0     H 7841   8.865   4.620   8.252 -0.7582  1.7804  0.1194
  799MOL0     H 7842   9.027   4.558   8.203 -0.7287 -0.4081  0.4878
  799MOL0     H 7843   8.897   4.820   8.135 -1.3874 -0.5657  0.8300
  799MOL0     H 7844   9.061   4.770   8.087  1.3072 -3.0614  2.0560
  799MOL0     H 7845   9.793   4.713   8.675 -0.0080 -1.1397  1.5398
  799MOL0     H 7846   9.957   4.525   8.682  3.0305 -0.0009 -1.4909
  799MOL0     H 7847  10.338   4.226   8.629 -0.8102  1.8032 -0.6673
  799MOL0     H 7848  10.411   3.978   8.590 -1.3022 -1.7053 -0.0389
  799MOL0     H 7849   9.951   2.324   7.714 -2.1130  2.5060 -2.5552
  799MOL0     H 7850   9.742   2.254   7.643 -0.2632  1.5224 -0.0960
  799MOL0     H 7851   9.305   2.237   7.485  3.0398  0.0608  1.8664
  799MOL0     H 7852   9.162   2.068   7.390  1.4363  0.6405 -0.7265
  799MOL0     H 7853   9.079   1.718   7.634 -0.7388  1.2690 -0.6272
  799MOL0     H 7854   9.216   1.644   7.540 -0.4390 -0.3594 -2.6050
  799MOL0     H 7855   9.064   1.503   7.483  0.1904 -0.4804  0.7259
  799MOL0     H 7856   9.008   1.617   7.346  0.5262 -2.2481  0.1413
  799MOL0     H 7857   8.859   1.716   7.539 -2.2300 -0.3496  1.6431
  799MOL0     H 7858   8.906   1.574   7.622  0.6866  0.2800 -0.7905
  799MOL0     H 7859   8.769   1.570   7.355 -0.2520  4.0430  2.1656
  799MOL0     H 7860   8.817   1.416   7.443  1.3054 -0.0857  1.5358
  799MOL0     H 7861   8.462   1.530   7.629  0.3242 -1.3940 -0.9300
  799MOL0     H 7862   9.308   1.788   7.674  1.5142 -0.1593 -0.1979
  799MOL0     H 7863   9.480   1.984   7.882 -1.3194  0.7745 -1.5168
  799MOL0     H 7864   9.446   1.817   7.831 -0.8503 -0.5914  1.2673
  799MOL0     H 7865   9.586   1.896   7.768 -0.8947 -0.8453 -2.4473
  800MOL0     O 7866   0.070   0.077   4.806 -0.8381 -0.2766 -0.4910
  800MOL0     C 7867   0.161  -0.008   4.778 -0.0687  0.1751  0.5304
  800MOL0     O 7868   0.205  -0.116   4.867  0.2274  0.3621  0.8402
  800MOL0     C 7869   0.164  -0.118   4.997  0.0839 -0.3769  0.4494
  800MOL0     C 7870   0.257  -0.159   5.094 -0.8944 -0.1027 -0.4439
  800MOL0     C 7871   0.227  -0.173   5.229  1.0556 -0.2770 -0.1032
  800MOL0     C 7872   0.089  -0.148   5.264 -0.5964  0.6681  0.4064
  800MOL0     O 7873   0.058  -0.170   5.394 -0.7230 -0.1413 -0.1456
  800MOL0     C 7874  -0.050  -0.255   5.420 -0.0149 -0.4796  0.2999
  800MOL0     C 7875  -0.020  -0.405   5.395  0.0596 -0.6498  0.5782
  800MOL0     C 7876  -0.137  -0.514   5.386  0.9343  0.7413 -0.3177
  800MOL0     C 7877  -0.234  -0.522   5.510  0.3767 -0.2427  0.1880
  800MOL0     C 7878  -0.262  -0.657   5.567  0.3535 -0.5348  0.7094
  800MOL0     C 7879  -0.148  -0.744   5.604 -0.4548  0.2335  0.4798
  800MOL0     C 7880  -0.074  -0.686   5.730 -0.0489  0.0800  0.2413
  800MOL0     C 7881   0.023  -0.798   5.781  0.7295  0.0456  0.1859
  800MOL0     N 7882   0.103  -0.743   5.894  0.1148  0.0392 -0.4921
  800MOL0     C 7883   0.189  -0.634   5.878  0.1063 -0.3658  0.3618
  800MOL0     C 7884   0.240  -0.613   6.005 -0.6373 -0.8975  0.4343
  800MOL0     C 7885   0.353  -0.514   6.055 -0.2098 -1.0743 -0.2456
  800MOL0     C 7886   0.420  -0.435   5.943 -0.9052  0.0104 -0.0953
  800MOL0     C 7887   0.511  -0.324   5.976 -0.2979 -0.4023 -1.2909
  800MOL0     C 7888   0.508  -0.217   5.870  0.2390 -0.7162  0.2548
  800MOL0     O 7889   0.548  -0.278   5.753  0.2797 -0.0126  0.0686
  800MOL0     C 7890   0.553  -0.209   5.639  0.5140  0.5532 -0.1979
  800MOL0     C 7891   0.508  -0.072   5.628 -0.2190 -0.6995 -0.0776
  800MOL0     C 7892   0.504  -0.017   5.501 -0.0120  0.6881 -0.3844
  800MOL0     C 7893   0.546  -0.090   5.388  0.3229 -0.6705  1.2084
  800MOL0     C 7894   0.561  -0.023   5.257  0.2556  0.4131  0.0823
  800MOL0     O 7895   0.526   0.111   5.256  0.4095 -0.0778 -0.3323
  800MOL0     C 7896   0.546   0.185   5.149 -1.2255 -0.6776 -1.0949
  800MOL0     C 7897   0.670   0.241   5.122  0.3292  0.4243 -0.3075
  800MOL0     C 7898   0.694   0.306   5.004  0.3683 -0.0100  0.2687
  800MOL0     C 7899   0.587   0.346   4.918 -0.0563  0.1886  0.1145
  800MOL0     O 7900   0.617   0.434   4.815  0.2929 -0.5152 -0.1968
  800MOL0     C 7901   0.535   0.417   4.695 -0.1150 -0.0487  0.0742
  800MOL0     C 7902   0.549   0.533   4.596 -0.2497  0.4545  0.1187
  800MOL0     C 7903   0.443   0.544   4.491 -0.2309 -0.1809  0.0711
  800MOL0     C 7904   0.386   0.417   4.438 -0.3912 -0.1216 -0.6546
  800MOL0     C 7905   0.265   0.441   4.341 -0.1656  0.9731 -0.0418
  800MOL0     C 7906   0.143   0.485   4.408  0.6620 -1.3076 -0.5245
  800MOL0     C 7907   0.020   0.523   4.320 -0.1913 -0.2672 -0.0074
  800MOL0     C 7908  -0.052   0.409   4.261  0.6247 -0.3830 -0.7185
  800MOL0    Cl 7909  -0.139   0.325   4.382  0.3030 -0.1452  0.3041
  800MOL0     C 7910   0.459   0.294   4.952 -0.1016 -0.2836 -0.1011
  800MOL0     C 7911   0.435   0.216   5.068 -1.1228 -0.3499 -0.6385
  800MOL0     O 7912   0.616  -0.085   5.164  1.0742 -1.0806  0.3176
  800MOL0     C 7913   0.578  -0.229   5.398  0.1536 -0.3720  0.6487
  800MOL0     C 7914   0.586  -0.285   5.521 -0.5165 -0.8283 -0.5387
  800MOL0     N 7915   0.183  -0.708   6.084  0.9477  0.4663 -0.6902
  800MOL0     N 7916   0.093  -0.780   6.020  0.1021  0.6880 -0.9019
  800MOL0     C 7917  -0.005  -0.108   5.166  0.5507  0.5154 -0.3073
  800MOL0     C 7918   0.029  -0.107   5.033 -0.6037 -0.4511  0.2317
  800MOL0     C 7919   0.212  -0.006   4.635 -0.5433  1.4036 -0.3908
  800MOL0     C 7920   0.128   0.020   4.529  0.0074 -1.0330  0.0726
  800MOL0     C 7921   0.173   0.029   4.399  0.3622  0.2127 -0.2221
  800MOL0     C 7922   0.311   0.020   4.363 -0.5573 -0.5684 -0.2267
  800MOL0     O 7923   0.345   0.020   4.226 -0.4177  0.1038  0.5099
  800MOL0     C 7924   0.466   0.078   4.196 -0.2711 -0.3236  0.4140
  800MOL0     C 7925   0.453   0.135   4.049 -0.8771  0.2637 -1.1258
  800MOL0     C 7926   0.370   0.262   4.054  0.0204 -0.0271 -0.2429
  800MOL0     C 7927   0.335   0.323   3.922 -0.1283 -0.2861  0.2089
  800MOL0     C 7928   0.281   0.461   3.930  1.0692 -0.8850 -1.3892
  800MOL0     C 7929   0.226   0.568   3.945  0.2339 -0.1005 -0.0868
  800MOL0     C 7930   0.395   0.003   4.478 -0.1374  0.5182  0.2037
  800MOL0     C 7931   0.351  -0.007   4.612 -0.3748 -0.6850  0.6788
  800MOL0     C 7932   0.446  -0.028   4.721  0.3937 -0.3098 -0.2283
  800MOL0     H 7933   0.352  -0.183   5.047 -0.7066  3.4057 -2.2214
  800MOL0     H 7934   0.299  -0.209   5.302  0.5217 -0.5063  0.3180
  800MOL0     H 7935  -0.074  -0.242   5.526  1.2998  1.8904  0.3999
  800MOL0     H 7936  -0.135  -0.215   5.365  0.7797  0.4848 -0.2577
  800MOL0     H 7937   0.050  -0.432   5.475  0.6569  0.2146  0.3707
  800MOL0     H 7938   0.044  -0.411   5.306  0.8462  0.8742  0.9965
  800MOL0     H 7939  -0.100  -0.615   5.366 -2.6317 -0.5457 -1.1615
  800MOL0     H 7940  -0.195  -0.479   5.301 -0.6694  0.6030  0.6692
  800MOL0     H 7941  -0.207  -0.455   5.592 -1.2370 -0.7145  1.1423
  800MOL0     H 7942  -0.333  -0.488   5.479  0.7719 -1.3317 -2.5598
  800MOL0     H 7943  -0.335  -0.644   5.648 -1.9721  2.9766 -1.6706
  800MOL0     H 7944  -0.310  -0.704   5.481  2.7471 -1.0367 -0.4345
  800MOL0     H 7945  -0.189  -0.844   5.624 -4.7405  2.0249  1.8328
  800MOL0     H 7946  -0.066  -0.759   5.533 -0.6260  0.9159  0.1337
  800MOL0     H 7947  -0.143  -0.651   5.808 -1.8422 -1.5847 -0.5216
  800MOL0     H 7948  -0.021  -0.600   5.688 -1.2905  1.4924  1.4353
  800MOL0     H 7949  -0.031  -0.885   5.820 -0.1420  0.6257  0.2998
  800MOL0     H 7950   0.093  -0.828   5.702 -2.9234 -2.5969 -2.3714
  800MOL0     H 7951   0.207  -0.585   5.783  2.0832  1.4471  1.5947
  800MOL0     H 7952   0.308  -0.446   6.127  3.4524  0.3198  0.9788
  800MOL0     H 7953   0.426  -0.559   6.123  0.2606 -1.0096 -0.6986
  800MOL0     H 7954   0.464  -0.512   5.878 -1.2567 -0.8040  0.6075
  800MOL0     H 7955   0.335  -0.388   5.893 -0.6292  0.2899 -0.3023
  800MOL0     H 7956   0.609  -0.364   6.005 -0.5612  0.9053  1.7233
  800MOL0     H 7957   0.484  -0.277   6.071  1.1218 -2.8458  0.4336
  800MOL0     H 7958   0.585  -0.141   5.888  0.1718 -0.8438  1.1444
  800MOL0     H 7959   0.411  -0.173   5.848  0.6222  0.2672  0.4682
  800MOL0     H 7960   0.475  -0.008   5.709  0.6939 -0.4066  0.0748
  800MOL0     H 7961   0.486   0.090   5.499 -1.4150  0.4947  0.6677
  800MOL0     H 7962   0.751   0.216   5.191 -1.1396 -0.2551  1.2467
  800MOL0     H 7963   0.788   0.353   4.980 -0.2939  0.4908 -1.4490
  800MOL0     H 7964   0.580   0.327   4.652  0.1209 -0.1656  0.5616
  800MOL0     H 7965   0.429   0.400   4.718 -0.5654  0.0238 -1.7936
  800MOL0     H 7966   0.546   0.626   4.655  2.7199  2.1139 -2.0795
  800MOL0     H 7967   0.642   0.515   4.541 -1.5623 -2.0532 -1.4391
  800MOL0     H 7968   0.357   0.602   4.525 -2.3753 -2.2383 -1.5747
  800MOL0     H 7969   0.483   0.596   4.403  1.8227 -0.5425  0.7373
  800MOL0     H 7970   0.350   0.351   4.517  0.5734 -0.6495 -0.6428
  800MOL0     H 7971   0.474   0.377   4.388 -0.6318 -0.3385 -0.9062
  800MOL0     H 7972   0.260   0.360   4.268  0.4171  0.9557 -0.0752
  800MOL0     H 7973   0.299   0.511   4.263  2.3017  0.1594  0.2111
  800MOL0     H 7974   0.117   0.413   4.486 -3.3723  1.7262  1.3003
  800MOL0     H 7975   0.159   0.567   4.478  1.3205 -2.4840  0.7454
  800MOL0     H 7976   0.047   0.587   4.235  0.0813 -0.1821  0.1405
  800MOL0     H 7977  -0.038   0.590   4.384  1.3272 -0.2488  1.4137
  800MOL0     H 7978  -0.119   0.439   4.180  2.0265  0.8847 -1.4558
  800MOL0     H 7979   0.023   0.343   4.216  0.0416 -2.8290  1.6079
  800MOL0     H 7980   0.366   0.319   4.901  0.2481 -2.1796 -1.7851
  800MOL0     H 7981   0.342   0.160   5.076 -0.6822 -1.5210 -2.9845
  800MOL0     H 7982   0.622  -0.277   5.311  0.8303  1.3832 -0.0300
  800MOL0     H 7983   0.613  -0.390   5.521 -3.8219 -1.8689  2.5490
  800MOL0     H 7984  -0.106  -0.088   5.199  0.9021  0.8613  0.6123
  800MOL0     H 7985  -0.050  -0.104   4.959 -0.8831 -0.0010  0.5390
  800MOL0     H 7986   0.024   0.047   4.548  0.3090 -0.8896  1.7076
  800MOL0     H 7987   0.095   0.051   4.327  0.1586  3.8095  0.8689
  800MOL0     H 7988   0.542  -0.001   4.189  0.2794  0.3446 -2.2451
  800MOL0     H 7989   0.496   0.162   4.258 -1.9910 -0.3588  1.3277
  800MOL0     H 7990   0.421   0.052   3.984  1.2766 -0.0976 -1.7934
  800MOL0     H 7991   0.553   0.173   4.027  0.0511 -0.0806  2.0754
  800MOL0     H 7992   0.413   0.336   4.122 -1.5455  0.6583  0.0281
  800MOL0     H 7993   0.272   0.236   4.093 -1.0527  1.3408 -1.8686
  800MOL0     H 7994   0.418   0.320   3.850 -2.3297 -1.6190 -2.4634
  800MOL0     H 7995   0.254   0.274   3.867  0.6013 -1.1722 -0.0854
  800MOL0     H 7996   0.164   0.652   3.967  0.1502 -0.9720  3.6481
  800MOL0     H 7997   0.502  -0.010   4.463 -0.4649 -2.3366 -0.2166
  800MOL0     H 7998   0.549  -0.021   4.685  1.3407  2.2942  2.6154
  800MOL0     H 7999   0.438   0.036   4.809  2.4249  1.9568 -1.5728
  800MOL0     H 8000   0.449  -0.133   4.752 -0.8923 -1.4543 -3.5315
  801MOL0     O 8001   3.899   5.732   0.949  0.0614  0.5947 -0.3370
  801MOL0     C 8002   3.975   5.817   1.010 -0.5968  0.8707  1.3658
  801MOL0     O 8003   3.974   5.844   1.145  0.0272  0.2809 -0.1139
  801MOL0     C 8004   3.867   5.811   1.224 -0.0886 -0.0966 -0.2649
  801MOL0     C 8005   3.891   5.808   1.365  0.0708 -0.1613 -0.0639
  801MOL0     C 8006   3.782   5.780   1.448 -0.0682  0.1870  0.1274
  801MOL0     C 8007   3.649   5.769   1.398 -0.9513 -0.1216 -0.5193
  801MOL0     O 8008   3.546   5.748   1.481 -1.3507 -0.0204  0.0232
  801MOL0     C 8009   3.563   5.625   1.554 -0.1183  0.6128  0.0561
  801MOL0     C 8010   3.420   5.574   1.606 -0.8755 -0.1824  0.6923
  801MOL0     C 8011   3.318   5.672   1.667 -1.2776 -0.4092  1.0524
  801MOL0     C 8012   3.381   5.778   1.751  0.3615  0.0211 -0.2401
  801MOL0     C 8013   3.280   5.851   1.836 -0.0590 -0.4612  0.7859
  801MOL0     C 8014   3.354   5.951   1.935 -0.4704  0.3586 -0.2314
  801MOL0     C 8015   3.253   6.063   1.976  0.9389  0.7116  0.3095
  801MOL0     C 8016   3.321   6.177   2.065 -0.7709  0.3329 -0.2806
  801MOL0     N 8017   3.318   6.150   2.206  0.7809 -0.7884  0.3114
  801MOL0     C 8018   3.196   6.167   2.277 -0.0018  0.3549 -0.2579
  801MOL0     C 8019   3.241   6.156   2.402 -0.7717  0.2927 -0.7701
  801MOL0     C 8020   3.143   6.171   2.517 -0.3178 -0.3200  0.0488
  801MOL0     C 8021   3.195   6.260   2.633  0.9949  0.8722 -0.3466
  801MOL0     C 8022   3.099   6.254   2.757 -0.2187  0.3206  0.1787
  801MOL0     C 8023   3.147   6.325   2.885 -0.0169 -0.8850  0.7778
  801MOL0     O 8024   3.183   6.462   2.853  0.6624 -0.3297  0.5427
  801MOL0     C 8025   3.265   6.521   2.939 -0.3200 -0.0606 -0.5047
  801MOL0     C 8026   3.285   6.485   3.076  0.1551  0.5008 -0.8411
  801MOL0     C 8027   3.386   6.543   3.148  1.0727  0.5580  0.1127
  801MOL0     C 8028   3.471   6.648   3.093 -0.2446 -0.4634 -0.8711
  801MOL0     C 8029   3.580   6.715   3.166 -0.1072 -0.4103 -0.7119
  801MOL0     O 8030   3.650   6.819   3.116 -0.1351 -0.3265  0.0960
  801MOL0     C 8031   3.739   6.879   3.204  0.2744  0.0550 -0.0671
  801MOL0     C 8032   3.732   7.016   3.234 -0.0182 -0.7971  0.0721
  801MOL0     C 8033   3.828   7.089   3.308  0.3007  0.1252  0.4473
  801MOL0     C 8034   3.944   7.016   3.341  0.7453  0.3484 -0.0190
  801MOL0     O 8035   4.049   7.065   3.418 -0.0859 -0.0585  0.4832
  801MOL0     C 8036   4.045   7.203   3.449 -0.2620 -0.3972  0.6512
  801MOL0     C 8037   4.173   7.272   3.491 -0.5765 -0.3524  0.3919
  801MOL0     C 8038   4.291   7.225   3.407 -0.1928  1.4119 -0.8463
  801MOL0     C 8039   4.429   7.300   3.449 -0.1964 -0.2689 -0.5201
  801MOL0     C 8040   4.538   7.316   3.346  0.1506 -0.4559  1.5969
  801MOL0     C 8041   4.647   7.415   3.382  0.2112 -0.1737 -0.5078
  801MOL0     C 8042   4.763   7.396   3.280 -0.4242  0.7957 -0.7312
  801MOL0     C 8043   4.860   7.514   3.297  0.5282 -1.7567 -0.7622
  801MOL0    Cl 8044   5.029   7.492   3.255 -0.0923 -0.0181  0.1521
  801MOL0     C 8045   3.964   6.883   3.294  0.1692  0.4182 -0.7910
  801MOL0     C 8046   3.859   6.818   3.236  0.2963  0.9224  0.1239
  801MOL0     O 8047   3.594   6.668   3.273 -0.1892 -0.4492 -0.1509
  801MOL0     C 8048   3.438   6.689   2.965 -0.2154  0.7295  0.0988
  801MOL0     C 8049   3.336   6.628   2.899 -1.0308 -0.1229  0.0433
  801MOL0     N 8050   3.374   6.147   2.407 -0.6622 -0.4603  0.4826
  801MOL0     N 8051   3.418   6.123   2.291 -0.5648  0.5611 -0.2681
  801MOL0     C 8052   3.621   5.801   1.269  0.3220 -0.2057 -0.1574
  801MOL0     C 8053   3.735   5.818   1.178 -0.6164 -0.5619 -0.1969
  801MOL0     C 8054   4.077   5.898   0.932 -0.1858  0.9375 -0.3525
  801MOL0     C 8055   4.121   6.016   0.985 -0.3114  0.0207  0.8314
  801MOL0     C 8056   4.219   6.091   0.917 -0.1264  0.4704  0.4758
  801MOL0     C 8057   4.279   6.043   0.792  1.1695 -0.4245 -1.0802
  801MOL0     O 8058   4.366   6.123   0.726 -0.0027 -0.5434 -0.1041
  801MOL0     C 8059   4.332   6.135   0.582 -0.1628  0.9390  0.0388
  801MOL0     C 8060   4.430   6.213   0.501 -0.7634 -0.1101  1.1291
  801MOL0     C 8061   4.575   6.165   0.534 -0.4564 -0.6498  0.3946
  801MOL0     C 8062   4.684   6.228   0.445  0.1373 -1.1502  0.3573
  801MOL0     C 8063   4.703   6.368   0.486  0.0013 -0.2873 -0.0214
  801MOL0     C 8064   4.723   6.480   0.532 -0.3784  1.6799 -0.5824
  801MOL0     C 8065   4.245   5.913   0.752 -0.3989  0.1832  0.4404
  801MOL0     C 8066   4.139   5.849   0.810 -0.6731  1.5114 -0.7620
  801MOL0     C 8067   4.086   5.727   0.740  0.2392  0.5829  0.4978
  801MOL0     H 8068   3.988   5.828   1.412  0.0841 -0.2884 -0.0355
  801MOL0     H 8069   3.795   5.750   1.552 -2.0897 -2.3534 -0.2597
  801MOL0     H 8070   3.617   5.552   1.493 -2.9710 -0.5758 -1.1861
  801MOL0     H 8071   3.637   5.638   1.634  2.3100 -0.5612 -1.8345
  801MOL0     H 8072   3.438   5.511   1.694  3.9800  2.9007  2.3153
  801MOL0     H 8073   3.382   5.529   1.514  0.8705  1.5870 -0.9967
  801MOL0     H 8074   3.252   5.607   1.726  0.0476 -2.9608 -0.1027
  801MOL0     H 8075   3.262   5.730   1.592 -1.5557  0.6776  2.0741
  801MOL0     H 8076   3.455   5.736   1.820  1.2451 -0.9249 -1.6924
  801MOL0     H 8077   3.434   5.850   1.687 -1.0661  0.2654 -1.1952
  801MOL0     H 8078   3.227   5.911   1.762 -0.9704 -2.6585 -0.4614
  801MOL0     H 8079   3.205   5.785   1.881 -2.2084  1.1318 -0.3123
  801MOL0     H 8080   3.391   5.903   2.026 -3.6920 -1.4792  0.2671
  801MOL0     H 8081   3.433   5.988   1.869  2.4961 -2.6275  1.3762
  801MOL0     H 8082   3.164   6.020   2.023  1.4895  0.5602  1.2472
  801MOL0     H 8083   3.232   6.111   1.880 -0.1144 -2.7825 -1.3792
  801MOL0     H 8084   3.422   6.171   2.023 -0.6031  0.2837  0.1281
  801MOL0     H 8085   3.276   6.275   2.045 -0.5042  0.0317 -2.6758
  801MOL0     H 8086   3.100   6.175   2.226 -0.2701  3.5692  0.5117
  801MOL0     H 8087   3.060   6.229   2.473  2.2023  1.6690 -2.5223
  801MOL0     H 8088   3.113   6.072   2.550  3.0568 -0.8784  1.8913
  801MOL0     H 8089   3.300   6.239   2.656  1.3059  1.7974 -0.8761
  801MOL0     H 8090   3.205   6.362   2.597  2.4228  0.1842 -2.0876
  801MOL0     H 8091   3.087   6.151   2.794  1.9910  1.0324  3.3042
  801MOL0     H 8092   3.000   6.292   2.729  0.8142  3.3439  0.3113
  801MOL0     H 8093   3.230   6.274   2.936  0.1412  0.8798  2.4155
  801MOL0     H 8094   3.064   6.333   2.957  0.1986  1.2275  0.8566
  801MOL0     H 8095   3.232   6.403   3.122  1.1064 -0.0703 -0.7448
  801MOL0     H 8096   3.405   6.512   3.251 -0.0713 -1.6276 -0.2701
  801MOL0     H 8097   3.652   7.079   3.198  2.4168  2.0644 -0.7894
  801MOL0     H 8098   3.812   7.190   3.342 -2.3008 -0.6610  1.8404
  801MOL0     H 8099   4.015   7.257   3.359  0.0204  0.4259  1.0410
  801MOL0     H 8100   3.968   7.216   3.526 -0.9998  2.9151 -0.4666
  801MOL0     H 8101   4.169   7.382   3.486  3.2083 -0.1282 -0.7616
  801MOL0     H 8102   4.178   7.241   3.596 -4.3631 -4.2424 -0.2975
  801MOL0     H 8103   4.306   7.118   3.423 -0.2272  1.7680  2.1700
  801MOL0     H 8104   4.277   7.231   3.298 -0.8640 -0.7278 -0.9166
  801MOL0     H 8105   4.473   7.259   3.541  1.8247 -0.6212 -1.5924
  801MOL0     H 8106   4.413   7.405   3.478  2.0331  0.1679 -0.6615
  801MOL0     H 8107   4.487   7.358   3.259 -4.8753 -4.5750  2.1090
  801MOL0     H 8108   4.582   7.216   3.337  0.8356 -0.4969  4.4898
  801MOL0     H 8109   4.593   7.510   3.370  1.7672  0.4381 -3.5035
  801MOL0     H 8110   4.684   7.397   3.484  0.7567 -0.4563 -0.7539
  801MOL0     H 8111   4.737   7.377   3.176  1.1420 -0.4536 -0.9336
  801MOL0     H 8112   4.820   7.308   3.311  1.1260 -0.1553 -5.5238
  801MOL0     H 8113   4.807   7.591   3.241  0.2607 -1.8781 -0.6796
  801MOL0     H 8114   4.851   7.534   3.405 -0.1334 -2.4295 -0.6816
  801MOL0     H 8115   4.062   6.840   3.310  0.1861  1.0031  0.9311
  801MOL0     H 8116   3.871   6.714   3.210  1.9551  1.3594 -0.9696
  801MOL0     H 8117   3.495   6.770   2.921  3.4904 -1.8391 -0.3000
  801MOL0     H 8118   3.315   6.662   2.798  0.8784 -1.3233 -0.8279
  801MOL0     H 8119   3.523   5.803   1.222  0.8914  3.0346 -1.4654
  801MOL0     H 8120   3.721   5.833   1.071 -2.0024 -1.3188 -0.1432
  801MOL0     H 8121   4.074   6.043   1.079 -0.4868 -0.1357  0.7912
  801MOL0     H 8122   4.255   6.182   0.963  3.0649  0.0173 -0.8348
  801MOL0     H 8123   4.232   6.176   0.573 -1.1367 -1.3752 -0.4349
  801MOL0     H 8124   4.324   6.033   0.541  0.1031  1.2469 -0.8166
  801MOL0     H 8125   4.435   6.322   0.517 -2.6090 -0.0703  1.6005
  801MOL0     H 8126   4.390   6.194   0.401 -2.2163  1.2029  1.4158
  801MOL0     H 8127   4.584   6.056   0.533 -0.9608 -0.6913 -0.7965
  801MOL0     H 8128   4.598   6.189   0.638  1.9398  1.7294 -0.5637
  801MOL0     H 8129   4.774   6.172   0.469 -0.4274 -1.5781  1.5462
  801MOL0     H 8130   4.660   6.216   0.338  3.0970  0.4314 -0.5918
  801MOL0     H 8131   4.740   6.573   0.582  0.4918  1.8482 -1.1618
  801MOL0     H 8132   4.280   5.877   0.656 -1.6173  0.3247 -0.0743
  801MOL0     H 8133   4.109   5.629   0.783 -0.1029  0.7723  1.1332
  801MOL0     H 8134   3.977   5.738   0.741  0.1243 -0.4901  0.3522
  801MOL0     H 8135   4.114   5.730   0.635  1.3777 -0.3542  0.7602
  802MOL0     O 8136   6.504  11.157   9.415 -0.2756  0.0398 -0.0753
  802MOL0     C 8137   6.434  11.235   9.345  0.1079 -0.2928  0.0991
  802MOL0     O 8138   6.368  11.345   9.404 -1.1559 -0.6242  0.0585
  802MOL0     C 8139   6.335  11.338   9.535 -0.2194  0.2203  1.0216
  802MOL0     C 8140   6.353  11.446   9.618 -0.7798 -0.3394 -0.1942
  802MOL0     C 8141   6.306  11.442   9.748 -0.5878 -0.0522 -0.3652
  802MOL0     C 8142   6.237  11.327   9.792 -0.2131 -0.2994  0.1828
  802MOL0     O 8143   6.180  11.332   9.922  1.1221 -0.4224  0.5121
  802MOL0     C 8144   6.160  11.221  10.008  0.8423 -0.0046  0.9493
  802MOL0     C 8145   6.199  11.259  10.145 -0.4208  0.8623  0.5232
  802MOL0     C 8146   6.192  11.131  10.235  0.0272 -0.0124 -0.0842
  802MOL0     C 8147   6.239  11.168  10.373  1.0330  0.1856 -0.7207
  802MOL0     C 8148   6.317  11.054  10.443  0.1104  0.1815  0.6157
  802MOL0     C 8149   6.239  10.928  10.457  0.2605 -0.1024  1.4982
  802MOL0     C 8150   6.121  10.939  10.554  0.1329 -0.4992 -0.1609
  802MOL0     C 8151   6.043  10.803  10.536  0.1568 -1.0087 -0.3587
  802MOL0     N 8152   6.111  10.688  10.590  0.3081  1.0853 -0.5532
  802MOL0     C 8153   6.124  10.643  10.720 -0.3131  1.0017 -0.4401
  802MOL0     C 8154   6.197  10.526  10.709  0.3859  0.1708  0.5912
  802MOL0     C 8155   6.224  10.442  10.822  0.3716 -0.5149 -0.0930
  802MOL0     C 8156   6.166  10.302  10.807  0.1063  0.4750 -0.2618
  802MOL0     C 8157   6.213  10.212  10.917  0.3787 -0.0375 -0.0771
  802MOL0     C 8158   6.169  10.265  11.061 -0.0657  0.6523  0.9687
  802MOL0     O 8159   6.226  10.200  11.178  0.3013 -0.1073  1.0324
  802MOL0     C 8160   6.241  10.060  11.178 -0.9880 -1.0072  0.2335
  802MOL0     C 8161   6.141   9.965  11.168  0.3539 -0.5789  0.2377
  802MOL0     C 8162   6.157   9.831  11.150  0.4878  0.4412 -0.2095
  802MOL0     C 8163   6.276   9.771  11.155 -0.0028 -0.2000 -0.1319
  802MOL0     C 8164   6.297   9.625  11.153  0.3152 -0.3453  0.2812
  802MOL0     O 8165   6.397   9.566  11.091  0.2757  0.7860  0.1388
  802MOL0     C 8166   6.468   9.634  10.996 -1.1862  0.6136 -0.4808
  802MOL0     C 8167   6.606   9.633  11.005 -0.2121  1.1215 -0.9475
  802MOL0     C 8168   6.686   9.710  10.911 -0.6278 -1.1348  0.1451
  802MOL0     C 8169   6.620   9.779  10.804  0.5978  0.0659 -1.4526
  802MOL0     O 8170   6.682   9.843  10.705 -0.3078  0.7930  0.1889
  802MOL0     C 8171   6.828   9.853  10.719 -0.0349  0.7606  0.2604
  802MOL0     C 8172   6.868   9.949  10.605  0.6490 -0.0575 -0.6937
  802MOL0     C 8173   7.020   9.945  10.583  1.5008  0.5123  0.8670
  802MOL0     C 8174   7.074  10.042  10.473  0.5553  0.9523 -0.1047
  802MOL0     C 8175   6.998  10.023  10.336 -0.1171 -0.3023  0.1601
  802MOL0     C 8176   7.086  10.053  10.220 -0.1681 -0.0239 -0.4272
  802MOL0     C 8177   7.026  10.024  10.078  0.0526 -0.2659  0.2841
  802MOL0     C 8178   7.121   9.947   9.972  0.3733 -0.0837 -0.3025
  802MOL0    Cl 8179   7.262  10.055   9.962 -0.2907  0.7029  0.2273
  802MOL0     C 8180   6.483   9.748  10.785 -0.2523 -0.6024  1.0189
  802MOL0     C 8181   6.410   9.680  10.880 -0.0366 -0.6414 -0.0473
  802MOL0     O 8182   6.206   9.559  11.217  0.4072  0.0919 -0.4103
  802MOL0     C 8183   6.388   9.861  11.170  0.5338  0.1909  1.4528
  802MOL0     C 8184   6.371  10.005  11.175  0.4843  0.4582  0.3604
  802MOL0     N 8185   6.223  10.496  10.575  0.9860  0.6807  0.1902
  802MOL0     N 8186   6.162  10.588  10.500  0.4562  0.1281 -0.8411
  802MOL0     C 8187   6.223  11.216   9.706 -0.3437  1.0755 -0.6702
  802MOL0     C 8188   6.270  11.222   9.577 -0.1550 -0.1522 -0.6588
  802MOL0     C 8189   6.449  11.241   9.200 -0.5662  0.2314  0.1369
  802MOL0     C 8190   6.419  11.369   9.141 -0.5769  0.7813 -0.5741
  802MOL0     C 8191   6.416  11.379   9.004 -0.5964  0.5606 -0.1593
  802MOL0     C 8192   6.430  11.266   8.921 -0.0918 -0.1241  0.1659
  802MOL0     O 8193   6.421  11.277   8.784  0.2240 -0.2234 -0.0031
  802MOL0     C 8194   6.390  11.399   8.715 -0.0419 -0.3832 -0.8981
  802MOL0     C 8195   6.306  11.377   8.589  0.5518  0.4237 -1.0628
  802MOL0     C 8196   6.376  11.277   8.501 -0.8279  0.3635 -0.4241
  802MOL0     C 8197   6.310  11.224   8.370 -0.2414 -1.1334  0.5752
  802MOL0     C 8198   6.166  11.202   8.385 -0.0282  0.8896 -0.4540
  802MOL0     C 8199   6.044  11.176   8.394  0.1875  0.1909 -0.3121
  802MOL0     C 8200   6.479  11.150   8.974 -0.7098  1.1971 -0.9804
  802MOL0     C 8201   6.484  11.135   9.112 -0.6346 -0.1517 -0.0798
  802MOL0     C 8202   6.543  11.007   9.165  0.5072 -0.1351 -0.5539
  802MOL0     H 8203   6.401  11.528   9.566 -0.8870 -0.6998 -0.8665
  802MOL0     H 8204   6.319  11.530   9.809  1.7437 -0.6645  0.1459
  802MOL0     H 8205   6.056  11.188   9.995  0.6702  0.8602 -0.1139
  802MOL0     H 8206   6.230  11.142   9.979 -1.3139 -1.6776 -0.0204
  802MOL0     H 8207   6.130  11.337  10.181  1.2326  4.2865 -2.9886
  802MOL0     H 8208   6.298  11.305  10.147  0.4670 -0.9802  2.0057
  802MOL0     H 8209   6.259  11.053  10.197  0.6848  1.2194 -1.5436
  802MOL0     H 8210   6.089  11.096  10.244  0.3603 -0.9845  0.0278
  802MOL0     H 8211   6.308  11.252  10.361  0.8867  0.6461  1.3186
  802MOL0     H 8212   6.153  11.205  10.429 -0.8129 -0.3401 -3.0177
  802MOL0     H 8213   6.416  11.043  10.397  0.2390  3.4560 -0.1917
  802MOL0     H 8214   6.340  11.093  10.543 -2.8870  1.4875  0.9088
  802MOL0     H 8215   6.206  10.890  10.360  2.2641  0.2946  0.6010
  802MOL0     H 8216   6.314  10.857  10.495 -0.1797 -0.7624  1.1392
  802MOL0     H 8217   6.060  11.025  10.526 -0.4425 -0.5670  0.8849
  802MOL0     H 8218   6.132  10.950  10.662  0.6595 -2.9243  0.0936
  802MOL0     H 8219   5.948  10.819  10.588  0.4121 -2.5064  0.6348
  802MOL0     H 8220   6.015  10.792  10.431  1.8828  1.9551 -1.2490
  802MOL0     H 8221   6.083  10.696  10.805 -1.0653  1.9138 -1.3364
  802MOL0     H 8222   6.332  10.432  10.831  0.2787 -0.6116  1.0799
  802MOL0     H 8223   6.175  10.497  10.902 -0.9534  0.0719 -1.2645
  802MOL0     H 8224   6.059  10.289  10.794  0.3015  0.0178 -1.5700
  802MOL0     H 8225   6.217  10.270  10.716  0.1113 -1.7531  0.4641
  802MOL0     H 8226   6.320  10.194  10.909  0.3977  0.9512 -3.4842
  802MOL0     H 8227   6.166  10.114  10.904  1.0840 -0.3230 -0.4827
  802MOL0     H 8228   6.062  10.245  11.073 -0.4952  2.5736  0.7314
  802MOL0     H 8229   6.191  10.372  11.068  1.6258  0.2637  2.2997
  802MOL0     H 8230   6.038   9.999  11.168  0.8540  1.0745 -1.4099
  802MOL0     H 8231   6.063   9.779  11.134  0.6599 -0.6090  1.9237
  802MOL0     H 8232   6.652   9.593  11.094 -2.8788 -0.5596 -0.1977
  802MOL0     H 8233   6.793   9.712  10.926 -0.6604  0.3146  0.3019
  802MOL0     H 8234   6.857   9.901  10.813  1.4177  0.1928  0.1145
  802MOL0     H 8235   6.878   9.758  10.699  0.6370  1.1002  0.3256
  802MOL0     H 8236   6.814   9.914  10.516 -2.2886 -1.6482  1.5137
  802MOL0     H 8237   6.839  10.049  10.640 -0.6803 -0.5403 -0.3665
  802MOL0     H 8238   7.076   9.969  10.673  0.1008 -0.6929  2.1098
  802MOL0     H 8239   7.042   9.841  10.557  1.9777  1.4134 -2.9406
  802MOL0     H 8240   7.182  10.028  10.465  0.1391 -3.2609 -0.5898
  802MOL0     H 8241   7.068  10.148  10.499  0.4948  2.0836 -4.1296
  802MOL0     H 8242   6.909  10.087  10.325  0.9153  1.2844  0.7186
  802MOL0     H 8243   6.966   9.919  10.326  2.0381 -0.8315 -2.3402
  802MOL0     H 8244   7.104  10.161  10.213 -2.5554  0.3755 -1.4985
  802MOL0     H 8245   7.179   9.999  10.239  1.9828  3.9814  1.7031
  802MOL0     H 8246   6.999  10.122  10.038  1.3145  0.3813  0.9653
  802MOL0     H 8247   6.931   9.971  10.090  0.3178 -0.9425 -0.5073
  802MOL0     H 8248   7.145   9.843   9.997  3.6017  0.1624 -1.8670
  802MOL0     H 8249   7.056   9.950   9.883  0.3162  3.9683 -0.3223
  802MOL0     H 8250   6.431   9.792  10.700  0.0796 -1.6375  0.2554
  802MOL0     H 8251   6.305   9.681  10.850  0.5421  1.4361 -2.3656
  802MOL0     H 8252   6.487   9.818  11.171 -0.5517 -2.6495 -0.2247
  802MOL0     H 8253   6.447  10.082  11.182 -2.1321  3.1884  1.1305
  802MOL0     H 8254   6.184  11.124   9.747 -0.6767  2.1236  1.5029
  802MOL0     H 8255   6.262  11.140   9.507 -0.7638 -2.0618  1.5281
  802MOL0     H 8256   6.393  11.462   9.190 -0.9436  1.7700 -2.5506
  802MOL0     H 8257   6.397  11.480   8.968 -1.1506  1.4439  2.3827
  802MOL0     H 8258   6.477  11.460   8.690  1.1141 -2.0611 -1.1142
  802MOL0     H 8259   6.323  11.457   8.779  2.0188  2.4928 -1.1556
  802MOL0     H 8260   6.291  11.467   8.530  3.9524  1.1103 -1.0410
  802MOL0     H 8261   6.209  11.339   8.623  0.4948 -0.5129 -2.2193
  802MOL0     H 8262   6.389  11.184   8.558  3.3657  1.2035  0.2823
  802MOL0     H 8263   6.478  11.304   8.474  0.1664 -1.7969  0.9321
  802MOL0     H 8264   6.308  11.289   8.282 -0.2271 -0.3421  1.1472
  802MOL0     H 8265   6.367  11.136   8.341 -0.0787 -0.8903  0.1510
  802MOL0     H 8266   5.940  11.152   8.397  0.1596  0.3897  1.3971
  802MOL0     H 8267   6.525  11.073   8.914 -0.9225 -2.2139  2.7773
  802MOL0     H 8268   6.624  11.027   9.236 -0.9748  0.4550  1.0576
  802MOL0     H 8269   6.465  10.951   9.217 -1.5194 -0.2215 -3.4556
  802MOL0     H 8270   6.580  10.947   9.081  0.5569 -0.7318 -0.1086
  803MOL0     O 8271   9.828   5.295   1.882 -0.5539 -0.2342 -0.1719
  803MOL0     C 8272   9.842   5.360   1.777  0.2323 -0.6583  0.1222
  803MOL0     O 8273   9.930   5.330   1.672  0.2486  1.1086 -0.5836
  803MOL0     C 8274   9.990   5.204   1.675 -0.1150  0.0361 -0.1269
  803MOL0     C 8275  10.134   5.195   1.703  0.8009 -0.5390  0.0436
  803MOL0     C 8276  10.196   5.071   1.716 -0.8270 -0.5737  0.4709
  803MOL0     C 8277  10.132   4.948   1.694 -0.0632  0.1500 -0.1115
  803MOL0     O 8278  10.193   4.825   1.705  0.6709 -0.0040 -0.1189
  803MOL0     C 8279  10.316   4.802   1.778  0.0625  1.0479  0.5033
  803MOL0     C 8280  10.300   4.655   1.826  0.9116 -0.4730 -0.5464
  803MOL0     C 8281  10.438   4.585   1.851  0.5469  0.1612  0.4792
  803MOL0     C 8282  10.512   4.554   1.727  1.0575  1.3458 -0.8443
  803MOL0     C 8283  10.649   4.489   1.755  0.2700  0.4210  0.9539
  803MOL0     C 8284  10.678   4.385   1.650 -0.2360  0.0870  0.1144
  803MOL0     C 8285  10.809   4.309   1.658 -1.0358  0.3684  0.1583
  803MOL0     C 8286  10.821   4.208   1.544  0.3532  0.6092 -0.3064
  803MOL0     N 8287  10.963   4.156   1.537 -0.7714 -0.8193  0.7150
  803MOL0     C 8288  11.080   4.218   1.505 -0.0674  0.0409 -0.4466
  803MOL0     C 8289  11.172   4.120   1.507  0.6164  0.1676  0.2898
  803MOL0     C 8290  11.320   4.113   1.500 -0.1795  0.2104  0.0082
  803MOL0     C 8291  11.374   4.174   1.369  0.0098 -0.1209 -1.2666
  803MOL0     C 8292  11.340   4.094   1.243  0.1506  0.1345 -0.3811
  803MOL0     C 8293  11.197   4.122   1.176 -1.3380  0.1452 -0.1705
  803MOL0     O 8294  11.176   4.245   1.110 -0.3827 -0.4985 -0.0719
  803MOL0     C 8295  11.058   4.307   1.143  0.9596  1.0459 -0.2017
  803MOL0     C 8296  11.063   4.421   1.227 -1.1179  0.8113  0.8558
  803MOL0     C 8297  10.955   4.504   1.245 -0.3685 -0.1232  0.4300
  803MOL0     C 8298  10.829   4.470   1.186 -0.6529  0.5428  0.3991
  803MOL0     C 8299  10.706   4.544   1.192  0.3506 -1.2960  0.3699
  803MOL0     O 8300  10.597   4.483   1.246  0.0671  0.5453  1.8799
  803MOL0     C 8301  10.469   4.527   1.232 -0.4520  0.0661 -0.1370
  803MOL0     C 8302  10.408   4.594   1.341 -0.9057 -0.1908  1.1039
  803MOL0     C 8303  10.275   4.634   1.334  0.2605  0.4149  0.0687
  803MOL0     C 8304  10.198   4.592   1.220  0.4448 -0.2194 -0.3773
  803MOL0     O 8305  10.066   4.634   1.196  0.2664  0.0398 -1.2642
  803MOL0     C 8306   9.997   4.748   1.252  0.7613 -0.3489 -0.4828
  803MOL0     C 8307   9.840   4.731   1.244 -0.1925  0.6483  0.4229
  803MOL0     C 8308   9.749   4.844   1.307 -0.0014  0.0780  0.2602
  803MOL0     C 8309   9.799   4.985   1.274  1.0369 -0.1559  0.2342
  803MOL0     C 8310   9.704   5.100   1.311  0.8830  0.7542  0.0858
  803MOL0     C 8311   9.730   5.221   1.217 -0.1982  0.3212  0.7637
  803MOL0     C 8312   9.658   5.351   1.239 -0.7192  0.0430 -0.5311
  803MOL0     C 8313   9.743   5.438   1.343  0.1620 -0.5830 -0.3051
  803MOL0    Cl 8314   9.659   5.595   1.367 -0.0390 -0.0512 -0.0329
  803MOL0     C 8315  10.260   4.533   1.109 -0.7284 -0.0585 -0.2493
  803MOL0     C 8316  10.396   4.503   1.110  0.2536  0.2847 -0.0326
  803MOL0     O 8317  10.707   4.666   1.154  0.0636 -0.2357 -0.5094
  803MOL0     C 8318  10.829   4.353   1.107  0.2788  0.4229  0.2450
  803MOL0     C 8319  10.941   4.280   1.080 -0.3383 -0.4234  0.0930
  803MOL0     N 8320  11.114   4.002   1.544  0.3535  0.5752 -0.6333
  803MOL0     N 8321  10.985   4.027   1.564 -0.3582  0.4204 -0.0868
  803MOL0     C 8322   9.999   4.962   1.663  0.5675  0.6596  0.0286
  803MOL0     C 8323   9.930   5.081   1.651  0.1652  0.1285 -0.1029
  803MOL0     C 8324   9.769   5.485   1.758  0.6266 -0.8907  0.9613
  803MOL0     C 8325   9.840   5.602   1.761 -0.2062 -0.3232 -0.0311
  803MOL0     C 8326   9.774   5.721   1.732 -0.0289 -0.0002 -0.2595
  803MOL0     C 8327   9.636   5.720   1.700  0.5771  0.0807  0.4316
  803MOL0     O 8328   9.561   5.826   1.653  0.5089 -0.5440 -0.0299
  803MOL0     C 8329   9.620   5.958   1.650 -0.6763  0.1746  0.3523
  803MOL0     C 8330   9.540   6.052   1.571  0.7002  0.5064 -0.3215
  803MOL0     C 8331   9.566   6.043   1.420  0.6381  0.3773  0.0700
  803MOL0     C 8332   9.498   6.155   1.343  0.0326 -0.6479  0.6047
  803MOL0     C 8333   9.350   6.138   1.344  0.3465  0.1629 -0.4100
  803MOL0     C 8334   9.228   6.119   1.353  0.1459 -0.2736 -0.1564
  803MOL0     C 8335   9.568   5.601   1.691 -0.3428 -0.0847 -0.0714
  803MOL0     C 8336   9.633   5.484   1.722 -0.1348  0.4144  0.5975
  803MOL0     C 8337   9.556   5.350   1.714  0.4263 -0.5657  0.4432
  803MOL0     H 8338  10.184   5.291   1.711 -2.3178  1.1542  1.0548
  803MOL0     H 8339  10.301   5.073   1.743  0.3752  2.8642 -3.5177
  803MOL0     H 8340  10.395   4.810   1.703  0.0672  0.8332  0.4820
  803MOL0     H 8341  10.329   4.871   1.862 -0.8458 -0.3012  1.8179
  803MOL0     H 8342  10.238   4.592   1.762 -2.8899  0.1780  2.1754
  803MOL0     H 8343  10.247   4.653   1.922 -0.4611 -0.3315 -1.2849
  803MOL0     H 8344  10.432   4.498   1.917  0.5971  0.5931  1.0592
  803MOL0     H 8345  10.507   4.656   1.896  2.7125  0.4289 -2.8403
  803MOL0     H 8346  10.448   4.481   1.677 -0.3147 -0.7827  3.5245
  803MOL0     H 8347  10.536   4.636   1.659 -0.4908  2.3455 -0.2419
  803MOL0     H 8348  10.719   4.574   1.756 -1.1061  1.5973  0.4027
  803MOL0     H 8349  10.651   4.446   1.855  0.5614 -1.9121  0.0074
  803MOL0     H 8350  10.584   4.329   1.642 -0.6195  0.8128 -0.6287
  803MOL0     H 8351  10.685   4.431   1.551 -0.3550  1.2470  0.6282
  803MOL0     H 8352  10.823   4.256   1.752  3.1792  0.8989  0.0096
  803MOL0     H 8353  10.898   4.373   1.651  0.2697 -0.9917  2.9122
  803MOL0     H 8354  10.750   4.125   1.555  1.6277 -0.5810 -0.8228
  803MOL0     H 8355  10.798   4.258   1.449  1.0409  0.7619 -0.3916
  803MOL0     H 8356  11.096   4.322   1.476 -1.5799 -0.2573 -2.6047
  803MOL0     H 8357  11.361   4.167   1.586 -0.0597  1.2362 -0.6805
  803MOL0     H 8358  11.356   4.010   1.514  0.9779  0.8525  2.3347
  803MOL0     H 8359  11.344   4.278   1.353 -1.2053 -0.4217 -1.0150
  803MOL0     H 8360  11.481   4.187   1.386 -0.4302  0.1416  1.8477
  803MOL0     H 8361  11.341   3.990   1.277 -1.1231  0.7056  1.5365
  803MOL0     H 8362  11.424   4.109   1.174 -0.8681  0.5591 -1.5670
  803MOL0     H 8363  11.118   4.107   1.250  0.4458 -1.1997  1.5740
  803MOL0     H 8364  11.177   4.051   1.096  1.5511  0.1853 -1.0630
  803MOL0     H 8365  11.164   4.449   1.253 -0.5922  1.7089 -1.8769
  803MOL0     H 8366  10.958   4.603   1.289 -0.3869  0.0446  0.0615
  803MOL0     H 8367  10.467   4.633   1.423 -0.6986 -1.8488  1.7945
  803MOL0     H 8368  10.234   4.698   1.412  0.3501 -0.3436  0.7586
  803MOL0     H 8369  10.022   4.769   1.357 -1.3613 -0.9097  0.1861
  803MOL0     H 8370  10.030   4.831   1.189  3.7541  0.2537  1.6365
  803MOL0     H 8371   9.823   4.697   1.142  2.8805 -5.2350  1.4183
  803MOL0     H 8372   9.824   4.643   1.308  2.2203  0.0397  0.2877
  803MOL0     H 8373   9.644   4.835   1.277  0.1370  2.3251 -1.1434
  803MOL0     H 8374   9.748   4.838   1.416 -1.5704  3.5131  0.5699
  803MOL0     H 8375   9.821   4.979   1.167  4.9848 -1.2137  0.9616
  803MOL0     H 8376   9.897   5.009   1.316  0.7489 -1.6193  1.8654
  803MOL0     H 8377   9.716   5.149   1.408  0.0249 -0.3013  0.7319
  803MOL0     H 8378   9.605   5.060   1.291  0.8125  0.4457  1.0374
  803MOL0     H 8379   9.838   5.242   1.222 -0.1934  0.0198  2.5718
  803MOL0     H 8380   9.710   5.175   1.120  2.1127 -1.6775  1.1356
  803MOL0     H 8381   9.574   5.321   1.302  0.6186 -0.9812  0.8371
  803MOL0     H 8382   9.620   5.399   1.149 -1.0439 -2.5218 -1.8768
  803MOL0     H 8383   9.719   5.391   1.439 -3.6743 -0.9654 -1.2751
  803MOL0     H 8384   9.849   5.457   1.326  0.1696  1.5369  1.6179
  803MOL0     H 8385  10.207   4.514   1.016  2.6936 -0.2865 -2.3351
  803MOL0     H 8386  10.426   4.451   1.019 -3.7110 -0.8778 -0.8891
  803MOL0     H 8387  10.742   4.314   1.056  1.9680 -3.0441 -0.2912
  803MOL0     H 8388  10.923   4.204   1.004  0.3340  0.1325 -0.6478
  803MOL0     H 8389   9.947   4.871   1.634  3.3480 -0.6301 -1.2851
  803MOL0     H 8390   9.823   5.084   1.628 -0.0727 -2.6615  0.2303
  803MOL0     H 8391   9.948   5.601   1.769 -0.1888 -1.0415 -0.3515
  803MOL0     H 8392   9.815   5.821   1.737 -1.0873  0.4081  0.5947
  803MOL0     H 8393   9.720   5.951   1.608 -0.8709  1.6378 -0.4396
  803MOL0     H 8394   9.639   5.996   1.751  1.1928 -0.1188  0.1491
  803MOL0     H 8395   9.572   6.152   1.600  0.1194  1.2697 -2.1798
  803MOL0     H 8396   9.434   6.030   1.586  0.4881  0.4813 -1.7023
  803MOL0     H 8397   9.547   5.948   1.370 -2.4538  0.3853  1.0089
  803MOL0     H 8398   9.670   6.069   1.396  0.7795 -0.7331 -0.6031
  803MOL0     H 8399   9.520   6.254   1.385  0.8889  0.3722 -2.0430
  803MOL0     H 8400   9.523   6.153   1.236  1.5128 -1.2552  0.9412
  803MOL0     H 8401   9.121   6.113   1.361  0.0251  1.4706  0.0265
  803MOL0     H 8402   9.461   5.598   1.672  0.0128 -0.7910 -2.2103
  803MOL0     H 8403   9.627   5.267   1.701  1.1568 -0.4848  3.3757
  803MOL0     H 8404   9.491   5.334   1.800  1.2015 -0.3824  1.0699
  803MOL0     H 8405   9.487   5.348   1.629 -1.6000 -0.1779  1.9986
  804MOL0     O 8406  11.106   2.751   3.978  0.7879  0.4817  0.1013
  804MOL0     C 8407  11.109   2.810   3.875 -0.3454 -0.3420  0.8288
  804MOL0     O 8408  11.209   2.898   3.833  0.3944 -0.2358 -0.0932
  804MOL0     C 8409  11.304   2.929   3.932 -0.2421 -0.0580 -0.7833
  804MOL0     C 8410  11.435   2.885   3.904  0.3085 -0.7487 -0.6427
  804MOL0     C 8411  11.535   2.917   3.999 -0.3069 -0.0918 -0.3744
  804MOL0     C 8412  11.500   2.974   4.124 -0.5776 -0.3539 -0.3279
  804MOL0     O 8413  11.590   3.016   4.222 -1.0839 -0.5183  0.9014
  804MOL0     C 8414  11.729   3.069   4.179  0.4125 -0.1788  0.5514
  804MOL0     C 8415  11.726   3.202   4.103 -0.5417  0.1168 -0.1335
  804MOL0     C 8416  11.632   3.310   4.159  0.1090  0.0327 -0.6320
  804MOL0     C 8417  11.676   3.348   4.296 -0.1432  0.0760  0.2796
  804MOL0     C 8418  11.595   3.475   4.342 -0.3899  0.6072 -0.5520
  804MOL0     C 8419  11.571   3.456   4.490  0.7488  0.0969  1.0894
  804MOL0     C 8420  11.569   3.592   4.556 -0.5270 -0.9755 -0.0883
  804MOL0     C 8421  11.556   3.579   4.711  0.3700 -0.0846 -0.4492
  804MOL0     N 8422  11.679   3.541   4.779  0.2209 -0.6044  0.9244
  804MOL0     C 8423  11.741   3.615   4.868 -0.1413  0.4942 -0.0672
  804MOL0     C 8424  11.835   3.541   4.930 -0.6034 -0.3691 -0.2466
  804MOL0     C 8425  11.934   3.586   5.037 -0.1961  0.5290  0.3687
  804MOL0     C 8426  12.018   3.714   5.003 -0.7746 -0.6285  0.6994
  804MOL0     C 8427  12.143   3.731   5.096  0.0375  0.3305  0.1397
  804MOL0     C 8428  12.094   3.796   5.228 -1.0213 -0.5551  0.3785
  804MOL0     O 8429  12.064   3.937   5.202 -0.5911 -0.4895  0.4808
  804MOL0     C 8430  12.056   4.024   5.307  0.4045  0.5145 -0.1580
  804MOL0     C 8431  12.057   4.157   5.285 -0.1375  0.4129 -0.2201
  804MOL0     C 8432  12.060   4.251   5.391  0.8333  0.1279 -1.0377
  804MOL0     C 8433  12.065   4.203   5.528  0.4662 -0.6287  0.0100
  804MOL0     C 8434  12.062   4.292   5.646 -0.2801  0.7010  0.3922
  804MOL0     O 8435  12.095   4.421   5.624 -0.0511 -0.4417 -1.0864
  804MOL0     C 8436  12.101   4.500   5.741  0.0243 -0.1920  0.1836
  804MOL0     C 8437  12.003   4.597   5.777 -0.6927 -0.5286 -0.3402
  804MOL0     C 8438  12.018   4.675   5.891 -0.5275  0.4894  0.0342
  804MOL0     C 8439  12.131   4.651   5.980 -0.1807  0.0099  1.0902
  804MOL0     O 8440  12.167   4.718   6.097 -0.3725  0.5240 -0.2408
  804MOL0     C 8441  12.063   4.731   6.193  0.3581  0.6880 -0.6870
  804MOL0     C 8442  12.116   4.800   6.315  0.8990  0.2677 -0.2126
  804MOL0     C 8443  12.248   4.739   6.368 -0.8438 -0.5756 -0.5674
  804MOL0     C 8444  12.225   4.613   6.448  0.4143  0.4782 -0.1425
  804MOL0     C 8445  12.366   4.557   6.497  0.1698  0.1669  0.4685
  804MOL0     C 8446  12.361   4.424   6.573  0.2353 -0.8561  0.6882
  804MOL0     C 8447  12.488   4.337   6.546  0.1386 -0.5270 -0.1016
  804MOL0     C 8448  12.623   4.367   6.603 -0.0611  1.0048  0.2303
  804MOL0    Cl 8449  12.726   4.225   6.561 -0.0231  0.0250 -0.0476
  804MOL0     C 8450  12.229   4.554   5.946 -0.8418  0.8416 -0.2391
  804MOL0     C 8451  12.211   4.477   5.830 -0.4160  0.0425  1.0161
  804MOL0     O 8452  12.020   4.240   5.749  0.8093 -0.3347 -0.5352
  804MOL0     C 8453  12.033   4.065   5.552 -0.4659 -0.4334  1.5522
  804MOL0     C 8454  12.044   3.975   5.439 -0.6286 -0.3229  0.6789
  804MOL0     N 8455  11.843   3.421   4.869  0.4943  0.5229  0.1474
  804MOL0     N 8456  11.734   3.423   4.786  0.1375  0.2010 -0.1837
  804MOL0     C 8457  11.372   3.018   4.145 -0.4244 -0.1059  0.3125
  804MOL0     C 8458  11.267   2.997   4.054 -0.1186  0.1331 -0.1041
  804MOL0     C 8459  10.997   2.794   3.776  0.1592  1.0744 -0.7606
  804MOL0     C 8460  11.009   2.864   3.659 -0.4424 -0.7155 -0.4336
  804MOL0     C 8461  10.922   2.841   3.553  0.5146 -0.6093 -0.3860
  804MOL0     C 8462  10.821   2.746   3.552 -0.3340 -0.0591 -0.7092
  804MOL0     O 8463  10.752   2.726   3.437 -0.1972 -0.2432 -0.0002
  804MOL0     C 8464  10.650   2.627   3.441  0.2655 -0.1398  0.3700
  804MOL0     C 8465  10.566   2.604   3.313 -0.5029 -0.8072  0.0179
  804MOL0     C 8466  10.650   2.529   3.205  0.1363  0.5427  0.4820
  804MOL0     C 8467  10.554   2.518   3.088 -0.9656  1.3939 -0.5581
  804MOL0     C 8468  10.641   2.541   2.972 -0.6660 -1.6454 -0.5599
  804MOL0     C 8469  10.719   2.559   2.886 -2.1761 -0.1035 -0.6221
  804MOL0     C 8470  10.800   2.681   3.672 -1.0044 -0.2377  0.9382
  804MOL0     C 8471  10.894   2.691   3.777  0.6263  0.5714 -0.6136
  804MOL0     C 8472  10.881   2.593   3.891 -0.8688  0.3608 -0.4387
  804MOL0     H 8473  11.453   2.832   3.811 -1.8553 -1.0434 -0.9411
  804MOL0     H 8474  11.636   2.886   3.974 -0.6022 -2.4139  1.0696
  804MOL0     H 8475  11.802   3.075   4.260  1.6363  0.5371 -0.5584
  804MOL0     H 8476  11.781   3.006   4.107  0.0968  3.6086 -3.4148
  804MOL0     H 8477  11.691   3.179   4.001 -0.4667 -0.6785  0.0118
  804MOL0     H 8478  11.831   3.232   4.108  0.3003 -2.6538  4.7191
  804MOL0     H 8479  11.528   3.275   4.156  0.0763 -0.4081  2.4270
  804MOL0     H 8480  11.639   3.393   4.088 -0.4131 -2.1733 -3.4844
  804MOL0     H 8481  11.654   3.262   4.359 -2.4120  1.4303  1.4850
  804MOL0     H 8482  11.781   3.376   4.303 -0.5398  1.3019  2.1596
  804MOL0     H 8483  11.649   3.566   4.315  1.0086 -0.0157  0.0216
  804MOL0     H 8484  11.495   3.481   4.298 -0.4307  1.3099 -0.3668
  804MOL0     H 8485  11.473   3.408   4.493  1.0384 -0.4869  1.3831
  804MOL0     H 8486  11.645   3.393   4.540  1.4685  2.2838  2.9300
  804MOL0     H 8487  11.495   3.657   4.508  1.1682  1.3639  0.3231
  804MOL0     H 8488  11.663   3.645   4.542  0.0119 -2.1299 -1.0539
  804MOL0     H 8489  11.517   3.675   4.748  1.7873  0.9975 -1.6386
  804MOL0     H 8490  11.490   3.495   4.734 -0.4162  0.7950  0.5985
  804MOL0     H 8491  11.729   3.722   4.880  0.9517  0.7597 -1.1092
  804MOL0     H 8492  11.894   3.600   5.137  3.1736 -1.4143  2.1448
  804MOL0     H 8493  12.000   3.500   5.048  0.0145  0.5840 -0.3980
  804MOL0     H 8494  12.055   3.708   4.900 -2.0829 -0.8341  0.2119
  804MOL0     H 8495  11.958   3.805   5.016 -0.1283 -0.0950  0.0449
  804MOL0     H 8496  12.217   3.797   5.050  1.3391 -1.3483 -0.2662
  804MOL0     H 8497  12.193   3.638   5.122 -1.5968 -0.6746 -0.1547
  804MOL0     H 8498  12.181   3.786   5.294 -1.3822 -0.4438  0.8737
  804MOL0     H 8499  12.004   3.748   5.266 -0.4804 -2.5312 -0.6750
  804MOL0     H 8500  12.052   4.206   5.188  2.3269  1.9577  0.3517
  804MOL0     H 8501  12.065   4.359   5.384  0.7379  0.4249  2.0599
  804MOL0     H 8502  11.918   4.613   5.712 -1.6314  0.2170  1.0138
  804MOL0     H 8503  11.946   4.753   5.912 -2.1277 -0.5614 -1.2777
  804MOL0     H 8504  11.981   4.793   6.154 -1.3715 -0.7269  0.5021
  804MOL0     H 8505  12.014   4.637   6.221 -0.6621  1.2074 -0.6540
  804MOL0     H 8506  12.146   4.901   6.286 -0.4586  1.0645  0.9952
  804MOL0     H 8507  12.049   4.808   6.401  0.5853  0.4646 -0.4731
  804MOL0     H 8508  12.321   4.703   6.296  0.3084 -3.3235  1.7593
  804MOL0     H 8509  12.298   4.814   6.430  1.8639  0.8397 -4.1193
  804MOL0     H 8510  12.167   4.543   6.388  1.9635 -0.3232 -0.7811
  804MOL0     H 8511  12.164   4.632   6.537 -0.5217  0.6517 -0.8119
  804MOL0     H 8512  12.417   4.635   6.554 -1.3941  1.2307  0.4771
  804MOL0     H 8513  12.423   4.532   6.407  2.0043  1.1691  1.2950
  804MOL0     H 8514  12.342   4.445   6.679  0.8334  1.3807  0.4050
  804MOL0     H 8515  12.284   4.359   6.530  1.8053 -1.0756 -2.0642
  804MOL0     H 8516  12.518   4.311   6.445  0.8925 -1.3973  0.3324
  804MOL0     H 8517  12.461   4.244   6.596  1.3665  0.0641  1.7804
  804MOL0     H 8518  12.655   4.463   6.561  0.6891  0.2475 -0.9962
  804MOL0     H 8519  12.626   4.380   6.711  0.3264 -2.9357  0.8400
  804MOL0     H 8520  12.327   4.560   5.993 -0.1231 -1.2126 -1.3515
  804MOL0     H 8521  12.284   4.407   5.791 -1.2810  0.5023 -1.6327
  804MOL0     H 8522  12.011   4.025   5.650 -0.5334 -1.4586  1.1364
  804MOL0     H 8523  12.046   3.866   5.445 -3.0614 -0.6159 -1.6738
  804MOL0     H 8524  11.356   3.064   4.242  1.2604 -1.6724  1.3930
  804MOL0     H 8525  11.163   3.025   4.070  0.2267  1.8275 -0.6239
  804MOL0     H 8526  11.074   2.945   3.629  0.5019 -0.9242  0.9889
  804MOL0     H 8527  10.939   2.894   3.460  0.6458 -1.2420 -0.7266
  804MOL0     H 8528  10.577   2.651   3.519 -2.5196 -0.7803 -1.8596
  804MOL0     H 8529  10.700   2.530   3.449  0.1510 -0.2289  0.0238
  804MOL0     H 8530  10.521   2.695   3.273 -1.0675 -2.1503 -2.6236
  804MOL0     H 8531  10.484   2.539   3.346  0.2490 -2.5433 -1.3873
  804MOL0     H 8532  10.693   2.432   3.229 -0.0443 -0.2535 -2.1149
  804MOL0     H 8533  10.728   2.603   3.182 -1.5787  1.7220 -2.0073
  804MOL0     H 8534  10.497   2.425   3.089 -1.9355  1.9821  0.6595
  804MOL0     H 8535  10.479   2.597   3.092 -0.7839  1.6065 -1.2717
  804MOL0     H 8536  10.789   2.593   2.813  0.9961  1.6144  2.8544
  804MOL0     H 8537  10.723   2.607   3.692 -1.3334  0.2803  1.6515
  804MOL0     H 8538  10.834   2.503   3.850  0.1770 -0.1052 -0.6595
  804MOL0     H 8539  10.985   2.568   3.915 -0.0127  1.6990 -2.4909
  804MOL0     H 8540  10.848   2.632   3.987  2.6092  2.9989 -0.1267
  805MOL0     O 8541   5.050   6.639   8.205  0.3679  0.1774  0.5335
  805MOL0     C 8542   5.138   6.662   8.290  0.8700 -0.0236  0.0986
  805MOL0     O 8543   5.208   6.770   8.297 -0.2987 -0.3574  0.4175
  805MOL0     C 8544   5.201   6.847   8.173  1.2520  0.5942 -0.6278
  805MOL0     C 8545   5.289   6.832   8.077  0.8058  0.2262 -0.3987
  805MOL0     C 8546   5.269   6.880   7.947 -0.6242  0.2121  0.1066
  805MOL0     C 8547   5.172   6.962   7.915  0.4454  0.3761 -0.5329
  805MOL0     O 8548   5.155   7.014   7.786 -0.0894 -0.1362 -0.5834
  805MOL0     C 8549   5.033   7.086   7.756  0.4418 -0.1890  0.6444
  805MOL0     C 8550   5.028   7.108   7.596 -0.5598 -0.3851 -0.3782
  805MOL0     C 8551   5.133   7.200   7.534 -0.3797 -0.3585 -0.1128
  805MOL0     C 8552   5.289   7.183   7.568  0.4985  0.2151 -0.8678
  805MOL0     C 8553   5.363   7.296   7.506  0.0327 -0.0243 -0.1013
  805MOL0     C 8554   5.398   7.279   7.363 -0.0398 -0.1011 -0.6736
  805MOL0     C 8555   5.491   7.391   7.306 -0.3748  0.0078 -0.3169
  805MOL0     C 8556   5.418   7.502   7.243  0.8137 -0.4080 -0.5605
  805MOL0     N 8557   5.510   7.594   7.179 -0.3876 -0.1113  0.3532
  805MOL0     C 8558   5.579   7.574   7.063 -0.5044  1.1878  0.4525
  805MOL0     C 8559   5.647   7.682   7.034  0.3116 -0.4566  0.0814
  805MOL0     C 8560   5.741   7.694   6.917 -0.2153 -0.9276 -0.6960
  805MOL0     C 8561   5.681   7.661   6.779 -0.4837 -0.6298 -0.8365
  805MOL0     C 8562   5.784   7.646   6.670  0.3017  1.3590  0.0252
  805MOL0     C 8563   5.726   7.575   6.549  1.3369 -0.0099  0.2045
  805MOL0     O 8564   5.826   7.529   6.456  0.9178  0.4202 -0.7109
  805MOL0     C 8565   5.780   7.466   6.342  0.1465 -0.8685  0.4102
  805MOL0     C 8566   5.851   7.486   6.227 -0.2203 -0.6471 -0.7814
  805MOL0     C 8567   5.820   7.445   6.099  0.3999  0.6186 -0.5068
  805MOL0     C 8568   5.709   7.353   6.090 -0.2354 -0.6113 -1.0951
  805MOL0     C 8569   5.667   7.285   5.968  0.6178 -0.8627  0.5193
  805MOL0     O 8570   5.568   7.187   5.975  0.4728  0.3102 -0.3083
  805MOL0     C 8571   5.535   7.122   5.860 -0.6633  1.0640 -0.4000
  805MOL0     C 8572   5.418   7.163   5.791 -0.1202 -0.6192 -0.4876
  805MOL0     C 8573   5.378   7.118   5.667 -0.0375  0.3207 -0.2223
  805MOL0     C 8574   5.451   7.012   5.613  0.1015  0.9710  1.1023
  805MOL0     O 8575   5.410   6.966   5.485 -0.3986 -0.2673 -0.3179
  805MOL0     C 8576   5.414   6.825   5.468  0.1252 -0.1004 -0.6611
  805MOL0     C 8577   5.278   6.779   5.524 -0.3403  0.9392 -1.0289
  805MOL0     C 8578   5.283   6.733   5.674 -0.2214  0.0262  0.4163
  805MOL0     C 8579   5.143   6.693   5.715  0.9955  0.4844  0.5537
  805MOL0     C 8580   5.120   6.653   5.856 -0.4327  0.5247 -0.2180
  805MOL0     C 8581   5.213   6.726   5.958 -0.3056 -0.3912  0.4125
  805MOL0     C 8582   5.169   6.686   6.098  0.7669  0.1060 -0.0637
  805MOL0     C 8583   5.230   6.774   6.206 -0.2410 -0.1806 -0.0637
  805MOL0    Cl 8584   5.406   6.805   6.178 -0.1773 -0.1001  0.0512
  805MOL0     C 8585   5.563   6.962   5.683  0.4965 -0.6500 -0.4599
  805MOL0     C 8586   5.610   7.017   5.807  0.3920  0.5997 -0.2089
  805MOL0     O 8587   5.724   7.317   5.869 -0.5277  0.5024 -0.3602
  805MOL0     C 8588   5.637   7.322   6.205 -0.2859  0.6883  0.8773
  805MOL0     C 8589   5.663   7.382   6.330  0.4695 -0.0746 -0.6136
  805MOL0     N 8590   5.628   7.768   7.140  0.7137  0.8872  0.1467
  805MOL0     N 8591   5.552   7.711   7.229 -0.9662  0.1531  0.0855
  805MOL0     C 8592   5.079   6.992   8.014 -0.2303  1.0937 -0.5068
  805MOL0     C 8593   5.092   6.937   8.148  0.0403 -0.0135  0.9319
  805MOL0     C 8594   5.166   6.550   8.386 -0.1810 -0.3233 -0.2422
  805MOL0     C 8595   5.231   6.590   8.511 -0.3721 -0.2336  0.5955
  805MOL0     C 8596   5.283   6.491   8.598  0.2921  0.2571  0.6872
  805MOL0     C 8597   5.258   6.358   8.565 -1.2642 -0.6706  0.5365
  805MOL0     O 8598   5.299   6.255   8.652 -0.3536 -0.8796  0.6182
  805MOL0     C 8599   5.275   6.261   8.795 -1.2766  0.1275  0.8855
  805MOL0     C 8600   5.132   6.274   8.820  1.2237 -0.0819 -0.0093
  805MOL0     C 8601   5.092   6.270   8.961  0.9977  0.5016 -0.2114
  805MOL0     C 8602   4.981   6.365   9.002 -0.2178  0.2465  0.4499
  805MOL0     C 8603   4.960   6.374   9.145  0.2009  0.9492 -0.2888
  805MOL0     C 8604   4.940   6.362   9.262  0.0406 -0.4759  0.1387
  805MOL0     C 8605   5.197   6.323   8.448  0.6447 -0.0930  0.3551
  805MOL0     C 8606   5.142   6.414   8.360 -0.5587 -0.6310  0.4634
  805MOL0     C 8607   5.078   6.361   8.234 -0.0062 -0.1369  0.8453
  805MOL0     H 8608   5.386   6.782   8.079  1.0638  0.7425  0.0722
  805MOL0     H 8609   5.344   6.851   7.875 -0.5058 -0.3760  0.4588
  805MOL0     H 8610   4.942   7.029   7.778  0.2323  0.5024  1.5940
  805MOL0     H 8611   5.016   7.180   7.808  4.2102  2.3782 -2.2039
  805MOL0     H 8612   4.926   7.145   7.582 -1.1255 -1.4618  0.7158
  805MOL0     H 8613   5.043   7.009   7.551 -3.6486 -0.3406 -1.7834
  805MOL0     H 8614   5.097   7.300   7.561 -0.9397 -0.4945 -0.3427
  805MOL0     H 8615   5.119   7.200   7.425 -2.3592 -0.2778  0.1054
  805MOL0     H 8616   5.295   7.188   7.678 -3.6684  1.6036 -0.5068
  805MOL0     H 8617   5.324   7.085   7.537  0.1190  0.3937 -1.9063
  805MOL0     H 8618   5.307   7.385   7.534  2.1435  1.1015  0.8417
  805MOL0     H 8619   5.454   7.304   7.567 -0.8020  1.4544  1.0127
  805MOL0     H 8620   5.447   7.181   7.353 -0.9820 -0.8645  1.5345
  805MOL0     H 8621   5.304   7.281   7.307 -2.0360  0.3034  2.4996
  805MOL0     H 8622   5.559   7.336   7.240 -3.8171 -3.9177 -1.0250
  805MOL0     H 8623   5.552   7.433   7.386 -2.1514  0.4612  0.8627
  805MOL0     H 8624   5.343   7.471   7.170 -0.2782 -0.9095  0.7202
  805MOL0     H 8625   5.354   7.550   7.318 -0.5350 -1.9131 -0.6954
  805MOL0     H 8626   5.587   7.489   6.997  1.1469  0.3865  1.5936
  805MOL0     H 8627   5.802   7.784   6.915 -2.1990  0.4907 -0.5025
  805MOL0     H 8628   5.801   7.604   6.932  1.1555 -0.6516 -3.7524
  805MOL0     H 8629   5.616   7.573   6.783 -1.1553 -0.2189 -2.0711
  805MOL0     H 8630   5.625   7.753   6.754  0.1057 -0.4368 -1.4706
  805MOL0     H 8631   5.868   7.588   6.710 -2.2003 -1.8866  1.0591
  805MOL0     H 8632   5.816   7.745   6.639 -2.8310  2.9088  1.2920
  805MOL0     H 8633   5.654   7.635   6.492  0.5911 -0.0259  1.1075
  805MOL0     H 8634   5.671   7.489   6.586  1.8871 -0.8383 -0.8240
  805MOL0     H 8635   5.943   7.542   6.240 -1.1935  0.4002  2.2906
  805MOL0     H 8636   5.876   7.473   6.011 -0.6093 -0.3626 -1.4935
  805MOL0     H 8637   5.371   7.251   5.834 -0.3885  0.0239 -2.0232
  805MOL0     H 8638   5.294   7.163   5.616 -1.1536 -1.8357 -0.4075
  805MOL0     H 8639   5.416   6.808   5.360  1.9634  2.8315 -1.2171
  805MOL0     H 8640   5.488   6.760   5.516 -2.7164 -1.2341  2.5818
  805MOL0     H 8641   5.196   6.851   5.517 -2.4943 -1.4005 -1.3570
  805MOL0     H 8642   5.242   6.696   5.463 -1.0033 -0.3624  1.0535
  805MOL0     H 8643   5.358   6.655   5.692 -1.2213 -1.0081  0.1879
  805MOL0     H 8644   5.304   6.816   5.743  2.0151 -1.1429  1.2257
  805MOL0     H 8645   5.100   6.613   5.654 -1.4818  1.6504  0.6393
  805MOL0     H 8646   5.067   6.772   5.706 -3.5532 -3.5791 -1.3270
  805MOL0     H 8647   5.145   6.549   5.877  0.6380  1.0882  1.4672
  805MOL0     H 8648   5.016   6.662   5.890 -0.0653 -0.6081  1.2895
  805MOL0     H 8649   5.309   6.679   5.935 -0.6687 -1.2823  0.6859
  805MOL0     H 8650   5.195   6.834   5.960  1.2101  0.0376  5.5146
  805MOL0     H 8651   5.193   6.581   6.115  1.8270  0.6396  2.1486
  805MOL0     H 8652   5.062   6.704   6.106  0.9319  1.2596 -0.2220
  805MOL0     H 8653   5.177   6.870   6.206 -1.5303 -0.8546  0.9526
  805MOL0     H 8654   5.210   6.730   6.304 -2.1058  1.6356  0.4348
  805MOL0     H 8655   5.626   6.882   5.645  0.8424 -0.7699  0.3485
  805MOL0     H 8656   5.698   6.978   5.856 -1.2622 -1.8626  1.0132
  805MOL0     H 8657   5.563   7.243   6.201 -0.2369  0.4757  2.9869
  805MOL0     H 8658   5.594   7.342   6.403 -0.0267  0.5342 -0.7374
  805MOL0     H 8659   4.988   7.048   7.993 -0.6577  0.1246 -1.3494
  805MOL0     H 8660   5.019   6.953   8.227  0.2247  4.2151  0.4758
  805MOL0     H 8661   5.256   6.694   8.531  0.8989 -0.4995  0.4732
  805MOL0     H 8662   5.343   6.522   8.683 -0.9053  1.3219  1.1749
  805MOL0     H 8663   5.320   6.350   8.841 -0.5057 -0.1316  0.6468
  805MOL0     H 8664   5.308   6.166   8.839  1.5943 -0.3045 -1.8444
  805MOL0     H 8665   5.065   6.203   8.772 -0.2820  1.2293  0.0669
  805MOL0     H 8666   5.090   6.366   8.777 -2.1616 -0.0629  2.8410
  805MOL0     H 8667   5.181   6.283   9.022  0.3721  0.8472  0.6470
  805MOL0     H 8668   5.062   6.169   8.993 -0.9794  1.1801  0.2412
  805MOL0     H 8669   5.020   6.463   8.972 -1.8315  0.0318 -2.7894
  805MOL0     H 8670   4.892   6.337   8.946  0.6077  0.0590 -0.8132
  805MOL0     H 8671   4.902   6.346   9.361 -4.3395  2.9007 -0.7048
  805MOL0     H 8672   5.166   6.219   8.442 -0.6472  0.3393 -3.1266
  805MOL0     H 8673   4.980   6.410   8.222 -1.7306 -3.2569  1.0662
  805MOL0     H 8674   5.139   6.372   8.144 -1.9769 -0.0004 -0.5431
  805MOL0     H 8675   5.061   6.253   8.236  3.1540 -0.7153  0.9778
  806MOL0     O 8676   4.373   8.892  10.982  0.0499  0.0280 -0.8686
  806MOL0     C 8677   4.474   8.892  10.914  0.2932 -0.4953  0.5640
  806MOL0     O 8678   4.603   8.847  10.956 -0.2317  0.2111 -0.0883
  806MOL0     C 8679   4.618   8.821  11.089 -0.0326 -0.9498 -0.0871
  806MOL0     C 8680   4.703   8.912  11.156 -0.2290 -0.6364  0.3096
  806MOL0     C 8681   4.716   8.916  11.295  1.0607  1.0269  0.4117
  806MOL0     C 8682   4.643   8.821  11.368  0.6445 -0.2144 -1.1001
  806MOL0     O 8683   4.662   8.816  11.506  0.1605  0.8992  0.2653
  806MOL0     C 8684   4.705   8.930  11.576 -0.4431 -0.1897  0.3011
  806MOL0     C 8685   4.587   9.028  11.588 -0.0400 -0.7693  0.4282
  806MOL0     C 8686   4.480   8.970  11.682 -0.5268 -0.2364  0.0517
  806MOL0     C 8687   4.370   9.075  11.681  0.4060  0.5402 -0.3315
  806MOL0     C 8688   4.268   9.029  11.781 -0.4916  0.7515  0.9387
  806MOL0     C 8689   4.278   9.070  11.926  0.1772 -0.4608 -0.4752
  806MOL0     C 8690   4.250   9.218  11.954  0.3152  0.2909  0.0395
  806MOL0     C 8691   4.287   9.276  12.096 -0.4032  0.3667  0.1578
  806MOL0     N 8692   4.202   9.236  12.208 -0.0127 -1.3506 -0.9117
  806MOL0     C 8693   4.165   9.112  12.240  0.5477  0.5983  0.5146
  806MOL0     C 8694   4.065   9.128  12.330  0.0183  0.0251  0.2721
  806MOL0     C 8695   3.987   9.024  12.404  0.0352 -0.7012  0.2458
  806MOL0     C 8696   3.832   9.039  12.423 -0.1231  0.0174  0.0652
  806MOL0     C 8697   3.752   8.911  12.416  0.5778  0.6378  0.2499
  806MOL0     C 8698   3.776   8.818  12.530  0.6372 -0.3996  0.7570
  806MOL0     O 8699   3.762   8.892  12.655 -0.0653  0.2338  0.1464
  806MOL0     C 8700   3.639   8.930  12.705  0.4512  0.4889 -0.5284
  806MOL0     C 8701   3.532   8.839  12.700  0.0006  0.2228 -0.0954
  806MOL0     C 8702   3.403   8.870  12.761 -0.1939 -0.2096  1.6584
  806MOL0     C 8703   3.398   8.974  12.842 -0.1085 -0.5143 -0.6633
  806MOL0     C 8704   3.278   8.985  12.918  0.1566 -0.3514 -0.1877
  806MOL0     O 8705   3.275   9.098  12.991 -0.8506  0.1311  0.6977
  806MOL0     C 8706   3.161   9.114  13.078  0.2778 -0.3406 -0.2474
  806MOL0     C 8707   3.042   9.165  13.032  0.2157  0.0793  0.0319
  806MOL0     C 8708   2.928   9.179  13.120  0.7630  0.4467  0.0029
  806MOL0     C 8709   2.938   9.144  13.264  0.4334  0.2961  0.4907
  806MOL0     O 8710   2.832   9.143  13.345 -0.7062  0.1753 -0.3156
  806MOL0     C 8711   2.867   9.187  13.478 -0.1721  0.2830  0.3053
  806MOL0     C 8712   2.734   9.225  13.542 -0.1003 -0.9831 -0.5352
  806MOL0     C 8713   2.655   9.340  13.473  0.3032 -0.6825 -0.2836
  806MOL0     C 8714   2.697   9.480  13.528  0.4022  0.8165 -0.4372
  806MOL0     C 8715   2.595   9.598  13.482  0.0735  0.6510  0.1383
  806MOL0     C 8716   2.647   9.739  13.509  0.7979 -0.6894 -0.6691
  806MOL0     C 8717   2.793   9.757  13.466  0.1501 -0.0660  0.0921
  806MOL0     C 8718   2.830   9.899  13.475  0.4544  0.3484  0.6272
  806MOL0    Cl 8719   3.001   9.925  13.414  0.1778 -0.0619  0.4245
  806MOL0     C 8720   3.064   9.096  13.300  0.3090 -0.6297  0.2178
  806MOL0     C 8721   3.171   9.081  13.209 -0.2804  0.0288 -0.2404
  806MOL0     O 8722   3.189   8.904  12.902  0.9652  0.8084  0.0774
  806MOL0     C 8723   3.511   9.062  12.859 -0.4451 -0.4973  0.4927
  806MOL0     C 8724   3.632   9.037  12.785 -0.4567 -0.2016 -0.1029
  806MOL0     N 8725   4.059   9.266  12.359  0.0153  0.0252  0.1447
  806MOL0     N 8726   4.149   9.334  12.289  0.3124 -0.1062 -0.3378
  806MOL0     C 8727   4.553   8.735  11.307 -0.3151  0.2693 -0.1562
  806MOL0     C 8728   4.533   8.729  11.167  0.7297 -0.2752  0.6243
  806MOL0     C 8729   4.460   8.904  10.769 -0.3452 -0.3970  0.4747
  806MOL0     C 8730   4.350   8.980  10.732  0.7332  0.7616  1.2263
  806MOL0     C 8731   4.317   9.015  10.598  0.1130  0.2029  1.1132
  806MOL0     C 8732   4.397   8.955  10.497  0.6716 -0.5665  0.6581
  806MOL0     O 8733   4.385   8.975  10.359 -0.6172  0.0698 -0.2221
  806MOL0     C 8734   4.251   9.003  10.314  0.6636  0.2150  0.3418
  806MOL0     C 8735   4.226   8.946  10.172 -0.8553  0.4603  0.1656
  806MOL0     C 8736   4.236   8.795  10.192  0.1533 -0.0545  0.2265
  806MOL0     C 8737   4.218   8.725  10.062 -0.1930  0.2706  0.6412
  806MOL0     C 8738   4.331   8.743   9.961 -0.0827  0.2163  0.5717
  806MOL0     C 8739   4.443   8.758   9.911  0.7974  0.2819  0.1815
  806MOL0     C 8740   4.510   8.884  10.533 -0.1413 -0.0867  0.4312
  806MOL0     C 8741   4.540   8.860  10.666 -0.2334 -0.2202 -0.7591
  806MOL0     C 8742   4.665   8.776  10.695 -0.1524  0.6707 -0.7247
  806MOL0     H 8743   4.757   8.974  11.085 -1.6824 -0.5756 -0.7966
  806MOL0     H 8744   4.777   9.000  11.326  0.4573  1.5993  0.0753
  806MOL0     H 8745   4.755   8.896  11.667 -2.0286 -2.8565  0.2718
  806MOL0     H 8746   4.790   8.979  11.527 -0.9088  0.7273  0.4001
  806MOL0     H 8747   4.555   9.051  11.486  0.8170  3.6394  0.9604
  806MOL0     H 8748   4.620   9.126  11.623 -1.2982  1.5570 -4.0942
  806MOL0     H 8749   4.520   8.956  11.783  1.6152  0.3670 -0.6747
  806MOL0     H 8750   4.452   8.871  11.646  1.4407 -0.0996 -2.0707
  806MOL0     H 8751   4.405   9.172  11.716  0.8146  1.6797 -3.5234
  806MOL0     H 8752   4.318   9.078  11.585 -0.9461 -1.6497  0.2650
  806MOL0     H 8753   4.168   9.053  11.742 -0.8291 -1.7079  0.1028
  806MOL0     H 8754   4.276   8.920  11.790 -0.7779  0.5970 -0.4067
  806MOL0     H 8755   4.204   9.008  11.978  0.0587 -2.4130 -2.8197
  806MOL0     H 8756   4.374   9.053  11.974  0.2071 -0.7711 -0.6473
  806MOL0     H 8757   4.141   9.214  11.952  0.3636 -1.0651 -1.2647
  806MOL0     H 8758   4.283   9.289  11.878 -1.3195  1.7741  0.6293
  806MOL0     H 8759   4.388   9.240  12.118 -0.4361 -0.4613 -0.9896
  806MOL0     H 8760   4.277   9.384  12.082 -3.3900 -0.2210 -3.7338
  806MOL0     H 8761   4.196   9.016  12.201 -1.3169 -0.0794  0.5664
  806MOL0     H 8762   4.002   8.931  12.348  0.3863 -0.1982 -0.5119
  806MOL0     H 8763   4.032   9.020  12.503 -0.0583 -1.2898  0.2690
  806MOL0     H 8764   3.815   9.092  12.517  1.1940 -0.1605  0.4144
  806MOL0     H 8765   3.804   9.093  12.332 -0.3788 -2.2586 -1.2620
  806MOL0     H 8766   3.773   8.854  12.325 -1.6020 -0.3055  0.2808
  806MOL0     H 8767   3.645   8.932  12.425 -0.2294 -1.7931 -2.1310
  806MOL0     H 8768   3.873   8.769  12.528  0.8825  0.0242  1.9748
  806MOL0     H 8769   3.715   8.727  12.526  0.6440 -0.3868 -1.5966
  806MOL0     H 8770   3.534   8.752  12.635  0.1969 -0.9946  1.4942
  806MOL0     H 8771   3.326   8.798  12.735 -0.1499  0.8945 -2.0463
  806MOL0     H 8772   3.027   9.186  12.926 -1.3744 -1.3143 -0.0566
  806MOL0     H 8773   2.833   9.208  13.076  0.4194 -1.0994 -0.3208
  806MOL0     H 8774   2.917   9.104  13.529  0.9584  0.9634  0.3436
  806MOL0     H 8775   2.940   9.268  13.472  2.8579 -2.0870  2.1732
  806MOL0     H 8776   2.674   9.133  13.547 -0.5332 -0.6660  0.3782
  806MOL0     H 8777   2.748   9.253  13.647  0.6503 -0.5388 -0.7473
  806MOL0     H 8778   2.659   9.337  13.363 -0.0618  3.6396 -0.5713
  806MOL0     H 8779   2.549   9.345  13.500  0.1898  1.9147 -0.9398
  806MOL0     H 8780   2.803   9.484  13.500  0.7898 -0.1996  0.7861
  806MOL0     H 8781   2.680   9.466  13.635 -1.2563  0.5337 -0.7213
  806MOL0     H 8782   2.493   9.582  13.519 -0.7214  2.1171 -1.2831
  806MOL0     H 8783   2.589   9.586  13.374 -1.1318 -2.3171  0.4369
  806MOL0     H 8784   2.583   9.811  13.456  1.5566  1.9261  1.7382
  806MOL0     H 8785   2.620   9.753  13.614  0.5152  4.7454 -1.1781
  806MOL0     H 8786   2.792   9.734  13.359 -0.5755 -1.7943  0.4428
  806MOL0     H 8787   2.862   9.685  13.511 -0.1674 -1.8812 -2.1040
  806MOL0     H 8788   2.771   9.959  13.406  1.7079 -1.0637 -1.7729
  806MOL0     H 8789   2.827   9.928  13.581  0.1987  0.1286  0.6804
  806MOL0     H 8790   3.076   9.063  13.403 -2.6582 -0.6818  0.6456
  806MOL0     H 8791   3.257   9.038  13.258 -1.0521 -0.4995  0.6980
  806MOL0     H 8792   3.519   9.143  12.931  0.6621 -1.0829  1.0434
  806MOL0     H 8793   3.716   9.102  12.807  0.4949 -1.6250  0.6675
  806MOL0     H 8794   4.507   8.652  11.360  0.4768 -1.1797 -1.6376
  806MOL0     H 8795   4.477   8.655  11.110 -1.2118  1.1494  0.5696
  806MOL0     H 8796   4.281   9.014  10.809 -0.1481 -0.8342  1.1841
  806MOL0     H 8797   4.236   9.080  10.568 -2.2781 -2.3130  1.7463
  806MOL0     H 8798   4.242   9.110  10.331  2.8863  0.3089  1.2680
  806MOL0     H 8799   4.187   8.949  10.384  3.6863 -0.2916  2.9779
  806MOL0     H 8800   4.305   8.980  10.105  1.3572 -0.1585  2.3090
  806MOL0     H 8801   4.129   8.969  10.128  0.1690  2.3055 -1.2812
  806MOL0     H 8802   4.150   8.781  10.258 -0.7199  0.5779 -0.7376
  806MOL0     H 8803   4.330   8.760  10.234  1.5451  1.4579 -1.4561
  806MOL0     H 8804   4.213   8.618  10.084 -1.7055  0.0536 -0.5923
  806MOL0     H 8805   4.120   8.747  10.019 -0.7046 -3.0224 -0.1439
  806MOL0     H 8806   4.540   8.762   9.866  0.3779 -1.2106 -0.9323
  806MOL0     H 8807   4.564   8.842  10.449 -1.3702  0.9774 -0.9577
  806MOL0     H 8808   4.711   8.735  10.605  0.7000  0.1954 -0.0963
  806MOL0     H 8809   4.750   8.838  10.726 -0.0523 -0.0910  0.6271
  806MOL0     H 8810   4.648   8.695  10.766  2.4070 -1.8715 -2.8015
  807MOL0     O 8811   5.182   1.789   0.418 -0.3685  0.2405  0.5271
  807MOL0     C 8812   5.107   1.732   0.498  0.0169  0.4634  1.0978
  807MOL0     O 8813   5.046   1.607   0.476 -0.3291 -0.4174 -0.0918
  807MOL0     C 8814   5.067   1.525   0.375 -0.7065  0.7680  0.2329
  807MOL0     C 8815   4.979   1.418   0.352  0.2858  0.3001  0.8234
  807MOL0     C 8816   5.001   1.316   0.260 -0.0819  0.1379 -0.4602
  807MOL0     C 8817   5.119   1.328   0.180  0.7523  0.2794  0.6702
  807MOL0     O 8818   5.150   1.237   0.082 -0.2835 -0.3745 -0.6970
  807MOL0     C 8819   5.060   1.223  -0.027 -0.4819 -1.3709 -0.7900
  807MOL0     C 8820   5.115   1.109  -0.122 -0.1831 -0.1253  0.0305
  807MOL0     C 8821   5.125   0.975  -0.052  0.6552 -0.4331 -0.3264
  807MOL0     C 8822   5.163   0.879  -0.165  0.0265  0.6025  0.4333
  807MOL0     C 8823   5.122   0.736  -0.121 -0.4918 -0.4746  0.2009
  807MOL0     C 8824   5.148   0.639  -0.236 -0.1982 -0.0417  1.8724
  807MOL0     C 8825   5.295   0.626  -0.288 -0.3151  0.6928  0.0646
  807MOL0     C 8826   5.384   0.564  -0.180 -0.4703 -0.1895 -0.6106
  807MOL0     N 8827   5.523   0.608  -0.219 -0.5793 -1.1214 -0.1542
  807MOL0     C 8828   5.578   0.716  -0.157 -0.8456  0.5289  0.6395
  807MOL0     C 8829   5.707   0.723  -0.216  1.0906  0.1253 -0.1310
  807MOL0     C 8830   5.802   0.818  -0.166  1.1246 -0.1975  0.2617
  807MOL0     C 8831   5.937   0.816  -0.234  0.3070  0.2092  0.2529
  807MOL0     C 8832   6.022   0.936  -0.186 -1.3790  0.1640  0.6542
  807MOL0     C 8833   6.007   1.047  -0.299 -0.3970  0.3374  0.9154
  807MOL0     O 8834   5.879   1.103  -0.296  0.4162 -0.0721 -1.0320
  807MOL0     C 8835   5.821   1.161  -0.407  0.1482  0.6775 -0.4989
  807MOL0     C 8836   5.847   1.113  -0.534 -1.1270  0.0608 -0.2661
  807MOL0     C 8837   5.798   1.180  -0.646  0.6165  0.1853 -0.5233
  807MOL0     C 8838   5.724   1.300  -0.629  0.1700  0.5632 -0.3376
  807MOL0     C 8839   5.691   1.386  -0.741 -0.5144 -0.5485  0.5317
  807MOL0     O 8840   5.736   1.358  -0.868  0.5243  0.1358  0.0081
  807MOL0     C 8841   5.721   1.448  -0.972  1.6959 -0.6623  1.0332
  807MOL0     C 8842   5.603   1.506  -1.009 -0.0323 -0.6692 -1.1074
  807MOL0     C 8843   5.592   1.605  -1.105  0.3609  0.0776 -0.4032
  807MOL0     C 8844   5.707   1.647  -1.171  0.3850 -0.0231  0.0857
  807MOL0     O 8845   5.699   1.741  -1.271  0.0206 -0.4827 -0.5007
  807MOL0     C 8846   5.786   1.741  -1.391  0.3241 -0.1552 -0.7629
  807MOL0     C 8847   5.900   1.850  -1.368  0.0903 -0.2731  0.3447
  807MOL0     C 8848   5.975   1.896  -1.485 -0.1554 -0.0479  0.6180
  807MOL0     C 8849   6.112   1.967  -1.447  0.4968 -0.5172 -0.7546
  807MOL0     C 8850   6.111   2.070  -1.326  0.6462 -0.5192  0.9124
  807MOL0     C 8851   6.062   2.206  -1.366  0.6314 -0.4415  0.6777
  807MOL0     C 8852   6.078   2.308  -1.250  0.1266 -0.2905  1.2383
  807MOL0     C 8853   5.976   2.300  -1.130 -0.3474 -0.3856 -0.2751
  807MOL0    Cl 8854   5.815   2.376  -1.182  0.2278 -0.1105  0.2163
  807MOL0     C 8855   5.826   1.577  -1.153  0.1957  0.5733 -0.3548
  807MOL0     C 8856   5.834   1.485  -1.048  0.2857 -0.3885 -0.6962
  807MOL0     O 8857   5.634   1.495  -0.717  0.2703 -0.0873 -0.5718
  807MOL0     C 8858   5.693   1.341  -0.496  0.8293 -0.9423 -0.6995
  807MOL0     C 8859   5.744   1.272  -0.395 -0.2510  0.1319 -0.4959
  807MOL0     N 8860   5.717   0.621  -0.313  0.1440  0.2082 -0.0481
  807MOL0     N 8861   5.615   0.549  -0.305  1.5171 -0.1738  0.1166
  807MOL0     C 8862   5.195   1.436   0.184 -0.6975 -1.6394 -0.3597
  807MOL0     C 8863   5.183   1.525   0.292  0.8721 -0.0718  0.0813
  807MOL0     C 8864   5.078   1.801   0.626 -0.0504  0.0207  0.0170
  807MOL0     C 8865   5.117   1.934   0.649 -0.3374  0.0344  0.6620
  807MOL0     C 8866   5.100   2.001   0.772 -0.3895 -0.1188 -0.3103
  807MOL0     C 8867   5.024   1.926   0.867 -0.2596 -1.5936  0.1024
  807MOL0     O 8868   4.972   1.985   0.980 -0.2449  0.1895 -0.1631
  807MOL0     C 8869   4.900   2.104   0.945 -0.4924  0.0236  0.6609
  807MOL0     C 8870   4.801   2.146   1.056 -0.5308  0.3907  0.9551
  807MOL0     C 8871   4.870   2.140   1.187 -0.5146  0.0582 -0.4833
  807MOL0     C 8872   4.774   2.180   1.299  1.1119  0.2912 -0.0781
  807MOL0     C 8873   4.798   2.128   1.432  0.7490  0.3597  0.2302
  807MOL0     C 8874   4.805   2.074   1.540  0.8332  0.5449  0.0503
  807MOL0     C 8875   4.986   1.792   0.849 -1.1498 -0.8256  0.1963
  807MOL0     C 8876   5.011   1.729   0.727  0.3437 -0.2649  0.5484
  807MOL0     C 8877   4.962   1.585   0.733 -0.1042  0.3687 -0.8662
  807MOL0     H 8878   4.878   1.414   0.394 -0.8749 -1.8745 -1.8938
  807MOL0     H 8879   4.931   1.236   0.238  0.0705 -0.4009  0.9221
  807MOL0     H 8880   4.962   1.197   0.012 -0.6394 -0.8769 -0.8508
  807MOL0     H 8881   5.062   1.324  -0.069 -0.1153  0.5449  3.3667
  807MOL0     H 8882   5.214   1.139  -0.156  0.1645  0.3131  1.3467
  807MOL0     H 8883   5.050   1.103  -0.210  1.3502  0.3655 -1.1639
  807MOL0     H 8884   5.030   0.949  -0.004  2.5970  0.0718  4.3533
  807MOL0     H 8885   5.198   0.982   0.029  0.0575 -0.1043  0.1907
  807MOL0     H 8886   5.111   0.895  -0.260  3.9027 -1.6774 -2.3644
  807MOL0     H 8887   5.269   0.880  -0.191  0.2706 -2.8370  0.8434
  807MOL0     H 8888   5.189   0.713  -0.038  2.7970  0.9657 -1.8319
  807MOL0     H 8889   5.016   0.720  -0.099 -0.1882 -2.2435  0.5289
  807MOL0     H 8890   5.112   0.540  -0.206  0.2229 -0.3600  1.3332
  807MOL0     H 8891   5.086   0.668  -0.321  0.2624 -5.0395 -0.5230
  807MOL0     H 8892   5.337   0.720  -0.325 -2.9840  0.5274 -4.0686
  807MOL0     H 8893   5.296   0.553  -0.370  0.6697 -0.8477  1.4044
  807MOL0     H 8894   5.364   0.589  -0.075  0.1634 -1.0938 -0.2502
  807MOL0     H 8895   5.380   0.455  -0.185  0.7293 -0.3742  1.2545
  807MOL0     H 8896   5.542   0.799  -0.098 -0.4026  3.3727 -2.8005
  807MOL0     H 8897   5.753   0.916  -0.177 -0.3730 -0.7436  1.7218
  807MOL0     H 8898   5.810   0.798  -0.059  1.2599  2.8491  0.9098
  807MOL0     H 8899   5.992   0.726  -0.206 -2.2138 -1.2338  0.8720
  807MOL0     H 8900   5.926   0.815  -0.343 -0.7296  4.0843  0.1555
  807MOL0     H 8901   6.128   0.910  -0.177 -1.6108 -0.4532  1.8058
  807MOL0     H 8902   5.993   0.977  -0.089  0.0196 -0.7292  1.4841
  807MOL0     H 8903   6.033   1.012  -0.400  1.1500 -2.3454  2.1285
  807MOL0     H 8904   6.081   1.127  -0.289 -1.4741  1.7030 -1.1960
  807MOL0     H 8905   5.910   1.025  -0.546 -0.1356  0.3439  2.3061
  807MOL0     H 8906   5.816   1.141  -0.746  0.6424  0.5680 -0.6686
  807MOL0     H 8907   5.522   1.463  -0.950  2.5534 -2.6674  1.2622
  807MOL0     H 8908   5.494   1.651  -1.117  0.7518  0.5208 -2.1109
  807MOL0     H 8909   5.844   1.652  -1.417  0.3803  0.1434 -1.6791
  807MOL0     H 8910   5.723   1.769  -1.475 -0.2827 -1.2883 -0.7064
  807MOL0     H 8911   5.828   1.929  -1.342 -2.7788 -0.9043 -4.4954
  807MOL0     H 8912   5.969   1.831  -1.285  0.7693  0.0605 -0.1282
  807MOL0     H 8913   5.989   1.803  -1.540 -0.9509 -1.5916  2.8606
  807MOL0     H 8914   5.906   1.971  -1.524  2.7425  2.3477 -0.2953
  807MOL0     H 8915   6.153   2.016  -1.536 -0.3297  0.2880 -0.7045
  807MOL0     H 8916   6.191   1.895  -1.422  2.4641  1.4247 -0.9672
  807MOL0     H 8917   6.215   2.080  -1.292  1.1893  0.7994 -0.9684
  807MOL0     H 8918   6.047   2.032  -1.246  2.2197  0.4049  2.7068
  807MOL0     H 8919   6.108   2.237  -1.461 -1.1238  0.8215  0.1921
  807MOL0     H 8920   5.956   2.205  -1.395  0.4609  2.3448  0.9754
  807MOL0     H 8921   6.071   2.400  -1.309 -0.2005 -1.2864 -0.3468
  807MOL0     H 8922   6.174   2.289  -1.202  0.6905  1.1349  0.7216
  807MOL0     H 8923   5.951   2.199  -1.095 -2.5449  0.5314  0.9757
  807MOL0     H 8924   6.029   2.365  -1.060  0.6426 -2.2436  0.8168
  807MOL0     H 8925   5.914   1.609  -1.209 -0.4800  2.0416 -0.6444
  807MOL0     H 8926   5.920   1.422  -1.030 -0.9674 -2.1034 -0.4391
  807MOL0     H 8927   5.627   1.424  -0.474  0.3102 -1.8487  1.4614
  807MOL0     H 8928   5.733   1.305  -0.292 -1.6613  1.4481 -1.0216
  807MOL0     H 8929   5.283   1.430   0.121 -0.5352 -2.6131 -0.0556
  807MOL0     H 8930   5.256   1.605   0.300  0.0497  0.5252  2.4068
  807MOL0     H 8931   5.157   1.989   0.564 -3.1188  0.9962 -0.1261
  807MOL0     H 8932   5.126   2.106   0.774 -0.1292 -0.1663 -0.9990
  807MOL0     H 8933   4.849   2.101   0.848  1.5113  0.2557 -0.4552
  807MOL0     H 8934   4.967   2.190   0.936 -0.1624 -0.3431 -0.7435
  807MOL0     H 8935   4.712   2.084   1.054  0.3703 -1.0873 -3.4548
  807MOL0     H 8936   4.762   2.245   1.032  0.1178  0.9467  2.0899
  807MOL0     H 8937   4.953   2.212   1.192 -0.2639 -0.1564 -1.3865
  807MOL0     H 8938   4.904   2.038   1.204 -0.1240  0.3471  0.5444
  807MOL0     H 8939   4.763   2.289   1.292  1.3154  0.2138 -2.3623
  807MOL0     H 8940   4.671   2.147   1.280 -0.6824  3.6105  2.7241
  807MOL0     H 8941   4.802   2.049   1.644 -0.0525  2.7521  0.6303
  807MOL0     H 8942   4.945   1.741   0.935 -1.5624  2.7151  2.2822
  807MOL0     H 8943   5.043   1.512   0.738  1.3420  2.0122  1.0305
  807MOL0     H 8944   4.900   1.573   0.822  3.6021 -1.9134  1.6927
  807MOL0     H 8945   4.888   1.553   0.659 -2.3264  0.7499  1.0694
  808MOL0     O 8946   9.374   6.408   7.028  0.2441 -0.1578  0.2765
  808MOL0     C 8947   9.469   6.336   7.024 -0.8979 -0.1784 -0.3607
  808MOL0     O 8948   9.486   6.223   7.100  0.6504  0.4407 -0.5168
  808MOL0     C 8949   9.443   6.217   7.239 -0.7434 -1.2014  0.6507
  808MOL0     C 8950   9.379   6.318   7.317  0.0521  0.3857 -1.2468
  808MOL0     C 8951   9.340   6.275   7.447 -0.5002 -0.6532  0.3546
  808MOL0     C 8952   9.341   6.140   7.488  0.1679 -0.2112 -0.2400
  808MOL0     O 8953   9.294   6.111   7.615 -0.2391 -0.6258 -0.5484
  808MOL0     C 8954   9.177   6.185   7.658 -0.2433 -0.5798 -0.5870
  808MOL0     C 8955   9.137   6.133   7.798  1.0134 -0.8207 -0.1914
  808MOL0     C 8956   9.106   5.981   7.801  0.1013  0.4397  0.4751
  808MOL0     C 8957   8.991   5.938   7.720  0.4645  0.0069  0.2863
  808MOL0     C 8958   8.992   5.781   7.708  0.3251 -0.4203  0.7812
  808MOL0     C 8959   9.007   5.707   7.842 -0.4617 -0.5927 -0.8157
  808MOL0     C 8960   8.980   5.557   7.817 -0.3381  0.5059 -0.3220
  808MOL0     C 8961   9.007   5.475   7.937 -0.8464  0.2549  0.1323
  808MOL0     N 8962   9.145   5.479   7.991  0.1107  0.4845  0.2223
  808MOL0     C 8963   9.260   5.470   7.916 -1.0070  0.2493  0.2850
  808MOL0     C 8964   9.361   5.490   8.004  0.4093  0.6430  0.8803
  808MOL0     C 8965   9.503   5.485   7.980 -0.5536  0.0069 -0.1645
  808MOL0     C 8966   9.583   5.617   7.993 -0.2675  0.8170  0.0109
  808MOL0     C 8967   9.690   5.641   7.887 -0.3814 -0.3788  0.5751
  808MOL0     C 8968   9.633   5.672   7.746 -0.7226 -0.4829 -0.4058
  808MOL0     O 8969   9.597   5.558   7.672  0.2761 -0.0311 -0.0729
  808MOL0     C 8970   9.540   5.584   7.552 -0.6030 -0.5909 -0.2674
  808MOL0     C 8971   9.431   5.516   7.515 -0.1204  0.3245 -0.5431
  808MOL0     C 8972   9.370   5.530   7.389  0.5201 -0.6818 -0.2422
  808MOL0     C 8973   9.430   5.624   7.300 -0.5973 -0.0380 -0.3133
  808MOL0     C 8974   9.366   5.654   7.166  0.3803  0.8568  0.6342
  808MOL0     O 8975   9.439   5.733   7.089  0.4079  0.5493 -0.2385
  808MOL0     C 8976   9.385   5.787   6.978  1.1352  0.6191  0.7510
  808MOL0     C 8977   9.381   5.723   6.857  0.5710  0.2270  0.4871
  808MOL0     C 8978   9.334   5.782   6.747  0.5132  0.0824  0.6787
  808MOL0     C 8979   9.286   5.913   6.759  0.9086  0.5908  0.5907
  808MOL0     O 8980   9.238   5.978   6.645  0.2762  0.1183 -0.1471
  808MOL0     C 8981   9.329   6.064   6.580 -0.2391  0.1543  0.0229
  808MOL0     C 8982   9.437   6.008   6.489 -1.6917 -0.0993 -0.2938
  808MOL0     C 8983   9.506   6.132   6.422 -0.9087  0.3196  0.5649
  808MOL0     C 8984   9.589   6.080   6.300  0.0353 -0.0463  0.6455
  808MOL0     C 8985   9.736   6.042   6.332 -0.7487  0.5466  1.3520
  808MOL0     C 8986   9.816   6.028   6.205 -1.3955 -0.5821  1.1381
  808MOL0     C 8987   9.838   6.164   6.128 -0.6789 -1.0901  0.2110
  808MOL0     C 8988   9.920   6.266   6.207  0.2723 -1.5036  0.4566
  808MOL0    Cl 8989   9.951   6.406   6.089 -0.0886 -0.4910 -0.3658
  808MOL0     C 8990   9.269   5.972   6.875 -0.3770  0.1577 -0.1877
  808MOL0     C 8991   9.318   5.904   6.994  0.5344 -0.1532 -0.2352
  808MOL0     O 8992   9.256   5.607   7.132  0.4110 -0.4680  0.3150
  808MOL0     C 8993   9.550   5.689   7.339 -0.1838 -1.0224 -0.5629
  808MOL0     C 8994   9.602   5.666   7.462 -0.3967 -0.5921 -0.3895
  808MOL0     N 8995   9.303   5.526   8.127  0.6286 -0.8384  0.9502
  808MOL0     N 8996   9.175   5.532   8.112 -0.4959  0.0503 -0.6709
  808MOL0     C 8997   9.402   6.042   7.415  0.8110  0.1771  0.3805
  808MOL0     C 8998   9.459   6.081   7.291  0.1371 -0.0859  0.4328
  808MOL0     C 8999   9.574   6.369   6.926  0.5215 -0.2725  0.9796
  808MOL0     C 9000   9.604   6.502   6.891 -0.1756 -0.0527 -0.6104
  808MOL0     C 9001   9.701   6.545   6.803 -0.9167 -0.7937 -0.1797
  808MOL0     C 9002   9.781   6.445   6.734 -0.0647 -0.6122 -0.2465
  808MOL0     O 9003   9.879   6.466   6.639  0.3186  0.7490  0.4389
  808MOL0     C 9004   9.879   6.596   6.584  0.5505 -0.5569  0.8076
  808MOL0     C 9005   9.979   6.604   6.472  0.5533 -0.6721 -0.2462
  808MOL0     C 9006   9.940   6.736   6.409  0.0346 -0.5573  0.0225
  808MOL0     C 9007  10.056   6.815   6.333  0.3422  0.9019  0.4501
  808MOL0     C 9008  10.093   6.735   6.216  0.5596 -0.1705 -0.2451
  808MOL0     C 9009  10.124   6.667   6.115  0.3702 -0.4864  0.0096
  808MOL0     C 9010   9.751   6.314   6.771  0.3799  0.6100 -0.2330
  808MOL0     C 9011   9.651   6.275   6.859  1.1768  0.2854  1.5094
  808MOL0     C 9012   9.631   6.129   6.871 -0.4849  0.2964  0.1257
  808MOL0     H 9013   9.372   6.423   7.288 -0.2016  0.9573  0.6871
  808MOL0     H 9014   9.309   6.347   7.522 -0.7341  1.4674 -1.6568
  808MOL0     H 9015   9.193   6.290   7.686  0.5364 -1.2474  1.6527
  808MOL0     H 9016   9.098   6.177   7.582 -1.4815 -0.8562  0.6962
  808MOL0     H 9017   9.048   6.190   7.827 -0.2514 -1.1903 -3.0424
  808MOL0     H 9018   9.215   6.155   7.871  0.1076  1.7972  0.0966
  808MOL0     H 9019   9.085   5.947   7.903  0.5065  0.2059  0.4819
  808MOL0     H 9020   9.199   5.936   7.764 -0.8576 -0.7028 -0.6030
  808MOL0     H 9021   8.901   5.990   7.754  0.9092  0.2066  1.1800
  808MOL0     H 9022   8.997   5.979   7.619 -1.7324  3.2108  1.2847
  808MOL0     H 9023   8.907   5.744   7.649  0.3463  0.3643  0.2425
  808MOL0     H 9024   9.080   5.762   7.645 -0.2670  0.2707 -0.2879
  808MOL0     H 9025   9.107   5.722   7.883 -0.7799  0.1488 -0.3024
  808MOL0     H 9026   8.933   5.746   7.913 -0.5228  0.0007 -1.1995
  808MOL0     H 9027   9.038   5.513   7.734  0.2950 -1.5274  1.1093
  808MOL0     H 9028   8.873   5.548   7.800 -0.6499  0.1021  1.6149
  808MOL0     H 9029   8.934   5.517   8.007 -2.7389  0.0388 -1.6148
  808MOL0     H 9030   8.988   5.368   7.920  2.3666 -0.1102 -2.0368
  808MOL0     H 9031   9.266   5.450   7.810 -0.8296  0.7208  0.2023
  808MOL0     H 9032   9.539   5.406   8.047 -1.1950  1.0719  1.5082
  808MOL0     H 9033   9.512   5.444   7.879 -0.1639  2.4166 -1.1797
  808MOL0     H 9034   9.510   5.698   7.982 -2.0281  0.1192  4.3492
  808MOL0     H 9035   9.617   5.630   8.096 -1.5690 -2.3733  0.9760
  808MOL0     H 9036   9.757   5.555   7.897  1.3950  0.9193  0.4939
  808MOL0     H 9037   9.757   5.726   7.904 -2.1780  1.6738 -1.8651
  808MOL0     H 9038   9.711   5.720   7.686 -1.2263 -1.2330 -1.6979
  808MOL0     H 9039   9.552   5.741   7.771 -0.7456 -0.3493 -0.8517
  808MOL0     H 9040   9.390   5.447   7.587  1.9787  0.4542  0.8562
  808MOL0     H 9041   9.278   5.474   7.376 -0.6961  0.7309  1.6581
  808MOL0     H 9042   9.423   5.623   6.861 -0.8451 -0.4686 -0.9339
  808MOL0     H 9043   9.327   5.730   6.652 -1.4929 -0.6431  1.1731
  808MOL0     H 9044   9.265   6.126   6.517  0.0846 -0.3416 -0.8073
  808MOL0     H 9045   9.384   6.113   6.661  1.3190 -0.8985 -0.3524
  808MOL0     H 9046   9.517   5.961   6.547 -1.0708  1.4429  0.1380
  808MOL0     H 9047   9.389   5.937   6.421 -1.1756 -2.2283  1.4498
  808MOL0     H 9048   9.429   6.200   6.384  0.7355  1.1442 -1.5122
  808MOL0     H 9049   9.579   6.171   6.493  0.2207 -0.9895  0.1672
  808MOL0     H 9050   9.586   6.153   6.219 -2.2031 -2.6636 -1.8463
  808MOL0     H 9051   9.541   5.989   6.263  1.3752 -0.6186  0.2461
  808MOL0     H 9052   9.731   5.945   6.382 -2.3187  0.1190  0.4394
  808MOL0     H 9053   9.777   6.129   6.384 -0.4541  1.6011 -0.5507
  808MOL0     H 9054   9.919   5.990   6.209  0.2342  2.5881 -3.0101
  808MOL0     H 9055   9.760   5.976   6.127  1.3533  1.0699 -2.1805
  808MOL0     H 9056   9.744   6.207   6.091 -0.8437 -0.9821  0.7454
  808MOL0     H 9057   9.909   6.152   6.046  2.0974  2.8916  1.7064
  808MOL0     H 9058   9.874   6.308   6.297 -0.3708  0.4764 -0.7128
  808MOL0     H 9059  10.014   6.218   6.235  0.9852 -1.0043 -0.9701
  808MOL0     H 9060   9.233   6.074   6.877 -2.3566 -0.4866 -0.7340
  808MOL0     H 9061   9.311   5.952   7.091  2.3537  0.5199 -0.3911
  808MOL0     H 9062   9.599   5.762   7.276 -1.0547 -0.5246 -0.6811
  808MOL0     H 9063   9.703   5.704   7.475 -0.8436  1.1143 -1.5771
  808MOL0     H 9064   9.415   5.941   7.450  2.1712  0.2053  0.0167
  808MOL0     H 9065   9.495   6.004   7.223 -2.7675 -1.0214 -0.2076
  808MOL0     H 9066   9.551   6.581   6.943  1.1654  0.9318 -0.6667
  808MOL0     H 9067   9.713   6.651   6.788 -2.6652 -0.0221  2.9287
  808MOL0     H 9068   9.892   6.676   6.656 -3.4770 -0.0379  1.1903
  808MOL0     H 9069   9.777   6.603   6.547  0.4513 -1.8192  0.7913
  808MOL0     H 9070   9.997   6.514   6.412  4.5574  1.1262 -2.1590
  808MOL0     H 9071  10.074   6.614   6.525 -1.3693  0.7177  3.2467
  808MOL0     H 9072   9.899   6.811   6.476  0.2639 -1.1533  0.8399
  808MOL0     H 9073   9.866   6.706   6.334  1.7137 -2.9262 -0.8212
  808MOL0     H 9074  10.027   6.916   6.304  1.7847  1.2562  0.1620
  808MOL0     H 9075  10.149   6.813   6.391  0.1949  0.6072  0.6807
  808MOL0     H 9076  10.159   6.612   6.030  0.3827 -0.3850 -0.0514
  808MOL0     H 9077   9.804   6.237   6.715 -1.4570  0.3334 -1.6646
  808MOL0     H 9078   9.631   6.097   6.976 -0.6060  1.9048  0.6399
  808MOL0     H 9079   9.539   6.094   6.823 -0.1163 -1.1503  0.4096
  808MOL0     H 9080   9.698   6.064   6.815 -1.7411 -2.0668  1.2125
  809MOL0     O 9081   8.198   1.554   8.834 -0.1584  0.3936  0.6460
  809MOL0     C 9082   8.109   1.537   8.758 -0.1958  0.2522 -0.2347
  809MOL0     O 9083   8.112   1.537   8.628 -0.0257  0.4287  0.3564
  809MOL0     C 9084   8.237   1.553   8.569  0.6132 -0.6715  0.3848
  809MOL0     C 9085   8.287   1.683   8.577 -0.4545 -0.2734  0.3157
  809MOL0     C 9086   8.423   1.715   8.540  0.1805  0.7588  0.8157
  809MOL0     C 9087   8.501   1.609   8.488  0.0114  0.5410 -0.0769
  809MOL0     O 9088   8.623   1.628   8.442  0.0646 -0.3309  0.1238
  809MOL0     C 9089   8.661   1.611   8.305  0.6292  0.2691  0.4610
  809MOL0     C 9090   8.808   1.662   8.278  0.8664  0.5079  0.1777
  809MOL0     C 9091   8.838   1.800   8.333  0.3546 -0.0591 -0.5226
  809MOL0     C 9092   8.879   1.808   8.482  0.3032 -0.5156  0.4825
  809MOL0     C 9093   8.877   1.952   8.536  1.1568 -0.3745  0.2213
  809MOL0     C 9094   8.740   2.001   8.586  0.6485  0.6966 -0.5697
  809MOL0     C 9095   8.702   1.931   8.709 -0.1850  0.8200  0.3887
  809MOL0     C 9096   8.574   1.987   8.783 -0.7640  0.6482  0.9410
  809MOL0     N 9097   8.559   1.930   8.918 -0.4401  0.4081  0.8978
  809MOL0     C 9098   8.474   1.832   8.956  0.9794  0.4962  0.3237
  809MOL0     C 9099   8.504   1.809   9.081 -0.2750 -0.9085 -0.9083
  809MOL0     C 9100   8.456   1.702   9.163 -0.5984 -0.1971  0.0506
  809MOL0     C 9101   8.356   1.739   9.267 -1.1113  1.0471  0.3908
  809MOL0     C 9102   8.342   1.643   9.388 -0.9241  0.5938 -0.5612
  809MOL0     C 9103   8.195   1.650   9.440 -0.8869  0.3401  0.1915
  809MOL0     O 9104   8.152   1.793   9.444 -0.4028  0.2943  0.2563
  809MOL0     C 9105   8.025   1.834   9.490 -0.0869 -0.5449  0.0196
  809MOL0     C 9106   7.919   1.752   9.519 -0.6395  0.8058  0.5726
  809MOL0     C 9107   7.800   1.808   9.565  0.1235 -0.5829 -0.0839
  809MOL0     C 9108   7.786   1.949   9.579  0.8507  0.6510  0.0194
  809MOL0     C 9109   7.661   1.998   9.647 -0.8534  0.4269 -0.2428
  809MOL0     O 9110   7.672   2.112   9.716 -0.4583 -0.4506  0.0936
  809MOL0     C 9111   7.568   2.147   9.798 -0.0775 -0.2925 -0.4023
  809MOL0     C 9112   7.552   2.086   9.919 -0.7940  0.0918 -0.6408
  809MOL0     C 9113   7.471   2.142  10.016 -1.0022 -0.7204 -1.0130
  809MOL0     C 9114   7.390   2.254   9.997 -0.2728 -0.6679  0.2342
  809MOL0     O 9115   7.311   2.315  10.091  0.7386 -0.5124  0.1270
  809MOL0     C 9116   7.203   2.238  10.144 -0.1423 -0.0057 -0.0683
  809MOL0     C 9117   7.086   2.327  10.197  1.0194  0.1349 -0.4664
  809MOL0     C 9118   7.019   2.423  10.095 -0.3234  1.1484 -0.6105
  809MOL0     C 9119   6.889   2.471  10.144  0.6820  0.1733  0.3188
  809MOL0     C 9120   6.796   2.516  10.036 -0.9921 -0.8127  0.7260
  809MOL0     C 9121   6.687   2.614  10.088 -0.1060  0.7211 -0.3952
  809MOL0     C 9122   6.578   2.552  10.175  0.3561 -0.0638  0.1581
  809MOL0     C 9123   6.443   2.619  10.155  0.2209  0.5083  0.1794
  809MOL0    Cl 9124   6.304   2.559  10.254 -0.1455  0.0939 -0.5599
  809MOL0     C 9125   7.384   2.295   9.863 -0.4127 -0.2211 -0.2427
  809MOL0     C 9126   7.473   2.239   9.765  0.1018 -0.4789  0.7732
  809MOL0     O 9127   7.567   1.921   9.643  0.7092 -0.2517  0.3466
  809MOL0     C 9128   7.895   2.026   9.546 -0.4889 -0.1625  0.3187
  809MOL0     C 9129   8.013   1.967   9.501  0.1346 -0.7177 -0.0427
  809MOL0     N 9130   8.609   1.888   9.121  0.2377  0.3789  0.4995
  809MOL0     N 9131   8.641   1.959   9.024 -0.0355 -0.9688 -0.0680
  809MOL0     C 9132   8.440   1.475   8.481 -0.4942 -1.6638 -0.2019
  809MOL0     C 9133   8.316   1.446   8.535  0.6421  0.1382  0.2721
  809MOL0     C 9134   7.976   1.543   8.823 -0.3571 -0.5988  0.4582
  809MOL0     C 9135   7.855   1.543   8.743  0.6555 -0.4592 -1.0562
  809MOL0     C 9136   7.730   1.551   8.807 -0.0397  0.2819  0.3742
  809MOL0     C 9137   7.711   1.559   8.947 -0.4786 -0.6392 -0.2261
  809MOL0     O 9138   7.590   1.549   9.005 -0.3858  0.4471 -0.5832
  809MOL0     C 9139   7.562   1.623   9.127  0.3804 -0.2722 -0.2620
  809MOL0     C 9140   7.529   1.760   9.076  0.2853 -0.4046 -0.1150
  809MOL0     C 9141   7.485   1.861   9.192 -0.0029 -0.0417  0.9307
  809MOL0     C 9142   7.596   1.911   9.278 -0.4110 -0.1322 -0.3840
  809MOL0     C 9143   7.703   1.964   9.203 -0.4932 -1.4801 -0.0743
  809MOL0     C 9144   7.783   2.026   9.134 -0.0524  1.2052  0.1669
  809MOL0     C 9145   7.836   1.554   9.023 -0.4995  0.8558  0.5293
  809MOL0     C 9146   7.960   1.535   8.967 -0.2178 -0.0231 -0.4688
  809MOL0     C 9147   8.073   1.519   9.075  0.3104 -0.0802 -0.2240
  809MOL0     H 9148   8.214   1.759   8.600  0.1631 -0.2656  2.5117
  809MOL0     H 9149   8.464   1.815   8.529  1.0145  0.1028 -3.8707
  809MOL0     H 9150   8.654   1.506   8.276 -1.8124 -0.1498  2.1951
  809MOL0     H 9151   8.589   1.661   8.240  2.6398  1.9876 -0.5773
  809MOL0     H 9152   8.824   1.662   8.170 -5.0764  2.6314 -1.0430
  809MOL0     H 9153   8.874   1.585   8.320  1.4930  1.0256  0.1483
  809MOL0     H 9154   8.757   1.870   8.312 -0.2239 -1.0280 -1.6544
  809MOL0     H 9155   8.926   1.826   8.272 -0.7144 -0.8876 -2.5082
  809MOL0     H 9156   8.809   1.751   8.544  0.0749 -0.5154  0.2274
  809MOL0     H 9157   8.971   1.758   8.513  1.1657  0.0130 -1.0935
  809MOL0     H 9158   8.943   1.935   8.622 -1.4283 -5.8461  1.5197
  809MOL0     H 9159   8.920   2.022   8.464  0.2733 -1.4900 -1.4346
  809MOL0     H 9160   8.735   2.110   8.600  0.7813  0.5173  1.0565
  809MOL0     H 9161   8.660   1.987   8.513  0.3342 -0.9758  0.0500
  809MOL0     H 9162   8.787   1.928   8.777 -0.6634  0.6054  0.9943
  809MOL0     H 9163   8.673   1.828   8.683  2.4593  0.5923 -2.1563
  809MOL0     H 9164   8.591   2.095   8.781  1.3698  0.3450 -0.5419
  809MOL0     H 9165   8.483   1.972   8.724 -0.5765  0.5860  0.6647
  809MOL0     H 9166   8.413   1.769   8.892  1.8349 -1.0976  1.0382
  809MOL0     H 9167   8.426   1.622   9.096  0.8437 -1.2226  0.5819
  809MOL0     H 9168   8.551   1.664   9.203 -0.3824 -0.0130 -0.2801
  809MOL0     H 9169   8.394   1.835   9.302  1.1194 -0.1614  1.5156
  809MOL0     H 9170   8.262   1.750   9.211 -1.3826 -2.3922 -0.0635
  809MOL0     H 9171   8.402   1.673   9.474 -0.8609 -0.1446 -0.3449
  809MOL0     H 9172   8.369   1.539   9.368 -1.8966  0.2765 -0.2561
  809MOL0     H 9173   8.185   1.591   9.532 -2.0665  1.0501  0.5424
  809MOL0     H 9174   8.125   1.597   9.376 -2.3524  0.7574  1.3916
  809MOL0     H 9175   7.919   1.644   9.507 -2.1634  1.0471 -2.5938
  809MOL0     H 9176   7.720   1.739   9.589  1.6153 -1.7820  1.8433
  809MOL0     H 9177   7.609   1.997   9.947 -0.4054  0.0136 -1.6394
  809MOL0     H 9178   7.473   2.099  10.115  0.8212  3.8882  1.2371
  809MOL0     H 9179   7.162   2.171  10.068 -1.0117  1.1662 -0.6687
  809MOL0     H 9180   7.253   2.188  10.228  1.1535  0.2233 -0.6780
  809MOL0     H 9181   7.011   2.258  10.237 -1.0393  3.0064  1.0478
  809MOL0     H 9182   7.116   2.391  10.280  2.8677  2.9303 -3.0795
  809MOL0     H 9183   7.091   2.504  10.076  2.2751 -1.0804 -0.8935
  809MOL0     H 9184   7.009   2.370  10.000  0.9471 -0.3030  0.0198
  809MOL0     H 9185   6.902   2.561  10.205  1.9845 -0.1607  0.5676
  809MOL0     H 9186   6.847   2.400  10.217 -0.3767  1.1909  0.7401
  809MOL0     H 9187   6.753   2.436   9.975 -2.1149  1.8466 -2.3014
  809MOL0     H 9188   6.850   2.582   9.967 -1.6024  1.3456  2.2122
  809MOL0     H 9189   6.732   2.694  10.147 -2.3688  2.0241 -0.3495
  809MOL0     H 9190   6.642   2.679  10.012 -2.0101  1.2481  1.1191
  809MOL0     H 9191   6.607   2.549  10.281  0.8362 -1.7549  0.0195
  809MOL0     H 9192   6.565   2.448  10.144 -3.5312  0.3479 -0.0154
  809MOL0     H 9193   6.454   2.725  10.180 -2.0435  0.8501 -0.0953
  809MOL0     H 9194   6.414   2.617  10.050  3.0279  0.3569 -0.6662
  809MOL0     H 9195   7.315   2.374   9.837  1.3554  0.6418 -2.6527
  809MOL0     H 9196   7.471   2.282   9.665 -0.8128 -0.9936  0.5561
  809MOL0     H 9197   7.885   2.134   9.540  1.0755 -0.0681 -2.3048
  809MOL0     H 9198   8.099   2.028   9.475 -0.8172  0.6229 -0.1270
  809MOL0     H 9199   8.500   1.386   8.463 -0.4343 -1.9083  1.0737
  809MOL0     H 9200   8.296   1.343   8.563 -2.3237  0.4998 -0.1811
  809MOL0     H 9201   7.867   1.542   8.635 -0.6155 -1.4601 -1.2190
  809MOL0     H 9202   7.640   1.535   8.749 -1.1836 -0.1952  2.1789
  809MOL0     H 9203   7.642   1.639   9.201  0.4679 -0.1147 -0.3900
  809MOL0     H 9204   7.473   1.584   9.178 -0.2671 -1.4840 -2.2403
  809MOL0     H 9205   7.439   1.751   9.015  0.5435 -0.3678 -0.5025
  809MOL0     H 9206   7.610   1.807   9.020 -1.3761  2.2916 -0.4368
  809MOL0     H 9207   7.419   1.802   9.257  1.0065 -0.0139  2.0201
  809MOL0     H 9208   7.430   1.942   9.144 -3.3937 -1.0230  2.8006
  809MOL0     H 9209   7.556   1.988   9.345  1.1294  1.4079 -1.1267
  809MOL0     H 9210   7.623   1.823   9.337  0.7201 -1.0260 -2.1789
  809MOL0     H 9211   7.852   2.095   9.090 -0.4501  1.6375  0.2115
  809MOL0     H 9212   7.849   1.539   9.130  0.9706 -0.9567  0.1469
  809MOL0     H 9213   8.039   1.535   9.177  0.0617  0.2884 -0.3625
  809MOL0     H 9214   8.120   1.421   9.077  0.9186  0.1977  2.0176
  809MOL0     H 9215   8.146   1.600   9.061  1.5256 -1.1299 -0.0771
  810MOL0     O 9216   3.452  10.745  10.202 -0.7247 -0.3807 -0.4173
  810MOL0     C 9217   3.388  10.851  10.220 -0.3639  0.3891 -0.7387
  810MOL0     O 9218   3.418  10.960  10.297  0.7956 -0.8065  0.7778
  810MOL0     C 9219   3.487  10.964  10.410  0.8230 -0.1279 -1.0643
  810MOL0     C 9220   3.534  10.850  10.486  0.3698  0.5294 -0.2624
  810MOL0     C 9221   3.604  10.875  10.614 -0.6304  1.0562  0.0657
  810MOL0     C 9222   3.623  11.003  10.659 -0.0292  0.8761  0.1512
  810MOL0     O 9223   3.668  11.018  10.785  0.4632  0.2039 -0.2634
  810MOL0     C 9224   3.731  10.921  10.869  0.1143  0.8014 -0.6693
  810MOL0     C 9225   3.752  10.984  11.009  0.7314  0.2255 -1.2486
  810MOL0     C 9226   3.619  11.016  11.091 -0.8090  0.1511  0.1187
  810MOL0     C 9227   3.561  10.879  11.134  0.4363 -1.2729 -0.4371
  810MOL0     C 9228   3.422  10.904  11.195  0.0707  0.0999  0.0544
  810MOL0     C 9229   3.389  10.772  11.272  0.4146 -0.3524  0.0582
  810MOL0     C 9230   3.234  10.761  11.307 -0.0625 -0.3034 -0.8894
  810MOL0     C 9231   3.143  10.777  11.185  0.8760 -0.3745 -0.1389
  810MOL0     N 9232   2.999  10.746  11.207  0.5264 -0.3089  1.1505
  810MOL0     C 9233   2.896  10.807  11.130 -1.1310  0.4795  0.0680
  810MOL0     C 9234   2.779  10.765  11.182  0.0828  1.1242  0.2638
  810MOL0     C 9235   2.646  10.781  11.116 -0.4264 -0.3754 -0.2462
  810MOL0     C 9236   2.556  10.653  11.111 -0.1238 -2.3416 -0.6276
  810MOL0     C 9237   2.403  10.697  11.115 -0.8905 -0.2985  0.5179
  810MOL0     C 9238   2.313  10.577  11.130 -0.8074  0.5275 -0.1413
  810MOL0     O 9239   2.331  10.487  11.020 -0.4898  0.4523 -0.0695
  810MOL0     C 9240   2.258  10.371  11.021 -0.3235 -0.2970 -0.3738
  810MOL0     C 9241   2.213  10.314  11.140  1.6765  0.2887 -0.2596
  810MOL0     C 9242   2.149  10.189  11.137 -0.5078 -0.8502  0.2260
  810MOL0     C 9243   2.142  10.129  11.015  0.1194  0.3072  0.5447
  810MOL0     C 9244   2.060  10.006  11.001  0.0856 -0.9584 -0.3550
  810MOL0     O 9245   1.959   9.993  11.092  0.4459  0.1523 -0.6096
  810MOL0     C 9246   1.881   9.879  11.074  0.3283  0.0169 -0.6549
  810MOL0     C 9247   1.790   9.870  10.973 -0.5634 -0.1749 -0.6267
  810MOL0     C 9248   1.718   9.746  10.948  0.8666  0.0638 -0.2456
  810MOL0     C 9249   1.714   9.644  11.041 -0.0964 -0.0408  0.8862
  810MOL0     O 9250   1.628   9.535  11.038  0.6157  0.2969  0.2337
  810MOL0     C 9251   1.545   9.509  10.919  0.0579 -0.6769 -0.1920
  810MOL0     C 9252   1.450   9.397  10.936 -0.8962 -1.1657  0.6725
  810MOL0     C 9253   1.348   9.425  11.043  0.8641  0.0547  0.8389
  810MOL0     C 9254   1.222   9.511  11.005 -0.6096  0.5143 -0.3289
  810MOL0     C 9255   1.174   9.586  11.133  0.3522  0.5907 -0.2415
  810MOL0     C 9256   1.055   9.673  11.125  0.0394  1.3230  0.8203
  810MOL0     C 9257   1.036   9.757  11.253 -0.9027  0.7802  1.2797
  810MOL0     C 9258   0.895   9.814  11.243  0.7218 -0.1593 -0.0911
  810MOL0    Cl 9259   0.858   9.899  11.085 -0.2231 -0.7035  0.1067
  810MOL0     C 9260   1.799   9.662  11.154 -0.2340  0.1513  0.2632
  810MOL0     C 9261   1.882   9.779  11.168  0.3013  0.2940 -0.0512
  810MOL0     O 9262   2.089   9.928  10.909  0.5424  1.2661  0.6011
  810MOL0     C 9263   2.201  10.186  10.897 -0.1659  0.3027  0.2318
  810MOL0     C 9264   2.255  10.307  10.900  0.3028 -0.2906 -0.5402
  810MOL0     N 9265   2.810  10.696  11.301  0.3447  0.1733 -0.5696
  810MOL0     N 9266   2.935  10.695  11.325  0.0049 -0.3365  0.6899
  810MOL0     C 9267   3.568  11.102  10.582 -0.0249 -0.5242 -0.1311
  810MOL0     C 9268   3.499  11.094  10.468 -0.4808  0.0024 -0.1702
  810MOL0     C 9269   3.278  10.878  10.119  0.8177 -0.1078 -0.1410
  810MOL0     C 9270   3.244  11.014  10.099  0.7261 -0.1976  0.5701
  810MOL0     C 9271   3.151  11.048  10.000  0.5737 -0.4695  0.2523
  810MOL0     C 9272   3.077  10.950   9.941  0.4718  0.3342  0.1803
  810MOL0     O 9273   2.973  10.994   9.859 -0.3679  0.2708  0.4813
  810MOL0     C 9274   2.850  10.948   9.897 -0.5688 -0.7711  0.1122
  810MOL0     C 9275   2.751  11.051   9.862  0.1662  0.3857  0.4443
  810MOL0     C 9276   2.734  11.064   9.715 -0.4830 -0.5920  0.8286
  810MOL0     C 9277   2.635  10.974   9.653  0.0881  0.2406  0.6364
  810MOL0     C 9278   2.640  10.989   9.506 -0.0068 -0.1900 -1.3872
  810MOL0     C 9279   2.663  10.987   9.390 -0.8539  0.5513 -0.2572
  810MOL0     C 9280   3.105  10.816   9.958 -0.2200  0.3938  0.1836
  810MOL0     C 9281   3.207  10.776  10.051 -0.8346 -1.1091  0.3995
  810MOL0     C 9282   3.240  10.640  10.059 -1.1563 -0.1203  0.1972
  810MOL0     H 9283   3.504  10.750  10.455  1.1312 -0.4722  2.0102
  810MOL0     H 9284   3.652  10.793  10.667 -1.8727  0.6533  0.6182
  810MOL0     H 9285   3.665  10.834  10.877 -0.2167  1.2261  2.4043
  810MOL0     H 9286   3.828  10.890  10.831  0.1739  0.8385 -0.5454
  810MOL0     H 9287   3.815  11.074  11.007 -0.2040  1.0433  1.2404
  810MOL0     H 9288   3.802  10.910  11.072 -1.4602 -0.7752 -0.5797
  810MOL0     H 9289   3.544  11.063  11.027 -1.7442  3.3509  3.2512
  810MOL0     H 9290   3.632  11.089  11.172 -4.0208  2.3403 -1.1024
  810MOL0     H 9291   3.556  10.807  11.052  3.7811 -0.7556 -1.2569
  810MOL0     H 9292   3.627  10.844  11.214 -2.3784 -0.1802  2.6067
  810MOL0     H 9293   3.414  10.987  11.266  0.0502  0.0669  0.0906
  810MOL0     H 9294   3.357  10.924  11.110  1.9159 -1.5198 -1.8333
  810MOL0     H 9295   3.418  10.686  11.210 -0.3777  2.1420 -4.1431
  810MOL0     H 9296   3.454  10.772  11.361 -0.4263  0.7580  0.6944
  810MOL0     H 9297   3.222  10.839  11.383  0.4060 -0.9356 -0.1429
  810MOL0     H 9298   3.213  10.662  11.349  1.9472 -0.2687  0.3475
  810MOL0     H 9299   3.154  10.877  11.142  0.4500 -0.7229 -1.0893
  810MOL0     H 9300   3.173  10.706  11.107  3.2559 -2.2677  2.2884
  810MOL0     H 9301   2.900  10.859  11.035 -0.6755  2.1735  0.9814
  810MOL0     H 9302   2.577  10.853  11.161 -3.4534 -1.2273 -3.1340
  810MOL0     H 9303   2.660  10.817  11.013  3.2066  0.7193  0.4917
  810MOL0     H 9304   2.582  10.601  11.019  0.5409 -1.8074 -0.7471
  810MOL0     H 9305   2.576  10.597  11.203 -3.6678 -2.7751  0.0195
  810MOL0     H 9306   2.378  10.747  11.021  1.5479 -0.4621 -0.2815
  810MOL0     H 9307   2.369  10.772  11.187 -1.1719  1.2143 -1.1219
  810MOL0     H 9308   2.209  10.606  11.144 -0.2617  1.9944  1.2509
  810MOL0     H 9309   2.345  10.524  11.221  1.1828 -0.8554 -1.5560
  810MOL0     H 9310   2.219  10.365  11.235  0.5079  2.5179 -1.3205
  810MOL0     H 9311   2.112  10.142  11.228 -1.1375  1.7811  1.4212
  810MOL0     H 9312   1.786   9.953  10.903  0.1677  0.8847  0.5456
  810MOL0     H 9313   1.645   9.764  10.870 -0.2050 -1.4493  0.3487
  810MOL0     H 9314   1.492   9.597  10.882  0.6642  0.1592  0.8742
  810MOL0     H 9315   1.620   9.478  10.846  1.7554  2.1736  0.1762
  810MOL0     H 9316   1.412   9.377  10.836  3.6603  1.1679 -1.8397
  810MOL0     H 9317   1.506   9.311  10.972  1.0107 -0.4001 -0.3195
  810MOL0     H 9318   1.293   9.334  11.068 -0.7444  0.5404 -0.7505
  810MOL0     H 9319   1.395   9.462  11.135 -0.2238  1.0315  1.0202
  810MOL0     H 9320   1.150   9.436  10.972  0.1136  0.1592 -1.1286
  810MOL0     H 9321   1.249   9.580  10.925 -0.5185 -1.4262 -2.0570
  810MOL0     H 9322   1.260   9.640  11.172  1.3896 -0.5264 -0.9048
  810MOL0     H 9323   1.152   9.505  11.203 -1.5297  0.6238 -0.7427
  810MOL0     H 9324   1.066   9.723  11.029 -0.1025  2.4428  1.3670
  810MOL0     H 9325   0.972   9.605  11.105  0.1365  2.2466 -3.6870
  810MOL0     H 9326   1.104   9.842  11.250 -0.4743  0.4399  1.3410
  810MOL0     H 9327   1.054   9.696  11.342  3.3922  1.0332  0.7645
  810MOL0     H 9328   0.821   9.735  11.262  1.4833 -0.8949 -0.1249
  810MOL0     H 9329   0.880   9.876  11.331 -2.2397 -0.4372 -0.2920
  810MOL0     H 9330   1.813   9.579  11.222  1.7385 -1.8193 -2.3423
  810MOL0     H 9331   1.937   9.793  11.261 -0.7097 -0.7374  0.7310
  810MOL0     H 9332   2.191  10.128  10.806 -1.3288 -0.1549  0.6293
  810MOL0     H 9333   2.305  10.347  10.812  0.6375 -4.5327 -2.5840
  810MOL0     H 9334   3.589  11.196  10.633  3.5561 -0.9622 -0.5493
  810MOL0     H 9335   3.461  11.184  10.422 -0.8891  1.0564  2.1485
  810MOL0     H 9336   3.292  11.100  10.144  1.8095  0.2705 -1.3575
  810MOL0     H 9337   3.130  11.150   9.972  0.4079 -1.7471 -5.4197
  810MOL0     H 9338   2.839  10.919  10.002 -0.2881 -0.4105  0.2395
  810MOL0     H 9339   2.829  10.853   9.846  0.3275 -1.1895  0.5066
  810MOL0     H 9340   2.780  11.146   9.908  2.1108  0.4977 -0.8763
  810MOL0     H 9341   2.652  11.029   9.901 -0.3207  1.0008 -0.4252
  810MOL0     H 9342   2.831  11.045   9.670 -0.0682 -0.1953  1.5366
  810MOL0     H 9343   2.718  11.169   9.686  0.0922 -0.7890 -0.2739
  810MOL0     H 9344   2.643  10.873   9.694  0.9819  1.1123  2.7226
  810MOL0     H 9345   2.539  11.014   9.688 -1.1453  0.0642 -2.1881
  810MOL0     H 9346   2.702  10.984   9.290 -1.7039  0.5602 -0.6057
  810MOL0     H 9347   3.059  10.740   9.896 -0.7504  1.7236 -1.1038
  810MOL0     H 9348   3.174  10.576  10.001 -1.4414 -0.2746  0.6884
  810MOL0     H 9349   3.343  10.619  10.030 -1.1894 -3.1345  1.8314
  810MOL0     H 9350   3.212  10.614  10.162 -2.1932 -3.8069 -0.8792
  811MOL0     O 9351   4.913   0.248   5.919  0.2718 -0.1572  0.2673
  811MOL0     C 9352   4.804   0.189   5.893  0.5658 -0.1332  0.1604
  811MOL0     O 9353   4.782   0.071   5.815 -0.1206  0.3889  0.1133
  811MOL0     C 9354   4.884   0.000   5.778 -0.2265  0.0510  0.1709
  811MOL0     C 9355   4.963  -0.076   5.865  0.1184 -1.3042 -1.2028
  811MOL0     C 9356   5.069  -0.164   5.818  0.2754 -0.1859 -0.4232
  811MOL0     C 9357   5.080  -0.186   5.679 -0.5072  0.1348  0.6183
  811MOL0     O 9358   5.164  -0.285   5.625  0.3310 -0.5720 -0.1425
  811MOL0     C 9359   5.169  -0.414   5.679 -0.2010 -0.0327 -0.2775
  811MOL0     C 9360   5.277  -0.489   5.608  0.8259  0.0478  0.4973
  811MOL0     C 9361   5.325  -0.626   5.673  0.2028 -1.0347  0.4266
  811MOL0     C 9362   5.399  -0.710   5.566  0.1503  0.2237 -0.4213
  811MOL0     C 9363   5.301  -0.788   5.477 -0.1375  0.3209  0.2855
  811MOL0     C 9364   5.369  -0.858   5.353 -0.7649 -1.3226  0.4332
  811MOL0     C 9365   5.271  -0.946   5.268  0.7036  0.2366 -0.1445
  811MOL0     C 9366   5.171  -0.864   5.184 -0.5798  0.0668  0.1505
  811MOL0     N 9367   5.100  -0.961   5.102  0.1224  0.4974 -0.3054
  811MOL0     C 9368   5.075  -0.944   4.962  0.0748 -0.3793 -0.4382
  811MOL0     C 9369   4.997  -1.052   4.934 -0.4258  0.2887  0.7756
  811MOL0     C 9370   4.943  -1.101   4.798 -0.0432 -0.4255  0.1009
  811MOL0     C 9371   5.048  -1.119   4.697  0.3087  0.0735  0.7924
  811MOL0     C 9372   5.000  -1.199   4.573  0.3298 -0.3564 -0.4300
  811MOL0     C 9373   4.906  -1.125   4.471 -0.2231 -0.2473  0.4186
  811MOL0     O 9374   4.766  -1.097   4.517  0.0061  0.5586 -0.5091
  811MOL0     C 9375   4.682  -1.197   4.539 -0.8805 -0.3753 -0.6799
  811MOL0     C 9376   4.617  -1.204   4.670 -0.5116  0.5203  0.1797
  811MOL0     C 9377   4.522  -1.305   4.691 -0.5391 -0.3526 -0.5252
  811MOL0     C 9378   4.501  -1.414   4.602 -0.7444 -0.1631 -0.2780
  811MOL0     C 9379   4.396  -1.525   4.640 -0.0197 -0.6706  0.1499
  811MOL0     O 9380   4.390  -1.623   4.560 -0.0178 -0.0290 -0.0329
  811MOL0     C 9381   4.311  -1.736   4.569 -0.6095 -0.3050  0.2815
  811MOL0     C 9382   4.362  -1.843   4.635  0.3734 -0.0532 -0.4373
  811MOL0     C 9383   4.289  -1.960   4.648 -0.4387 -0.4930 -0.3268
  811MOL0     C 9384   4.168  -1.978   4.593  0.5383  0.6708  0.6563
  811MOL0     O 9385   4.095  -2.102   4.601  0.1325 -0.7122  0.8686
  811MOL0     C 9386   4.166  -2.230   4.631  0.1919  0.1341 -0.2820
  811MOL0     C 9387   4.093  -2.325   4.541  0.7868  0.2821  1.2395
  811MOL0     C 9388   4.109  -2.472   4.566  0.4744  0.7770  0.0302
  811MOL0     C 9389   4.251  -2.518   4.524  0.2211  0.5302  0.3071
  811MOL0     C 9390   4.273  -2.672   4.561  0.3890  0.5575  0.5315
  811MOL0     C 9391   4.406  -2.739   4.514 -0.1859  0.8042 -0.9393
  811MOL0     C 9392   4.412  -2.759   4.364  0.7910  0.0787 -0.5652
  811MOL0     C 9393   4.552  -2.801   4.322  0.8711  0.1791 -0.0306
  811MOL0    Cl 9394   4.597  -2.687   4.194 -0.2153  0.3033 -0.0315
  811MOL0     C 9395   4.108  -1.864   4.535  0.4584 -0.0095 -0.0030
  811MOL0     C 9396   4.176  -1.745   4.521 -0.2059 -0.3118 -0.3532
  811MOL0     O 9397   4.323  -1.503   4.737 -0.1816 -0.0566  0.0455
  811MOL0     C 9398   4.573  -1.404   4.481  0.1039  0.0066  0.0027
  811MOL0     C 9399   4.665  -1.304   4.452  0.6487  0.1050  0.4240
  811MOL0     N 9400   4.978  -1.129   5.057  0.8002  0.6105  0.0333
  811MOL0     N 9401   5.044  -1.073   5.141  0.4041 -0.1257 -1.2651
  811MOL0     C 9402   4.998  -0.125   5.591  0.0222 -0.6397 -0.7691
  811MOL0     C 9403   4.910  -0.021   5.636  0.0363  0.8224 -0.1064
  811MOL0     C 9404   4.681   0.258   5.935 -0.5620 -0.6341 -0.0528
  811MOL0     C 9405   4.569   0.259   5.858 -0.0012 -0.8510 -0.9835
  811MOL0     C 9406   4.453   0.329   5.905 -0.4750  0.3850  0.3115
  811MOL0     C 9407   4.447   0.384   6.019  0.0816 -0.5865 -0.0242
  811MOL0     O 9408   4.337   0.465   6.044  0.5164  0.8029  0.3664
  811MOL0     C 9409   4.340   0.605   6.006 -0.4835 -0.4971  0.6925
  811MOL0     C 9410   4.285   0.635   5.869 -0.1475 -0.5491 -0.1253
  811MOL0     C 9411   4.138   0.614   5.861 -0.3998  1.3707  0.0836
  811MOL0     C 9412   4.078   0.629   5.714 -0.0348  0.8073 -0.4184
  811MOL0     C 9413   4.042   0.492   5.660 -0.1237  0.1971 -0.0389
  811MOL0     C 9414   4.026   0.392   5.598 -0.9590  0.3945  0.0514
  811MOL0     C 9415   4.559   0.377   6.104  0.1463  0.1195 -0.0849
  811MOL0     C 9416   4.673   0.320   6.063  0.0399  0.6134  0.6916
  811MOL0     C 9417   4.793   0.321   6.158 -0.3334  0.5381  0.4733
  811MOL0     H 9418   4.930  -0.071   5.968 -1.5661  1.3497 -1.7737
  811MOL0     H 9419   5.129  -0.222   5.887 -0.5511  1.0350  1.3782
  811MOL0     H 9420   5.206  -0.404   5.782  2.6357  0.6922 -1.2809
  811MOL0     H 9421   5.067  -0.454   5.681 -0.1242 -0.1944  0.7615
  811MOL0     H 9422   5.368  -0.431   5.589  1.5757 -0.7442  1.5215
  811MOL0     H 9423   5.235  -0.504   5.508  0.8784  2.7825 -0.0105
  811MOL0     H 9424   5.240  -0.683   5.713 -0.5023 -0.9884 -0.9730
  811MOL0     H 9425   5.393  -0.618   5.759 -2.3039 -2.0528  2.6736
  811MOL0     H 9426   5.472  -0.649   5.513  1.2482  0.0424  0.8264
  811MOL0     H 9427   5.460  -0.794   5.603  1.2279 -0.4901 -3.5485
  811MOL0     H 9428   5.252  -0.860   5.543 -1.3906  1.2456  0.3905
  811MOL0     H 9429   5.230  -0.716   5.434 -0.5172  0.0459  0.4470
  811MOL0     H 9430   5.398  -0.777   5.286 -1.6068  0.1177  1.7318
  811MOL0     H 9431   5.457  -0.913   5.389 -1.4900 -3.6753 -1.1519
  811MOL0     H 9432   5.208  -1.005   5.335 -0.7254  0.3324 -1.3524
  811MOL0     H 9433   5.337  -1.013   5.211 -1.4136 -1.5802 -0.6222
  811MOL0     H 9434   5.121  -0.804   5.261  1.1026 -2.2516  3.3030
  811MOL0     H 9435   5.221  -0.791   5.120  1.9550 -1.2074  0.5576
  811MOL0     H 9436   5.113  -0.865   4.897 -0.2159 -0.4661 -0.7188
  811MOL0     H 9437   4.890  -1.196   4.812 -1.6112  0.0083 -2.2525
  811MOL0     H 9438   4.870  -1.027   4.763  0.4628  0.3285  0.5903
  811MOL0     H 9439   5.081  -1.022   4.659 -2.0407 -0.4259 -2.9334
  811MOL0     H 9440   5.142  -1.162   4.734  1.8116  2.0253 -0.5370
  811MOL0     H 9441   4.935  -1.280   4.608 -0.6077  0.1578 -0.9330
  811MOL0     H 9442   5.080  -1.242   4.511  0.0985  1.1541 -1.8573
  811MOL0     H 9443   4.900  -1.194   4.387 -2.6700 -1.3333  1.3736
  811MOL0     H 9444   4.957  -1.032   4.443 -2.0094  0.7034  0.1658
  811MOL0     H 9445   4.642  -1.141   4.754  0.1472 -2.1099  2.0813
  811MOL0     H 9446   4.478  -1.316   4.789 -1.6903  1.1451 -0.8271
  811MOL0     H 9447   4.464  -1.851   4.671  0.1371 -4.8806 -0.1997
  811MOL0     H 9448   4.342  -2.044   4.691  0.8503 -0.0319 -0.9697
  811MOL0     H 9449   4.273  -2.223   4.608  0.6059  0.0317  1.4404
  811MOL0     H 9450   4.153  -2.259   4.736 -1.9214  1.2116 -0.1827
  811MOL0     H 9451   3.984  -2.315   4.542  0.3722 -1.0988 -3.6926
  811MOL0     H 9452   4.128  -2.297   4.441 -1.4636  1.4485  0.7119
  811MOL0     H 9453   4.089  -2.496   4.671 -0.2716 -6.0470 -1.2022
  811MOL0     H 9454   4.037  -2.531   4.509 -0.0551 -1.9645  3.2210
  811MOL0     H 9455   4.331  -2.465   4.576  0.2025 -0.8164  1.8061
  811MOL0     H 9456   4.265  -2.494   4.419  3.3021  2.1035  0.9567
  811MOL0     H 9457   4.194  -2.738   4.523  1.8458 -0.2589 -1.2101
  811MOL0     H 9458   4.264  -2.681   4.670  0.1042  2.5321  0.7134
  811MOL0     H 9459   4.493  -2.683   4.548  1.5980 -1.9736 -0.6194
  811MOL0     H 9460   4.421  -2.833   4.568  1.0474  0.2603 -2.1902
  811MOL0     H 9461   4.382  -2.674   4.302  1.6728  1.0667  0.3193
  811MOL0     H 9462   4.342  -2.839   4.339  1.4400 -1.4573  2.1470
  811MOL0     H 9463   4.625  -2.809   4.402  1.3555 -1.0270 -0.5726
  811MOL0     H 9464   4.539  -2.906   4.294  2.1051 -0.2656  1.0046
  811MOL0     H 9465   4.010  -1.883   4.492 -0.2571  3.2097 -0.0402
  811MOL0     H 9466   4.131  -1.671   4.456  1.4644 -0.2421 -1.5023
  811MOL0     H 9467   4.559  -1.477   4.401 -2.1702 -1.2512  1.4342
  811MOL0     H 9468   4.723  -1.303   4.360 -2.7366 -1.4835 -1.9995
  811MOL0     H 9469   5.001  -0.142   5.484 -0.3895  3.8469 -1.6987
  811MOL0     H 9470   4.848   0.032   5.565  0.7131  4.0244  1.5090
  811MOL0     H 9471   4.556   0.225   5.756  1.2875  1.4201 -1.9782
  811MOL0     H 9472   4.370   0.337   5.836 -0.2621  0.8357  0.1030
  811MOL0     H 9473   4.441   0.648   5.998 -1.9800  3.2097 -0.1025
  811MOL0     H 9474   4.288   0.665   6.081 -0.5926  0.4788 -0.1454
  811MOL0     H 9475   4.345   0.566   5.810  0.8809 -0.6004  0.9344
  811MOL0     H 9476   4.310   0.737   5.838 -1.1133 -1.1347 -3.1535
  811MOL0     H 9477   4.093   0.685   5.931 -0.6357 -1.2160  2.7522
  811MOL0     H 9478   4.117   0.518   5.910  0.2076  1.6602  0.9274
  811MOL0     H 9479   3.983   0.675   5.743 -1.3035 -1.5536 -0.5435
  811MOL0     H 9480   4.144   0.695   5.657  0.5814  0.6734  0.1339
  811MOL0     H 9481   4.006   0.305   5.539  1.4497  0.0919 -0.4148
  811MOL0     H 9482   4.554   0.419   6.204 -3.4393 -1.5296  0.5861
  811MOL0     H 9483   4.870   0.387   6.117 -0.4583 -0.4693 -1.5237
  811MOL0     H 9484   4.770   0.359   6.258  0.0690  1.3104  0.2821
  811MOL0     H 9485   4.842   0.225   6.176  0.9182  1.0186 -0.2816
  812MOL0     O 9486   8.508   2.459  10.906  1.0694  0.5133 -0.3942
  812MOL0     C 9487   8.496   2.537  10.817 -0.1378 -0.2778 -0.6931
  812MOL0     O 9488   8.508   2.672  10.835  0.7901 -0.0796 -1.2073
  812MOL0     C 9489   8.447   2.739  10.938 -1.1850 -0.2677 -0.4670
  812MOL0     C 9490   8.463   2.884  10.931 -0.8545  0.6497  0.3903
  812MOL0     C 9491   8.415   2.969  11.034 -0.1835 -0.7348  0.8238
  812MOL0     C 9492   8.331   2.915  11.134 -0.4688  0.5880  0.5063
  812MOL0     O 9493   8.261   2.972  11.230 -0.2725  0.1111 -0.2145
  812MOL0     C 9494   8.285   3.112  11.258  0.2330 -0.5585  0.5109
  812MOL0     C 9495   8.204   3.164  11.369 -0.2648  0.0746  0.1644
  812MOL0     C 9496   8.245   3.116  11.511  0.0435  0.4507  0.1558
  812MOL0     C 9497   8.135   3.162  11.618  1.5624  0.5124 -0.2484
  812MOL0     C 9498   8.163   3.127  11.761  0.1384  0.2796  1.1641
  812MOL0     C 9499   8.029   3.153  11.829  0.6726  0.3664  0.1782
  812MOL0     C 9500   7.925   3.033  11.799  0.8136 -0.6423 -0.7608
  812MOL0     C 9501   7.826   3.026  11.929  0.7383  0.3719  0.0561
  812MOL0     N 9502   7.703   2.939  11.914 -1.1497  0.7877  0.6960
  812MOL0     C 9503   7.575   2.982  11.886  1.1151 -0.4028  0.9084
  812MOL0     C 9504   7.490   2.881  11.911  0.1366 -0.1145  0.2299
  812MOL0     C 9505   7.341   2.874  11.895 -0.1390  0.8948  0.2527
  812MOL0     C 9506   7.287   2.768  12.005  0.4034 -0.0906  1.2728
  812MOL0     C 9507   7.142   2.733  11.973 -0.1762 -0.2215 -0.4067
  812MOL0     C 9508   7.055   2.842  12.013 -0.4639 -0.7784 -0.5402
  812MOL0     O 9509   6.921   2.814  11.981  0.4519 -0.2001  0.1911
  812MOL0     C 9510   6.827   2.901  12.024 -0.2274 -0.4584  0.7666
  812MOL0     C 9511   6.705   2.881  11.960 -0.3310 -0.5891  0.7884
  812MOL0     C 9512   6.604   2.969  11.991  0.6486 -0.7458 -0.5467
  812MOL0     C 9513   6.614   3.070  12.087  0.3135  0.5902 -0.0369
  812MOL0     C 9514   6.495   3.151  12.122 -0.3407  0.7960 -0.4146
  812MOL0     O 9515   6.395   3.152  12.030 -0.1101  0.2153  0.2485
  812MOL0     C 9516   6.290   3.226  12.054  0.6191  0.2461  0.4338
  812MOL0     C 9517   6.251   3.320  11.955  0.5692  0.4728  0.4636
  812MOL0     C 9518   6.127   3.383  11.979 -0.2680  0.3303 -0.5783
  812MOL0     C 9519   6.056   3.365  12.100  0.2613 -0.9086  0.4342
  812MOL0     O 9520   5.930   3.411  12.103 -0.6808 -0.7331  0.1463
  812MOL0     C 9521   5.911   3.543  12.055  1.0710 -0.3543  0.9441
  812MOL0     C 9522   5.763   3.579  12.060  0.3719  0.2975  0.0027
  812MOL0     C 9523   5.753   3.725  12.100 -0.2543 -1.4786  0.8762
  812MOL0     C 9524   5.606   3.772  12.098  0.7870  0.2408 -0.3208
  812MOL0     C 9525   5.597   3.925  12.072 -0.8871  0.2734 -0.0678
  812MOL0     C 9526   5.604   3.971  11.927 -0.3337 -1.2778  0.6504
  812MOL0     C 9527   5.587   4.123  11.914  0.2326 -0.2779  0.4972
  812MOL0     C 9528   5.581   4.170  11.774 -0.7239  0.1776  0.3296
  812MOL0    Cl 9529   5.550   4.346  11.781  0.1072 -0.4158  0.2538
  812MOL0     C 9530   6.106   3.283  12.195  1.8698  0.6392 -0.8036
  812MOL0     C 9531   6.212   3.198  12.173  0.3318 -0.9346 -0.5784
  812MOL0     O 9532   6.488   3.203  12.231  0.8395 -0.0904 -0.4543
  812MOL0     C 9533   6.733   3.072  12.161  0.1038  0.1522 -0.4485
  812MOL0     C 9534   6.844   2.993  12.126  0.3128  0.3281 -1.0139
  812MOL0     N 9535   7.571   2.781  11.974  0.3972 -0.1467  0.1863
  812MOL0     N 9536   7.696   2.807  11.956  0.6056 -0.1845 -0.2702
  812MOL0     C 9537   8.308   2.777  11.133  0.0730  0.7063 -0.2231
  812MOL0     C 9538   8.365   2.686  11.038  0.0326  0.7987 -0.0807
  812MOL0     C 9539   8.470   2.483  10.681 -1.5312 -0.8854 -0.0750
  812MOL0     C 9540   8.391   2.573  10.599  0.2502  0.1536 -0.4328
  812MOL0     C 9541   8.389   2.550  10.467 -0.3488 -0.5463 -0.1374
  812MOL0     C 9542   8.439   2.435  10.407  0.7901  0.1939 -0.9681
  812MOL0     O 9543   8.419   2.422  10.275 -0.2395 -0.5680 -0.4929
  812MOL0     C 9544   8.494   2.325  10.212 -0.6116  0.2975  0.6375
  812MOL0     C 9545   8.491   2.345  10.060  0.4140  0.3495 -0.0008
  812MOL0     C 9546   8.596   2.433  10.004  0.3050 -0.3819 -0.5960
  812MOL0     C 9547   8.721   2.353   9.962  0.4296 -0.8248  0.6929
  812MOL0     C 9548   8.841   2.438   9.940  0.8916 -0.1253  0.1465
  812MOL0     C 9549   8.940   2.508   9.939 -0.5451  0.7545  0.6045
  812MOL0     C 9550   8.500   2.340  10.487 -0.3493  0.6776  0.8951
  812MOL0     C 9551   8.513   2.356  10.626 -0.0904  0.1710 -1.3356
  812MOL0     C 9552   8.604   2.262  10.705  0.2911  1.0691  0.1574
  812MOL0     H 9553   8.503   2.921  10.837  0.3583 -5.6148 -2.0311
  812MOL0     H 9554   8.411   3.077  11.028  1.5212 -0.6424  1.0624
  812MOL0     H 9555   8.385   3.142  11.291 -0.9468  1.8516  2.2430
  812MOL0     H 9556   8.265   3.176  11.172 -4.2312  0.2244  1.8840
  812MOL0     H 9557   8.097   3.138  11.368 -0.2994  0.0229  1.6362
  812MOL0     H 9558   8.211   3.272  11.362  0.6097 -0.0990 -2.6360
  812MOL0     H 9559   8.342   3.157  11.540  0.3437  0.8998 -1.4182
  812MOL0     H 9560   8.247   3.007  11.522 -1.4021  0.2460 -1.3410
  812MOL0     H 9561   8.124   3.271  11.615 -0.7015  0.4263  1.8825
  812MOL0     H 9562   8.040   3.118  11.586  0.6056  0.0113  2.9654
  812MOL0     H 9563   8.179   3.021  11.780 -2.1369 -0.3272  0.0474
  812MOL0     H 9564   8.248   3.190  11.787  0.9659  0.1323 -0.9509
  812MOL0     H 9565   8.037   3.165  11.938 -0.3327  3.8192 -0.0219
  812MOL0     H 9566   7.977   3.244  11.798  1.6950  1.8371  2.4747
  812MOL0     H 9567   7.975   2.936  11.801 -2.0427 -2.2565  1.9505
  812MOL0     H 9568   7.868   3.055  11.709 -0.2202 -0.0190  0.0213
  812MOL0     H 9569   7.894   2.986  12.005  2.5905  2.6863 -0.2749
  812MOL0     H 9570   7.796   3.125  11.964 -0.2666  0.9476 -2.2345
  812MOL0     H 9571   7.558   3.084  11.854  0.1839 -0.4303  1.3046
  812MOL0     H 9572   7.293   2.972  11.900  0.2900  1.0338  2.4943
  812MOL0     H 9573   7.316   2.822  11.802 -1.2861 -1.4508  1.7945
  812MOL0     H 9574   7.345   2.676  11.994  2.0743  0.8637  1.7241
  812MOL0     H 9575   7.310   2.802  12.106  0.1273 -0.0565  1.3251
  812MOL0     H 9576   7.113   2.643  12.028  1.1318 -0.9827 -0.9127
  812MOL0     H 9577   7.128   2.703  11.869  1.4294 -4.1881  0.3653
  812MOL0     H 9578   7.080   2.936  11.963 -1.3416  0.7245  1.6992
  812MOL0     H 9579   7.072   2.847  12.120 -0.4758 -3.9338 -0.3040
  812MOL0     H 9580   6.705   2.804  11.883 -0.9348  0.9877 -0.8739
  812MOL0     H 9581   6.505   2.949  11.951  1.3351 -2.1839 -1.6388
  812MOL0     H 9582   6.313   3.334  11.867 -1.3808 -4.8269 -2.2264
  812MOL0     H 9583   6.102   3.444  11.892  1.1982 -1.6822 -2.5164
  812MOL0     H 9584   5.966   3.619  12.111  3.0094 -0.1450 -1.0577
  812MOL0     H 9585   5.935   3.560  11.949  0.7491 -0.1963  0.8952
  812MOL0     H 9586   5.706   3.570  11.968 -1.5209  1.6569  0.9915
  812MOL0     H 9587   5.723   3.521  12.143  1.8586  1.2786  1.4798
  812MOL0     H 9588   5.791   3.745  12.200  0.6569 -0.3667  0.3237
  812MOL0     H 9589   5.803   3.780  12.020 -0.7566 -1.2741  0.7021
  812MOL0     H 9590   5.555   3.743  12.191 -0.5374 -0.8001 -1.3334
  812MOL0     H 9591   5.567   3.733  12.004 -0.2833 -2.6583  1.1885
  812MOL0     H 9592   5.679   3.964  12.132 -0.2828 -0.8658 -0.1292
  812MOL0     H 9593   5.500   3.959  12.110 -0.6483  0.4089  0.4359
  812MOL0     H 9594   5.696   3.934  11.881 -1.1624 -3.1586  0.4236
  812MOL0     H 9595   5.519   3.927  11.875 -1.1516  2.9985 -2.1439
  812MOL0     H 9596   5.670   4.172  11.966  0.6620  1.9828 -2.0666
  812MOL0     H 9597   5.497   4.161  11.964  2.0144  3.2606  1.3566
  812MOL0     H 9598   5.684   4.155  11.741 -0.9445 -1.2325  0.2009
  812MOL0     H 9599   5.515   4.116  11.705 -1.1149  0.8615  0.1575
  812MOL0     H 9600   6.055   3.255  12.287  0.5391 -2.4862 -2.3800
  812MOL0     H 9601   6.239   3.130  12.253 -0.6379  0.7678  1.2757
  812MOL0     H 9602   6.743   3.152  12.233  1.8147 -1.5828  1.3733
  812MOL0     H 9603   6.934   3.006  12.185 -0.4488 -1.6699  0.7379
  812MOL0     H 9604   8.239   2.732  11.204 -1.4222  2.5953 -0.3846
  812MOL0     H 9605   8.347   2.579  11.044  0.2872  0.6912 -0.9894
  812MOL0     H 9606   8.350   2.665  10.638 -1.5482  0.4160 -2.6789
  812MOL0     H 9607   8.331   2.610  10.398 -1.8827 -1.4942  0.2778
  812MOL0     H 9608   8.469   2.222  10.242  3.1525 -1.1652 -0.6855
  812MOL0     H 9609   8.600   2.332  10.237  0.3000  0.6616 -2.7565
  812MOL0     H 9610   8.395   2.397  10.055  0.2085  0.0287  0.5261
  812MOL0     H 9611   8.490   2.246  10.012 -0.2011 -0.3783  1.4504
  812MOL0     H 9612   8.622   2.508  10.078  2.3172 -1.4075 -0.1663
  812MOL0     H 9613   8.551   2.489   9.922  3.0489  5.4023  1.3480
  812MOL0     H 9614   8.744   2.284  10.043 -0.4330  0.1225  1.7732
  812MOL0     H 9615   8.691   2.294   9.875  2.8229 -3.1193  1.2897
  812MOL0     H 9616   9.024   2.573   9.950 -1.1335  1.2476  2.8567
  812MOL0     H 9617   8.541   2.247  10.451 -2.0276 -1.0466  3.1091
  812MOL0     H 9618   8.708   2.297  10.707  1.3353 -1.5704  4.0252
  812MOL0     H 9619   8.567   2.245  10.807  1.5500  0.7585  0.5803
  812MOL0     H 9620   8.604   2.163  10.658  1.7926  0.1785  1.8746
  813MOL0     O 9621   8.619   4.378  11.208  0.3788  0.1783  0.5204
  813MOL0     C 9622   8.536   4.415  11.289 -0.8417 -0.2633  0.0860
  813MOL0     O 9623   8.516   4.366  11.410 -0.6399  0.1805  0.2853
  813MOL0     C 9624   8.572   4.246  11.429  0.3970  0.2291 -0.4081
  813MOL0     C 9625   8.521   4.133  11.370  0.3306 -0.8363 -0.5165
  813MOL0     C 9626   8.590   4.011  11.372 -0.1120 -0.8257  0.8572
  813MOL0     C 9627   8.703   4.001  11.449 -0.7794  0.6614  0.6181
  813MOL0     O 9628   8.763   3.877  11.463 -0.2623  0.3205  0.5147
  813MOL0     C 9629   8.892   3.856  11.502 -0.2512 -0.2945 -0.4752
  813MOL0     C 9630   8.919   3.704  11.498  0.3996  0.2580  0.5171
  813MOL0     C 9631   8.807   3.627  11.576 -0.2549  0.0350 -0.5051
  813MOL0     C 9632   8.832   3.478  11.574 -0.4023  0.4502 -0.7912
  813MOL0     C 9633   8.811   3.410  11.716 -0.2496 -0.2280  0.1544
  813MOL0     C 9634   8.793   3.255  11.694 -1.3377  0.2197  0.3928
  813MOL0     C 9635   8.760   3.197  11.832 -0.0440 -0.2029 -0.0812
  813MOL0     C 9636   8.607   3.156  11.830 -0.0934  0.3871 -0.2512
  813MOL0     N 9637   8.521   3.272  11.820 -0.9491 -0.5860 -0.1127
  813MOL0     C 9638   8.470   3.348  11.929 -0.9413 -0.2417  0.2504
  813MOL0     C 9639   8.395   3.448  11.873  0.4693 -0.6280 -0.2274
  813MOL0     C 9640   8.323   3.552  11.944  0.0888 -0.5626 -0.1832
  813MOL0     C 9641   8.180   3.508  11.966 -0.3585 -0.1295 -0.0675
  813MOL0     C 9642   8.098   3.533  11.847 -0.4280  0.2913  0.5853
  813MOL0     C 9643   8.036   3.673  11.863 -0.2280  0.6875  0.5478
  813MOL0     O 9644   7.959   3.684  11.740  0.6454  0.5717  1.0033
  813MOL0     C 9645   7.848   3.770  11.742 -0.2071  0.2232  0.2944
  813MOL0     C 9646   7.762   3.775  11.631 -0.1779  0.4096 -0.0315
  813MOL0     C 9647   7.644   3.860  11.636 -0.3268  0.7407  0.3540
  813MOL0     C 9648   7.614   3.939  11.750  0.0695 -0.9322  0.2420
  813MOL0     C 9649   7.489   4.022  11.744 -0.0114 -0.3727  1.5881
  813MOL0     O 9650   7.463   4.088  11.861 -0.1553 -0.1524  0.1772
  813MOL0     C 9651   7.352   4.162  11.873 -0.1374 -0.6406  0.4566
  813MOL0     C 9652   7.230   4.109  11.911  0.4684 -0.3786 -1.3116
  813MOL0     C 9653   7.119   4.193  11.914 -0.3786 -0.6070 -0.4263
  813MOL0     C 9654   7.118   4.327  11.883 -0.3243 -0.1108  0.3515
  813MOL0     O 9655   7.005   4.406  11.898 -0.1079  0.4845 -0.0275
  813MOL0     C 9656   6.991   4.543  11.857  0.5523 -0.1927 -0.1005
  813MOL0     C 9657   6.840   4.581  11.884  0.0695 -0.4154  0.2702
  813MOL0     C 9658   6.799   4.559  12.027 -1.4833  0.6534 -0.4356
  813MOL0     C 9659   6.666   4.628  12.051  0.2601  0.0139 -0.3206
  813MOL0     C 9660   6.632   4.629  12.196  0.5946 -0.0201 -0.0370
  813MOL0     C 9661   6.476   4.653  12.209 -0.5330  1.2589 -0.0957
  813MOL0     C 9662   6.381   4.530  12.188  0.4763  0.3151 -0.0694
  813MOL0     C 9663   6.413   4.410  12.278 -1.2182 -0.6590  1.7301
  813MOL0    Cl 9664   6.272   4.304  12.295 -0.2649 -0.3904  0.0310
  813MOL0     C 9665   7.243   4.373  11.822  0.1954 -0.7414  0.4878
  813MOL0     C 9666   7.354   4.295  11.830 -0.7733 -0.9115 -0.7211
  813MOL0     O 9667   7.426   4.025  11.642  0.0840 -0.3503  0.0090
  813MOL0     C 9668   7.704   3.936  11.858  0.0487  0.2765  0.0303
  813MOL0     C 9669   7.820   3.859  11.847 -1.1558 -0.1562 -0.5741
  813MOL0     N 9670   8.399   3.422  11.735  0.3881 -0.0681  0.1083
  813MOL0     N 9671   8.471   3.319  11.708 -0.2399 -0.5946  0.0967
  813MOL0     C 9672   8.752   4.105  11.525 -0.7892 -0.7531  1.1094
  813MOL0     C 9673   8.687   4.235  11.507 -0.2781 -0.0272  0.0482
  813MOL0     C 9674   8.447   4.532  11.259  0.4655  0.3845  0.3782
  813MOL0     C 9675   8.508   4.644  11.193 -0.4804 -0.7326 -0.7244
  813MOL0     C 9676   8.440   4.754  11.175 -1.1376 -0.8459  0.5315
  813MOL0     C 9677   8.309   4.766  11.192  0.4162 -0.5226 -0.4130
  813MOL0     O 9678   8.255   4.891  11.174 -0.8418  0.6473 -0.1835
  813MOL0     C 9679   8.132   4.901  11.102  0.0540 -1.0690 -1.0985
  813MOL0     C 9680   8.099   5.052  11.122 -0.1912  1.1594 -0.0203
  813MOL0     C 9681   7.989   5.108  11.027 -0.5054 -0.1256 -0.0098
  813MOL0     C 9682   8.018   5.103  10.882 -0.1686  0.4319  0.2182
  813MOL0     C 9683   7.934   5.189  10.804  0.1345 -0.3022 -0.2338
  813MOL0     C 9684   7.883   5.266  10.730 -0.8383 -0.2374  0.1322
  813MOL0     C 9685   8.236   4.656  11.235 -0.1307  0.1239 -1.0831
  813MOL0     C 9686   8.302   4.540  11.286 -0.1203  0.0461 -0.1080
  813MOL0     C 9687   8.225   4.431  11.352 -0.0332 -0.3660  0.0846
  813MOL0     H 9688   8.431   4.139  11.309 -0.2482 -1.1407  0.2756
  813MOL0     H 9689   8.547   3.926  11.320 -3.9576  1.8614 -0.8246
  813MOL0     H 9690   8.960   3.915  11.439  0.1793  2.1239  2.0647
  813MOL0     H 9691   8.909   3.887  11.605 -3.1187  0.8911 -0.2701
  813MOL0     H 9692   9.016   3.680  11.541 -0.2511  0.1350  1.9566
  813MOL0     H 9693   8.937   3.672  11.395  0.4402  2.6194 -0.2710
  813MOL0     H 9694   8.703   3.651  11.552 -0.9404 -0.3056  1.8461
  813MOL0     H 9695   8.804   3.662  11.680 -5.6054  1.1080 -0.7250
  813MOL0     H 9696   8.772   3.430  11.497  1.6515 -2.1488 -0.9137
  813MOL0     H 9697   8.937   3.478  11.541 -0.4222 -0.2508 -0.8710
  813MOL0     H 9698   8.892   3.443  11.782 -1.2567  2.6352  0.1246
  813MOL0     H 9699   8.720   3.447  11.766 -1.5189 -0.5645 -1.8033
  813MOL0     H 9700   8.724   3.225  11.615  1.5150  0.2053 -2.2777
  813MOL0     H 9701   8.881   3.214  11.643 -1.5929  1.2268 -0.9226
  813MOL0     H 9702   8.770   3.260  11.921 -3.0477 -0.2417  0.3751
  813MOL0     H 9703   8.830   3.113  11.837 -1.5319 -1.4408  0.8653
  813MOL0     H 9704   8.593   3.090  11.744  0.4664 -0.5741  0.3661
  813MOL0     H 9705   8.590   3.096  11.921  0.9381  0.7867  0.2274
  813MOL0     H 9706   8.494   3.335  12.034 -0.8369 -0.1591  0.2364
  813MOL0     H 9707   8.368   3.591  12.036 -0.0380  1.9125 -1.0815
  813MOL0     H 9708   8.321   3.633  11.871 -0.8893  0.2395  0.6963
  813MOL0     H 9709   8.180   3.403  11.997 -1.4257 -0.1319 -0.0406
  813MOL0     H 9710   8.138   3.570  12.045 -0.1957 -0.1526  0.0363
  813MOL0     H 9711   8.024   3.453  11.838  3.0688 -2.9633 -2.7335
  813MOL0     H 9712   8.154   3.522  11.754 -1.1894 -1.8898  0.3230
  813MOL0     H 9713   8.112   3.749  11.882  1.6256 -0.4741 -1.6562
  813MOL0     H 9714   7.958   3.662  11.939 -1.2712 -3.0673 -0.8013
  813MOL0     H 9715   7.781   3.724  11.538 -3.7853 -0.6198 -0.3695
  813MOL0     H 9716   7.575   3.862  11.552  0.4859  2.9267 -0.3077
  813MOL0     H 9717   7.220   4.007  11.946  1.6122  0.3474  1.3722
  813MOL0     H 9718   7.029   4.157  11.963  0.4968 -1.4524  0.6073
  813MOL0     H 9719   7.044   4.604  11.930  0.6634  2.2327 -2.0742
  813MOL0     H 9720   7.028   4.557  11.755  0.8930  0.8766  0.1599
  813MOL0     H 9721   6.831   4.689  11.868 -1.4509 -0.5920 -0.2315
  813MOL0     H 9722   6.778   4.528  11.812  0.9995  0.1841 -1.0080
  813MOL0     H 9723   6.794   4.451  12.040  2.1968  0.5955  1.9734
  813MOL0     H 9724   6.880   4.600  12.090  1.2661 -3.5483 -0.8430
  813MOL0     H 9725   6.589   4.577  11.993 -1.5900  0.8799  1.2498
  813MOL0     H 9726   6.671   4.726  12.001  0.3046 -0.0256 -0.3939
  813MOL0     H 9727   6.695   4.704  12.244  0.2448  1.2691 -1.5288
  813MOL0     H 9728   6.656   4.537  12.250  1.8179  1.1356  1.5068
  813MOL0     H 9729   6.454   4.698  12.307  4.6869  3.6914  0.3194
  813MOL0     H 9730   6.446   4.728  12.135 -4.0494 -1.7651 -2.0208
  813MOL0     H 9731   6.375   4.495  12.085  1.9451 -3.2862  0.9140
  813MOL0     H 9732   6.279   4.558  12.215 -0.2353 -2.6368  0.6076
  813MOL0     H 9733   6.504   4.363  12.241  1.2526  1.2329  4.8449
  813MOL0     H 9734   6.445   4.437  12.379 -0.7300 -0.0730  1.4215
  813MOL0     H 9735   7.270   4.471  11.784  3.5055 -2.0584 -0.9990
  813MOL0     H 9736   7.452   4.334  11.805 -0.2347  0.0526  2.5303
  813MOL0     H 9737   7.693   3.995  11.949 -1.0097  3.5462 -2.0486
  813MOL0     H 9738   7.888   3.867  11.932 -1.8995  0.2094  0.0010
  813MOL0     H 9739   8.843   4.102  11.586 -0.7482 -0.9136  1.0419
  813MOL0     H 9740   8.737   4.321  11.550  0.6322  0.8674 -2.5789
  813MOL0     H 9741   8.611   4.635  11.161 -0.2090 -2.9829  0.5522
  813MOL0     H 9742   8.487   4.840  11.127  0.4502 -2.0010 -0.0391
  813MOL0     H 9743   8.060   4.837  11.154  2.8743 -0.0100  5.0211
  813MOL0     H 9744   8.142   4.877  10.996 -0.2851 -3.4489 -0.6522
  813MOL0     H 9745   8.192   5.109  11.110  0.2273  0.0478 -2.6003
  813MOL0     H 9746   8.060   5.063  11.224 -1.4628  2.9735 -0.6494
  813MOL0     H 9747   7.984   5.213  11.057 -2.6260  0.9992 -3.6490
  813MOL0     H 9748   7.892   5.059  11.039 -1.6613  1.0811 -3.3476
  813MOL0     H 9749   8.118   5.148  10.872  1.0801 -1.1251  4.0323
  813MOL0     H 9750   8.012   5.003  10.837  1.2378 -1.3562  3.6536
  813MOL0     H 9751   7.845   5.322  10.647 -0.5361 -1.1602 -0.6520
  813MOL0     H 9752   8.128   4.664  11.246 -0.0205 -1.0270  1.7103
  813MOL0     H 9753   8.142   4.397  11.289 -0.5843 -1.9076  1.5694
  813MOL0     H 9754   8.291   4.346  11.372 -0.8935 -0.9034  0.7496
  813MOL0     H 9755   8.190   4.463  11.451  1.2804 -0.9031  0.7459
  814MOL0     O 9756   2.749   9.693   6.923 -0.7618 -0.0173  0.4900
  814MOL0     C 9757   2.858   9.642   6.924 -0.8518 -1.5769 -0.6618
  814MOL0     O 9758   2.968   9.688   6.991  0.5024  0.6516 -0.2551
  814MOL0     C 9759   2.961   9.805   7.058 -0.5294 -0.5384 -0.5050
  814MOL0     C 9760   3.044   9.906   7.016  0.7170 -0.3746  0.0945
  814MOL0     C 9761   3.047  10.028   7.077 -0.2897  0.5206  0.1040
  814MOL0     C 9762   2.955  10.056   7.180  0.1926 -0.0641  0.1090
  814MOL0     O 9763   2.963  10.190   7.227 -0.0478  0.5637  0.2704
  814MOL0     C 9764   2.896  10.211   7.355 -0.9797 -0.6582  0.1248
  814MOL0     C 9765   2.913  10.359   7.391  0.4796  0.3468  0.5968
  814MOL0     C 9766   2.834  10.377   7.525  0.4496 -0.5674  0.0852
  814MOL0     C 9767   2.684  10.410   7.511 -0.2241 -0.2673  0.6757
  814MOL0     C 9768   2.622  10.450   7.647 -0.3619 -0.1801  1.1780
  814MOL0     C 9769   2.469  10.456   7.648 -0.1124  0.1898 -0.4624
  814MOL0     C 9770   2.407  10.573   7.567 -0.0659  0.5479 -0.1556
  814MOL0     C 9771   2.464  10.705   7.609  0.2988  0.2676 -0.2704
  814MOL0     N 9772   2.403  10.810   7.533  0.4716  0.1662  0.3344
  814MOL0     C 9773   2.385  10.810   7.394 -0.2736  0.7742  0.4993
  814MOL0     C 9774   2.316  10.921   7.368  0.1013  0.0154 -0.0231
  814MOL0     C 9775   2.262  10.965   7.236  0.1214 -0.4591 -0.8065
  814MOL0     C 9776   2.111  10.946   7.240 -0.5604  0.6829 -0.3145
  814MOL0     C 9777   2.026  11.050   7.320  0.4757  1.0840  0.1766
  814MOL0     C 9778   1.874  11.002   7.328  0.2449  0.0511 -0.4892
  814MOL0     O 9779   1.820  11.001   7.198 -0.0730 -0.0303 -0.2829
  814MOL0     C 9780   1.685  10.982   7.193  0.4015  0.0928 -1.3206
  814MOL0     C 9781   1.641  10.954   7.066 -0.0555  0.0856 -0.2707
  814MOL0     C 9782   1.502  10.944   7.046 -0.7285  0.2775 -0.6346
  814MOL0     C 9783   1.409  10.929   7.149 -0.0173 -0.6728 -0.2699
  814MOL0     C 9784   1.270  10.901   7.123  0.5566 -0.1184  0.5791
  814MOL0     O 9785   1.234  10.921   6.992  0.7114  0.4546  0.1553
  814MOL0     C 9786   1.165  10.826   6.914 -0.3434 -0.0581  0.4528
  814MOL0     C 9787   1.117  10.711   6.976  0.8294  0.5695  0.2241
  814MOL0     C 9788   1.058  10.613   6.895 -0.4571  0.2595 -0.1862
  814MOL0     C 9789   1.058  10.622   6.760 -0.1043 -0.5742  0.7938
  814MOL0     O 9790   1.008  10.518   6.686 -0.7313 -0.0454 -0.3159
  814MOL0     C 9791   0.960  10.539   6.555  0.9821  0.5272 -0.7990
  814MOL0     C 9792   0.944  10.392   6.493  0.0091 -0.9829  0.5422
  814MOL0     C 9793   1.050  10.294   6.539 -0.8829  0.0435 -0.0342
  814MOL0     C 9794   1.103  10.210   6.423  1.2611 -1.0343  0.6131
  814MOL0     C 9795   1.157  10.073   6.448 -0.9520 -0.2743 -0.8036
  814MOL0     C 9796   1.282  10.077   6.531  0.3288 -0.5002  0.4161
  814MOL0     C 9797   1.343   9.944   6.566 -0.2602  0.3585 -0.3985
  814MOL0     C 9798   1.481   9.951   6.642  0.7602  0.2804 -0.2785
  814MOL0    Cl 9799   1.556   9.780   6.677  0.2115 -0.1173 -0.0401
  814MOL0     C 9800   1.092  10.748   6.696  0.1939  0.1010 -0.7901
  814MOL0     C 9801   1.142  10.853   6.783  0.5356 -0.6917  1.1555
  814MOL0     O 9802   1.199  10.895   7.222 -0.8901 -0.0354 -0.5119
  814MOL0     C 9803   1.460  10.943   7.278  0.2626 -0.3080 -1.0862
  814MOL0     C 9804   1.595  10.971   7.308 -1.0288  1.2777  0.3221
  814MOL0     N 9805   2.282  10.985   7.486  0.0745  0.0874 -0.9792
  814MOL0     N 9806   2.343  10.917   7.581 -0.1799 -0.1689  0.5699
  814MOL0     C 9807   2.860   9.956   7.223 -0.1070 -0.5354 -1.3954
  814MOL0     C 9808   2.868   9.830   7.162 -0.3108  0.0350  0.6936
  814MOL0     C 9809   2.895   9.537   6.826  0.9251  0.7496 -0.2374
  814MOL0     C 9810   3.025   9.527   6.788 -0.5015 -0.9841  1.0134
  814MOL0     C 9811   3.084   9.425   6.716 -0.1842 -0.0417  0.3267
  814MOL0     C 9812   2.998   9.317   6.683 -0.5420 -0.0937  0.8142
  814MOL0     O 9813   3.033   9.197   6.629  0.0709  0.5525  0.0847
  814MOL0     C 9814   3.149   9.173   6.553 -0.2597  0.3980  0.9188
  814MOL0     C 9815   3.149   9.247   6.417  0.0280 -0.3941  0.4809
  814MOL0     C 9816   3.053   9.193   6.310 -0.8505  0.1153  0.4989
  814MOL0     C 9817   3.032   9.297   6.196  0.2144 -0.1609 -0.5223
  814MOL0     C 9818   3.148   9.313   6.106 -0.1108 -0.5867  0.4388
  814MOL0     C 9819   3.228   9.337   6.026 -0.3662  0.5658 -0.1697
  814MOL0     C 9820   2.863   9.319   6.724  0.5810 -0.5757  0.0377
  814MOL0     C 9821   2.807   9.431   6.791 -1.1380  0.6189 -0.8405
  814MOL0     C 9822   2.672   9.417   6.845  0.6545  0.4038  0.0494
  814MOL0     H 9823   3.112   9.873   6.938  1.7665  1.2471  0.2789
  814MOL0     H 9824   3.119  10.103   7.046  3.0511 -0.6211  4.1441
  814MOL0     H 9825   2.790  10.187   7.355 -0.4479 -3.3576  0.4070
  814MOL0     H 9826   2.942  10.159   7.440  0.0432  1.6383  1.0670
  814MOL0     H 9827   2.867  10.424   7.315 -2.6687 -0.8684  1.2776
  814MOL0     H 9828   3.016  10.382   7.417  0.5270  0.0515  0.6689
  814MOL0     H 9829   2.877  10.458   7.585  0.3800  0.0850 -0.7256
  814MOL0     H 9830   2.827  10.281   7.577  0.9851 -0.3065  0.6588
  814MOL0     H 9831   2.670  10.488   7.436  0.4729 -1.6877 -0.9996
  814MOL0     H 9832   2.628  10.323   7.477 -0.1122 -0.7813  1.7386
  814MOL0     H 9833   2.645  10.384   7.731 -0.5129 -1.9229 -0.1018
  814MOL0     H 9834   2.665  10.545   7.682  1.0600 -0.0092 -0.8915
  814MOL0     H 9835   2.424  10.361   7.617 -0.3581 -0.1804  0.9618
  814MOL0     H 9836   2.429  10.467   7.749  1.1835  4.0842 -0.2085
  814MOL0     H 9837   2.303  10.591   7.593 -0.7854 -1.6413 -1.2406
  814MOL0     H 9838   2.425  10.562   7.460 -1.9621  2.2116 -0.6878
  814MOL0     H 9839   2.441  10.710   7.716  0.5778 -0.6161 -0.1617
  814MOL0     H 9840   2.572  10.712   7.589  0.3579 -0.1309 -0.0939
  814MOL0     H 9841   2.417  10.742   7.315  0.8506  0.7990  0.9139
  814MOL0     H 9842   2.281  11.073   7.238 -0.1568 -0.4024 -1.1289
  814MOL0     H 9843   2.319  10.917   7.156  2.1618 -0.4379  0.5613
  814MOL0     H 9844   2.074  10.934   7.138  1.6976  0.6520 -1.1934
  814MOL0     H 9845   2.085  10.850   7.285  3.6215 -0.2898  0.4209
  814MOL0     H 9846   2.027  11.145   7.265  1.0966  1.5628  1.0023
  814MOL0     H 9847   2.070  11.065   7.419 -2.1049  4.2377  1.0110
  814MOL0     H 9848   1.824  11.078   7.388  1.4247  0.3516  0.1467
  814MOL0     H 9849   1.854  10.906   7.377  0.1539  1.0015  1.3775
  814MOL0     H 9850   1.711  10.937   6.984 -1.7331 -0.1735 -1.6997
  814MOL0     H 9851   1.463  10.927   6.946 -1.6270 -2.2166  0.0656
  814MOL0     H 9852   1.135  10.690   7.081  0.9944  0.6282  0.2075
  814MOL0     H 9853   1.016  10.520   6.932 -0.6967  0.8472  1.0642
  814MOL0     H 9854   0.859  10.581   6.566  0.8858  0.1808 -0.3125
  814MOL0     H 9855   1.024  10.599   6.489 -0.2708  2.1664 -0.5950
  814MOL0     H 9856   0.845  10.352   6.517 -1.6913  1.3398 -1.9153
  814MOL0     H 9857   0.929  10.403   6.385  2.2155  0.8647  0.3532
  814MOL0     H 9858   1.138  10.344   6.580 -0.8173  0.3211 -0.5108
  814MOL0     H 9859   0.998  10.232   6.613 -3.8146  2.9179  0.5641
  814MOL0     H 9860   1.176  10.262   6.360  2.5116 -1.7307  1.4642
  814MOL0     H 9861   1.018  10.202   6.355  2.3232 -0.0707 -0.8846
  814MOL0     H 9862   1.200  10.025   6.360  2.0591  0.1621  0.2979
  814MOL0     H 9863   1.083  10.007   6.493  0.4706 -0.1185  2.0020
  814MOL0     H 9864   1.350  10.145   6.478 -0.8646  0.3852 -0.0276
  814MOL0     H 9865   1.262  10.128   6.625  2.4420  0.2871  0.4884
  814MOL0     H 9866   1.353   9.879   6.478  2.3881 -0.6741  0.5687
  814MOL0     H 9867   1.273   9.894   6.633 -1.2320  1.6473 -0.4206
  814MOL0     H 9868   1.550  10.022   6.595  0.5542  1.7728  1.5415
  814MOL0     H 9869   1.457   9.989   6.742 -3.6339 -3.6707  0.5025
  814MOL0     H 9870   1.076  10.772   6.591  1.4417  0.8673 -0.8164
  814MOL0     H 9871   1.163  10.951   6.740  0.3432 -1.6009 -1.1648
  814MOL0     H 9872   1.390  10.926   7.359  0.2356  1.1142 -0.7766
  814MOL0     H 9873   1.621  10.994   7.410 -3.8592  1.5136  1.0485
  814MOL0     H 9874   2.796   9.972   7.310 -0.3515  0.4521 -1.7464
  814MOL0     H 9875   2.808   9.749   7.201 -0.0591 -0.7437 -0.4783
  814MOL0     H 9876   3.088   9.610   6.816 -3.5016  2.0614 -0.5440
  814MOL0     H 9877   3.191   9.423   6.699 -0.3019  0.8378 -0.6353
  814MOL0     H 9878   3.149   9.064   6.538 -2.0122  0.0915  2.7721
  814MOL0     H 9879   3.237   9.198   6.613  2.7267 -0.8510 -2.5253
  814MOL0     H 9880   3.250   9.249   6.374 -0.4772 -0.1284 -0.7432
  814MOL0     H 9881   3.123   9.351   6.436 -0.0258 -0.5295  1.1592
  814MOL0     H 9882   2.957   9.184   6.361 -1.8456  1.7902 -0.9568
  814MOL0     H 9883   3.076   9.095   6.269 -0.9382  0.3933 -0.2343
  814MOL0     H 9884   2.945   9.276   6.133 -1.1833 -2.9240  2.0561
  814MOL0     H 9885   3.011   9.391   6.249 -1.1234 -1.2773  1.0368
  814MOL0     H 9886   3.309   9.352   5.958 -1.5665 -3.0170 -2.7362
  814MOL0     H 9887   2.790   9.240   6.711  0.1598 -0.7396  2.7567
  814MOL0     H 9888   2.608   9.495   6.805 -0.9148 -0.9069 -0.0995
  814MOL0     H 9889   2.630   9.320   6.816  4.2692 -0.6556 -2.3714
  814MOL0     H 9890   2.671   9.421   6.954  0.3454 -0.0731  0.0670
  815MOL0     O 9891   7.358   8.914   7.642 -0.5268 -0.7023  0.2406
  815MOL0     C 9892   7.441   8.832   7.671  0.6793  0.9795 -0.1106
  815MOL0     O 9893   7.576   8.856   7.693  1.1165  0.5070  0.3084
  815MOL0     C 9894   7.619   8.986   7.693 -0.6325 -0.1223  0.3393
  815MOL0     C 9895   7.601   9.076   7.799 -0.3319  0.4395  0.5759
  815MOL0     C 9896   7.636   9.212   7.772 -0.0287  0.6554  0.0703
  815MOL0     C 9897   7.718   9.250   7.664  0.4118 -0.1306  0.1961
  815MOL0     O 9898   7.763   9.376   7.627  0.4602  0.0136 -0.3440
  815MOL0     C 9899   7.788   9.464   7.734  0.4530  0.2021  0.3289
  815MOL0     C 9900   7.812   9.602   7.677  0.2018 -0.9616  0.9629
  815MOL0     C 9901   7.684   9.679   7.634  0.3013 -0.3866  0.6121
  815MOL0     C 9902   7.608   9.745   7.743 -0.1286  0.2990 -0.0328
  815MOL0     C 9903   7.496   9.824   7.673 -0.3807 -1.0902 -0.2221
  815MOL0     C 9904   7.435   9.905   7.779  0.1702  0.5032 -0.7060
  815MOL0     C 9905   7.298   9.973   7.742 -0.6011 -1.0550 -0.3304
  815MOL0     C 9906   7.318  10.078   7.635 -0.0441  0.1698 -0.0002
  815MOL0     N 9907   7.389  10.196   7.688  0.1146 -0.3327  0.2718
  815MOL0     C 9908   7.338  10.269   7.789 -0.2888  0.1493  0.3513
  815MOL0     C 9909   7.422  10.375   7.796 -0.7837 -0.9326  0.1199
  815MOL0     C 9910   7.396  10.491   7.892  1.0811 -0.2241  1.0958
  815MOL0     C 9911   7.510  10.571   7.936 -0.1886  0.1763  0.6508
  815MOL0     C 9912   7.569  10.667   7.827 -0.0594  0.3258  0.1129
  815MOL0     C 9913   7.668  10.758   7.888 -0.5679  0.8776 -0.3196
  815MOL0     O 9914   7.695  10.864   7.796  0.5800  0.4628  0.2063
  815MOL0     C 9915   7.812  10.929   7.817  0.0709 -0.3636 -0.8337
  815MOL0     C 9916   7.868  10.952   7.943  0.1972  0.1525 -1.2714
  815MOL0     C 9917   7.995  11.009   7.954  0.4743  0.5233 -0.5390
  815MOL0     C 9918   8.062  11.064   7.843 -0.5820 -0.2242  0.1933
  815MOL0     C 9919   8.200  11.121   7.853 -0.5263 -0.9876  0.0713
  815MOL0     O 9920   8.248  11.177   7.739  0.2942 -0.4792  0.2917
  815MOL0     C 9921   8.369  11.252   7.731  1.1303 -0.4389  0.3901
  815MOL0     C 9922   8.449  11.227   7.617  0.0270  0.1568 -0.0744
  815MOL0     C 9923   8.572  11.283   7.598 -0.6374  0.1049 -0.3472
  815MOL0     C 9924   8.618  11.377   7.689 -0.9699 -0.7267 -0.2664
  815MOL0     O 9925   8.734  11.449   7.689 -0.8784  0.2725  0.4842
  815MOL0     C 9926   8.817  11.454   7.572 -0.0130  0.1410  0.4710
  815MOL0     C 9927   8.939  11.540   7.609 -0.5153 -0.0185 -0.2858
  815MOL0     C 9928   9.021  11.577   7.488 -0.2982 -0.4834  0.1256
  815MOL0     C 9929   9.169  11.589   7.549  0.2688  0.1740 -0.1822
  815MOL0     C 9930   9.267  11.666   7.447 -0.1366  0.2346  0.0843
  815MOL0     C 9931   9.241  11.630   7.298  0.7079 -0.1320 -0.1098
  815MOL0     C 9932   9.355  11.691   7.212  0.4164  0.4584 -0.0722
  815MOL0     C 9933   9.351  11.843   7.189  0.5849 -0.6731  0.3989
  815MOL0    Cl 9934   9.190  11.886   7.138 -0.0022  0.1795  0.0616
  815MOL0     C 9935   8.538  11.410   7.798 -0.3351  1.3491  0.5839
  815MOL0     C 9936   8.413  11.352   7.818  0.1095  1.0112  1.2301
  815MOL0     O 9937   8.259  11.109   7.961 -0.5269 -0.6738 -0.1027
  815MOL0     C 9938   7.999  11.050   7.721  0.6491 -0.1820 -0.2160
  815MOL0     C 9939   7.876  10.988   7.707  0.3452  0.9097  0.4446
  815MOL0     N 9940   7.520  10.368   7.697 -0.1098  0.2262  0.7140
  815MOL0     N 9941   7.505  10.249   7.635  0.0057  0.7975 -0.2202
  815MOL0     C 9942   7.751   9.148   7.571 -0.0859  0.2565  0.3656
  815MOL0     C 9943   7.690   9.026   7.585 -0.9525 -0.7744 -0.0519
  815MOL0     C 9944   7.393   8.693   7.693 -0.1922 -0.7606  1.1403
  815MOL0     C 9945   7.475   8.604   7.757  0.0453 -0.6627  0.0411
  815MOL0     C 9946   7.436   8.475   7.798  0.1246  0.1409 -0.1409
  815MOL0     C 9947   7.304   8.442   7.767  0.4384  0.1953 -0.3778
  815MOL0     O 9948   7.250   8.315   7.803  0.0575  0.4744  0.3078
  815MOL0     C 9949   7.291   8.254   7.922  0.2621 -0.7521 -0.8131
  815MOL0     C 9950   7.201   8.132   7.938  0.6080 -0.8407 -0.1370
  815MOL0     C 9951   7.081   8.168   8.030  0.2241  0.0234  0.7452
  815MOL0     C 9952   6.977   8.261   7.960  0.0151 -0.6180  0.6579
  815MOL0     C 9953   6.865   8.284   8.054  0.4217 -1.3612  0.6659
  815MOL0     C 9954   6.786   8.341   8.126  0.3832 -0.6454 -0.3368
  815MOL0     C 9955   7.228   8.521   7.690 -0.3260 -0.1707  0.9515
  815MOL0     C 9956   7.271   8.653   7.653  0.7599  0.3849 -0.0383
  815MOL0     C 9957   7.175   8.727   7.564  0.6516  0.2575 -1.2734
  815MOL0     H 9958   7.539   9.036   7.879  0.2594  1.6340  1.6600
  815MOL0     H 9959   7.611   9.285   7.849 -1.5521 -0.3729  0.5901
  815MOL0     H 9960   7.700   9.462   7.799 -0.6715 -0.8582 -1.1337
  815MOL0     H 9961   7.875   9.425   7.788 -0.0162 -1.2264  0.1004
  815MOL0     H 9962   7.867   9.595   7.582 -1.9474  2.2405 -0.6893
  815MOL0     H 9963   7.864   9.659   7.753 -0.3335  1.8300 -0.6357
  815MOL0     H 9964   7.614   9.612   7.583  0.5293 -0.1409 -0.0468
  815MOL0     H 9965   7.722   9.749   7.559  3.0333 -1.3585  0.9483
  815MOL0     H 9966   7.564   9.675   7.816 -1.0645 -0.3140 -1.1501
  815MOL0     H 9967   7.664   9.820   7.800  0.7458  1.7477 -2.6315
  815MOL0     H 9968   7.536   9.895   7.600 -1.1480 -2.9763 -2.5722
  815MOL0     H 9969   7.430   9.749   7.629 -0.5166 -2.6817  2.4859
  815MOL0     H 9970   7.424   9.827   7.854  1.0944  0.7096 -0.3399
  815MOL0     H 9971   7.506   9.977   7.821 -1.9448  2.3068 -0.0635
  815MOL0     H 9972   7.244  10.012   7.829 -1.2157 -2.2172 -0.1743
  815MOL0     H 9973   7.229   9.892   7.715 -0.9388 -2.6957  4.4857
  815MOL0     H 9974   7.377  10.033   7.555  0.0716  1.2642 -0.5545
  815MOL0     H 9975   7.224  10.106   7.586 -0.5133  1.5076  1.5746
  815MOL0     H 9976   7.247  10.253   7.845 -1.5902  0.6855 -1.5053
  815MOL0     H 9977   7.324  10.559   7.844 -0.7714 -1.7300  1.6094
  815MOL0     H 9978   7.341  10.460   7.982 -2.1947 -0.4921 -0.8445
  815MOL0     H 9979   7.469  10.637   8.014  0.6077  1.4851  0.0001
  815MOL0     H 9980   7.589  10.504   7.970  0.0594 -0.0087 -0.2706
  815MOL0     H 9981   7.503  10.739   7.778  0.8114 -0.3701 -2.2258
  815MOL0     H 9982   7.620  10.609   7.749  2.2310  2.3772 -0.0389
  815MOL0     H 9983   7.759  10.703   7.916 -1.0680  0.8987  1.5186
  815MOL0     H 9984   7.637  10.791   7.988 -3.0596  1.8012 -1.3305
  815MOL0     H 9985   7.837  10.913   8.039  0.8989 -0.2672 -1.2058
  815MOL0     H 9986   8.048  11.034   8.046 -0.1079  2.8219 -0.7703
  815MOL0     H 9987   8.424  11.142   7.554  0.6139 -1.0402  1.2590
  815MOL0     H 9988   8.622  11.252   7.506 -1.4614 -0.6280 -0.5589
  815MOL0     H 9989   8.852  11.354   7.544 -0.7174 -1.7308  5.2740
  815MOL0     H 9990   8.769  11.491   7.481  4.4861 -0.1032 -2.3091
  815MOL0     H 9991   8.898  11.629   7.658 -2.8244 -1.9437  1.5248
  815MOL0     H 9992   8.999  11.478   7.675  0.0551 -0.6730 -1.4071
  815MOL0     H 9993   9.010  11.496   7.415 -2.3380  1.1897 -1.5649
  815MOL0     H 9994   8.981  11.663   7.434 -1.1621 -1.2214 -0.4470
  815MOL0     H 9995   9.204  11.491   7.581  1.4783  0.3745 -0.7994
  815MOL0     H 9996   9.169  11.641   7.645  0.6517 -1.8869  0.9930
  815MOL0     H 9997   9.372  11.650   7.474 -0.5165 -2.5141  0.1808
  815MOL0     H 9998   9.248  11.772   7.463  0.5766  0.4985 -0.7476
  815MOL0     H 9999   9.235  11.521   7.287 -2.4015 -0.4975  3.2572
  815MOL0     H10000   9.142  11.654   7.258  0.7970  1.3689  0.5269
  815MOL0     H10001   9.355  11.638   7.116 -1.7792  2.5800 -1.3596
  815MOL0     H10002   9.443  11.671   7.275  1.3305  1.6174 -0.9409
  815MOL0     H10003   9.360  11.903   7.280  1.4872  2.0522 -1.3305
  815MOL0     H10004   9.412  11.877   7.105 -1.4067  1.7213 -0.2102
  815MOL0     H10005   8.572  11.485   7.869  2.3761  2.6632 -1.8688
  815MOL0     H10006   8.342  11.369   7.898 -0.0889 -2.0592  1.7998
  815MOL0     H10007   8.051  11.077   7.629  0.9406 -1.1959 -0.3602
  815MOL0     H10008   7.825  10.984   7.611  0.2043 -0.3297  0.5623
  815MOL0     H10009   7.806   9.166   7.480  0.8384 -0.1603  0.8274
  815MOL0     H10010   7.699   8.963   7.497  3.7907  0.8972 -1.0861
  815MOL0     H10011   7.577   8.633   7.780  0.0673 -0.1651 -0.6465
  815MOL0     H10012   7.512   8.412   7.843 -1.1485 -1.8998 -0.7689
  815MOL0     H10013   7.283   8.314   8.013 -0.3630 -0.1898 -1.2298
  815MOL0     H10014   7.388   8.206   7.906  0.3774  0.2125 -3.6814
  815MOL0     H10015   7.261   8.050   7.977  0.5022 -1.1718 -0.6569
  815MOL0     H10016   7.169   8.092   7.841  0.7735 -1.1938 -0.0446
  815MOL0     H10017   7.120   8.219   8.118 -2.0894  3.5718 -0.0649
  815MOL0     H10018   7.036   8.081   8.079  1.7978 -0.3425  1.5872
  815MOL0     H10019   7.015   8.359   7.930 -0.9212 -1.2020 -2.8462
  815MOL0     H10020   6.939   8.213   7.870 -1.5764  0.6897  0.5885
  815MOL0     H10021   6.704   8.376   8.185  2.3811  3.8889  0.2596
  815MOL0     H10022   7.136   8.476   7.654 -1.0700  0.9723  1.3480
  815MOL0     H10023   7.212   8.726   7.461 -1.8527 -0.4991 -2.2447
  815MOL0     H10024   7.079   8.674   7.560  0.0395  1.1936  0.0854
  815MOL0     H10025   7.141   8.824   7.603  1.7879  0.0251  0.4149
  816MOL0     O10026  10.085   1.055   9.111  0.2785 -0.7701  0.6282
  816MOL0     C10027  10.130   0.946   9.094  0.4678  0.0161  0.6943
  816MOL0     O10028  10.164   0.886   8.972  0.2181  0.3929 -0.1798
  816MOL0     C10029  10.160   0.961   8.857  0.8217 -0.6377  0.4060
  816MOL0     C10030  10.244   1.065   8.835  0.0072  0.1622  0.3970
  816MOL0     C10031  10.231   1.134   8.718  0.5871 -0.0409  0.4219
  816MOL0     C10032  10.139   1.103   8.618 -0.2815 -0.5902 -0.5652
  816MOL0     O10033  10.140   1.171   8.502 -0.3847 -0.4352  0.0689
  816MOL0     C10034  10.060   1.127   8.393 -0.6471  0.5567 -0.0466
  816MOL0     C10035  10.106   1.190   8.262  0.6852 -0.0321 -1.1124
  816MOL0     C10036  10.253   1.170   8.234  0.4436  0.0220  0.9760
  816MOL0     C10037  10.341   1.293   8.271 -0.8977 -0.6675 -0.6234
  816MOL0     C10038  10.489   1.242   8.283 -0.2044 -0.5910  0.6829
  816MOL0     C10039  10.596   1.343   8.313 -0.2580 -0.1300  0.5505
  816MOL0     C10040  10.737   1.294   8.313  0.4957  0.1317  0.2862
  816MOL0     C10041  10.754   1.183   8.414  0.3943  0.0903 -0.0885
  816MOL0     N10042  10.699   1.210   8.541  0.9344  0.5332  0.4432
  816MOL0     C10043  10.765   1.273   8.637  0.8561 -0.3734  0.3821
  816MOL0     C10044  10.699   1.246   8.757 -0.2971  0.7421  0.7485
  816MOL0     C10045  10.734   1.298   8.893  0.8047 -0.3782 -0.4952
  816MOL0     C10046  10.870   1.255   8.947 -0.0865  0.1021  0.3862
  816MOL0     C10047  10.884   1.107   8.993 -0.0118  0.3192 -0.6454
  816MOL0     C10048  10.855   1.002   8.880  0.4383 -0.3883 -0.2933
  816MOL0     O10049  10.947   1.016   8.774  0.1261 -0.0876  0.7916
  816MOL0     C10050  10.936   0.938   8.656 -0.5944 -1.3139 -0.6703
  816MOL0     C10051  10.836   0.848   8.629 -1.0360 -0.3994 -0.1211
  816MOL0     C10052  10.843   0.760   8.522 -0.6445 -0.4933  0.0068
  816MOL0     C10053  10.952   0.762   8.437  0.5538  0.5769  0.5621
  816MOL0     C10054  10.966   0.659   8.333 -0.2815  0.3328  0.7685
  816MOL0     O10055  11.047   0.693   8.236 -0.4051  0.4904 -0.3703
  816MOL0     C10056  11.072   0.628   8.119  0.2478  0.6305 -0.0636
  816MOL0     C10057  11.199   0.652   8.061  1.0080  0.0773 -0.2469
  816MOL0     C10058  11.222   0.603   7.933  1.1112  1.5001 -0.4298
  816MOL0     C10059  11.122   0.522   7.868 -1.0921  0.3824  0.5771
  816MOL0     O10060  11.152   0.463   7.743 -0.1481 -0.3159 -0.2387
  816MOL0     C10061  11.104   0.544   7.638 -0.0108  0.3403 -0.2663
  816MOL0     C10062  11.186   0.671   7.615 -0.8566 -0.2313  0.3035
  816MOL0     C10063  11.312   0.646   7.547  0.5028 -0.1473  0.5231
  816MOL0     C10064  11.377   0.765   7.478  0.2188 -0.0468  0.2792
  816MOL0     C10065  11.499   0.730   7.393 -1.3229 -0.3814  0.1829
  816MOL0     C10066  11.569   0.844   7.329  0.7079 -0.5386 -1.0300
  816MOL0     C10067  11.633   0.943   7.423 -0.0179  0.5630  0.1067
  816MOL0     C10068  11.765   0.908   7.488  0.1067  0.3174  0.1309
  816MOL0    Cl10069  11.883   0.890   7.352 -0.0762  0.4037  0.0760
  816MOL0     C10070  10.998   0.498   7.925 -0.5910  0.3107 -0.4000
  816MOL0     C10071  10.967   0.556   8.046 -0.1501  0.0519 -0.1177
  816MOL0     O10072  10.899   0.556   8.343  0.0429 -0.0412 -0.0022
  816MOL0     C10073  11.051   0.859   8.456 -0.3485 -0.0314  0.9341
  816MOL0     C10074  11.044   0.945   8.565 -0.1077 -0.5644 -0.4098
  816MOL0     N10075  10.586   1.167   8.726  0.6292 -0.4734 -0.2722
  816MOL0     N10076  10.596   1.143   8.601  0.2062 -0.0491  0.6871
  816MOL0     C10077  10.046   0.994   8.645 -0.5529 -0.4868  1.2596
  816MOL0     C10078  10.061   0.924   8.763 -0.9841  0.4151 -0.5449
  816MOL0     C10079  10.142   0.873   9.222  0.3850  0.6458  0.0119
  816MOL0     C10080  10.258   0.798   9.227  0.4559 -0.3495 -0.0937
  816MOL0     C10081  10.308   0.742   9.348  0.0330 -0.6436  0.4281
  816MOL0     C10082  10.239   0.742   9.470  0.1784  0.5148  1.1474
  816MOL0     O10083  10.284   0.677   9.583 -0.6804 -0.4663  0.3914
  816MOL0     C10084  10.199   0.590   9.655  0.7814 -0.5993 -0.0811
  816MOL0     C10085  10.282   0.495   9.728 -0.0370  0.6583 -0.5251
  816MOL0     C10086  10.181   0.374   9.770  0.2883  0.2605 -0.1008
  816MOL0     C10087  10.267   0.242   9.777 -0.3046  0.0997  0.0063
  816MOL0     C10088  10.359   0.232   9.885 -1.0422  0.7105 -1.3895
  816MOL0     C10089  10.425   0.206   9.987  0.8098 -0.1399  0.2428
  816MOL0     C10090  10.114   0.803   9.459  0.3001  0.9143 -0.1943
  816MOL0     C10091  10.063   0.864   9.339  0.3402  0.2872 -0.3132
  816MOL0     C10092   9.918   0.924   9.337 -0.8344  0.9101 -0.3507
  816MOL0     H10093  10.316   1.104   8.907  0.3985 -0.2258  0.2235
  816MOL0     H10094  10.300   1.216   8.702 -0.6457  1.0512  0.4805
  816MOL0     H10095  10.077   1.019   8.384 -1.4200  0.4291  0.0057
  816MOL0     H10096   9.958   1.149   8.426 -0.4906 -2.3645  2.8386
  816MOL0     H10097  10.097   1.298   8.275 -0.7790 -0.3489  0.9045
  816MOL0     H10098  10.048   1.157   8.175  1.8471 -1.3585 -1.4224
  816MOL0     H10099  10.275   1.162   8.127  0.1608  0.7157  0.8600
  816MOL0     H10100  10.286   1.079   8.284  1.3471 -2.3075 -3.4055
  816MOL0     H10101  10.336   1.359   8.185 -0.6930 -0.3204 -0.3731
  816MOL0     H10102  10.303   1.337   8.364 -4.5942  0.6542 -2.5668
  816MOL0     H10103  10.488   1.165   8.361 -0.8346 -0.5773  0.6920
  816MOL0     H10104  10.511   1.206   8.182  0.0826  2.6543 -0.5540
  816MOL0     H10105  10.593   1.418   8.233 -1.1916  1.7076  2.2358
  816MOL0     H10106  10.578   1.395   8.407  0.5282 -1.0725  1.2496
  816MOL0     H10107  10.793   1.379   8.352 -0.4532  0.5454  0.7875
  816MOL0     H10108  10.777   1.288   8.212 -1.5794 -0.1308 -0.5683
  816MOL0     H10109  10.716   1.088   8.376  0.6053  0.3392 -0.9506
  816MOL0     H10110  10.860   1.163   8.429  0.0358 -1.3124  0.6934
  816MOL0     H10111  10.863   1.317   8.622 -0.3054  1.1890 -4.4021
  816MOL0     H10112  10.727   1.408   8.893  0.4227 -0.2877 -3.9712
  816MOL0     H10113  10.661   1.268   8.968  0.7578  1.4127  0.2238
  816MOL0     H10114  10.944   1.275   8.868 -1.2310 -0.8411 -0.9909
  816MOL0     H10115  10.896   1.317   9.033  1.4585  2.7642 -1.8380
  816MOL0     H10116  10.820   1.083   9.079  0.1483  2.5425  0.1687
  816MOL0     H10117  10.985   1.096   9.033  0.2793  1.6694 -0.9523
  816MOL0     H10118  10.753   1.005   8.841  0.4504 -2.2580 -0.5560
  816MOL0     H10119  10.864   0.902   8.924  1.9353 -0.6732 -1.1625
  816MOL0     H10120  10.760   0.824   8.704  0.0252 -3.6859  0.0724
  816MOL0     H10121  10.749   0.713   8.498 -1.1993 -0.7547  2.4484
  816MOL0     H10122  11.279   0.711   8.106  2.1621 -1.4767 -0.2039
  816MOL0     H10123  11.309   0.639   7.879  1.4727  0.8522 -0.2876
  816MOL0     H10124  11.100   0.478   7.551  4.0852 -1.5595  0.7639
  816MOL0     H10125  11.006   0.588   7.658 -1.6401 -1.5055 -3.4890
  816MOL0     H10126  11.136   0.747   7.554  1.0572  0.2268 -0.7815
  816MOL0     H10127  11.210   0.732   7.702 -0.5095  0.6933 -0.4170
  816MOL0     H10128  11.388   0.595   7.608  0.8572 -0.1199  0.1121
  816MOL0     H10129  11.292   0.580   7.462  2.2393  0.0850 -0.1103
  816MOL0     H10130  11.405   0.839   7.553 -2.3920 -0.2653  1.5997
  816MOL0     H10131  11.307   0.823   7.417  1.8577  1.6566 -0.0601
  816MOL0     H10132  11.474   0.660   7.313  1.7348 -0.6612 -0.6286
  816MOL0     H10133  11.583   0.680   7.442 -1.4077 -2.5003 -1.6823
  816MOL0     H10134  11.631   0.799   7.251  1.2468 -2.1112  0.2563
  816MOL0     H10135  11.492   0.900   7.275 -1.3772 -3.3907 -1.2153
  816MOL0     H10136  11.562   0.962   7.504 -0.9630  0.4403 -0.6760
  816MOL0     H10137  11.650   1.032   7.362  1.4119  1.2916  1.5168
  816MOL0     H10138  11.796   0.995   7.547  0.2100  1.0528 -0.9737
  816MOL0     H10139  11.756   0.825   7.559  0.1334  0.1336 -0.0819
  816MOL0     H10140  10.930   0.458   7.850  2.5919 -0.5503 -3.0895
  816MOL0     H10141  10.875   0.538   8.100  0.6965  0.7088  1.6419
  816MOL0     H10142  11.145   0.869   8.401 -0.0114 -0.4086  1.4352
  816MOL0     H10143  11.127   1.009   8.592 -1.0220  0.3828  0.2543
  816MOL0     H10144   9.976   0.955   8.572 -0.9926  1.6861  0.4266
  816MOL0     H10145  10.015   0.827   8.775  1.9092 -1.2443 -1.8576
  816MOL0     H10146  10.332   0.796   9.147 -1.5489  0.6055 -2.0880
  816MOL0     H10147  10.400   0.686   9.346  2.2028  2.5285  2.4543
  816MOL0     H10148  10.157   0.534   9.571  0.6723 -1.5212  0.5821
  816MOL0     H10149  10.128   0.645   9.718  1.9402  1.8922 -0.8049
  816MOL0     H10150  10.317   0.560   9.810 -1.8279 -0.1784  0.9636
  816MOL0     H10151  10.371   0.466   9.671  0.3224  2.0186 -0.6944
  816MOL0     H10152  10.102   0.362   9.696  0.0941  1.9438 -0.2105
  816MOL0     H10153  10.135   0.395   9.868  1.4952 -4.2216  1.6999
  816MOL0     H10154  10.209   0.150   9.781  0.6643 -0.5161  4.4806
  816MOL0     H10155  10.338   0.236   9.693  2.4350  1.4756  2.0628
  816MOL0     H10156  10.490   0.178  10.068 -0.3494  0.4320  1.4098
  816MOL0     H10157  10.060   0.813   9.553  3.3947  2.4252  1.5418
  816MOL0     H10158   9.842   0.872   9.279 -0.0630 -1.2950  0.5396
  816MOL0     H10159   9.883   0.914   9.440  1.2270  0.0793  0.3207
  816MOL0     H10160   9.920   1.030   9.309 -0.0899  1.2242  0.8233
  817MOL0     O10161   1.151   3.645   8.187 -0.1413  0.9156  0.0549
  817MOL0     C10162   1.272   3.654   8.192 -0.2315 -0.4141  0.0908
  817MOL0     O10163   1.339   3.739   8.271  0.1696 -0.5764  0.7160
  817MOL0     C10164   1.264   3.826   8.350 -0.5503  1.2814  0.0106
  817MOL0     C10165   1.203   3.787   8.472  0.2232  0.8434  0.2308
  817MOL0     C10166   1.114   3.872   8.536 -0.7885  0.4225 -0.9566
  817MOL0     C10167   1.080   3.990   8.472  0.5581  0.3463 -0.2427
  817MOL0     O10168   0.986   4.071   8.536 -0.0077  0.3107  0.6323
  817MOL0     C10169   1.018   4.128   8.661 -0.1893  0.1314 -0.1976
  817MOL0     C10170   0.921   4.239   8.690 -1.2390 -0.2993  0.8226
  817MOL0     C10171   0.949   4.342   8.583  0.5319 -0.5492  0.2192
  817MOL0     C10172   0.831   4.457   8.584 -0.2446  0.6433  0.1603
  817MOL0     C10173   0.706   4.417   8.499 -0.2515  0.0898 -0.0306
  817MOL0     C10174   0.607   4.535   8.492  0.5772  0.5119 -0.5150
  817MOL0     C10175   0.476   4.502   8.418  0.2720  1.0083 -0.0334
  817MOL0     C10176   0.395   4.627   8.414  0.2327  0.8538  0.4002
  817MOL0     N10177   0.251   4.600   8.396 -0.3980  0.5448 -0.2066
  817MOL0     C10178   0.157   4.622   8.498  0.0698  0.0811  0.2708
  817MOL0     C10179   0.053   4.560   8.439 -0.5264 -0.0557  0.4560
  817MOL0     C10180  -0.076   4.529   8.515  0.1761 -0.1855  0.4041
  817MOL0     C10181  -0.147   4.652   8.584 -0.2055 -0.0464 -0.4147
  817MOL0     C10182  -0.216   4.731   8.482  0.2600  0.3584  0.8669
  817MOL0     C10183  -0.305   4.842   8.531 -0.0883 -0.0539  0.1988
  817MOL0     O10184  -0.429   4.802   8.590  0.0769 -0.3266 -0.5796
  817MOL0     C10185  -0.516   4.892   8.640 -0.8752 -0.8819  0.4310
  817MOL0     C10186  -0.468   5.019   8.681  0.0828 -0.5911  0.3335
  817MOL0     C10187  -0.560   5.104   8.751 -0.4846 -0.0901 -0.3487
  817MOL0     C10188  -0.686   5.060   8.789 -0.3066 -0.8993  0.6999
  817MOL0     C10189  -0.781   5.148   8.867 -0.1488 -0.2590  0.2254
  817MOL0     O10190  -0.899   5.094   8.901  0.5863 -0.5087  0.7460
  817MOL0     C10191  -0.986   5.171   8.968  0.0547  0.0553  0.0879
  817MOL0     C10192  -1.059   5.102   9.061  1.0308 -0.4998  0.3138
  817MOL0     C10193  -1.177   5.161   9.115  0.6019  0.0605  0.1025
  817MOL0     C10194  -1.213   5.287   9.092 -0.4842 -0.2899  0.2095
  817MOL0     O10195  -1.330   5.346   9.141 -0.3775 -0.2944  0.3024
  817MOL0     C10196  -1.436   5.243   9.170  0.4040  0.1996 -0.1562
  817MOL0     C10197  -1.561   5.308   9.223 -0.4852  0.5528 -0.0658
  817MOL0     C10198  -1.620   5.399   9.115  0.7816  0.6585  0.0874
  817MOL0     C10199  -1.745   5.468   9.170 -0.1271  0.1851 -0.8956
  817MOL0     C10200  -1.782   5.596   9.093  0.3782  0.3303 -0.2986
  817MOL0     C10201  -1.906   5.670   9.149  0.7392  0.2757  0.0146
  817MOL0     C10202  -2.034   5.586   9.174  0.1267 -0.5115  0.8291
  817MOL0     C10203  -2.155   5.677   9.184  0.3159 -1.4708  0.5767
  817MOL0    Cl10204  -2.292   5.579   9.137  0.7113  0.0835  0.4829
  817MOL0     C10205  -1.138   5.355   9.002 -0.8324  0.3874  1.4972
  817MOL0     C10206  -1.025   5.302   8.935 -0.2008 -1.2087  0.3218
  817MOL0     O10207  -0.737   5.255   8.902 -0.3547  0.4347  0.7225
  817MOL0     C10208  -0.720   4.934   8.755 -0.8421 -0.9244  0.3647
  817MOL0     C10209  -0.638   4.845   8.688  0.3103 -0.4127  0.7124
  817MOL0     N10210   0.084   4.515   8.309 -0.0534 -0.0341 -0.1755
  817MOL0     N10211   0.207   4.531   8.286  0.0606  0.1195 -0.5106
  817MOL0     C10212   1.155   4.036   8.358  0.2723  0.5296  0.6377
  817MOL0     C10213   1.252   3.950   8.297 -0.0938  0.2047 -0.1749
  817MOL0     C10214   1.350   3.568   8.103  0.3511 -0.0915  0.2752
  817MOL0     C10215   1.332   3.424   8.119  0.4692  0.1012  0.0941
  817MOL0     C10216   1.401   3.335   8.039 -0.0658  0.5310 -0.2277
  817MOL0     C10217   1.488   3.375   7.951 -0.0321 -0.0427  0.7926
  817MOL0     O10218   1.551   3.290   7.870 -0.7543  0.2857  0.1429
  817MOL0     C10219   1.678   3.307   7.800 -0.5193  0.1282  0.6178
  817MOL0     C10220   1.793   3.330   7.899  0.1121 -0.8018 -0.9055
  817MOL0     C10221   1.806   3.212   8.004 -0.3809 -0.5739 -0.4103
  817MOL0     C10222   1.897   3.256   8.120 -0.6930 -0.3243 -0.2864
  817MOL0     C10223   1.915   3.149   8.217  0.2970 -0.2868 -0.0799
  817MOL0     C10224   1.918   3.065   8.307 -0.1483  0.5487  0.0483
  817MOL0     C10225   1.495   3.515   7.928  0.4734 -0.2533  2.0259
  817MOL0     C10226   1.433   3.616   7.999  0.4648  0.5471 -0.4634
  817MOL0     C10227   1.468   3.765   7.966  0.5488  0.7981 -0.1771
  817MOL0     H10228   1.219   3.683   8.498  1.1782  1.0764  0.6350
  817MOL0     H10229   1.067   3.844   8.630 -0.0428  5.0182  1.0391
  817MOL0     H10230   1.012   4.051   8.739 -0.9867  1.0944  0.7057
  817MOL0     H10231   1.118   4.171   8.652 -0.7715  1.0753 -3.9268
  817MOL0     H10232   0.940   4.263   8.795 -2.0441 -0.1998  0.9533
  817MOL0     H10233   0.820   4.197   8.687 -0.9221 -1.0269 -1.0778
  817MOL0     H10234   0.945   4.294   8.485 -1.6870  0.5070 -0.2597
  817MOL0     H10235   1.049   4.385   8.594 -0.5294  1.8858  0.8440
  817MOL0     H10236   0.793   4.469   8.685 -0.6938 -2.6535  0.5193
  817MOL0     H10237   0.880   4.548   8.549 -2.3660  1.0128 -2.1195
  817MOL0     H10238   0.728   4.370   8.403  0.3257  1.7048 -0.7360
  817MOL0     H10239   0.644   4.346   8.553 -0.5393 -0.2520 -0.7980
  817MOL0     H10240   0.591   4.565   8.596 -1.3096  1.1027 -0.9470
  817MOL0     H10241   0.673   4.615   8.457  1.0168  0.1430 -0.5436
  817MOL0     H10242   0.419   4.423   8.467  0.8729  0.7313  0.2337
  817MOL0     H10243   0.507   4.458   8.323 -0.0934  0.1764  0.2260
  817MOL0     H10244   0.401   4.686   8.506  0.4911 -0.0362  0.9678
  817MOL0     H10245   0.429   4.681   8.325  1.4076 -0.3834  0.0760
  817MOL0     H10246   0.172   4.679   8.590 -0.2574  1.9636 -0.8059
  817MOL0     H10247  -0.135   4.477   8.439  1.8725 -1.0139 -0.4089
  817MOL0     H10248  -0.049   4.455   8.590  0.8668 -0.5645 -0.2041
  817MOL0     H10249  -0.229   4.615   8.646 -0.0283  0.6728  0.2621
  817MOL0     H10250  -0.080   4.718   8.640 -0.4256  1.5183 -1.9030
  817MOL0     H10251  -0.280   4.663   8.426  0.4614  1.9275 -1.4184
  817MOL0     H10252  -0.143   4.762   8.406 -1.2776  1.7809 -0.0856
  817MOL0     H10253  -0.335   4.891   8.438 -0.5618 -1.0170 -0.1778
  817MOL0     H10254  -0.242   4.895   8.603 -1.1964  1.2475  0.2514
  817MOL0     H10255  -0.363   5.046   8.676  0.5768 -2.4389  0.1348
  817MOL0     H10256  -0.527   5.196   8.798 -2.9324  0.4782  0.4239
  817MOL0     H10257  -1.029   4.999   9.077  2.3214 -0.6335 -2.3475
  817MOL0     H10258  -1.238   5.101   9.183 -1.5644  1.4795 -0.5080
  817MOL0     H10259  -1.450   5.187   9.077  0.7754  0.5670 -0.4380
  817MOL0     H10260  -1.402   5.175   9.248  1.4281  1.3045  0.3871
  817MOL0     H10261  -1.633   5.227   9.241 -0.7187  0.1314 -2.5681
  817MOL0     H10262  -1.544   5.360   9.317  1.9660 -1.7726  0.9073
  817MOL0     H10263  -1.541   5.463   9.075  1.6211 -1.8261 -2.5819
  817MOL0     H10264  -1.653   5.333   9.034 -1.1253  1.1611  0.4081
  817MOL0     H10265  -1.724   5.501   9.272  0.4658 -1.2827 -0.5151
  817MOL0     H10266  -1.824   5.393   9.171  0.1568 -0.3401 -4.2409
  817MOL0     H10267  -1.796   5.565   8.989  2.1950  0.4822 -0.6207
  817MOL0     H10268  -1.698   5.665   9.100  0.0519  0.5954  1.6059
  817MOL0     H10269  -1.877   5.707   9.248  1.3549 -2.8278  1.1348
  817MOL0     H10270  -1.917   5.759   9.086  1.3797 -0.9822 -1.9664
  817MOL0     H10271  -2.026   5.522   9.262  0.7714 -1.8467 -0.1641
  817MOL0     H10272  -2.054   5.517   9.092  0.6979 -1.9553  1.8397
  817MOL0     H10273  -2.179   5.708   9.287 -0.3755 -1.0311  0.2886
  817MOL0     H10274  -2.138   5.768   9.126  1.9368 -2.8368 -1.2028
  817MOL0     H10275  -1.168   5.457   8.979 -3.5473 -1.2841 -4.1008
  817MOL0     H10276  -0.976   5.361   8.857 -3.2604  0.9300 -0.1544
  817MOL0     H10277  -0.814   4.894   8.791 -0.3227 -2.5190  0.0541
  817MOL0     H10278  -0.669   4.743   8.672 -3.3625  0.8293 -1.0102
  817MOL0     H10279   1.125   4.132   8.318  0.4916  0.1866 -0.3893
  817MOL0     H10280   1.303   3.972   8.203 -1.9956  2.3075 -0.8241
  817MOL0     H10281   1.268   3.386   8.198  0.9185  3.1401  2.0564
  817MOL0     H10282   1.374   3.231   8.058  0.8378  0.4378  0.6077
  817MOL0     H10283   1.666   3.397   7.739  2.1545  0.3340  0.2917
  817MOL0     H10284   1.707   3.224   7.736  1.1662  1.1076  0.0612
  817MOL0     H10285   1.777   3.422   7.956 -1.8475 -0.5077 -1.8498
  817MOL0     H10286   1.888   3.341   7.846  1.2511  1.7377  1.4407
  817MOL0     H10287   1.853   3.121   7.964  2.2043 -0.3032  1.7241
  817MOL0     H10288   1.706   3.189   8.041 -1.0528 -1.9445 -2.8275
  817MOL0     H10289   1.996   3.286   8.082 -1.8437  0.0822 -3.2276
  817MOL0     H10290   1.842   3.337   8.167 -1.6843  0.9666 -3.3750
  817MOL0     H10291   1.899   3.004   8.393 -1.7741 -0.9668 -1.3124
  817MOL0     H10292   1.556   3.544   7.842 -1.2212 -1.8937  0.1657
  817MOL0     H10293   1.425   3.795   7.870  0.6536  3.5713  0.5506
  817MOL0     H10294   1.415   3.830   8.037 -0.1289 -0.7992  0.8403
  817MOL0     H10295   1.573   3.791   7.976  0.4056  1.6720 -0.8302
  818MOL0     O10296   8.092   2.214   1.983 -0.2297 -0.6838  0.2358
  818MOL0     C10297   8.119   2.306   1.907 -1.5108  0.4006 -0.0958
  818MOL0     O10298   8.219   2.296   1.822  0.0505 -0.2325 -0.1887
  818MOL0     C10299   8.283   2.182   1.795 -0.2326  0.5304  0.1399
  818MOL0     C10300   8.422   2.197   1.777 -0.3037  0.7147  0.8278
  818MOL0     C10301   8.510   2.085   1.759 -1.0748 -0.0736  0.4615
  818MOL0     C10302   8.454   1.958   1.763 -0.2576 -0.0371 -0.6025
  818MOL0     O10303   8.510   1.836   1.748  0.3404 -0.7689  0.3399
  818MOL0     C10304   8.652   1.823   1.743 -0.2666 -0.3145 -0.1961
  818MOL0     C10305   8.702   1.813   1.597  0.2486 -0.5342 -0.8662
  818MOL0     C10306   8.617   1.726   1.515 -0.5896 -0.1792  0.3927
  818MOL0     C10307   8.683   1.707   1.378  0.8762 -0.3007  0.1635
  818MOL0     C10308   8.624   1.590   1.303  0.4483  0.2666 -0.5962
  818MOL0     C10309   8.666   1.452   1.352 -0.0404 -0.4116  0.0003
  818MOL0     C10310   8.651   1.350   1.242  0.0318 -0.5119  0.0832
  818MOL0     C10311   8.767   1.325   1.152  0.2296 -0.2807  0.2709
  818MOL0     N10312   8.718   1.283   1.009 -0.6591 -0.1751  0.5662
  818MOL0     C10313   8.804   1.306   0.903 -0.8720 -0.3213 -0.6501
  818MOL0     C10314   8.730   1.241   0.811 -0.4180 -0.0524 -0.1228
  818MOL0     C10315   8.766   1.232   0.666  0.3105 -0.3597  0.9695
  818MOL0     C10316   8.718   1.088   0.617  0.4345 -0.9425 -0.2523
  818MOL0     C10317   8.710   1.067   0.459  0.4506  0.0780 -0.2191
  818MOL0     C10318   8.754   0.922   0.435 -0.0370  0.4813  0.3548
  818MOL0     O10319   8.888   0.903   0.449  0.5033  0.8841 -0.2894
  818MOL0     C10320   8.972   0.914   0.342 -0.2863 -0.4947 -1.0237
  818MOL0     C10321   8.936   0.962   0.220  0.1914  0.6474  0.7726
  818MOL0     C10322   9.029   0.976   0.115 -0.3365 -0.3140 -0.0695
  818MOL0     C10323   9.160   0.935   0.136 -0.5170  1.4570 -0.9566
  818MOL0     C10324   9.261   0.938   0.019  0.3204  0.3919  0.0088
  818MOL0     O10325   9.228   1.031  -0.079  0.0685  0.0737 -0.2873
  818MOL0     C10326   9.317   1.030  -0.182 -0.9088  0.5180  0.5468
  818MOL0     C10327   9.453   1.082  -0.191  0.5786  0.2941  0.1254
  818MOL0     C10328   9.534   1.097  -0.305 -0.8478  0.1836 -0.2583
  818MOL0     C10329   9.487   1.043  -0.425  0.1070 -0.0014 -0.4712
  818MOL0     O10330   9.559   1.030  -0.544  0.3639  0.0081  0.0565
  818MOL0     C10331   9.647   1.136  -0.578 -0.2001 -0.6477 -0.2801
  818MOL0     C10332   9.587   1.256  -0.643  0.0329  0.0247 -0.2293
  818MOL0     C10333   9.586   1.383  -0.554 -0.1682  0.6233  1.1048
  818MOL0     C10334   9.720   1.461  -0.561 -0.3204  0.0174  0.0112
  818MOL0     C10335   9.716   1.581  -0.469  0.7678 -0.4778 -0.9545
  818MOL0     C10336   9.843   1.668  -0.467  0.4921  0.7302 -0.3302
  818MOL0     C10337   9.822   1.788  -0.366 -0.5110  0.2027  0.0302
  818MOL0     C10338   9.952   1.862  -0.354 -0.9418  0.4952  0.1734
  818MOL0    Cl10339   9.986   1.948  -0.499  0.0854  0.1700  0.4014
  818MOL0     C10340   9.359   0.996  -0.430  0.2604 -0.1801 -0.1756
  818MOL0     C10341   9.277   0.984  -0.318  0.2069  0.8326 -0.7730
  818MOL0     O10342   9.369   0.878   0.024 -0.2125 -0.0648 -0.7537
  818MOL0     C10343   9.196   0.894   0.263 -0.6725 -0.9384 -0.6460
  818MOL0     C10344   9.108   0.877   0.366  0.7091  0.5503 -0.0675
  818MOL0     N10345   8.605   1.205   0.857  0.0671  0.2256 -0.5828
  818MOL0     N10346   8.610   1.210   0.983 -0.0541 -0.2729  0.1233
  818MOL0     C10347   8.311   1.945   1.781  0.0381  0.1558  0.0615
  818MOL0     C10348   8.222   2.060   1.786  0.7318  0.2770 -0.2240
  818MOL0     C10349   8.047   2.450   1.922  0.1574  1.2349 -0.7664
  818MOL0     C10350   8.099   2.559   1.846 -0.1684 -0.0514 -0.0718
  818MOL0     C10351   8.043   2.684   1.860 -0.1606 -0.6848 -0.6276
  818MOL0     C10352   7.929   2.714   1.939 -0.1348 -0.7857 -0.2523
  818MOL0     O10353   7.897   2.853   1.953  0.1882 -0.4575 -0.0445
  818MOL0     C10354   7.762   2.890   1.973 -0.7023  0.0674  0.5090
  818MOL0     C10355   7.732   2.905   2.128 -0.1459  0.1125  0.1052
  818MOL0     C10356   7.847   2.973   2.214 -0.5809  0.7186  0.3630
  818MOL0     C10357   7.810   2.966   2.357 -0.2988  0.0084  0.2661
  818MOL0     C10358   7.813   2.827   2.416  0.4732 -0.2912  0.0837
  818MOL0     C10359   7.807   2.723   2.462 -0.0624  0.6458 -0.7977
  818MOL0     C10360   7.876   2.603   2.013 -0.6536 -0.5685  0.1698
  818MOL0     C10361   7.940   2.472   2.009 -0.2270  0.8908 -0.6936
  818MOL0     C10362   7.885   2.364   2.111 -0.2684  0.4518  1.5284
  818MOL0     H10363   8.475   2.291   1.776  1.4748 -0.1228  3.7501
  818MOL0     H10364   8.615   2.110   1.745 -1.3034 -0.2236 -1.8797
  818MOL0     H10365   8.700   1.907   1.793 -0.7752 -0.7555  1.0830
  818MOL0     H10366   8.692   1.732   1.789  2.9858  1.4887  0.8585
  818MOL0     H10367   8.807   1.781   1.595  1.2100  1.6577  3.5976
  818MOL0     H10368   8.706   1.911   1.549 -0.5982  0.5349  1.1700
  818MOL0     H10369   8.520   1.765   1.486 -0.4508 -1.0193 -1.3147
  818MOL0     H10370   8.625   1.637   1.580 -1.1687 -0.1021  0.5750
  818MOL0     H10371   8.659   1.793   1.315  2.3136  1.8871  2.3756
  818MOL0     H10372   8.790   1.685   1.382  1.0481 -1.1072 -4.2035
  818MOL0     H10373   8.515   1.596   1.304  0.2159 -1.7610 -3.0311
  818MOL0     H10374   8.660   1.609   1.201 -0.3587  1.3995 -0.6863
  818MOL0     H10375   8.773   1.451   1.377  0.0217 -0.9851 -0.2747
  818MOL0     H10376   8.602   1.429   1.438 -1.2833 -2.4463 -1.4026
  818MOL0     H10377   8.564   1.383   1.185 -1.0368  0.3279  2.1153
  818MOL0     H10378   8.620   1.251   1.278  1.1259 -2.1114 -2.9668
  818MOL0     H10379   8.831   1.413   1.155  0.5564 -0.5390  1.9536
  818MOL0     H10380   8.817   1.239   1.198 -1.0519 -1.3119 -0.1808
  818MOL0     H10381   8.898   1.358   0.887 -1.0604  0.0194 -0.6504
  818MOL0     H10382   8.711   1.306   0.607  2.1021  1.3176  1.3010
  818MOL0     H10383   8.868   1.261   0.639 -0.9104  1.8343 -1.6922
  818MOL0     H10384   8.767   1.015   0.681 -0.1497  0.5867  2.0456
  818MOL0     H10385   8.613   1.071   0.643  0.3313 -0.5992 -0.4359
  818MOL0     H10386   8.795   1.126   0.425  3.0842 -1.4428  3.1038
  818MOL0     H10387   8.614   1.100   0.419  1.0863  0.0505 -1.8356
  818MOL0     H10388   8.713   0.875   0.345 -2.1904  1.4500  0.7673
  818MOL0     H10389   8.709   0.852   0.506  2.2290  0.4669  1.8466
  818MOL0     H10390   8.836   0.999   0.196 -1.7672 -2.8322  2.7965
  818MOL0     H10391   9.002   1.003   0.013 -2.0845  0.1529  0.4867
  818MOL0     H10392   9.495   1.128  -0.102 -2.4264  0.5561  1.5344
  818MOL0     H10393   9.631   1.147  -0.312 -0.9317  0.1567 -2.0385
  818MOL0     H10394   9.725   1.151  -0.503 -2.4707 -2.8369  2.7987
  818MOL0     H10395   9.702   1.090  -0.660 -0.6797 -1.9691  0.1279
  818MOL0     H10396   9.639   1.260  -0.739 -0.1818 -0.0035 -0.3474
  818MOL0     H10397   9.487   1.228  -0.678  0.8377 -1.4008 -1.4812
  818MOL0     H10398   9.498   1.442  -0.582 -0.4074 -1.0911 -2.3290
  818MOL0     H10399   9.567   1.364  -0.448  4.8380 -1.6784  1.8832
  818MOL0     H10400   9.743   1.481  -0.666 -0.5125  0.6942  0.0915
  818MOL0     H10401   9.800   1.397  -0.522  0.8660  2.1674  1.3255
  818MOL0     H10402   9.699   1.545  -0.367 -1.1170  0.8997 -0.7280
  818MOL0     H10403   9.634   1.645  -0.503  0.2501 -0.6087  0.0352
  818MOL0     H10404   9.911   1.592  -0.428 -1.3380  0.7610  3.3426
  818MOL0     H10405   9.868   1.697  -0.570  2.2588  1.4330  0.2491
  818MOL0     H10406   9.789   1.754  -0.267 -3.5097  1.5752 -0.3886
  818MOL0     H10407   9.740   1.855  -0.395 -0.5860  0.0589 -0.0856
  818MOL0     H10408   9.965   1.911  -0.257  1.3258 -3.1024  1.8934
  818MOL0     H10409  10.031   1.788  -0.336  0.9172  2.5849  1.0618
  818MOL0     H10410   9.323   0.957  -0.525 -1.0518 -0.8430  0.5635
  818MOL0     H10411   9.173   0.954  -0.310 -0.0391  1.9951  0.9817
  818MOL0     H10412   9.302   0.889   0.285 -1.1673 -1.7197  1.8769
  818MOL0     H10413   9.130   0.844   0.467 -2.4410  1.6006  1.0869
  818MOL0     H10414   8.259   1.850   1.781 -3.1758  1.6722  3.6286
  818MOL0     H10415   8.114   2.062   1.788  0.6783  2.6183  2.3267
  818MOL0     H10416   8.189   2.548   1.787  0.2255  0.5022  0.4122
  818MOL0     H10417   8.093   2.773   1.822 -1.8681  2.9548  4.5524
  818MOL0     H10418   7.690   2.819   1.931 -1.1671  1.2431 -0.7531
  818MOL0     H10419   7.735   2.986   1.928 -3.1992 -1.4574 -1.5028
  818MOL0     H10420   7.700   2.811   2.174  0.3081 -0.5289 -0.8562
  818MOL0     H10421   7.645   2.970   2.136  0.2671  0.4379  2.8897
  818MOL0     H10422   7.852   3.080   2.191  1.5442  0.1455 -2.2716
  818MOL0     H10423   7.947   2.942   2.183 -1.1073 -0.0498 -0.6123
  818MOL0     H10424   7.887   3.022   2.411  0.7542  1.6239 -2.6745
  818MOL0     H10425   7.723   3.029   2.376  1.2528  2.9247 -1.5265
  818MOL0     H10426   7.783   2.633   2.514  1.4425  0.1732 -0.8518
  818MOL0     H10427   7.784   2.609   2.071 -0.5180 -0.1364  0.3432
  818MOL0     H10428   7.839   2.284   2.052 -2.3332  3.3457 -1.0914
  818MOL0     H10429   7.970   2.335   2.175  0.7542  1.9476  0.9020
  818MOL0     H10430   7.804   2.408   2.170 -0.4625  1.0189  0.8496
  819MOL0     O10431   3.288   9.185   9.143  0.4638 -0.1527  0.6915
  819MOL0     C10432   3.250   9.104   9.060  0.7124  0.0267  0.5255
  819MOL0     O10433   3.121   9.085   9.017 -0.5894 -0.0581 -0.6027
  819MOL0     C10434   3.017   9.146   9.079 -0.4983 -0.2018  0.2561
  819MOL0     C10435   2.939   9.236   9.001  1.3254 -0.0848 -0.4836
  819MOL0     C10436   2.814   9.283   9.049  0.4638  0.0252  0.2656
  819MOL0     C10437   2.781   9.254   9.189  0.3652 -0.4896 -0.4602
  819MOL0     O10438   2.676   9.334   9.246 -0.4941 -0.2445  0.1619
  819MOL0     C10439   2.610   9.289   9.362  1.0201  0.2776  0.3085
  819MOL0     C10440   2.685   9.354   9.476 -0.3178 -0.9415  0.1860
  819MOL0     C10441   2.650   9.503   9.482 -0.1819 -0.4603 -0.0479
  819MOL0     C10442   2.704   9.573   9.616  1.0893 -0.7026 -0.3177
  819MOL0     C10443   2.864   9.573   9.631  0.0417  0.5259 -0.6344
  819MOL0     C10444   2.885   9.680   9.747  0.2450 -0.2250  0.8353
  819MOL0     C10445   3.031   9.664   9.789  0.7132  0.2305 -0.8605
  819MOL0     C10446   3.137   9.719   9.695 -1.0095  1.3149 -1.0984
  819MOL0     N10447   3.148   9.864   9.706 -0.2035 -0.1748  0.4119
  819MOL0     C10448   3.164   9.945   9.825 -0.0591  0.9799  0.2700
  819MOL0     C10449   3.120  10.064   9.790  0.2383 -0.3265  0.2023
  819MOL0     C10450   3.099  10.169   9.885  0.2399 -1.0088  0.7010
  819MOL0     C10451   2.956  10.216   9.902  0.8162  0.8194 -0.3661
  819MOL0     C10452   2.855  10.115   9.958 -0.2362  0.4330  0.3819
  819MOL0     C10453   2.902  10.079  10.100  0.2277 -0.3937 -0.1006
  819MOL0     O10454   2.958   9.947  10.098 -0.0302  1.0525 -0.3885
  819MOL0     C10455   3.055   9.902  10.192  0.7136 -0.2211  1.4816
  819MOL0     C10456   3.072   9.972  10.310  0.2990 -0.0991 -0.4834
  819MOL0     C10457   3.178   9.929  10.394  0.3701  0.6837 -0.2607
  819MOL0     C10458   3.239   9.808  10.380  0.6834  1.0359 -0.0535
  819MOL0     C10459   3.328   9.767  10.497  0.1904  0.7093  1.1052
  819MOL0     O10460   3.349   9.867  10.590 -0.9516  0.1715 -0.4583
  819MOL0     C10461   3.433   9.839  10.691  0.2449  0.1011  0.2880
  819MOL0     C10462   3.382   9.856  10.823 -0.5121 -0.0356  0.5130
  819MOL0     C10463   3.455   9.830  10.938  0.1274 -0.0865 -0.4816
  819MOL0     C10464   3.597   9.799  10.925  1.5458 -0.4834  0.1965
  819MOL0     O10465   3.686   9.766  11.025 -0.6150 -0.1564  0.0647
  819MOL0     C10466   3.669   9.837  11.147 -0.5144  0.3524 -0.4888
  819MOL0     C10467   3.748   9.769  11.260 -0.4703  0.1273 -0.5943
  819MOL0     C10468   3.896   9.740  11.228  0.0649 -0.9445  0.2464
  819MOL0     C10469   3.962   9.696  11.358  0.5511 -0.8032 -0.7990
  819MOL0     C10470   4.114   9.707  11.342  0.4273  0.3702 -0.4199
  819MOL0     C10471   4.195   9.656  11.457  0.0461 -0.6365 -0.3600
  819MOL0     C10472   4.190   9.499  11.489  0.2054  0.0491 -0.9282
  819MOL0     C10473   4.278   9.444  11.604  0.4561  0.1298 -0.3955
  819MOL0    Cl10474   4.240   9.545  11.746  0.0840 -0.4527 -0.3379
  819MOL0     C10475   3.647   9.801  10.792  0.4731 -0.3573 -0.5750
  819MOL0     C10476   3.566   9.823  10.685 -0.0697  0.3569  0.1573
  819MOL0     O10477   3.374   9.651  10.497  0.2347  0.1065  0.8115
  819MOL0     C10478   3.215   9.740  10.264  0.3370  0.4966 -0.0756
  819MOL0     C10479   3.125   9.785  10.156  0.0740  1.1281 -0.0245
  819MOL0     N10480   3.088  10.066   9.653 -0.5259 -0.0767  0.7471
  819MOL0     N10481   3.094   9.944   9.613  0.5047  1.1448  0.4025
  819MOL0     C10482   2.860   9.167   9.262 -0.9285 -0.6632  0.1305
  819MOL0     C10483   2.978   9.115   9.210 -0.7340  0.5276 -0.0568
  819MOL0     C10484   3.349   9.013   8.992  0.4538  0.0478 -0.1509
  819MOL0     C10485   3.290   8.915   8.902  0.8577  0.6854  0.6987
  819MOL0     C10486   3.367   8.824   8.840  0.0532 -0.0911  0.1624
  819MOL0     C10487   3.505   8.827   8.840 -0.2031  0.4524  0.3031
  819MOL0     O10488   3.577   8.740   8.767 -0.5689 -0.5118 -0.6830
  819MOL0     C10489   3.550   8.599   8.759 -0.9643  0.4251  0.2083
  819MOL0     C10490   3.547   8.521   8.900 -0.2692  0.3124 -0.5376
  819MOL0     C10491   3.402   8.511   8.955  0.2829 -0.4063  1.3719
  819MOL0     C10492   3.418   8.448   9.088  0.7260 -0.2805  0.3439
  819MOL0     C10493   3.286   8.410   9.143 -0.5279 -0.2186 -0.4545
  819MOL0     C10494   3.180   8.387   9.197 -0.5266 -0.2001  0.6025
  819MOL0     C10495   3.566   8.928   8.912 -0.8185 -0.5256 -0.2902
  819MOL0     C10496   3.497   9.012   8.997  1.3890  0.2806 -0.0477
  819MOL0     C10497   3.572   9.115   9.078  0.0879 -0.4491 -0.3371
  819MOL0     H10498   2.972   9.258   8.900  1.6878  0.7517 -0.1948
  819MOL0     H10499   2.745   9.341   8.990 -0.1294  0.4671  1.3598
  819MOL0     H10500   2.507   9.321   9.339  1.2391  0.6217 -0.2215
  819MOL0     H10501   2.604   9.180   9.374 -1.3054  0.3168 -0.0320
  819MOL0     H10502   2.792   9.347   9.456 -0.0544  1.8083  0.2065
  819MOL0     H10503   2.656   9.293   9.563  1.3263 -1.6285  0.2870
  819MOL0     H10504   2.543   9.520   9.465 -0.0848 -1.4890 -1.9364
  819MOL0     H10505   2.702   9.552   9.400 -2.3667 -0.7911 -1.7340
  819MOL0     H10506   2.671   9.675   9.635 -1.5104 -1.6419  0.6073
  819MOL0     H10507   2.649   9.524   9.697  3.6914 -2.3994  0.5769
  819MOL0     H10508   2.888   9.473   9.666 -2.5596 -0.2201 -0.7707
  819MOL0     H10509   2.915   9.600   9.538  0.6033 -0.8507 -0.7379
  819MOL0     H10510   2.869   9.781   9.708 -1.0046 -1.0236 -0.8687
  819MOL0     H10511   2.817   9.670   9.833 -0.7963  2.7098  0.4653
  819MOL0     H10512   3.042   9.560   9.822 -0.3091  1.3138  3.5457
  819MOL0     H10513   3.043   9.717   9.884  1.1384  1.3686 -1.5376
  819MOL0     H10514   3.228   9.666   9.723 -3.1650 -4.3983 -3.4126
  819MOL0     H10515   3.112   9.705   9.589 -2.9051  1.7146 -0.7373
  819MOL0     H10516   3.197   9.906   9.921  1.5340  3.5142  0.8327
  819MOL0     H10517   3.144  10.136   9.978  0.4880 -0.3819  0.8065
  819MOL0     H10518   3.165  10.249   9.850  1.0133 -2.5829 -1.7417
  819MOL0     H10519   2.954  10.308   9.963  1.9560  1.0357 -0.6399
  819MOL0     H10520   2.918  10.238   9.802  1.7877  0.5416 -0.8064
  819MOL0     H10521   2.846  10.027   9.894 -3.3005  2.0865 -1.7134
  819MOL0     H10522   2.757  10.163   9.954 -0.7646 -0.4758  1.5788
  819MOL0     H10523   2.832  10.086  10.183  0.8773 -1.8832  0.6237
  819MOL0     H10524   2.976  10.151  10.135  0.5490  0.6895 -2.7612
  819MOL0     H10525   3.023  10.064  10.341  0.9286 -0.3975  1.5129
  819MOL0     H10526   3.200   9.988  10.483  2.2786  1.2634 -1.0616
  819MOL0     H10527   3.274   9.866  10.830 -0.7880 -2.7672  1.1467
  819MOL0     H10528   3.398   9.834  11.030 -1.8747 -1.1860 -1.6047
  819MOL0     H10529   3.707   9.939  11.142 -1.1213  0.6858  1.0963
  819MOL0     H10530   3.565   9.828  11.179 -0.4947  0.2129 -0.4637
  819MOL0     H10531   3.745   9.805  11.364 -1.1527 -2.1719  0.2589
  819MOL0     H10532   3.699   9.672  11.276 -0.2860  0.3199  1.4909
  819MOL0     H10533   3.905   9.646  11.172 -0.0629 -0.6722 -0.2402
  819MOL0     H10534   3.953   9.812  11.168 -0.7569 -1.6291 -1.4304
  819MOL0     H10535   3.924   9.594  11.369 -1.1315 -0.3129 -1.8188
  819MOL0     H10536   3.922   9.750  11.444 -0.8039 -0.5617 -1.5583
  819MOL0     H10537   4.134   9.809  11.308 -0.2680  0.4590 -0.5665
  819MOL0     H10538   4.136   9.643  11.257 -3.8788 -0.7420 -0.9199
  819MOL0     H10539   4.298   9.689  11.439 -0.6213  0.8085 -1.8138
  819MOL0     H10540   4.151   9.716  11.538 -0.1334 -0.6260 -0.4649
  819MOL0     H10541   4.235   9.449  11.403  1.4706 -1.7280  0.6885
  819MOL0     H10542   4.084   9.479  11.506  0.2070 -0.6955 -1.7319
  819MOL0     H10543   4.251   9.340  11.621 -0.1570  0.4198  0.4410
  819MOL0     H10544   4.384   9.453  11.577  0.2470  1.0969 -0.9532
  819MOL0     H10545   3.753   9.783  10.777  0.1560 -0.6357 -2.8730
  819MOL0     H10546   3.600   9.825  10.582 -1.2514 -0.1697 -0.2610
  819MOL0     H10547   3.243   9.635  10.271 -4.0250 -0.8039  1.0652
  819MOL0     H10548   3.101   9.724  10.070 -3.7404  2.4825 -0.1051
  819MOL0     H10549   2.842   9.138   9.366  3.8039 -1.6063  0.8965
  819MOL0     H10550   3.028   9.037   9.266  0.3355  0.7493 -0.6725
  819MOL0     H10551   3.182   8.905   8.892  1.1431 -0.5749 -1.7973
  819MOL0     H10552   3.329   8.745   8.775  4.6051 -0.7931 -2.0511
  819MOL0     H10553   3.638   8.556   8.710  0.1283 -0.9909  3.1282
  819MOL0     H10554   3.453   8.585   8.711  0.4918  0.4662 -2.9678
  819MOL0     H10555   3.601   8.584   8.971 -0.9784  1.3861 -0.9291
  819MOL0     H10556   3.590   8.423   8.877  0.2042  0.7297 -1.4899
  819MOL0     H10557   3.350   8.440   8.892  1.1225  0.2849 -0.1518
  819MOL0     H10558   3.347   8.605   8.968  3.3132  1.5260  1.4479
  819MOL0     H10559   3.473   8.357   9.064 -0.5555 -1.0489  0.2466
  819MOL0     H10560   3.470   8.511   9.161  1.1005  1.1290 -1.0715
  819MOL0     H10561   3.079   8.396   9.233 -0.3602  1.6741  0.7112
  819MOL0     H10562   3.673   8.931   8.897 -0.7259 -2.0904 -0.1176
  819MOL0     H10563   3.523   9.211   9.060  0.3324 -0.6466 -2.3514
  819MOL0     H10564   3.567   9.103   9.186 -2.1406  0.6608 -0.2567
  819MOL0     H10565   3.676   9.126   9.045  0.6579 -0.3349  1.4218
  820MOL0     O10566   9.889   4.996  10.306 -0.7462  0.2129  0.3444
  820MOL0     C10567   9.972   5.061  10.239 -0.3447  0.4258 -0.5194
  820MOL0     O10568   9.999   5.040  10.105 -0.5311 -0.6268 -0.3707
  820MOL0     C10569   9.930   4.946  10.031  0.7362  0.4190  0.9454
  820MOL0     C10570   9.840   4.985   9.928  0.0009  0.8314 -0.7307
  820MOL0     C10571   9.752   4.889   9.866 -0.0962  0.6054  0.5308
  820MOL0     C10572   9.770   4.757   9.883 -1.1058 -0.7209 -0.4868
  820MOL0     O10573   9.685   4.672   9.808  0.8023  0.5717  0.0306
  820MOL0     C10574   9.739   4.547   9.756  0.0084 -0.3534 -0.3522
  820MOL0     C10575   9.850   4.578   9.654 -0.1588 -0.1227  0.1343
  820MOL0     C10576   9.990   4.591   9.716 -0.2125 -0.6357  0.3063
  820MOL0     C10577  10.088   4.531   9.621  0.5213 -0.2138  0.1237
  820MOL0     C10578  10.112   4.377   9.646 -0.3782 -0.6106 -0.1264
  820MOL0     C10579  10.252   4.321   9.610  1.3243  0.1118  0.2094
  820MOL0     C10580  10.285   4.341   9.458  0.1120 -0.5222 -1.1592
  820MOL0     C10581  10.429   4.289   9.430 -0.7437  0.2026  0.2425
  820MOL0     N10582  10.527   4.370   9.503 -0.5714 -0.1683  0.6688
  820MOL0     C10583  10.525   4.506   9.488  0.4325  0.5400 -1.1724
  820MOL0     C10584  10.644   4.558   9.520  0.1591  0.2962  0.1063
  820MOL0     C10585  10.688   4.701   9.543  0.9692  0.0097  0.0975
  820MOL0     C10586  10.582   4.807   9.550 -0.1110  0.5280 -0.5242
  820MOL0     C10587  10.539   4.845   9.410  0.5011 -0.0770 -0.0041
  820MOL0     C10588  10.449   4.969   9.427  0.4977  0.1942  0.9820
  820MOL0     O10589  10.325   4.925   9.482 -0.7387 -0.1694  0.1026
  820MOL0     C10590  10.225   5.013   9.518 -0.2059 -0.1002 -0.5991
  820MOL0     C10591  10.112   4.956   9.572  0.3488  0.5596  0.2579
  820MOL0     C10592  10.005   5.035   9.612  0.8174 -0.1788  0.4986
  820MOL0     C10593  10.011   5.176   9.588  0.3917 -1.2417 -0.3412
  820MOL0     C10594   9.902   5.259   9.629 -0.0636 -0.3346 -0.5103
  820MOL0     O10595   9.791   5.192   9.677 -0.3271 -0.2824 -0.0051
  820MOL0     C10596   9.689   5.271   9.716  0.0242  0.6151 -0.2710
  820MOL0     C10597   9.697   5.350   9.829  0.1420  0.8336 -0.1456
  820MOL0     C10598   9.587   5.435   9.866 -0.8583  0.8556  0.1776
  820MOL0     C10599   9.474   5.448   9.783 -0.5435  0.2944  0.9792
  820MOL0     O10600   9.375   5.537   9.826  0.2253 -0.2424  0.1786
  820MOL0     C10601   9.242   5.511   9.793  0.4175  0.5902 -0.5725
  820MOL0     C10602   9.145   5.579   9.889  0.2616  0.3913  0.6254
  820MOL0     C10603   9.108   5.502  10.021 -0.1980  0.4836 -0.6702
  820MOL0     C10604   9.227   5.509  10.124 -0.8025  0.3199  0.4305
  820MOL0     C10605   9.190   5.455  10.263 -0.1078 -0.4867 -1.1473
  820MOL0     C10606   9.303   5.469  10.376  0.7089  0.9235 -0.1830
  820MOL0     C10607   9.261   5.427  10.516  0.0041  0.5364 -0.6915
  820MOL0     C10608   9.186   5.299  10.509  0.7039  0.2238 -0.6563
  820MOL0    Cl10609   9.136   5.252  10.668  0.2150  0.2843 -0.3384
  820MOL0     C10610   9.468   5.374   9.668  0.1747  0.1672  0.8850
  820MOL0     C10611   9.574   5.280   9.631  0.1415  0.3516  0.2572
  820MOL0     O10612   9.915   5.379   9.633 -0.1955 -0.0711 -0.2192
  820MOL0     C10613  10.134   5.234   9.548  0.0559 -0.1191 -0.7468
  820MOL0     C10614  10.238   5.146   9.517 -0.2846 -0.1877 -1.0776
  820MOL0     N10615  10.736   4.449   9.544  0.6814 -0.2465 -0.2960
  820MOL0     N10616  10.663   4.343   9.517  0.6752  0.6752  0.2356
  820MOL0     C10617   9.857   4.713   9.987  0.0011 -0.0741  0.9498
  820MOL0     C10618   9.932   4.803  10.063 -0.4744  0.3991  0.1393
  820MOL0     C10619  10.033   5.175  10.298  0.5740 -0.5773 -0.6765
  820MOL0     C10620  10.085   5.277  10.220  0.2622  0.3704  0.5896
  820MOL0     C10621  10.154   5.387  10.276 -0.4067  0.6243 -0.4468
  820MOL0     C10622  10.173   5.401  10.411 -0.2546  0.8062  0.4938
  820MOL0     O10623  10.229   5.503  10.471 -0.7314 -0.7223 -0.1516
  820MOL0     C10624  10.271   5.625  10.399  0.2039  0.0209  0.1847
  820MOL0     C10625  10.169   5.747  10.412 -0.3016  0.0173  0.2777
  820MOL0     C10626  10.186   5.820  10.553  0.4103 -0.4440 -1.0246
  820MOL0     C10627  10.114   5.748  10.664 -0.6420  0.1175 -0.4655
  820MOL0     C10628   9.978   5.785  10.695  0.4611 -0.3988 -0.5170
  820MOL0     C10629   9.864   5.793  10.726 -0.0908 -0.3797 -0.1067
  820MOL0     C10630  10.134   5.293  10.491 -0.0421  0.8254  0.2500
  820MOL0     C10631  10.065   5.187  10.434  0.7511  0.6165  0.1405
  820MOL0     C10632  10.032   5.076  10.535  0.8103 -0.5845  0.2268
  820MOL0     H10633   9.832   5.093   9.913 -2.0155  1.2281  2.3180
  820MOL0     H10634   9.681   4.916   9.789  0.2609 -0.2653 -0.1227
  820MOL0     H10635   9.768   4.474   9.832 -0.9020 -0.4106 -0.0462
  820MOL0     H10636   9.654   4.496   9.711  0.3644 -0.7169 -0.6175
  820MOL0     H10637   9.820   4.661   9.589  0.6403 -0.7780 -1.1126
  820MOL0     H10638   9.858   4.496   9.582 -0.5703  0.6639 -0.8153
  820MOL0     H10639  10.010   4.532   9.806  5.1496 -0.9605 -0.7570
  820MOL0     H10640  10.013   4.697   9.730 -1.5372 -0.4017  0.8598
  820MOL0     H10641  10.067   4.567   9.520  0.4577 -0.5389  0.0225
  820MOL0     H10642  10.180   4.582   9.651  0.8299 -0.0077 -1.1335
  820MOL0     H10643  10.100   4.352   9.752  1.1410 -1.6868 -0.1926
  820MOL0     H10644  10.039   4.316   9.593  0.1590 -1.9515  0.6366
  820MOL0     H10645  10.331   4.381   9.655  2.3802  0.5643 -2.0877
  820MOL0     H10646  10.259   4.213   9.627 -2.2991 -0.2069  0.4811
  820MOL0     H10647  10.277   4.448   9.438  0.7039 -0.4278 -0.8926
  820MOL0     H10648  10.216   4.285   9.393  2.2310 -1.4905 -2.7128
  820MOL0     H10649  10.443   4.181   9.442 -2.1885 -0.2971 -2.0674
  820MOL0     H10650  10.443   4.291   9.322  1.3803 -1.4376  0.4247
  820MOL0     H10651  10.432   4.560   9.470 -0.8179  0.1812  3.1220
  820MOL0     H10652  10.738   4.689   9.639  1.7456 -3.6566 -0.6384
  820MOL0     H10653  10.760   4.738   9.469  0.4170  2.1201  0.5466
  820MOL0     H10654  10.506   4.770   9.620 -1.1408  3.4532  0.0307
  820MOL0     H10655  10.626   4.897   9.595 -1.9918  1.2836 -0.0822
  820MOL0     H10656  10.479   4.763   9.368  0.3515 -0.1823  0.4042
  820MOL0     H10657  10.621   4.880   9.346 -0.8926  2.9325 -0.3123
  820MOL0     H10658  10.424   5.013   9.330  3.5765  1.9533  0.8607
  820MOL0     H10659  10.505   5.042   9.486  2.0523 -1.6089  1.8317
  820MOL0     H10660  10.102   4.849   9.578  1.4302  0.3668 -0.9461
  820MOL0     H10661   9.920   4.990   9.662 -0.3151  2.2728  0.9220
  820MOL0     H10662   9.785   5.349   9.893 -0.0895 -1.1149  0.1869
  820MOL0     H10663   9.582   5.486   9.962  2.0727 -0.3134  1.0846
  820MOL0     H10664   9.224   5.538   9.689  0.6548  1.0511 -0.4928
  820MOL0     H10665   9.226   5.404   9.810  1.1169 -0.1996 -4.0292
  820MOL0     H10666   9.181   5.678   9.917 -0.1508  0.5882  0.4710
  820MOL0     H10667   9.052   5.594   9.834  0.1932 -0.9668  0.3430
  820MOL0     H10668   9.023   5.551  10.069  0.1427 -0.9816  1.5542
  820MOL0     H10669   9.094   5.397   9.993 -0.8381  0.6578 -1.0255
  820MOL0     H10670   9.257   5.615  10.126 -2.1841  0.7584 -0.5466
  820MOL0     H10671   9.308   5.449  10.082 -1.2717 -1.2055  1.6235
  820MOL0     H10672   9.156   5.351  10.260 -3.9188  0.5998 -0.6854
  820MOL0     H10673   9.103   5.513  10.294  0.6582  0.0565  0.0344
  820MOL0     H10674   9.378   5.399  10.338 -2.0490 -1.8916 -0.8226
  820MOL0     H10675   9.325   5.576  10.377  1.8084  0.6994  0.1652
  820MOL0     H10676   9.208   5.500  10.579 -1.3854 -2.8067  2.3624
  820MOL0     H10677   9.353   5.405  10.570 -2.1256 -0.9081  2.6824
  820MOL0     H10678   9.104   5.314  10.439  1.1151 -0.4143 -1.2905
  820MOL0     H10679   9.243   5.215  10.469  1.7214  1.7446 -2.5278
  820MOL0     H10680   9.383   5.387   9.603  0.2678 -2.1119  0.2089
  820MOL0     H10681   9.557   5.227   9.538 -1.7115  3.3947 -1.3185
  820MOL0     H10682  10.159   5.337   9.570  0.6483 -0.8067  2.3117
  820MOL0     H10683  10.333   5.190   9.487  0.0223  1.0594  1.5019
  820MOL0     H10684   9.870   4.609  10.013 -2.6667 -1.0713 -1.1886
  820MOL0     H10685   9.992   4.768  10.146 -1.5203  0.9005  1.1438
  820MOL0     H10686  10.084   5.274  10.111  1.3463  4.6066  0.2973
  820MOL0     H10687  10.192   5.464  10.210  3.7133 -1.3144 -0.6682
  820MOL0     H10688  10.287   5.616  10.291 -3.3357  0.4287 -0.4950
  820MOL0     H10689  10.364   5.656  10.448  0.9048  0.7971 -1.5435
  820MOL0     H10690  10.066   5.717  10.390 -0.6750  1.5558 -0.2243
  820MOL0     H10691  10.192   5.822  10.336  0.5470 -1.3173 -0.8161
  820MOL0     H10692  10.137   5.917  10.545  1.5969  0.2253 -0.3797
  820MOL0     H10693  10.290   5.835  10.582  0.7535 -1.3178 -1.7681
  820MOL0     H10694  10.112   5.641  10.643 -0.8098  0.3124 -1.4910
  820MOL0     H10695  10.172   5.757  10.756  0.9833 -0.9713 -1.3347
  820MOL0     H10696   9.762   5.786  10.757 -0.0506 -0.7222 -0.0520
  820MOL0     H10697  10.140   5.300  10.599 -2.6510 -0.4288  0.5483
  820MOL0     H10698  10.075   5.086  10.635 -2.1069  2.7566  1.3537
  820MOL0     H10699   9.925   5.061  10.554  0.7629 -1.5499 -0.6950
  820MOL0     H10700  10.067   4.981  10.493 -2.8430 -2.0581  0.1772
  821MOL0     O10701   1.287   5.235   7.467 -0.4783  0.3535  0.3083
  821MOL0     C10702   1.231   5.175   7.375  0.0423  0.2919 -0.2243
  821MOL0     O10703   1.256   5.189   7.241  0.2151  0.0166  0.3716
  821MOL0     C10704   1.344   5.279   7.198 -0.5957 -0.3355 -0.7213
  821MOL0     C10705   1.311   5.412   7.188  0.1263  0.5653  0.9688
  821MOL0     C10706   1.400   5.507   7.149  0.2414  0.2457 -0.1870
  821MOL0     C10707   1.535   5.470   7.125  0.6764  0.0382 -0.0618
  821MOL0     O10708   1.620   5.576   7.088 -0.6245  0.0841 -0.6675
  821MOL0     C10709   1.735   5.583   7.168 -1.1791  0.3975 -0.3784
  821MOL0     C10710   1.821   5.703   7.119 -0.2797 -0.2693  0.4229
  821MOL0     C10711   1.907   5.670   6.998  0.5755 -0.1051 -0.0767
  821MOL0     C10712   1.940   5.796   6.916 -0.0073 -0.1094 -0.1910
  821MOL0     C10713   1.824   5.847   6.840 -0.1899  0.1586 -0.2427
  821MOL0     C10714   1.857   5.988   6.776 -0.4595  0.0122  1.1430
  821MOL0     C10715   1.996   6.011   6.710  0.4563  0.7766  0.3902
  821MOL0     C10716   1.996   6.139   6.637  0.0829 -0.9448  0.0833
  821MOL0     N10717   1.898   6.150   6.533 -0.4806 -0.7271 -0.8425
  821MOL0     C10718   1.792   6.232   6.532 -0.4632 -0.5042  0.5097
  821MOL0     C10719   1.733   6.211   6.413 -0.2167 -0.0340  0.2248
  821MOL0     C10720   1.613   6.287   6.359  0.0610 -0.0367  0.0060
  821MOL0     C10721   1.549   6.198   6.250  0.5085 -0.0267 -0.3047
  821MOL0     C10722   1.412   6.255   6.198 -0.6778 -0.3243  0.2082
  821MOL0     C10723   1.423   6.404   6.147  0.1906  0.5844 -0.0604
  821MOL0     O10724   1.434   6.506   6.244  0.0362  0.0470 -1.0089
  821MOL0     C10725   1.432   6.638   6.199 -0.6441 -0.3711  0.1723
  821MOL0     C10726   1.447   6.723   6.305 -0.3495  0.1973  0.0239
  821MOL0     C10727   1.467   6.858   6.276  0.2156  0.2492 -0.0254
  821MOL0     C10728   1.466   6.904   6.147  0.4905 -0.1806  0.6682
  821MOL0     C10729   1.477   7.050   6.121  0.1648  0.0189 -0.2649
  821MOL0     O10730   1.532   7.123   6.225  0.5966  0.4530  0.6152
  821MOL0     C10731   1.558   7.254   6.196 -0.7794 -0.5501  0.4886
  821MOL0     C10732   1.609   7.308   6.074 -0.5356 -0.4179 -0.9654
  821MOL0     C10733   1.654   7.449   6.072  0.5292 -0.4205 -0.4355
  821MOL0     C10734   1.655   7.522   6.192  0.0791 -0.5217 -0.3230
  821MOL0     O10735   1.711   7.648   6.198 -0.7269 -0.2616  0.3384
  821MOL0     C10736   1.820   7.681   6.113 -0.6455 -0.7108 -0.2361
  821MOL0     C10737   1.851   7.831   6.151 -0.5541  0.7711 -0.0734
  821MOL0     C10738   1.977   7.880   6.083  0.6755 -0.5825  0.4815
  821MOL0     C10739   2.016   8.022   6.143  0.5482  0.9481  0.8343
  821MOL0     C10740   2.152   8.056   6.100 -0.7364  0.1891  0.0318
  821MOL0     C10741   2.196   8.180   6.189 -0.4159 -0.0443 -0.5215
  821MOL0     C10742   2.342   8.225   6.160 -0.8063 -0.3265  0.8110
  821MOL0     C10743   2.363   8.338   6.063  0.7285  0.1881  0.6559
  821MOL0    Cl10744   2.301   8.286   5.903  0.1200 -0.0535  0.3431
  821MOL0     C10745   1.608   7.462   6.309  0.1487 -1.3574  0.6896
  821MOL0     C10746   1.554   7.334   6.314 -0.6956  0.4368  0.0517
  821MOL0     O10747   1.430   7.096   6.018  1.5465  0.6183 -0.1655
  821MOL0     C10748   1.452   6.813   6.042 -1.2203 -0.9201  0.4667
  821MOL0     C10749   1.444   6.679   6.068  0.0725  1.0084 -1.2131
  821MOL0     N10750   1.819   6.128   6.341  0.1435  0.3107 -0.1774
  821MOL0     N10751   1.914   6.090   6.417  0.4174 -0.0449  0.7690
  821MOL0     C10752   1.571   5.335   7.134  0.2833  0.1785  0.3705
  821MOL0     C10753   1.474   5.244   7.163 -0.2897 -0.4537  0.4951
  821MOL0     C10754   1.123   5.081   7.414  0.1122 -0.8927 -0.2462
  821MOL0     C10755   1.067   4.996   7.312 -0.6102 -0.8217  1.0418
  821MOL0     C10756   0.962   4.915   7.332 -0.4089  0.6259 -0.0320
  821MOL0     C10757   0.904   4.911   7.456  0.9006 -0.0024 -0.2940
  821MOL0     O10758   0.795   4.824   7.473 -0.0144  0.6175 -0.0170
  821MOL0     C10759   0.696   4.839   7.578 -0.1082 -0.2489  0.1709
  821MOL0     C10760   0.555   4.796   7.534  0.1471 -0.6609 -0.4155
  821MOL0     C10761   0.541   4.644   7.556  0.4312  0.2747 -0.3978
  821MOL0     C10762   0.489   4.613   7.697 -0.3187 -0.0060  0.8152
  821MOL0     C10763   0.344   4.652   7.703  0.0941  0.4589  0.4494
  821MOL0     C10764   0.235   4.685   7.682  0.4338  0.6855 -0.2505
  821MOL0     C10765   0.962   4.984   7.559 -0.1588  0.1583 -0.1278
  821MOL0     C10766   1.072   5.066   7.539  0.1120 -0.7749 -0.1464
  821MOL0     C10767   1.131   5.140   7.659 -0.1676  0.5156 -0.2501
  821MOL0     H10768   1.211   5.447   7.214 -1.2941 -3.0119  0.9015
  821MOL0     H10769   1.368   5.609   7.130  2.9587  0.6488 -3.6822
  821MOL0     H10770   1.712   5.603   7.273  1.6960 -2.3770  0.9504
  821MOL0     H10771   1.799   5.495   7.158  2.4787  2.7701  0.0100
  821MOL0     H10772   1.885   5.742   7.198 -1.5422 -0.7341  1.7021
  821MOL0     H10773   1.750   5.782   7.092  1.2667  1.5227  1.3582
  821MOL0     H10774   1.848   5.598   6.940  1.4484 -1.3768  0.5676
  821MOL0     H10775   2.001   5.625   7.033 -1.3588 -2.4009  2.5971
  821MOL0     H10776   1.981   5.866   6.990  1.0858 -1.2256  0.3056
  821MOL0     H10777   2.018   5.773   6.843  1.8275  1.7851  1.0533
  821MOL0     H10778   1.804   5.780   6.756  1.5252  3.0268 -3.1896
  821MOL0     H10779   1.731   5.858   6.895 -0.3717 -1.1738 -0.2576
  821MOL0     H10780   1.778   6.002   6.702 -0.4148  1.6592  1.3580
  821MOL0     H10781   1.830   6.060   6.854  1.2765  1.3782  0.5521
  821MOL0     H10782   2.009   5.928   6.641 -2.4963 -0.2855  0.9537
  821MOL0     H10783   2.074   6.013   6.787  0.7750  2.3592  0.0515
  821MOL0     H10784   1.976   6.216   6.712 -1.3027  1.4491 -2.5192
  821MOL0     H10785   2.095   6.158   6.594  1.2881 -2.1731  2.1780
  821MOL0     H10786   1.763   6.302   6.610  1.5482  1.0694 -0.0601
  821MOL0     H10787   1.535   6.314   6.430 -0.6840  3.3283 -1.9132
  821MOL0     H10788   1.651   6.377   6.310  3.2194 -1.3539 -0.2767
  821MOL0     H10789   1.618   6.201   6.166  2.0372 -0.7405  0.8655
  821MOL0     H10790   1.535   6.094   6.283 -0.1849  0.7471  2.0571
  821MOL0     H10791   1.334   6.262   6.275  0.1746 -0.9448  1.1432
  821MOL0     H10792   1.371   6.196   6.115 -2.5667  0.3726  0.5908
  821MOL0     H10793   1.331   6.412   6.089  0.0876 -2.1874 -0.4465
  821MOL0     H10794   1.497   6.416   6.068  1.6074 -0.5975  1.0232
  821MOL0     H10795   1.443   6.682   6.405  2.9896 -0.5984 -0.0614
  821MOL0     H10796   1.453   6.922   6.363 -1.0502 -1.2212  0.9151
  821MOL0     H10797   1.618   7.238   5.991 -0.6391 -0.5293 -0.8837
  821MOL0     H10798   1.683   7.508   5.986 -0.8499  0.0064 -0.6265
  821MOL0     H10799   1.903   7.614   6.137 -0.4333 -1.2652 -2.3492
  821MOL0     H10800   1.801   7.676   6.006 -0.3168 -0.6455 -0.2993
  821MOL0     H10801   1.773   7.900   6.118  1.1529  2.2230 -1.2699
  821MOL0     H10802   1.870   7.837   6.259  0.7689  0.5350 -0.2775
  821MOL0     H10803   2.061   7.810   6.090  2.0847  1.0829  1.0059
  821MOL0     H10804   1.947   7.895   5.979 -3.0031  6.0902  1.9123
  821MOL0     H10805   2.000   8.025   6.252 -1.5971  2.3434  0.5213
  821MOL0     H10806   1.938   8.087   6.104 -0.1677 -0.4694 -0.1829
  821MOL0     H10807   2.145   8.076   5.993 -3.1881  1.4939  0.3532
  821MOL0     H10808   2.221   7.971   6.110 -0.2036  0.3745 -1.7848
  821MOL0     H10809   2.124   8.262   6.182 -1.5731 -1.1967 -4.0437
  821MOL0     H10810   2.191   8.149   6.294 -0.3076 -0.2924 -0.5869
  821MOL0     H10811   2.397   8.136   6.127 -0.5304 -1.0264  3.0371
  821MOL0     H10812   2.385   8.257   6.254  1.1245 -0.1648 -0.0844
  821MOL0     H10813   2.311   8.431   6.087 -0.6719 -0.2293 -0.6293
  821MOL0     H10814   2.472   8.349   6.065  0.7232  0.3082  2.3193
  821MOL0     H10815   1.601   7.528   6.395  0.1398 -1.6265  0.8991
  821MOL0     H10816   1.522   7.273   6.398  1.1478 -1.8772 -0.7957
  821MOL0     H10817   1.443   6.848   5.940 -0.3186  2.6256  1.4817
  821MOL0     H10818   1.444   6.609   5.984 -0.1012  1.0021 -1.2089
  821MOL0     H10819   1.673   5.302   7.116 -0.2193 -0.9071 -0.6667
  821MOL0     H10820   1.491   5.138   7.178 -0.8080 -0.3583  2.0399
  821MOL0     H10821   1.106   4.999   7.210  0.5424 -3.1641  1.3332
  821MOL0     H10822   0.905   4.857   7.259 -1.4908 -1.0775  2.0541
  821MOL0     H10823   0.695   4.944   7.607  0.0594 -1.0730  3.6464
  821MOL0     H10824   0.714   4.775   7.665 -1.1322 -2.1512 -0.9392
  821MOL0     H10825   0.544   4.821   7.429  0.9068 -1.7768 -0.7894
  821MOL0     H10826   0.483   4.861   7.584  1.4815  1.3359 -0.9800
  821MOL0     H10827   0.630   4.583   7.536  1.2880  0.5097  2.3431
  821MOL0     H10828   0.466   4.598   7.492  0.3501 -0.3317  0.1210
  821MOL0     H10829   0.498   4.507   7.720  0.5075  0.4447  2.8800
  821MOL0     H10830   0.538   4.680   7.769 -0.1912  1.2570 -0.4050
  821MOL0     H10831   0.141   4.732   7.659 -0.0739 -0.6202 -0.9723
  821MOL0     H10832   0.914   4.992   7.656 -0.0463  3.3702 -0.2190
  821MOL0     H10833   1.102   5.106   7.759  0.6642 -0.8846 -0.4506
  821MOL0     H10834   1.239   5.120   7.662  0.0398  1.3428 -1.5416
  821MOL0     H10835   1.123   5.248   7.644 -1.4214  0.5100  0.3056
  822MOL0     O10836   9.834  10.051   5.497 -0.0602  0.0010 -0.3182
  822MOL0     C10837   9.742  10.002   5.560 -0.9751  0.6881  0.5554
  822MOL0     O10838   9.728   9.992   5.693 -0.9564 -0.0258  0.0558
  822MOL0     C10839   9.825  10.064   5.774  0.4951  0.6068 -0.2891
  822MOL0     C10840   9.786  10.176   5.848  0.5834  0.6551  0.6475
  822MOL0     C10841   9.875  10.261   5.905  0.3237 -0.2148 -0.5212
  822MOL0     C10842  10.012  10.255   5.886  0.5556  0.2589  0.3725
  822MOL0     O10843  10.094  10.353   5.932  0.4625  0.7416  0.2414
  822MOL0     C10844  10.202  10.386   5.834  0.8028  0.1700  0.3424
  822MOL0     C10845  10.282  10.513   5.858  0.1828  0.5703 -0.5707
  822MOL0     C10846  10.363  10.505   5.995  0.6421  0.5926 -0.8733
  822MOL0     C10847  10.451  10.627   6.011  0.5200 -0.9259 -0.0920
  822MOL0     C10848  10.442  10.687   6.149  0.6101  0.5581 -0.5850
  822MOL0     C10849  10.502  10.830   6.163 -0.0106  1.1692  0.4343
  822MOL0     C10850  10.652  10.806   6.199  0.9571 -0.3045  0.2858
  822MOL0     C10851  10.706  10.947   6.226  0.2302  0.2346  0.0920
  822MOL0     N10852  10.843  10.932   6.287 -0.2586 -0.0306 -0.2921
  822MOL0     C10853  10.961  10.962   6.218  0.7249  0.0237 -0.5309
  822MOL0     C10854  11.062  10.916   6.299 -1.4441 -0.5374  0.3780
  822MOL0     C10855  11.211  10.920   6.252  0.7728 -0.3348  0.0852
  822MOL0     C10856  11.274  10.787   6.211 -0.0995  0.8183 -0.2007
  822MOL0     C10857  11.208  10.732   6.085 -0.3366  0.5856 -0.0905
  822MOL0     C10858  11.067  10.666   6.095 -0.1273 -0.4487  0.1877
  822MOL0     O10859  11.035  10.613   5.974  0.5090 -0.6303 -0.1514
  822MOL0     C10860  10.942  10.515   5.953  0.6136  0.2779 -0.4564
  822MOL0     C10861  10.842  10.477   6.047 -0.2503 -0.0460 -0.7345
  822MOL0     C10862  10.755  10.369   6.026 -0.7037  0.7909 -0.1409
  822MOL0     C10863  10.756  10.298   5.907 -0.1807 -0.5913 -0.1649
  822MOL0     C10864  10.666  10.186   5.875  0.1641  0.3704  0.0063
  822MOL0     O10865  10.569  10.163   5.972  0.3726 -0.6515 -0.5476
  822MOL0     C10866  10.480  10.060   5.942 -0.6714  0.0175  0.2518
  822MOL0     C10867  10.429   9.990   6.051 -0.6636  0.1627  0.2796
  822MOL0     C10868  10.352   9.868   6.046 -0.5637  0.4385  0.2364
  822MOL0     C10869  10.316   9.829   5.922 -0.1045 -0.6557  0.2129
  822MOL0     O10870  10.249   9.714   5.901 -0.7381  0.5370 -0.2547
  822MOL0     C10871  10.106   9.716   5.935  0.2857  0.2071 -0.2601
  822MOL0     C10872  10.061   9.581   5.866 -0.9573 -1.1901 -0.1665
  822MOL0     C10873   9.906   9.587   5.866 -0.4655 -0.2383 -0.0426
  822MOL0     C10874   9.837   9.446   5.860 -0.0877  1.4030  0.4597
  822MOL0     C10875   9.681   9.457   5.839  0.6284 -0.2099 -0.5843
  822MOL0     C10876   9.608   9.540   5.948 -0.2267 -0.8808 -0.2805
  822MOL0     C10877   9.463   9.528   5.956  0.1101 -0.9165  0.7032
  822MOL0     C10878   9.395   9.489   5.821  0.4416 -1.4336 -0.9964
  822MOL0    Cl10879   9.405   9.622   5.695 -0.1153 -0.1564  0.2024
  822MOL0     C10880  10.357   9.901   5.807 -0.0998  0.2539  0.4333
  822MOL0     C10881  10.434  10.017   5.819  0.2714 -0.7428  0.3759
  822MOL0     O10882  10.689  10.125   5.767 -0.5184  0.2042  0.1625
  822MOL0     C10883  10.839  10.346   5.808 -0.0182 -0.0443  0.9839
  822MOL0     C10884  10.934  10.451   5.826 -0.1331 -0.0638  2.0107
  822MOL0     N10885  11.008  10.866   6.418 -0.2108  0.3099  0.8206
  822MOL0     N10886  10.881  10.879   6.404  0.0297  0.6086 -0.6008
  822MOL0     C10887  10.059  10.137   5.822 -0.4916 -0.0967 -0.6864
  822MOL0     C10888   9.961  10.044   5.771  0.8204 -0.0127 -0.2613
  822MOL0     C10889   9.620   9.947   5.493 -0.5929  0.2461 -0.4492
  822MOL0     C10890   9.497   9.940   5.566  1.1196 -0.0326 -0.7094
  822MOL0     C10891   9.382   9.893   5.501 -0.0026 -0.5111 -1.5027
  822MOL0     C10892   9.375   9.855   5.372  0.0814 -0.8355 -0.6364
  822MOL0     O10893   9.258   9.815   5.314 -0.3160  0.3492 -0.1689
  822MOL0     C10894   9.193   9.701   5.388 -0.8276 -0.3145 -0.3420
  822MOL0     C10895   9.094   9.633   5.301 -0.8636 -0.1319  0.8364
  822MOL0     C10896   9.008   9.534   5.373  0.9598  0.0458  0.8812
  822MOL0     C10897   8.979   9.421   5.281  0.1296  0.3380  0.4608
  822MOL0     C10898   8.856   9.343   5.308  0.8870  0.0651 -0.1283
  822MOL0     C10899   8.755   9.281   5.330 -1.0811 -0.3297 -1.1788
  822MOL0     C10900   9.495   9.855   5.303 -1.0853 -0.2389  0.1476
  822MOL0     C10901   9.625   9.899   5.359  0.3334  0.6474 -0.4080
  822MOL0     C10902   9.745   9.903   5.264  1.0015  0.7192  0.3291
  822MOL0     H10903   9.689  10.224   5.847  1.4743  2.5616  0.4733
  822MOL0     H10904   9.840  10.348   5.960 -0.3469 -0.5319 -0.4366
  822MOL0     H10905  10.273  10.303   5.837 -0.3716 -0.8453  1.1679
  822MOL0     H10906  10.167  10.392   5.731 -1.3722  1.3020  1.0880
  822MOL0     H10907  10.210  10.595   5.851  0.7739  1.1089 -0.4556
  822MOL0     H10908  10.347  10.517   5.770  4.3985 -2.3778  1.9820
  822MOL0     H10909  10.423  10.414   6.002 -1.8110 -1.0283  1.0075
  822MOL0     H10910  10.297  10.497   6.083  0.9066  0.8150 -0.6528
  822MOL0     H10911  10.555  10.613   5.978  0.8598 -1.0558  0.9824
  822MOL0     H10912  10.421  10.713   5.950 -1.7448 -1.4040  0.2594
  822MOL0     H10913  10.336  10.702   6.173  1.2870  0.1510  3.3329
  822MOL0     H10914  10.488  10.617   6.220 -1.1327 -2.1912 -1.9932
  822MOL0     H10915  10.492  10.895   6.075 -3.6051 -3.0677 -2.7336
  822MOL0     H10916  10.470  10.889   6.249  1.0355 -0.5076  2.0253
  822MOL0     H10917  10.701  10.759   6.113  2.8426 -0.3112  1.2980
  822MOL0     H10918  10.663  10.739   6.284 -2.6616 -3.3769 -1.4057
  822MOL0     H10919  10.724  10.998   6.130  1.2975 -3.8120 -2.0917
  822MOL0     H10920  10.643  10.996   6.301 -1.7774 -0.9581 -0.7535
  822MOL0     H10921  10.954  11.001   6.117  2.2538 -2.6795 -1.7983
  822MOL0     H10922  11.232  10.987   6.168  1.2293 -0.0497  0.4248
  822MOL0     H10923  11.256  10.960   6.343 -4.5263  1.4147  2.3245
  822MOL0     H10924  11.379  10.815   6.194 -0.7244  4.2920  1.0088
  822MOL0     H10925  11.261  10.713   6.291 -0.5550  0.5064 -0.5595
  822MOL0     H10926  11.273  10.648   6.060 -0.7361 -0.1749  1.3060
  822MOL0     H10927  11.205  10.810   6.008  2.1050  1.7335  0.8516
  822MOL0     H10928  10.990  10.732   6.136 -0.2333 -0.9899  0.8791
  822MOL0     H10929  11.060  10.585   6.168 -1.7417 -0.3392  0.1803
  822MOL0     H10930  10.832  10.538   6.136 -0.1957  0.1194 -0.8405
  822MOL0     H10931  10.679  10.349   6.101  2.6492  0.1174  3.3903
  822MOL0     H10932  10.453  10.017   6.153  1.5482 -4.6103  1.3177
  822MOL0     H10933  10.315   9.815   6.133 -3.7034 -2.2343 -2.4932
  822MOL0     H10934  10.103   9.734   6.043  0.8991  1.2009 -0.3918
  822MOL0     H10935  10.046   9.795   5.889  0.3506 -0.0297 -0.7492
  822MOL0     H10936  10.088   9.575   5.760  3.7874  0.0339  0.7515
  822MOL0     H10937  10.120   9.508   5.921 -0.0057  0.4830  1.1451
  822MOL0     H10938   9.878   9.647   5.953 -2.2065  1.5881 -1.7654
  822MOL0     H10939   9.883   9.640   5.774 -0.2083 -0.4387 -0.2241
  822MOL0     H10940   9.869   9.369   5.931  2.0089 -0.0982 -1.9472
  822MOL0     H10941   9.867   9.396   5.768 -1.9909 -0.8425  0.9498
  822MOL0     H10942   9.657   9.351   5.851 -1.1910  0.0057 -1.9253
  822MOL0     H10943   9.655   9.493   5.740  1.1826  1.3037 -0.1989
  822MOL0     H10944   9.631   9.505   6.049  1.3230 -1.0747 -0.6849
  822MOL0     H10945   9.630   9.647   5.939  0.7430 -1.0660 -0.2093
  822MOL0     H10946   9.415   9.620   5.991 -0.1258 -1.8716  3.1501
  822MOL0     H10947   9.440   9.455   6.034  0.1428 -0.9169  0.7124
  822MOL0     H10948   9.432   9.390   5.791  0.4229 -2.4775  2.0238
  822MOL0     H10949   9.289   9.482   5.846 -0.0928  5.9268  1.3154
  822MOL0     H10950  10.313   9.862   5.717 -1.5536  1.0860  0.7504
  822MOL0     H10951  10.452  10.062   5.722 -3.7838 -0.0363 -0.2085
  822MOL0     H10952  10.849  10.310   5.706 -1.1139  0.2493  0.7593
  822MOL0     H10953  10.999  10.491   5.748 -3.7051  2.7418  0.1686
  822MOL0     H10954  10.165  10.117   5.828 -0.0985  2.2195  1.6137
  822MOL0     H10955   9.990   9.955   5.715 -2.0575  0.3283 -2.5848
  822MOL0     H10956   9.498   9.980   5.666  1.4059  2.2534 -1.5582
  822MOL0     H10957   9.286   9.890   5.552  0.4659  2.5117 -0.1922
  822MOL0     H10958   9.127   9.750   5.461  0.0101  1.4377 -0.7027
  822MOL0     H10959   9.255   9.624   5.436 -0.4432 -0.0330 -0.3854
  822MOL0     H10960   9.159   9.593   5.222 -0.7440  3.0217 -0.8163
  822MOL0     H10961   9.045   9.720   5.257  0.0451  0.2084  0.4502
  822MOL0     H10962   8.917   9.588   5.401  0.2160 -0.8040  0.1583
  822MOL0     H10963   9.066   9.484   5.452  1.6528 -2.2989 -1.0200
  822MOL0     H10964   8.986   9.459   5.178  1.3251 -1.4960 -0.1865
  822MOL0     H10965   9.065   9.353   5.277  0.5988  0.9717 -1.4487
  822MOL0     H10966   8.678   9.211   5.358 -0.5802 -0.3128  0.3468
  822MOL0     H10967   9.491   9.823   5.199 -1.3920 -1.6651  0.5876
  822MOL0     H10968   9.717   9.838   5.181  3.5613 -0.5777  0.3852
  822MOL0     H10969   9.757  10.006   5.229 -2.6812  0.8774 -0.8901
  822MOL0     H10970   9.840   9.858   5.293  0.5075 -0.5422  0.0406
  823MOL0     O10971   0.061   6.651   3.633 -0.3285 -0.0673 -0.1213
  823MOL0     C10972   0.009   6.552   3.591 -0.5635  0.3789  0.6302
  823MOL0     O10973  -0.099   6.534   3.501  0.3462 -0.4845 -0.5744
  823MOL0     C10974  -0.180   6.643   3.464 -0.4455 -0.0046  0.7123
  823MOL0     C10975  -0.301   6.600   3.409  0.1222  0.0906  0.4100
  823MOL0     C10976  -0.392   6.691   3.365  0.4874  0.8845  0.0074
  823MOL0     C10977  -0.369   6.831   3.378 -0.6082 -0.6971  0.4452
  823MOL0     O10978  -0.452   6.932   3.330 -0.6564 -0.8681  0.3752
  823MOL0     C10979  -0.533   6.900   3.219 -0.0093  0.5538 -0.4755
  823MOL0     C10980  -0.448   6.839   3.101  0.0160 -0.8666  0.7334
  823MOL0     C10981  -0.519   6.815   2.957  0.3504  0.5278  0.5733
  823MOL0     C10982  -0.440   6.877   2.844  0.0152 -0.4698  1.4927
  823MOL0     C10983  -0.483   6.853   2.697 -0.3370 -0.5311 -0.5982
  823MOL0     C10984  -0.383   6.920   2.598 -0.0022 -0.1945 -0.1151
  823MOL0     C10985  -0.412   6.869   2.454  0.2829 -0.5109  0.4576
  823MOL0     C10986  -0.376   6.721   2.415  0.5931 -0.0689 -0.4272
  823MOL0     N10987  -0.498   6.646   2.431  0.2068 -0.0473  0.8513
  823MOL0     C10988  -0.528   6.546   2.515 -0.4877  0.6194  0.4155
  823MOL0     C10989  -0.653   6.515   2.505  1.4462  0.3772 -1.0878
  823MOL0     C10990  -0.714   6.415   2.605 -0.9592 -0.5963 -0.1125
  823MOL0     C10991  -0.650   6.278   2.579  0.1680 -0.0489 -0.4393
  823MOL0     C10992  -0.642   6.216   2.435 -0.4150  0.0299  0.3105
  823MOL0     C10993  -0.561   6.082   2.419 -0.1787 -0.1523 -0.0139
  823MOL0     O10994  -0.606   5.985   2.509 -0.5097  0.4649  0.3163
  823MOL0     C10995  -0.516   5.901   2.564 -0.8555 -0.1477 -0.0154
  823MOL0     C10996  -0.545   5.860   2.692  0.5648 -0.4536 -0.1089
  823MOL0     C10997  -0.460   5.777   2.766  0.3074 -0.1089  0.8462
  823MOL0     C10998  -0.324   5.761   2.719  0.2635  0.1091 -0.0713
  823MOL0     C10999  -0.231   5.679   2.790  0.9264  0.2245  0.3868
  823MOL0     O11000  -0.123   5.631   2.713 -0.0601  0.7444 -0.1008
  823MOL0     C11001  -0.006   5.583   2.760 -0.3037 -0.7462  1.1104
  823MOL0     C11002   0.071   5.505   2.676 -0.9728 -0.1306  0.1763
  823MOL0     C11003   0.196   5.457   2.725  0.5761  0.1102 -0.3639
  823MOL0     C11004   0.235   5.464   2.850  0.6618 -0.1923  0.5000
  823MOL0     O11005   0.352   5.423   2.902 -0.0509  0.0454 -0.1176
  823MOL0     C11006   0.457   5.367   2.821  0.0996  0.7503  0.2195
  823MOL0     C11007   0.590   5.356   2.902 -0.4336  0.0045  0.4380
  823MOL0     C11008   0.593   5.234   3.001  0.3922 -0.7953  0.0559
  823MOL0     C11009   0.526   5.259   3.131  1.1169 -0.2425  0.2952
  823MOL0     C11010   0.597   5.170   3.242  0.0610  0.0804  0.3415
  823MOL0     C11011   0.535   5.198   3.382  0.6075 -0.0799  0.3378
  823MOL0     C11012   0.619   5.144   3.495  0.4146 -0.4969  0.2716
  823MOL0     C11013   0.737   5.238   3.526  0.3246 -0.3050  0.1404
  823MOL0    Cl11014   0.677   5.389   3.597  0.5305 -0.3134  0.4507
  823MOL0     C11015   0.151   5.542   2.931 -0.7619  1.0005  0.1424
  823MOL0     C11016   0.035   5.599   2.890 -0.4305 -0.0381  1.0257
  823MOL0     O11017  -0.257   5.656   2.910 -0.6622  0.0154 -0.4488
  823MOL0     C11018  -0.296   5.809   2.590 -0.3130 -0.1827  0.1548
  823MOL0     C11019  -0.397   5.869   2.507  0.1527  0.1663 -0.2304
  823MOL0     N11020  -0.718   6.594   2.410 -0.4699  0.0443 -0.4132
  823MOL0     N11021  -0.621   6.664   2.363 -0.8272  0.0390 -0.1078
  823MOL0     C11022  -0.250   6.872   3.433 -0.1651 -0.0021  0.2676
  823MOL0     C11023  -0.150   6.779   3.469  0.4285 -0.3914  1.9222
  823MOL0     C11024   0.086   6.420   3.623 -0.0388 -0.7215 -0.3741
  823MOL0     C11025   0.060   6.316   3.545 -0.3421 -0.4261  0.0616
  823MOL0     C11026   0.129   6.199   3.550 -0.5222  0.3082 -0.0890
  823MOL0     C11027   0.230   6.183   3.646 -0.0987 -0.6046 -0.1034
  823MOL0     O11028   0.304   6.060   3.643 -0.0264 -0.6586  0.2198
  823MOL0     C11029   0.409   6.017   3.736  0.6329 -0.5124  0.7663
  823MOL0     C11030   0.412   5.866   3.747 -0.8332 -0.2041  1.3112
  823MOL0     C11031   0.487   5.810   3.633  0.0766 -0.2612 -0.5259
  823MOL0     C11032   0.395   5.793   3.510 -1.1429  0.0978 -0.1580
  823MOL0     C11033   0.450   5.685   3.426  0.1909  0.3913 -0.9594
  823MOL0     C11034   0.483   5.596   3.356 -0.7887  1.1792  0.0791
  823MOL0     C11035   0.249   6.280   3.738 -0.0020  0.0981  0.2648
  823MOL0     C11036   0.165   6.404   3.743 -0.3032 -0.2318  0.7497
  823MOL0     C11037   0.182   6.498   3.865 -0.1624  0.1087  0.6050
  823MOL0     H11038  -0.321   6.493   3.414 -0.8624  0.0784 -2.2989
  823MOL0     H11039  -0.485   6.650   3.326 -0.9405  2.0932  1.9260
  823MOL0     H11040  -0.609   6.828   3.252  1.3337 -0.2221  1.0462
  823MOL0     H11041  -0.581   6.990   3.178  1.3098  0.9607 -1.1925
  823MOL0     H11042  -0.414   6.738   3.122  1.7105 -0.4426  0.1748
  823MOL0     H11043  -0.361   6.902   3.079  0.1816 -2.0194 -2.3962
  823MOL0     H11044  -0.615   6.867   2.953  1.0549  1.8065 -3.3623
  823MOL0     H11045  -0.530   6.707   2.945  1.0771  0.4977  0.1319
  823MOL0     H11046  -0.441   6.984   2.867  0.8217 -0.2567  0.5932
  823MOL0     H11047  -0.338   6.838   2.854 -0.2276 -1.0836  1.6147
  823MOL0     H11048  -0.488   6.749   2.663  0.7570 -0.3529 -1.3249
  823MOL0     H11049  -0.587   6.886   2.684 -1.0535 -2.9564 -1.7084
  823MOL0     H11050  -0.388   7.029   2.598  2.2539 -0.0014 -2.3081
  823MOL0     H11051  -0.281   6.898   2.631  0.7452  0.1617 -2.0819
  823MOL0     H11052  -0.360   6.933   2.382 -0.7280  1.6921  1.5690
  823MOL0     H11053  -0.517   6.890   2.430  0.3607  0.8244  1.1976
  823MOL0     H11054  -0.348   6.715   2.310 -0.6771 -3.9679 -0.6897
  823MOL0     H11055  -0.297   6.682   2.480  0.5947 -2.5760 -1.8204
  823MOL0     H11056  -0.460   6.494   2.583 -0.8040 -1.3634 -0.7026
  823MOL0     H11057  -0.707   6.453   2.708  1.6057  0.4600 -0.5867
  823MOL0     H11058  -0.821   6.414   2.582 -0.7166 -2.1778 -1.3565
  823MOL0     H11059  -0.551   6.275   2.626 -0.2617  1.2500  0.6165
  823MOL0     H11060  -0.709   6.201   2.628  1.5935  0.2921  1.9878
  823MOL0     H11061  -0.611   6.288   2.359  0.1762  1.5657  1.9220
  823MOL0     H11062  -0.745   6.189   2.411 -0.3483 -1.9912  2.0114
  823MOL0     H11063  -0.458   6.113   2.441 -0.9164  3.3054 -0.8209
  823MOL0     H11064  -0.563   6.042   2.317 -3.4129 -0.7482  0.1881
  823MOL0     H11065  -0.640   5.885   2.739  1.6503  0.4238  1.7384
  823MOL0     H11066  -0.501   5.743   2.861  0.2796  0.3220  0.9909
  823MOL0     H11067   0.030   5.491   2.576 -0.5146  3.0069 -0.5520
  823MOL0     H11068   0.264   5.408   2.656  1.9991  0.8759  0.4453
  823MOL0     H11069   0.431   5.273   2.772  0.5701  1.6839 -1.9388
  823MOL0     H11070   0.471   5.428   2.732  0.6577 -0.9542 -0.9086
  823MOL0     H11071   0.680   5.344   2.841  0.0880 -0.5105  1.2804
  823MOL0     H11072   0.615   5.439   2.969  0.0772 -1.1611  1.7369
  823MOL0     H11073   0.551   5.138   2.969 -1.5970 -0.2997  0.9788
  823MOL0     H11074   0.698   5.215   3.023  0.2584 -0.8375  0.6656
  823MOL0     H11075   0.419   5.236   3.134  0.9019 -0.0111 -2.8619
  823MOL0     H11076   0.521   5.367   3.146 -2.4606 -0.0588 -1.2091
  823MOL0     H11077   0.704   5.193   3.249  0.0376 -0.2401  2.5668
  823MOL0     H11078   0.580   5.066   3.214 -3.1939  0.9084 -1.2915
  823MOL0     H11079   0.537   5.307   3.391 -0.1930 -0.0463  0.2242
  823MOL0     H11080   0.431   5.164   3.384 -0.6256  3.2362 -0.4510
  823MOL0     H11081   0.663   5.047   3.471 -0.6783 -0.4480 -2.3580
  823MOL0     H11082   0.561   5.131   3.587 -2.0587 -1.1216 -1.2631
  823MOL0     H11083   0.812   5.203   3.597  0.9046  0.8566  0.1264
  823MOL0     H11084   0.795   5.243   3.433  0.0079 -1.8055 -0.1658
  823MOL0     H11085   0.177   5.555   3.036 -0.4984  0.5430  0.1390
  823MOL0     H11086  -0.025   5.645   2.968 -0.0583  0.5226  0.9890
  823MOL0     H11087  -0.191   5.803   2.560 -0.8390 -3.8479 -1.4773
  823MOL0     H11088  -0.373   5.902   2.407 -0.9491 -1.3822 -1.0349
  823MOL0     H11089  -0.231   6.978   3.445  2.5765 -0.6305  2.5014
  823MOL0     H11090  -0.058   6.821   3.508  0.1875  3.0733 -0.6782
  823MOL0     H11091  -0.020   6.312   3.471 -0.1803  2.3330 -0.3720
  823MOL0     H11092   0.092   6.128   3.477 -0.7650 -0.3531  0.6577
  823MOL0     H11093   0.391   6.059   3.836 -0.2322  1.0371 -0.0090
  823MOL0     H11094   0.506   6.060   3.706  0.1531  1.2921  1.6457
  823MOL0     H11095   0.313   5.819   3.750  0.8632 -4.2581  0.5432
  823MOL0     H11096   0.456   5.831   3.841 -0.3112 -1.1094  0.7494
  823MOL0     H11097   0.519   5.709   3.658 -3.1259 -1.5134 -1.0859
  823MOL0     H11098   0.572   5.875   3.607  0.5837 -1.0563 -0.8865
  823MOL0     H11099   0.296   5.759   3.542 -1.3634  0.4424 -0.4615
  823MOL0     H11100   0.386   5.887   3.454  0.2840 -0.1610 -0.8689
  823MOL0     H11101   0.501   5.520   3.282 -0.5348  0.8731  0.4510
  823MOL0     H11102   0.327   6.266   3.812 -1.1969 -2.0111  1.1969
  823MOL0     H11103   0.168   6.604   3.847  3.3175  0.7089  0.7975
  823MOL0     H11104   0.108   6.476   3.943 -2.1410  2.4609 -0.5158
  823MOL0     H11105   0.283   6.486   3.906 -0.7342  2.3823  2.9184
  824MOL0     O11106   7.576   0.063  10.628  0.0372 -0.0267 -0.0493
  824MOL0     C11107   7.626  -0.014  10.713  0.0563  0.4109  0.2817
  824MOL0     O11108   7.622  -0.003  10.842 -0.5316 -0.7094  0.4386
  824MOL0     C11109   7.557   0.117  10.895  0.0908  1.0765 -0.1094
  824MOL0     C11110   7.632   0.238  10.924  0.3834 -0.4124  0.8686
  824MOL0     C11111   7.568   0.359  10.947  0.6583  0.1787 -0.4791
  824MOL0     C11112   7.424   0.369  10.959  0.0283  0.0207  0.4854
  824MOL0     O11113   7.360   0.489  10.991 -0.3976  0.1321  0.2544
  824MOL0     C11114   7.417   0.620  10.985 -0.2208 -0.6699  0.7916
  824MOL0     C11115   7.417   0.684  11.123  0.7073 -0.2725 -0.3970
  824MOL0     C11116   7.273   0.737  11.150  0.0462 -1.2160  0.2878
  824MOL0     C11117   7.249   0.882  11.077  0.1126  0.2131  0.4226
  824MOL0     C11118   7.117   0.946  11.143 -1.1475  0.2464 -0.3832
  824MOL0     C11119   7.069   1.081  11.073 -0.7389  0.5096  0.0734
  824MOL0     C11120   7.008   1.047  10.931  0.5170  1.2522 -0.6026
  824MOL0     C11121   6.904   1.151  10.881  0.4537 -1.0522 -0.1202
  824MOL0     N11122   6.829   1.097  10.764  0.6337 -0.0987 -0.1481
  824MOL0     C11123   6.718   1.163  10.704 -1.1536  0.2808  0.0028
  824MOL0     C11124   6.682   1.081  10.603  0.5879  0.3653 -0.3262
  824MOL0     C11125   6.564   1.098  10.509  0.6471 -0.5350 -0.1639
  824MOL0     C11126   6.615   1.099  10.371 -0.8273  0.3527  0.4911
  824MOL0     C11127   6.494   1.134  10.295 -0.5318 -1.0523 -0.0683
  824MOL0     C11128   6.514   1.104  10.151  0.2827 -0.1551 -0.0773
  824MOL0     O11129   6.463   0.971  10.132 -0.1025 -0.1472 -0.0405
  824MOL0     C11130   6.514   0.873  10.047 -0.6184 -0.1813  0.8439
  824MOL0     C11131   6.657   0.868  10.016  0.2834 -0.2975  0.3212
  824MOL0     C11132   6.694   0.780   9.922  0.0447 -0.0104  0.3514
  824MOL0     C11133   6.608   0.682   9.864 -0.0356 -0.3076  1.0065
  824MOL0     C11134   6.659   0.573   9.776  0.9436  0.0165  0.9731
  824MOL0     O11135   6.557   0.479   9.744 -1.2589 -0.3177  0.0383
  824MOL0     C11136   6.599   0.385   9.651  0.6903  0.3448  0.5634
  824MOL0     C11137   6.643   0.257   9.691  0.6637 -0.1316 -0.1622
  824MOL0     C11138   6.693   0.164   9.602 -0.5322 -0.0455  0.8409
  824MOL0     C11139   6.690   0.193   9.459 -0.2364 -0.2755  0.1072
  824MOL0     O11140   6.702   0.096   9.368  0.7032  0.4500  0.0218
  824MOL0     C11141   6.796  -0.004   9.383 -0.3710  0.0624  0.8579
  824MOL0     C11142   6.789  -0.096   9.253 -0.1389 -0.1233  0.2443
  824MOL0     C11143   6.875  -0.034   9.140  0.8537  0.7652 -0.0432
  824MOL0     C11144   6.854  -0.114   9.013  0.8519 -0.1885 -0.4242
  824MOL0     C11145   6.832  -0.023   8.893  0.4171 -0.1300 -0.5819
  824MOL0     C11146   6.954   0.063   8.854  0.3720 -0.2595  1.1164
  824MOL0     C11147   7.080  -0.008   8.837 -0.0764  0.3194  0.0450
  824MOL0     C11148   7.207   0.081   8.790  0.7989  0.2963 -0.7498
  824MOL0    Cl11149   7.254   0.201   8.917  0.3091  0.3055 -0.7773
  824MOL0     C11150   6.628   0.312   9.421 -0.3704 -0.3491 -0.2001
  824MOL0     C11151   6.587   0.409   9.513  0.0572  0.0925 -0.6256
  824MOL0     O11152   6.776   0.576   9.751  0.5777  0.0013 -0.2410
  824MOL0     C11153   6.467   0.694   9.901 -1.1140  0.3135  0.7889
  824MOL0     C11154   6.424   0.786   9.997 -0.2445  0.1324 -0.2849
  824MOL0     N11155   6.767   0.974  10.595  0.9380 -0.2091  0.7853
  824MOL0     N11156   6.859   0.983  10.687  0.2909 -0.3626  0.1940
  824MOL0     C11157   7.350   0.249  10.942  0.1511  0.6076  0.9391
  824MOL0     C11158   7.416   0.132  10.914 -0.3794 -0.2502 -0.5779
  824MOL0     C11159   7.672  -0.140  10.671 -0.2582  0.9857  0.2824
  824MOL0     C11160   7.598  -0.215  10.579 -0.2351 -0.4614 -0.0715
  824MOL0     C11161   7.649  -0.332  10.521  0.0777  0.1743  0.5470
  824MOL0     C11162   7.765  -0.382  10.563  0.5450  0.0249 -0.7284
  824MOL0     O11163   7.815  -0.500  10.515 -0.1494  0.4812  0.6857
  824MOL0     C11164   7.899  -0.477  10.389  0.7500  0.4644  0.6486
  824MOL0     C11165   7.868  -0.551  10.260  0.1390 -0.2762 -0.2174
  824MOL0     C11166   7.994  -0.560  10.172  0.2689  0.0144 -0.0801
  824MOL0     C11167   7.962  -0.651  10.053 -0.3381  0.3382 -0.0750
  824MOL0     C11168   7.876  -0.592   9.951 -0.4239 -0.5098 -0.0380
  824MOL0     C11169   7.796  -0.557   9.867 -0.0498 -0.3979 -0.0063
  824MOL0     C11170   7.841  -0.320  10.659  0.0006  0.0439 -0.4914
  824MOL0     C11171   7.802  -0.193  10.707  0.0216  0.5029  0.3103
  824MOL0     C11172   7.907  -0.111  10.785 -0.3364 -0.3352 -1.0120
  824MOL0     H11173   7.737   0.230  10.899  1.3675 -1.1956  4.6630
  824MOL0     H11174   7.628   0.449  10.950 -1.9086  1.9958 -0.1244
  824MOL0     H11175   7.515   0.618  10.938 -0.2341 -1.2598  0.7801
  824MOL0     H11176   7.365   0.686  10.915  3.3982  1.2433 -0.3425
  824MOL0     H11177   7.492   0.762  11.112 -0.2457  0.9665  1.3695
  824MOL0     H11178   7.449   0.622  11.206  1.6294  2.6341  1.5679
  824MOL0     H11179   7.260   0.731  11.258  0.6764 -1.4333  0.3603
  824MOL0     H11180   7.196   0.674  11.103 -1.2476  0.9926 -0.7280
  824MOL0     H11181   7.327   0.953  11.105 -0.4141  0.0268  2.5376
  824MOL0     H11182   7.259   0.866  10.970  2.9294  1.5958  0.3972
  824MOL0     H11183   7.038   0.870  11.143  1.1629 -2.3928  1.7011
  824MOL0     H11184   7.154   0.971  11.243  4.1222 -1.8104 -1.4758
  824MOL0     H11185   6.980   1.114  11.128 -2.5807 -5.1972  1.2445
  824MOL0     H11186   7.141   1.162  11.077  1.6739 -1.4723  4.4735
  824MOL0     H11187   6.953   0.953  10.922  1.5239  0.7480 -1.8398
  824MOL0     H11188   7.082   1.035  10.852 -0.1501  1.7804 -1.3133
  824MOL0     H11189   6.841   1.182  10.965 -0.8229  1.1636 -1.7832
  824MOL0     H11190   6.949   1.243  10.844 -0.2322 -0.8745 -0.5277
  824MOL0     H11191   6.679   1.262  10.724  0.2781  0.9753 -0.4556
  824MOL0     H11192   6.507   1.006  10.528  2.1448 -1.1196  1.7963
  824MOL0     H11193   6.512   1.192  10.531  0.4714 -0.7252  0.2338
  824MOL0     H11194   6.686   1.182  10.365 -1.0125  0.4194 -1.0686
  824MOL0     H11195   6.675   1.011  10.344  0.2222  0.1682  3.0924
  824MOL0     H11196   6.484   1.243  10.294  3.3758 -0.5524 -1.0310
  824MOL0     H11197   6.405   1.078  10.325 -1.9672 -0.2224 -2.5232
  824MOL0     H11198   6.619   1.107  10.120 -0.0812  1.4578 -1.2900
  824MOL0     H11199   6.465   1.174  10.083  1.2429  0.6178  0.0127
  824MOL0     H11200   6.724   0.939  10.064  0.2262 -0.2093  0.2710
  824MOL0     H11201   6.798   0.778   9.890 -0.1953 -0.2141 -0.4406
  824MOL0     H11202   6.643   0.238   9.797 -1.1250 -2.3432 -0.4858
  824MOL0     H11203   6.697   0.061   9.634 -1.6668  0.0219  1.2347
  824MOL0     H11204   6.896   0.039   9.396 -0.2369 -0.1373  0.4949
  824MOL0     H11205   6.789  -0.078   9.463 -1.2124 -2.0863 -1.0908
  824MOL0     H11206   6.822  -0.197   9.280  1.8793  0.5755  0.5728
  824MOL0     H11207   6.684  -0.100   9.222 -0.0601 -2.3337  0.0915
  824MOL0     H11208   6.840   0.066   9.112  2.0539  1.2717  0.2313
  824MOL0     H11209   6.980  -0.041   9.167  0.9685  3.7823  0.7159
  824MOL0     H11210   6.756  -0.161   9.024 -1.7729  4.7952  0.3387
  824MOL0     H11211   6.929  -0.192   9.001  0.2920 -0.7702 -0.1871
  824MOL0     H11212   6.754   0.049   8.919  0.7792  0.3853 -0.9064
  824MOL0     H11213   6.786  -0.080   8.812 -1.1992  0.2661  0.0156
  824MOL0     H11214   6.917   0.120   8.768 -2.1647 -3.2256  0.0466
  824MOL0     H11215   6.964   0.124   8.944 -1.2826 -1.3267  2.0903
  824MOL0     H11216   7.067  -0.078   8.754  1.1380  2.0744 -1.7113
  824MOL0     H11217   7.101  -0.064   8.929 -1.1205  0.9684  0.6977
  824MOL0     H11218   7.297   0.026   8.762 -0.6096 -3.3837  1.3300
  824MOL0     H11219   7.179   0.135   8.699 -2.0238 -0.4229 -0.3905
  824MOL0     H11220   6.615   0.326   9.314  3.8037 -3.9496 -1.4847
  824MOL0     H11221   6.546   0.503   9.479  1.1199  1.7480  2.2539
  824MOL0     H11222   6.398   0.622   9.857  2.4636 -2.8064 -0.2388
  824MOL0     H11223   6.321   0.781  10.031  0.0957 -2.7894  0.6196
  824MOL0     H11224   7.243   0.262  10.959  0.2646  0.9503  1.4003
  824MOL0     H11225   7.353   0.044  10.902 -2.0890  1.2504 -4.1092
  824MOL0     H11226   7.510  -0.168  10.536  2.3688  2.5375 -2.7483
  824MOL0     H11227   7.584  -0.382  10.450 -0.6505  1.5608  0.2098
  824MOL0     H11228   8.000  -0.507  10.421  1.3412  0.1678 -1.3904
  824MOL0     H11229   7.898  -0.370  10.365 -0.7215  0.0513 -1.3619
  824MOL0     H11230   7.788  -0.510  10.198 -2.6584 -1.7560  2.1968
  824MOL0     H11231   7.830  -0.651  10.285 -0.4305  0.5892  2.6926
  824MOL0     H11232   8.078  -0.600  10.229 -0.6219 -1.2395  0.4041
  824MOL0     H11233   8.026  -0.462  10.136  1.7771 -0.4224  0.0255
  824MOL0     H11234   8.060  -0.682  10.016  0.2290 -1.6722  2.8224
  824MOL0     H11235   7.906  -0.741  10.081  1.9169 -1.6742 -1.5929
  824MOL0     H11236   7.730  -0.536   9.785  0.0719  1.0463  0.2252
  824MOL0     H11237   7.942  -0.359  10.673  0.3729  0.7983 -1.0166
  824MOL0     H11238   7.915  -0.011  10.743 -0.3884  0.4895  0.8227
  824MOL0     H11239   7.869  -0.077  10.882 -1.3416  2.9941 -2.4260
  824MOL0     H11240   8.005  -0.160  10.782  0.1875  0.5487  0.4767
  825MOL0     O11241   2.101   7.982   3.597  0.1467  0.1333  0.9071
  825MOL0     C11242   2.126   7.959   3.718  0.1586  0.2605 -0.3869
  825MOL0     O11243   2.058   8.021   3.834 -0.7882  0.9167 -0.1387
  825MOL0     C11244   1.924   8.023   3.827  0.2038  0.3357 -0.3325
  825MOL0     C11245   1.867   8.151   3.850  0.2386  1.0022 -0.4754
  825MOL0     C11246   1.722   8.161   3.858 -0.7966  0.3859  0.0741
  825MOL0     C11247   1.645   8.048   3.836 -0.2629  0.9162 -0.5984
  825MOL0     O11248   1.512   8.048   3.828  0.1475  0.3092  0.6220
  825MOL0     C11249   1.442   8.069   3.951 -1.0669 -0.1331 -0.5629
  825MOL0     C11250   1.301   8.097   3.925 -0.6722  0.1174 -1.0947
  825MOL0     C11251   1.238   8.138   4.057  0.2736 -0.8028 -0.0046
  825MOL0     C11252   1.181   8.020   4.143 -0.4676 -0.7574  0.0522
  825MOL0     C11253   1.111   8.089   4.257  0.0868  0.9699 -0.0885
  825MOL0     C11254   0.972   8.014   4.288  0.6157  0.4649 -0.0546
  825MOL0     C11255   0.892   8.070   4.403  0.2420 -0.1666 -0.1817
  825MOL0     C11256   0.749   8.013   4.394  0.0615  0.2392  0.3297
  825MOL0     N11257   0.665   8.022   4.516  0.3327  0.4205  0.0650
  825MOL0     C11258   0.559   7.938   4.548 -0.7807 -1.1079 -0.8086
  825MOL0     C11259   0.469   8.012   4.618  0.4115  0.4530  0.2625
  825MOL0     C11260   0.332   7.974   4.670  0.1570 -0.3200  0.9801
  825MOL0     C11261   0.353   7.876   4.790  0.6983 -0.9497  0.1114
  825MOL0     C11262   0.227   7.814   4.863  0.5698 -0.7394 -0.8697
  825MOL0     C11263   0.102   7.903   4.855  0.1543 -0.2586 -0.2885
  825MOL0     O11264  -0.005   7.837   4.925 -0.0836  0.0752 -0.1085
  825MOL0     C11265  -0.093   7.755   4.857 -0.2920 -0.4738  0.0630
  825MOL0     C11266  -0.095   7.707   4.721 -0.2186  0.9108 -0.3460
  825MOL0     C11267  -0.197   7.619   4.683  0.1373  0.4147 -0.5090
  825MOL0     C11268  -0.310   7.590   4.770  0.4150  0.4235  0.3721
  825MOL0     C11269  -0.434   7.508   4.746 -0.3734  0.1901 -0.2421
  825MOL0     O11270  -0.541   7.497   4.843 -0.4410  0.1691 -0.0441
  825MOL0     C11271  -0.645   7.400   4.822  0.6633  0.5307  0.9752
  825MOL0     C11272  -0.715   7.384   4.695 -1.3975 -0.7262  0.2336
  825MOL0     C11273  -0.799   7.268   4.682 -0.6699 -0.5317  0.4477
  825MOL0     C11274  -0.823   7.183   4.791 -0.2906 -0.0354 -0.6862
  825MOL0     O11275  -0.923   7.090   4.795  0.6529  0.0991 -0.0877
  825MOL0     C11276  -1.008   7.061   4.678  0.3540  0.0470 -0.4046
  825MOL0     C11277  -1.092   6.927   4.680 -0.0674  0.6153 -1.3049
  825MOL0     C11278  -1.174   6.894   4.814 -0.4817 -0.8504  1.0916
  825MOL0     C11279  -1.222   6.750   4.845 -0.5861  0.4500  0.6571
  825MOL0     C11280  -1.337   6.717   4.741 -1.0857  0.1915  0.0942
  825MOL0     C11281  -1.363   6.567   4.767  0.3717 -0.5767  0.0881
  825MOL0     C11282  -1.451   6.513   4.665  0.3174  0.5565  1.0955
  825MOL0     C11283  -1.460   6.363   4.686  0.2413  0.7992 -0.4264
  825MOL0    Cl11284  -1.598   6.304   4.588 -0.3008  0.2751  0.3884
  825MOL0     C11285  -0.758   7.208   4.912  0.0593  1.0458 -0.6251
  825MOL0     C11286  -0.668   7.315   4.931 -0.8735  0.3555 -0.0281
  825MOL0     O11287  -0.436   7.457   4.633  0.2327 -0.6270 -0.8427
  825MOL0     C11288  -0.309   7.650   4.901 -1.0640  0.0067  0.6376
  825MOL0     C11289  -0.208   7.733   4.933 -0.0331 -0.1846  0.8757
  825MOL0     N11290   0.519   8.137   4.626  0.0285 -0.8186  0.1028
  825MOL0     N11291   0.638   8.141   4.569  0.5661  0.4749  0.5040
  825MOL0     C11292   1.705   7.925   3.806 -0.0563 -0.0865  0.3420
  825MOL0     C11293   1.842   7.913   3.802 -0.4876  0.3191 -0.4870
  825MOL0     C11294   2.246   7.878   3.756  0.2312  0.7182  0.9140
  825MOL0     C11295   2.302   7.902   3.881 -0.9008 -0.3968 -0.3514
  825MOL0     C11296   2.435   7.857   3.902  0.2983 -0.1524 -0.2174
  825MOL0     C11297   2.501   7.771   3.813  0.2555  0.4833 -0.8481
  825MOL0     O11298   2.622   7.724   3.853 -0.9480 -0.4269 -1.1114
  825MOL0     C11299   2.678   7.607   3.793  0.6437  1.0706 -0.7925
  825MOL0     C11300   2.602   7.483   3.854 -0.2972 -0.4872 -0.1231
  825MOL0     C11301   2.604   7.475   4.010 -0.4237 -0.1786 -0.0064
  825MOL0     C11302   2.737   7.430   4.062 -0.1975  0.2574 -0.5792
  825MOL0     C11303   2.733   7.414   4.210 -0.7475 -0.8478 -0.1088
  825MOL0     C11304   2.718   7.386   4.329 -0.2257  0.1557  0.0540
  825MOL0     C11305   2.434   7.729   3.696 -0.5599 -0.4202  0.3547
  825MOL0     C11306   2.307   7.782   3.664 -0.3310 -1.2005  1.4191
  825MOL0     C11307   2.247   7.758   3.520 -0.1600  0.4500  0.9876
  825MOL0     H11308   1.930   8.238   3.864  0.9437  0.3186  0.7319
  825MOL0     H11309   1.662   8.249   3.878 -1.1822  0.1203  0.0896
  825MOL0     H11310   1.447   7.983   4.018  1.2774  2.3670  2.8148
  825MOL0     H11311   1.489   8.159   3.992  0.1835 -0.5684 -0.9908
  825MOL0     H11312   1.250   8.012   3.880 -0.2754  0.3438 -1.9996
  825MOL0     H11313   1.286   8.175   3.850 -1.3313  0.0087 -1.0794
  825MOL0     H11314   1.153   8.202   4.034 -0.5334 -0.7908  2.6607
  825MOL0     H11315   1.306   8.195   4.121  4.3959 -3.7979 -1.2517
  825MOL0     H11316   1.121   7.958   4.076  0.0973 -0.7342 -0.4896
  825MOL0     H11317   1.263   7.961   4.186  0.2378  0.6687  0.7305
  825MOL0     H11318   1.171   8.081   4.348 -3.2432  2.1231  2.4123
  825MOL0     H11319   1.098   8.196   4.241 -0.9642  0.8090 -0.3906
  825MOL0     H11320   0.911   8.016   4.198 -0.2176 -1.1375  0.4425
  825MOL0     H11321   1.007   7.912   4.302  0.3740  0.6339  2.0668
  825MOL0     H11322   0.886   8.179   4.405  0.6685 -0.1415  2.0224
  825MOL0     H11323   0.936   8.042   4.499 -3.7321 -0.8864  1.6429
  825MOL0     H11324   0.705   8.068   4.311 -0.6580 -0.8399 -0.0255
  825MOL0     H11325   0.753   7.909   4.359 -3.3789 -0.9568  2.8068
  825MOL0     H11326   0.549   7.839   4.504  2.3650 -1.6320 -0.5391
  825MOL0     H11327   0.276   8.066   4.688  1.7217  1.3359 -1.9655
  825MOL0     H11328   0.268   7.930   4.593 -1.3430  3.1299  0.0766
  825MOL0     H11329   0.408   7.797   4.737  0.5795 -0.2578 -1.0899
  825MOL0     H11330   0.424   7.909   4.867 -1.4671 -4.1468  3.8025
  825MOL0     H11331   0.253   7.784   4.965  1.2158  2.0914 -0.0921
  825MOL0     H11332   0.198   7.724   4.808  0.2065 -1.2300  0.0959
  825MOL0     H11333   0.074   7.922   4.751 -0.0798 -3.2941 -0.8835
  825MOL0     H11334   0.132   7.999   4.899  0.5343 -0.4210 -0.1886
  825MOL0     H11335  -0.025   7.724   4.640 -0.7440 -2.1158 -1.5851
  825MOL0     H11336  -0.195   7.569   4.587 -1.7222  2.3823 -1.6683
  825MOL0     H11337  -0.703   7.453   4.612  3.6466  0.2771  1.4652
  825MOL0     H11338  -0.854   7.264   4.589  0.0389  0.1575 -0.0127
  825MOL0     H11339  -1.086   7.137   4.663 -1.4852 -1.8431 -0.8226
  825MOL0     H11340  -0.945   7.057   4.588  0.0658 -0.0469 -0.6016
  825MOL0     H11341  -1.168   6.934   4.602 -2.3534 -2.8995  0.3449
  825MOL0     H11342  -1.022   6.845   4.671  1.2939  1.1568  2.4300
  825MOL0     H11343  -1.099   6.921   4.889  0.1362  2.8229 -0.6181
  825MOL0     H11344  -1.260   6.962   4.821 -1.3604 -1.7406 -0.5661
  825MOL0     H11345  -1.255   6.738   4.949  1.0558 -1.6318  1.0026
  825MOL0     H11346  -1.132   6.690   4.828  0.0424  0.4771  3.4081
  825MOL0     H11347  -1.303   6.737   4.639 -3.3520  0.1688 -0.7019
  825MOL0     H11348  -1.424   6.781   4.760  0.0266  3.0322 -3.2439
  825MOL0     H11349  -1.270   6.510   4.752 -0.7304 -1.6552 -4.0429
  825MOL0     H11350  -1.411   6.560   4.865 -2.2056 -1.6523 -1.1564
  825MOL0     H11351  -1.408   6.528   4.566 -0.7395 -0.6469  0.4223
  825MOL0     H11352  -1.543   6.571   4.666  2.0355  3.4645  1.4338
  825MOL0     H11353  -1.367   6.323   4.646  0.4041  4.2608 -4.1520
  825MOL0     H11354  -1.478   6.334   4.790 -2.8040 -1.2929 -1.4033
  825MOL0     H11355  -0.768   7.137   4.994 -1.6456  2.1863  0.2023
  825MOL0     H11356  -0.634   7.344   5.030 -1.2198  0.8673 -0.0587
  825MOL0     H11357  -0.378   7.623   4.981  0.0934  2.2929  2.5088
  825MOL0     H11358  -0.217   7.773   5.033 -0.4023 -1.0899  1.2167
  825MOL0     H11359   1.644   7.841   3.776 -1.6448  1.6620 -1.6615
  825MOL0     H11360   1.893   7.819   3.781  2.5742  1.5708  0.6609
  825MOL0     H11361   2.254   7.970   3.951 -2.0929 -0.4613 -1.0843
  825MOL0     H11362   2.485   7.897   3.989 -0.0958 -1.1393  0.4769
  825MOL0     H11363   2.784   7.594   3.817  0.6211  0.0880 -1.2159
  825MOL0     H11364   2.678   7.619   3.685 -0.1226  0.3455 -0.8857
  825MOL0     H11365   2.645   7.392   3.811  1.1396 -0.3694  1.0152
  825MOL0     H11366   2.501   7.490   3.811 -0.6308  2.3777  0.9434
  825MOL0     H11367   2.522   7.407   4.037 -0.3902  0.5666  2.2098
  825MOL0     H11368   2.594   7.578   4.046 -1.2819 -0.2490 -0.0037
  825MOL0     H11369   2.758   7.326   4.033 -1.0957 -0.5298  1.4032
  825MOL0     H11370   2.809   7.506   4.032  0.9478 -0.6466 -0.1976
  825MOL0     H11371   2.706   7.367   4.434 -8.8120 -0.2147 -0.3554
  825MOL0     H11372   2.484   7.672   3.618  1.9065 -0.1951  1.6701
  825MOL0     H11373   2.141   7.731   3.518  0.0068 -0.5438 -2.8972
  825MOL0     H11374   2.256   7.839   3.448 -5.0025  0.4092 -0.0146
  825MOL0     H11375   2.299   7.679   3.465  0.7436  1.6173  0.1142
  826MOL0     O11376   7.581   5.206   3.352 -1.0625 -0.7217 -0.2360
  826MOL0     C11377   7.539   5.125   3.265  0.0837 -0.7613  0.6028
  826MOL0     O11378   7.595   5.079   3.146 -0.2319 -1.0673  0.0739
  826MOL0     C11379   7.712   5.125   3.098  0.4145  0.1536 -0.1854
  826MOL0     C11380   7.763   5.046   2.996 -0.4274 -0.5117 -0.6190
  826MOL0     C11381   7.876   5.093   2.928 -0.1192  0.0799 -0.8437
  826MOL0     C11382   7.933   5.215   2.965 -0.8576  0.5331  0.3382
  826MOL0     O11383   8.041   5.251   2.890 -0.1060 -0.8487 -0.2180
  826MOL0     C11384   8.150   5.286   2.975  0.9299  0.1742 -0.7989
  826MOL0     C11385   8.245   5.341   2.873 -0.3422  0.0112 -0.3533
  826MOL0     C11386   8.370   5.391   2.956 -0.0057  0.5304  0.8529
  826MOL0     C11387   8.454   5.479   2.856  0.2633  0.1497  0.2893
  826MOL0     C11388   8.559   5.566   2.930  0.0015  0.0560  0.0658
  826MOL0     C11389   8.682   5.505   3.004  0.3311 -0.9247 -0.6750
  826MOL0     C11390   8.741   5.609   3.083 -0.6897 -0.8759  0.1351
  826MOL0     C11391   8.785   5.740   2.999 -0.2362 -0.6572  0.3085
  826MOL0     N11392   8.865   5.822   3.094 -0.4644  0.3279  0.5472
  826MOL0     C11393   9.001   5.840   3.081  0.8788 -0.2911 -0.4118
  826MOL0     C11394   9.034   5.886   3.202 -0.8079 -0.1139 -0.4773
  826MOL0     C11395   9.173   5.917   3.231 -0.5504  0.6283 -0.5887
  826MOL0     C11396   9.194   6.042   3.315 -0.0166 -0.0298  0.5687
  826MOL0     C11397   9.190   6.178   3.235  0.5583  0.3760 -0.4401
  826MOL0     C11398   9.041   6.216   3.212 -0.6965 -0.1601  0.0563
  826MOL0     O11399   9.043   6.343   3.144  0.5862  0.2405 -0.1184
  826MOL0     C11400   8.921   6.389   3.104 -0.8785  0.2722  0.4772
  826MOL0     C11401   8.919   6.477   2.995 -0.1720  0.2756 -0.7099
  826MOL0     C11402   8.792   6.532   2.949 -0.4366 -0.0872 -0.7099
  826MOL0     C11403   8.672   6.500   3.014 -0.4385 -0.1085  0.1700
  826MOL0     C11404   8.546   6.544   2.957  0.1577  0.7907  0.2956
  826MOL0     O11405   8.562   6.566   2.814  0.3720 -0.6944 -0.0285
  826MOL0     C11406   8.464   6.628   2.743 -1.0903 -0.5310 -0.2865
  826MOL0     C11407   8.485   6.758   2.676  0.3535  0.4378 -0.9742
  826MOL0     C11408   8.386   6.824   2.601 -0.4870 -0.3890  0.4318
  826MOL0     C11409   8.265   6.756   2.583  0.9125 -0.3045  0.6347
  826MOL0     O11410   8.162   6.813   2.510  0.2494 -0.2788 -0.0663
  826MOL0     C11411   8.195   6.860   2.380 -0.2892 -0.0947 -0.0772
  826MOL0     C11412   8.072   6.890   2.285  0.3752  0.4061  0.8615
  826MOL0     C11413   7.944   6.956   2.338 -0.1898  0.8982 -0.1487
  826MOL0     C11414   7.843   6.971   2.222 -0.3174 -0.3530 -0.2323
  826MOL0     C11415   7.728   7.056   2.270 -0.4121  0.8427  1.0414
  826MOL0     C11416   7.610   7.070   2.160 -1.5918  0.3626  0.0591
  826MOL0     C11417   7.552   6.929   2.129  0.5381  0.1493 -0.5761
  826MOL0     C11418   7.437   6.935   2.013  0.3383 -0.2991  0.4636
  826MOL0    Cl11419   7.297   7.010   2.075  0.3915  0.1295  0.3179
  826MOL0     C11420   8.232   6.644   2.665  0.6351 -0.0133  0.0187
  826MOL0     C11421   8.334   6.576   2.736 -0.2381 -0.1599 -0.5458
  826MOL0     O11422   8.441   6.541   3.022  0.2300 -0.1645  1.3208
  826MOL0     C11423   8.679   6.421   3.130  0.4469 -0.1565  0.3040
  826MOL0     C11424   8.797   6.359   3.166  0.7541 -0.6364  0.2827
  826MOL0     N11425   8.931   5.897   3.290  0.9742  0.4970 -0.5853
  826MOL0     N11426   8.827   5.851   3.226 -1.1314 -0.8349 -0.4668
  826MOL0     C11427   7.874   5.299   3.067 -0.3186  0.6841  0.3307
  826MOL0     C11428   7.765   5.250   3.124  0.3503  0.3055 -0.7907
  826MOL0     C11429   7.413   5.066   3.304  0.0057  0.3319  1.1819
  826MOL0     C11430   7.314   5.146   3.376  0.0044  0.5457  1.1702
  826MOL0     C11431   7.194   5.096   3.413 -0.2480 -0.1825 -0.1075
  826MOL0     C11432   7.153   4.973   3.375 -0.5319  0.0912  0.5901
  826MOL0     O11433   7.032   4.928   3.435  0.1348 -0.3666 -0.2208
  826MOL0     C11434   7.004   4.784   3.438  1.0483  0.6933 -0.0287
  826MOL0     C11435   6.850   4.771   3.478  0.3192 -0.3844  0.3849
  826MOL0     C11436   6.821   4.623   3.529 -0.2833 -0.3895 -0.7900
  826MOL0     C11437   6.794   4.514   3.416 -0.2276  0.0906 -0.8325
  826MOL0     C11438   6.692   4.567   3.328  0.1384  0.4654  0.5618
  826MOL0     C11439   6.625   4.620   3.246 -0.4271 -0.1507 -0.5702
  826MOL0     C11440   7.247   4.890   3.310  1.8324  1.6526 -0.1102
  826MOL0     C11441   7.378   4.929   3.280 -1.2175  0.1821  0.5423
  826MOL0     C11442   7.477   4.817   3.241 -0.3461  0.7293 -0.2208
  826MOL0     H11443   7.702   4.959   2.975  1.4596 -2.6298  2.0825
  826MOL0     H11444   7.902   5.027   2.846 -0.1106  0.0975 -0.8549
  826MOL0     H11445   8.139   5.362   3.053  0.1775  0.1432 -0.8641
  826MOL0     H11446   8.189   5.204   3.035 -0.3628  1.9685  2.7497
  826MOL0     H11447   8.206   5.431   2.825  1.7242  0.0554 -2.1388
  826MOL0     H11448   8.271   5.271   2.792  0.4789 -1.9026  1.4762
  826MOL0     H11449   8.424   5.303   2.993 -1.5288 -0.6997  0.2464
  826MOL0     H11450   8.351   5.450   3.046  1.0701 -0.6902  1.9254
  826MOL0     H11451   8.494   5.417   2.776  0.0494  1.6544 -1.0276
  826MOL0     H11452   8.386   5.555   2.815  0.4374 -0.4958 -1.2483
  826MOL0     H11453   8.595   5.620   2.842 -0.8413 -1.8040 -1.5012
  826MOL0     H11454   8.495   5.618   3.003  0.1299 -1.8466  1.6125
  826MOL0     H11455   8.662   5.423   3.074  2.1737 -0.2095  0.7643
  826MOL0     H11456   8.752   5.462   2.932 -0.9405 -1.5660 -1.5839
  826MOL0     H11457   8.837   5.571   3.120 -1.4872 -3.2245 -0.0268
  826MOL0     H11458   8.678   5.640   3.166 -0.2983  0.6077 -0.1009
  826MOL0     H11459   8.845   5.720   2.910  2.2752  0.5480  1.6316
  826MOL0     H11460   8.708   5.812   2.972  2.1023  1.1850 -1.9647
  826MOL0     H11461   9.068   5.824   2.997  1.4007  0.0324 -0.0542
  826MOL0     H11462   9.210   5.832   3.290 -3.0143  1.0722  1.8005
  826MOL0     H11463   9.245   5.923   3.149  1.0494  0.7882  0.7687
  826MOL0     H11464   9.133   6.032   3.405  1.9998 -0.1101  2.0014
  826MOL0     H11465   9.298   6.045   3.351 -0.8965  0.0140  3.3635
  826MOL0     H11466   9.254   6.184   3.146  1.0964 -2.2321 -0.3139
  826MOL0     H11467   9.231   6.253   3.303 -0.5213 -0.1524  0.8202
  826MOL0     H11468   9.003   6.219   3.315  1.3750 -2.2873  0.9541
  826MOL0     H11469   8.973   6.151   3.156 -1.6865  1.3528 -0.5598
  826MOL0     H11470   9.017   6.504   2.958  0.3700  1.0856  1.2169
  826MOL0     H11471   8.803   6.603   2.868  2.5693  0.2779 -0.0976
  826MOL0     H11472   8.578   6.810   2.695  0.2720  0.1814  0.1527
  826MOL0     H11473   8.391   6.924   2.559 -1.1105 -1.4447 -2.4231
  826MOL0     H11474   8.240   6.959   2.390  2.8838 -1.4755  0.4823
  826MOL0     H11475   8.271   6.801   2.327  0.8225  1.7432 -0.6294
  826MOL0     H11476   8.110   6.952   2.204 -4.3199 -0.6856 -2.6008
  826MOL0     H11477   8.039   6.800   2.234  3.2599  0.2830 -0.9525
  826MOL0     H11478   7.899   6.892   2.416  3.5058  0.4584  1.8444
  826MOL0     H11479   7.956   7.053   2.388  0.0349  0.5389  0.5104
  826MOL0     H11480   7.821   6.870   2.187  0.0543 -1.7311  3.1262
  826MOL0     H11481   7.886   7.018   2.133  1.9811  1.0355  1.4977
  826MOL0     H11482   7.769   7.156   2.286  2.4053  0.2887 -1.7249
  826MOL0     H11483   7.684   7.021   2.363 -3.6795  1.6840 -0.0451
  826MOL0     H11484   7.531   7.142   2.185 -0.8301  0.4953  2.2584
  826MOL0     H11485   7.663   7.109   2.072 -1.2856  1.0545  0.5341
  826MOL0     H11486   7.509   6.884   2.218  1.4315 -2.9563 -1.5961
  826MOL0     H11487   7.637   6.871   2.093  1.7094  2.0566 -1.0165
  826MOL0     H11488   7.471   6.974   1.917  1.8671  2.7148  2.0932
  826MOL0     H11489   7.424   6.832   1.978  1.3975 -0.4712  0.5297
  826MOL0     H11490   8.129   6.609   2.664  0.9768 -1.3223  2.5136
  826MOL0     H11491   8.315   6.482   2.788 -0.4982  1.5919  2.7974
  826MOL0     H11492   8.589   6.425   3.190 -1.2122  1.0484 -2.1097
  826MOL0     H11493   8.788   6.303   3.259 -1.7286 -1.4417 -0.3510
  826MOL0     H11494   7.910   5.398   3.091  0.0558  1.0061 -1.3951
  826MOL0     H11495   7.714   5.314   3.195  2.1334  1.0084 -0.0930
  826MOL0     H11496   7.354   5.247   3.376  4.1320 -0.8218 -0.7498
  826MOL0     H11497   7.127   5.158   3.472 -2.3787  0.0938 -2.6021
  826MOL0     H11498   7.069   4.740   3.515 -1.4085 -1.1295  1.1597
  826MOL0     H11499   7.016   4.728   3.345  0.1743 -0.5103  0.5509
  826MOL0     H11500   6.783   4.796   3.395  1.3679 -0.5332 -0.5303
  826MOL0     H11501   6.835   4.845   3.558 -2.4079  2.6231 -2.5694
  826MOL0     H11502   6.724   4.636   3.577 -0.5542  0.7306 -1.5753
  826MOL0     H11503   6.902   4.598   3.598 -0.3463  0.4178 -0.4082
  826MOL0     H11504   6.893   4.497   3.372 -1.0253 -1.9780 -1.9765
  826MOL0     H11505   6.759   4.421   3.461  3.9091 -2.6227 -2.5922
  826MOL0     H11506   6.565   4.676   3.177  1.6624  1.9334 -0.7922
  826MOL0     H11507   7.212   4.789   3.292  0.0992  1.8567  1.8254
  826MOL0     H11508   7.579   4.848   3.266 -0.6682 -0.3776  2.8672
  826MOL0     H11509   7.458   4.728   3.302 -1.1915  0.5665 -0.7144
  826MOL0     H11510   7.461   4.786   3.137  0.1631  0.1653 -0.1356
  827MOL0     O11511   5.536   6.815   2.733  0.1305  0.6980 -0.3486
  827MOL0     C11512   5.517   6.879   2.833 -0.9780 -0.5345  0.4091
  827MOL0     O11513   5.542   7.014   2.846 -0.3022 -0.0449 -0.5598
  827MOL0     C11514   5.584   7.094   2.741  0.3661  0.9582  0.5675
  827MOL0     C11515   5.498   7.204   2.705  0.0154  0.0712  0.4680
  827MOL0     C11516   5.530   7.295   2.605  0.5427  0.1126 -0.3322
  827MOL0     C11517   5.646   7.270   2.537 -0.2300 -1.2078 -0.9720
  827MOL0     O11518   5.662   7.357   2.429  0.6617  0.2583  0.2583
  827MOL0     C11519   5.795   7.390   2.396 -0.2674  0.0630  0.2040
  827MOL0     C11520   5.787   7.507   2.298  0.0725 -0.0252 -1.0374
  827MOL0     C11521   5.767   7.460   2.152  0.0090 -0.2456  0.6683
  827MOL0     C11522   5.703   7.588   2.083 -1.1757  0.5246 -0.3536
  827MOL0     C11523   5.567   7.566   2.050  0.9465  0.3047 -0.0713
  827MOL0     C11524   5.507   7.693   1.991 -0.5580  0.3383 -1.6846
  827MOL0     C11525   5.559   7.709   1.845 -0.5882  0.3554 -0.2467
  827MOL0     C11526   5.506   7.835   1.776 -0.2268  0.1177 -0.2357
  827MOL0     N11527   5.595   7.888   1.670 -1.0259 -0.0562 -0.6627
  827MOL0     C11528   5.661   8.005   1.697 -1.2892  0.1280  0.1808
  827MOL0     C11529   5.752   8.012   1.597  0.4980 -1.0864 -0.9099
  827MOL0     C11530   5.846   8.124   1.574  0.1360  0.8496  1.1766
  827MOL0     C11531   5.993   8.088   1.579  0.7401  0.0739 -0.8224
  827MOL0     C11532   6.091   8.206   1.577  0.1320  0.4913  0.4679
  827MOL0     C11533   6.228   8.173   1.630  0.5208 -0.1569  0.4649
  827MOL0     O11534   6.230   8.164   1.776 -0.8914  0.2141 -0.6867
  827MOL0     C11535   6.322   8.078   1.829  0.2040 -0.8402  0.8225
  827MOL0     C11536   6.317   7.947   1.857  0.2039  0.3728 -0.9408
  827MOL0     C11537   6.417   7.871   1.913 -0.0694  0.0775  1.1867
  827MOL0     C11538   6.544   7.928   1.930 -0.5596 -0.1666  0.2273
  827MOL0     C11539   6.659   7.850   1.960 -0.7331  0.0497 -0.1832
  827MOL0     O11540   6.772   7.915   2.006  0.0299  0.6290 -0.4670
  827MOL0     C11541   6.877   7.837   2.049  0.5650 -0.3489 -0.0788
  827MOL0     C11542   6.860   7.754   2.157 -0.7140  0.4311  0.1063
  827MOL0     C11543   6.964   7.673   2.204 -1.0929  0.4992 -0.1845
  827MOL0     C11544   7.094   7.689   2.154  0.6479  0.4658 -0.4263
  827MOL0     O11545   7.205   7.639   2.224  0.9519 -0.2988  0.0494
  827MOL0     C11546   7.189   7.512   2.304 -0.4184 -0.3734  0.8938
  827MOL0     C11547   7.307   7.417   2.302 -0.2114  0.2683 -0.5820
  827MOL0     C11548   7.269   7.293   2.380  0.1266 -0.5342  0.1906
  827MOL0     C11549   7.339   7.305   2.520 -0.3723  0.8078 -0.3985
  827MOL0     C11550   7.313   7.175   2.607  1.5488  0.0722  0.0172
  827MOL0     C11551   7.379   7.052   2.556 -0.4145 -0.4271 -0.7884
  827MOL0     C11552   7.330   6.937   2.653  0.4163  0.4850 -1.0791
  827MOL0     C11553   7.391   6.808   2.613  0.7929 -0.1028 -0.0051
  827MOL0    Cl11554   7.346   6.759   2.451 -0.3413  0.0717 -0.7095
  827MOL0     C11555   7.106   7.776   2.046  0.7782 -0.6045 -0.1940
  827MOL0     C11556   6.999   7.842   1.990 -0.0843 -0.9891 -0.3341
  827MOL0     O11557   6.638   7.726   1.959  0.5439 -0.8555  0.1522
  827MOL0     C11558   6.560   8.063   1.890 -0.2359  1.3411  0.7707
  827MOL0     C11559   6.448   8.130   1.850 -0.3020 -0.7266 -0.0828
  827MOL0     N11560   5.728   7.908   1.510 -0.6754 -0.3842  0.1136
  827MOL0     N11561   5.645   7.825   1.562 -0.0302  0.2705  0.8398
  827MOL0     C11562   5.728   7.172   2.566  0.3027  0.0019 -0.6290
  827MOL0     C11563   5.704   7.076   2.667 -0.6428 -1.2069 -0.1163
  827MOL0     C11564   5.439   6.828   2.955  0.2848 -0.3790 -0.7138
  827MOL0     C11565   5.397   6.908   3.051 -0.0445  0.1695 -0.1328
  827MOL0     C11566   5.335   6.858   3.170 -0.0852  0.2591  0.3725
  827MOL0     C11567   5.327   6.723   3.194 -0.3592  0.1112  0.2458
  827MOL0     O11568   5.282   6.650   3.302 -0.3951 -0.2976  0.8118
  827MOL0     C11569   5.226   6.723   3.408  0.3605  0.0442 -0.1018
  827MOL0     C11570   5.129   6.627   3.481 -0.1231  0.0913 -0.1970
  827MOL0     C11571   4.981   6.645   3.475  0.9735 -0.3494 -0.2794
  827MOL0     C11572   4.903   6.513   3.522  0.0803  0.4399  0.2952
  827MOL0     C11573   4.763   6.502   3.485 -0.1326  0.1748 -0.5815
  827MOL0     C11574   4.649   6.486   3.446 -0.0985  0.4635  0.3034
  827MOL0     C11575   5.362   6.638   3.088 -0.6345 -1.0321  0.2887
  827MOL0     C11576   5.410   6.696   2.970  0.5990 -0.2990 -0.3147
  827MOL0     C11577   5.455   6.587   2.879 -0.2834 -0.0126 -0.3932
  827MOL0     H11578   5.407   7.206   2.765 -1.3813 -2.0945 -1.3991
  827MOL0     H11579   5.462   7.379   2.593  0.1244 -0.0813  0.5673
  827MOL0     H11580   5.857   7.426   2.478  1.0153  4.0344 -2.1863
  827MOL0     H11581   5.845   7.310   2.342 -1.2584  1.1226 -2.4722
  827MOL0     H11582   5.877   7.568   2.303 -2.0382  3.4568 -1.9019
  827MOL0     H11583   5.697   7.563   2.326  0.6592  0.2758  0.3550
  827MOL0     H11584   5.695   7.378   2.145 -3.7162  2.5899  2.2225
  827MOL0     H11585   5.856   7.427   2.098  0.7717  3.6507 -0.8315
  827MOL0     H11586   5.717   7.679   2.142  2.5186  0.8302 -1.4842
  827MOL0     H11587   5.755   7.593   1.987  1.0071 -0.9009  0.6684
  827MOL0     H11588   5.556   7.473   1.994  3.1074  1.4547 -2.6444
  827MOL0     H11589   5.503   7.560   2.139 -2.8965 -0.6497 -2.6571
  827MOL0     H11590   5.399   7.701   2.003 -0.5928  1.3659 -2.5798
  827MOL0     H11591   5.550   7.775   2.050 -1.6256  1.7219 -2.7905
  827MOL0     H11592   5.537   7.614   1.797  5.2012 -2.3250  1.5822
  827MOL0     H11593   5.667   7.720   1.846 -0.6054  0.9591  2.2693
  827MOL0     H11594   5.420   7.796   1.722 -0.6398  1.9751 -0.9904
  827MOL0     H11595   5.470   7.915   1.841  0.6092  1.8527 -1.8404
  827MOL0     H11596   5.635   8.087   1.763  1.6547  2.3739 -1.2386
  827MOL0     H11597   5.827   8.176   1.480  1.9626 -1.3461 -0.5318
  827MOL0     H11598   5.830   8.201   1.650 -1.4748  2.0563 -0.3301
  827MOL0     H11599   6.012   8.045   1.678 -0.5833 -0.1378 -0.6504
  827MOL0     H11600   6.031   8.012   1.509  1.9993 -1.6198  1.5623
  827MOL0     H11601   6.053   8.298   1.624  1.2326  0.6194  1.1496
  827MOL0     H11602   6.103   8.239   1.473  0.8031 -1.6365 -0.1673
  827MOL0     H11603   6.293   8.258   1.610  0.2804  0.0207  0.4358
  827MOL0     H11604   6.274   8.089   1.578  2.7376  0.0263  1.9912
  827MOL0     H11605   6.227   7.889   1.842  0.9829 -2.9640  4.4116
  827MOL0     H11606   6.402   7.765   1.931  1.0462 -0.5563 -1.1992
  827MOL0     H11607   6.761   7.753   2.200 -1.4690 -3.4698 -1.3027
  827MOL0     H11608   6.948   7.606   2.287 -0.3516  0.7564  0.1822
  827MOL0     H11609   7.178   7.547   2.407  0.4807 -3.0900  1.9939
  827MOL0     H11610   7.107   7.451   2.263  0.4491 -1.6629  1.0330
  827MOL0     H11611   7.323   7.412   2.193 -2.0013  2.6370 -1.0348
  827MOL0     H11612   7.397   7.456   2.350  0.8483 -0.2884 -2.0410
  827MOL0     H11613   7.161   7.272   2.384  0.0463 -0.0983  0.3497
  827MOL0     H11614   7.322   7.217   2.323  2.0847 -4.6212  6.4267
  827MOL0     H11615   7.309   7.400   2.565  2.6553  1.1631  1.0988
  827MOL0     H11616   7.446   7.322   2.508 -0.7119  2.7084 -1.0975
  827MOL0     H11617   7.205   7.157   2.597  1.0659  3.3284 -2.0124
  827MOL0     H11618   7.331   7.198   2.712  2.1008  1.9265 -0.4459
  827MOL0     H11619   7.345   7.029   2.454 -1.9721 -2.7862  0.1687
  827MOL0     H11620   7.485   7.080   2.558 -0.8867  1.6180  2.3822
  827MOL0     H11621   7.221   6.925   2.645  0.3629  0.7277 -0.7583
  827MOL0     H11622   7.346   6.950   2.760 -1.4069 -1.1255 -0.5457
  827MOL0     H11623   7.499   6.815   2.624  0.6765  0.6869  0.7317
  827MOL0     H11624   7.362   6.734   2.687 -2.9996  0.8682 -0.3024
  827MOL0     H11625   7.195   7.805   1.990 -1.1617  2.4801 -1.9720
  827MOL0     H11626   7.025   7.905   1.905  1.1503 -1.0131 -0.0053
  827MOL0     H11627   6.661   8.103   1.880 -0.8917  2.9127 -0.0404
  827MOL0     H11628   6.455   8.236   1.826 -0.1376 -0.1256  2.3665
  827MOL0     H11629   5.824   7.152   2.520  1.8406 -1.2769  2.7704
  827MOL0     H11630   5.768   6.989   2.677  1.5645  0.4132  0.6873
  827MOL0     H11631   5.413   7.014   3.037 -1.4738  0.3950 -0.2117
  827MOL0     H11632   5.307   6.933   3.243 -1.4385  1.7031 -1.5476
  827MOL0     H11633   5.182   6.821   3.388  3.1366  1.3103 -0.3536
  827MOL0     H11634   5.309   6.745   3.475 -1.5123  1.2557  1.9857
  827MOL0     H11635   5.162   6.615   3.584 -2.7315 -3.4141  0.4184
  827MOL0     H11636   5.145   6.528   3.438  2.2229 -0.0545  0.8781
  827MOL0     H11637   4.949   6.665   3.373  0.2623  0.0199  0.0048
  827MOL0     H11638   4.974   6.724   3.550  0.7128 -0.6909  0.0625
  827MOL0     H11639   4.934   6.419   3.475 -2.5095 -1.2023  1.6616
  827MOL0     H11640   4.898   6.501   3.631 -3.8173 -2.1028  0.0436
  827MOL0     H11641   4.558   6.467   3.394  0.3509 -1.0567  0.0312
  827MOL0     H11642   5.352   6.530   3.096 -0.2292 -1.2055 -1.2458
  827MOL0     H11643   5.564   6.592   2.884 -0.3141 -0.4133  1.5963
  827MOL0     H11644   5.411   6.492   2.908 -0.7588  0.0072 -1.0484
  827MOL0     H11645   5.419   6.599   2.777  0.5152  1.4695 -0.5391
  828MOL0     O11646  10.680   9.783   9.969  0.7806 -0.0823  1.1544
  828MOL0     C11647  10.572   9.827   9.948 -0.0680 -0.0873 -0.0474
  828MOL0     O11648  10.469   9.751   9.926  0.1175 -0.7303  0.1855
  828MOL0     C11649  10.453   9.619   9.960  0.6354  0.1933  0.6524
  828MOL0     C11650  10.526   9.542  10.058  0.7616 -0.6845  0.0167
  828MOL0     C11651  10.483   9.412  10.089 -0.0045 -0.8046  0.7171
  828MOL0     C11652  10.385   9.348  10.012  0.7313  0.2295 -0.2489
  828MOL0     O11653  10.338   9.218  10.040  0.7313 -0.0295 -0.5667
  828MOL0     C11654  10.357   9.125   9.933  0.2741  1.0951  0.3195
  828MOL0     C11655  10.347   8.981   9.979  0.8944  1.0632  0.2791
  828MOL0     C11656  10.204   8.959  10.041  0.3001 -0.2807 -0.0856
  828MOL0     C11657  10.198   8.817  10.086  0.4157 -0.3231 -0.1457
  828MOL0     C11658  10.136   8.811  10.233  0.3544 -0.2713 -0.3039
  828MOL0     C11659   9.986   8.855  10.234 -1.1447  0.2038 -0.0845
  828MOL0     C11660   9.920   8.862  10.370  1.1497 -0.1146  0.7174
  828MOL0     C11661   9.928   8.727  10.463  0.1690  0.3603  0.5507
  828MOL0     N11662   9.862   8.747  10.590 -0.3842 -0.2182 -0.2780
  828MOL0     C11663   9.905   8.832  10.689 -0.6399 -0.2743 -0.5771
  828MOL0     C11664   9.834   8.781  10.797  0.2699 -0.5613 -0.6718
  828MOL0     C11665   9.847   8.842  10.947 -0.6440  0.4874  0.5892
  828MOL0     C11666   9.914   8.742  11.043  0.5390  0.6638  0.9951
  828MOL0     C11667   9.834   8.615  11.061 -0.0310  0.1606 -0.8029
  828MOL0     C11668   9.683   8.637  11.085  0.5958 -0.6047  0.1687
  828MOL0     O11669   9.620   8.518  11.129 -0.7899 -0.3506 -0.1093
  828MOL0     C11670   9.531   8.449  11.050  0.1036  0.5027 -0.7285
  828MOL0     C11671   9.544   8.434  10.910  1.0664  0.9311 -0.6011
  828MOL0     C11672   9.458   8.358  10.842  0.1459  0.2532  0.5383
  828MOL0     C11673   9.346   8.294  10.906  0.3684 -0.0738 -0.5021
  828MOL0     C11674   9.248   8.207  10.838  0.8447 -0.7301 -0.0673
  828MOL0     O11675   9.294   8.090  10.786  0.2989  0.1509  0.9972
  828MOL0     C11676   9.198   8.018  10.715 -0.3220 -0.4274 -0.8683
  828MOL0     C11677   9.210   8.021  10.580  0.5903 -0.0609 -0.4195
  828MOL0     C11678   9.123   7.935  10.510  1.1599 -0.7308 -0.2988
  828MOL0     C11679   9.021   7.866  10.574 -0.0690  0.1741  0.3852
  828MOL0     O11680   8.929   7.787  10.515 -0.0347 -0.6834 -0.1733
  828MOL0     C11681   8.918   7.777  10.376  0.7460  0.6824 -0.9923
  828MOL0     C11682   8.792   7.703  10.332 -0.1442 -1.4317  0.8934
  828MOL0     C11683   8.766   7.565  10.393  0.5258 -0.5409  0.8722
  828MOL0     C11684   8.678   7.479  10.296  0.8919 -0.6453 -0.1144
  828MOL0     C11685   8.672   7.328  10.329  0.0147 -0.9221  0.1210
  828MOL0     C11686   8.575   7.233  10.265  0.0242  0.0804 -0.2612
  828MOL0     C11687   8.426   7.269  10.289 -0.1239 -0.2492  0.2110
  828MOL0     C11688   8.324   7.173  10.236 -0.2637  0.4132  0.2137
  828MOL0    Cl11689   8.328   7.164  10.043  0.6646  0.4629  0.4241
  828MOL0     C11690   9.012   7.871  10.708  0.6096 -0.0535 -1.1180
  828MOL0     C11691   9.098   7.951  10.776 -0.0962 -0.1694  0.3797
  828MOL0     O11692   9.131   8.247  10.842  0.4339  0.5757  0.6209
  828MOL0     C11693   9.327   8.310  11.047 -0.3154 -0.6120  0.0025
  828MOL0     C11694   9.423   8.384  11.119 -0.8303  0.0302  1.4512
  828MOL0     N11695   9.739   8.684  10.756 -0.7091  0.3853 -0.1388
  828MOL0     N11696   9.758   8.664  10.632 -0.2428 -0.0398  0.8736
  828MOL0     C11697  10.319   9.419   9.918  0.8375  0.6407 -0.1815
  828MOL0     C11698  10.346   9.554   9.892  0.1771  0.1979  0.6402
  828MOL0     C11699  10.567   9.973   9.930  0.7617 -0.0149  0.5891
  828MOL0     C11700  10.665  10.063   9.956  0.1007  0.9021 -0.0495
  828MOL0     C11701  10.659  10.196   9.929 -0.4045 -0.4247 -0.0943
  828MOL0     C11702  10.552  10.254   9.871 -0.0251 -0.2600 -0.8607
  828MOL0     O11703  10.559  10.392   9.849 -0.4441  0.3459 -0.1195
  828MOL0     C11704  10.475  10.445   9.739  0.6486  0.1097 -0.4644
  828MOL0     C11705  10.545  10.431   9.609 -0.1072  0.2465 -0.9543
  828MOL0     C11706  10.458  10.499   9.500  0.5102 -0.2115 -0.1485
  828MOL0     C11707  10.499  10.452   9.359 -0.1746  0.6667  0.5779
  828MOL0     C11708  10.636  10.484   9.313  0.9433 -0.4715 -0.1282
  828MOL0     C11709  10.755  10.512   9.296  0.7393 -0.1666  1.1533
  828MOL0     C11710  10.444  10.171   9.837 -0.1780  0.0781  0.8765
  828MOL0     C11711  10.453  10.031   9.851 -0.4563  0.3312 -0.3667
  828MOL0     C11712  10.337   9.959   9.784  0.6425 -0.2601  0.2581
  828MOL0     H11713  10.613   9.575  10.114  1.3053 -0.9582 -0.6438
  828MOL0     H11714  10.544   9.369  10.168  1.1407 -1.2447 -0.3753
  828MOL0     H11715  10.291   9.154   9.850  0.9164  2.8753  0.3937
  828MOL0     H11716  10.458   9.132   9.891  1.1267 -2.0292  1.5770
  828MOL0     H11717  10.431   8.972  10.049  2.5554  0.1795 -1.7511
  828MOL0     H11718  10.368   8.908   9.900 -1.4562  0.1190  0.4470
  828MOL0     H11719  10.123   8.975   9.969 -1.1239 -5.4755 -0.0399
  828MOL0     H11720  10.194   9.027  10.126  2.6254  0.8703 -0.6503
  828MOL0     H11721  10.138   8.757  10.017 -0.1065 -0.3472  0.3232
  828MOL0     H11722  10.293   8.763  10.081 -0.0104 -0.9978 -2.9016
  828MOL0     H11723  10.141   8.707  10.267 -0.0725 -0.0422  0.4726
  828MOL0     H11724  10.199   8.861  10.307 -1.2002 -0.9929  1.5887
  828MOL0     H11725   9.969   8.951  10.185  3.4726  1.4947  0.3652
  828MOL0     H11726   9.950   8.781  10.162  3.4965 -0.0786 -2.4996
  828MOL0     H11727   9.818   8.891  10.344  0.5656 -0.1295  2.7845
  828MOL0     H11728   9.967   8.939  10.432  3.4261 -0.8823  0.0223
  828MOL0     H11729   9.867   8.646  10.422  1.2093 -0.0843 -0.1932
  828MOL0     H11730  10.032   8.695  10.479  1.0656  1.7801 -1.7501
  828MOL0     H11731   9.977   8.912  10.701 -1.4329  0.1164  2.1321
  828MOL0     H11732   9.907   8.933  10.947 -2.3933  1.8415 -2.6180
  828MOL0     H11733   9.746   8.863  10.981 -1.2362 -1.8496  0.4808
  828MOL0     H11734  10.012   8.718  11.001  0.7797 -3.4056  3.3309
  828MOL0     H11735   9.929   8.798  11.136  0.6009  2.8997 -0.2889
  828MOL0     H11736   9.861   8.565  11.155 -4.4656 -1.6906 -0.2707
  828MOL0     H11737   9.841   8.533  10.989  1.9422 -2.2436  1.8865
  828MOL0     H11738   9.630   8.673  10.996 -3.1684 -1.5113  1.8377
  828MOL0     H11739   9.671   8.710  11.166  1.9125 -0.5386  0.3304
  828MOL0     H11740   9.616   8.497  10.859 -0.2818  2.4736 -0.6600
  828MOL0     H11741   9.468   8.336  10.736  3.1193  0.8197  0.6007
  828MOL0     H11742   9.288   8.079  10.532 -0.2181 -1.3642 -3.5989
  828MOL0     H11743   9.143   7.942  10.403 -0.3267 -1.1547 -0.6208
  828MOL0     H11744   8.927   7.879  10.339 -1.8117  1.7846  1.0698
  828MOL0     H11745   8.998   7.712  10.339  0.8802  1.2949 -1.8079
  828MOL0     H11746   8.710   7.772  10.357  0.4029  0.2005 -1.4560
  828MOL0     H11747   8.801   7.688  10.224  2.8388 -2.5122  1.2177
  828MOL0     H11748   8.858   7.510  10.416  2.3122  2.1384  0.5371
  828MOL0     H11749   8.719   7.573  10.492 -1.4095  0.5134 -0.0633
  828MOL0     H11750   8.712   7.494  10.193 -3.5689  1.1841 -1.5773
  828MOL0     H11751   8.577   7.520  10.305 -0.1712 -3.0904 -0.1740
  828MOL0     H11752   8.647   7.327  10.435  1.3391  1.5942  0.5401
  828MOL0     H11753   8.770   7.287  10.302 -0.4421 -0.2890 -2.8582
  828MOL0     H11754   8.591   7.228  10.157 -1.6759  1.0160 -0.5854
  828MOL0     H11755   8.583   7.132  10.306 -1.8263  1.1728  3.1935
  828MOL0     H11756   8.404   7.366  10.245  2.4833  1.7795  2.9759
  828MOL0     H11757   8.402   7.276  10.395 -2.2012  0.2086 -0.2276
  828MOL0     H11758   8.337   7.069  10.270 -0.2050  0.8907  1.7522
  828MOL0     H11759   8.227   7.208  10.274 -0.0410 -0.3777  1.6041
  828MOL0     H11760   8.931   7.828  10.766  2.1309 -0.3044  0.9114
  828MOL0     H11761   9.087   7.944  10.884 -2.8377 -1.9141  0.1054
  828MOL0     H11762   9.244   8.275  11.107 -0.1155 -0.8870  0.1145
  828MOL0     H11763   9.426   8.379  11.227  3.2095 -0.7428  1.4603
  828MOL0     H11764  10.234   9.372   9.869  0.7990 -1.3511  1.6687
  828MOL0     H11765  10.292   9.602   9.812  0.5505 -1.5019 -0.6956
  828MOL0     H11766  10.751  10.020  10.005 -4.0314 -3.2878  4.6520
  828MOL0     H11767  10.761  10.231   9.945  0.1374 -2.5060  1.4266
  828MOL0     H11768  10.480  10.554   9.747  1.1356  0.4811 -4.1441
  828MOL0     H11769  10.373  10.407   9.740  1.0042 -1.1302 -2.6803
  828MOL0     H11770  10.570  10.328   9.584  1.1850  0.1224  0.7335
  828MOL0     H11771  10.641  10.483   9.621 -0.1022  0.4194 -1.6969
  828MOL0     H11772  10.473  10.608   9.506  2.8056 -0.4655 -0.2599
  828MOL0     H11773  10.356  10.465   9.518  0.3540  0.6168  0.6233
  828MOL0     H11774  10.491  10.343   9.353 -1.1675  0.7935 -3.3630
  828MOL0     H11775  10.437  10.495   9.280 -1.5079 -2.9632 -0.5416
  828MOL0     H11776  10.856  10.538   9.274 -0.1189  4.7510  1.7008
  828MOL0     H11777  10.356  10.216   9.792  0.7905  3.5657  2.1163
  828MOL0     H11778  10.259   9.935   9.857 -0.6224 -0.3884 -1.0711
  828MOL0     H11779  10.294  10.025   9.708  1.0841 -0.6257 -0.3206
  828MOL0     H11780  10.358   9.867   9.727 -3.8230 -1.8351  0.7016
  829MOL0     O11781   8.249   7.899  11.317 -0.2525 -0.3857  0.1789
  829MOL0     C11782   8.231   7.954  11.213 -0.3821  0.0490  0.5349
  829MOL0     O11783   8.128   8.028  11.190 -0.3425  0.0041  0.7579
  829MOL0     C11784   8.057   8.079  11.300  0.7236 -0.6189  0.5475
  829MOL0     C11785   8.117   8.150  11.398 -0.8832 -1.4713  0.5118
  829MOL0     C11786   8.052   8.211  11.501  0.4466 -0.7411  1.6382
  829MOL0     C11787   7.916   8.207  11.510  0.1755  0.2436 -0.7304
  829MOL0     O11788   7.858   8.283  11.607 -0.5103 -0.2268 -0.8514
  829MOL0     C11789   7.718   8.294  11.612  0.0932  0.0393  0.0505
  829MOL0     C11790   7.691   8.396  11.504  0.1532 -0.3577 -0.0702
  829MOL0     C11791   7.548   8.437  11.509  0.1862 -0.6478  0.3267
  829MOL0     C11792   7.543   8.572  11.583 -0.3091 -0.4626  0.3009
  829MOL0     C11793   7.408   8.639  11.561  0.5486 -0.2490  0.4475
  829MOL0     C11794   7.388   8.779  11.621  0.8872 -0.5200  0.4212
  829MOL0     C11795   7.490   8.881  11.565 -0.2716  0.8390 -1.0167
  829MOL0     C11796   7.560   8.968  11.666 -0.4193 -0.6237 -1.2467
  829MOL0     N11797   7.668   8.899  11.732  0.3842  0.1275 -1.2286
  829MOL0     C11798   7.807   8.895  11.714 -0.1668  0.8297 -1.0079
  829MOL0     C11799   7.845   8.802  11.810 -0.0791 -0.2619  0.2021
  829MOL0     C11800   7.975   8.754  11.843  0.3091  0.2079 -0.4358
  829MOL0     C11801   8.000   8.619  11.769 -0.3789  0.2628  0.9287
  829MOL0     C11802   8.140   8.573  11.807 -0.1700  0.2353  0.2257
  829MOL0     C11803   8.158   8.525  11.951 -0.5331 -0.4924 -0.2320
  829MOL0     O11804   8.200   8.633  12.036 -0.5827 -0.2573 -0.6856
  829MOL0     C11805   8.239   8.606  12.165 -0.3659 -0.2069  0.3285
  829MOL0     C11806   8.311   8.712  12.238 -0.8143  0.0165  0.2690
  829MOL0     C11807   8.347   8.683  12.368  0.3211 -0.1611  0.8256
  829MOL0     C11808   8.329   8.556  12.424  0.0167 -0.4597  0.1326
  829MOL0     C11809   8.366   8.524  12.570  0.3320  0.8463  1.2112
  829MOL0     O11810   8.345   8.396  12.612  0.8175  0.3919  0.8676
  829MOL0     C11811   8.363   8.353  12.738  0.6561 -0.5324 -0.4547
  829MOL0     C11812   8.305   8.411  12.849  0.1039 -0.2134  0.6243
  829MOL0     C11813   8.287   8.337  12.968  0.0736 -0.1119  0.2070
  829MOL0     C11814   8.345   8.211  12.983  0.0850  0.8968  0.0595
  829MOL0     O11815   8.321   8.140  13.102  0.1313  0.7675 -0.1096
  829MOL0     C11816   8.379   8.003  13.096  0.1709 -0.5321 -0.2919
  829MOL0     C11817   8.317   7.934  13.216 -0.5827  0.3562  0.1169
  829MOL0     C11818   8.350   7.788  13.196 -0.7085  0.1969  0.5346
  829MOL0     C11819   8.278   7.697  13.311 -0.1504  0.5109  0.1652
  829MOL0     C11820   8.309   7.551  13.295  0.1364 -0.7417 -0.3618
  829MOL0     C11821   8.280   7.466  13.423  0.5150 -0.3579 -0.5083
  829MOL0     C11822   8.282   7.311  13.392  0.3358  0.8406  0.9157
  829MOL0     C11823   8.295   7.225  13.517 -0.5781  0.1520 -0.1938
  829MOL0    Cl11824   8.285   7.051  13.459 -0.3770 -0.1777  0.2558
  829MOL0     C11825   8.415   8.157  12.869  0.0440  0.1893 -0.2286
  829MOL0     C11826   8.431   8.239  12.751  0.3089  0.2927  0.1209
  829MOL0     O11827   8.410   8.611  12.642 -0.0622 -0.1588 -0.2933
  829MOL0     C11828   8.279   8.454  12.347  0.1583  0.5424  0.1893
  829MOL0     C11829   8.227   8.480  12.222 -0.2481  0.1230  0.0206
  829MOL0     N11830   7.730   8.750  11.865  0.4684  0.3712  0.3920
  829MOL0     N11831   7.632   8.816  11.832 -0.0100  0.3514 -0.3826
  829MOL0     C11832   7.849   8.138  11.404  0.6288  0.4032  0.2625
  829MOL0     C11833   7.918   8.071  11.300  0.4675 -0.3478 -0.1842
  829MOL0     C11834   8.344   7.953  11.119  0.0978 -0.4120  0.8946
  829MOL0     C11835   8.343   8.056  11.020  0.3283 -0.3016 -0.6957
  829MOL0     C11836   8.449   8.075  10.924  0.3277 -0.0505  0.6414
  829MOL0     C11837   8.557   7.982  10.922  1.0169 -0.9922  0.0767
  829MOL0     O11838   8.661   7.992  10.829 -0.0560  0.3835  0.3955
  829MOL0     C11839   8.661   8.100  10.733  0.9744 -0.8380  0.2902
  829MOL0     C11840   8.782   8.112  10.636  0.2383  0.2354 -0.2708
  829MOL0     C11841   8.767   8.222  10.539  0.0350  0.1773  0.7057
  829MOL0     C11842   8.898   8.243  10.462  0.3201 -0.0843  0.4487
  829MOL0     C11843   8.885   8.351  10.364 -0.7687  0.9714 -0.1459
  829MOL0     C11844   8.881   8.453  10.303 -0.0574 -1.3226  1.1459
  829MOL0     C11845   8.552   7.877  11.013 -0.4434  0.5549  0.1467
  829MOL0     C11846   8.450   7.858  11.109 -0.8135 -0.4348 -0.7490
  829MOL0     C11847   8.474   7.746  11.207  0.3912 -0.6937 -0.1447
  829MOL0     H11848   8.222   8.176  11.394 -1.1883  0.6030  3.2671
  829MOL0     H11849   8.105   8.273  11.573  0.4247  0.4999  0.6132
  829MOL0     H11850   7.659   8.203  11.601 -1.3236  1.1917 -3.3230
  829MOL0     H11851   7.698   8.340  11.709 -0.1404 -2.0832  1.0634
  829MOL0     H11852   7.697   8.344  11.408  0.2304  1.4193 -1.0663
  829MOL0     H11853   7.758   8.482  11.508 -1.6332  1.0743  0.5517
  829MOL0     H11854   7.487   8.361  11.559  1.3935 -2.9292 -1.4638
  829MOL0     H11855   7.509   8.453  11.408  2.0903 -0.0520 -0.3479
  829MOL0     H11856   7.556   8.550  11.689 -0.8437  1.3927  0.7920
  829MOL0     H11857   7.628   8.629  11.544 -0.1701  0.5363  2.0090
  829MOL0     H11858   7.398   8.651  11.453  2.5943  1.1158  0.3520
  829MOL0     H11859   7.328   8.575  11.600 -0.9134 -0.3586 -2.4483
  829MOL0     H11860   7.292   8.822  11.592  0.3782  0.6467  3.3957
  829MOL0     H11861   7.389   8.786  11.730 -2.4494  2.3576  0.4235
  829MOL0     H11862   7.437   8.947  11.496  0.1681  0.6538 -1.5383
  829MOL0     H11863   7.566   8.832  11.503  2.3465  1.1682  1.6774
  829MOL0     H11864   7.599   9.054  11.610 -0.5071 -0.7454 -1.4939
  829MOL0     H11865   7.490   9.008  11.740  0.5721 -0.6087 -0.2759
  829MOL0     H11866   7.873   8.941  11.641  3.1114 -2.5766 -0.4974
  829MOL0     H11867   8.056   8.825  11.822  0.3955 -0.1969 -1.4944
  829MOL0     H11868   7.959   8.728  11.949 -1.9621 -2.3571 -1.2871
  829MOL0     H11869   7.927   8.542  11.796 -0.6800 -0.2521 -1.1552
  829MOL0     H11870   7.993   8.634  11.661 -1.8699  0.8936  1.0921
  829MOL0     H11871   8.193   8.661  11.771 -0.5209 -0.7629 -3.1531
  829MOL0     H11872   8.157   8.489  11.738 -2.3619 -0.3408  0.3044
  829MOL0     H11873   8.232   8.445  11.958  2.7888  2.4208  1.3913
  829MOL0     H11874   8.058   8.487  11.973 -2.1541  2.0341 -2.5817
  829MOL0     H11875   8.348   8.803  12.191 -0.5432  0.8018  1.9274
  829MOL0     H11876   8.395   8.761  12.426 -1.4518 -2.1084  5.4466
  829MOL0     H11877   8.259   8.510  12.846 -0.2580 -0.2289  3.3739
  829MOL0     H11878   8.235   8.387  13.049 -1.8189  1.5896 -1.9017
  829MOL0     H11879   8.343   7.951  13.006 -1.8155  0.6953 -0.2633
  829MOL0     H11880   8.487   8.015  13.111  0.3025 -1.2017 -0.6446
  829MOL0     H11881   8.347   7.980  13.310 -0.5768 -0.2552  0.4207
  829MOL0     H11882   8.209   7.938  13.200 -0.5052 -1.1505 -1.0059
  829MOL0     H11883   8.314   7.751  13.099  0.1455 -0.5965  0.5013
  829MOL0     H11884   8.458   7.775  13.208 -1.0113 -0.1267  3.8222
  829MOL0     H11885   8.170   7.711  13.302  0.0398  1.6988 -0.4962
  829MOL0     H11886   8.296   7.735  13.412  1.6650  2.3679 -0.7686
  829MOL0     H11887   8.413   7.549  13.263 -0.1181 -1.1032 -1.2114
  829MOL0     H11888   8.242   7.506  13.221 -1.3294 -0.5072  0.7708
  829MOL0     H11889   8.336   7.496  13.512 -1.2121 -3.2021  1.7377
  829MOL0     H11890   8.178   7.478  13.460  0.5617  0.9447 -0.7553
  829MOL0     H11891   8.365   7.290  13.324  1.6790  3.3038  1.6574
  829MOL0     H11892   8.188   7.293  13.338  0.3960 -2.1648  1.6629
  829MOL0     H11893   8.387   7.256  13.568 -1.2645  1.7063  0.1472
  829MOL0     H11894   8.216   7.255  13.585 -0.1265  1.0231 -0.0429
  829MOL0     H11895   8.471   8.064  12.872 -0.5381 -0.1542  0.1672
  829MOL0     H11896   8.477   8.199  12.661  1.6339 -0.6417  1.1686
  829MOL0     H11897   8.251   8.353  12.375 -0.1659  0.5123 -0.2351
  829MOL0     H11898   8.191   8.387  12.180  0.5881 -0.5540  0.7660
  829MOL0     H11899   7.742   8.143  11.387  0.4156  1.8808  1.7704
  829MOL0     H11900   7.857   8.038  11.216 -3.6993 -0.7463  2.6659
  829MOL0     H11901   8.270   8.136  11.010  0.2695 -0.6155 -3.6689
  829MOL0     H11902   8.434   8.153  10.851 -0.9378  0.6974  1.6543
  829MOL0     H11903   8.663   8.191  10.795 -3.2892 -1.1824  1.2535
  829MOL0     H11904   8.566   8.105  10.680  0.4195 -1.1966  1.2167
  829MOL0     H11905   8.788   8.021  10.576  0.4703 -0.8029  1.2591
  829MOL0     H11906   8.875   8.122  10.692 -0.7723  1.3526  1.2834
  829MOL0     H11907   8.732   8.312  10.590 -2.3092 -0.4808  0.3603
  829MOL0     H11908   8.694   8.188  10.466  3.9660  0.3372 -3.8186
  829MOL0     H11909   8.975   8.276  10.533  0.3813  0.6104  0.0692
  829MOL0     H11910   8.921   8.151  10.409 -0.0641 -0.0857  0.2852
  829MOL0     H11911   8.856   8.540  10.245 -2.8142 -1.2889  2.2608
  829MOL0     H11912   8.640   7.813  11.009  1.6988  3.3725 -1.0342
  829MOL0     H11913   8.502   7.797  11.300  0.0974  2.3692 -1.6241
  829MOL0     H11914   8.380   7.698  11.237  0.4271 -0.3046  0.6197
  829MOL0     H11915   8.562   7.685  11.183  2.0205  1.0638  1.0304
  830MOL0     O11916   9.614   5.694  10.175  0.2601 -0.1881 -0.0684
  830MOL0     C11917   9.717   5.755  10.209 -0.0504 -0.7992  0.7760
  830MOL0     O11918   9.811   5.718  10.304  0.0992  0.4959 -0.1879
  830MOL0     C11919   9.771   5.600  10.363  0.2203  0.3193  0.5105
  830MOL0     C11920   9.705   5.596  10.482  0.1844  1.0132 -0.1390
  830MOL0     C11921   9.651   5.475  10.525 -0.7112 -0.4265  0.4241
  830MOL0     C11922   9.687   5.349  10.466  0.6736  0.2241  0.1864
  830MOL0     O11923   9.671   5.229  10.534  0.6972 -0.4712 -0.1319
  830MOL0     C11924   9.620   5.107  10.463  0.0883 -0.7618 -0.6633
  830MOL0     C11925   9.616   4.991  10.558 -0.4972  0.6116 -0.2964
  830MOL0     C11926   9.548   5.007  10.696  0.2464 -0.2365  0.2615
  830MOL0     C11927   9.392   5.008  10.692  0.2998  0.4590  0.0680
  830MOL0     C11928   9.315   5.030  10.831  0.4125 -0.3116 -0.2223
  830MOL0     C11929   9.354   4.923  10.941  0.3298  0.5124  0.9925
  830MOL0     C11930   9.339   4.771  10.891 -0.9226  0.3785 -0.9236
  830MOL0     C11931   9.434   4.672  10.972 -0.0775  0.6551 -0.0302
  830MOL0     N11932   9.455   4.536  10.908 -0.1152 -0.1585  0.3479
  830MOL0     C11933   9.576   4.462  10.906 -0.6510 -0.4089 -0.4271
  830MOL0     C11934   9.547   4.334  10.917 -0.0530 -0.3634 -0.4740
  830MOL0     C11935   9.641   4.219  10.901  0.1525  0.3837 -0.0069
  830MOL0     C11936   9.563   4.113  10.821 -0.0799 -0.8927  0.4604
  830MOL0     C11937   9.646   3.983  10.810 -0.1607  0.3162  0.6738
  830MOL0     C11938   9.591   3.878  10.710  0.6362 -0.2016  0.4657
  830MOL0     O11939   9.591   3.741  10.755 -0.2037  0.6341  0.0696
  830MOL0     C11940   9.703   3.680  10.789  0.0847  0.8613  0.5031
  830MOL0     C11941   9.828   3.719  10.745  0.6647  0.7327  0.1131
  830MOL0     C11942   9.944   3.661  10.798 -0.1601  0.3170  0.5522
  830MOL0     C11943   9.933   3.557  10.895 -0.8758 -0.4152 -0.2934
  830MOL0     C11944  10.051   3.484  10.946 -0.1202 -0.6142  0.0047
  830MOL0     O11945  10.166   3.488  10.871 -0.3361 -0.0448  0.2716
  830MOL0     C11946  10.278   3.439  10.936  0.3643  0.4540  0.2789
  830MOL0     C11947  10.324   3.305  10.925 -0.1777  1.5636  0.3535
  830MOL0     C11948  10.441   3.271  11.004 -0.5709 -0.3033 -0.4389
  830MOL0     C11949  10.503   3.371  11.082 -0.5089 -0.1313  0.2907
  830MOL0     O11950  10.618   3.357  11.156 -0.0421  0.0097  0.4363
  830MOL0     C11951  10.678   3.226  11.158 -0.5148 -0.0041 -1.2140
  830MOL0     C11952  10.806   3.235  11.247  1.1334  0.8275  0.0332
  830MOL0     C11953  10.825   3.089  11.296  0.3320  0.1481 -0.6555
  830MOL0     C11954  10.962   3.083  11.356 -0.0787 -0.2012  0.5889
  830MOL0     C11955  11.018   2.952  11.405  0.6497  0.9851  0.2667
  830MOL0     C11956  10.965   2.909  11.549  0.0426 -0.0599  1.1371
  830MOL0     C11957  11.036   2.776  11.579 -0.2641  0.0594 -0.2005
  830MOL0     C11958  10.994   2.719  11.721  0.7303  0.1843  1.4525
  830MOL0    Cl11959  11.058   2.814  11.852 -0.2878  0.2093  0.0298
  830MOL0     C11960  10.458   3.502  11.079  0.8358  1.2125  1.1213
  830MOL0     C11961  10.342   3.530  11.007  0.2506 -0.5869 -0.5448
  830MOL0     O11962  10.039   3.429  11.056  0.4126 -0.1177 -1.3132
  830MOL0     C11963   9.806   3.513  10.925 -0.6211  0.1566 -0.8047
  830MOL0     C11964   9.695   3.575  10.875  0.6349 -0.5219 -0.6465
  830MOL0     N11965   9.411   4.326  10.927  0.1625  0.5169  0.2686
  830MOL0     N11966   9.359   4.439  10.921  0.0839  0.0118 -0.4910
  830MOL0     C11967   9.758   5.361  10.343  1.1870 -0.4330  0.2554
  830MOL0     C11968   9.791   5.483  10.291 -0.0245 -0.7004 -0.2845
  830MOL0     C11969   9.753   5.878  10.131  0.5138 -0.4191 -0.3070
  830MOL0     C11970   9.847   5.964  10.187 -0.0175 -0.3129 -0.0983
  830MOL0     C11971   9.899   6.078  10.121  0.9832 -0.3018 -0.7177
  830MOL0     C11972   9.841   6.117   9.994 -0.0667  0.7447 -0.0101
  830MOL0     O11973   9.875   6.225   9.917  0.0687 -0.3226  0.5828
  830MOL0     C11974  10.019   6.257   9.920 -0.1355  0.1554 -0.0867
  830MOL0     C11975  10.051   6.370   9.829 -0.5802  0.1357 -0.2451
  830MOL0     C11976   9.988   6.501   9.877  0.3243 -0.0256  0.1339
  830MOL0     C11977  10.000   6.618   9.776  0.0100  0.7957  0.2602
  830MOL0     C11978  10.122   6.691   9.801 -0.3021 -0.0072 -0.1456
  830MOL0     C11979  10.233   6.741   9.801  0.9954 -0.6323  1.0111
  830MOL0     C11980   9.738   6.043   9.939 -0.7245  0.8488 -0.4786
  830MOL0     C11981   9.680   5.931  10.012  0.9572 -0.1025  0.1299
  830MOL0     C11982   9.563   5.869   9.948  0.1383 -0.2983 -0.0199
  830MOL0     H11983   9.709   5.688  10.540  1.3389  1.0116 -0.1963
  830MOL0     H11984   9.584   5.481  10.611 -0.6614  0.7792  0.3894
  830MOL0     H11985   9.515   5.119  10.434  0.1612  0.2895 -0.5524
  830MOL0     H11986   9.683   5.091  10.375  2.9962  1.7536  0.7526
  830MOL0     H11987   9.719   4.959  10.578  1.0646  5.4702  0.6395
  830MOL0     H11988   9.564   4.911  10.504 -1.7056  2.4729 -2.0566
  830MOL0     H11989   9.597   5.089  10.750  0.7361 -1.7904  2.2944
  830MOL0     H11990   9.575   4.913  10.744  0.7879 -0.2462 -0.0531
  830MOL0     H11991   9.373   5.093  10.625  2.3876 -0.5205 -1.8587
  830MOL0     H11992   9.345   4.924  10.641 -0.4221 -0.0213  1.4753
  830MOL0     H11993   9.332   5.129  10.873 -1.2466  0.8758 -2.2071
  830MOL0     H11994   9.207   5.033  10.817 -0.0405  2.5159  2.7624
  830MOL0     H11995   9.457   4.942  10.973  1.0598 -1.8416  0.2298
  830MOL0     H11996   9.281   4.935  11.022 -1.8321  2.4840 -1.1046
  830MOL0     H11997   9.361   4.751  10.786  0.0042 -3.1238 -0.2177
  830MOL0     H11998   9.235   4.740  10.908 -0.8302  1.6393  3.0085
  830MOL0     H11999   9.531   4.717  10.995 -0.6811  1.1840  1.6420
  830MOL0     H12000   9.384   4.642  11.064 -1.0124  1.0828 -0.3798
  830MOL0     H12001   9.678   4.499  10.898 -0.2036 -1.2079  1.2028
  830MOL0     H12002   9.731   4.255  10.851 -0.3934 -0.4255 -1.6448
  830MOL0     H12003   9.665   4.176  10.999  1.8984  1.5645  0.1295
  830MOL0     H12004   9.466   4.105  10.871 -1.5543  3.1181 -1.3269
  830MOL0     H12005   9.544   4.141  10.717  1.5153 -0.0268  0.3857
  830MOL0     H12006   9.645   3.938  10.910  2.2393  0.1572  0.6947
  830MOL0     H12007   9.746   4.002  10.770 -0.5126 -1.9326 -1.4714
  830MOL0     H12008   9.639   3.889  10.612  1.2533 -0.4010  0.7435
  830MOL0     H12009   9.488   3.911  10.691  1.2561  0.2896 -2.5589
  830MOL0     H12010   9.832   3.797  10.669 -0.7687 -0.4840 -1.2840
  830MOL0     H12011  10.040   3.704  10.770  0.9084 -1.7787  0.8301
  830MOL0     H12012  10.283   3.230  10.858  2.3317  0.0344  0.3706
  830MOL0     H12013  10.471   3.167  10.998 -0.8485 -0.4120  0.0295
  830MOL0     H12014  10.607   3.149  11.190  0.3199  0.4680  2.1580
  830MOL0     H12015  10.709   3.199  11.056  2.0756 -3.6659  0.2923
  830MOL0     H12016  10.892   3.269  11.190  1.6566  0.0956  0.3604
  830MOL0     H12017  10.785   3.307  11.327 -6.4438  0.5349 -0.9745
  830MOL0     H12018  10.750   3.060  11.371 -1.0131 -1.9242 -2.6670
  830MOL0     H12019  10.812   3.019  11.213  2.0455 -0.9328 -0.0785
  830MOL0     H12020  10.960   3.149  11.443  0.1657 -2.4925  2.4250
  830MOL0     H12021  11.034   3.124  11.284 -0.1952  2.1511  1.7256
  830MOL0     H12022  11.127   2.952  11.419  1.0350 -0.7267 -2.0352
  830MOL0     H12023  10.989   2.873  11.335  0.8536 -0.5084  1.8006
  830MOL0     H12024  10.999   2.988  11.617 -0.0460  0.4787  0.5687
  830MOL0     H12025  10.855   2.913  11.549  0.0625  1.6785  0.1742
  830MOL0     H12026  11.144   2.792  11.567 -0.7039  2.8093 -1.3914
  830MOL0     H12027  11.002   2.704  11.504  1.5785 -2.2062  1.0037
  830MOL0     H12028  10.886   2.700  11.725  0.6301  0.1179 -0.7202
  830MOL0     H12029  11.028   2.615  11.733  1.0713  0.1192  0.0935
  830MOL0     H12030  10.501   3.593  11.118  0.6996  2.1791 -0.8286
  830MOL0     H12031  10.297   3.629  11.009  2.1412  0.3154  2.1183
  830MOL0     H12032   9.794   3.428  10.992  1.3361  0.2583 -0.2485
  830MOL0     H12033   9.598   3.531  10.901  1.7332 -2.8521 -0.1884
  830MOL0     H12034   9.785   5.263  10.304  0.4920 -0.2327 -0.7549
  830MOL0     H12035   9.858   5.493  10.207 -0.0128  1.6991 -0.0593
  830MOL0     H12036   9.904   5.949  10.279  1.1209 -0.1889 -0.7587
  830MOL0     H12037   9.977   6.137  10.167 -1.0511  0.0774  2.6387
  830MOL0     H12038  10.079   6.168   9.897  0.1200 -0.4035  2.4734
  830MOL0     H12039  10.041   6.291  10.022 -1.6856 -3.3827  1.5907
  830MOL0     H12040  10.029   6.359   9.722  0.5748  2.1413 -0.7567
  830MOL0     H12041  10.160   6.385   9.821 -0.9977  3.4748 -1.6630
  830MOL0     H12042  10.029   6.531   9.974 -2.8008 -2.4151  2.3857
  830MOL0     H12043   9.880   6.483   9.875  0.0361  1.5036  0.5395
  830MOL0     H12044  10.014   6.584   9.673  1.3150  0.3046  0.5883
  830MOL0     H12045   9.911   6.682   9.777  0.2884  1.2283 -0.9652
  830MOL0     H12046  10.332   6.779   9.793  1.4430 -2.0235 -0.4362
  830MOL0     H12047   9.689   6.065   9.845  1.4340  0.4870 -1.7507
  830MOL0     H12048   9.561   5.759   9.945  1.5614 -0.4446 -5.5225
  830MOL0     H12049   9.472   5.913   9.989 -0.8967  1.7970 -4.0768
  830MOL0     H12050   9.561   5.897   9.843 -2.5474  1.8065  0.4820
  831MOL0     O12051   3.676   8.241  10.096 -0.4396 -0.0404 -0.4020
  831MOL0     C12052   3.766   8.246  10.177 -0.0430 -0.4503 -0.1510
  831MOL0     O12053   3.755   8.253  10.313  0.7529 -0.5273  0.2858
  831MOL0     C12054   3.633   8.254  10.376 -0.7509  0.6604 -0.0193
  831MOL0     C12055   3.603   8.365  10.463  0.9253  1.0471 -0.5970
  831MOL0     C12056   3.483   8.361  10.535 -0.0474  0.1326  0.6503
  831MOL0     C12057   3.398   8.250  10.517  0.7833 -1.5230  0.2345
  831MOL0     O12058   3.279   8.243  10.578  0.0217 -0.7302  0.0463
  831MOL0     C12059   3.222   8.361  10.640 -1.0430 -0.9357  0.7814
  831MOL0     C12060   3.079   8.338  10.679  0.2219 -0.8687  0.2232
  831MOL0     C12061   3.061   8.209  10.757  0.1221  0.5562 -0.4340
  831MOL0     C12062   2.912   8.222  10.812 -0.4374  0.1934  0.8176
  831MOL0     C12063   2.857   8.091  10.878  0.1722 -0.6400 -0.7236
  831MOL0     C12064   2.866   7.967  10.791 -0.2411  0.3007 -0.2161
  831MOL0     C12065   2.797   7.843  10.862  0.2696  0.1406  0.0575
  831MOL0     C12066   2.653   7.811  10.825 -1.1877 -0.7941 -0.0191
  831MOL0     N12067   2.641   7.814  10.678  0.5237  0.1230 -0.1689
  831MOL0     C12068   2.713   7.741  10.583 -0.7079  0.0513 -0.2009
  831MOL0     C12069   2.666   7.767  10.462  0.0395  0.1493 -0.5159
  831MOL0     C12070   2.710   7.693  10.341 -0.2450 -0.5781  0.0424
  831MOL0     C12071   2.620   7.712  10.217  0.2998 -0.3961 -0.3380
  831MOL0     C12072   2.617   7.865  10.167 -0.6780  0.8052  0.4786
  831MOL0     C12073   2.753   7.917  10.109 -0.8191 -0.3512  0.1278
  831MOL0     O12074   2.769   7.857   9.980 -0.8333 -0.6107  0.4397
  831MOL0     C12075   2.874   7.886   9.903 -0.1922  0.3523 -0.5544
  831MOL0     C12076   2.916   7.792   9.809 -0.0533 -0.7969  0.0009
  831MOL0     C12077   3.019   7.825   9.720  0.0584 -0.4730  0.2747
  831MOL0     C12078   3.080   7.952   9.713  0.2181  0.3854  0.3337
  831MOL0     C12079   3.185   7.991   9.606  0.8285  0.0846  0.0964
  831MOL0     O12080   3.259   8.092   9.644  0.5146 -0.1209 -0.0853
  831MOL0     C12081   3.364   8.161   9.574 -0.5014  0.3573  0.1905
  831MOL0     C12082   3.389   8.133   9.438  0.1266  0.0496  0.5024
  831MOL0     C12083   3.497   8.205   9.385 -0.3169 -0.2109 -0.3233
  831MOL0     C12084   3.584   8.292   9.468  0.4736  0.1195 -0.9828
  831MOL0     O12085   3.692   8.341   9.423 -0.1127  0.2683  0.0717
  831MOL0     C12086   3.810   8.269   9.477  0.1564 -0.7722  0.5349
  831MOL0     C12087   3.922   8.367   9.469  0.7003 -0.2257  0.4011
  831MOL0     C12088   3.926   8.466   9.586  0.4565 -0.1784  0.1635
  831MOL0     C12089   4.048   8.557   9.564  0.6266  0.0942 -0.4656
  831MOL0     C12090   4.040   8.672   9.671 -0.4822 -0.5846 -0.1461
  831MOL0     C12091   4.151   8.783   9.649 -0.1457 -0.1695 -0.5788
  831MOL0     C12092   4.113   8.908   9.733  0.2267 -0.3005 -0.4099
  831MOL0     C12093   4.210   9.031   9.724  0.6583 -0.0355  0.1232
  831MOL0    Cl12094   4.174   9.155   9.852 -0.2121 -0.1176 -0.2667
  831MOL0     C12095   3.552   8.316   9.593 -0.4243 -0.1314  0.1513
  831MOL0     C12096   3.447   8.243   9.648 -0.5179 -0.1618  0.2555
  831MOL0     O12097   3.186   7.933   9.501  1.0628 -0.1718  0.2148
  831MOL0     C12098   3.042   8.043   9.810 -1.0211 -0.7749  0.6367
  831MOL0     C12099   2.941   8.012   9.900  0.1144  0.2432  0.2682
  831MOL0     N12100   2.566   7.864  10.487 -0.0783  0.5673  0.7552
  831MOL0     N12101   2.553   7.893  10.609 -1.0772 -0.9391  0.4957
  831MOL0     C12102   3.438   8.144  10.449  0.5850  0.0016  0.9933
  831MOL0     C12103   3.546   8.145  10.371  0.0384  1.2363 -0.1002
  831MOL0     C12104   3.903   8.249  10.122  0.4394  0.5067 -0.7872
  831MOL0     C12105   3.999   8.164  10.184  0.2000 -0.0307 -0.7193
  831MOL0     C12106   4.133   8.171  10.156 -0.1932  0.2609 -0.0903
  831MOL0     C12107   4.172   8.266  10.058 -0.3178  0.1850  0.2544
  831MOL0     O12108   4.303   8.256  10.034 -0.4763 -0.4865  0.4368
  831MOL0     C12109   4.364   8.374   9.993 -0.4228 -0.4786 -0.0860
  831MOL0     C12110   4.497   8.387  10.060  0.1261  0.0600  0.4087
  831MOL0     C12111   4.475   8.432  10.199 -0.4487  0.4666 -0.3073
  831MOL0     C12112   4.606   8.492  10.267  0.3584  0.1463  0.2567
  831MOL0     C12113   4.636   8.624  10.224 -0.3436  0.5296  0.3697
  831MOL0     C12114   4.639   8.733  10.176 -0.3604  0.6665 -0.4568
  831MOL0     C12115   4.079   8.346   9.989  0.6608 -0.0923  0.1516
  831MOL0     C12116   3.945   8.329  10.019  0.1347 -0.5137  0.1543
  831MOL0     C12117   3.861   8.435   9.953  0.2413 -0.9475  0.0935
  831MOL0     H12118   3.670   8.450  10.457  1.2219  0.7579 -1.6050
  831MOL0     H12119   3.458   8.449  10.594  0.5884  0.6903  0.1090
  831MOL0     H12120   3.273   8.395  10.731  0.7919  0.6132 -0.7505
  831MOL0     H12121   3.229   8.447  10.573 -3.1400 -0.5772  0.9471
  831MOL0     H12122   3.015   8.339  10.590 -0.2073  0.3155  0.5324
  831MOL0     H12123   3.039   8.413  10.747 -1.2592 -4.7964  4.1294
  831MOL0     H12124   3.135   8.200  10.837  1.9795 -1.7078 -2.2212
  831MOL0     H12125   3.064   8.116  10.699 -0.1460 -0.5434  1.2284
  831MOL0     H12126   2.907   8.300  10.888  2.2450 -1.2771  2.6706
  831MOL0     H12127   2.844   8.248  10.730  0.7336  1.0361  0.0764
  831MOL0     H12128   2.918   8.074  10.967  2.6916 -0.0762 -2.2257
  831MOL0     H12129   2.752   8.110  10.901 -0.2923  0.3366 -3.2782
  831MOL0     H12130   2.821   7.989  10.694 -1.3005 -0.3854  0.0950
  831MOL0     H12131   2.971   7.939  10.779 -0.5351 -1.3890  0.7401
  831MOL0     H12132   2.807   7.855  10.970 -1.5364  1.0139  0.1837
  831MOL0     H12133   2.849   7.750  10.836 -0.8525 -0.1734 -1.1985
  831MOL0     H12134   2.632   7.707  10.848 -0.8221 -0.8473  0.0763
  831MOL0     H12135   2.583   7.884  10.866  0.0810  0.1405  0.5544
  831MOL0     H12136   2.794   7.674  10.613 -0.7023 -0.6974 -1.8077
  831MOL0     H12137   2.808   7.727  10.310 -0.3795 -1.0312 -0.8992
  831MOL0     H12138   2.716   7.585  10.360  0.1325 -1.1034 -2.7263
  831MOL0     H12139   2.634   7.648  10.130 -1.2549 -0.6397 -0.4400
  831MOL0     H12140   2.517   7.701  10.253  0.2186  0.4239 -0.3200
  831MOL0     H12141   2.573   7.921  10.250  1.4710  0.5921  1.8432
  831MOL0     H12142   2.542   7.858  10.088  0.7034 -1.4989 -0.7529
  831MOL0     H12143   2.839   7.904  10.176 -0.7803  2.5650  0.7865
  831MOL0     H12144   2.751   8.026  10.100 -2.4754 -0.2996  0.7411
  831MOL0     H12145   2.864   7.696   9.816  0.5602 -1.2348 -1.1487
  831MOL0     H12146   3.036   7.747   9.647 -3.1833 -1.2598  0.2151
  831MOL0     H12147   3.343   8.052   9.381 -0.5130 -1.6063  3.1682
  831MOL0     H12148   3.541   8.193   9.286  0.9355  2.8451 -0.2568
  831MOL0     H12149   3.791   8.231   9.578 -1.8339 -2.7463 -0.4909
  831MOL0     H12150   3.823   8.182   9.412  0.1379  1.0724 -2.0954
  831MOL0     H12151   4.007   8.298   9.478 -0.5248 -1.6399  1.6191
  831MOL0     H12152   3.929   8.427   9.378 -1.6070  2.9850  2.1772
  831MOL0     H12153   3.840   8.533   9.587  1.2222  0.9240 -2.1410
  831MOL0     H12154   3.928   8.412   9.682 -1.7918  0.2301  0.4974
  831MOL0     H12155   4.039   8.605   9.466 -2.1543 -0.5087 -0.6061
  831MOL0     H12156   4.134   8.494   9.585  0.0075 -0.1197  1.5586
  831MOL0     H12157   4.054   8.628   9.770  1.1364 -0.6968 -0.4071
  831MOL0     H12158   3.940   8.716   9.670 -0.6288 -0.8836 -2.3336
  831MOL0     H12159   4.249   8.738   9.670  0.2219 -0.3661 -2.5140
  831MOL0     H12160   4.146   8.813   9.544 -1.9925  0.0875 -0.4506
  831MOL0     H12161   4.121   8.888   9.840  0.1559  2.8090  0.2638
  831MOL0     H12162   4.010   8.938   9.712  0.1155 -0.7179 -0.4642
  831MOL0     H12163   4.308   8.982   9.738  1.7081  1.8837 -0.1820
  831MOL0     H12164   4.213   9.074   9.624  0.5191 -0.5716 -0.1131
  831MOL0     H12165   3.612   8.377   9.660  1.4851 -0.6370 -1.0409
  831MOL0     H12166   3.435   8.251   9.756  0.2066 -2.9747  0.6137
  831MOL0     H12167   3.079   8.145   9.810 -0.1969 -1.0610  1.7889
  831MOL0     H12168   2.910   8.096   9.960 -0.8580  0.1357 -0.0610
  831MOL0     H12169   3.378   8.054  10.436  0.0130  0.4315  0.6024
  831MOL0     H12170   3.577   8.046  10.341  0.1129  0.7556  1.4993
  831MOL0     H12171   3.965   8.090  10.257 -2.1611 -0.3572 -2.0404
  831MOL0     H12172   4.200   8.108  10.213 -0.5279  1.9792  2.3835
  831MOL0     H12173   4.302   8.459  10.024 -1.5060 -1.4630  0.5284
  831MOL0     H12174   4.382   8.385   9.885 -0.4863  0.2683 -0.0244
  831MOL0     H12175   4.555   8.462  10.006 -1.8059  0.8960 -0.6269
  831MOL0     H12176   4.551   8.292  10.070  2.6050  1.3713  0.0803
  831MOL0     H12177   4.428   8.345  10.247 -0.7984 -1.6269 -4.0734
  831MOL0     H12178   4.396   8.508  10.201  0.1338  1.0842 -0.4037
  831MOL0     H12179   4.585   8.489  10.374 -1.3507 -0.4405 -0.0661
  831MOL0     H12180   4.692   8.424  10.266 -0.8089 -1.3520 -0.2516
  831MOL0     H12181   4.629   8.833  10.139 -1.5568  0.7136 -0.0118
  831MOL0     H12182   4.104   8.426   9.920  1.9991 -1.7579 -1.3932
  831MOL0     H12183   3.916   8.525   9.926 -0.1178 -0.7102  0.1595
  831MOL0     H12184   3.805   8.391   9.870 -2.5232  1.4312  0.5454
  831MOL0     H12185   3.783   8.473  10.019 -0.6436 -0.3794 -1.2456
  832MOL0     O12186  11.436   4.462   0.240 -0.3704  0.1176  0.2778
  832MOL0     C12187  11.342   4.505   0.304 -0.2382  0.5237 -0.8311
  832MOL0     O12188  11.347   4.534   0.438 -1.0916  0.8093  0.8455
  832MOL0     C12189  11.440   4.477   0.528  0.4241  0.2613 -0.3155
  832MOL0     C12190  11.479   4.344   0.520 -0.3662  0.5327  0.0908
  832MOL0     C12191  11.565   4.288   0.612  0.1791 -0.5348 -0.2771
  832MOL0     C12192  11.610   4.366   0.722 -0.8944 -0.2096 -0.4497
  832MOL0     O12193  11.686   4.312   0.826 -1.0117  0.5664  0.9564
  832MOL0     C12194  11.737   4.180   0.830 -0.7104 -0.0988 -0.3570
  832MOL0     C12195  11.867   4.154   0.911  0.1568  0.2685 -0.5536
  832MOL0     C12196  11.977   4.257   0.879  0.5999 -0.7795  0.9336
  832MOL0     C12197  12.117   4.254   0.947  0.0163  0.0228  0.5386
  832MOL0     C12198  12.179   4.390   0.916  0.3239  0.7973 -0.0868
  832MOL0     C12199  12.324   4.393   0.977  0.0273 -0.3657  1.2230
  832MOL0     C12200  12.411   4.510   0.948 -0.3200 -0.0745  0.6620
  832MOL0     C12201  12.480   4.514   0.807 -1.0900  0.3207 -0.1829
  832MOL0     N12202  12.608   4.580   0.812 -0.8650 -0.1882 -0.2504
  832MOL0     C12203  12.735   4.522   0.780  0.0027 -0.1394 -1.1163
  832MOL0     C12204  12.832   4.614   0.793  0.3385  0.0508  0.5416
  832MOL0     C12205  12.973   4.588   0.753 -0.4572 -0.2070 -0.4160
  832MOL0     C12206  13.077   4.692   0.802  0.8882 -0.3287  0.7317
  832MOL0     C12207  13.217   4.641   0.746  0.1101 -0.5384 -0.5564
  832MOL0     C12208  13.331   4.731   0.796  0.0612  0.4128 -0.2267
  832MOL0     O12209  13.330   4.719   0.942  0.6351 -0.7632  0.4546
  832MOL0     C12210  13.426   4.781   1.016 -0.2162  0.0364  0.4102
  832MOL0     C12211  13.446   4.912   0.997 -0.6226  0.0048  0.2398
  832MOL0     C12212  13.552   4.984   1.053 -0.6676  0.1545 -0.0309
  832MOL0     C12213  13.642   4.919   1.135 -0.1422 -0.5303  0.2771
  832MOL0     C12214  13.760   4.979   1.194  0.3462  0.5438  0.0222
  832MOL0     O12215  13.875   4.904   1.220  0.3368 -0.4043  0.6154
  832MOL0     C12216  13.975   4.953   1.294  0.2960 -0.3088 -0.0120
  832MOL0     C12217  13.958   5.062   1.386 -0.0746  0.6827  0.0496
  832MOL0     C12218  14.077   5.100   1.457 -0.2697  0.6826 -0.1848
  832MOL0     C12219  14.203   5.046   1.428  0.8156  0.1353  0.6423
  832MOL0     O12220  14.314   5.073   1.505 -1.0850 -0.4079  0.1238
  832MOL0     C12221  14.444   5.087   1.429 -0.0465  0.6665 -1.5943
  832MOL0     C12222  14.549   5.138   1.532 -0.2462 -1.2897  0.1444
  832MOL0     C12223  14.691   5.156   1.466  0.5554  0.5218 -0.0988
  832MOL0     C12224  14.791   5.232   1.551  0.5380  0.7064  0.5537
  832MOL0     C12225  14.861   5.155   1.664 -0.0729 -0.1640 -0.7744
  832MOL0     C12226  14.891   5.016   1.637 -0.2488 -0.4138 -0.3809
  832MOL0     C12227  15.014   4.957   1.716  0.0434  0.7746  0.6993
  832MOL0     C12228  14.998   4.952   1.868  0.4583  0.3300 -0.1802
  832MOL0    Cl12229  15.125   4.852   1.950 -0.3453  0.4254 -0.2228
  832MOL0     C12230  14.211   4.945   1.338  0.4222 -0.0602 -1.3133
  832MOL0     C12231  14.097   4.885   1.286 -0.6278  0.7747  0.5803
  832MOL0     O12232  13.745   5.094   1.208  0.4458 -0.7970 -0.5253
  832MOL0     C12233  13.630   4.779   1.153 -0.6508 -0.1396  0.0193
  832MOL0     C12234  13.520   4.709   1.100  0.4880  0.0234  0.6520
  832MOL0     N12235  12.766   4.729   0.831 -0.4211 -0.4610  0.2018
  832MOL0     N12236  12.640   4.712   0.845 -0.6103 -0.0574  0.3028
  832MOL0     C12237  11.580   4.505   0.727  0.2253 -0.1858 -0.1109
  832MOL0     C12238  11.489   4.556   0.632  0.1057 -0.2685 -1.2484
  832MOL0     C12239  11.217   4.545   0.225  0.5460 -1.3312 -0.0010
  832MOL0     C12240  11.200   4.675   0.174 -0.3719 -0.6705  0.6000
  832MOL0     C12241  11.090   4.722   0.105  0.5015  0.1915  0.2890
  832MOL0     C12242  10.982   4.639   0.083  0.2423 -0.0462  0.4713
  832MOL0     O12243  10.874   4.690   0.012  0.2275  0.0260 -0.1527
  832MOL0     C12244  10.786   4.790   0.068  0.2507 -0.8402 -0.0388
  832MOL0     C12245  10.671   4.724   0.136 -0.9725 -0.2813  0.1597
  832MOL0     C12246  10.581   4.631   0.048  0.5420  0.1064 -0.2703
  832MOL0     C12247  10.644   4.484   0.032 -0.0023 -0.0298  0.0979
  832MOL0     C12248  10.607   4.414   0.158 -0.2196 -0.6203  0.2057
  832MOL0     C12249  10.555   4.365   0.249 -1.2940  0.9711 -0.5881
  832MOL0     C12250  10.988   4.509   0.141 -0.3204  0.3267  0.2587
  832MOL0     C12251  11.109   4.468   0.210  1.0694 -0.1340  0.0028
  832MOL0     C12252  11.103   4.346   0.300 -1.2324 -0.3193  0.3288
  832MOL0     H12253  11.449   4.276   0.441  2.1902 -0.2792 -0.2516
  832MOL0     H12254  11.582   4.182   0.591  0.3085 -0.1312 -2.4837
  832MOL0     H12255  11.659   4.112   0.865 -0.1686 -1.2164 -1.2602
  832MOL0     H12256  11.757   4.148   0.727 -0.8338 -0.5397 -0.2460
  832MOL0     H12257  11.903   4.054   0.886  4.3351  0.9766  1.7432
  832MOL0     H12258  11.851   4.161   1.019  2.3288  1.7816 -0.2531
  832MOL0     H12259  11.933   4.357   0.891 -1.3154 -1.3208 -0.9640
  832MOL0     H12260  12.007   4.261   0.774  2.2182 -1.1196  1.3544
  832MOL0     H12261  12.100   4.245   1.055 -0.3252  0.1082  0.4929
  832MOL0     H12262  12.168   4.163   0.915 -0.8081 -0.3449  0.2348
  832MOL0     H12263  12.173   4.409   0.809 -0.6697 -1.6723 -0.5443
  832MOL0     H12264  12.117   4.465   0.964  0.9396  0.0578  1.9712
  832MOL0     H12265  12.324   4.383   1.086 -1.3544 -2.3378  1.1137
  832MOL0     H12266  12.379   4.306   0.940 -0.2144  0.3198 -0.9347
  832MOL0     H12267  12.492   4.525   1.020 -0.6296  0.7315  0.8539
  832MOL0     H12268  12.347   4.598   0.964  1.5590  1.5063 -0.1670
  832MOL0     H12269  12.485   4.413   0.766  0.3960  0.2941 -0.0045
  832MOL0     H12270  12.422   4.574   0.736 -0.1170  0.2895 -1.0305
  832MOL0     H12271  12.747   4.420   0.744 -0.1248  0.4078 -2.8326
  832MOL0     H12272  12.992   4.491   0.798  0.8942  1.1112  2.0968
  832MOL0     H12273  12.977   4.580   0.644  0.8122  0.4404 -0.4382
  832MOL0     H12274  13.055   4.795   0.770  1.2619 -0.8818 -1.4004
  832MOL0     H12275  13.072   4.704   0.911  1.2240 -0.0756  0.7196
  832MOL0     H12276  13.210   4.645   0.636 -0.4962  0.4642 -0.4935
  832MOL0     H12277  13.238   4.535   0.760  2.6948 -0.3038 -2.0770
  832MOL0     H12278  13.324   4.837   0.766 -0.8963  0.7794  1.1951
  832MOL0     H12279  13.418   4.692   0.743 -1.5776 -0.8748 -2.0963
  832MOL0     H12280  13.387   4.956   0.918  1.4324 -0.0174 -1.4002
  832MOL0     H12281  13.556   5.091   1.036 -1.2728  0.3366  0.8872
  832MOL0     H12282  13.864   5.113   1.405 -0.1708  1.1928 -1.6383
  832MOL0     H12283  14.077   5.184   1.525  1.4399 -1.2130  2.3468
  832MOL0     H12284  14.481   4.991   1.393 -1.7565 -0.7447  0.1469
  832MOL0     H12285  14.437   5.149   1.339 -2.9657  0.3879 -1.6530
  832MOL0     H12286  14.520   5.236   1.571  0.7583 -0.2319 -1.6477
  832MOL0     H12287  14.557   5.072   1.619  2.3569  2.3554  3.0214
  832MOL0     H12288  14.732   5.059   1.435 -1.5218  0.2157 -2.2298
  832MOL0     H12289  14.677   5.218   1.376  0.3282  3.5178  1.8572
  832MOL0     H12290  14.745   5.323   1.591  1.4871  0.5042  2.2236
  832MOL0     H12291  14.866   5.281   1.488  0.8778  2.7574  2.3939
  832MOL0     H12292  14.800   5.143   1.754 -0.9859  1.0091 -1.2137
  832MOL0     H12293  14.950   5.209   1.695 -0.7072  2.3681 -2.9552
  832MOL0     H12294  14.809   4.949   1.664 -0.3275 -0.1794 -0.0487
  832MOL0     H12295  14.914   5.002   1.530 -0.4851 -0.1410 -0.4666
  832MOL0     H12296  15.099   5.023   1.699 -1.2426  2.1081 -0.8316
  832MOL0     H12297  15.027   4.857   1.673  1.4910  0.4550  1.7866
  832MOL0     H12298  15.005   5.046   1.924 -0.1805 -1.9508  4.2152
  832MOL0     H12299  14.900   4.914   1.899 -1.9106  1.9023 -4.8296
  832MOL0     H12300  14.304   4.891   1.325  0.4244 -0.1358 -0.9728
  832MOL0     H12301  14.102   4.789   1.236  0.0363  0.2983  1.5259
  832MOL0     H12302  13.702   4.724   1.214  0.8669  0.4925 -1.1454
  832MOL0     H12303  13.509   4.603   1.122 -0.2166  0.0185  0.3082
  832MOL0     H12304  11.621   4.568   0.805  1.5425  1.1443 -1.8161
  832MOL0     H12305  11.447   4.656   0.637  1.4841  0.2683  0.8856
  832MOL0     H12306  11.295   4.727   0.180  1.1734 -3.1021 -0.9843
  832MOL0     H12307  11.098   4.821   0.061  0.9835  0.5145  1.1023
  832MOL0     H12308  10.746   4.855  -0.010  1.5330 -0.7027 -0.6157
  832MOL0     H12309  10.835   4.861   0.135 -1.4774  1.7630 -1.3342
  832MOL0     H12310  10.611   4.805   0.178 -0.3007  0.6036 -0.5282
  832MOL0     H12311  10.716   4.680   0.226  1.7720  4.4314  1.4512
  832MOL0     H12312  10.563   4.680  -0.048 -0.0763  0.8486  0.2160
  832MOL0     H12313  10.488   4.653   0.101 -0.3517 -2.7923 -0.4251
  832MOL0     H12314  10.584   4.428  -0.039 -0.7505 -0.9305  1.3941
  832MOL0     H12315  10.750   4.492   0.006  0.8837  1.7824  3.6075
  832MOL0     H12316  10.496   4.328   0.330  0.7782 -0.1784  0.5090
  832MOL0     H12317  10.899   4.448   0.134  1.8213 -3.2710  1.4460
  832MOL0     H12318  11.036   4.373   0.381  2.2649  1.8435  2.7507
  832MOL0     H12319  11.045   4.267   0.249  0.1922 -0.5069 -1.0915
  832MOL0     H12320  11.199   4.307   0.334  0.4175  2.0170 -1.3412
  833MOL0     O12321   4.354  11.272   6.457 -0.0445 -0.0011  0.0194
  833MOL0     C12322   4.340  11.356   6.375  0.3243 -0.3351  1.0332
  833MOL0     O12323   4.350  11.493   6.398 -0.1776 -0.3437 -0.2157
  833MOL0     C12324   4.383  11.529   6.525  0.2688 -0.2361 -0.4288
  833MOL0     C12325   4.293  11.523   6.627 -0.0558  1.1573  0.6081
  833MOL0     C12326   4.310  11.584   6.754  0.2658 -0.7056  0.1429
  833MOL0     C12327   4.433  11.634   6.791 -0.2790 -0.6716  0.0091
  833MOL0     O12328   4.468  11.652   6.924 -0.2677 -0.5561 -0.1323
  833MOL0     C12329   4.546  11.766   6.959  0.9079  1.5618 -0.6787
  833MOL0     C12330   4.487  11.904   6.944  0.1552 -0.7210 -0.3053
  833MOL0     C12331   4.597  12.016   6.936 -0.2880  0.2422 -1.0157
  833MOL0     C12332   4.655  12.071   7.069  0.0423  0.2320  0.6863
  833MOL0     C12333   4.558  12.167   7.127 -0.5159  0.0051 -0.2149
  833MOL0     C12334   4.587  12.161   7.270 -0.3825 -0.6087 -0.8575
  833MOL0     C12335   4.506  12.255   7.365  0.6775 -1.0181 -0.3276
  833MOL0     C12336   4.538  12.408   7.318 -0.0750 -0.0843 -0.6635
  833MOL0     N12337   4.458  12.491   7.400 -0.3669 -0.0541  1.0482
  833MOL0     C12338   4.348  12.557   7.350 -0.9366  0.3099  0.0120
  833MOL0     C12339   4.276  12.585   7.456 -0.6409 -0.0102  0.1055
  833MOL0     C12340   4.145  12.655   7.459 -0.1417 -0.0168 -0.3067
  833MOL0     C12341   4.145  12.809   7.435 -0.0768 -0.1194 -0.1068
  833MOL0     C12342   4.205  12.893   7.547 -0.3072 -0.3722 -0.2098
  833MOL0     C12343   4.098  12.940   7.650 -0.2455  0.1266 -0.3117
  833MOL0     O12344   4.162  13.013   7.763  0.3991  0.9899 -0.5093
  833MOL0     C12345   4.070  13.059   7.852 -0.0641  0.0351 -0.0004
  833MOL0     C12346   4.101  13.182   7.908  0.0514  0.3958 -0.3178
  833MOL0     C12347   4.022  13.240   8.009  0.2567 -0.3664 -0.5103
  833MOL0     C12348   3.910  13.175   8.055  0.0617 -0.1323 -0.3420
  833MOL0     C12349   3.812  13.243   8.141 -0.4271 -0.3990  0.2396
  833MOL0     O12350   3.853  13.357   8.207 -0.0676 -0.3160  0.2676
  833MOL0     C12351   3.777  13.395   8.310  0.2737 -0.3212 -0.1630
  833MOL0     C12352   3.682  13.497   8.293 -0.6272 -0.9060  0.0564
  833MOL0     C12353   3.615  13.560   8.402  0.7785  0.1825  0.0786
  833MOL0     C12354   3.650  13.518   8.533 -0.9830 -1.1608  0.1965
  833MOL0     O12355   3.591  13.583   8.640 -0.0320 -0.0359 -0.8219
  833MOL0     C12356   3.485  13.681   8.626  0.3444  0.5652  0.9773
  833MOL0     C12357   3.422  13.704   8.762 -0.3818  0.4759 -1.2973
  833MOL0     C12358   3.304  13.607   8.816  0.2830 -0.6178 -0.1016
  833MOL0     C12359   3.261  13.655   8.960 -0.3039 -0.7335 -0.9205
  833MOL0     C12360   3.141  13.576   9.012 -0.6008 -0.4856  0.6229
  833MOL0     C12361   3.171  13.427   9.030 -0.5997  0.6230 -0.2102
  833MOL0     C12362   3.058  13.329   9.082 -0.7467  0.4847  0.8441
  833MOL0     C12363   2.929  13.330   8.994 -1.1465 -0.0653  0.2438
  833MOL0    Cl12364   2.978  13.322   8.812  0.1200  0.4621  0.0412
  833MOL0     C12365   3.757  13.421   8.554  0.7963 -0.2883 -0.0775
  833MOL0     C12366   3.818  13.366   8.441  0.8968  0.5257 -1.1998
  833MOL0     O12367   3.690  13.200   8.136  0.0341 -0.7476 -0.4519
  833MOL0     C12368   3.875  13.051   7.994 -0.1150  0.7278 -0.0755
  833MOL0     C12369   3.957  12.994   7.898  0.9616 -0.4700  0.0996
  833MOL0     N12370   4.337  12.543   7.567 -0.1515 -0.4738 -0.0724
  833MOL0     N12371   4.447  12.490   7.538 -0.4720  0.0855 -0.1866
  833MOL0     C12372   4.526  11.638   6.691 -0.1243 -1.1373 -0.2507
  833MOL0     C12373   4.498  11.596   6.564 -0.1629  0.1639 -0.3026
  833MOL0     C12374   4.273  11.304   6.252 -0.1540 -0.4537  0.3192
  833MOL0     C12375   4.175  11.209   6.265 -0.2254 -0.6668  0.2300
  833MOL0     C12376   4.110  11.153   6.161 -0.4909  0.6102 -0.8166
  833MOL0     C12377   4.135  11.205   6.031 -0.6784  0.8814 -0.4045
  833MOL0     O12378   4.055  11.168   5.925 -0.1885  0.6607 -0.0432
  833MOL0     C12379   4.018  11.030   5.930  0.6463  0.2772  0.1572
  833MOL0     C12380   3.870  11.021   5.978  0.0384  0.2481 -0.3518
  833MOL0     C12381   3.836  10.868   5.992  0.7362  0.2431 -0.2686
  833MOL0     C12382   3.905  10.810   6.118 -0.2807  1.1032  0.2512
  833MOL0     C12383   3.834  10.826   6.246  1.0553  0.6027 -0.6495
  833MOL0     C12384   3.797  10.845   6.365  0.6231  0.3392  0.5789
  833MOL0     C12385   4.218  11.315   6.013 -0.2666 -0.5010 -0.4046
  833MOL0     C12386   4.296  11.365   6.117 -0.4547  0.4706 -0.1021
  833MOL0     C12387   4.410  11.461   6.090 -0.0657  0.5431 -0.3109
  833MOL0     H12388   4.204  11.473   6.590  2.3035 -2.1949 -1.0653
  833MOL0     H12389   4.239  11.582   6.835 -0.9414 -0.6863 -0.8879
  833MOL0     H12390   4.561  11.760   7.068  0.9789 -0.8117 -0.7726
  833MOL0     H12391   4.643  11.760   6.910  1.5933  1.4467  0.6482
  833MOL0     H12392   4.411  11.929   7.019  2.0095 -1.5561  1.9821
  833MOL0     H12393   4.433  11.906   6.849 -1.4910  2.7442  0.5541
  833MOL0     H12394   4.550  12.100   6.884 -0.6482  0.6873  0.0013
  833MOL0     H12395   4.684  11.983   6.879  0.2579 -1.5565  0.7254
  833MOL0     H12396   4.673  11.983   7.131 -0.0747 -0.2605  0.0356
  833MOL0     H12397   4.751  12.121   7.052 -0.7656  2.2799  1.8607
  833MOL0     H12398   4.575  12.268   7.089  0.0847  0.2559  0.6830
  833MOL0     H12399   4.454  12.139   7.110  0.2668 -4.4336  1.0647
  833MOL0     H12400   4.561  12.057   7.293 -0.6768 -1.5319 -4.8037
  833MOL0     H12401   4.693  12.174   7.294 -0.5105 -1.2245  0.1237
  833MOL0     H12402   4.505  12.243   7.473 -1.2020 -0.0211 -0.1871
  833MOL0     H12403   4.398  12.235   7.357 -0.2364  2.1705  1.8773
  833MOL0     H12404   4.637  12.425   7.361  0.0603 -4.1423  1.1850
  833MOL0     H12405   4.537  12.438   7.213  0.4156  0.7188 -0.4469
  833MOL0     H12406   4.321  12.578   7.247  1.3006 -3.4575 -1.5450
  833MOL0     H12407   4.076  12.598   7.396 -0.4518 -1.2333  1.0784
  833MOL0     H12408   4.094  12.636   7.554 -3.7796 -2.1578 -2.4518
  833MOL0     H12409   4.182  12.832   7.334  1.1765 -2.0742 -0.1443
  833MOL0     H12410   4.040  12.839   7.434  0.0026  0.3527  2.2275
  833MOL0     H12411   4.261  12.981   7.512 -0.5700  0.0697  0.4820
  833MOL0     H12412   4.275  12.834   7.606  0.4150  1.1818  0.5412
  833MOL0     H12413   4.055  12.849   7.694  1.1114 -1.2577 -1.6774
  833MOL0     H12414   4.027  13.004   7.597 -3.8963 -1.1633  2.5814
  833MOL0     H12415   4.201  13.218   7.887 -0.0092  0.2655 -0.8625
  833MOL0     H12416   4.049  13.343   8.032 -0.9611 -0.6686  2.8037
  833MOL0     H12417   3.665  13.552   8.201  2.0855  1.8036  0.9821
  833MOL0     H12418   3.541  13.631   8.367 -0.0898 -1.9292 -2.8196
  833MOL0     H12419   3.520  13.778   8.590 -3.2204  1.9047  0.7175
  833MOL0     H12420   3.404  13.664   8.555  1.0847  1.9787 -0.2579
  833MOL0     H12421   3.506  13.692   8.831 -0.4945 -0.3582 -1.2901
  833MOL0     H12422   3.385  13.806   8.777 -2.0357  0.0980 -2.4479
  833MOL0     H12423   3.214  13.601   8.754  0.0591 -1.5643  0.2958
  833MOL0     H12424   3.340  13.504   8.811 -0.8420 -1.1329  1.5167
  833MOL0     H12425   3.237  13.762   8.960  4.0218  0.4512  1.2429
  833MOL0     H12426   3.342  13.650   9.034 -2.4117 -1.7221  1.5075
  833MOL0     H12427   3.055  13.580   8.944 -1.3218 -1.9390  1.3947
  833MOL0     H12428   3.123  13.621   9.111  0.1598 -2.6394  1.7920
  833MOL0     H12429   3.197  13.385   8.932 -3.2042  0.4134 -0.8803
  833MOL0     H12430   3.270  13.428   9.078  1.2319  3.0850 -3.5678
  833MOL0     H12431   3.025  13.360   9.181  0.9000  0.2724  1.4874
  833MOL0     H12432   3.109  13.233   9.093  3.0336  2.3574  1.6267
  833MOL0     H12433   2.852  13.256   9.018 -3.8052  1.8258 -1.9306
  833MOL0     H12434   2.875  13.424   9.000  0.2019  1.1526 -3.5870
  833MOL0     H12435   3.782  13.397   8.656 -1.6461 -1.4744  0.3188
  833MOL0     H12436   3.895  13.290   8.453  1.8344  1.7200  0.9047
  833MOL0     H12437   3.796  12.987   8.031 -2.7991  1.2668 -4.2497
  833MOL0     H12438   3.928  12.904   7.846  1.8133 -0.9894  0.5102
  833MOL0     H12439   4.625  11.681   6.707 -1.6793  1.7957  2.4737
  833MOL0     H12440   4.554  11.635   6.480 -2.6859 -0.3836 -2.3734
  833MOL0     H12441   4.159  11.179   6.368 -1.5879  2.0562  0.9154
  833MOL0     H12442   4.043  11.073   6.191 -2.5488  2.5128 -0.0391
  833MOL0     H12443   4.082  10.969   5.995  2.0572 -2.8010 -3.7053
  833MOL0     H12444   4.030  10.988   5.830 -0.3459 -2.5116  1.1036
  833MOL0     H12445   3.812  11.071   5.900  1.9122  0.9233 -1.3758
  833MOL0     H12446   3.851  11.088   6.063  1.0740  0.2539 -0.1111
  833MOL0     H12447   3.866  10.814   5.902 -0.0126  2.0338 -1.6601
  833MOL0     H12448   3.728  10.878   6.005  0.6200  3.3506 -2.4378
  833MOL0     H12449   3.919  10.702   6.103  1.1680  1.3708 -0.4930
  833MOL0     H12450   4.006  10.848   6.136  0.8231 -1.7761  0.6649
  833MOL0     H12451   3.763  10.864   6.465  1.6238  1.9115  0.6524
  833MOL0     H12452   4.213  11.374   5.921 -3.8810  0.3885  0.1900
  833MOL0     H12453   4.356  11.556   6.102  1.7568  1.8422 -1.9116
  833MOL0     H12454   4.487  11.434   6.162  0.0821 -0.7440 -0.9245
  833MOL0     H12455   4.456  11.446   5.992  1.7256 -0.4227  0.6318
  834MOL0     O12456   9.648   1.891   6.834  0.1226 -0.0716 -0.1061
  834MOL0     C12457   9.762   1.864   6.788  0.2930 -0.1582 -0.2386
  834MOL0     O12458   9.821   1.737   6.794 -0.1989  0.0099 -0.8344
  834MOL0     C12459   9.747   1.631   6.820  1.1112  0.4645 -0.1044
  834MOL0     C12460   9.716   1.543   6.712  0.1995  0.2010  0.8875
  834MOL0     C12461   9.637   1.426   6.737 -0.5621  0.3229  0.3561
  834MOL0     C12462   9.606   1.387   6.868  0.0318 -0.7392 -0.3626
  834MOL0     O12463   9.529   1.281   6.899 -0.3269  0.1594 -0.3784
  834MOL0     C12464   9.524   1.172   6.811 -0.8362 -0.8412 -0.7905
  834MOL0     C12465   9.459   1.053   6.879  0.1818 -0.0399  0.9145
  834MOL0     C12466   9.549   0.975   6.971 -0.1064  0.4436  0.0095
  834MOL0     C12467   9.486   0.835   7.003 -0.4297  1.2152  0.2165
  834MOL0     C12468   9.383   0.849   7.120  0.6382  0.6361 -0.8279
  834MOL0     C12469   9.236   0.844   7.081  0.7819 -0.3264  1.1879
  834MOL0     C12470   9.126   0.858   7.196 -0.3701 -0.3451 -0.2448
  834MOL0     C12471   9.151   0.978   7.293 -0.0289  0.5460 -0.0618
  834MOL0     N12472   9.124   1.115   7.240 -0.7139  1.0289  0.2697
  834MOL0     C12473   9.199   1.197   7.162 -0.9666 -0.0222  0.1573
  834MOL0     C12474   9.133   1.309   7.154  0.3341  0.0013  0.3283
  834MOL0     C12475   9.168   1.437   7.077 -0.2591 -0.0351 -0.3574
  834MOL0     C12476   9.266   1.510   7.159 -0.3598 -0.0624 -1.2350
  834MOL0     C12477   9.259   1.660   7.139 -0.6143  0.0237 -0.2728
  834MOL0     C12478   9.362   1.732   7.226 -0.5770 -0.2545  0.0154
  834MOL0     O12479   9.497   1.690   7.184 -0.6129 -0.2772  0.6249
  834MOL0     C12480   9.592   1.779   7.229  0.3825 -0.4200 -0.2456
  834MOL0     C12481   9.620   1.894   7.165 -0.8992  0.0892  0.1480
  834MOL0     C12482   9.716   1.985   7.216  0.2977 -0.4184  0.5420
  834MOL0     C12483   9.783   1.963   7.332  0.2207 -0.2761  0.0984
  834MOL0     C12484   9.863   2.070   7.394  0.5788  0.1187 -0.1039
  834MOL0     O12485   9.900   2.172   7.308  0.0126 -0.4426  1.1190
  834MOL0     C12486   9.973   2.269   7.358 -0.4775 -0.0506 -0.8219
  834MOL0     C12487   9.927   2.357   7.452 -0.7627 -0.0677 -0.1471
  834MOL0     C12488  10.005   2.468   7.499  0.1718 -0.0279 -0.0556
  834MOL0     C12489  10.143   2.468   7.457 -0.4146 -0.4693  0.6905
  834MOL0     O12490  10.236   2.563   7.484  0.2393  0.2244 -0.1624
  834MOL0     C12491  10.198   2.656   7.592 -0.0782  0.0389  0.5373
  834MOL0     C12492  10.325   2.731   7.642  0.1841 -0.0984  0.3658
  834MOL0     C12493  10.385   2.832   7.541 -0.1064 -0.5305 -1.1606
  834MOL0     C12494  10.504   2.893   7.619  0.1527  0.3461  0.3929
  834MOL0     C12495  10.549   3.023   7.547 -0.5553  0.2125 -0.4787
  834MOL0     C12496  10.680   3.082   7.613 -0.7054  0.7984  0.3213
  834MOL0     C12497  10.740   3.192   7.529 -0.4173 -0.5641  0.5593
  834MOL0     C12498  10.672   3.332   7.567 -0.2264  0.6325 -0.4511
  834MOL0    Cl12499  10.743   3.376   7.729  0.3286 -0.0899 -0.0310
  834MOL0     C12500  10.191   2.381   7.363  0.6193 -0.6282  0.8748
  834MOL0     C12501  10.105   2.291   7.310 -0.5574  0.7364 -0.5166
  834MOL0     O12502   9.885   2.061   7.514 -0.5539 -0.3392 -0.1698
  834MOL0     C12503   9.756   1.841   7.399 -1.2864  0.8086  0.8723
  834MOL0     C12504   9.663   1.748   7.351 -0.6819 -0.1714 -0.0918
  834MOL0     N12505   9.019   1.300   7.230  0.0876 -0.6862 -0.3447
  834MOL0     N12506   9.018   1.181   7.280 -0.5268  0.1968  0.4497
  834MOL0     C12507   9.633   1.477   6.970  0.7103 -0.7053  0.2317
  834MOL0     C12508   9.701   1.598   6.951 -1.0621  0.2141  0.1350
  834MOL0     C12509   9.840   1.975   6.722 -0.9574  0.1206 -0.9381
  834MOL0     C12510   9.953   1.938   6.646 -0.8908  0.1093 -0.9618
  834MOL0     C12511  10.042   2.033   6.606  0.3756  0.0662 -0.8490
  834MOL0     C12512  10.033   2.162   6.638  0.1914 -0.6345  0.0347
  834MOL0     O12513  10.135   2.247   6.592  0.0847  0.9415 -0.5536
  834MOL0     C12514  10.123   2.385   6.586  0.3684  0.8753  0.7959
  834MOL0     C12515  10.203   2.449   6.698  0.3124 -0.2828 -0.0471
  834MOL0     C12516  10.343   2.462   6.643  0.1755  0.1880  0.6738
  834MOL0     C12517  10.428   2.539   6.742 -0.0477 -0.0161 -1.5132
  834MOL0     C12518  10.428   2.677   6.710  0.2144 -1.4565  0.3512
  834MOL0     C12519  10.436   2.800   6.684  0.6925  1.2895 -0.8923
  834MOL0     C12520   9.915   2.203   6.708  0.0283  0.1211 -0.5752
  834MOL0     C12521   9.817   2.113   6.750 -0.0220 -0.4125  1.0150
  834MOL0     C12522   9.684   2.179   6.796  0.1328  0.6708  0.3703
  834MOL0     H12523   9.747   1.565   6.611 -0.2284 -3.9509 -0.3574
  834MOL0     H12524   9.616   1.354   6.659  1.1213 -1.3133  1.3444
  834MOL0     H12525   9.460   1.202   6.728 -0.6703  1.9848  0.0069
  834MOL0     H12526   9.629   1.155   6.784 -1.0976 -1.0261 -1.7042
  834MOL0     H12527   9.434   0.985   6.797  3.2174 -2.4172  1.7833
  834MOL0     H12528   9.368   1.085   6.931 -1.0176 -1.0372 -0.5082
  834MOL0     H12529   9.571   1.018   7.069 -0.2008 -3.8366  2.1565
  834MOL0     H12530   9.643   0.952   6.919 -1.1319  4.2904 -4.1365
  834MOL0     H12531   9.433   0.799   6.915  0.4066  0.1520  0.1342
  834MOL0     H12532   9.557   0.753   7.007  0.1004  1.1819 -4.3694
  834MOL0     H12533   9.412   0.773   7.194  1.9693  3.1140  1.3681
  834MOL0     H12534   9.402   0.940   7.178 -2.4928  0.6597  0.3552
  834MOL0     H12535   9.208   0.926   7.014  2.0820 -0.8586 -0.0587
  834MOL0     H12536   9.212   0.754   7.025 -2.7221  2.0987 -1.6611
  834MOL0     H12537   9.123   0.767   7.258 -0.4931 -0.6179 -0.6463
  834MOL0     H12538   9.029   0.872   7.148 -0.0550 -1.2688 -1.1858
  834MOL0     H12539   9.087   0.977   7.381  1.1795  1.0402  0.8528
  834MOL0     H12540   9.255   0.964   7.326  0.4730 -0.1278 -1.8256
  834MOL0     H12541   9.302   1.189   7.129 -1.0506  0.9327 -0.3837
  834MOL0     H12542   9.209   1.410   6.979 -1.1311 -1.9236 -0.2528
  834MOL0     H12543   9.076   1.495   7.068 -1.7607 -1.9333  1.6305
  834MOL0     H12544   9.250   1.481   7.263  1.4922  2.0119 -0.2754
  834MOL0     H12545   9.365   1.468   7.139 -0.0245 -0.3314  0.7857
  834MOL0     H12546   9.159   1.704   7.147  0.5527  2.7760  0.5372
  834MOL0     H12547   9.289   1.680   7.036  0.1687 -3.5982 -0.8817
  834MOL0     H12548   9.342   1.715   7.332 -2.3487 -1.0165 -0.4197
  834MOL0     H12549   9.349   1.841   7.225  0.1116 -0.1665  0.0378
  834MOL0     H12550   9.565   1.922   7.075 -1.1950 -0.8644  0.0221
  834MOL0     H12551   9.721   2.088   7.180  0.0480 -0.5983 -0.0293
  834MOL0     H12552   9.821   2.358   7.477 -0.3698  0.3778  1.6508
  834MOL0     H12553   9.947   2.537   7.560 -0.9542 -1.0632  0.1003
  834MOL0     H12554  10.121   2.730   7.571 -0.2579 -0.3784 -0.3203
  834MOL0     H12555  10.156   2.594   7.672 -0.4994 -1.7983 -1.0306
  834MOL0     H12556  10.296   2.777   7.738  1.3120  0.9804  0.2210
  834MOL0     H12557  10.400   2.658   7.674  1.0553  0.5961 -0.0557
  834MOL0     H12558  10.411   2.781   7.448  0.8752 -0.0303 -1.1782
  834MOL0     H12559  10.318   2.914   7.510  0.1501  0.6376  1.1767
  834MOL0     H12560  10.584   2.819   7.626 -1.0940 -1.2022 -0.9019
  834MOL0     H12561  10.470   2.917   7.720  2.2542 -2.6040  1.9700
  834MOL0     H12562  10.468   3.095   7.531 -1.6429 -0.6583  0.8234
  834MOL0     H12563  10.578   2.995   7.445 -1.6845 -1.9056 -0.2808
  834MOL0     H12564  10.662   3.118   7.715 -1.0377  0.8499  0.2453
  834MOL0     H12565  10.752   2.999   7.614  1.6480  2.6656 -1.9441
  834MOL0     H12566  10.722   3.170   7.423 -1.5151  1.0940  0.3599
  834MOL0     H12567  10.848   3.206   7.542 -0.6448  1.8880  0.2365
  834MOL0     H12568  10.695   3.415   7.500 -2.0720  0.1497 -1.7844
  834MOL0     H12569  10.565   3.309   7.569  0.1803 -1.5638 -0.9137
  834MOL0     H12570  10.290   2.377   7.320  1.4684  0.8517  2.5195
  834MOL0     H12571  10.143   2.237   7.224 -0.3367  0.2132 -0.0991
  834MOL0     H12572   9.808   1.825   7.493  1.3342 -1.6864 -0.8409
  834MOL0     H12573   9.660   1.658   7.412  0.4104  0.5070  1.0060
  834MOL0     H12574   9.603   1.447   7.070  1.6033 -0.6330  0.5354
  834MOL0     H12575   9.733   1.661   7.032  1.9066  0.8083 -1.3746
  834MOL0     H12576   9.980   1.833   6.636  1.4743  0.5933 -0.3026
  834MOL0     H12577  10.131   2.003   6.553  0.2409 -3.1266  0.5335
  834MOL0     H12578  10.024   2.426   6.610 -0.1999 -0.0712  0.1599
  834MOL0     H12579  10.149   2.432   6.491 -0.1082 -0.5040 -0.0589
  834MOL0     H12580  10.212   2.397   6.794 -0.3571  1.7073  1.1553
  834MOL0     H12581  10.164   2.548   6.723 -0.0380  0.0230 -1.7249
  834MOL0     H12582  10.348   2.516   6.549  1.4672  0.9261  1.1458
  834MOL0     H12583  10.393   2.365   6.634  0.8000  0.7188 -3.2729
  834MOL0     H12584  10.403   2.520   6.846  4.1484 -1.5479 -0.5919
  834MOL0     H12585  10.533   2.513   6.723 -0.1315 -1.6580  0.0449
  834MOL0     H12586  10.424   2.903   6.657 -3.2285  0.7628 -1.7465
  834MOL0     H12587   9.894   2.308   6.723 -0.3207  0.2201 -1.6691
  834MOL0     H12588   9.668   2.163   6.903 -0.3542  0.7967  0.3214
  834MOL0     H12589   9.684   2.288   6.789  0.8574  0.6385 -0.2893
  834MOL0     H12590   9.593   2.144   6.746 -1.3234  2.4246  1.6514
  835MOL0     O12591  10.470   7.252   1.849  0.0685  0.0609  0.0374
  835MOL0     C12592  10.505   7.224   1.738 -0.1153  0.3533 -0.0597
  835MOL0     O12593  10.527   7.311   1.637  0.9443  0.4766  0.1540
  835MOL0     C12594  10.539   7.437   1.667  0.0907  1.1091  0.1142
  835MOL0     C12595  10.641   7.488   1.751 -0.8181 -0.5542 -0.5111
  835MOL0     C12596  10.647   7.623   1.778 -0.2085  0.4643  0.5513
  835MOL0     C12597  10.544   7.715   1.732  0.1159  0.8591 -0.8614
  835MOL0     O12598  10.551   7.850   1.731  0.4892  0.0367 -0.3435
  835MOL0     C12599  10.674   7.894   1.670 -0.5095  0.1993 -1.1067
  835MOL0     C12600  10.760   7.961   1.769  0.0652 -0.5348 -1.1051
  835MOL0     C12601  10.893   7.994   1.708 -0.1470  0.9955 -0.1936
  835MOL0     C12602  10.985   8.045   1.822 -0.0935 -0.8502  0.5817
  835MOL0     C12603  11.120   8.065   1.765 -0.1024 -0.4916 -0.2792
  835MOL0     C12604  11.197   8.167   1.848  0.2473 -0.2066 -0.3601
  835MOL0     C12605  11.326   8.196   1.762 -0.1371 -0.3426  0.0934
  835MOL0     C12606  11.414   8.278   1.860 -0.4196 -0.5533  0.0633
  835MOL0     N12607  11.350   8.396   1.919  0.5924  0.5928 -0.2021
  835MOL0     C12608  11.257   8.489   1.864 -0.0486  0.3710  0.2802
  835MOL0     C12609  11.225   8.579   1.964 -0.0790 -0.0808 -0.4393
  835MOL0     C12610  11.134   8.702   1.955 -0.1324 -0.2070  0.9315
  835MOL0     C12611  11.004   8.655   1.884 -0.0940 -0.1750 -0.8976
  835MOL0     C12612  10.914   8.774   1.875 -0.4754  0.9048 -0.0865
  835MOL0     C12613  10.771   8.718   1.833 -0.8186  0.0545  0.3739
  835MOL0     O12614  10.692   8.832   1.789  0.0827  0.1136 -0.1429
  835MOL0     C12615  10.554   8.814   1.787 -0.7489 -0.2080 -0.6861
  835MOL0     C12616  10.478   8.931   1.790 -0.7948 -0.2232  0.5086
  835MOL0     C12617  10.344   8.931   1.804  0.3311  0.4396 -0.0907
  835MOL0     C12618  10.267   8.817   1.813 -0.6492 -0.8255  0.2183
  835MOL0     C12619  10.122   8.812   1.832  0.3494 -0.1817 -0.4326
  835MOL0     O12620  10.066   8.700   1.900 -0.4966 -0.0985  0.1564
  835MOL0     C12621   9.928   8.709   1.917 -0.2932 -0.2483 -0.1567
  835MOL0     C12622   9.874   8.819   1.984 -0.1383 -0.8065 -0.6463
  835MOL0     C12623   9.733   8.831   2.010  0.9247  0.7961 -0.2094
  835MOL0     C12624   9.651   8.725   1.957 -0.5453 -0.5244 -0.0180
  835MOL0     O12625   9.517   8.744   1.937 -0.3902  0.3381 -0.5592
  835MOL0     C12626   9.443   8.775   2.054 -0.2526 -0.4937 -1.1930
  835MOL0     C12627   9.370   8.648   2.108 -0.3859 -0.1954 -0.4027
  835MOL0     C12628   9.327   8.664   2.259 -0.2684  0.6940  0.5808
  835MOL0     C12629   9.267   8.804   2.276 -0.2624  0.1200 -0.4296
  835MOL0     C12630   9.185   8.818   2.407  0.6907 -0.5624 -0.9590
  835MOL0     C12631   9.101   8.943   2.410  0.2940 -0.5426 -0.0181
  835MOL0     C12632   8.970   8.928   2.347 -0.4262  0.2589 -0.4386
  835MOL0     C12633   8.914   9.065   2.325 -0.1017 -0.1959 -0.0521
  835MOL0    Cl12634   8.822   9.110   2.486 -0.0423 -0.1531  0.3629
  835MOL0     C12635   9.706   8.608   1.916  0.2415  0.0451  0.0219
  835MOL0     C12636   9.842   8.605   1.886 -0.3049 -0.8735 -0.5018
  835MOL0     O12637  10.051   8.893   1.768 -0.7946 -0.1023 -0.6563
  835MOL0     C12638  10.346   8.705   1.829  0.2341  0.0165 -0.0351
  835MOL0     C12639  10.485   8.698   1.808  0.4092 -0.3555 -0.4441
  835MOL0     N12640  11.302   8.550   2.077 -1.0364  0.1879  0.1241
  835MOL0     N12641  11.344   8.432   2.053  0.4144  0.5272  0.8486
  835MOL0     C12642  10.441   7.662   1.656  0.2744 -0.6986 -0.4150
  835MOL0     C12643  10.445   7.528   1.615  0.2892 -1.0687 -0.2740
  835MOL0     C12644  10.535   7.085   1.709  0.1901  0.8144  0.1653
  835MOL0     C12645  10.617   7.057   1.598 -0.0153 -0.1252 -0.2889
  835MOL0     C12646  10.650   6.933   1.556  0.2494  0.7682 -0.1097
  835MOL0     C12647  10.603   6.824   1.621 -0.4902  0.3901 -1.2210
  835MOL0     O12648  10.638   6.686   1.599 -0.0269 -0.3055  0.4269
  835MOL0     C12649  10.703   6.663   1.471 -0.6752  0.4100 -0.2144
  835MOL0     C12650  10.769   6.526   1.468  0.3502  1.0457 -0.0651
  835MOL0     C12651  10.666   6.415   1.511  0.0852  0.1501  0.7705
  835MOL0     C12652  10.696   6.272   1.447  0.5507 -0.0260 -0.4713
  835MOL0     C12653  10.809   6.207   1.509 -0.8837 -0.0450  0.0762
  835MOL0     C12654  10.911   6.161   1.556  0.3775 -0.3890 -0.2657
  835MOL0     C12655  10.510   6.844   1.732 -0.1338  0.0140  0.4259
  835MOL0     C12656  10.467   6.970   1.762  0.4813 -0.4901 -0.0990
  835MOL0     C12657  10.350   6.986   1.851  0.7496 -0.8692 -0.4538
  835MOL0     H12658  10.723   7.425   1.783 -1.2757 -0.2903  1.2855
  835MOL0     H12659  10.715   7.683   1.837 -0.9162  0.6161  1.2288
  835MOL0     H12660  10.733   7.826   1.608 -0.3693 -1.9119  1.2046
  835MOL0     H12661  10.653   7.973   1.597  1.9919  0.5860 -1.4940
  835MOL0     H12662  10.758   7.889   1.852 -1.9840 -0.2864 -0.8881
  835MOL0     H12663  10.714   8.055   1.800  2.9625  1.3025 -1.9657
  835MOL0     H12664  10.879   8.075   1.636 -0.0456  0.8503 -0.3794
  835MOL0     H12665  10.935   7.901   1.667 -2.6116 -0.8118  1.1473
  835MOL0     H12666  10.942   8.138   1.861 -0.4149  0.8336 -3.2812
  835MOL0     H12667  10.997   7.965   1.895 -3.2005  0.1551  2.3807
  835MOL0     H12668  11.169   7.969   1.786  0.7408  0.1145  0.6006
  835MOL0     H12669  11.117   8.079   1.656 -3.0588 -4.0182 -0.8550
  835MOL0     H12670  11.131   8.254   1.852  0.7711  0.1545  0.6638
  835MOL0     H12671  11.207   8.138   1.953 -0.3695 -0.0512 -0.2558
  835MOL0     H12672  11.293   8.247   1.672 -2.6882 -0.8846  0.6486
  835MOL0     H12673  11.389   8.109   1.741  1.0918  0.6824 -0.5832
  835MOL0     H12674  11.463   8.217   1.936 -0.5035  0.4012  0.9009
  835MOL0     H12675  11.498   8.316   1.801 -0.8011  2.2131  1.1173
  835MOL0     H12676  11.218   8.478   1.763  0.4850 -0.2493  0.1351
  835MOL0     H12677  11.112   8.737   2.056 -3.4035 -2.1181  1.0345
  835MOL0     H12678  11.181   8.781   1.896 -1.3605 -1.1470 -1.4538
  835MOL0     H12679  11.029   8.603   1.791  1.9489 -1.6941  0.4352
  835MOL0     H12680  10.958   8.587   1.955 -0.3872  2.7922  1.9933
  835MOL0     H12681  10.960   8.838   1.799 -3.3499  0.5557 -2.2881
  835MOL0     H12682  10.915   8.831   1.968 -0.7441 -1.2160  1.2864
  835MOL0     H12683  10.728   8.661   1.916  0.7393 -0.1336  1.0924
  835MOL0     H12684  10.782   8.639   1.757 -1.3660 -2.0197  2.3456
  835MOL0     H12685  10.535   9.021   1.765 -2.1394  0.4025 -0.4111
  835MOL0     H12686  10.292   9.026   1.813 -1.9936 -0.4710 -2.5441
  835MOL0     H12687   9.939   8.904   2.000  0.0779 -1.1060  0.1198
  835MOL0     H12688   9.687   8.915   2.061  1.0973  1.3787 -0.9998
  835MOL0     H12689   9.516   8.796   2.133 -1.1283 -3.6337  0.6556
  835MOL0     H12690   9.376   8.860   2.044 -1.8778 -1.0662  2.9082
  835MOL0     H12691   9.290   8.616   2.040 -0.6464 -0.5525  0.0669
  835MOL0     H12692   9.438   8.563   2.101 -0.6791 -1.2634  5.1250
  835MOL0     H12693   9.257   8.580   2.258 -0.5660  0.7814 -3.7194
  835MOL0     H12694   9.419   8.649   2.317  1.5662 -0.1920 -2.3141
  835MOL0     H12695   9.204   8.826   2.189  0.3366  0.8962 -0.6778
  835MOL0     H12696   9.347   8.879   2.272  1.8908 -1.8147  2.5572
  835MOL0     H12697   9.256   8.818   2.490 -2.0970  0.3681  1.6298
  835MOL0     H12698   9.124   8.731   2.434  0.6405 -0.3437 -0.3543
  835MOL0     H12699   9.071   8.972   2.511  0.9482  3.5575 -0.8410
  835MOL0     H12700   9.158   9.025   2.367 -2.2984  2.3866  1.7210
  835MOL0     H12701   8.905   8.881   2.422 -0.6219  1.7620  0.3828
  835MOL0     H12702   8.973   8.873   2.252  1.4524 -0.3864 -0.0359
  835MOL0     H12703   8.994   9.132   2.295 -0.3370  1.3986  2.6171
  835MOL0     H12704   8.844   9.056   2.241  0.5383 -1.0839 -0.5121
  835MOL0     H12705   9.631   8.531   1.901 -0.7433  0.7935  0.9742
  835MOL0     H12706   9.882   8.510   1.850  2.0097 -1.4085  2.9649
  835MOL0     H12707  10.291   8.613   1.850  1.3639 -0.6170  0.2093
  835MOL0     H12708  10.528   8.601   1.832  1.3485  0.3880  0.9513
  835MOL0     H12709  10.367   7.729   1.614 -2.2391 -2.8719  0.3324
  835MOL0     H12710  10.368   7.504   1.542 -0.0214 -1.0623  0.0448
  835MOL0     H12711  10.662   7.131   1.532  2.9722 -2.0553 -0.5871
  835MOL0     H12712  10.709   6.934   1.464  0.9076  1.7747  0.3078
  835MOL0     H12713  10.789   6.730   1.469  0.8087 -1.3335  1.4270
  835MOL0     H12714  10.638   6.699   1.390  0.4351  0.6875 -1.0006
  835MOL0     H12715  10.843   6.525   1.548 -2.7511 -0.0916  3.0842
  835MOL0     H12716  10.812   6.500   1.371  4.4361  2.4078  1.2123
  835MOL0     H12717  10.569   6.453   1.477  0.0788 -0.6763 -0.1691
  835MOL0     H12718  10.665   6.424   1.620 -0.7583  0.0594  0.7765
  835MOL0     H12719  10.619   6.198   1.472  0.4748  1.1399  3.4775
  835MOL0     H12720  10.694   6.279   1.338 -2.6521  1.0311 -0.4489
  835MOL0     H12721  11.003   6.125   1.598 -0.5736 -2.0949  0.4912
  835MOL0     H12722  10.466   6.766   1.793 -0.4478  0.8188  1.2579
  835MOL0     H12723  10.282   7.068   1.828  1.6831  0.2153  0.5609
  835MOL0     H12724  10.287   6.896   1.840 -2.1076  1.0689 -1.0803
  835MOL0     H12725  10.377   7.000   1.956  0.7479  1.1160 -0.6978
  836MOL0     O12726   6.825   3.801   5.755  0.1957  0.1153  0.1428
  836MOL0     C12727   6.881   3.728   5.670 -0.2753  0.4704  0.1258
  836MOL0     O12728   6.975   3.628   5.697  0.1598  0.3036  0.7614
  836MOL0     C12729   7.044   3.625   5.821 -0.4221  0.1421  0.4947
  836MOL0     C12730   7.089   3.743   5.873  0.3466  0.2232 -0.2849
  836MOL0     C12731   7.160   3.749   5.995  0.3924 -0.7230  0.7466
  836MOL0     C12732   7.213   3.633   6.047 -0.9705  0.9170 -0.5591
  836MOL0     O12733   7.293   3.648   6.158  0.2610 -0.0140  0.2891
  836MOL0     C12734   7.318   3.527   6.234  0.2099 -0.1603  0.1669
  836MOL0     C12735   7.390   3.557   6.369  0.5012  0.0379  0.1312
  836MOL0     C12736   7.495   3.675   6.360  0.2949  0.4105 -0.9127
  836MOL0     C12737   7.564   3.696   6.492 -0.0524  0.4654  0.5373
  836MOL0     C12738   7.645   3.823   6.471  0.1374  0.4580  0.4526
  836MOL0     C12739   7.715   3.864   6.602 -0.4029  0.1670 -0.2463
  836MOL0     C12740   7.777   4.001   6.571  0.3666  0.2944 -0.1833
  836MOL0     C12741   7.892   4.000   6.463 -0.5299  1.1817  0.6383
  836MOL0     N12742   8.005   4.097   6.475  0.3039  0.4317 -0.0199
  836MOL0     C12743   7.986   4.232   6.475  0.0577 -0.6410 -0.5407
  836MOL0     C12744   8.111   4.285   6.490 -0.5294  0.4079  0.6819
  836MOL0     C12745   8.121   4.432   6.506 -1.0035  0.7428 -0.5432
  836MOL0     C12746   8.239   4.459   6.601  0.9176  1.0976  0.5426
  836MOL0     C12747   8.275   4.608   6.601 -0.2491  0.7361  0.1348
  836MOL0     C12748   8.164   4.705   6.606 -0.3398 -0.0642  0.0779
  836MOL0     O12749   8.104   4.694   6.734  0.0200  0.3650 -0.3433
  836MOL0     C12750   8.016   4.793   6.762 -0.5260 -0.4319  0.9348
  836MOL0     C12751   8.049   4.871   6.870 -0.4637 -0.0450  0.0978
  836MOL0     C12752   7.977   4.994   6.895  0.2381  0.2743 -0.3020
  836MOL0     C12753   7.876   5.032   6.815  0.4862 -0.2175  0.4151
  836MOL0     C12754   7.798   5.149   6.842 -0.0038  0.7800  0.8352
  836MOL0     O12755   7.761   5.172   6.972  0.0736 -0.5471  0.8335
  836MOL0     C12756   7.678   5.276   6.997  0.2078 -0.2024 -0.6581
  836MOL0     C12757   7.570   5.245   7.083 -0.6286 -0.4836 -0.1526
  836MOL0     C12758   7.468   5.337   7.110 -0.0677  0.1378  0.6586
  836MOL0     C12759   7.467   5.460   7.044 -1.0980  0.0543  0.4891
  836MOL0     O12760   7.366   5.544   7.047  0.0129 -0.0457 -0.0431
  836MOL0     C12761   7.247   5.526   7.130  0.6930 -0.0629  0.0407
  836MOL0     C12762   7.128   5.463   7.060  0.3831  0.1227  0.5414
  836MOL0     C12763   7.073   5.547   6.945 -1.1038 -0.9575  0.0772
  836MOL0     C12764   7.015   5.693   6.967  0.7261  1.2631 -0.2938
  836MOL0     C12765   6.879   5.711   7.028  0.0338  0.0352 -0.0380
  836MOL0     C12766   6.873   5.672   7.175 -0.1720  0.1949  0.5672
  836MOL0     C12767   6.793   5.787   7.246  0.3069  0.0709 -0.8258
  836MOL0     C12768   6.766   5.765   7.396 -0.0480  0.0366 -0.1826
  836MOL0    Cl12769   6.890   5.833   7.496 -0.4876  0.1047  0.3950
  836MOL0     C12770   7.577   5.496   6.972  0.1081 -0.0662  0.7050
  836MOL0     C12771   7.691   5.412   6.955  0.7248  1.0051  0.2647
  836MOL0     O12772   7.774   5.223   6.744 -0.6393  1.3175 -0.5760
  836MOL0     C12773   7.847   4.954   6.707  0.8547  0.1791  1.4848
  836MOL0     C12774   7.912   4.834   6.677  0.0775  1.1037 -0.2271
  836MOL0     N12775   8.196   4.180   6.514 -0.1962  0.0966 -0.7770
  836MOL0     N12776   8.129   4.069   6.520  0.3307 -0.1931 -0.2366
  836MOL0     C12777   7.190   3.512   5.978 -0.4373 -0.7346  1.1725
  836MOL0     C12778   7.107   3.508   5.863  0.3148 -0.5767  0.4698
  836MOL0     C12779   6.837   3.768   5.527 -0.2355  0.6661  0.7932
  836MOL0     C12780   6.714   3.831   5.509 -0.4515 -0.3021 -0.5826
  836MOL0     C12781   6.663   3.864   5.386  0.4153 -0.1637 -0.6228
  836MOL0     C12782   6.730   3.815   5.277 -0.3844 -0.3704  0.0999
  836MOL0     O12783   6.690   3.812   5.142  0.7072 -0.3401 -0.0296
  836MOL0     C12784   6.550   3.851   5.132  0.0050 -0.8350  0.2540
  836MOL0     C12785   6.503   3.837   4.985  0.4821 -0.1149 -1.2029
  836MOL0     C12786   6.504   3.698   4.922  0.3377  0.2001 -0.2839
  836MOL0     C12787   6.439   3.694   4.778  0.2233 -0.0586 -0.1610
  836MOL0     C12788   6.499   3.776   4.667  0.1823  0.1794 -0.1445
  836MOL0     C12789   6.533   3.839   4.569  0.1019  0.4988  0.6642
  836MOL0     C12790   6.855   3.749   5.285 -0.6333 -1.0596 -0.1520
  836MOL0     C12791   6.915   3.739   5.411 -0.4158 -0.2695 -0.1295
  836MOL0     C12792   7.055   3.678   5.423  1.2231 -0.3986  0.2515
  836MOL0     H12793   7.045   3.835   5.833 -1.3203  0.8711  2.7600
  836MOL0     H12794   7.173   3.842   6.048  0.3086 -1.7226  2.5839
  836MOL0     H12795   7.231   3.462   6.252  1.3806 -1.9231 -0.2346
  836MOL0     H12796   7.382   3.473   6.164 -1.3860  0.6200 -2.0243
  836MOL0     H12797   7.453   3.468   6.385  0.5783  0.0023 -0.3561
  836MOL0     H12798   7.321   3.576   6.452  0.8752 -0.1438  0.4958
  836MOL0     H12799   7.429   3.758   6.333  0.4436  1.1426  0.8121
  836MOL0     H12800   7.563   3.656   6.276  0.6296 -3.8731  0.1099
  836MOL0     H12801   7.494   3.688   6.576  0.5237 -0.8817  0.9130
  836MOL0     H12802   7.639   3.618   6.508  0.6756  0.6527 -1.6165
  836MOL0     H12803   7.723   3.795   6.400  0.6772  0.0065  1.2085
  836MOL0     H12804   7.581   3.904   6.436  1.5782 -0.1679 -4.2997
  836MOL0     H12805   7.637   3.872   6.679 -1.8926  0.3764 -1.7162
  836MOL0     H12806   7.789   3.795   6.643  2.7073  1.5934 -2.9761
  836MOL0     H12807   7.814   4.044   6.664 -4.3392  2.2802  1.0369
  836MOL0     H12808   7.704   4.071   6.530  1.3193 -0.2677 -3.0635
  836MOL0     H12809   7.953   3.911   6.483 -1.8842 -0.4035 -1.6734
  836MOL0     H12810   7.856   4.001   6.360  1.3475 -0.5954 -0.0982
  836MOL0     H12811   7.894   4.285   6.451  1.5630  1.4578 -2.0874
  836MOL0     H12812   8.133   4.484   6.410  1.7587 -0.2459 -0.8191
  836MOL0     H12813   8.028   4.472   6.547 -1.0857  0.3148 -0.3071
  836MOL0     H12814   8.202   4.441   6.703  0.0334  1.6033  0.3122
  836MOL0     H12815   8.328   4.406   6.564  0.5977  2.2085 -1.9564
  836MOL0     H12816   8.337   4.633   6.515 -3.3168  2.2870 -1.8043
  836MOL0     H12817   8.331   4.625   6.694 -2.0027  1.4307  1.1080
  836MOL0     H12818   8.104   4.697   6.515  1.8753  0.6162 -1.5223
  836MOL0     H12819   8.206   4.805   6.601 -1.8794  0.8808  3.2704
  836MOL0     H12820   8.138   4.842   6.925 -1.0870 -0.9757  0.6273
  836MOL0     H12821   7.998   5.050   6.986 -0.1722  0.2371 -0.1831
  836MOL0     H12822   7.578   5.144   7.121  2.3702 -0.7567 -1.2304
  836MOL0     H12823   7.384   5.312   7.175  0.3417 -1.2037  0.6808
  836MOL0     H12824   7.258   5.467   7.222 -3.3038  0.2649  0.9267
  836MOL0     H12825   7.216   5.623   7.170 -1.1726 -0.5833 -0.0353
  836MOL0     H12826   7.161   5.362   7.032  2.2339  0.9376 -0.4076
  836MOL0     H12827   7.044   5.458   7.129  0.1545  2.5359  0.5396
  836MOL0     H12828   7.160   5.552   6.878  0.0342 -0.7899  1.5137
  836MOL0     H12829   6.999   5.491   6.887 -1.6842 -0.5508  0.4166
  836MOL0     H12830   7.006   5.721   6.861 -1.5763 -2.8579 -1.4234
  836MOL0     H12831   7.091   5.742   7.027  0.9508  0.7429 -0.1441
  836MOL0     H12832   6.805   5.662   6.964 -0.6249  0.3138  0.5088
  836MOL0     H12833   6.862   5.819   7.021 -0.1813  0.0300  0.4132
  836MOL0     H12834   6.823   5.576   7.191  0.1633  0.0893  0.9986
  836MOL0     H12835   6.975   5.666   7.213  0.2466 -0.0808 -0.5791
  836MOL0     H12836   6.704   5.792   7.183 -0.5227  0.9249  0.3637
  836MOL0     H12837   6.840   5.885   7.233  1.5975 -0.3039  0.6579
  836MOL0     H12838   6.668   5.813   7.405 -1.7620 -2.3486 -3.8608
  836MOL0     H12839   6.757   5.658   7.418 -0.8200  0.1496  0.0910
  836MOL0     H12840   7.588   5.599   6.938  0.8220 -0.0675  0.9098
  836MOL0     H12841   7.773   5.452   6.897 -1.9730  0.9441 -4.0597
  836MOL0     H12842   7.767   4.990   6.642  0.4261  0.2534  2.0529
  836MOL0     H12843   7.878   4.776   6.592 -2.3988 -0.2065  1.5369
  836MOL0     H12844   7.225   3.415   6.012  0.1754 -0.7636  0.4880
  836MOL0     H12845   7.103   3.411   5.816 -0.2445  0.6410 -2.1604
  836MOL0     H12846   6.657   3.863   5.595  3.1333  1.4572  1.3676
  836MOL0     H12847   6.559   3.897   5.388  0.8718  1.3419  0.3745
  836MOL0     H12848   6.541   3.958   5.156 -1.1246 -0.9726  0.4870
  836MOL0     H12849   6.481   3.792   5.194 -1.2530 -0.9268 -1.1786
  836MOL0     H12850   6.568   3.903   4.927  2.2119 -1.9538 -1.4542
  836MOL0     H12851   6.400   3.875   4.980  0.6542  0.9184  1.3449
  836MOL0     H12852   6.451   3.627   4.987  1.3477 -0.4294 -0.1341
  836MOL0     H12853   6.609   3.667   4.916  0.0584 -0.8132 -0.1490
  836MOL0     H12854   6.439   3.588   4.749  1.1365  0.0966 -0.7636
  836MOL0     H12855   6.331   3.709   4.789 -0.5315 -2.0326 -3.4530
  836MOL0     H12856   6.563   3.899   4.485 -1.6874 -0.0110 -0.3897
  836MOL0     H12857   6.906   3.722   5.193  1.7933 -0.8377  1.0443
  836MOL0     H12858   7.041   3.576   5.458 -0.3528 -0.9278 -1.7752
  836MOL0     H12859   7.102   3.660   5.326  0.0083 -1.2164 -0.2001
  836MOL0     H12860   7.127   3.734   5.484 -1.3565 -1.0265  4.3081
  837MOL0     O12861   6.857   4.542   9.645 -0.0269  0.0720 -0.3374
  837MOL0     C12862   6.751   4.590   9.623  0.0835 -0.1519 -0.1407
  837MOL0     O12863   6.627   4.537   9.649  0.0749  0.1194 -0.0112
  837MOL0     C12864   6.641   4.411   9.699 -0.7887 -0.0848  0.6533
  837MOL0     C12865   6.604   4.304   9.615  0.3335 -0.4682 -0.3954
  837MOL0     C12866   6.652   4.181   9.638 -0.4403 -0.4461  0.9672
  837MOL0     C12867   6.703   4.155   9.771  0.3081 -0.5464  0.9104
  837MOL0     O12868   6.745   4.035   9.786 -0.6576  0.1718 -0.8532
  837MOL0     C12869   6.785   3.994   9.917  0.9233  0.1241 -0.8107
  837MOL0     C12870   6.930   4.019   9.947  0.9250  0.2717  0.2128
  837MOL0     C12871   6.951   4.018  10.095  0.1486 -0.0971  0.3160
  837MOL0     C12872   6.920   4.155  10.164  0.4695  0.1292 -0.7332
  837MOL0     C12873   6.997   4.272  10.097 -0.2732  0.0922  0.8002
  837MOL0     C12874   6.984   4.396  10.183  0.5715  0.4416 -0.1501
  837MOL0     C12875   7.059   4.507  10.122 -0.6924 -0.2068  0.7178
  837MOL0     C12876   6.996   4.551   9.986  0.0956 -0.3144 -0.3538
  837MOL0     N12877   7.058   4.680   9.951  0.0589  0.1378  0.2910
  837MOL0     C12878   6.998   4.809   9.983  0.1526  0.0769  0.7246
  837MOL0     C12879   7.053   4.898   9.900 -0.5430 -0.0815 -0.9693
  837MOL0     C12880   7.023   5.051   9.875 -0.4653  0.2081 -0.5925
  837MOL0     C12881   7.123   5.136   9.958 -0.1897  0.1893  0.1976
  837MOL0     C12882   7.111   5.281   9.910 -0.9827  0.9652  0.7730
  837MOL0     C12883   7.163   5.385   9.998  0.8498 -0.6712 -0.0609
  837MOL0     O12884   7.088   5.406  10.120  0.0496  0.3307  0.5481
  837MOL0     C12885   7.132   5.510  10.201 -0.8982  0.0248 -0.1350
  837MOL0     C12886   7.100   5.493  10.336  0.4466 -0.2194  0.2430
  837MOL0     C12887   7.124   5.582  10.438  0.6572 -0.1765 -1.2045
  837MOL0     C12888   7.215   5.694  10.412 -0.3225  0.3732 -0.6017
  837MOL0     C12889   7.258   5.796  10.522  0.0612  0.3341  0.7023
  837MOL0     O12890   7.193   5.793  10.640 -0.5464  0.3667  0.5038
  837MOL0     C12891   7.235   5.884  10.737  0.2085  0.6854 -0.5945
  837MOL0     C12892   7.286   5.830  10.856  0.4812 -0.3466  0.2598
  837MOL0     C12893   7.304   5.910  10.961  0.3799 -0.7748 -0.0695
  837MOL0     C12894   7.287   6.050  10.950 -0.4330 -0.3171 -0.6000
  837MOL0     O12895   7.296   6.127  11.062 -0.1219  0.4219 -0.7568
  837MOL0     C12896   7.358   6.099  11.188  0.1859  0.4421  0.1240
  837MOL0     C12897   7.248   6.033  11.280  0.0594 -0.6465 -0.2429
  837MOL0     C12898   7.145   6.118  11.347 -0.5236 -0.1813  0.7568
  837MOL0     C12899   7.191   6.197  11.469  0.1316 -0.1991 -0.0096
  837MOL0     C12900   7.083   6.255  11.559  0.4837 -0.0747  0.5919
  837MOL0     C12901   7.106   6.393  11.623 -0.8917 -0.5242 -0.3813
  837MOL0     C12902   7.020   6.424  11.750 -0.9638  0.5197  0.3223
  837MOL0     C12903   6.878   6.488  11.740  0.0164 -0.0671  0.3637
  837MOL0    Cl12904   6.785   6.385  11.634  0.0218  0.4655  0.0594
  837MOL0     C12905   7.236   6.103  10.834 -0.3227 -0.0305  0.3255
  837MOL0     C12906   7.216   6.021  10.718  0.5034 -0.0930 -0.1506
  837MOL0     O12907   7.347   5.879  10.498  0.1039 -0.0382  0.2329
  837MOL0     C12908   7.251   5.715  10.274 -0.6398 -1.0705  0.0418
  837MOL0     C12909   7.209   5.625  10.171 -0.0488 -0.4928  0.2148
  837MOL0     N12910   7.140   4.830   9.824  0.0219  0.1315 -0.2221
  837MOL0     N12911   7.139   4.704   9.851  0.3907  0.0018 -0.4502
  837MOL0     C12912   6.722   4.255   9.861  0.4762 -0.2276  0.2957
  837MOL0     C12913   6.699   4.389   9.823  0.1295  0.2099 -0.3281
  837MOL0     C12914   6.752   4.720   9.562  0.0615  0.3255  0.6877
  837MOL0     C12915   6.824   4.829   9.616 -0.4111  0.2419  0.5046
  837MOL0     C12916   6.808   4.960   9.569 -0.4685  0.1532  0.1535
  837MOL0     C12917   6.721   4.984   9.457  0.4611  0.8297  0.4770
  837MOL0     O12918   6.716   5.095   9.383 -0.8522  0.5923 -0.2519
  837MOL0     C12919   6.780   5.214   9.431 -0.3227 -0.3221 -0.1815
  837MOL0     C12920   6.693   5.331   9.377 -0.0273  0.2864 -0.9318
  837MOL0     C12921   6.701   5.348   9.223 -0.3986 -0.3228 -0.8420
  837MOL0     C12922   6.585   5.291   9.150  0.2370 -0.2981  0.0218
  837MOL0     C12923   6.593   5.302   9.006  0.2236 -0.1563  0.4898
  837MOL0     C12924   6.617   5.306   8.887  0.3183  0.1753 -0.3872
  837MOL0     C12925   6.660   4.874   9.402  0.9716 -0.1296 -0.3476
  837MOL0     C12926   6.674   4.740   9.452  0.2637  0.2315  0.8201
  837MOL0     C12927   6.603   4.643   9.373 -0.4979  1.1638  1.1012
  837MOL0     H12928   6.551   4.327   9.522  0.4353 -0.5958 -0.4842
  837MOL0     H12929   6.645   4.106   9.561  0.7660  0.7507 -0.3710
  837MOL0     H12930   6.717   4.032   9.994  1.2500 -0.7821 -0.0656
  837MOL0     H12931   6.767   3.888   9.934  2.1165  0.0498  0.0166
  837MOL0     H12932   6.954   4.113   9.896  1.8497 -0.2414 -0.3281
  837MOL0     H12933   6.977   3.933   9.899 -0.6906  1.3190 -3.6758
  837MOL0     H12934   7.058   4.000  10.105 -0.1044 -1.1111  1.4115
  837MOL0     H12935   6.892   3.946  10.151 -2.8340  2.3915  0.6511
  837MOL0     H12936   6.812   4.170  10.173  0.2185 -2.5030  2.8352
  837MOL0     H12937   6.963   4.142  10.264  2.5207 -1.7648 -1.7645
  837MOL0     H12938   7.101   4.247  10.075 -0.0405  0.1838  1.7566
  837MOL0     H12939   6.944   4.295  10.004  2.1240 -1.1493 -0.9919
  837MOL0     H12940   6.879   4.422  10.199  0.6635  1.0759 -0.5740
  837MOL0     H12941   7.030   4.372  10.279  0.0125  0.4639  0.1289
  837MOL0     H12942   7.163   4.483  10.100 -0.6812  1.0997 -0.8468
  837MOL0     H12943   7.072   4.587  10.195  0.0441 -0.3286  0.7252
  837MOL0     H12944   7.008   4.472   9.910 -1.0196 -1.4259  0.5871
  837MOL0     H12945   6.890   4.568  10.007  0.1631 -2.3240  2.1325
  837MOL0     H12946   6.925   4.835  10.059  2.1948  3.1820  1.8083
  837MOL0     H12947   7.036   5.066   9.767 -1.4659 -4.9771 -1.6897
  837MOL0     H12948   6.920   5.076   9.900 -0.4780  0.8861 -1.2857
  837MOL0     H12949   7.076   5.133  10.056 -1.9619 -4.0654 -0.5407
  837MOL0     H12950   7.227   5.100   9.963 -1.1290 -3.2277 -1.3838
  837MOL0     H12951   7.011   5.311   9.879 -1.2178  2.0333  2.4700
  837MOL0     H12952   7.177   5.272   9.823 -2.0012  1.1978 -0.0467
  837MOL0     H12953   7.151   5.479   9.943 -0.8298 -0.0532  1.2585
  837MOL0     H12954   7.269   5.374  10.021  0.9827  0.0412 -0.3095
  837MOL0     H12955   7.034   5.409  10.355  1.1681 -0.6810  0.7434
  837MOL0     H12956   7.099   5.551  10.539 -0.5440 -5.0581 -2.7174
  837MOL0     H12957   7.288   5.722  10.863 -2.6299 -0.6504 -1.5273
  837MOL0     H12958   7.333   5.860  11.053  1.1794 -2.1218 -1.0103
  837MOL0     H12959   7.439   6.027  11.171  0.3700  0.7202 -0.1773
  837MOL0     H12960   7.403   6.180  11.245  0.4722 -0.5692  1.3942
  837MOL0     H12961   7.202   5.961  11.211 -1.7797  1.2196 -1.0705
  837MOL0     H12962   7.304   6.001  11.369 -1.7674  0.2857  1.3145
  837MOL0     H12963   7.126   6.190  11.268  2.0859 -2.4572 -2.2126
  837MOL0     H12964   7.063   6.048  11.364 -0.5731 -0.7260 -1.4867
  837MOL0     H12965   7.258   6.272  11.427  3.3636 -3.4392 -1.1997
  837MOL0     H12966   7.260   6.140  11.531  0.8396  1.9800  1.3104
  837MOL0     H12967   7.077   6.179  11.638 -1.4091 -2.5620 -1.7506
  837MOL0     H12968   6.988   6.254  11.506  1.9364 -2.0752 -2.1936
  837MOL0     H12969   7.213   6.396  11.648 -1.4230  1.1428  2.1764
  837MOL0     H12970   7.097   6.477  11.553  1.5475  1.3301  1.3535
  837MOL0     H12971   7.080   6.491  11.812  1.0520 -0.6597 -0.2615
  837MOL0     H12972   7.016   6.332  11.810  5.3046 -0.2568  0.2029
  837MOL0     H12973   6.828   6.504  11.836 -0.3951  0.9066 -0.0028
  837MOL0     H12974   6.889   6.586  11.693 -0.6119 -1.0207 -1.9428
  837MOL0     H12975   7.219   6.209  10.823  0.1584 -0.1109 -1.5123
  837MOL0     H12976   7.183   6.068  10.626 -0.1475 -1.8114 -0.8330
  837MOL0     H12977   7.304   5.807  10.253  0.8573 -2.6260 -3.7912
  837MOL0     H12978   7.247   5.649  10.073 -4.2565  1.3564 -1.1572
  837MOL0     H12979   6.753   4.241   9.964 -1.0636 -1.2382  0.6595
  837MOL0     H12980   6.727   4.466   9.894  2.2284  0.3628 -1.2461
  837MOL0     H12981   6.880   4.823   9.709  0.2638  0.1920  0.0967
  837MOL0     H12982   6.866   5.042   9.611 -0.6388  0.4596 -0.2043
  837MOL0     H12983   6.878   5.207   9.384 -0.2454 -0.8930  0.0692
  837MOL0     H12984   6.789   5.214   9.540 -2.2692  2.3736  0.0921
  837MOL0     H12985   6.731   5.425   9.418  2.9390  0.0152 -2.7172
  837MOL0     H12986   6.589   5.316   9.408  0.6909  1.2506  2.2696
  837MOL0     H12987   6.797   5.306   9.190  1.0924  3.1779 -1.4171
  837MOL0     H12988   6.702   5.450   9.183 -0.4266 -0.6544 -1.7084
  837MOL0     H12989   6.573   5.185   9.175  1.2117 -0.1771  1.1162
  837MOL0     H12990   6.493   5.339   9.186 -0.3213 -0.8084 -0.7040
  837MOL0     H12991   6.641   5.324   8.784  0.7290 -1.6476 -0.6383
  837MOL0     H12992   6.594   4.880   9.315  2.1373  2.2076 -1.1455
  837MOL0     H12993   6.656   4.623   9.280 -0.9850  0.9761  0.8583
  837MOL0     H12994   6.588   4.545   9.419  1.0427 -1.2775 -3.0282
  837MOL0     H12995   6.510   4.680   9.330  0.2916 -1.1268 -3.0481
  838MOL0     O12996   1.997   6.040   9.360 -0.1738 -0.1441 -0.0999
  838MOL0     C12997   2.053   6.049   9.470 -0.0326 -0.3421  0.4827
  838MOL0     O12998   2.134   6.162   9.496 -0.5522 -0.2750  0.4606
  838MOL0     C12999   2.129   6.265   9.407 -0.2953 -0.0820 -0.0472
  838MOL0     C13000   2.251   6.334   9.377  0.3055 -0.0573 -0.3489
  838MOL0     C13001   2.265   6.446   9.302 -0.1686  0.6581  0.3680
  838MOL0     C13002   2.157   6.496   9.232 -0.6301 -0.1896 -0.6316
  838MOL0     O13003   2.167   6.599   9.151 -0.0753  0.6189  0.7847
  838MOL0     C13004   2.237   6.722   9.185 -0.4944  0.2971  0.0420
  838MOL0     C13005   2.128   6.818   9.199  0.4178  0.0919 -0.8337
  838MOL0     C13006   2.185   6.957   9.246 -0.1218 -0.0306  0.2331
  838MOL0     C13007   2.219   6.953   9.393 -0.8764  0.6126 -0.3077
  838MOL0     C13008   2.232   7.086   9.458 -0.1431 -0.2032 -0.0713
  838MOL0     C13009   2.285   7.071   9.603 -0.0537 -0.1851  0.6326
  838MOL0     C13010   2.433   7.039   9.608 -0.4630  0.1148 -0.2701
  838MOL0     C13011   2.483   7.047   9.751  0.0030  1.4353 -0.6386
  838MOL0     N13012   2.629   7.047   9.765 -0.0300  0.1903 -0.3795
  838MOL0     C13013   2.694   7.035   9.883 -0.4547 -0.5228 -0.3516
  838MOL0     C13014   2.822   7.077   9.864 -0.1875  0.5308  0.0937
  838MOL0     C13015   2.936   7.079   9.949  0.4714 -0.1634 -0.4701
  838MOL0     C13016   2.908   7.145  10.081  0.2267 -0.6653 -0.0959
  838MOL0     C13017   3.027   7.132  10.162  0.9364 -0.2717 -0.7074
  838MOL0     C13018   2.991   7.168  10.305  0.1349  0.1589  0.5256
  838MOL0     O13019   3.100   7.225  10.375 -0.8796  0.1630 -0.6189
  838MOL0     C13020   3.126   7.358  10.335 -0.4823 -0.2470  0.4753
  838MOL0     C13021   3.236   7.414  10.398 -0.3053 -0.5325 -0.2026
  838MOL0     C13022   3.261   7.547  10.381  0.0772 -0.4327 -0.0223
  838MOL0     C13023   3.172   7.628  10.311  0.3738  0.5920  0.5684
  838MOL0     C13024   3.200   7.776  10.306  0.8676  0.3697 -0.4900
  838MOL0     O13025   3.117   7.854  10.238  0.6398  0.7281 -0.7952
  838MOL0     C13026   3.150   7.976  10.216  0.6205 -0.3424 -0.7105
  838MOL0     C13027   3.230   8.010  10.117 -0.2495  1.0724 -0.1953
  838MOL0     C13028   3.258   8.144  10.096  0.5764 -0.8151 -0.3190
  838MOL0     C13029   3.192   8.243  10.161 -0.5355  0.0335 -0.0021
  838MOL0     O13030   3.214   8.375  10.147  0.2641 -0.4359  0.0520
  838MOL0     C13031   3.345   8.423  10.181 -0.7975  0.7049 -0.5358
  838MOL0     C13032   3.408   8.532  10.099 -0.4306  0.9093  0.4690
  838MOL0     C13033   3.444   8.486   9.960  0.1979  0.3109  0.8395
  838MOL0     C13034   3.438   8.598   9.852 -0.0083  0.1843 -0.6338
  838MOL0     C13035   3.324   8.581   9.740 -0.3933  0.1287 -0.6502
  838MOL0     C13036   3.183   8.605   9.797 -0.6744  0.2329  0.1376
  838MOL0     C13037   3.070   8.609   9.693 -0.0884 -0.6458 -0.9002
  838MOL0     C13038   3.061   8.491   9.594 -0.3913 -0.0181  0.3448
  838MOL0    Cl13039   2.947   8.536   9.456 -0.1418 -0.2325 -0.0197
  838MOL0     C13040   3.109   8.204  10.268  0.3584 -1.0246  0.5383
  838MOL0     C13041   3.094   8.071  10.300  0.6206 -0.1407  0.0743
  838MOL0     O13042   3.291   7.808  10.379 -0.4519  0.7234  0.4230
  838MOL0     C13043   3.067   7.576  10.239 -0.2984 -1.3401 -0.0709
  838MOL0     C13044   3.046   7.444  10.255 -0.4073  0.2833 -0.2851
  838MOL0     N13045   2.824   7.121   9.729  0.6250  0.0882 -0.8818
  838MOL0     N13046   2.716   7.089   9.672  0.4984  0.4745  0.2439
  838MOL0     C13047   2.035   6.431   9.260  0.4816 -0.6117 -0.4306
  838MOL0     C13048   2.016   6.321   9.340  0.7648  0.3275  0.3488
  838MOL0     C13049   2.029   5.936   9.572  0.8854  1.1176 -0.0152
  838MOL0     C13050   1.899   5.880   9.569  0.2397 -0.6952 -0.7764
  838MOL0     C13051   1.855   5.781   9.657  0.9959 -0.0421  0.1229
  838MOL0     C13052   1.947   5.715   9.738 -0.1561 -0.9039 -0.1611
  838MOL0     O13053   1.900   5.614   9.812 -0.1359 -0.6058  0.0287
  838MOL0     C13054   1.946   5.487   9.753  1.0126 -0.5183  0.1698
  838MOL0     C13055   1.838   5.386   9.767  0.3242 -0.5112  0.0035
  838MOL0     C13056   1.881   5.261   9.840 -1.3051  0.4576  0.9244
  838MOL0     C13057   1.780   5.151   9.868 -0.5817 -0.5288 -0.1980
  838MOL0     C13058   1.778   5.066   9.751  0.0582  0.5295 -0.4008
  838MOL0     C13059   1.795   5.014   9.638 -0.6363  0.3547 -0.3024
  838MOL0     C13060   2.070   5.776   9.756 -1.4730  0.1302 -0.4683
  838MOL0     C13061   2.120   5.883   9.668  0.2321 -0.0999 -0.9538
  838MOL0     C13062   2.258   5.937   9.671 -0.7187 -0.0203 -0.7387
  838MOL0     H13063   2.342   6.292   9.418  0.7767  2.0193  0.8985
  838MOL0     H13064   2.365   6.486   9.284 -0.4172  0.7247 -1.0190
  838MOL0     H13065   2.294   6.714   9.278 -1.7570  2.4542  1.0880
  838MOL0     H13066   2.301   6.746   9.100  0.3899  0.5651  0.7663
  838MOL0     H13067   2.056   6.776   9.270 -0.7556  0.9248 -1.4983
  838MOL0     H13068   2.090   6.826   9.097 -0.5617  1.8807 -0.3557
  838MOL0     H13069   2.100   7.026   9.234 -1.0556 -1.1380  0.2973
  838MOL0     H13070   2.265   6.994   9.182 -2.6511  4.0006 -0.9655
  838MOL0     H13071   2.140   6.899   9.447 -0.7193 -2.4378 -2.7863
  838MOL0     H13072   2.305   6.887   9.411 -2.9269 -1.7742  1.5103
  838MOL0     H13073   2.295   7.152   9.398  2.3272 -1.4415  0.9890
  838MOL0     H13074   2.129   7.122   9.457 -0.2089 -0.3740  0.3279
  838MOL0     H13075   2.271   7.165   9.658 -1.2120 -1.4626  2.6271
  838MOL0     H13076   2.240   6.993   9.665  1.9766  1.9000  5.1800
  838MOL0     H13077   2.483   7.124   9.561 -0.8619  0.4264 -0.1375
  838MOL0     H13078   2.458   6.946   9.556  0.9429 -1.0996  2.3263
  838MOL0     H13079   2.441   7.136   9.798 -5.5025 -1.8302  1.6456
  838MOL0     H13080   2.437   6.969   9.812 -2.2693  2.1904 -1.2787
  838MOL0     H13081   2.672   6.987   9.978  0.7119 -1.4364 -0.5128
  838MOL0     H13082   2.950   6.971   9.958 -1.5514 -0.3066  1.7243
  838MOL0     H13083   3.024   7.124   9.901  0.6846  3.1576  2.5356
  838MOL0     H13084   2.877   7.249  10.066 -1.5660 -0.5085  3.4818
  838MOL0     H13085   2.828   7.100  10.142  2.2716 -2.1286  1.6508
  838MOL0     H13086   3.104   7.196  10.119 -0.6723  0.5108 -2.5524
  838MOL0     H13087   3.055   7.028  10.146  2.7050  0.0875 -0.1426
  838MOL0     H13088   2.957   7.080  10.360  0.2414 -0.5195 -0.4727
  838MOL0     H13089   2.907   7.237  10.313 -2.1736 -1.8818 -3.3484
  838MOL0     H13090   3.276   7.353  10.478 -0.0087 -0.2291 -0.1178
  838MOL0     H13091   3.340   7.586  10.445 -1.1020  1.1922  0.4880
  838MOL0     H13092   3.293   7.940  10.062  0.2319  0.7679  0.7181
  838MOL0     H13093   3.337   8.163  10.025  0.1279 -1.8218 -1.1126
  838MOL0     H13094   3.345   8.451  10.287 -0.1604 -1.3451  0.0475
  838MOL0     H13095   3.410   8.336  10.185 -0.6788  0.8259  0.9459
  838MOL0     H13096   3.336   8.613  10.103 -1.6051  0.1177 -2.0475
  838MOL0     H13097   3.504   8.559  10.143 -0.9878  3.0549  0.4402
  838MOL0     H13098   3.538   8.430   9.958  1.3180  2.0169  2.5493
  838MOL0     H13099   3.365   8.413   9.939 -0.0291 -0.3600  3.5606
  838MOL0     H13100   3.534   8.595   9.801  2.0535 -1.3518  2.9520
  838MOL0     H13101   3.434   8.697   9.900 -1.0067 -0.0811 -0.1312
  838MOL0     H13102   3.334   8.486   9.686 -4.4499 -1.9993  1.8130
  838MOL0     H13103   3.345   8.668   9.678  1.0779  0.5302  0.3389
  838MOL0     H13104   3.156   8.526   9.869 -1.1087  1.0021  0.8391
  838MOL0     H13105   3.184   8.704   9.844 -1.9908  0.9558 -1.3053
  838MOL0     H13106   3.078   8.700   9.633  0.7387 -0.4423 -0.4941
  838MOL0     H13107   2.972   8.619   9.739  0.2237  0.6474 -0.4844
  838MOL0     H13108   3.155   8.482   9.539 -2.2444  0.5259 -3.1933
  838MOL0     H13109   3.020   8.402   9.644 -2.0922  2.1206  3.0778
  838MOL0     H13110   3.063   8.285  10.324 -0.3956  2.2625 -4.1930
  838MOL0     H13111   3.031   8.029  10.377  0.9389 -2.0249 -0.6400
  838MOL0     H13112   3.003   7.631  10.170  1.2084  0.3646 -0.1751
  838MOL0     H13113   2.958   7.401  10.208 -0.1624 -0.8277  0.2258
  838MOL0     H13114   1.952   6.479   9.209  1.6967  0.6828 -1.2960
  838MOL0     H13115   1.917   6.276   9.345 -0.0975  2.2909  2.7527
  838MOL0     H13116   1.822   5.916   9.502 -1.9128  0.1991  1.9978
  838MOL0     H13117   1.753   5.745   9.656  1.4290 -1.3058 -0.8446
  838MOL0     H13118   2.031   5.451   9.811 -1.1076 -2.2415  2.4339
  838MOL0     H13119   1.964   5.488   9.645 -1.0677  1.5726 -0.2427
  838MOL0     H13120   1.807   5.360   9.665 -0.2190 -0.9812  0.2762
  838MOL0     H13121   1.754   5.431   9.820 -0.7312 -3.5334  1.1246
  838MOL0     H13122   1.918   5.294   9.937 -0.9163 -1.3189  1.4215
  838MOL0     H13123   1.967   5.223   9.785 -0.2533  0.7175  2.3361
  838MOL0     H13124   1.822   5.095   9.952 -1.2156 -0.3134  0.2693
  838MOL0     H13125   1.684   5.194   9.896  0.4445  2.1905 -0.5564
  838MOL0     H13126   1.808   4.974   9.539 -1.5754 -1.8212  0.3857
  838MOL0     H13127   2.143   5.734   9.823 -0.6206 -1.2490 -2.1746
  838MOL0     H13128   2.301   5.945   9.571  0.5896  2.9054 -0.0358
  838MOL0     H13129   2.274   6.038   9.709  2.2090 -0.3622 -0.8193
  838MOL0     H13130   2.317   5.861   9.723 -1.8368  0.7220  1.7721
  839MOL0     O13131   8.516   9.950   0.455 -0.7176 -0.1326  0.3691
  839MOL0     C13132   8.605   9.874   0.493 -0.1723  0.8142  0.0537
  839MOL0     O13133   8.616   9.830   0.624  0.1847  0.2717  0.0934
  839MOL0     C13134   8.534   9.884   0.717  0.0399  0.3552 -0.5156
  839MOL0     C13135   8.591   9.964   0.815  1.2072 -0.2997 -1.0889
  839MOL0     C13136   8.521  10.014   0.930  0.4765  0.0697 -0.6088
  839MOL0     C13137   8.383   9.999   0.940 -0.0992 -0.0668 -0.3320
  839MOL0     O13138   8.312  10.052   1.045  0.4125  0.3270  0.4845
  839MOL0     C13139   8.261   9.958   1.130  0.3533  0.0873  0.5898
  839MOL0     C13140   8.106   9.973   1.129 -0.7038  0.3926  0.6203
  839MOL0     C13141   8.060  10.113   1.195  0.0813  0.1354  0.2689
  839MOL0     C13142   7.912  10.102   1.224 -0.1882  0.1989 -0.5233
  839MOL0     C13143   7.856  10.223   1.299 -0.5580  0.3034  0.7906
  839MOL0     C13144   7.705  10.216   1.326  0.5762 -0.3446 -0.1754
  839MOL0     C13145   7.684  10.120   1.444  0.3377  0.4255 -0.2104
  839MOL0     C13146   7.535  10.085   1.465  0.1975 -0.0490 -0.9826
  839MOL0     N13147   7.519   9.990   1.570 -0.5972  0.7632 -0.1564
  839MOL0     C13148   7.587   9.987   1.687 -0.5048 -0.4974  0.4737
  839MOL0     C13149   7.539   9.894   1.770  1.0200 -1.3387  0.1313
  839MOL0     C13150   7.579   9.875   1.910  0.8011 -0.0376  0.2533
  839MOL0     C13151   7.636   9.995   1.991 -0.4374 -0.7314 -0.4403
  839MOL0     C13152   7.532  10.104   2.014 -0.2129  0.0047 -0.1829
  839MOL0     C13153   7.437  10.064   2.127  0.6328 -0.9256 -0.4276
  839MOL0     O13154   7.500  10.063   2.260 -0.3732  0.0884  0.1037
  839MOL0     C13155   7.427  10.063   2.372 -0.4541 -0.2393 -0.1668
  839MOL0     C13156   7.503  10.085   2.487 -0.0251  0.5030 -0.4443
  839MOL0     C13157   7.441  10.085   2.615  0.4915 -0.2641  1.0008
  839MOL0     C13158   7.305  10.076   2.618  0.1702 -1.1346 -0.0314
  839MOL0     C13159   7.235  10.083   2.751  0.1515 -0.0999 -0.0671
  839MOL0     O13160   7.096  10.063   2.762 -0.2859  0.2263 -0.6125
  839MOL0     C13161   7.039  10.162   2.822  0.2346 -0.6446  0.8335
  839MOL0     C13162   7.063  10.295   2.783 -0.9617 -0.3548 -0.3968
  839MOL0     C13163   7.026  10.400   2.870  0.4941  0.1184  0.4393
  839MOL0     C13164   6.958  10.367   2.986 -0.6365 -0.3223 -0.0934
  839MOL0     O13165   6.946  10.470   3.075  0.0631 -0.5917  0.1580
  839MOL0     C13166   6.831  10.553   3.044  0.2668  0.7387  0.2718
  839MOL0     C13167   6.805  10.661   3.155  0.0882 -0.1034 -0.2930
  839MOL0     C13168   6.822  10.797   3.095 -0.7155 -1.0207  1.2364
  839MOL0     C13169   6.808  10.908   3.208  0.2700  0.3319  0.1073
  839MOL0     C13170   6.654  10.939   3.226 -0.6670 -0.5931 -0.5337
  839MOL0     C13171   6.633  11.047   3.331 -0.0642  0.2905  0.3920
  839MOL0     C13172   6.688  11.184   3.295  0.3322  0.1271  0.1539
  839MOL0     C13173   6.669  11.271   3.412  0.2222 -0.4272  0.5212
  839MOL0    Cl13174   6.829  11.296   3.497 -0.0423  0.0150 -0.1741
  839MOL0     C13175   6.928  10.241   3.016 -0.4084  0.4485 -0.4309
  839MOL0     C13176   6.972  10.129   2.935 -0.9071 -1.0137  0.0126
  839MOL0     O13177   7.308  10.106   2.840 -0.0016 -0.7360 -0.7146
  839MOL0     C13178   7.224  10.073   2.503  0.1189 -0.7312 -0.5987
  839MOL0     C13179   7.288  10.064   2.382  0.2376  0.5128  0.3723
  839MOL0     N13180   7.434   9.832   1.692 -0.3187 -0.8440 -1.0867
  839MOL0     N13181   7.428   9.891   1.583  0.8372 -0.2952  0.7799
  839MOL0     C13182   8.321   9.914   0.836 -0.2908 -1.0271  0.2698
  839MOL0     C13183   8.390   9.865   0.722  0.5700  1.4097 -0.5033
  839MOL0     C13184   8.704   9.834   0.393  0.7161  0.2166 -0.1481
  839MOL0     C13185   8.807   9.742   0.440  0.3407  1.1147  0.3196
  839MOL0     C13186   8.893   9.675   0.352 -0.9891  0.0015 -0.1014
  839MOL0     C13187   8.906   9.720   0.222 -0.8512  0.0802 -0.7499
  839MOL0     O13188   9.015   9.672   0.144  0.5260  0.1290  0.9066
  839MOL0     C13189   9.009   9.677  -0.000  1.4100 -0.5767 -0.2807
  839MOL0     C13190   8.886   9.626  -0.073  0.5836 -1.0431 -1.1114
  839MOL0     C13191   8.922   9.591  -0.218  0.3436 -0.5012  0.0011
  839MOL0     C13192   8.817   9.544  -0.316 -0.2187 -0.7012 -0.2003
  839MOL0     C13193   8.738   9.440  -0.258  0.4032 -0.0004  0.5885
  839MOL0     C13194   8.676   9.348  -0.213 -0.3183 -1.3552  0.3826
  839MOL0     C13195   8.820   9.816   0.182 -0.6221  0.1303  0.3468
  839MOL0     C13196   8.705   9.862   0.256 -0.4228 -0.2871  0.2608
  839MOL0     C13197   8.600   9.944   0.185 -0.0696 -0.6293  0.2689
  839MOL0     H13198   8.700   9.970   0.816  1.3710 -2.1137 -2.5091
  839MOL0     H13199   8.582  10.062   1.005 -1.4402 -1.5231  2.1664
  839MOL0     H13200   8.292   9.854   1.114 -1.0632 -0.6711  2.3945
  839MOL0     H13201   8.295   9.975   1.232 -0.0430  2.6373  0.3571
  839MOL0     H13202   8.081   9.880   1.181 -0.7356 -0.6475 -1.1743
  839MOL0     H13203   8.063   9.963   1.029 -1.0402  1.7964  0.6073
  839MOL0     H13204   8.067  10.204   1.135 -1.3860  0.1833  0.1389
  839MOL0     H13205   8.128  10.122   1.280 -0.4806  1.8176  0.5769
  839MOL0     H13206   7.856  10.106   1.130  1.3033  4.6669 -1.4659
  839MOL0     H13207   7.896  10.008   1.278  0.9619  2.0498  3.3645
  839MOL0     H13208   7.917  10.235   1.388  0.5935  1.2832 -0.1027
  839MOL0     H13209   7.878  10.315   1.245 -0.1292 -0.2155  0.0474
  839MOL0     H13210   7.665  10.315   1.350 -0.5247 -0.7883 -0.0984
  839MOL0     H13211   7.649  10.197   1.234 -0.1841  2.5454 -0.4212
  839MOL0     H13212   7.728  10.164   1.534  3.3709  0.5196 -1.6284
  839MOL0     H13213   7.734  10.025   1.428  2.0538  1.4437 -1.2132
  839MOL0     H13214   7.491  10.178   1.505 -1.2168  0.8689 -4.3145
  839MOL0     H13215   7.489  10.053   1.371  3.4127 -1.8334 -2.0816
  839MOL0     H13216   7.665  10.053   1.724  0.8948 -1.1466 -1.1884
  839MOL0     H13217   7.488   9.847   1.963  0.2935 -1.9767 -1.4847
  839MOL0     H13218   7.646   9.789   1.923 -1.6790 -1.8415  1.8525
  839MOL0     H13219   7.673   9.963   2.089 -0.7096 -0.3153 -0.1994
  839MOL0     H13220   7.717  10.036   1.930 -1.7617 -2.1470 -3.3363
  839MOL0     H13221   7.491  10.117   1.913 -1.8551 -2.6152  0.0565
  839MOL0     H13222   7.578  10.200   2.041  0.5392 -0.6407  0.8913
  839MOL0     H13223   7.392   9.965   2.110  0.7344 -0.7398 -1.9329
  839MOL0     H13224   7.355  10.137   2.132  0.7750 -0.8579  2.5444
  839MOL0     H13225   7.611  10.090   2.482  0.1506 -1.8092 -0.4523
  839MOL0     H13226   7.503  10.094   2.704  1.3161 -0.7639  0.4999
  839MOL0     H13227   7.127  10.318   2.699 -0.7330  2.5407  0.4875
  839MOL0     H13228   7.030  10.501   2.831 -0.6278 -0.7824 -2.2536
  839MOL0     H13229   6.837  10.594   2.943  0.3077 -1.3631 -0.6466
  839MOL0     H13230   6.742  10.490   3.034  0.4596  0.5776 -0.4699
  839MOL0     H13231   6.703  10.651   3.194  0.4848 -0.0666  0.7685
  839MOL0     H13232   6.881  10.640   3.230  0.8782  2.6098 -0.2202
  839MOL0     H13233   6.920  10.813   3.048 -0.9532  2.9449  1.6935
  839MOL0     H13234   6.744  10.813   3.020  0.0506  1.4142  0.8525
  839MOL0     H13235   6.870  10.995   3.183  2.5079 -1.7595 -2.1326
  839MOL0     H13236   6.845  10.852   3.295 -0.7814  2.1105  1.7756
  839MOL0     H13237   6.602  10.846   3.251 -0.3705 -0.9087 -1.0819
  839MOL0     H13238   6.602  10.972   3.136  0.2283  0.5624 -0.6468
  839MOL0     H13239   6.524  11.041   3.339  0.0080 -3.5890  0.4712
  839MOL0     H13240   6.667  11.019   3.432 -1.0680  2.3548  1.3659
  839MOL0     H13241   6.625  11.229   3.218 -2.4194 -2.4931  0.6772
  839MOL0     H13242   6.791  11.183   3.258 -0.4708  0.8194 -2.3035
  839MOL0     H13243   6.651  11.375   3.381  4.7693  1.3316  2.6972
  839MOL0     H13244   6.584  11.245   3.475  0.3286 -1.8011  0.1154
  839MOL0     H13245   6.872  10.233   3.109  0.8718 -0.3736  0.3119
  839MOL0     H13246   6.968  10.023   2.959  1.1112 -1.2227 -0.3940
  839MOL0     H13247   7.116  10.081   2.507  0.0463 -1.8804  2.3002
  839MOL0     H13248   7.224  10.048   2.296 -0.1698 -1.3606  0.9850
  839MOL0     H13249   8.215   9.893   0.843 -1.0041  2.5445  4.8029
  839MOL0     H13250   8.340   9.808   0.645  1.4676 -0.7504  0.4521
  839MOL0     H13251   8.814   9.697   0.539  0.7420  0.9229  0.2065
  839MOL0     H13252   8.953   9.596   0.394  0.5140 -0.5064 -2.9080
  839MOL0     H13253   9.098   9.620  -0.030  0.2323 -1.5412 -2.1523
  839MOL0     H13254   9.035   9.778  -0.033  2.2139 -0.6122  0.1998
  839MOL0     H13255   8.806   9.700  -0.067 -2.0184 -3.7959  2.0438
  839MOL0     H13256   8.852   9.533  -0.026  1.0164 -0.7120 -0.1066
  839MOL0     H13257   9.009   9.525  -0.222  1.4702  0.9344 -0.2539
  839MOL0     H13258   8.965   9.681  -0.263 -1.3003 -0.3831 -1.4482
  839MOL0     H13259   8.739   9.615  -0.345 -0.4235 -0.7197  0.3061
  839MOL0     H13260   8.862   9.524  -0.414 -0.5832 -1.0755 -0.2929
  839MOL0     H13261   8.619   9.271  -0.165 -2.9403  0.9352  1.2037
  839MOL0     H13262   8.822   9.847   0.078 -0.7203 -2.6463 -0.5650
  839MOL0     H13263   8.613  10.048   0.218 -0.3036 -0.7087  0.6166
  839MOL0     H13264   8.618   9.954   0.078 -2.0361  1.6351  0.0659
  839MOL0     H13265   8.502   9.901   0.208  0.0145 -0.9343  0.0473
  840MOL0     O13266  10.175   4.728   2.276 -0.3687  0.0924 -0.5876
  840MOL0     C13267  10.220   4.821   2.353 -1.1800  0.7978  0.4029
  840MOL0     O13268  10.312   4.793   2.460 -0.9003  0.5081  0.8302
  840MOL0     C13269  10.414   4.704   2.436  0.8496 -0.2210  0.2387
  840MOL0     C13270  10.462   4.683   2.306 -0.4018  0.8795 -0.0740
  840MOL0     C13271  10.564   4.592   2.291  1.5283  0.0562 -0.5762
  840MOL0     C13272  10.611   4.525   2.402 -0.5281  0.1497  0.5182
  840MOL0     O13273  10.724   4.450   2.388  0.1273 -0.2665 -0.1368
  840MOL0     C13274  10.846   4.490   2.452 -0.3651  0.3848  0.1408
  840MOL0     C13275  10.963   4.412   2.396 -0.0290 -0.1423 -0.3085
  840MOL0     C13276  11.001   4.289   2.482 -0.1714 -0.2108 -0.0778
  840MOL0     C13277  10.942   4.149   2.441  0.3819 -0.2915 -0.0006
  840MOL0     C13278  10.800   4.147   2.420  1.1652 -0.2552 -0.2614
  840MOL0     C13279  10.756   3.994   2.401  0.9815 -0.1824 -0.6267
  840MOL0     C13280  10.615   3.984   2.357 -0.2428 -0.8697 -1.3405
  840MOL0     C13281  10.581   3.850   2.292  0.9376 -0.2865  0.4782
  840MOL0     N13282  10.441   3.833   2.254  0.8176 -0.9591  0.1905
  840MOL0     C13283  10.331   3.853   2.336  0.5973 -0.4009  0.3194
  840MOL0     C13284  10.228   3.780   2.279 -0.6800  0.3216  0.6062
  840MOL0     C13285  10.086   3.780   2.321 -0.0062  0.3565 -0.4974
  840MOL0     C13286   9.997   3.885   2.253  0.2141  0.1442  0.1611
  840MOL0     C13287   9.927   3.825   2.132  0.1095  0.1901  0.9907
  840MOL0     C13288   9.835   3.931   2.065 -0.1695 -1.4762  0.7121
  840MOL0     O13289   9.708   3.927   2.130 -0.8191  0.3001  0.3543
  840MOL0     C13290   9.625   4.038   2.111  0.6457 -0.2555 -0.4953
  840MOL0     C13291   9.507   4.023   2.181 -0.0034 -0.0463 -0.1029
  840MOL0     C13292   9.397   4.118   2.166  0.0981 -0.6211  0.5451
  840MOL0     C13293   9.411   4.228   2.083 -0.5306  0.0482  0.2913
  840MOL0     C13294   9.294   4.316   2.049  0.1829  0.2613 -0.4765
  840MOL0     O13295   9.324   4.424   1.986 -0.6764  0.7420  0.0514
  840MOL0     C13296   9.235   4.521   1.960  0.4761  0.5350  0.1953
  840MOL0     C13297   9.153   4.587   2.054  0.5496 -0.4667 -0.1684
  840MOL0     C13298   9.091   4.707   2.023  0.7059  0.3650 -0.0396
  840MOL0     C13299   9.096   4.761   1.887  0.6327 -0.3878  0.0175
  840MOL0     O13300   9.043   4.887   1.851  0.4083  0.1325  0.2812
  840MOL0     C13301   8.956   4.965   1.941  0.3543  0.6088 -0.2615
  840MOL0     C13302   8.870   5.055   1.860 -0.9239 -0.6285  0.2614
  840MOL0     C13303   8.932   5.131   1.753 -0.1666  0.4506 -0.6195
  840MOL0     C13304   8.835   5.209   1.666 -0.1572  0.0008 -0.5904
  840MOL0     C13305   8.901   5.344   1.620  0.6898 -0.8898  0.4282
  840MOL0     C13306   8.797   5.434   1.550  0.5401 -0.1387  0.6537
  840MOL0     C13307   8.671   5.459   1.647  0.1197  0.2621  0.8317
  840MOL0     C13308   8.600   5.593   1.604  0.2940  0.5430 -0.3713
  840MOL0    Cl13309   8.452   5.619   1.712 -0.5322  0.7279  0.1428
  840MOL0     C13310   9.181   4.695   1.796 -0.0327 -0.9615  0.1591
  840MOL0     C13311   9.240   4.576   1.837 -0.6101 -0.3533 -0.5756
  840MOL0     O13312   9.179   4.273   2.077  0.6428  0.8610 -0.3633
  840MOL0     C13313   9.539   4.243   2.014  0.2723 -0.2963 -0.6553
  840MOL0     C13314   9.635   4.146   2.020 -0.0152  0.3634 -0.3439
  840MOL0     N13315  10.283   3.714   2.167  0.4540 -1.1706  0.0342
  840MOL0     N13316  10.408   3.743   2.149 -0.2022 -1.1366  0.5574
  840MOL0     C13317  10.559   4.545   2.523 -0.1476 -0.3522  0.1865
  840MOL0     C13318  10.468   4.647   2.545 -0.1477 -0.4023 -0.6650
  840MOL0     C13319  10.160   4.957   2.334 -0.0457 -0.4063 -0.1466
  840MOL0     C13320  10.139   5.023   2.460  0.4982  0.1650  0.7477
  840MOL0     C13321  10.101   5.158   2.462  0.6409  0.5833  0.4648
  840MOL0     C13322  10.085   5.227   2.347 -0.3114  0.0266  1.3417
  840MOL0     O13323  10.043   5.352   2.375 -0.0565 -0.3108  0.1222
  840MOL0     C13324   9.968   5.430   2.275 -0.2673  0.0410  0.1199
  840MOL0     C13325   9.930   5.558   2.353  0.0442 -0.2877  0.6928
  840MOL0     C13326   9.820   5.538   2.455  0.1440  0.0830 -0.0499
  840MOL0     C13327   9.866   5.498   2.606  0.2435 -0.1396  0.5273
  840MOL0     C13328   9.752   5.470   2.691 -0.7308  0.8733 -0.9364
  840MOL0     C13329   9.643   5.423   2.717 -0.4513 -0.0050 -0.4295
  840MOL0     C13330  10.097   5.166   2.217 -0.0113  0.5621 -0.4227
  840MOL0     C13331  10.137   5.030   2.217  0.5334  0.4058  0.0149
  840MOL0     C13332  10.172   4.980   2.080 -0.5066 -0.1718  0.9249
  840MOL0     H13333  10.420   4.731   2.218 -2.5304  2.5821  1.7537
  840MOL0     H13334  10.618   4.581   2.197  1.8146 -2.5218 -0.1795
  840MOL0     H13335  10.853   4.598   2.442  0.8220  0.1053 -2.9259
  840MOL0     H13336  10.841   4.456   2.556 -1.4193 -1.3697 -0.4327
  840MOL0     H13337  11.056   4.468   2.408  0.8242 -1.7166  0.7354
  840MOL0     H13338  10.951   4.381   2.292  0.0535 -1.5410  0.0708
  840MOL0     H13339  10.975   4.305   2.587  1.0746  0.3362  0.1672
  840MOL0     H13340  11.109   4.278   2.480 -0.0393  0.9794 -1.2090
  840MOL0     H13341  10.992   4.121   2.348  2.4545 -0.0935  0.9920
  840MOL0     H13342  10.971   4.079   2.520  1.2618  0.4317  0.3361
  840MOL0     H13343  10.751   4.198   2.503  1.2391 -0.9665  0.2266
  840MOL0     H13344  10.775   4.210   2.334 -1.7639  0.3046  0.9217
  840MOL0     H13345  10.809   3.942   2.320  0.0384 -0.8704 -0.8152
  840MOL0     H13346  10.776   3.940   2.494  2.1366  1.3593  0.0624
  840MOL0     H13347  10.599   4.075   2.298  0.4993 -0.0077 -0.2396
  840MOL0     H13348  10.550   3.992   2.444  0.6873  0.3710 -0.7192
  840MOL0     H13349  10.639   3.839   2.200  1.5508 -0.6628  0.9051
  840MOL0     H13350  10.612   3.761   2.348 -0.1703 -1.3123 -0.4737
  840MOL0     H13351  10.336   3.908   2.429  0.0081  1.0799 -0.4941
  840MOL0     H13352  10.052   3.677   2.305  3.6563 -1.5724  2.3255
  840MOL0     H13353  10.088   3.797   2.429 -0.6962 -2.5714  0.0616
  840MOL0     H13354   9.920   3.902   2.328 -1.7551 -2.9513 -0.9717
  840MOL0     H13355  10.052   3.977   2.232 -1.4011  1.1501  0.2260
  840MOL0     H13356   9.859   3.745   2.163  0.7889 -0.9556 -0.3312
  840MOL0     H13357   9.996   3.776   2.062  0.1996  0.3525  0.9660
  840MOL0     H13358   9.826   3.916   1.957  2.7324  1.7267 -0.1674
  840MOL0     H13359   9.880   4.030   2.079 -1.1591 -1.0061  0.6967
  840MOL0     H13360   9.498   3.932   2.238  0.7387 -1.2175 -1.7557
  840MOL0     H13361   9.310   4.083   2.221 -2.0392 -1.0381 -2.8336
  840MOL0     H13362   9.159   4.554   2.157 -0.2263  3.0657  1.1530
  840MOL0     H13363   9.048   4.768   2.102 -0.9562 -0.8995  0.1041
  840MOL0     H13364   8.885   4.901   1.995 -0.6700  1.2882 -0.7747
  840MOL0     H13365   9.015   5.037   1.998 -1.3603  0.2066  2.2028
  840MOL0     H13366   8.794   4.992   1.812  0.4060 -0.8217 -1.6920
  840MOL0     H13367   8.801   5.108   1.927 -0.3816  1.0589 -0.4382
  840MOL0     H13368   9.011   5.197   1.791  1.3014 -1.9885  0.7973
  840MOL0     H13369   8.987   5.067   1.683  2.9579  2.7482 -0.4987
  840MOL0     H13370   8.744   5.240   1.719 -2.2803 -3.0165 -2.1922
  840MOL0     H13371   8.803   5.159   1.574 -1.2990  3.1711 -2.0657
  840MOL0     H13372   8.983   5.314   1.555 -1.2540  0.9795 -3.2277
  840MOL0     H13373   8.943   5.397   1.706 -0.6066 -1.2885  1.3531
  840MOL0     H13374   8.840   5.530   1.519  0.2393 -0.4146 -0.6974
  840MOL0     H13375   8.783   5.391   1.451  1.5916  2.2323 -0.6123
  840MOL0     H13376   8.715   5.465   1.747  2.2632 -1.3988  0.0711
  840MOL0     H13377   8.602   5.374   1.645 -0.4857  0.7530  0.1156
  840MOL0     H13378   8.669   5.677   1.615  1.7313 -0.6895  0.3489
  840MOL0     H13379   8.567   5.598   1.500 -1.0889 -0.9289 -0.0383
  840MOL0     H13380   9.206   4.752   1.707  1.3183 -0.1440  1.0238
  840MOL0     H13381   9.302   4.529   1.762 -1.0248  0.1000 -1.2115
  840MOL0     H13382   9.541   4.327   1.946  1.9916 -0.6015 -1.0498
  840MOL0     H13383   9.726   4.157   1.962  0.0614 -3.9231 -1.3987
  840MOL0     H13384  10.607   4.505   2.612  0.9256  0.8421  0.1821
  840MOL0     H13385  10.450   4.679   2.647 -0.5320  1.3496 -1.2514
  840MOL0     H13386  10.161   4.963   2.547 -0.2060  1.8930  2.1956
  840MOL0     H13387  10.080   5.206   2.557 -1.2791 -0.1618  0.4670
  840MOL0     H13388   9.878   5.372   2.256  0.6894 -1.5710  0.2919
  840MOL0     H13389  10.016   5.452   2.179  0.2402 -1.3988  0.0289
  840MOL0     H13390   9.878   5.623   2.281  1.0558  0.7618  0.8818
  840MOL0     H13391  10.023   5.606   2.386  0.0330 -0.5095  1.0553
  840MOL0     H13392   9.758   5.456   2.419  0.8624  0.6321 -2.8338
  840MOL0     H13393   9.756   5.627   2.454  0.8336  0.6001  0.4080
  840MOL0     H13394   9.930   5.411   2.626 -0.1884  0.2238  4.0923
  840MOL0     H13395   9.911   5.584   2.657 -0.6883 -0.8568  2.6386
  840MOL0     H13396   9.548   5.376   2.732 -0.2361 -1.0720 -2.2266
  840MOL0     H13397  10.087   5.226   2.127  3.9438  0.6855 -0.9433
  840MOL0     H13398  10.089   4.916   2.049 -1.3652  0.3055  2.1866
  840MOL0     H13399  10.186   5.058   2.006 -3.8579 -1.3913 -1.2295
  840MOL0     H13400  10.265   4.923   2.088  0.0241  0.9077  3.5537
  841MOL0     O13401   7.903   3.385   5.104 -0.0412  0.2256  0.6923
  841MOL0     C13402   7.963   3.420   5.001  0.3775  1.0416  1.1293
  841MOL0     O13403   7.972   3.345   4.898  0.1540  0.0290  0.0781
  841MOL0     C13404   7.885   3.233   4.872 -0.4781 -0.0381 -0.1645
  841MOL0     C13405   7.752   3.210   4.907 -0.8889  0.2070 -0.1670
  841MOL0     C13406   7.691   3.094   4.856 -0.1375 -0.1285 -0.3808
  841MOL0     C13407   7.765   3.014   4.761 -0.0816 -0.6908  0.5887
  841MOL0     O13408   7.687   2.918   4.702  0.3417 -0.0805  0.8575
  841MOL0     C13409   7.757   2.797   4.650  0.1200  0.3328  0.2747
  841MOL0     C13410   7.817   2.718   4.763 -0.2032  0.0274 -0.2723
  841MOL0     C13411   7.858   2.584   4.712 -0.1409 -0.2783 -0.3065
  841MOL0     C13412   7.925   2.515   4.833  0.4977  0.2039 -0.0766
  841MOL0     C13413   7.962   2.374   4.802  0.2725 -0.2362  0.2345
  841MOL0     C13414   7.836   2.271   4.820  0.4478 -0.3032  0.2779
  841MOL0     C13415   7.863   2.125   4.838  0.2884 -0.4295  0.3410
  841MOL0     C13416   7.732   2.046   4.829  0.3469  0.7083  0.3424
  841MOL0     N13417   7.747   1.896   4.795  0.9937 -0.0610  0.3817
  841MOL0     C13418   7.828   1.806   4.858  0.0452  0.3781  0.2623
  841MOL0     C13419   7.815   1.698   4.792 -0.4403 -0.2958 -0.0247
  841MOL0     C13420   7.883   1.573   4.808 -0.0607  0.9971  0.4515
  841MOL0     C13421   7.828   1.502   4.931 -0.5528 -0.2280 -0.4766
  841MOL0     C13422   7.751   1.377   4.914  0.3294 -0.1547 -1.4078
  841MOL0     C13423   7.705   1.301   5.038  0.1042  0.4574  0.1307
  841MOL0     O13424   7.668   1.386   5.146 -0.2887  0.3545 -0.2882
  841MOL0     C13425   7.632   1.325   5.267  0.8042  0.7271  0.6016
  841MOL0     C13426   7.599   1.412   5.367 -0.8975  0.6106 -0.2804
  841MOL0     C13427   7.533   1.372   5.482  0.9012  1.0537 -0.8481
  841MOL0     C13428   7.505   1.239   5.518  0.4002  0.3412  0.0376
  841MOL0     C13429   7.414   1.202   5.638 -0.8096 -0.1221 -0.1863
  841MOL0     O13430   7.357   1.307   5.702 -0.8426  0.7980 -0.0185
  841MOL0     C13431   7.265   1.283   5.806  1.4763  1.0587 -0.7017
  841MOL0     C13432   7.247   1.386   5.909  0.6757  0.0954  0.8660
  841MOL0     C13433   7.144   1.370   6.008 -0.0203 -0.1322  1.0929
  841MOL0     C13434   7.053   1.267   6.000  0.3187  0.2645 -0.1177
  841MOL0     O13435   6.946   1.284   6.079 -0.2728  0.4989 -0.7260
  841MOL0     C13436   6.891   1.160   6.119  0.4650 -0.3917 -0.1036
  841MOL0     C13437   6.781   1.158   6.223  0.8288 -0.4447  0.9592
  841MOL0     C13438   6.833   1.230   6.352 -0.0277 -0.1369  0.7988
  841MOL0     C13439   6.732   1.213   6.472 -0.2320  0.1020 -0.4292
  841MOL0     C13440   6.793   1.255   6.599 -0.5336 -0.5746  0.8894
  841MOL0     C13441   6.708   1.205   6.717  0.9868 -0.3110 -0.3045
  841MOL0     C13442   6.745   1.264   6.848 -0.2949 -0.3724 -0.3754
  841MOL0     C13443   6.657   1.197   6.955  0.8333 -0.3761 -0.2668
  841MOL0    Cl13444   6.490   1.251   6.939  0.5308 -0.0058  0.0327
  841MOL0     C13445   7.067   1.167   5.904 -0.2960 -0.4761  0.3020
  841MOL0     C13446   7.174   1.178   5.815 -0.9098 -0.5688  0.2404
  841MOL0     O13447   7.398   1.088   5.656 -0.0770  0.4836  0.5385
  841MOL0     C13448   7.555   1.145   5.424 -0.7563  0.1772  0.5003
  841MOL0     C13449   7.617   1.185   5.298  0.0503  0.1977  0.4764
  841MOL0     N13450   7.742   1.721   4.681  0.2824 -0.2782 -1.4235
  841MOL0     N13451   7.688   1.834   4.692  1.0024  0.0906 -0.8467
  841MOL0     C13452   7.898   3.037   4.726  0.1079  0.0858 -0.4405
  841MOL0     C13453   7.956   3.143   4.790  0.4473 -0.0476 -0.0912
  841MOL0     C13454   8.038   3.544   5.001  0.3975 -0.0566 -0.7338
  841MOL0     C13455   8.145   3.566   4.900  0.1632  0.9410 -0.9132
  841MOL0     C13456   8.191   3.699   4.878  0.6390  0.5326  1.3930
  841MOL0     C13457   8.149   3.807   4.954 -1.1880 -0.0579 -0.1543
  841MOL0     O13458   8.187   3.942   4.951 -0.7534  0.2813  0.7728
  841MOL0     C13459   8.288   3.991   4.856  0.3044  0.5210  0.2723
  841MOL0     C13460   8.296   4.140   4.889  0.1622  0.5865  0.6439
  841MOL0     C13461   8.162   4.225   4.885  1.1481 -0.1199  0.7164
  841MOL0     C13462   8.137   4.323   4.997  0.7070  1.0603 -0.0987
  841MOL0     C13463   8.044   4.275   5.103  0.4757  0.8046  0.0038
  841MOL0     C13464   7.968   4.230   5.192  0.0113 -0.0366  0.6721
  841MOL0     C13465   8.067   3.781   5.054  0.1622 -0.8873 -1.0086
  841MOL0     C13466   8.000   3.661   5.076 -0.4934 -0.7343  0.0811
  841MOL0     C13467   7.892   3.661   5.182 -0.1850 -0.2023 -0.2073
  841MOL0     H13468   7.697   3.287   4.961 -1.6511 -1.0593  0.9315
  841MOL0     H13469   7.587   3.070   4.877  0.4289  0.8775  5.0428
  841MOL0     H13470   7.682   2.736   4.599 -0.2252 -1.8871  3.1752
  841MOL0     H13471   7.832   2.824   4.575  1.5704 -0.4546  1.4108
  841MOL0     H13472   7.737   2.705   4.836  1.0729  1.5544  1.4859
  841MOL0     H13473   7.901   2.767   4.813 -1.2371 -1.0529  2.7067
  841MOL0     H13474   7.931   2.598   4.632  0.8242 -0.3804  0.5437
  841MOL0     H13475   7.776   2.529   4.664  2.5943 -2.3427 -3.0569
  841MOL0     H13476   8.006   2.574   4.876 -0.6564  0.9751  1.1224
  841MOL0     H13477   7.853   2.508   4.915  1.1332 -0.2283  0.4601
  841MOL0     H13478   7.979   2.356   4.696 -1.3591 -0.5016 -0.0085
  841MOL0     H13479   8.057   2.346   4.850  1.8045  0.0179 -2.4468
  841MOL0     H13480   7.790   2.303   4.914  1.3385 -0.6663  0.8640
  841MOL0     H13481   7.776   2.279   4.730 -0.0307 -2.0305  0.3924
  841MOL0     H13482   7.922   2.109   4.929  2.8061  0.3541 -1.0466
  841MOL0     H13483   7.930   2.098   4.756 -2.0202  0.7405 -2.0880
  841MOL0     H13484   7.688   2.053   4.929  1.5547  0.3648  0.9236
  841MOL0     H13485   7.660   2.091   4.761  0.8507 -0.9320 -1.3813
  841MOL0     H13486   7.887   1.816   4.948 -0.9610 -1.8435  1.2521
  841MOL0     H13487   7.849   1.508   4.727 -4.3396  0.4157  2.4178
  841MOL0     H13488   7.991   1.586   4.818 -0.0055  0.0549  1.2160
  841MOL0     H13489   7.917   1.473   4.987  0.7676  2.0350 -1.2876
  841MOL0     H13490   7.771   1.567   4.997  0.4379 -1.1340  1.3303
  841MOL0     H13491   7.808   1.300   4.860  1.0354 -3.2266  3.2109
  841MOL0     H13492   7.658   1.407   4.865 -2.1398 -0.7330  2.5216
  841MOL0     H13493   7.780   1.227   5.068  2.6802  2.9846  0.2547
  841MOL0     H13494   7.623   1.239   5.000  0.5562 -0.4304  0.5713
  841MOL0     H13495   7.617   1.518   5.351  1.0863  0.4748  0.8485
  841MOL0     H13496   7.487   1.450   5.543  1.8283  1.6653 -0.9111
  841MOL0     H13497   7.316   1.469   5.909 -0.9857  1.5299  0.9486
  841MOL0     H13498   7.129   1.448   6.082  0.3854  0.5470  0.4696
  841MOL0     H13499   6.849   1.107   6.033 -3.0520  2.5513 -0.4507
  841MOL0     H13500   6.968   1.095   6.161  2.0939  1.1144 -0.6279
  841MOL0     H13501   6.684   1.189   6.184  2.2398 -0.0618 -2.6349
  841MOL0     H13502   6.766   1.053   6.250  0.3525 -0.2388  1.5140
  841MOL0     H13503   6.923   1.182   6.391 -1.7966 -4.4263  0.1888
  841MOL0     H13504   6.841   1.337   6.331 -1.1541 -0.6009 -2.7828
  841MOL0     H13505   6.699   1.109   6.482  1.0624 -0.1607  2.3105
  841MOL0     H13506   6.644   1.274   6.450 -1.0411  2.3359  6.3475
  841MOL0     H13507   6.812   1.363   6.602 -3.4554  0.2898 -3.2091
  841MOL0     H13508   6.882   1.191   6.608 -1.2410 -1.6040  0.7120
  841MOL0     H13509   6.601   1.225   6.704  0.0277 -2.6939  2.6019
  841MOL0     H13510   6.715   1.096   6.715 -0.9564 -0.5308 -3.8326
  841MOL0     H13511   6.713   1.367   6.834 -1.7515 -1.1325 -3.7594
  841MOL0     H13512   6.853   1.258   6.866  0.6472  4.3284 -2.8075
  841MOL0     H13513   6.657   1.088   6.950 -0.1599 -0.6778  3.3165
  841MOL0     H13514   6.691   1.241   7.049 -0.7010 -0.5743  0.4070
  841MOL0     H13515   6.997   1.085   5.894 -2.4678  1.0465  1.9764
  841MOL0     H13516   7.162   1.103   5.738 -6.5208  1.2446 -1.1697
  841MOL0     H13517   7.527   1.042   5.439 -2.7368  0.8926  2.2577
  841MOL0     H13518   7.646   1.107   5.228  0.4923  0.1223  0.7349
  841MOL0     H13519   7.945   2.968   4.656 -0.5309 -1.2695  0.4250
  841MOL0     H13520   8.055   3.183   4.769  1.6125 -1.7067  1.8178
  841MOL0     H13521   8.167   3.482   4.836 -0.1426  0.3493 -0.2518
  841MOL0     H13522   8.252   3.708   4.789  0.0610  0.3917  0.9759
  841MOL0     H13523   8.250   3.981   4.754  1.5966  4.7558 -0.8253
  841MOL0     H13524   8.383   3.937   4.858 -0.8093 -1.6021 -0.7432
  841MOL0     H13525   8.367   4.188   4.822  0.5584 -0.8705 -0.0184
  841MOL0     H13526   8.331   4.148   4.992 -0.9179 -3.6371  1.5133
  841MOL0     H13527   8.079   4.158   4.861  1.3070  0.2253 -0.9154
  841MOL0     H13528   8.183   4.285   4.796  1.6453 -0.8184  0.3554
  841MOL0     H13529   8.222   4.375   5.043  1.0811 -0.2689  0.7581
  841MOL0     H13530   8.076   4.402   4.951  0.9123  0.0304 -2.2975
  841MOL0     H13531   7.903   4.209   5.275  0.7191 -3.4131  0.5020
  841MOL0     H13532   8.045   3.859   5.127  1.3186 -1.3067 -0.1790
  841MOL0     H13533   7.804   3.620   5.132  0.5107 -2.2419  0.1645
  841MOL0     H13534   7.915   3.612   5.277 -0.7855  1.1130  0.6388
  841MOL0     H13535   7.862   3.760   5.217 -0.2283 -0.5612  0.8031
  842MOL0     O13536   5.019   4.462   5.532  0.9984  0.4748 -0.5492
  842MOL0     C13537   5.056   4.438   5.650  0.4113 -0.3429  0.3320
  842MOL0     O13538   5.092   4.314   5.700 -0.5920 -0.5112  0.4564
  842MOL0     C13539   5.026   4.206   5.655  0.8052 -0.4407 -0.1997
  842MOL0     C13540   4.919   4.162   5.736  0.4585  0.2938  0.5224
  842MOL0     C13541   4.852   4.044   5.705  1.1205  1.0073 -0.3248
  842MOL0     C13542   4.899   3.960   5.592  0.0393 -0.1256  0.0722
  842MOL0     O13543   4.854   3.836   5.562 -0.8816  0.5147  0.6038
  842MOL0     C13544   4.776   3.764   5.651  0.2683 -0.7543  0.6430
  842MOL0     C13545   4.812   3.621   5.652 -0.5712  0.1902 -0.2729
  842MOL0     C13546   4.752   3.545   5.536  0.0012 -0.3267 -0.0541
  842MOL0     C13547   4.818   3.405   5.523  0.3106 -0.4924 -0.0992
  842MOL0     C13548   4.755   3.327   5.408 -0.2282  0.6067  0.0286
  842MOL0     C13549   4.643   3.246   5.469 -0.4624 -0.0578 -0.1147
  842MOL0     C13550   4.613   3.127   5.376 -0.2369  0.1753 -0.0199
  842MOL0     C13551   4.470   3.072   5.407 -0.2835 -0.2313 -0.8502
  842MOL0     N13552   4.422   2.968   5.320  0.2902 -0.2103  0.1537
  842MOL0     C13553   4.476   2.842   5.311 -0.0596  0.0513  0.1797
  842MOL0     C13554   4.387   2.770   5.235  0.0501 -0.3450  0.2791
  842MOL0     C13555   4.396   2.625   5.195  0.0433 -0.0160 -0.2054
  842MOL0     C13556   4.312   2.535   5.283 -0.3014 -0.0386  0.0809
  842MOL0     C13557   4.172   2.554   5.216  0.7385 -0.4558 -0.1474
  842MOL0     C13558   4.081   2.460   5.283  0.7448  0.0679 -0.9153
  842MOL0     O13559   4.100   2.319   5.256  0.6877 -0.0810 -0.1379
  842MOL0     C13560   3.996   2.243   5.297 -1.2086 -0.0420  0.2061
  842MOL0     C13561   3.924   2.263   5.413 -0.1644 -0.6650 -1.6223
  842MOL0     C13562   3.817   2.181   5.454  0.7039  0.4613 -0.5983
  842MOL0     C13563   3.782   2.063   5.374  0.1064  0.1563  0.2221
  842MOL0     C13564   3.671   1.963   5.405  0.8505  0.1548 -0.6400
  842MOL0     O13565   3.687   1.834   5.356 -0.9093 -0.2054  0.1001
  842MOL0     C13566   3.594   1.733   5.363  0.4676 -0.7354 -0.2751
  842MOL0     C13567   3.624   1.596   5.376 -0.3748  0.1607 -0.9175
  842MOL0     C13568   3.520   1.496   5.357 -0.3568 -0.3829 -0.2160
  842MOL0     C13569   3.398   1.535   5.308  0.2572  0.6716  0.1384
  842MOL0     O13570   3.306   1.437   5.273  0.1971  0.1467 -0.3792
  842MOL0     C13571   3.166   1.463   5.261  0.1525  0.2892 -0.1121
  842MOL0     C13572   3.091   1.332   5.220  0.9354  0.2187  0.0143
  842MOL0     C13573   2.935   1.351   5.226 -0.0054  0.7868 -0.7666
  842MOL0     C13574   2.874   1.220   5.182 -0.1771  1.1990  0.4797
  842MOL0     C13575   2.724   1.234   5.197 -1.4460  0.9847 -0.6869
  842MOL0     C13576   2.647   1.123   5.124  0.7567 -0.9987  0.1368
  842MOL0     C13577   2.600   1.175   4.980 -0.8520  0.3438  0.4831
  842MOL0     C13578   2.524   1.073   4.900  0.3108  0.4318 -0.4379
  842MOL0    Cl13579   2.619   0.930   4.874 -0.1129 -0.2007 -0.1821
  842MOL0     C13580   3.378   1.673   5.285  0.3833 -0.3225  0.5641
  842MOL0     C13581   3.478   1.771   5.303 -0.1835  0.6799 -0.9393
  842MOL0     O13582   3.574   2.005   5.462  0.1026  0.5383  0.2638
  842MOL0     C13583   3.859   2.044   5.257  0.6901  0.1897  0.2687
  842MOL0     C13584   3.962   2.128   5.222 -0.8906  0.0766  0.0107
  842MOL0     N13585   4.287   2.859   5.191 -0.4840  0.6476 -0.8692
  842MOL0     N13586   4.307   2.974   5.251  0.0085  0.7679 -1.0285
  842MOL0     C13587   5.011   4.001   5.521  0.5797 -0.0896  0.5906
  842MOL0     C13588   5.065   4.126   5.555 -0.2094  0.6836 -0.5128
  842MOL0     C13589   5.103   4.549   5.720 -0.7519 -0.5257  0.0767
  842MOL0     C13590   5.012   4.658   5.731 -0.7226 -0.3408 -0.2568
  842MOL0     C13591   5.048   4.772   5.806 -0.2235  0.5160 -0.2568
  842MOL0     C13592   5.172   4.777   5.869  0.1830 -0.1185 -0.2730
  842MOL0     O13593   5.205   4.895   5.926  0.2648  0.2632 -0.2161
  842MOL0     C13594   5.293   4.894   6.043 -0.2575  0.4104 -0.2925
  842MOL0     C13595   5.263   4.998   6.157 -0.2021  0.0755  0.1062
  842MOL0     C13596   5.171   4.948   6.267  0.0626 -0.5201 -0.8843
  842MOL0     C13597   5.127   5.057   6.357  1.1024 -0.5091 -0.7087
  842MOL0     C13598   5.025   5.009   6.451  0.5406 -0.2889 -0.4277
  842MOL0     C13599   4.947   4.957   6.532 -0.2142  0.4667 -0.4950
  842MOL0     C13600   5.271   4.678   5.855  1.3779  0.2549 -0.2463
  842MOL0     C13601   5.236   4.562   5.776  0.1394 -0.2690  0.1993
  842MOL0     C13602   5.342   4.463   5.752 -0.0450  0.1788  0.3202
  842MOL0     H13603   4.872   4.229   5.807 -2.7893 -0.9436 -0.2632
  842MOL0     H13604   4.764   4.009   5.758  1.4486 -0.0790 -0.4903
  842MOL0     H13605   4.789   3.807   5.751 -1.5874  1.7861 -0.0899
  842MOL0     H13606   4.669   3.763   5.631  0.0033 -0.8398  1.9811
  842MOL0     H13607   4.788   3.560   5.740  1.0534 -2.8424 -1.7676
  842MOL0     H13608   4.920   3.613   5.636 -0.3083  1.4859  0.6796
  842MOL0     H13609   4.754   3.608   5.448 -1.8219  1.8356  1.3465
  842MOL0     H13610   4.647   3.527   5.560 -0.9627  0.6151 -3.1092
  842MOL0     H13611   4.920   3.436   5.498 -0.0107 -0.3346 -1.2817
  842MOL0     H13612   4.812   3.352   5.618  1.6907  0.7441  0.7133
  842MOL0     H13613   4.715   3.398   5.335  0.3354  2.7713  1.7299
  842MOL0     H13614   4.832   3.266   5.359  0.1957  1.5993 -0.5644
  842MOL0     H13615   4.668   3.210   5.569  1.4278 -0.9041 -0.8504
  842MOL0     H13616   4.559   3.316   5.474 -1.1738 -0.9297  0.4762
  842MOL0     H13617   4.681   3.043   5.392  1.1529  0.8278 -2.0952
  842MOL0     H13618   4.598   3.157   5.272 -2.4654  1.2032  0.5388
  842MOL0     H13619   4.480   3.043   5.512 -0.3785  1.4744 -0.3351
  842MOL0     H13620   4.405   3.159   5.395  0.7632  0.6557 -0.3294
  842MOL0     H13621   4.574   2.817   5.351 -1.0115 -2.4378  1.1631
  842MOL0     H13622   4.373   2.614   5.089  0.3449  0.2211 -0.2925
  842MOL0     H13623   4.500   2.593   5.208  0.2935 -0.6860 -3.1927
  842MOL0     H13624   4.347   2.431   5.279  2.6688  0.8368  0.9154
  842MOL0     H13625   4.298   2.555   5.390 -0.0272 -2.6519  0.6739
  842MOL0     H13626   4.160   2.541   5.108  0.4548 -0.0665 -0.1662
  842MOL0     H13627   4.137   2.653   5.249  0.2882 -1.0311  1.1466
  842MOL0     H13628   3.986   2.506   5.256  0.6109  1.5502  1.7147
  842MOL0     H13629   4.098   2.473   5.391  1.0998 -1.4758 -0.7679
  842MOL0     H13630   3.950   2.350   5.473 -1.1674  0.3211 -2.5497
  842MOL0     H13631   3.753   2.209   5.537  2.0814 -0.8343  0.9679
  842MOL0     H13632   3.729   1.566   5.380 -0.1725  0.7364 -1.6662
  842MOL0     H13633   3.541   1.390   5.371  1.0700 -0.2709 -1.2302
  842MOL0     H13634   3.126   1.476   5.362 -0.0788  1.3888 -0.3378
  842MOL0     H13635   3.143   1.539   5.187 -0.4175 -0.1174 -0.3614
  842MOL0     H13636   3.121   1.283   5.127  0.2422  0.9479 -0.5978
  842MOL0     H13637   3.106   1.259   5.300  1.1026 -1.4226 -1.4478
  842MOL0     H13638   2.905   1.366   5.330  0.0225 -2.4104 -0.1944
  842MOL0     H13639   2.907   1.439   5.167  2.5925  1.3707 -1.2797
  842MOL0     H13640   2.916   1.145   5.250  0.0035  1.1791  0.3479
  842MOL0     H13641   2.901   1.191   5.080 -0.7163 -0.7811  0.8583
  842MOL0     H13642   2.678   1.326   5.160  0.4840  1.0930 -3.1054
  842MOL0     H13643   2.691   1.237   5.301 -2.0769 -1.1451 -0.7675
  842MOL0     H13644   2.705   1.030   5.121 -0.1433 -1.5498 -1.0215
  842MOL0     H13645   2.564   1.095   5.189  1.6092 -2.9447  0.4496
  842MOL0     H13646   2.683   1.198   4.912 -1.0022  1.8748  0.7860
  842MOL0     H13647   2.536   1.263   4.992 -0.9336  0.1230  1.8020
  842MOL0     H13648   2.441   1.046   4.966  0.3267  0.3335 -0.4574
  842MOL0     H13649   2.488   1.111   4.804 -0.6369  0.0385 -0.2509
  842MOL0     H13650   3.284   1.686   5.234 -0.9224 -0.6325  2.7458
  842MOL0     H13651   3.453   1.872   5.274 -1.0560  0.4288 -1.1246
  842MOL0     H13652   3.833   1.969   5.183 -0.7976  1.8570 -1.0008
  842MOL0     H13653   4.010   2.105   5.128 -0.4809 -1.8405  0.6348
  842MOL0     H13654   5.045   3.946   5.434 -1.2559 -3.1188  1.6426
  842MOL0     H13655   5.154   4.145   5.496  1.2274 -3.1541  0.1436
  842MOL0     H13656   4.925   4.662   5.665 -0.9854 -1.6656 -0.0290
  842MOL0     H13657   4.980   4.856   5.802  0.9620  1.5056 -0.0739
  842MOL0     H13658   5.394   4.907   6.001 -0.5443  1.4774 -0.6980
  842MOL0     H13659   5.295   4.796   6.090 -0.0996 -0.3663 -1.8616
  842MOL0     H13660   5.203   5.074   6.107  0.7749  1.3288  0.7976
  842MOL0     H13661   5.349   5.052   6.197 -0.5265  1.1459 -0.6065
  842MOL0     H13662   5.220   4.859   6.307 -1.5175 -1.2308 -0.4638
  842MOL0     H13663   5.076   4.911   6.226 -0.8681  2.0362 -1.2155
  842MOL0     H13664   5.214   5.099   6.409 -0.6377  0.8873  1.2814
  842MOL0     H13665   5.090   5.144   6.302  3.0126  1.9252  1.5630
  842MOL0     H13666   4.894   4.898   6.604  3.0787  0.3766  2.1358
  842MOL0     H13667   5.372   4.680   5.895  0.2988  0.3601  2.7733
  842MOL0     H13668   5.319   4.365   5.792 -3.2800  0.9925  0.7587
  842MOL0     H13669   5.369   4.467   5.646 -0.6247  0.3739  0.1720
  842MOL0     H13670   5.436   4.491   5.800  0.4803  0.0160 -0.5806
  843MOL0     O13671  11.241   4.043   9.092  0.0371 -0.7052  0.2053
  843MOL0     C13672  11.297   4.068   8.987  0.1639 -0.5494 -0.2355
  843MOL0     O13673  11.317   4.189   8.933  0.2757  0.9981  0.3327
  843MOL0     C13674  11.246   4.296   8.981 -0.6323  0.5271  0.1102
  843MOL0     C13675  11.221   4.319   9.115 -1.1989  0.0599  0.2826
  843MOL0     C13676  11.142   4.424   9.166 -0.2111  0.6021  0.5702
  843MOL0     C13677  11.071   4.505   9.074  0.2632  0.1520 -0.5032
  843MOL0     O13678  10.979   4.600   9.120 -0.0887 -0.2546  0.0671
  843MOL0     C13679  10.983   4.642   9.256 -1.2209  0.7269  0.0603
  843MOL0     C13680  11.125   4.712   9.286  0.3637  0.4356 -0.1186
  843MOL0     C13681  11.122   4.789   9.423  0.5070  0.1095 -0.2267
  843MOL0     C13682  11.239   4.874   9.453  0.6672 -0.2821 -0.5406
  843MOL0     C13683  11.258   4.987   9.352 -0.4251  0.0436 -0.9240
  843MOL0     C13684  11.309   5.118   9.432  0.0131 -0.5645  0.7560
  843MOL0     C13685  11.297   5.245   9.351  0.2056 -0.2488  0.7755
  843MOL0     C13686  11.340   5.365   9.439  1.1086  0.0732  0.1077
  843MOL0     N13687  11.253   5.477   9.417 -0.1901 -0.1377  0.4520
  843MOL0     C13688  11.208   5.526   9.294 -0.3359  0.2407 -0.4902
  843MOL0     C13689  11.111   5.615   9.319 -0.0274 -1.1127 -0.7768
  843MOL0     C13690  11.055   5.713   9.230  0.0700  0.7600 -0.4644
  843MOL0     C13691  11.106   5.858   9.243 -0.0907 -0.0273  0.0920
  843MOL0     C13692  11.042   5.947   9.141  0.6825  0.9731 -0.0195
  843MOL0     C13693  10.907   6.003   9.192 -0.3433  0.5678 -0.6568
  843MOL0     O13694  10.837   5.910   9.277 -0.5997 -0.7825 -0.3175
  843MOL0     C13695  10.715   5.882   9.231  0.5676  0.1179  0.6465
  843MOL0     C13696  10.704   5.786   9.135  0.2103 -0.1948  1.0992
  843MOL0     C13697  10.584   5.773   9.072  0.2062 -1.4395 -0.1197
  843MOL0     C13698  10.470   5.851   9.107  0.3838 -0.7572  0.4402
  843MOL0     C13699  10.337   5.823   9.045  0.3270 -0.7828 -0.6790
  843MOL0     O13700  10.227   5.888   9.078 -0.1558 -0.3958 -0.7980
  843MOL0     C13701  10.117   5.852   8.996 -0.0238 -0.8430  0.1275
  843MOL0     C13702  10.062   5.719   8.990  0.3369 -0.4984 -0.7091
  843MOL0     C13703   9.957   5.690   8.905  0.3921  0.3047  0.1847
  843MOL0     C13704   9.918   5.788   8.815 -0.1125  1.0078 -0.0933
  843MOL0     O13705   9.816   5.751   8.729 -0.2017  0.5324  0.1682
  843MOL0     C13706   9.869   5.733   8.593 -0.4894 -0.4726  0.0290
  843MOL0     C13707   9.882   5.580   8.575  0.0043  0.4712 -0.3484
  843MOL0     C13708   9.754   5.494   8.600  0.5966 -0.7775 -0.5491
  843MOL0     C13709   9.645   5.546   8.500 -0.4226  0.4030  0.9472
  843MOL0     C13710   9.523   5.462   8.483 -0.3985  0.4993  0.0852
  843MOL0     C13711   9.541   5.311   8.475  0.2984  0.0337 -0.4943
  843MOL0     C13712   9.419   5.224   8.448  0.4802  0.5315 -0.0435
  843MOL0     C13713   9.406   5.191   8.305 -0.8724 -0.8208  0.4525
  843MOL0    Cl13714   9.249   5.137   8.260  0.3722 -0.1074 -0.4420
  843MOL0     C13715   9.969   5.914   8.815 -0.7660 -0.4625  0.0737
  843MOL0     C13716  10.071   5.947   8.906 -0.5844 -0.0431 -0.2692
  843MOL0     O13717  10.341   5.731   8.968  0.3421 -0.4000 -0.7016
  843MOL0     C13718  10.486   5.958   9.200  0.8900 -0.3892  0.1123
  843MOL0     C13719  10.611   5.972   9.260 -1.0389 -0.0827  0.5153
  843MOL0     N13720  11.108   5.631   9.461  0.5284 -0.2798  1.3157
  843MOL0     N13721  11.182   5.540   9.513  0.0474  0.5552  0.7781
  843MOL0     C13722  11.080   4.474   8.937 -0.6226 -0.3492 -0.5314
  843MOL0     C13723  11.175   4.384   8.892  0.8766  0.5977  0.3416
  843MOL0     C13724  11.337   3.947   8.906  0.0731 -0.6455 -0.2316
  843MOL0     C13725  11.356   3.967   8.764  1.0912  0.3192  0.7321
  843MOL0     C13726  11.396   3.858   8.678  0.7506 -0.8429  0.2588
  843MOL0     C13727  11.428   3.735   8.727  0.2594  0.5463  0.7237
  843MOL0     O13728  11.465   3.635   8.642 -0.4520 -1.2406  0.4682
  843MOL0     C13729  11.538   3.520   8.687 -0.7108 -0.4744 -0.3609
  843MOL0     C13730  11.664   3.515   8.609 -0.1831  0.6377 -0.6006
  843MOL0     C13731  11.653   3.467   8.468  0.4000  0.0054  0.7439
  843MOL0     C13732  11.696   3.325   8.454  0.2278  0.6537 -1.6625
  843MOL0     C13733  11.661   3.266   8.328 -0.0868  0.4653 -0.0832
  843MOL0     C13734  11.612   3.218   8.228  0.0420 -0.3498  0.0602
  843MOL0     C13735  11.417   3.717   8.861 -0.8788  0.2196  0.4362
  843MOL0     C13736  11.371   3.820   8.949 -0.0059  0.1912  0.4159
  843MOL0     C13737  11.362   3.787   9.109 -0.4859  0.5941 -0.2966
  843MOL0     H13738  11.271   4.253   9.184 -1.3132 -2.2181 -1.6650
  843MOL0     H13739  11.122   4.429   9.273 -2.8884  1.1197  0.1177
  843MOL0     H13740  10.903   4.715   9.271 -2.3831 -0.3971 -0.4926
  843MOL0     H13741  10.964   4.560   9.325  0.3822  1.5960  1.6313
  843MOL0     H13742  11.144   4.783   9.205  1.5780 -0.2090 -0.4122
  843MOL0     H13743  11.215   4.652   9.298 -1.4010 -2.6948 -1.4854
  843MOL0     H13744  11.105   4.720   9.506 -2.1689 -0.6609 -1.3037
  843MOL0     H13745  11.033   4.852   9.428  0.9989  0.8168 -0.2024
  843MOL0     H13746  11.211   4.910   9.552 -1.5503 -0.8477 -0.9175
  843MOL0     H13747  11.331   4.815   9.459  0.4750 -0.6586 -1.1309
  843MOL0     H13748  11.326   4.952   9.274  1.7647 -0.9236  1.2910
  843MOL0     H13749  11.158   5.005   9.311 -0.3384  1.1993 -0.6718
  843MOL0     H13750  11.251   5.131   9.524 -2.3573 -0.7054 -0.6375
  843MOL0     H13751  11.415   5.101   9.451  1.4114  2.9254 -2.6622
  843MOL0     H13752  11.201   5.268   9.306  0.6648  1.4406  0.6019
  843MOL0     H13753  11.366   5.241   9.266 -0.0868  2.4317  0.3189
  843MOL0     H13754  11.350   5.342   9.545  0.1978  0.2421  0.2316
  843MOL0     H13755  11.442   5.394   9.409  2.6543  0.0434  4.6381
  843MOL0     H13756  11.239   5.504   9.192 -0.2175 -1.7476 -0.0787
  843MOL0     H13757  11.076   5.688   9.126 -1.9838 -1.0008 -0.5172
  843MOL0     H13758  10.948   5.707   9.251 -0.5627  3.2290 -2.5195
  843MOL0     H13759  11.088   5.895   9.344 -1.0711 -1.1512  0.3522
  843MOL0     H13760  11.215   5.859   9.234  1.3782 -3.2329  8.3810
  843MOL0     H13761  11.027   5.893   9.047 -0.5874  1.3056 -0.0271
  843MOL0     H13762  11.106   6.031   9.111 -2.8646  3.6880 -0.6461
  843MOL0     H13763  10.859   6.034   9.098  1.6995  2.3940 -1.1783
  843MOL0     H13764  10.919   6.095   9.248 -4.5078 -0.7511  2.9087
  843MOL0     H13765  10.785   5.715   9.123 -0.1969 -0.3433 -1.2511
  843MOL0     H13766  10.583   5.692   9.000 -0.7194 -1.1978 -0.3985
  843MOL0     H13767  10.097   5.635   9.050  1.0683 -1.1374 -1.9773
  843MOL0     H13768   9.922   5.588   8.893 -0.4022  0.8433 -2.9379
  843MOL0     H13769   9.799   5.780   8.523  1.8472  1.6611 -1.0058
  843MOL0     H13770   9.969   5.775   8.581 -0.3491 -0.7394  0.2384
  843MOL0     H13771   9.922   5.548   8.478 -0.0859  0.9629 -0.5503
  843MOL0     H13772   9.948   5.529   8.646 -0.8554 -1.7113 -1.0280
  843MOL0     H13773   9.769   5.388   8.580 -3.0890 -0.9897 -3.3320
  843MOL0     H13774   9.707   5.506   8.698  0.5868  0.7620 -0.7033
  843MOL0     H13775   9.688   5.555   8.400 -3.6278 -2.9212 -0.9819
  843MOL0     H13776   9.613   5.644   8.536  2.2538  2.5399 -1.9475
  843MOL0     H13777   9.469   5.483   8.391  0.8089 -0.7088 -0.9426
  843MOL0     H13778   9.459   5.486   8.568  1.5802  1.9166  1.2724
  843MOL0     H13779   9.624   5.288   8.407  1.2076  1.8457 -0.0575
  843MOL0     H13780   9.584   5.279   8.570  2.5281  0.5405 -1.2630
  843MOL0     H13781   9.338   5.293   8.475  0.6365  0.1723  1.4093
  843MOL0     H13782   9.418   5.134   8.510  1.8004 -1.3639 -2.5490
  843MOL0     H13783   9.436   5.279   8.248 -1.3198 -1.3405 -0.6213
  843MOL0     H13784   9.480   5.110   8.299 -1.3440 -1.3949  1.9115
  843MOL0     H13785   9.940   5.992   8.745 -0.1196  1.9537  2.3453
  843MOL0     H13786  10.117   6.045   8.904  0.5689 -0.5555  0.1144
  843MOL0     H13787  10.401   6.022   9.224 -0.1785 -0.5305 -2.8401
  843MOL0     H13788  10.651   6.043   9.332  4.0697 -1.6800 -0.3740
  843MOL0     H13789  11.016   4.522   8.864  2.9200  1.9457 -2.4227
  843MOL0     H13790  11.188   4.359   8.787  0.2178 -1.0188  0.6170
  843MOL0     H13791  11.336   4.064   8.719 -1.7279 -0.7226 -0.5510
  843MOL0     H13792  11.397   3.903   8.579  6.2212  0.0028  0.3902
  843MOL0     H13793  11.481   3.427   8.676  0.8835 -1.5063 -0.2083
  843MOL0     H13794  11.563   3.516   8.794 -0.6500  3.1749 -0.1280
  843MOL0     H13795  11.739   3.459   8.666  0.6690  0.0145 -2.2596
  843MOL0     H13796  11.690   3.621   8.613  0.8916  0.3550  2.4291
  843MOL0     H13797  11.720   3.531   8.410  0.4407  0.8006  1.6498
  843MOL0     H13798  11.549   3.491   8.442 -0.4581 -0.5026  3.4066
  843MOL0     H13799  11.805   3.319   8.459  0.3670  3.0173 -0.9976
  843MOL0     H13800  11.653   3.261   8.532  1.9414  0.6670 -0.6653
  843MOL0     H13801  11.578   3.154   8.149  2.1887 -0.8024 -0.5606
  843MOL0     H13802  11.441   3.619   8.900 -1.9352 -0.1016  0.3126
  843MOL0     H13803  11.422   3.864   9.159 -0.7265  0.4720  0.1817
  843MOL0     H13804  11.258   3.798   9.140 -0.9550 -0.7747 -1.3063
  843MOL0     H13805  11.401   3.685   9.118 -0.2573  0.3635 -2.9782
  844MOL0     O13806   2.291   3.489   9.496 -1.0987  0.3641 -1.0612
  844MOL0     C13807   2.317   3.374   9.531 -0.2384  0.0879 -0.9210
  844MOL0     O13808   2.346   3.335   9.661  0.0812 -0.7328  1.0546
  844MOL0     C13809   2.347   3.430   9.753 -0.3598 -0.6227 -0.9502
  844MOL0     C13810   2.233   3.489   9.805 -0.4872 -0.6109 -0.4384
  844MOL0     C13811   2.245   3.594   9.901 -0.1294 -0.7534 -0.3951
  844MOL0     C13812   2.374   3.644   9.931  0.9037 -0.2650 -0.4035
  844MOL0     O13813   2.397   3.749  10.016  0.3172  1.3549 -0.4450
  844MOL0     C13814   2.280   3.835  10.026  0.3702 -0.2779 -0.7730
  844MOL0     C13815   2.312   3.960  10.114 -0.3023  0.2514  0.0878
  844MOL0     C13816   2.377   3.922  10.248 -0.3272  1.0856  0.7917
  844MOL0     C13817   2.415   4.056  10.328 -0.7071  0.2848 -0.3588
  844MOL0     C13818   2.465   4.013  10.475 -0.2754 -0.4741  0.0313
  844MOL0     C13819   2.612   3.982  10.464  0.3701 -0.3351  0.1998
  844MOL0     C13820   2.666   3.930  10.591  0.2284 -0.1387 -0.3973
  844MOL0     C13821   2.747   4.031  10.677  0.0165 -0.0597 -0.5119
  844MOL0     N13822   2.751   3.995  10.819  0.2154 -0.0828 -0.3702
  844MOL0     C13823   2.766   3.868  10.872  0.1906 -0.3064  0.7699
  844MOL0     C13824   2.744   3.881  11.005 -0.0304 -0.8644  0.0219
  844MOL0     C13825   2.752   3.781  11.117 -0.1844 -0.0420  1.1036
  844MOL0     C13826   2.887   3.786  11.188 -0.2390  0.5455 -0.5412
  844MOL0     C13827   2.906   3.703  11.319  0.6553 -0.2047 -0.9036
  844MOL0     C13828   2.878   3.555  11.294 -0.0923  0.9620 -0.6128
  844MOL0     O13829   2.906   3.480  11.413  0.3298  0.3851  0.3006
  844MOL0     C13830   3.032   3.440  11.451  0.2977 -0.1593 -0.1278
  844MOL0     C13831   3.036   3.350  11.560  0.0956 -0.6033  0.7522
  844MOL0     C13832   3.171   3.297  11.591  0.8262 -0.5874 -0.0392
  844MOL0     C13833   3.293   3.329  11.521  0.3126  0.1388  0.1489
  844MOL0     C13834   3.417   3.270  11.557  0.7289 -0.6414  0.0777
  844MOL0     O13835   3.521   3.324  11.501 -0.6493 -0.1748 -0.0749
  844MOL0     C13836   3.644   3.283  11.543 -0.4426  0.2010 -0.2481
  844MOL0     C13837   3.696   3.331  11.666  0.6126  0.2293 -0.0761
  844MOL0     C13838   3.831   3.320  11.702 -0.4511  0.0545 -0.3233
  844MOL0     C13839   3.911   3.254  11.613 -0.4241 -0.3454  0.2480
  844MOL0     O13840   4.043   3.229  11.648 -0.5748  0.2719 -0.0425
  844MOL0     C13841   4.085   3.169  11.766 -0.4412  0.2220 -0.3570
  844MOL0     C13842   4.226   3.225  11.818 -0.0946 -0.2580  1.2490
  844MOL0     C13843   4.311   3.109  11.871 -0.0543  0.5740  0.3969
  844MOL0     C13844   4.438   3.159  11.947  0.2233 -0.2345  0.3874
  844MOL0     C13845   4.537   3.040  11.960  0.0394  0.7359 -0.5449
  844MOL0     C13846   4.635   3.083  12.076  0.0849  0.9186  0.5050
  844MOL0     C13847   4.715   2.967  12.117  0.0989  0.4015 -0.0572
  844MOL0     C13848   4.781   3.000  12.252 -0.2672 -0.1759 -0.4717
  844MOL0    Cl13849   4.848   2.854  12.310  0.5428 -0.0799  0.2913
  844MOL0     C13850   3.860   3.192  11.497  0.0353  0.3601  0.7261
  844MOL0     C13851   3.724   3.197  11.466  0.0917 -0.2716 -0.6045
  844MOL0     O13852   3.411   3.175  11.634  0.1697 -0.6099 -0.8720
  844MOL0     C13853   3.275   3.413  11.416  0.1375 -0.1453 -0.9812
  844MOL0     C13854   3.152   3.465  11.381 -0.5333  0.4707 -0.1236
  844MOL0     N13855   2.700   4.006  11.027 -0.0538 -0.6390 -0.8083
  844MOL0     N13856   2.718   4.079  10.921 -0.0936  0.0698 -0.3843
  844MOL0     C13857   2.485   3.571   9.890 -0.4819 -0.0680  0.0338
  844MOL0     C13858   2.466   3.465   9.804  0.2470  0.3945 -0.2918
  844MOL0     C13859   2.312   3.265   9.424  0.8257 -0.2346  0.2493
  844MOL0     C13860   2.232   3.284   9.306  0.4429 -0.8200 -0.2565
  844MOL0     C13861   2.229   3.193   9.202 -0.7585  0.1436 -0.6079
  844MOL0     C13862   2.312   3.076   9.199 -1.3428 -0.1268 -0.5514
  844MOL0     O13863   2.334   2.990   9.095 -0.0755 -0.1377  0.5488
  844MOL0     C13864   2.232   2.986   8.988  0.1457  0.0495  0.1564
  844MOL0     C13865   2.231   3.100   8.879 -0.8477  0.0142  0.1642
  844MOL0     C13866   2.098   3.115   8.803 -0.0348  0.0466 -0.4639
  844MOL0     C13867   2.079   3.009   8.694  0.7228 -0.3555 -0.2124
  844MOL0     C13868   2.174   3.029   8.580 -0.8344  0.1246 -0.0853
  844MOL0     C13869   2.246   3.035   8.491  0.0705 -0.2167 -0.0927
  844MOL0     C13870   2.401   3.056   9.315 -0.5763 -0.1401 -0.0608
  844MOL0     C13871   2.396   3.152   9.424  0.2492  0.1342  0.2478
  844MOL0     C13872   2.498   3.127   9.541  0.1541 -0.3228  0.4079
  844MOL0     H13873   2.133   3.461   9.776 -1.1071  1.1913 -0.1691
  844MOL0     H13874   2.162   3.648   9.945  0.7861  1.3188 -1.0849
  844MOL0     H13875   2.240   3.870   9.931 -0.3152 -2.7539 -1.4677
  844MOL0     H13876   2.195   3.779  10.066  0.5673 -1.8916 -2.4865
  844MOL0     H13877   2.213   4.003  10.134  0.0106  0.2652  1.7273
  844MOL0     H13878   2.374   4.031  10.060 -0.1561 -1.1726 -1.7294
  844MOL0     H13879   2.472   3.868  10.250 -1.8550 -1.8429  2.5108
  844MOL0     H13880   2.305   3.869  10.312 -1.6223  0.7708 -0.8740
  844MOL0     H13881   2.485   4.129  10.287 -4.6968  3.4129 -2.3178
  844MOL0     H13882   2.326   4.119  10.335 -1.6541 -0.9076 -1.0258
  844MOL0     H13883   2.471   4.093  10.550  4.8184 -0.7376  0.2216
  844MOL0     H13884   2.398   3.941  10.523 -2.2712  2.4449  1.9894
  844MOL0     H13885   2.628   3.908  10.385  0.4437 -0.0999 -0.0068
  844MOL0     H13886   2.662   4.075  10.436 -0.8596  0.7768  1.5020
  844MOL0     H13887   2.720   3.836  10.581 -0.4225 -0.4901 -0.6749
  844MOL0     H13888   2.585   3.909  10.661 -1.1044 -0.9459 -2.0854
  844MOL0     H13889   2.844   4.046  10.630 -0.7113 -1.5542 -2.6819
  844MOL0     H13890   2.699   4.129  10.667 -1.8957 -0.9063 -0.1388
  844MOL0     H13891   2.791   3.773  10.826  1.1586  0.3665 -0.1617
  844MOL0     H13892   2.683   3.793  11.201 -0.9708 -0.7036  0.5571
  844MOL0     H13893   2.725   3.685  11.072 -1.3870  0.9665 -0.4220
  844MOL0     H13894   2.963   3.766  11.111 -0.8963  0.9504 -1.3207
  844MOL0     H13895   2.908   3.892  11.204  0.9260  0.6451 -2.3862
  844MOL0     H13896   2.832   3.729  11.396 -0.0765 -4.1964 -0.0000
  844MOL0     H13897   3.006   3.720  11.360  0.7983  1.8632 -1.9820
  844MOL0     H13898   2.943   3.518  11.214  0.5873 -1.6828  1.0619
  844MOL0     H13899   2.771   3.541  11.276  0.2746 -1.1155 -1.4095
  844MOL0     H13900   2.955   3.305  11.616  0.7807  0.2798  2.5140
  844MOL0     H13901   3.170   3.237  11.682  0.3395 -0.9419 -0.2754
  844MOL0     H13902   3.631   3.387  11.733 -3.8215 -4.9906  0.7063
  844MOL0     H13903   3.884   3.365  11.785  1.1936  0.8908 -1.7479
  844MOL0     H13904   4.014   3.186  11.847  0.6522  1.6857  0.3278
  844MOL0     H13905   4.106   3.065  11.739  1.5642  0.7769 -1.0609
  844MOL0     H13906   4.281   3.273  11.737  2.3095 -0.3454  2.7405
  844MOL0     H13907   4.210   3.296  11.899 -1.5776  0.6621  0.1983
  844MOL0     H13908   4.257   3.050  11.946  2.2157  2.8727  4.1161
  844MOL0     H13909   4.344   3.043  11.790 -1.4890  1.5162 -1.0271
  844MOL0     H13910   4.414   3.209  12.042 -1.4336  1.2044 -0.7415
  844MOL0     H13911   4.501   3.233  11.897 -1.1435  0.5470 -0.2195
  844MOL0     H13912   4.586   3.028  11.863  1.2318  2.0762 -0.1301
  844MOL0     H13913   4.482   2.946  11.974 -0.6150  1.4094  1.7125
  844MOL0     H13914   4.698   3.155  12.022 -0.3260  1.1856  0.3759
  844MOL0     H13915   4.578   3.116  12.163 -2.4487 -0.9134 -0.3150
  844MOL0     H13916   4.786   2.930  12.043 -1.8135 -2.1174 -0.8010
  844MOL0     H13917   4.651   2.881  12.140  0.0912  1.1590  3.2328
  844MOL0     H13918   4.859   3.071  12.221  1.4327 -1.7528 -0.0122
  844MOL0     H13919   4.701   3.042  12.314 -1.3109  1.1948 -2.6274
  844MOL0     H13920   3.926   3.140  11.428  0.5983 -0.4130  1.8103
  844MOL0     H13921   3.686   3.145  11.379  1.3135 -2.1265 -0.0812
  844MOL0     H13922   3.357   3.433  11.347  1.3581  1.0228  0.7295
  844MOL0     H13923   3.145   3.520  11.287 -0.9152 -2.1278 -1.7248
  844MOL0     H13924   2.585   3.599   9.923  0.0011 -0.9094 -0.6509
  844MOL0     H13925   2.559   3.417   9.772  0.9534  1.5415 -0.0198
  844MOL0     H13926   2.156   3.361   9.308 -0.0770 -1.3410  0.8836
  844MOL0     H13927   2.161   3.216   9.121 -2.8727 -1.1394  0.7048
  844MOL0     H13928   2.135   2.971   9.036 -0.8518  0.7634 -1.5494
  844MOL0     H13929   2.252   2.894   8.932 -1.1351 -1.2361  1.6942
  844MOL0     H13930   2.313   3.070   8.813 -0.2259 -1.2772  1.4770
  844MOL0     H13931   2.261   3.196   8.922 -0.1466 -0.6980  1.3211
  844MOL0     H13932   2.098   3.214   8.757  0.9960  0.4685  0.4092
  844MOL0     H13933   2.016   3.110   8.875  1.9514 -0.3882  1.8918
  844MOL0     H13934   2.100   2.913   8.742  0.0227  0.3984  1.7137
  844MOL0     H13935   1.978   3.007   8.652  0.1231 -0.5281  1.1845
  844MOL0     H13936   2.327   3.044   8.422 -1.4741  1.7624 -1.7455
  844MOL0     H13937   2.469   2.973   9.300 -1.1581 -0.7176  0.4116
  844MOL0     H13938   2.588   3.073   9.510  1.5974  0.2530  3.2929
  844MOL0     H13939   2.534   3.221   9.582 -1.3145  0.8347 -0.8356
  844MOL0     H13940   2.452   3.065   9.618 -0.1732 -1.3717 -0.6000
  845MOL0     O13941   2.861   0.549   4.651  0.6625 -0.6880  0.3865
  845MOL0     C13942   2.779   0.588   4.567  1.3247  0.2298  0.3178
  845MOL0     O13943   2.810   0.651   4.446  0.4765 -0.5061  0.4693
  845MOL0     C13944   2.937   0.624   4.389 -0.6292  0.0696  0.1200
  845MOL0     C13945   2.969   0.726   4.294 -0.7216  0.1243  0.9653
  845MOL0     C13946   3.085   0.726   4.224  0.9517  0.0525 -0.6262
  845MOL0     C13947   3.186   0.633   4.251  0.1041  0.4043  0.0706
  845MOL0     O13948   3.302   0.640   4.175 -0.0711  0.8760 -0.0473
  845MOL0     C13949   3.431   0.581   4.201 -0.0556 -0.1313 -0.1188
  845MOL0     C13950   3.524   0.597   4.081 -0.1946  0.3285  0.6248
  845MOL0     C13951   3.560   0.741   4.043 -0.3536  0.3326  0.4133
  845MOL0     C13952   3.621   0.742   3.904  0.4900  0.0294 -0.1551
  845MOL0     C13953   3.600   0.875   3.825  0.4140  0.2590 -0.1741
  845MOL0     C13954   3.652   0.997   3.897  0.6870  0.1609  1.0240
  845MOL0     C13955   3.599   1.134   3.843 -0.3891  0.1943 -0.3413
  845MOL0     C13956   3.455   1.156   3.886  0.0000  0.1709  1.3938
  845MOL0     N13957   3.443   1.145   4.031 -0.7197  0.1617  0.5025
  845MOL0     C13958   3.361   1.059   4.092 -0.4485  0.4245 -1.0766
  845MOL0     C13959   3.349   1.113   4.221  0.4061 -0.0615  1.1590
  845MOL0     C13960   3.259   1.074   4.342  0.4692 -0.2708  0.1051
  845MOL0     C13961   3.318   0.957   4.409 -0.9253 -0.7110 -1.3758
  845MOL0     C13962   3.300   0.953   4.556  0.0153  0.3361  0.5701
  845MOL0     C13963   3.296   0.801   4.610 -0.5396  0.3654  0.0654
  845MOL0     O13964   3.323   0.809   4.751  0.8298 -0.1586  0.5110
  845MOL0     C13965   3.225   0.805   4.849  0.7314  0.5139  0.5550
  845MOL0     C13966   3.084   0.817   4.818 -0.3599  0.7521 -0.5849
  845MOL0     C13967   2.992   0.798   4.920  0.0395 -0.7925  0.5439
  845MOL0     C13968   3.030   0.788   5.052  0.5383  0.1651  0.5830
  845MOL0     C13969   2.921   0.770   5.164 -0.7471  0.2117  0.5367
  845MOL0     O13970   2.789   0.774   5.134  0.8438  0.0719 -0.2778
  845MOL0     C13971   2.694   0.712   5.215  0.1819 -0.7645 -0.1844
  845MOL0     C13972   2.564   0.761   5.208 -0.6795  0.3496  0.9097
  845MOL0     C13973   2.454   0.695   5.272 -0.0553 -0.4729  0.2902
  845MOL0     C13974   2.481   0.586   5.352 -0.7730 -0.8222  0.1857
  845MOL0     O13975   2.387   0.544   5.432  0.6081  0.4974 -0.5945
  845MOL0     C13976   2.373   0.636   5.545 -0.1278 -0.7978 -0.6199
  845MOL0     C13977   2.236   0.604   5.612 -0.0017 -0.1795  0.1814
  845MOL0     C13978   2.113   0.635   5.533  0.9121 -1.1755  0.2072
  845MOL0     C13979   2.088   0.784   5.531  1.0738 -1.5327 -0.4140
  845MOL0     C13980   2.031   0.820   5.666 -1.0405  0.8918  0.0981
  845MOL0     C13981   1.941   0.940   5.665 -0.3984 -0.6964  0.6769
  845MOL0     C13982   2.020   1.072   5.666  0.0563  0.2881  0.1034
  845MOL0     C13983   1.920   1.199   5.685  0.1546 -1.0771 -0.1518
  845MOL0    Cl13984   2.023   1.341   5.733  0.4102 -0.3230  0.3076
  845MOL0     C13985   2.617   0.544   5.371  0.7332 -0.6672 -0.0819
  845MOL0     C13986   2.722   0.598   5.296 -0.6094  0.2402  0.8132
  845MOL0     O13987   2.968   0.756   5.277  0.7195 -0.4021  0.2237
  845MOL0     C13988   3.157   0.766   5.084 -0.3278 -0.0053  0.1090
  845MOL0     C13989   3.258   0.780   4.985 -1.5149 -0.8825 -0.1305
  845MOL0     N13990   3.430   1.221   4.226  0.0108 -0.0129  0.6886
  845MOL0     N13991   3.484   1.247   4.113  0.3433  0.2109 -0.5834
  845MOL0     C13992   3.168   0.539   4.354 -0.1423  0.4115  0.0629
  845MOL0     C13993   3.040   0.526   4.422  0.1624  0.5465  0.1610
  845MOL0     C13994   2.638   0.585   4.613 -0.4360 -0.9322  0.1275
  845MOL0     C13995   2.613   0.627   4.741 -0.6251 -0.2534 -0.5495
  845MOL0     C13996   2.490   0.633   4.799 -0.4882 -0.6364 -0.3353
  845MOL0     C13997   2.380   0.588   4.720 -0.5004 -0.7517 -0.6049
  845MOL0     O13998   2.254   0.573   4.762 -0.2677  0.2979  1.0201
  845MOL0     C13999   2.205   0.650   4.870 -0.0170 -0.2082 -0.4277
  845MOL0     C14000   2.185   0.786   4.837  0.1927 -1.0450 -0.0662
  845MOL0     C14001   2.151   0.873   4.958  0.1755  0.5116  0.6376
  845MOL0     C14002   2.021   0.838   5.048  0.3264  0.3755  0.3768
  845MOL0     C14003   1.974   0.959   5.116 -0.3192  0.8680 -0.8618
  845MOL0     C14004   1.925   1.050   5.172 -0.0230 -0.5184  0.8562
  845MOL0     C14005   2.404   0.550   4.593 -0.5749  0.2347 -0.5533
  845MOL0     C14006   2.530   0.546   4.534 -0.4832 -0.2357 -0.4463
  845MOL0     C14007   2.541   0.506   4.393  0.5344 -0.6280 -0.4507
  845MOL0     H14008   2.900   0.807   4.269 -0.6325 -0.4665 -1.5375
  845MOL0     H14009   3.097   0.795   4.141 -0.6234 -0.0168 -0.9461
  845MOL0     H14010   3.472   0.641   4.282  1.2229 -3.2921  1.7593
  845MOL0     H14011   3.433   0.476   4.231  0.0615 -0.0824  0.0427
  845MOL0     H14012   3.475   0.557   3.992 -0.3828  0.6189  0.5976
  845MOL0     H14013   3.620   0.544   4.090  1.0446  2.6434  2.0992
  845MOL0     H14014   3.619   0.784   4.124 -1.0386 -0.5717  1.4111
  845MOL0     H14015   3.457   0.778   4.043 -1.2511 -1.9834  1.0050
  845MOL0     H14016   3.725   0.706   3.906  1.0797  1.6650  1.5902
  845MOL0     H14017   3.576   0.667   3.838  1.4195 -0.5272 -0.1913
  845MOL0     H14018   3.645   0.868   3.725 -1.5493 -2.3147 -0.9844
  845MOL0     H14019   3.492   0.883   3.813  0.5614 -0.9167 -3.5594
  845MOL0     H14020   3.636   0.991   4.005  2.1934 -0.7766  1.2197
  845MOL0     H14021   3.761   0.994   3.891  0.6033 -1.5012 -2.7822
  845MOL0     H14022   3.621   1.142   3.736  0.1785  0.8220 -0.1834
  845MOL0     H14023   3.657   1.213   3.891 -0.1660 -2.3734  4.1987
  845MOL0     H14024   3.426   1.256   3.853  0.7096  0.4495  1.6060
  845MOL0     H14025   3.389   1.079   3.844 -0.0397  0.0693  1.6433
  845MOL0     H14026   3.315   0.964   4.065 -0.8932 -0.0044  1.0488
  845MOL0     H14027   3.256   1.152   4.419  0.7141  1.2565 -1.3805
  845MOL0     H14028   3.156   1.049   4.316 -0.1234 -0.0383  2.0520
  845MOL0     H14029   3.270   0.869   4.366 -2.1066 -0.4905 -0.5786
  845MOL0     H14030   3.425   0.955   4.387 -0.3075  0.0923  1.1409
  845MOL0     H14031   3.202   0.999   4.571 -0.5358 -0.5550 -0.2327
  845MOL0     H14032   3.377   1.008   4.611  0.6755  0.1257 -0.1351
  845MOL0     H14033   3.385   0.750   4.572 -1.5139 -1.4415  0.0958
  845MOL0     H14034   3.214   0.742   4.569 -1.8539 -0.5325  3.5795
  845MOL0     H14035   3.037   0.836   4.722 -1.7660  3.9117  0.6011
  845MOL0     H14036   2.884   0.799   4.910 -0.2708  1.0979  2.9827
  845MOL0     H14037   2.556   0.846   5.140 -3.1071 -0.8079 -0.3716
  845MOL0     H14038   2.351   0.728   5.258  0.5158  2.1391  1.5854
  845MOL0     H14039   2.450   0.622   5.622  1.4641  0.6994 -1.8531
  845MOL0     H14040   2.384   0.743   5.523  2.7054  0.0568  3.6170
  845MOL0     H14041   2.235   0.495   5.626 -2.9516  0.0819  3.5123
  845MOL0     H14042   2.240   0.645   5.713  3.1319 -1.6923  0.7853
  845MOL0     H14043   2.130   0.598   5.431  2.1971 -1.6423  0.5636
  845MOL0     H14044   2.019   0.585   5.557 -0.0288 -0.2119 -1.3088
  845MOL0     H14045   2.016   0.802   5.450 -1.2892 -1.4005  1.5951
  845MOL0     H14046   2.182   0.834   5.509 -0.1261  0.1353 -2.1403
  845MOL0     H14047   2.125   0.832   5.720  0.2915  0.6649 -2.0752
  845MOL0     H14048   1.971   0.736   5.703  1.1404 -0.5224  0.5671
  845MOL0     H14049   1.892   0.939   5.567  0.8329  1.3251 -0.0269
  845MOL0     H14050   1.860   0.950   5.738 -0.8915 -0.0787  0.0581
  845MOL0     H14051   2.088   1.068   5.580  1.5719  0.4207  1.2485
  845MOL0     H14052   2.091   1.071   5.750  0.0289 -0.8787  0.1290
  845MOL0     H14053   1.858   1.218   5.597 -1.4110 -0.2349  1.0859
  845MOL0     H14054   1.853   1.170   5.767 -0.5663 -2.2892 -1.1298
  845MOL0     H14055   2.640   0.455   5.428 -0.6515 -2.7453 -2.5817
  845MOL0     H14056   2.826   0.569   5.301 -0.3885  1.1167  1.4621
  845MOL0     H14057   3.198   0.750   5.183 -2.8423  0.9784  1.3972
  845MOL0     H14058   3.361   0.758   5.009 -0.7374  0.0488 -2.3264
  845MOL0     H14059   3.254   0.483   4.390 -1.4769 -0.3504  2.3123
  845MOL0     H14060   3.048   0.449   4.498 -0.8455  0.1221 -0.1581
  845MOL0     H14061   2.701   0.647   4.803  0.3267 -1.6729 -1.3968
  845MOL0     H14062   2.482   0.657   4.905 -0.5299 -2.3140  0.0727
  845MOL0     H14063   2.265   0.647   4.962  0.7640 -3.3374 -0.8926
  845MOL0     H14064   2.118   0.589   4.895  1.7612 -2.0371  1.7858
  845MOL0     H14065   2.110   0.798   4.758  1.1998 -0.3528 -0.9533
  845MOL0     H14066   2.281   0.823   4.801 -1.7262  1.5913 -3.0439
  845MOL0     H14067   2.141   0.975   4.919  2.8435 -0.3427 -2.7230
  845MOL0     H14068   2.236   0.870   5.027  1.0945 -1.9722 -0.4787
  845MOL0     H14069   1.949   0.813   4.969  1.6914  0.1165 -0.8264
  845MOL0     H14070   2.046   0.757   5.117  2.1630  1.6406  1.2772
  845MOL0     H14071   1.901   1.136   5.231  0.4178  0.1378  0.1040
  845MOL0     H14072   2.318   0.515   4.536 -0.0127 -0.8109 -0.7940
  845MOL0     H14073   2.533   0.589   4.322  1.4174  0.0260  0.2002
  845MOL0     H14074   2.631   0.446   4.378  2.6802  2.8948 -3.3770
  845MOL0     H14075   2.455   0.446   4.362 -1.1163  0.7944  1.1383
  846MOL0     O14076   4.508   5.149   4.422  0.4221  0.3330  0.3309
  846MOL0     C14077   4.446   5.204   4.518 -0.6714  0.5176  0.4525
  846MOL0     O14078   4.509   5.258   4.622 -0.2617  0.6061  0.1515
  846MOL0     C14079   4.639   5.289   4.632  0.0483 -0.1633 -0.6011
  846MOL0     C14080   4.742   5.279   4.539 -0.6603  0.6049  0.4045
  846MOL0     C14081   4.877   5.309   4.565  1.0625 -0.8235 -1.7812
  846MOL0     C14082   4.911   5.344   4.691  0.0774 -0.0234 -0.8472
  846MOL0     O14083   5.037   5.383   4.725  0.1012  0.8141 -0.3806
  846MOL0     C14084   5.072   5.510   4.783 -0.8172  1.0669 -1.5376
  846MOL0     C14085   5.224   5.542   4.774 -1.1668 -0.0084  0.0364
  846MOL0     C14086   5.254   5.597   4.628  0.5965  0.5370  0.1480
  846MOL0     C14087   5.408   5.584   4.607  0.1935 -0.4673  0.3761
  846MOL0     C14088   5.446   5.631   4.470  1.1252 -0.1304 -0.0378
  846MOL0     C14089   5.399   5.779   4.430  0.3146 -0.5609 -0.4480
  846MOL0     C14090   5.472   5.850   4.319 -0.2516 -0.0575  0.3150
  846MOL0     C14091   5.441   5.770   4.189 -0.6013 -0.6679  0.1603
  846MOL0     N14092   5.483   5.855   4.076 -0.4489 -0.5358  0.1601
  846MOL0     C14093   5.604   5.852   4.014 -0.5506 -0.7701  0.9544
  846MOL0     C14094   5.606   5.950   3.915  0.1105 -0.4883 -0.4585
  846MOL0     C14095   5.726   5.982   3.826 -0.1783  0.2897  0.1144
  846MOL0     C14096   5.855   6.028   3.905  0.0276 -1.0068  0.5953
  846MOL0     C14097   5.951   5.919   3.908  1.1969  0.3681  0.2091
  846MOL0     C14098   6.102   5.978   3.898  0.3657 -0.2247 -0.6403
  846MOL0     O14099   6.144   6.065   4.002  0.2273 -0.3218  0.0306
  846MOL0     C14100   6.273   6.114   4.001  0.2580  0.8117 -0.6023
  846MOL0     C14101   6.306   6.195   4.112  0.7685 -0.0086 -0.1247
  846MOL0     C14102   6.434   6.248   4.119  0.9915 -0.3718 -0.2817
  846MOL0     C14103   6.530   6.212   4.029  0.1408  0.0283 -0.2204
  846MOL0     C14104   6.670   6.256   4.027  0.6600 -0.9985  0.3901
  846MOL0     O14105   6.694   6.372   4.099  0.3931  0.6595  0.4165
  846MOL0     C14106   6.826   6.416   4.118  0.5580  0.7201  0.4786
  846MOL0     C14107   6.901   6.446   4.005  0.6777  0.3934  0.5335
  846MOL0     C14108   7.038   6.479   4.011  0.5450 -0.5221  0.3519
  846MOL0     C14109   7.098   6.486   4.135  0.3364 -0.7751  0.7777
  846MOL0     O14110   7.228   6.540   4.146  0.6894  0.5703  0.5591
  846MOL0     C14111   7.282   6.569   4.271  0.1271  0.1795 -0.8556
  846MOL0     C14112   7.434   6.604   4.254  0.2914  0.4521 -0.6544
  846MOL0     C14113   7.504   6.642   4.391 -0.4386  0.5780  0.2674
  846MOL0     C14114   7.659   6.639   4.374 -0.1063 -0.5416  0.4096
  846MOL0     C14115   7.742   6.600   4.495 -0.6646  0.1991 -0.5311
  846MOL0     C14116   7.730   6.447   4.519 -0.4710 -0.7400  0.1379
  846MOL0     C14117   7.820   6.402   4.635 -0.0636  1.2495  0.4247
  846MOL0     C14118   7.794   6.257   4.672  0.1805 -0.1699  0.7742
  846MOL0    Cl14119   7.618   6.253   4.742  0.0443 -0.4716  0.1369
  846MOL0     C14120   7.025   6.453   4.244  0.3968  0.6227 -0.3591
  846MOL0     C14121   6.892   6.414   4.238 -0.7217  1.0170  0.9490
  846MOL0     O14122   6.757   6.199   3.959  0.1036  0.1253 -0.2727
  846MOL0     C14123   6.499   6.127   3.921  0.4699  0.0914  0.1035
  846MOL0     C14124   6.367   6.080   3.907  0.1652 -0.1965  0.0064
  846MOL0     N14125   5.485   6.020   3.932 -0.2265  0.0332  0.3146
  846MOL0     N14126   5.406   5.948   4.016  0.0026 -0.1603  0.1975
  846MOL0     C14127   4.800   5.358   4.784 -0.5643 -0.1987  0.4821
  846MOL0     C14128   4.673   5.346   4.748 -0.2632 -0.1794  0.2745
  846MOL0     C14129   4.298   5.183   4.530 -0.0684 -0.5186  0.5742
  846MOL0     C14130   4.232   5.125   4.426 -0.5314  0.1178  0.1545
  846MOL0     C14131   4.096   5.101   4.416 -0.2685 -0.2756  0.5203
  846MOL0     C14132   4.022   5.126   4.526 -0.0598  0.4930 -0.4456
  846MOL0     O14133   3.894   5.089   4.527  0.8578  0.3072  0.6590
  846MOL0     C14134   3.790   5.144   4.611 -0.2950  0.0399  0.1492
  846MOL0     C14135   3.749   5.283   4.566  0.0649  0.3212  0.1651
  846MOL0     C14136   3.645   5.361   4.639  0.3250  1.1638 -0.5795
  846MOL0     C14137   3.501   5.337   4.599  0.7459 -0.5837 -0.2174
  846MOL0     C14138   3.453   5.211   4.649  0.4660  0.4227 -0.3529
  846MOL0     C14139   3.402   5.097   4.663  0.5718 -0.0245  0.2190
  846MOL0     C14140   4.079   5.183   4.637  0.1866 -0.6243 -0.0441
  846MOL0     C14141   4.210   5.232   4.633 -0.7724 -0.1769  0.7181
  846MOL0     C14142   4.264   5.320   4.744 -0.8577  0.0865 -0.3858
  846MOL0     H14143   4.712   5.245   4.440 -0.6829 -0.9714  0.9372
  846MOL0     H14144   4.947   5.310   4.482  1.5655 -0.4326 -1.3584
  846MOL0     H14145   5.023   5.598   4.741 -1.4617  1.3393 -0.2475
  846MOL0     H14146   5.039   5.503   4.887 -1.2851 -2.6707 -1.7794
  846MOL0     H14147   5.294   5.461   4.797 -2.0061 -0.5515  0.6949
  846MOL0     H14148   5.251   5.622   4.843 -2.6324  0.3879  0.1689
  846MOL0     H14149   5.215   5.699   4.615 -1.7881 -0.0183  2.0781
  846MOL0     H14150   5.204   5.538   4.551 -0.5193  0.9069  0.5570
  846MOL0     H14151   5.455   5.660   4.670  0.5384 -0.5957  0.2779
  846MOL0     H14152   5.447   5.483   4.621  0.0995 -0.3901  1.2411
  846MOL0     H14153   5.555   5.629   4.458  0.8645  0.5336 -3.9944
  846MOL0     H14154   5.396   5.565   4.399 -0.9551  1.1202  0.1910
  846MOL0     H14155   5.293   5.762   4.410  0.7190 -2.1083 -1.3854
  846MOL0     H14156   5.406   5.842   4.519 -2.0384 -0.4015 -0.3147
  846MOL0     H14157   5.580   5.857   4.332 -0.3891  0.6792  1.1220
  846MOL0     H14158   5.427   5.948   4.301  1.5120  0.5885 -0.8173
  846MOL0     H14159   5.491   5.672   4.188 -1.5329 -1.1715  0.7581
  846MOL0     H14160   5.333   5.753   4.189 -0.4853 -1.5472  1.2617
  846MOL0     H14161   5.685   5.782   4.027  0.0085 -0.8086 -2.0752
  846MOL0     H14162   5.754   5.894   3.768  3.9698 -0.4342  2.7691
  846MOL0     H14163   5.700   6.060   3.754  2.3258  1.6925  0.6065
  846MOL0     H14164   5.907   6.106   3.847  0.9568 -1.7961  0.3347
  846MOL0     H14165   5.818   6.072   3.998 -1.3666 -1.9739  0.5231
  846MOL0     H14166   5.940   5.847   3.826 -2.4372 -0.4648  1.2615
  846MOL0     H14167   5.948   5.853   3.996 -1.5252 -1.3737 -1.0467
  846MOL0     H14168   6.110   6.019   3.797 -2.4428  2.1320 -0.0459
  846MOL0     H14169   6.162   5.887   3.905 -2.0532 -1.9221 -0.8676
  846MOL0     H14170   6.243   6.232   4.192  2.0191 -3.0175  2.4861
  846MOL0     H14171   6.458   6.318   4.199  1.0535 -1.3032  0.5327
  846MOL0     H14172   6.856   6.444   3.906 -1.1700 -0.5591  1.3391
  846MOL0     H14173   7.091   6.485   3.917 -2.6696  1.1077 -1.5360
  846MOL0     H14174   7.231   6.652   4.321 -1.9629  0.1265 -2.7459
  846MOL0     H14175   7.263   6.487   4.341 -3.7614  1.9665  0.4338
  846MOL0     H14176   7.483   6.520   4.203 -0.6951 -1.3230  1.1405
  846MOL0     H14177   7.458   6.690   4.192  0.8307  1.8165  1.3377
  846MOL0     H14178   7.459   6.736   4.424 -3.6046 -1.3072  1.7836
  846MOL0     H14179   7.484   6.563   4.464  2.2849 -2.9892 -2.4850
  846MOL0     H14180   7.689   6.741   4.348 -1.0456 -0.1702  0.7417
  846MOL0     H14181   7.687   6.585   4.283  0.7790  1.2943 -0.4690
  846MOL0     H14182   7.697   6.651   4.580 -1.4913  0.6667 -1.2403
  846MOL0     H14183   7.842   6.645   4.487 -1.2040  1.1898 -1.9151
  846MOL0     H14184   7.624   6.427   4.534 -2.9133  4.9683 -5.1782
  846MOL0     H14185   7.755   6.399   4.424  1.1851 -5.7937  2.7904
  846MOL0     H14186   7.803   6.462   4.725  2.4004  1.8832  0.5411
  846MOL0     H14187   7.924   6.413   4.602 -0.4630  0.3676 -1.2316
  846MOL0     H14188   7.813   6.195   4.584  2.2388 -0.8119  1.5889
  846MOL0     H14189   7.868   6.232   4.750  2.2309  1.2371 -0.6058
  846MOL0     H14190   7.055   6.448   4.348 -2.5680 -3.1662  0.5466
  846MOL0     H14191   6.841   6.394   4.332 -1.3868 -0.8404  0.2349
  846MOL0     H14192   6.575   6.079   3.861  2.6892 -0.6284  3.2141
  846MOL0     H14193   6.343   6.006   3.831  0.3063 -2.4033  1.9859
  846MOL0     H14194   4.806   5.403   4.883 -1.2179  0.8727  0.0555
  846MOL0     H14195   4.602   5.372   4.826  1.4097  0.4733  1.6438
  846MOL0     H14196   4.291   5.110   4.336 -0.0382  1.9734  0.1407
  846MOL0     H14197   4.061   5.063   4.320  2.7932  0.1440 -0.8924
  846MOL0     H14198   3.826   5.162   4.712  0.5769 -0.4924 -0.0558
  846MOL0     H14199   3.708   5.071   4.613 -3.5121  3.4073  1.3154
  846MOL0     H14200   3.720   5.266   4.462  3.6358 -0.8564 -0.7868
  846MOL0     H14201   3.836   5.349   4.576 -0.9408  1.5058  1.6020
  846MOL0     H14202   3.667   5.466   4.621  1.2573  0.4807 -4.1830
  846MOL0     H14203   3.660   5.328   4.742 -0.3050  0.1312 -0.8105
  846MOL0     H14204   3.434   5.416   4.634  2.0308 -0.0413  1.1547
  846MOL0     H14205   3.503   5.323   4.491 -1.7179  0.0760 -0.3880
  846MOL0     H14206   3.369   4.997   4.684  0.1476 -0.2570 -1.4437
  846MOL0     H14207   4.017   5.223   4.717  0.3531  2.9175 -1.5257
  846MOL0     H14208   4.322   5.265   4.818 -0.9753 -0.0504 -0.3948
  846MOL0     H14209   4.324   5.405   4.710  0.3738  1.3469  4.3211
  846MOL0     H14210   4.186   5.373   4.799  1.3045  0.3564  2.6563
  847MOL0     O14211   5.511  10.484   8.521 -0.2222  0.0878  0.7604
  847MOL0     C14212   5.580  10.478   8.624 -0.3750  1.1374 -0.0394
  847MOL0     O14213   5.583  10.380   8.714  0.5422 -0.5019  0.8540
  847MOL0     C14214   5.457  10.335   8.750 -0.5455 -0.3208 -0.3220
  847MOL0     C14215   5.362  10.408   8.819 -0.4737 -0.7185  0.8660
  847MOL0     C14216   5.240  10.353   8.867  0.2622 -0.7391  0.8418
  847MOL0     C14217   5.212  10.224   8.852  0.1416 -0.4931 -0.2828
  847MOL0     O14218   5.093  10.181   8.909 -0.9948 -0.6108 -0.3552
  847MOL0     C14219   5.021  10.067   8.849 -0.8448  0.2888  1.0084
  847MOL0     C14220   4.987  10.097   8.703 -0.4057  0.3468  0.9470
  847MOL0     C14221   4.856  10.036   8.660 -0.0261 -0.6816 -0.8113
  847MOL0     C14222   4.825  10.045   8.514 -0.2283 -0.2401  0.9916
  847MOL0     C14223   4.710   9.945   8.488  0.2048  0.7109  0.2550
  847MOL0     C14224   4.683   9.917   8.335  0.2526 -1.1674  0.8329
  847MOL0     C14225   4.595   9.790   8.301 -0.3652  0.8490 -0.6454
  847MOL0     C14226   4.584   9.783   8.147 -0.2333  0.3690  0.5253
  847MOL0     N14227   4.472   9.700   8.102  0.3017  0.0976  1.0735
  847MOL0     C14228   4.357   9.750   8.048 -0.4940  0.3383 -0.3322
  847MOL0     C14229   4.295   9.651   7.982  0.3567  0.9106  0.4806
  847MOL0     C14230   4.176   9.669   7.906 -0.2629  1.0930  0.1673
  847MOL0     C14231   4.058   9.699   7.995 -0.5989 -0.4159 -1.5255
  847MOL0     C14232   3.928   9.672   7.925  0.1659  0.2036 -0.8354
  847MOL0     C14233   3.833   9.685   8.037 -0.2160  0.2846 -0.0387
  847MOL0     O14234   3.836   9.817   8.108  0.1507 -0.1939 -0.4185
  847MOL0     C14235   3.765   9.923   8.056 -0.8040 -0.1355 -0.4750
  847MOL0     C14236   3.814  10.047   8.111 -0.1622 -0.2218 -0.0485
  847MOL0     C14237   3.755  10.165   8.085  0.0430 -0.8244  0.9662
  847MOL0     C14238   3.639  10.160   8.007  0.4782  0.2631 -0.5225
  847MOL0     C14239   3.558  10.275   7.958 -1.5775  0.0146 -0.8492
  847MOL0     O14240   3.445  10.254   7.897 -0.5242  0.7434  0.8817
  847MOL0     C14241   3.352  10.345   7.871 -0.6002 -0.2391  0.0055
  847MOL0     C14242   3.249  10.378   7.959  0.0987 -0.8387  0.7212
  847MOL0     C14243   3.134  10.448   7.918 -0.7531  0.2273 -0.3270
  847MOL0     C14244   3.130  10.500   7.790 -0.1767  0.2652 -0.0584
  847MOL0     O14245   3.017  10.565   7.738  0.0106  0.2754  0.9050
  847MOL0     C14246   2.988  10.679   7.808  1.1884 -0.6972  0.5073
  847MOL0     C14247   2.906  10.781   7.728  0.6548  0.5994  0.5382
  847MOL0     C14248   2.991  10.843   7.624 -0.0822  0.7114  0.6055
  847MOL0     C14249   2.902  10.888   7.500 -0.4795  0.2288 -0.0926
  847MOL0     C14250   2.865  10.762   7.415  0.2025  0.4913  1.0576
  847MOL0     C14251   2.746  10.799   7.312 -0.1555  0.3605  0.5915
  847MOL0     C14252   2.758  10.917   7.212  0.0774  0.0044 -0.2419
  847MOL0     C14253   2.622  10.947   7.153  0.3682  0.1261  0.7999
  847MOL0    Cl14254   2.562  10.805   7.049 -0.0725  0.1775  0.2521
  847MOL0     C14255   3.239  10.479   7.708  0.1648 -0.4420  0.3686
  847MOL0     C14256   3.342  10.401   7.745 -0.0730 -0.3228  0.1426
  847MOL0     O14257   3.601  10.389   7.988  0.1412  0.5321 -0.1819
  847MOL0     C14258   3.594  10.031   7.956  0.1122  0.2791 -0.2973
  847MOL0     C14259   3.661   9.913   7.968 -0.1522  0.0260 -1.1925
  847MOL0     N14260   4.387   9.541   8.001 -0.1933  0.1142  0.3444
  847MOL0     N14261   4.492   9.578   8.060  0.6180  0.5284  0.0594
  847MOL0     C14262   5.306  10.145   8.788  0.4185 -0.2056 -0.0036
  847MOL0     C14263   5.426  10.202   8.735 -0.7601  0.7042  0.5743
  847MOL0     C14264   5.687  10.578   8.627  0.5601 -0.0029 -0.2424
  847MOL0     C14265   5.660  10.707   8.593 -0.4652 -0.0702  0.8221
  847MOL0     C14266   5.742  10.816   8.631  0.5317  0.1088  0.3450
  847MOL0     C14267   5.866  10.782   8.688  0.5351  0.3558  0.6646
  847MOL0     O14268   5.964  10.875   8.707  0.4726  0.3228  0.1833
  847MOL0     C14269   5.923  10.992   8.781 -0.6151  0.0633  0.2956
  847MOL0     C14270   6.049  11.064   8.820  0.2402  0.4828  0.6400
  847MOL0     C14271   6.171  10.980   8.866 -1.0811 -0.5139 -0.2188
  847MOL0     C14272   6.129  10.877   8.971 -0.7252  0.5397 -0.0825
  847MOL0     C14273   6.245  10.796   9.015  0.7999 -0.6711 -0.7121
  847MOL0     C14274   6.337  10.736   9.065 -0.0825  1.0017 -0.8380
  847MOL0     C14275   5.897  10.647   8.695 -0.5091  0.1248 -0.7733
  847MOL0     C14276   5.814  10.548   8.664  1.5144 -0.8125 -0.5930
  847MOL0     C14277   5.859  10.408   8.686 -0.3839 -0.1825 -0.3400
  847MOL0     H14278   5.398  10.510   8.830 -0.7658  0.0757 -3.6392
  847MOL0     H14279   5.176  10.422   8.921 -0.8541 -0.8881 -0.2380
  847MOL0     H14280   5.087   9.979   8.850  1.3026  1.7867  3.3381
  847MOL0     H14281   4.934  10.056   8.915 -0.7867 -1.2486  0.8716
  847MOL0     H14282   5.065  10.065   8.635 -0.9998  0.3307  0.2626
  847MOL0     H14283   4.980  10.206   8.692  0.7707  0.5716  2.1279
  847MOL0     H14284   4.780  10.086   8.720  0.2518 -0.7534 -0.3937
  847MOL0     H14285   4.860   9.932   8.695 -0.0470 -0.2498  0.5201
  847MOL0     H14286   4.798  10.147   8.484 -0.9952 -0.1981  1.8112
  847MOL0     H14287   4.905  10.003   8.452 -0.2458  0.0041  0.7983
  847MOL0     H14288   4.736   9.845   8.525  4.1429  1.4150 -0.1785
  847MOL0     H14289   4.617   9.980   8.533 -0.2332 -0.9410  0.7016
  847MOL0     H14290   4.647  10.012   8.294  0.4390 -1.3710  0.1729
  847MOL0     H14291   4.782   9.900   8.290  0.7598 -0.3032  1.5782
  847MOL0     H14292   4.495   9.805   8.343 -1.5826 -2.0685 -2.1557
  847MOL0     H14293   4.629   9.697   8.347  0.1362  1.2738 -0.1548
  847MOL0     H14294   4.584   9.879   8.095  2.1380  0.9078  1.4158
  847MOL0     H14295   4.675   9.731   8.114 -1.6168 -0.3144 -2.5797
  847MOL0     H14296   4.311   9.848   8.054 -1.3281 -0.0461 -0.3540
  847MOL0     H14297   4.178   9.742   7.825 -1.9740  2.0416  0.9096
  847MOL0     H14298   4.139   9.577   7.862  1.6159 -0.4913  1.7243
  847MOL0     H14299   4.069   9.646   8.090  0.1975  1.0168 -0.7910
  847MOL0     H14300   4.058   9.805   8.023 -0.1557  0.0019 -3.0191
  847MOL0     H14301   3.933   9.570   7.887  0.6670 -1.6938  3.6822
  847MOL0     H14302   3.903   9.738   7.841 -1.0263  0.1575 -0.5413
  847MOL0     H14303   3.842   9.604   8.110 -0.6823 -0.6360 -0.9569
  847MOL0     H14304   3.731   9.684   7.999  0.6873  4.8419 -3.5649
  847MOL0     H14305   3.912  10.054   8.158 -0.0847 -0.3989 -0.1807
  847MOL0     H14306   3.799  10.260   8.116 -1.5623 -0.0215  0.8727
  847MOL0     H14307   3.258  10.340   8.060  4.3339  2.0432  1.7436
  847MOL0     H14308   3.056  10.461   7.991  1.8673  1.3323  2.4943
  847MOL0     H14309   2.922  10.648   7.890  1.3081  1.5440  1.5125
  847MOL0     H14310   3.066  10.731   7.865 -1.2623  0.4508  3.1104
  847MOL0     H14311   2.810  10.739   7.696  1.7639 -0.0460 -2.2501
  847MOL0     H14312   2.876  10.861   7.795  0.9446  1.3149 -0.1694
  847MOL0     H14313   3.040  10.933   7.662  0.4500  1.2119 -1.1346
  847MOL0     H14314   3.067  10.775   7.584  1.4502  2.3227  0.6343
  847MOL0     H14315   2.960  10.958   7.439 -0.4855 -1.1430 -1.7427
  847MOL0     H14316   2.810  10.930   7.542  0.2040  1.6518  0.0273
  847MOL0     H14317   2.845  10.673   7.476  2.0444 -1.6470 -1.2218
  847MOL0     H14318   2.953  10.729   7.358  1.0386 -0.8998  3.0420
  847MOL0     H14319   2.711  10.708   7.263 -0.8837  0.9233  0.0404
  847MOL0     H14320   2.658  10.830   7.369 -1.1164 -1.9059  0.4347
  847MOL0     H14321   2.836  10.893   7.140 -0.8430 -0.0444 -1.2396
  847MOL0     H14322   2.786  11.004   7.271 -0.6560  0.0316  0.0759
  847MOL0     H14323   2.552  10.985   7.228 -1.1096  1.7324 -1.2806
  847MOL0     H14324   2.635  11.033   7.087 -0.1825  0.3905  1.0272
  847MOL0     H14325   3.237  10.498   7.601  0.0847 -2.8443 -0.1223
  847MOL0     H14326   3.413  10.360   7.674 -1.2692  0.0998 -1.3381
  847MOL0     H14327   3.517  10.010   7.882  2.1527  2.7034 -3.3684
  847MOL0     H14328   3.640   9.831   7.901  3.2640  1.1010 -3.8593
  847MOL0     H14329   5.288  10.039   8.775 -0.6356  0.1253 -1.5698
  847MOL0     H14330   5.496  10.141   8.678  1.0846 -0.4264  3.7920
  847MOL0     H14331   5.567  10.733   8.543  0.7144 -0.1597 -1.5535
  847MOL0     H14332   5.713  10.920   8.622  0.0457  0.1686  2.2240
  847MOL0     H14333   5.867  10.980   8.875  0.3052 -0.0915  0.8405
  847MOL0     H14334   5.862  11.051   8.713 -2.7462 -2.0673  0.2498
  847MOL0     H14335   6.013  11.131   8.899 -0.5241  1.1951 -0.2911
  847MOL0     H14336   6.075  11.135   8.741  2.6781  2.3799  2.9258
  847MOL0     H14337   6.234  11.057   8.911 -0.9561 -0.8302  0.1499
  847MOL0     H14338   6.226  10.927   8.788  2.8705 -0.1754  2.0830
  847MOL0     H14339   6.084  10.923   9.060 -0.6257  0.8005 -0.1681
  847MOL0     H14340   6.064  10.796   8.938  0.9000 -0.2625 -1.4522
  847MOL0     H14341   6.420  10.682   9.106 -0.3112  0.9119 -0.4871
  847MOL0     H14342   5.998  10.634   8.734 -0.2711  0.5283 -1.2435
  847MOL0     H14343   5.836  10.326   8.617  0.9356 -0.7256 -0.1623
  847MOL0     H14344   5.966  10.425   8.669 -0.3735  2.0522  1.5458
  847MOL0     H14345   5.854  10.385   8.792  2.0145  0.5810 -0.0091
  848MOL0     O14346  11.210   4.250   8.451 -1.1476 -0.1873 -0.3522
  848MOL0     C14347  11.174   4.256   8.331 -0.2670 -0.4788  0.1055
  848MOL0     O14348  11.245   4.219   8.228  0.4330 -0.0067 -0.0441
  848MOL0     C14349  11.354   4.138   8.257  0.1670 -0.1021  0.1487
  848MOL0     C14350  11.480   4.196   8.285 -0.0541  0.4637 -0.5916
  848MOL0     C14351  11.586   4.109   8.313 -0.7782  0.5262  0.0359
  848MOL0     C14352  11.591   3.973   8.299  0.6427 -0.3286  0.7491
  848MOL0     O14353  11.697   3.906   8.348  0.0298  0.1009 -0.6651
  848MOL0     C14354  11.740   3.789   8.279 -0.1576  0.0420 -0.0483
  848MOL0     C14355  11.874   3.751   8.345 -0.5585 -0.9403  0.7322
  848MOL0     C14356  12.004   3.801   8.272  0.7099  0.1974  0.5986
  848MOL0     C14357  12.030   3.955   8.301 -0.2593  0.1379 -0.1635
  848MOL0     C14358  12.154   4.002   8.233 -0.1169  0.4648  0.6770
  848MOL0     C14359  12.156   3.991   8.079 -0.2603 -0.6381 -0.3315
  848MOL0     C14360  12.278   4.068   8.014  0.3231 -0.4739  0.2332
  848MOL0     C14361  12.416   3.991   8.028  0.3391 -0.5879 -0.2426
  848MOL0     N14362  12.536   4.072   7.989  0.4849  0.1741  0.4978
  848MOL0     C14363  12.540   4.203   7.987 -0.0273 -0.1013 -0.2113
  848MOL0     C14364  12.670   4.237   7.952 -0.6656 -0.1926  0.0825
  848MOL0     C14365  12.746   4.374   7.932 -0.2661 -1.5332 -0.2716
  848MOL0     C14366  12.819   4.363   7.797 -0.0752 -0.0892  0.5951
  848MOL0     C14367  12.912   4.484   7.774 -0.1970  0.1780 -0.4782
  848MOL0     C14368  13.027   4.514   7.880  0.2931 -0.3729  0.9912
  848MOL0     O14369  13.123   4.607   7.819 -0.3095 -0.2319 -0.1380
  848MOL0     C14370  13.255   4.612   7.864 -0.0860  0.7800  0.4755
  848MOL0     C14371  13.337   4.699   7.791 -0.2361  0.9118  0.3655
  848MOL0     C14372  13.477   4.685   7.806  0.7110  0.7304  0.4683
  848MOL0     C14373  13.539   4.597   7.901 -0.3953  0.3853 -1.0250
  848MOL0     C14374  13.686   4.574   7.914 -0.7896 -0.2670  0.7793
  848MOL0     O14375  13.725   4.520   8.029 -0.5387  0.1087 -0.2224
  848MOL0     C14376  13.862   4.479   8.042 -0.0577  0.4331  1.2474
  848MOL0     C14377  13.966   4.566   8.021  0.2637 -1.2755 -0.2605
  848MOL0     C14378  14.096   4.521   8.045  0.7901 -0.1302 -0.6032
  848MOL0     C14379  14.131   4.395   8.089 -0.7331  0.4906  0.9846
  848MOL0     O14380  14.258   4.332   8.105  0.3997  0.1846 -0.1408
  848MOL0     C14381  14.356   4.378   8.020 -0.2324 -0.3617 -0.4499
  848MOL0     C14382  14.437   4.504   8.061 -0.4261 -0.2040 -0.0426
  848MOL0     C14383  14.548   4.469   8.165 -0.2274  0.5315  0.4674
  848MOL0     C14384  14.603   4.590   8.230 -0.2601 -0.8288 -0.5561
  848MOL0     C14385  14.720   4.565   8.328 -0.2525  0.1407 -0.0360
  848MOL0     C14386  14.674   4.492   8.454  0.3087 -0.1130 -0.1033
  848MOL0     C14387  14.802   4.472   8.543 -0.2176  1.2609  0.1763
  848MOL0     C14388  14.764   4.398   8.661  0.0799 -0.5322 -0.6449
  848MOL0    Cl14389  14.664   4.522   8.755 -0.2330 -0.1264 -0.2198
  848MOL0     C14390  14.017   4.311   8.118 -0.2577  0.2435 -0.2923
  848MOL0     C14391  13.884   4.349   8.086  0.4557  0.1937 -0.0260
  848MOL0     O14392  13.760   4.604   7.821 -1.2469 -0.1071 -0.0643
  848MOL0     C14393  13.451   4.521   7.976 -0.1973 -0.3394  0.1507
  848MOL0     C14394  13.315   4.532   7.959 -1.2787 -0.2918  0.0630
  848MOL0     N14395  12.730   4.119   7.917  0.5651 -0.2957 -0.1177
  848MOL0     N14396  12.644   4.023   7.931 -0.5699  0.1435  0.2982
  848MOL0     C14397  11.469   3.914   8.246 -0.6291 -0.1125 -0.1791
  848MOL0     C14398  11.356   3.994   8.225 -0.1868 -0.5418 -1.0223
  848MOL0     C14399  11.043   4.333   8.304 -0.3752  0.3811  0.9536
  848MOL0     C14400  11.010   4.437   8.390 -0.4971  0.4009  0.0908
  848MOL0     C14401  10.918   4.538   8.354  0.0229 -0.6849 -0.4319
  848MOL0     C14402  10.844   4.530   8.239  0.0083  0.7206  0.2486
  848MOL0     O14403  10.750   4.619   8.189  0.5535 -0.9817 -0.4327
  848MOL0     C14404  10.672   4.707   8.282 -0.3752  0.9139  0.6178
  848MOL0     C14405  10.698   4.848   8.235 -0.0942  0.1897  0.2649
  848MOL0     C14406  10.847   4.885   8.261  0.2190 -0.0998  0.0903
  848MOL0     C14407  10.860   5.036   8.270  0.6850  0.9775 -0.2046
  848MOL0     C14408  10.999   5.064   8.284 -0.6270 -0.0906 -0.4397
  848MOL0     C14409  11.110   5.090   8.311 -0.6227  0.4933 -0.0304
  848MOL0     C14410  10.874   4.429   8.154  0.0476  0.0308  0.4049
  848MOL0     C14411  10.967   4.326   8.185 -0.1343 -0.0227  0.4169
  848MOL0     C14412  10.972   4.201   8.088  0.2679  0.1794 -0.1335
  848MOL0     H14413  11.488   4.302   8.303 -1.5892  0.2398  1.8277
  848MOL0     H14414  11.684   4.152   8.335 -1.5280  2.8098 -0.7775
  848MOL0     H14415  11.669   3.708   8.301 -0.3329  0.0498 -0.5739
  848MOL0     H14416  11.755   3.804   8.172 -0.6163  2.5789  0.1906
  848MOL0     H14417  11.891   3.644   8.353 -1.5842 -1.1939 -0.2571
  848MOL0     H14418  11.870   3.799   8.443 -2.3284  2.5311 -0.8379
  848MOL0     H14419  11.993   3.775   8.166  1.3583  0.7660  0.3841
  848MOL0     H14420  12.082   3.741   8.318 -2.0791 -1.2892  3.8209
  848MOL0     H14421  11.951   4.024   8.269  0.9508  1.1027 -1.2003
  848MOL0     H14422  12.041   3.967   8.409  1.3459 -0.4605 -0.2374
  848MOL0     H14423  12.177   4.107   8.255 -2.5434  1.1451  0.3095
  848MOL0     H14424  12.238   3.945   8.273 -0.5733  0.0034  1.0026
  848MOL0     H14425  12.155   3.892   8.032  0.8565 -1.0146  0.4153
  848MOL0     H14426  12.072   4.045   8.033  1.9569  2.8398 -0.6442
  848MOL0     H14427  12.298   4.168   8.052  1.7776 -0.0259 -1.5579
  848MOL0     H14428  12.272   4.080   7.905  0.5574 -1.7052  0.0604
  848MOL0     H14429  12.447   3.966   8.130  2.2604 -1.1564 -0.9258
  848MOL0     H14430  12.411   3.893   7.980  1.4278 -0.1985 -1.1794
  848MOL0     H14431  12.469   4.280   8.017 -0.8745 -0.6726 -0.6885
  848MOL0     H14432  12.675   4.456   7.918  0.5549 -1.2383 -3.6193
  848MOL0     H14433  12.821   4.395   8.009  1.3772 -3.2738 -1.3089
  848MOL0     H14434  12.876   4.270   7.807  1.0779  0.7869  3.0804
  848MOL0     H14435  12.752   4.345   7.713 -0.1293 -1.6671  0.9488
  848MOL0     H14436  12.855   4.578   7.772  0.1140  0.4683  1.7369
  848MOL0     H14437  12.962   4.455   7.681  1.2876  2.2777 -0.4112
  848MOL0     H14438  13.077   4.418   7.894  1.0575  0.1359  1.8194
  848MOL0     H14439  12.985   4.553   7.973  3.9992  4.1535  1.0859
  848MOL0     H14440  13.302   4.780   7.727 -1.0715 -0.6259 -1.2345
  848MOL0     H14441  13.548   4.753   7.759 -1.3405  4.1820  1.9451
  848MOL0     H14442  13.961   4.668   7.986  4.0681  0.0457  2.4660
  848MOL0     H14443  14.164   4.602   8.024 -1.2620  1.5896 -0.9832
  848MOL0     H14444  14.429   4.297   8.016 -0.7682 -0.8874  0.0243
  848MOL0     H14445  14.321   4.391   7.917  0.0686 -2.1748 -0.8221
  848MOL0     H14446  14.494   4.554   7.983 -0.2297 -1.1359 -0.5051
  848MOL0     H14447  14.368   4.580   8.099  0.7246  0.4206  0.8922
  848MOL0     H14448  14.495   4.402   8.234  0.0716 -1.3048 -1.0019
  848MOL0     H14449  14.627   4.414   8.114 -1.2964  0.3554 -1.0602
  848MOL0     H14450  14.522   4.630   8.292  1.3289  0.1013  1.0125
  848MOL0     H14451  14.640   4.652   8.147  0.9522  0.6982  1.0432
  848MOL0     H14452  14.766   4.662   8.345  1.4540  0.0282 -3.2628
  848MOL0     H14453  14.794   4.502   8.278  1.2857 -1.4427  3.8262
  848MOL0     H14454  14.600   4.550   8.510 -1.0696 -2.1256  0.2509
  848MOL0     H14455  14.632   4.395   8.428 -0.6785  1.2417 -4.2943
  848MOL0     H14456  14.853   4.568   8.556  1.8894  0.1751  0.3627
  848MOL0     H14457  14.869   4.406   8.487 -2.5083 -1.6592  0.6469
  848MOL0     H14458  14.700   4.314   8.633  0.3883 -2.2512  3.2567
  848MOL0     H14459  14.845   4.367   8.728  0.0473  2.0146  0.6697
  848MOL0     H14460  14.035   4.210   8.154 -4.2568  0.3758  2.7014
  848MOL0     H14461  13.801   4.280   8.097 -1.0886  2.1054  0.9899
  848MOL0     H14462  13.487   4.453   8.052 -0.2123 -0.9909 -0.4091
  848MOL0     H14463  13.246   4.463   8.007 -2.1261 -2.5807 -3.9441
  848MOL0     H14464  11.482   3.811   8.218  3.9921  0.6411 -1.6774
  848MOL0     H14465  11.271   3.944   8.179 -2.1121 -1.3521  2.9877
  848MOL0     H14466  11.069   4.445   8.481 -0.0187 -1.1122 -0.0706
  848MOL0     H14467  10.909   4.637   8.396  1.5803 -0.4871 -0.5052
  848MOL0     H14468  10.697   4.694   8.388 -1.0072 -0.6296  0.6114
  848MOL0     H14469  10.567   4.678   8.274 -0.1842  0.6498 -1.6274
  848MOL0     H14470  10.625   4.906   8.293 -2.9092 -1.0019 -1.8301
  848MOL0     H14471  10.654   4.866   8.137  0.1658  0.7879  0.2531
  848MOL0     H14472  10.908   4.839   8.183  1.5315  1.4501  0.1324
  848MOL0     H14473  10.879   4.847   8.359  0.2605 -0.3873 -0.0339
  848MOL0     H14474  10.812   5.084   8.184 -1.5918 -0.4373  0.1891
  848MOL0     H14475  10.803   5.058   8.360 -2.1031 -0.0932 -1.5782
  848MOL0     H14476  11.212   5.109   8.335 -0.8391  1.5085  0.1225
  848MOL0     H14477  10.831   4.433   8.055  0.2580  1.1096  0.3419
  848MOL0     H14478  11.073   4.169   8.061 -0.5016 -0.4175 -2.5774
  848MOL0     H14479  10.917   4.117   8.133  0.0057  1.3581  1.8466
  848MOL0     H14480  10.917   4.222   7.996  1.0953 -1.0708 -0.9392
  849MOL0     O14481   2.424   1.716   0.205 -0.1289 -0.2386  0.3667
  849MOL0     C14482   2.549   1.702   0.199  1.1021 -0.7360 -0.6041
  849MOL0     O14483   2.636   1.797   0.241 -0.6446 -0.2753 -0.5037
  849MOL0     C14484   2.598   1.906   0.304  0.2361 -0.1209 -0.4747
  849MOL0     C14485   2.679   1.948   0.404  0.2591  0.7465  0.1919
  849MOL0     C14486   2.647   2.070   0.468  0.2058 -0.1891  0.8002
  849MOL0     C14487   2.553   2.159   0.417  1.2654 -0.2453 -0.2370
  849MOL0     O14488   2.531   2.276   0.495 -0.4913  0.0916 -0.1972
  849MOL0     C14489   2.409   2.351   0.502  0.1139 -0.0974  0.0277
  849MOL0     C14490   2.345   2.347   0.640 -0.1779 -0.4196 -0.1431
  849MOL0     C14491   2.195   2.378   0.652  0.4200 -0.2362 -0.6447
  849MOL0     C14492   2.178   2.523   0.634 -0.5882 -0.2238 -0.5433
  849MOL0     C14493   2.030   2.555   0.658  0.0368 -0.4274  0.3532
  849MOL0     C14494   2.015   2.710   0.678 -0.8185 -0.8164  0.6329
  849MOL0     C14495   1.870   2.754   0.680 -0.8691 -0.3376  0.4365
  849MOL0     C14496   1.851   2.906   0.665 -0.3753 -0.2783 -0.7646
  849MOL0     N14497   1.896   2.967   0.789 -0.8548  0.3745  0.8059
  849MOL0     C14498   1.997   3.064   0.793  0.0433 -0.2768  0.0472
  849MOL0     C14499   2.009   3.094   0.928 -0.3471 -0.2143 -0.2754
  849MOL0     C14500   2.106   3.194   1.002  0.9334 -0.9246 -0.2983
  849MOL0     C14501   2.063   3.342   1.002  0.3013 -1.3225  0.0297
  849MOL0     C14502   1.929   3.385   1.050 -0.2242  0.5482  0.7286
  849MOL0     C14503   1.894   3.350   1.192  0.2273 -0.3180 -0.3995
  849MOL0     O14504   1.756   3.399   1.199 -0.5011 -0.7038  0.6430
  849MOL0     C14505   1.678   3.326   1.285 -0.0137  0.2103  0.1048
  849MOL0     C14506   1.554   3.298   1.237  0.3904  0.6925 -0.5663
  849MOL0     C14507   1.465   3.242   1.324 -0.0510 -0.5400 -0.2344
  849MOL0     C14508   1.493   3.225   1.463 -0.7879  0.0911 -0.1934
  849MOL0     C14509   1.392   3.183   1.563  0.8011 -0.3758  0.0683
  849MOL0     O14510   1.445   3.144   1.684 -0.1853 -0.4739  0.8335
  849MOL0     C14511   1.360   3.115   1.788 -0.3583  0.1640 -0.7906
  849MOL0     C14512   1.251   3.017   1.788 -1.0471  0.2101 -0.0570
  849MOL0     C14513   1.201   2.982   1.911  0.9469 -0.9250 -0.4761
  849MOL0     C14514   1.250   3.043   2.031  0.1168 -0.1176  0.6568
  849MOL0     O14515   1.189   3.025   2.152  0.4157 -0.1815 -0.2336
  849MOL0     C14516   1.078   2.931   2.165 -0.3854 -0.3164  0.0921
  849MOL0     C14517   1.035   2.886   2.307  0.4605  0.8219  0.6815
  849MOL0     C14518   0.984   2.996   2.404  0.0624  0.6004  0.0542
  849MOL0     C14519   1.093   3.068   2.484  0.0283  0.9304 -0.6270
  849MOL0     C14520   1.040   3.194   2.555 -0.6882  0.1245 -0.0032
  849MOL0     C14521   1.141   3.243   2.668 -0.3842 -0.3493 -0.5700
  849MOL0     C14522   1.119   3.384   2.734  0.5169  0.9096  0.4344
  849MOL0     C14523   1.002   3.390   2.831  0.6467 -0.4940  0.2631
  849MOL0    Cl14524   1.058   3.302   2.975  0.3849 -0.3302 -0.1098
  849MOL0     C14525   1.358   3.129   2.031  1.0768  0.7708 -0.2659
  849MOL0     C14526   1.414   3.166   1.915 -0.8695 -0.2089 -0.5395
  849MOL0     O14527   1.271   3.180   1.531  0.2293 -0.2878  0.4381
  849MOL0     C14528   1.627   3.237   1.505 -0.2713  0.5464 -1.0478
  849MOL0     C14529   1.717   3.287   1.415 -0.2827 -0.3498 -0.3911
  849MOL0     N14530   1.909   3.019   0.992 -0.4161 -0.1209 -0.3899
  849MOL0     N14531   1.856   2.933   0.911  0.3419  0.0225 -0.5297
  849MOL0     C14532   2.479   2.117   0.303  0.0422 -0.6400  0.4688
  849MOL0     C14533   2.496   1.985   0.254 -0.4477  0.4644 -1.1051
  849MOL0     C14534   2.610   1.580   0.150  0.2762  0.1979 -0.1858
  849MOL0     C14535   2.748   1.591   0.112 -0.3590  0.0677  0.5387
  849MOL0     C14536   2.820   1.476   0.068  0.7874  0.4042  0.4862
  849MOL0     C14537   2.750   1.361   0.055 -0.1378 -0.3150  0.3640
  849MOL0     O14538   2.820   1.240   0.028 -1.1214 -0.5663 -0.2185
  849MOL0     C14539   2.759   1.116   0.063 -0.4174  0.3100 -0.2868
  849MOL0     C14540   2.746   1.086   0.214 -0.6502  0.7102 -0.5778
  849MOL0     C14541   2.870   1.011   0.270  0.0504 -0.3019 -0.1754
  849MOL0     C14542   2.983   1.109   0.267 -0.6943 -0.7517 -1.1341
  849MOL0     C14543   3.109   1.054   0.301 -0.1255 -0.0048  0.1007
  849MOL0     C14544   3.224   1.005   0.313 -0.3219 -0.2663 -0.5081
  849MOL0     C14545   2.608   1.354   0.085 -0.2870 -0.0229  0.5834
  849MOL0     C14546   2.538   1.460   0.138 -0.1806 -0.1799  0.4596
  849MOL0     C14547   2.391   1.433   0.160  0.3317  0.2460 -0.3927
  849MOL0     H14548   2.769   1.896   0.435  0.5838  0.5998 -0.9220
  849MOL0     H14549   2.691   2.091   0.565  1.2059  0.8175  0.1559
  849MOL0     H14550   2.440   2.454   0.484  0.5617 -0.3427 -0.6714
  849MOL0     H14551   2.328   2.327   0.432 -0.9611  2.8105  0.1463
  849MOL0     H14552   2.396   2.421   0.702  0.6641 -1.2552  0.1936
  849MOL0     H14553   2.371   2.247   0.677  0.3192 -1.7542 -3.6674
  849MOL0     H14554   2.153   2.353   0.750  1.3942  2.2446  0.5184
  849MOL0     H14555   2.130   2.315   0.592  0.1783  1.0912 -1.8155
  849MOL0     H14556   2.246   2.575   0.702 -1.7178 -0.0042  0.4533
  849MOL0     H14557   2.190   2.548   0.528 -2.1432  1.6966 -0.3087
  849MOL0     H14558   1.977   2.530   0.566  1.5178 -0.2609 -0.5860
  849MOL0     H14559   1.982   2.502   0.741 -0.1232  0.3351  0.7639
  849MOL0     H14560   2.056   2.726   0.779  0.0953 -1.8188  0.4489
  849MOL0     H14561   2.076   2.766   0.606  0.7795 -1.4546  1.4276
  849MOL0     H14562   1.838   2.716   0.777 -0.9002 -0.2814  0.4481
  849MOL0     H14563   1.819   2.696   0.603 -1.0144 -0.8135  0.8820
  849MOL0     H14564   1.890   2.950   0.573 -1.1575  0.1265 -0.9074
  849MOL0     H14565   1.742   2.906   0.671 -0.3529 -2.0797  0.1700
  849MOL0     H14566   2.059   3.113   0.719 -1.0304  0.3220 -0.4634
  849MOL0     H14567   2.095   3.151   1.102  0.5361  2.2174  1.1247
  849MOL0     H14568   2.208   3.190   0.964  0.8351 -2.6253 -0.4710
  849MOL0     H14569   2.142   3.407   1.040  0.4107  0.3343 -2.7160
  849MOL0     H14570   2.076   3.366   0.896  3.1638 -0.7485  0.4260
  849MOL0     H14571   1.855   3.338   0.984  3.1371  1.3710 -4.1655
  849MOL0     H14572   1.913   3.492   1.036 -3.9016 -0.0874 -1.0564
  849MOL0     H14573   1.965   3.399   1.259 -0.7525  0.6715 -0.0625
  849MOL0     H14574   1.890   3.242   1.212  1.0911 -0.9587 -3.1480
  849MOL0     H14575   1.519   3.319   1.136  3.0307 -0.2360 -1.7506
  849MOL0     H14576   1.367   3.225   1.281 -0.4828 -0.5696  0.7414
  849MOL0     H14577   1.219   2.975   1.693  0.0734  2.2100 -1.3915
  849MOL0     H14578   1.121   2.909   1.907  1.3836 -1.5211  1.0196
  849MOL0     H14579   0.988   2.969   2.114  0.1746  2.3865  0.9638
  849MOL0     H14580   1.129   2.848   2.116  0.5531  1.0581 -1.3502
  849MOL0     H14581   0.952   2.817   2.293  0.2505  1.3608 -0.8740
  849MOL0     H14582   1.119   2.826   2.344  0.3359  2.6137  4.2226
  849MOL0     H14583   0.923   3.064   2.345  1.3475  0.9273 -0.9329
  849MOL0     H14584   0.908   2.950   2.468 -0.8302  1.3792 -0.4366
  849MOL0     H14585   1.186   3.086   2.428  0.6176  0.4424  0.1819
  849MOL0     H14586   1.101   3.000   2.569 -1.5239  2.1132  0.5129
  849MOL0     H14587   0.941   3.172   2.596 -1.4091  0.4076 -1.5258
  849MOL0     H14588   1.022   3.274   2.482 -3.4620 -1.0784 -0.7433
  849MOL0     H14589   1.147   3.162   2.741  0.3784 -0.8943 -1.2217
  849MOL0     H14590   1.235   3.255   2.613 -0.2819 -1.0621 -0.5549
  849MOL0     H14591   1.103   3.468   2.665 -3.5514 -0.5762 -0.7068
  849MOL0     H14592   1.208   3.409   2.792 -1.3271  2.5544  2.7513
  849MOL0     H14593   0.974   3.495   2.848  0.4294 -0.3214 -1.0159
  849MOL0     H14594   0.905   3.350   2.800 -0.4388  0.8543  1.7735
  849MOL0     H14595   1.392   3.170   2.126  0.2093 -2.2925  1.4904
  849MOL0     H14596   1.501   3.231   1.914 -3.1414  3.1902 -2.8204
  849MOL0     H14597   1.657   3.219   1.607 -0.1696  0.4421 -1.0959
  849MOL0     H14598   1.817   3.321   1.438 -0.9885  2.1902 -0.8231
  849MOL0     H14599   2.409   2.170   0.239 -0.0878  0.2690  1.3437
  849MOL0     H14600   2.433   1.961   0.169 -1.1585  3.6754 -1.6344
  849MOL0     H14601   2.806   1.682   0.121  2.8147 -2.0516  4.5759
  849MOL0     H14602   2.923   1.488   0.036  0.0780  1.8052 -1.4347
  849MOL0     H14603   2.824   1.041   0.017 -0.1632 -0.0782  0.6793
  849MOL0     H14604   2.662   1.113   0.013 -0.3711  0.9463 -0.4241
  849MOL0     H14605   2.655   1.032   0.239  0.8958 -1.4212  0.7901
  849MOL0     H14606   2.744   1.174   0.279 -1.7253 -1.7572  3.0102
  849MOL0     H14607   2.878   0.921   0.208 -0.6888 -1.5616  1.4816
  849MOL0     H14608   2.855   0.974   0.372  0.0875 -4.3833 -1.4654
  849MOL0     H14609   3.000   1.148   0.166  1.6637 -0.5418 -0.7263
  849MOL0     H14610   2.968   1.183   0.346 -0.3095 -0.9275 -0.8934
  849MOL0     H14611   3.314   0.948   0.309 -0.3025 -0.1761 -1.9671
  849MOL0     H14612   2.552   1.262   0.094  0.4553 -0.3621  2.0278
  849MOL0     H14613   2.322   1.488   0.096 -2.2784 -1.9281  0.3871
  849MOL0     H14614   2.361   1.328   0.156 -1.7122  0.8379 -2.1588
  849MOL0     H14615   2.372   1.477   0.259  0.6846 -0.5329  0.0285
  850MOL0     O14616   8.607   0.742   2.216 -0.1718  0.1988 -0.3681
  850MOL0     C14617   8.603   0.624   2.246  0.9235 -0.2542 -0.1178
  850MOL0     O14618   8.713   0.543   2.255  0.1346 -0.0184 -0.7625
  850MOL0     C14619   8.830   0.606   2.292 -0.2829  0.0149  0.6272
  850MOL0     C14620   8.907   0.638   2.177 -0.3034  0.0431 -0.1712
  850MOL0     C14621   9.037   0.681   2.200 -0.0198 -0.1509 -0.0684
  850MOL0     C14622   9.078   0.716   2.338 -0.4583  0.1601  0.2479
  850MOL0     O14623   9.203   0.754   2.366 -0.1755  1.2309  0.0510
  850MOL0     C14624   9.288   0.813   2.271 -0.1110  0.3888 -0.7430
  850MOL0     C14625   9.409   0.878   2.341  0.8437  0.9339 -0.2082
  850MOL0     C14626   9.484   0.957   2.238  0.7288 -0.6205 -0.5357
  850MOL0     C14627   9.594   1.031   2.307  0.2328  0.1068  0.0780
  850MOL0     C14628   9.676   1.123   2.208 -0.7445  0.7480 -0.2956
  850MOL0     C14629   9.737   1.048   2.088  0.4781 -0.7513 -0.6609
  850MOL0     C14630   9.825   0.940   2.134  0.0174  1.6112  0.5918
  850MOL0     C14631   9.886   0.877   2.010 -0.4226  0.6466  0.4910
  850MOL0     N14632   9.787   0.786   1.949 -0.3249  0.7903 -0.2420
  850MOL0     C14633   9.794   0.640   1.957  0.2622  0.0376  0.5700
  850MOL0     C14634   9.691   0.593   1.881  0.3514 -0.7133  0.3725
  850MOL0     C14635   9.654   0.454   1.868 -0.2847 -0.3062  1.1308
  850MOL0     C14636   9.547   0.412   1.755  0.5034  0.0986 -0.1370
  850MOL0     C14637   9.482   0.279   1.796 -0.2104 -0.2769  0.2691
  850MOL0     C14638   9.383   0.218   1.696 -0.0761  0.5569 -0.2074
  850MOL0     O14639   9.460   0.146   1.598 -0.3696  0.4796 -0.0225
  850MOL0     C14640   9.473   0.012   1.626 -0.5995 -0.1851 -0.1258
  850MOL0     C14641   9.596  -0.046   1.648  0.1363 -0.3643  0.0966
  850MOL0     C14642   9.603  -0.186   1.662 -0.0728  0.3433  0.0488
  850MOL0     C14643   9.487  -0.267   1.646 -0.8694 -0.1999  0.1439
  850MOL0     C14644   9.506  -0.408   1.639  1.1566 -0.6326  0.5536
  850MOL0     O14645   9.407  -0.478   1.695  0.2263  0.2643  0.1640
  850MOL0     C14646   9.419  -0.614   1.705 -0.4886  0.2757  0.5186
  850MOL0     C14647   9.401  -0.683   1.824 -0.1223  0.4454  0.5433
  850MOL0     C14648   9.428  -0.823   1.833  0.7092 -0.2612  0.1388
  850MOL0     C14649   9.478  -0.893   1.718  0.8116  0.8032  0.2453
  850MOL0     O14650   9.503  -1.025   1.742  0.0251  0.8409  0.2551
  850MOL0     C14651   9.463  -1.101   1.626  0.5135 -1.6372  0.4998
  850MOL0     C14652   9.466  -1.250   1.630 -0.0017  0.7403 -0.3273
  850MOL0     C14653   9.371  -1.328   1.742  0.4121  0.1208 -0.0179
  850MOL0     C14654   9.392  -1.475   1.766  0.5277 -0.1528  0.4731
  850MOL0     C14655   9.309  -1.539   1.880  0.4347 -0.1826 -0.2568
  850MOL0     C14656   9.363  -1.676   1.918 -0.0971  0.1868  0.4549
  850MOL0     C14657   9.278  -1.777   2.003 -0.0368  0.0142 -0.7874
  850MOL0     C14658   9.310  -1.740   2.145 -0.0570  0.1364 -0.0905
  850MOL0    Cl14659   9.209  -1.842   2.244 -0.0434  0.1574  0.3963
  850MOL0     C14660   9.481  -0.826   1.597 -0.9361 -0.6615 -0.6649
  850MOL0     C14661   9.457  -0.692   1.589  0.0835 -0.5890 -0.9614
  850MOL0     O14662   9.612  -0.447   1.593  0.2652  0.3022  0.3235
  850MOL0     C14663   9.364  -0.209   1.618  0.0248  0.4719  0.9581
  850MOL0     C14664   9.360  -0.072   1.615 -0.1210 -1.2725 -0.4743
  850MOL0     N14665   9.623   0.703   1.829 -0.3180  0.3522 -0.7442
  850MOL0     N14666   9.694   0.808   1.850  0.8071  0.1482  0.0798
  850MOL0     C14667   8.993   0.688   2.447 -0.8272 -0.0434 -0.4212
  850MOL0     C14668   8.864   0.636   2.424  0.2383 -1.1798  0.6155
  850MOL0     C14669   8.479   0.552   2.242 -0.0182  0.3502 -0.1726
  850MOL0     C14670   8.483   0.411   2.231  0.2008 -0.3236 -0.7812
  850MOL0     C14671   8.368   0.332   2.255 -0.7344  0.9568 -0.1773
  850MOL0     C14672   8.245   0.388   2.280  0.1172  0.5555 -1.0692
  850MOL0     O14673   8.135   0.304   2.294  0.6029 -0.5387 -0.3965
  850MOL0     C14674   8.063   0.268   2.175 -0.0642  0.1529  0.0231
  850MOL0     C14675   7.960   0.167   2.211 -0.1679  0.0543  0.0363
  850MOL0     C14676   8.023   0.043   2.283 -0.3422 -0.4538  0.3817
  850MOL0     C14677   8.156  -0.020   2.219  0.3502 -0.4431 -0.1009
  850MOL0     C14678   8.151  -0.039   2.076  0.8699  0.5573 -0.1224
  850MOL0     C14679   8.173  -0.065   1.959  0.1911  0.3816  0.3340
  850MOL0     C14680   8.248   0.524   2.297  0.3129 -0.5747  0.1123
  850MOL0     C14681   8.357   0.609   2.288  1.0225 -0.7046  0.0637
  850MOL0     C14682   8.330   0.758   2.305 -0.9160 -0.0719  0.0752
  850MOL0     H14683   8.878   0.617   2.075  2.7725 -0.9358 -0.9448
  850MOL0     H14684   9.102   0.684   2.113  2.2859 -0.8869  1.5266
  850MOL0     H14685   9.330   0.740   2.201  0.2532  1.0888 -1.2716
  850MOL0     H14686   9.226   0.889   2.222  1.1828  0.8674 -1.6858
  850MOL0     H14687   9.472   0.810   2.400  2.7141  3.9529  1.5685
  850MOL0     H14688   9.366   0.941   2.419  0.1511  0.5538 -0.2747
  850MOL0     H14689   9.417   1.028   2.188  1.6067 -0.6374 -1.7641
  850MOL0     H14690   9.521   0.887   2.162 -0.9454 -1.6580 -0.4625
  850MOL0     H14691   9.553   1.079   2.396 -0.4935 -0.4824  0.0680
  850MOL0     H14692   9.665   0.961   2.351  0.6583  1.0773  0.9752
  850MOL0     H14693   9.603   1.197   2.174  0.6975  3.1451  1.6041
  850MOL0     H14694   9.756   1.169   2.266 -1.5466  1.1365  0.5216
  850MOL0     H14695   9.655   1.009   2.028 -2.0114  1.5254  1.0346
  850MOL0     H14696   9.792   1.120   2.027  2.4558 -3.1971 -1.9635
  850MOL0     H14697   9.776   0.858   2.188  0.4700 -2.0523 -3.9397
  850MOL0     H14698   9.902   0.975   2.204 -1.5569 -1.7088  4.4243
  850MOL0     H14699   9.906   0.958   1.940 -1.8862 -0.0578 -0.7998
  850MOL0     H14700   9.981   0.825   2.025 -1.4597 -2.0362 -1.4823
  850MOL0     H14701   9.859   0.581   2.020 -1.0783 -2.4735 -0.2917
  850MOL0     H14702   9.746   0.396   1.852  2.6453  3.8066  1.4167
  850MOL0     H14703   9.606   0.421   1.961 -1.3107  2.7995  1.8028
  850MOL0     H14704   9.475   0.494   1.742 -0.1233 -0.5663 -0.9780
  850MOL0     H14705   9.587   0.392   1.655  0.3293  3.2437 -0.9584
  850MOL0     H14706   9.433   0.285   1.893  2.0784 -0.7200  1.5136
  850MOL0     H14707   9.554   0.197   1.807 -0.1863 -1.4404 -5.2689
  850MOL0     H14708   9.328   0.297   1.645  0.8010  1.5104  0.2877
  850MOL0     H14709   9.305   0.160   1.746  1.4426  0.2900  2.0008
  850MOL0     H14710   9.684   0.018   1.637 -0.5333  0.1768 -3.0243
  850MOL0     H14711   9.704  -0.222   1.674 -0.7189 -2.0769 -1.2253
  850MOL0     H14712   9.371  -0.636   1.917 -0.7103  0.4311  0.3685
  850MOL0     H14713   9.412  -0.866   1.931  4.4051  1.1617  1.5211
  850MOL0     H14714   9.364  -1.073   1.586  2.1320  1.7722 -1.6112
  850MOL0     H14715   9.526  -1.067   1.543  1.6793 -0.6539  1.7439
  850MOL0     H14716   9.458  -1.293   1.530  1.1559 -1.1328  0.3379
  850MOL0     H14717   9.572  -1.273   1.647  0.4400  1.1269 -2.2958
  850MOL0     H14718   9.379  -1.279   1.840  1.1410  1.4307 -0.7098
  850MOL0     H14719   9.267  -1.317   1.709  0.8289  3.5781 -0.5996
  850MOL0     H14720   9.497  -1.486   1.793  0.3442 -2.7213  0.3185
  850MOL0     H14721   9.378  -1.528   1.671  3.4838  2.9491 -1.9599
  850MOL0     H14722   9.203  -1.545   1.854 -0.0107 -1.1101  1.5595
  850MOL0     H14723   9.320  -1.475   1.968  3.8811 -3.1025  1.6870
  850MOL0     H14724   9.370  -1.733   1.825  0.8828  2.9676 -1.2908
  850MOL0     H14725   9.460  -1.646   1.958  0.6240 -1.0141 -0.3165
  850MOL0     H14726   9.306  -1.882   1.992 -3.2812 -1.1472  0.5135
  850MOL0     H14727   9.170  -1.775   1.985 -0.2406 -0.1295  0.3427
  850MOL0     H14728   9.413  -1.759   2.175 -0.5125  0.3885  1.7291
  850MOL0     H14729   9.305  -1.634   2.172  1.5549  0.3834 -0.6636
  850MOL0     H14730   9.525  -0.868   1.507 -0.5219 -2.6956  0.4124
  850MOL0     H14731   9.471  -0.635   1.497  1.7908  1.0581  0.2434
  850MOL0     H14732   9.270  -0.262   1.611 -0.0451  0.4782  1.7957
  850MOL0     H14733   9.267  -0.015   1.611  0.3861 -0.1860  1.8948
  850MOL0     H14734   9.015   0.717   2.550 -1.5073 -1.9496  0.3113
  850MOL0     H14735   8.783   0.632   2.495 -2.2863 -0.6475 -2.0386
  850MOL0     H14736   8.583   0.377   2.206  2.0185  3.7906  0.0824
  850MOL0     H14737   8.373   0.224   2.244 -1.0596  1.1554 -2.9631
  850MOL0     H14738   8.128   0.229   2.097 -2.4904  1.5380 -2.9221
  850MOL0     H14739   8.010   0.362   2.157 -1.0115 -0.3381  0.1468
  850MOL0     H14740   7.904   0.135   2.123 -0.2567  2.0158 -0.6759
  850MOL0     H14741   7.898   0.204   2.294  0.0071  1.3230 -0.3695
  850MOL0     H14742   7.960  -0.046   2.292  3.9402 -3.6272  2.0164
  850MOL0     H14743   8.041   0.072   2.388  1.0283  0.1521  0.0025
  850MOL0     H14744   8.241   0.046   2.235  0.3744 -0.3607 -0.5585
  850MOL0     H14745   8.190  -0.110   2.270  1.1439 -0.7710 -1.1601
  850MOL0     H14746   8.166  -0.108   1.861  0.9235  0.2564  0.3295
  850MOL0     H14747   8.156   0.576   2.321 -0.9037 -2.7721  0.5580
  850MOL0     H14748   8.315   0.800   2.206  1.2826 -1.5293 -0.9390
  850MOL0     H14749   8.240   0.772   2.367  0.6325  2.1080  2.0149
  850MOL0     H14750   8.408   0.818   2.353  0.2045 -0.4477 -1.2505
  851MOL0     O14751   7.632   7.381   6.609  0.3646  0.7278 -0.6625
  851MOL0     C14752   7.532   7.423   6.656 -0.5514 -0.7370 -0.1990
  851MOL0     O14753   7.418   7.360   6.659 -0.8341  0.0996 -1.1541
  851MOL0     C14754   7.430   7.232   6.624  0.1838 -1.1136 -0.1516
  851MOL0     C14755   7.461   7.183   6.495 -0.7064  0.3321 -0.6955
  851MOL0     C14756   7.459   7.048   6.459 -0.7247 -0.6730 -0.0099
  851MOL0     C14757   7.444   6.959   6.567 -0.5521  0.1772 -0.6569
  851MOL0     O14758   7.453   6.821   6.536 -0.2099 -0.2760  0.0446
  851MOL0     C14759   7.342   6.734   6.565  0.1708 -0.2514  0.9142
  851MOL0     C14760   7.240   6.753   6.453  0.4284  0.6689  0.2717
  851MOL0     C14761   7.304   6.732   6.318  0.3334 -0.3221  0.1928
  851MOL0     C14762   7.220   6.643   6.225  0.1360  0.7291 -0.5407
  851MOL0     C14763   7.079   6.698   6.189  0.3659 -0.6004 -0.7384
  851MOL0     C14764   7.004   6.604   6.104 -0.3976  0.0645 -0.7990
  851MOL0     C14765   7.060   6.584   5.960  0.2304  0.0735  0.2286
  851MOL0     C14766   6.966   6.487   5.878 -0.7436 -0.0330  0.1049
  851MOL0     N14767   7.028   6.423   5.768  0.2827  0.4909 -0.5116
  851MOL0     C14768   7.074   6.483   5.655  0.2515 -1.0972  0.7117
  851MOL0     C14769   7.082   6.384   5.564 -0.3685 -0.0181  0.5019
  851MOL0     C14770   7.094   6.407   5.415  0.2980  0.5663  0.6612
  851MOL0     C14771   7.235   6.431   5.374  0.1680  0.3973 -0.1072
  851MOL0     C14772   7.244   6.509   5.242  0.5401 -0.5933 -1.0512
  851MOL0     C14773   7.258   6.410   5.132 -0.7601  0.3024 -0.6137
  851MOL0     O14774   7.225   6.474   5.005  0.4204 -0.7178  0.3505
  851MOL0     C14775   7.181   6.391   4.900  0.9997 -0.4445 -0.6241
  851MOL0     C14776   7.090   6.453   4.811  0.4659  0.1669  0.3788
  851MOL0     C14777   7.015   6.385   4.716 -0.3706 -0.0655 -0.0972
  851MOL0     C14778   7.044   6.244   4.693 -0.1792  0.9776  0.2588
  851MOL0     C14779   6.970   6.166   4.590 -0.0461 -0.0539  0.8725
  851MOL0     O14780   7.049   6.097   4.509  0.3281 -0.2608 -0.1670
  851MOL0     C14781   6.989   6.019   4.414  0.3230  0.1733 -0.1533
  851MOL0     C14782   6.986   6.034   4.277 -1.1172 -0.5852 -0.8229
  851MOL0     C14783   6.930   5.948   4.193  0.3026 -0.0204  0.4947
  851MOL0     C14784   6.877   5.832   4.236 -0.2100  0.6677 -0.3701
  851MOL0     O14785   6.845   5.727   4.154  0.3015  0.1549 -0.0357
  851MOL0     C14786   6.774   5.754   4.026  0.0644  0.4295 -0.5118
  851MOL0     C14787   6.737   5.616   3.958  0.0755 -0.2779  0.5018
  851MOL0     C14788   6.629   5.528   4.032 -0.1609 -0.4793 -0.7139
  851MOL0     C14789   6.473   5.583   4.039  0.7855 -0.4851  0.6460
  851MOL0     C14790   6.381   5.463   4.075  0.4967  0.4399 -0.7432
  851MOL0     C14791   6.384   5.420   4.223  0.1212  0.1558 -0.0592
  851MOL0     C14792   6.312   5.287   4.246 -0.1643 -0.5414  0.1093
  851MOL0     C14793   6.227   5.279   4.375 -0.3496 -0.2348  0.2286
  851MOL0    Cl14794   6.332   5.330   4.500 -0.0974 -0.0187 -0.0514
  851MOL0     C14795   6.874   5.807   4.371 -0.3774 -0.0200 -0.0095
  851MOL0     C14796   6.924   5.902   4.457 -0.7028 -1.0563 -0.0859
  851MOL0     O14797   6.847   6.175   4.587 -0.7949  0.0684 -0.3501
  851MOL0     C14798   7.132   6.176   4.787  0.2252  0.2332  0.1607
  851MOL0     C14799   7.187   6.251   4.895  0.3496 -0.6586  0.4815
  851MOL0     N14800   7.055   6.263   5.622  0.5219  0.1901  0.3217
  851MOL0     N14801   7.016   6.289   5.746 -0.3800 -0.2308  0.1000
  851MOL0     C14802   7.424   7.002   6.701 -0.8265 -0.3370  0.0234
  851MOL0     C14803   7.418   7.135   6.726 -0.7282  0.1604  0.7008
  851MOL0     C14804   7.531   7.565   6.680  0.6352  0.2239 -0.0275
  851MOL0     C14805   7.410   7.646   6.665  0.5921 -0.0066 -0.3338
  851MOL0     C14806   7.408   7.779   6.678 -0.1986  0.3313  0.5912
  851MOL0     C14807   7.524   7.851   6.708  0.2382  0.5479 -0.7306
  851MOL0     O14808   7.526   7.992   6.717 -0.0953  0.2472  0.0304
  851MOL0     C14809   7.523   8.034   6.853 -0.1916 -0.4093 -0.1780
  851MOL0     C14810   7.381   8.096   6.883  0.0777  0.1706  0.0572
  851MOL0     C14811   7.373   8.245   6.867 -0.0370 -0.8061  0.3771
  851MOL0     C14812   7.235   8.288   6.897  0.7586  0.4555  0.2021
  851MOL0     C14813   7.198   8.425   6.859  0.8285 -0.7358  0.5615
  851MOL0     C14814   7.175   8.543   6.834  0.1790  0.0087 -0.4114
  851MOL0     C14815   7.638   7.777   6.739 -0.5280 -0.2365  0.8961
  851MOL0     C14816   7.648   7.640   6.725 -0.7490  0.3326 -0.0329
  851MOL0     C14817   7.780   7.575   6.758  0.2725  0.0271  0.0403
  851MOL0     H14818   7.463   7.256   6.414 -0.6352  1.0071 -0.0929
  851MOL0     H14819   7.474   7.015   6.357  1.0492 -0.0010  0.0091
  851MOL0     H14820   7.384   6.633   6.569  2.4334  0.6050  0.5933
  851MOL0     H14821   7.303   6.764   6.663  0.0912  0.2325  0.7392
  851MOL0     H14822   7.199   6.854   6.439  1.8048  1.2047 -0.0379
  851MOL0     H14823   7.156   6.685   6.468  1.3561 -1.6468 -3.6414
  851MOL0     H14824   7.404   6.690   6.337 -0.3937 -0.9376  3.1328
  851MOL0     H14825   7.315   6.831   6.272  3.0873 -0.4951  0.2838
  851MOL0     H14826   7.281   6.627   6.136  1.1941  1.0946  0.0873
  851MOL0     H14827   7.207   6.539   6.255 -0.4990  0.2314 -2.4065
  851MOL0     H14828   7.025   6.735   6.276  0.8477  4.1430 -2.1831
  851MOL0     H14829   7.087   6.797   6.144  2.5523 -0.0576  0.7010
  851MOL0     H14830   7.008   6.505   6.149  1.0718  1.0666  1.4664
  851MOL0     H14831   6.905   6.643   6.079 -0.4809  0.2297 -0.2281
  851MOL0     H14832   7.167   6.559   5.964  0.7866  2.1807 -0.0827
  851MOL0     H14833   7.055   6.681   5.911  0.2052  0.3896  0.8447
  851MOL0     H14834   6.917   6.416   5.946 -0.3355 -0.3140  0.1075
  851MOL0     H14835   6.890   6.550   5.831 -0.8254 -0.5359 -0.4464
  851MOL0     H14836   7.093   6.589   5.647 -0.8376 -0.9701 -0.8562
  851MOL0     H14837   7.050   6.322   5.362  1.6905  0.8170 -1.0014
  851MOL0     H14838   7.034   6.494   5.387 -0.5835 -0.7476 -1.8842
  851MOL0     H14839   7.273   6.502   5.448  0.6101  1.7412 -1.5737
  851MOL0     H14840   7.279   6.330   5.376 -3.8179 -1.5974 -2.1630
  851MOL0     H14841   7.333   6.573   5.248 -0.9141  1.6225 -1.5538
  851MOL0     H14842   7.160   6.576   5.219  1.9362  1.1245 -1.3636
  851MOL0     H14843   7.194   6.326   5.160  0.7905  0.5036  4.6272
  851MOL0     H14844   7.360   6.372   5.129 -0.2292  1.7035 -1.4524
  851MOL0     H14845   7.084   6.562   4.809 -3.7607  0.0839 -1.2893
  851MOL0     H14846   6.933   6.434   4.663 -1.8294  0.5216  2.5091
  851MOL0     H14847   7.038   6.121   4.237 -1.0573 -1.7217 -3.4188
  851MOL0     H14848   6.936   5.977   4.089  1.1367 -1.7415  0.0224
  851MOL0     H14849   6.676   5.798   4.047 -0.1005 -0.7154  1.3198
  851MOL0     H14850   6.838   5.809   3.955  1.1978  2.5006  1.9481
  851MOL0     H14851   6.696   5.638   3.858 -1.0365  1.2217  1.2507
  851MOL0     H14852   6.834   5.567   3.945  0.4338  0.1830  1.3841
  851MOL0     H14853   6.622   5.433   3.978  0.7444 -0.0265 -1.6613
  851MOL0     H14854   6.658   5.526   4.137 -1.5073  2.0324 -0.2075
  851MOL0     H14855   6.447   5.627   3.942  2.6473  1.2402  0.8533
  851MOL0     H14856   6.464   5.673   4.101 -4.0072  0.2030 -0.6827
  851MOL0     H14857   6.415   5.382   4.010  0.2049  1.9036 -2.8060
  851MOL0     H14858   6.276   5.495   4.067  1.0834  2.0957 -2.3421
  851MOL0     H14859   6.489   5.412   4.254  0.0742  0.2889  0.1376
  851MOL0     H14860   6.333   5.490   4.290  0.3376  0.6059 -0.3654
  851MOL0     H14861   6.383   5.203   4.243 -2.9011 -3.0198 -0.0071
  851MOL0     H14862   6.247   5.275   4.159  1.1115 -0.9124 -0.8241
  851MOL0     H14863   6.134   5.335   4.359 -0.0522  0.1072 -0.3635
  851MOL0     H14864   6.195   5.178   4.401 -2.0224  0.4291  0.8978
  851MOL0     H14865   6.844   5.713   4.416  0.2401 -0.4433 -0.4821
  851MOL0     H14866   6.927   5.886   4.565 -0.9833 -0.5074  0.0079
  851MOL0     H14867   7.160   6.072   4.778  0.0246  0.1354  0.6159
  851MOL0     H14868   7.240   6.190   4.968 -0.7615 -0.5198  1.4346
  851MOL0     H14869   7.405   6.924   6.773 -0.6124  1.5197  2.2217
  851MOL0     H14870   7.415   7.163   6.830  1.0236 -0.1035  0.8597
  851MOL0     H14871   7.314   7.600   6.646  1.0352 -0.7210 -0.9282
  851MOL0     H14872   7.316   7.834   6.665 -0.0279  1.1946  2.6333
  851MOL0     H14873   7.594   8.117   6.861 -1.5248  0.6045  1.7903
  851MOL0     H14874   7.558   7.958   6.925  1.9007 -0.7926 -1.5152
  851MOL0     H14875   7.332   8.051   6.969  0.5505 -0.7649 -0.1560
  851MOL0     H14876   7.315   8.054   6.807  0.3965 -2.4482  1.1273
  851MOL0     H14877   7.394   8.278   6.765  0.2289 -0.9634  0.3796
  851MOL0     H14878   7.439   8.298   6.936  1.4576 -2.0035 -0.0836
  851MOL0     H14879   7.167   8.235   6.829  2.2825 -0.7024 -0.4744
  851MOL0     H14880   7.222   8.280   7.005  0.0695 -1.3256  0.0192
  851MOL0     H14881   7.153   8.647   6.830 -1.9368 -0.2816  1.3790
  851MOL0     H14882   7.720   7.835   6.779 -1.0404  0.2820  1.2101
  851MOL0     H14883   7.773   7.488   6.823 -0.9439  0.6141  0.7210
  851MOL0     H14884   7.838   7.556   6.667  1.4579  0.9790  0.5664
  851MOL0     H14885   7.829   7.645   6.826  0.8246 -1.4132  1.1750
  852MOL0     O14886   5.261   8.830  10.015  0.8275  0.0760  0.7712
  852MOL0     C14887   5.367   8.836  10.070 -1.1081  0.0899 -0.3769
  852MOL0     O14888   5.382   8.824  10.212 -0.0064  0.1545 -0.3752
  852MOL0     C14889   5.278   8.849  10.295 -0.0341 -0.1251  0.1316
  852MOL0     C14890   5.290   8.954  10.382  0.9642 -0.6203 -0.2177
  852MOL0     C14891   5.177   8.993  10.455 -0.0786  0.5205  0.1503
  852MOL0     C14892   5.053   8.918  10.456  1.0618 -1.2667  0.2734
  852MOL0     O14893   4.953   8.954  10.536  0.0038 -0.5099  0.0388
  852MOL0     C14894   4.836   9.008  10.471  0.6497 -0.0073  0.8717
  852MOL0     C14895   4.795   9.145  10.519  0.6723 -0.1773 -0.5548
  852MOL0     C14896   4.684   9.191  10.426  0.0430 -0.6410  0.4275
  852MOL0     C14897   4.745   9.315  10.353  0.1806 -0.3095  0.4025
  852MOL0     C14898   4.844   9.264  10.252 -0.7225  0.0618 -0.9635
  852MOL0     C14899   4.949   9.379  10.210 -0.0516 -0.6719  0.1971
  852MOL0     C14900   5.044   9.424  10.332 -1.0565  0.4339 -0.7350
  852MOL0     C14901   5.110   9.561  10.299  0.4864 -0.4535 -0.3921
  852MOL0     N14902   5.208   9.597  10.402 -0.2003  0.4285  0.4727
  852MOL0     C14903   5.343   9.587  10.376 -0.1024  0.5773  0.4021
  852MOL0     C14904   5.412   9.652  10.471 -0.3653  0.6297  0.1603
  852MOL0     C14905   5.561   9.690  10.493 -0.2282 -0.5966 -0.0633
  852MOL0     C14906   5.594   9.831  10.435  0.3390  0.5425  0.4325
  852MOL0     C14907   5.741   9.879  10.473 -0.6865  0.4650  0.2486
  852MOL0     C14908   5.775   9.997  10.395  0.2375 -0.4239 -0.3135
  852MOL0     O14909   5.918  10.015  10.400  0.1931 -0.4154 -0.8510
  852MOL0     C14910   5.965  10.136  10.345  0.7613  0.3320  0.1776
  852MOL0     C14911   5.880  10.223  10.271 -0.6697  1.0187  0.7068
  852MOL0     C14912   5.926  10.350  10.234 -0.6472  0.4770  0.6904
  852MOL0     C14913   6.063  10.390  10.257  1.3864  0.0832  0.3812
  852MOL0     C14914   6.118  10.518  10.223  0.5146 -0.2304  0.1997
  852MOL0     O14915   6.254  10.530  10.211  0.7278  0.0503 -0.2983
  852MOL0     C14916   6.295  10.637  10.136  0.8139 -0.6600  0.1576
  852MOL0     C14917   6.398  10.704  10.188  0.8803 -0.2175  0.0029
  852MOL0     C14918   6.458  10.810  10.117 -0.0835 -0.1938  0.2376
  852MOL0     C14919   6.414  10.851   9.993 -0.0564  0.5861 -0.0567
  852MOL0     O14920   6.457  10.958   9.914 -0.5851  0.3214 -0.4943
  852MOL0     C14921   6.538  11.053   9.977 -0.4628 -0.1182 -1.0663
  852MOL0     C14922   6.606  11.144   9.879 -0.0371 -0.6044  0.2899
  852MOL0     C14923   6.731  11.084   9.815  0.9688 -0.5475 -0.7340
  852MOL0     C14924   6.769  11.151   9.679 -0.2043 -0.0208  0.1477
  852MOL0     C14925   6.893  11.092   9.611  0.0386 -0.0844 -0.5620
  852MOL0     C14926   7.023  11.147   9.674  0.1629  0.2276 -0.1706
  852MOL0     C14927   7.135  11.079   9.616 -0.2449 -1.3157  0.1784
  852MOL0     C14928   7.178  11.105   9.472 -0.2583  0.4089  0.5205
  852MOL0    Cl14929   7.304  10.986   9.433  0.0116 -0.2114 -0.1958
  852MOL0     C14930   6.316  10.781   9.943  0.2382 -0.2910  0.1323
  852MOL0     C14931   6.260  10.667  10.006  0.1190 -0.7772 -0.1395
  852MOL0     O14932   6.036  10.604  10.179 -0.2408 -0.6315 -0.9511
  852MOL0     C14933   6.148  10.298  10.324  0.3195  0.0914  0.0777
  852MOL0     C14934   6.094  10.181  10.370  0.6864 -0.2805  0.3344
  852MOL0     N14935   5.314   9.697  10.558  0.1642 -0.3497 -0.0947
  852MOL0     N14936   5.200   9.679  10.518 -0.0709 -0.5057 -0.6915
  852MOL0     C14937   5.048   8.811  10.372 -0.1157 -0.1785  1.2644
  852MOL0     C14938   5.162   8.773  10.302 -1.2973 -0.5627  0.7180
  852MOL0     C14939   5.490   8.859   9.995  0.1186  0.0482 -0.7216
  852MOL0     C14940   5.483   8.958   9.893 -0.0516  0.3796  0.6687
  852MOL0     C14941   5.594   9.001   9.825  0.0559  0.2200  0.8138
  852MOL0     C14942   5.712   8.939   9.844  0.2311  0.3154  0.0427
  852MOL0     O14943   5.824   8.955   9.764 -0.0530 -1.2179  0.6206
  852MOL0     C14944   5.879   9.086   9.777  0.4472  0.0813 -0.2119
  852MOL0     C14945   5.847   9.173   9.657  0.8577  0.1998  0.7426
  852MOL0     C14946   5.874   9.324   9.691  0.3034 -0.1633 -0.0227
  852MOL0     C14947   5.868   9.397   9.561  0.3489 -0.3005  0.2461
  852MOL0     C14948   5.729   9.432   9.528 -0.0063 -0.2173 -0.2699
  852MOL0     C14949   5.611   9.465   9.502  0.1716 -0.5885 -0.1101
  852MOL0     C14950   5.729   8.841   9.942  0.0555 -0.1192  0.2219
  852MOL0     C14951   5.619   8.801  10.024  0.1243  0.2833 -0.1524
  852MOL0     C14952   5.625   8.672  10.111 -1.1643 -0.5562  0.2011
  852MOL0     H14953   5.387   9.004  10.383  0.0948  1.1774  1.6270
  852MOL0     H14954   5.194   9.078  10.521  0.0309  1.3789 -0.9596
  852MOL0     H14955   4.851   9.017  10.363 -1.1976 -0.8382  0.5180
  852MOL0     H14956   4.752   8.938  10.477 -0.2937  0.8927 -1.0176
  852MOL0     H14957   4.881   9.207  10.545  0.5180 -1.3199  3.3466
  852MOL0     H14958   4.748   9.135  10.618 -1.7449  2.3253 -1.3277
  852MOL0     H14959   4.608   9.243  10.486 -1.2302  1.3122 -2.5975
  852MOL0     H14960   4.633   9.112  10.370 -0.3258 -0.2970  0.2650
  852MOL0     H14961   4.665   9.362  10.295  1.2266  1.0979  0.0102
  852MOL0     H14962   4.789   9.385  10.425  1.3060 -0.0097 -0.5334
  852MOL0     H14963   4.902   9.176  10.279  0.1254  0.3502 -1.7698
  852MOL0     H14964   4.795   9.231  10.160  1.0364 -1.5504 -1.3860
  852MOL0     H14965   5.018   9.342  10.133  0.4146  0.9625 -0.2143
  852MOL0     H14966   4.895   9.468  10.178 -0.4638 -0.4728  1.4080
  852MOL0     H14967   5.120   9.346  10.337 -0.8549  0.6195 -0.8910
  852MOL0     H14968   4.996   9.426  10.430  1.1423  2.5743  0.4104
  852MOL0     H14969   5.156   9.550  10.200 -2.1791  0.5955 -1.8224
  852MOL0     H14970   5.040   9.644  10.294  2.3735  1.1447 -2.8108
  852MOL0     H14971   5.379   9.539  10.285 -1.8868 -1.4040  0.6697
  852MOL0     H14972   5.575   9.710  10.600  1.1939  0.6965 -0.4597
  852MOL0     H14973   5.633   9.617  10.457 -0.0020  0.3329 -1.5742
  852MOL0     H14974   5.581   9.811  10.328  0.3746 -1.7870  0.8196
  852MOL0     H14975   5.523   9.910  10.461 -0.3296  2.1134 -4.8466
  852MOL0     H14976   5.805   9.794  10.446 -1.2585  0.6865 -2.0580
  852MOL0     H14977   5.746   9.893  10.581  2.6135 -0.8123  0.3620
  852MOL0     H14978   5.720  10.077  10.444 -3.1295 -2.8480  0.2196
  852MOL0     H14979   5.743   9.987  10.290 -1.3068  1.6159 -0.1017
  852MOL0     H14980   5.786  10.200  10.222  0.0462  1.4666 -0.9521
  852MOL0     H14981   5.850  10.408  10.182 -2.1091 -1.0268  1.0875
  852MOL0     H14982   6.439  10.682  10.286  1.1590  2.5861  0.5937
  852MOL0     H14983   6.538  10.866  10.165  0.3190 -0.9788  0.4942
  852MOL0     H14984   6.472  11.115  10.039  2.8460  1.9466  0.6716
  852MOL0     H14985   6.619  11.008  10.035  0.3825  0.3439 -1.8530
  852MOL0     H14986   6.534  11.159   9.798 -0.2840 -1.4419  0.3440
  852MOL0     H14987   6.634  11.239   9.925 -1.4754  0.1578 -0.3221
  852MOL0     H14988   6.820  11.081   9.879 -0.1060 -2.4188  0.7822
  852MOL0     H14989   6.707  10.978   9.803 -3.0827 -0.0615  1.5969
  852MOL0     H14990   6.787  11.259   9.671 -2.2230  0.2677 -1.4918
  852MOL0     H14991   6.687  11.146   9.606  1.4654  2.7754 -2.1727
  852MOL0     H14992   6.881  11.121   9.506  0.6556 -1.9386 -1.1850
  852MOL0     H14993   6.893  10.983   9.609  0.1924 -0.1163  0.5673
  852MOL0     H14994   7.035  11.251   9.641 -1.3184 -0.0381 -1.6414
  852MOL0     H14995   7.034  11.146   9.783  0.5907  3.7852 -0.0539
  852MOL0     H14996   7.126  10.971   9.625  1.2531 -1.3741  1.3689
  852MOL0     H14997   7.229  11.087   9.672 -1.5741  0.8129  2.2504
  852MOL0     H14998   7.097  11.086   9.401 -1.3292 -0.7942  1.9821
  852MOL0     H14999   7.214  11.208   9.466 -1.8436  0.9054 -1.1732
  852MOL0     H15000   6.272  10.812   9.849 -0.2754  1.3163  0.8737
  852MOL0     H15001   6.181  10.611   9.958 -2.0051  1.2540  0.7934
  852MOL0     H15002   6.252  10.326  10.341  1.0672 -0.9594 -2.2588
  852MOL0     H15003   6.158  10.113  10.426  1.8048 -0.8355 -1.5077
  852MOL0     H15004   4.960   8.750  10.384 -1.6357  1.9895  1.6553
  852MOL0     H15005   5.159   8.678  10.248 -1.5829 -0.2337  0.1502
  852MOL0     H15006   5.386   8.994   9.859 -0.1783 -1.2405 -0.8503
  852MOL0     H15007   5.585   9.083   9.754 -1.0671 -1.6378 -1.2750
  852MOL0     H15008   5.988   9.080   9.788  0.4219  0.4193  0.2390
  852MOL0     H15009   5.834   9.128   9.868  0.8905  1.9152 -0.7975
  852MOL0     H15010   5.744   9.163   9.622  0.7083  1.6008  0.7131
  852MOL0     H15011   5.922   9.134   9.587  1.4486  1.8376  0.4108
  852MOL0     H15012   5.968   9.348   9.742 -0.2682  1.3401  0.3963
  852MOL0     H15013   5.790   9.345   9.758 -0.0625 -0.7262 -0.2945
  852MOL0     H15014   5.928   9.488   9.555 -1.4305  0.8129 -2.5989
  852MOL0     H15015   5.896   9.334   9.476 -1.6623 -0.6520 -0.2100
  852MOL0     H15016   5.506   9.485   9.501  0.4312  1.1146  1.0927
  852MOL0     H15017   5.822   8.790   9.963  0.7108  1.5535  1.6199
  852MOL0     H15018   5.529   8.656  10.161 -1.0895 -0.5229  0.3587
  852MOL0     H15019   5.652   8.585  10.052 -4.5687 -0.2442 -2.0638
  852MOL0     H15020   5.694   8.692  10.194 -1.3187 -0.6809  0.3601
  853MOL0     O15021   1.446   7.215   9.010  0.0182 -0.4601 -1.5530
  853MOL0     C15022   1.421   7.252   8.898  0.1094 -0.2316  0.3739
  853MOL0     O15023   1.329   7.363   8.869  0.1704 -0.3030 -0.2211
  853MOL0     C15024   1.351   7.462   8.968  0.6994 -0.5352 -0.0180
  853MOL0     C15025   1.246   7.560   8.978  0.2001  0.5966 -0.1714
  853MOL0     C15026   1.246   7.660   9.074  1.0379  0.6941 -0.5358
  853MOL0     C15027   1.347   7.662   9.172 -0.0676 -0.0030 -0.0140
  853MOL0     O15028   1.363   7.760   9.269  0.1250 -0.0560 -0.0067
  853MOL0     C15029   1.254   7.814   9.330  1.3489 -0.0452 -0.6712
  853MOL0     C15030   1.238   7.751   9.461 -0.2573  0.9039 -0.4068
  853MOL0     C15031   1.132   7.823   9.539 -0.4249 -1.0815 -0.4448
  853MOL0     C15032   1.130   7.766   9.687 -1.0021  0.6534  1.1210
  853MOL0     C15033   1.015   7.819   9.776  0.7392 -1.4269  0.9143
  853MOL0     C15034   1.002   7.971   9.795  0.7206 -0.8807  0.1246
  853MOL0     C15035   0.864   8.014   9.852 -0.3362  0.0259 -0.8320
  853MOL0     C15036   0.853   8.169   9.853 -0.6742  0.2416 -1.5587
  853MOL0     N15037   0.720   8.208   9.898 -0.4949 -0.4263  0.1596
  853MOL0     C15038   0.633   8.278   9.813 -0.0911  0.0442 -0.0421
  853MOL0     C15039   0.539   8.330   9.897 -0.4324  0.4154 -1.0290
  853MOL0     C15040   0.434   8.426   9.862  0.3430 -0.8741  0.2253
  853MOL0     C15041   0.495   8.556   9.801  0.2461  0.6865  0.6408
  853MOL0     C15042   0.415   8.665   9.850  0.3000  0.3540  0.1945
  853MOL0     C15043   0.475   8.794   9.780 -0.1132 -0.2979 -0.0238
  853MOL0     O15044   0.454   8.800   9.631 -0.6696 -0.0122 -0.6831
  853MOL0     C15045   0.328   8.817   9.571 -0.5602 -0.8273 -0.1565
  853MOL0     C15046   0.313   8.775   9.437  0.4329 -0.3831  0.2146
  853MOL0     C15047   0.196   8.781   9.367 -0.5077 -0.6322  0.5665
  853MOL0     C15048   0.075   8.821   9.435  0.0732  0.2406  0.7175
  853MOL0     C15049  -0.054   8.824   9.362 -0.2362  0.2144  0.8033
  853MOL0     O15050  -0.061   8.752   9.250 -0.0730 -0.1101  0.4969
  853MOL0     C15051  -0.178   8.745   9.190 -0.5131  0.3810  0.0088
  853MOL0     C15052  -0.301   8.710   9.247 -0.2310  0.2595  0.1732
  853MOL0     C15053  -0.411   8.674   9.173  0.2757 -0.1877  0.7270
  853MOL0     C15054  -0.413   8.667   9.036  0.2402  0.0862 -0.2121
  853MOL0     O15055  -0.533   8.652   8.957  0.4352  0.2796  0.4379
  853MOL0     C15056  -0.642   8.585   9.013 -0.0272 -0.4911  0.5076
  853MOL0     C15057  -0.764   8.593   8.920 -0.0456 -0.1642  0.4629
  853MOL0     C15058  -0.839   8.727   8.912  0.6190 -0.6469  0.1486
  853MOL0     C15059  -0.968   8.699   8.839 -0.6530 -0.1334  0.1791
  853MOL0     C15060  -1.050   8.824   8.807  0.6561  1.3771  0.7057
  853MOL0     C15061  -0.991   8.896   8.690 -0.2971  0.3143 -0.1689
  853MOL0     C15062  -1.087   9.017   8.657 -0.7611 -0.4185 -1.0649
  853MOL0     C15063  -1.112   9.073   8.509  0.8139  0.7594 -0.8607
  853MOL0    Cl15064  -1.163   8.921   8.424  0.0796  0.0246  0.6040
  853MOL0     C15065  -0.297   8.700   8.969 -0.9050  0.2540 -0.6078
  853MOL0     C15066  -0.181   8.737   9.051  0.9230  0.1937  0.5892
  853MOL0     O15067  -0.134   8.891   9.424 -0.4787  0.2825  0.2757
  853MOL0     C15068   0.084   8.839   9.580 -0.5583  0.6934  1.1130
  853MOL0     C15069   0.207   8.846   9.642 -0.5248 -0.0084 -0.5286
  853MOL0     N15070   0.559   8.283  10.023 -0.5440 -0.7023 -1.3554
  853MOL0     N15071   0.667   8.212  10.027 -0.7360 -0.0278  0.2280
  853MOL0     C15072   1.450   7.571   9.160 -0.1818  0.3127  0.6641
  853MOL0     C15073   1.461   7.486   9.051  0.0021 -1.0937 -0.7451
  853MOL0     C15074   1.474   7.178   8.782 -0.0643 -0.2579  0.5178
  853MOL0     C15075   1.532   7.258   8.688  0.8535  0.3829  0.3428
  853MOL0     C15076   1.578   7.196   8.568  0.3275 -0.2375  0.0510
  853MOL0     C15077   1.570   7.059   8.548  0.6393  0.5301  0.3519
  853MOL0     O15078   1.602   6.989   8.432 -0.2226 -0.1235 -0.4482
  853MOL0     C15079   1.698   7.049   8.348 -0.6168 -0.8446 -0.2572
  853MOL0     C15080   1.779   6.948   8.262  0.2251  0.2290  0.5178
  853MOL0     C15081   1.870   6.843   8.339 -0.2407  1.1612 -0.7308
  853MOL0     C15082   2.004   6.914   8.375 -0.3761 -0.3685 -0.0512
  853MOL0     C15083   1.994   7.018   8.471  0.5356  0.5868  0.1152
  853MOL0     C15084   1.997   7.098   8.559  0.1417 -0.4316 -0.7904
  853MOL0     C15085   1.516   6.988   8.652 -0.4039  0.9063  1.0642
  853MOL0     C15086   1.469   7.043   8.766  0.4533 -0.3355 -0.3811
  853MOL0     C15087   1.396   6.956   8.865  0.4325  0.1027 -0.4999
  853MOL0     H15088   1.165   7.548   8.906  1.3260 -1.1289 -1.2285
  853MOL0     H15089   1.152   7.714   9.084  0.6312 -0.2602  1.1454
  853MOL0     H15090   1.280   7.918   9.348  3.2771 -0.3972 -1.2313
  853MOL0     H15091   1.156   7.816   9.281  0.3869  0.1751  1.1588
  853MOL0     H15092   1.330   7.759   9.520 -1.2778  0.0104  1.3884
  853MOL0     H15093   1.211   7.648   9.436 -2.4784  1.4231 -0.3597
  853MOL0     H15094   1.033   7.815   9.493 -0.7541  1.2029 -0.2404
  853MOL0     H15095   1.154   7.930   9.539  2.6460 -1.6180  0.4053
  853MOL0     H15096   1.123   7.657   9.681  1.3320  0.5422 -1.2293
  853MOL0     H15097   1.226   7.797   9.728  1.0763 -1.1840 -1.9466
  853MOL0     H15098   0.921   7.792   9.726 -0.1947  0.2005  1.7154
  853MOL0     H15099   1.015   7.780   9.878 -1.2614 -0.7822  1.2118
  853MOL0     H15100   1.069   8.008   9.873 -1.1098  0.0314  1.3405
  853MOL0     H15101   1.002   8.025   9.700 -3.4322 -0.4299  0.1930
  853MOL0     H15102   0.850   7.971   9.951 -0.2281 -0.6250 -1.0926
  853MOL0     H15103   0.785   7.967   9.793  0.0758  0.3811 -1.6880
  853MOL0     H15104   0.928   8.208   9.923 -0.9938 -1.4486 -0.1968
  853MOL0     H15105   0.884   8.206   9.755 -0.3496 -0.6760 -1.8081
  853MOL0     H15106   0.649   8.317   9.714 -0.1755 -0.3363 -0.2081
  853MOL0     H15107   0.370   8.375   9.789  0.9388 -0.1171 -0.8578
  853MOL0     H15108   0.368   8.450   9.945  1.4039  0.1581  0.7953
  853MOL0     H15109   0.600   8.558   9.833  0.1724 -2.4288  1.3904
  853MOL0     H15110   0.485   8.556   9.692 -0.4387  0.5684  0.7006
  853MOL0     H15111   0.423   8.667   9.959  1.5282 -1.8855  0.2046
  853MOL0     H15112   0.306   8.668   9.845  0.3450  0.1458 -1.1266
  853MOL0     H15113   0.584   8.800   9.792 -0.2023  0.5430  0.4686
  853MOL0     H15114   0.435   8.886   9.825 -3.9902 -1.8644  0.1494
  853MOL0     H15115   0.395   8.738   9.378 -1.3456  0.8390 -3.2873
  853MOL0     H15116   0.191   8.744   9.265 -0.6173 -1.4688  0.8697
  853MOL0     H15117  -0.314   8.707   9.355 -3.5971  0.0764 -0.1330
  853MOL0     H15118  -0.499   8.654   9.234 -0.9644 -1.2551 -1.2854
  853MOL0     H15119  -0.606   8.482   9.015 -2.3717 -1.3940 -0.5844
  853MOL0     H15120  -0.667   8.631   9.110  0.2196  0.9370 -0.0839
  853MOL0     H15121  -0.729   8.553   8.825  3.4744  0.5870  1.2988
  853MOL0     H15122  -0.839   8.523   8.959 -0.7700  0.9605  1.1576
  853MOL0     H15123  -0.861   8.773   9.009 -0.6894 -0.9554  0.0140
  853MOL0     H15124  -0.789   8.807   8.856 -0.8558  0.6532  0.6273
  853MOL0     H15125  -1.028   8.632   8.900 -0.3048  1.9051  2.9478
  853MOL0     H15126  -0.939   8.650   8.746 -0.8333  0.8484 -0.4197
  853MOL0     H15127  -1.049   8.892   8.893  2.5867  0.5321  1.4145
  853MOL0     H15128  -1.150   8.790   8.776  2.4157 -3.1881 -0.8046
  853MOL0     H15129  -0.888   8.928   8.706  0.0930  0.0767 -1.9779
  853MOL0     H15130  -1.000   8.824   8.608 -2.2151  0.7806 -0.4212
  853MOL0     H15131  -1.034   9.097   8.711  3.0654 -1.6579 -2.5994
  853MOL0     H15132  -1.188   9.000   8.694 -0.3993 -2.8836 -1.1019
  853MOL0     H15133  -1.195   9.143   8.495  0.6568  0.3926 -1.8528
  853MOL0     H15134  -1.021   9.119   8.469  1.2715  3.4422  2.7374
  853MOL0     H15135  -0.288   8.718   8.863 -2.8561 -0.8618 -1.0060
  853MOL0     H15136  -0.083   8.761   9.011  2.7035 -1.5166  3.5381
  853MOL0     H15137  -0.001   8.876   9.636  0.8728  1.3670  2.9308
  853MOL0     H15138   0.212   8.870   9.747  0.9568  1.3437 -0.8693
  853MOL0     H15139   1.538   7.565   9.223  0.5885 -0.4052 -0.4257
  853MOL0     H15140   1.552   7.427   9.044 -0.6359 -2.2091  0.1230
  853MOL0     H15141   1.534   7.365   8.701 -2.8226  0.9615 -2.2995
  853MOL0     H15142   1.608   7.257   8.483 -0.7368  0.6169  0.2701
  853MOL0     H15143   1.760   7.124   8.398 -2.5497  1.2725 -0.8758
  853MOL0     H15144   1.634   7.110   8.283 -1.2527  0.2594  1.3259
  853MOL0     H15145   1.833   7.018   8.198 -2.4560  1.2110 -0.8673
  853MOL0     H15146   1.709   6.892   8.198  0.2691 -0.5121  1.1019
  853MOL0     H15147   1.882   6.751   8.280 -1.7533  1.1327 -1.0423
  853MOL0     H15148   1.811   6.807   8.424 -1.8776  1.1852 -1.8005
  853MOL0     H15149   2.067   6.832   8.410 -1.2667 -1.2078 -0.3802
  853MOL0     H15150   2.041   6.957   8.281 -2.0207  1.8694  0.2426
  853MOL0     H15151   2.007   7.148   8.654 -1.1234  1.7629 -1.7344
  853MOL0     H15152   1.517   6.882   8.632 -2.2643  1.2862 -1.6387
  853MOL0     H15153   1.398   6.854   8.825 -1.9883 -0.8941  1.5893
  853MOL0     H15154   1.430   6.958   8.968 -0.0253  2.1922 -0.3523
  853MOL0     H15155   1.289   6.975   8.879  0.8705  1.3958  1.3304
  854MOL0     O15156   3.265   2.139  10.516  0.0498 -0.9713  0.1776
  854MOL0     C15157   3.198   2.040  10.527 -0.0220 -0.7823 -0.5077
  854MOL0     O15158   3.077   2.044  10.592 -0.5048  0.2142 -0.3185
  854MOL0     C15159   3.041   2.169  10.643 -0.1191  0.6146  0.5635
  854MOL0     C15160   3.098   2.231  10.757 -0.2627 -0.9298 -0.0997
  854MOL0     C15161   3.042   2.361  10.786 -1.1545 -0.9755 -0.4344
  854MOL0     C15162   2.932   2.415  10.709  0.0480  0.6768  1.4556
  854MOL0     O15163   2.868   2.535  10.735  0.2111  0.7919 -0.2719
  854MOL0     C15164   2.937   2.634  10.809  0.3667 -0.6075  0.6612
  854MOL0     C15165   2.854   2.767  10.791 -0.5478 -1.1858  0.3489
  854MOL0     C15166   2.731   2.769  10.868  0.2134 -0.4719  0.1651
  854MOL0     C15167   2.625   2.874  10.815 -0.6118  0.3192 -0.5803
  854MOL0     C15168   2.684   3.014  10.779  0.1797 -0.5053  0.1766
  854MOL0     C15169   2.568   3.092  10.722  0.5368  0.3928 -0.9878
  854MOL0     C15170   2.587   3.211  10.633  0.1377 -0.0178  0.8463
  854MOL0     C15171   2.712   3.289  10.663 -0.1969 -0.3046 -0.2165
  854MOL0     N15172   2.737   3.385  10.552 -0.6478 -0.5549 -0.1136
  854MOL0     C15173   2.857   3.425  10.500  1.1104  0.2563  0.5663
  854MOL0     C15174   2.830   3.521  10.403  0.4558  0.6495  0.2358
  854MOL0     C15175   2.938   3.561  10.311 -0.0508  0.3795  0.6232
  854MOL0     C15176   2.911   3.695  10.242 -0.6036 -0.9942  0.7503
  854MOL0     C15177   3.031   3.735  10.155  0.1071 -0.5008 -0.2278
  854MOL0     C15178   3.027   3.872  10.071  0.0108  0.0633  0.3645
  854MOL0     O15179   2.941   3.866   9.955  0.7077  0.7850  0.0866
  854MOL0     C15180   2.885   3.984   9.908  0.3998  0.5838  0.3610
  854MOL0     C15181   2.940   4.050   9.798 -0.4469  0.4733 -0.8931
  854MOL0     C15182   2.886   4.176   9.756 -0.4311  0.5480  0.1800
  854MOL0     C15183   2.762   4.215   9.794 -0.0747 -0.3786  0.3276
  854MOL0     C15184   2.700   4.348   9.747  0.3695  0.3237  0.5518
  854MOL0     O15185   2.766   4.402   9.646  0.1294 -0.9922 -0.3263
  854MOL0     C15186   2.739   4.529   9.613 -0.0798  0.0365 -0.2921
  854MOL0     C15187   2.663   4.570   9.511  0.5097  0.3299 -0.0448
  854MOL0     C15188   2.641   4.697   9.468 -0.4916  0.1242  0.6727
  854MOL0     C15189   2.704   4.807   9.548 -1.1827  0.1449  0.6077
  854MOL0     O15190   2.686   4.942   9.521 -0.3185  0.0374 -0.1638
  854MOL0     C15191   2.543   4.977   9.499 -0.4923  0.5391 -0.1495
  854MOL0     C15192   2.498   5.104   9.575 -0.1147  0.5518 -0.4397
  854MOL0     C15193   2.354   5.131   9.542 -0.4660 -0.1023 -0.0646
  854MOL0     C15194   2.283   5.209   9.657 -0.0284 -0.1229  0.6176
  854MOL0     C15195   2.309   5.360   9.657 -0.1972  0.8363  0.4741
  854MOL0     C15196   2.284   5.433   9.525  0.2052 -0.2975  0.2019
  854MOL0     C15197   2.346   5.570   9.521  0.1807 -0.3399 -0.3812
  854MOL0     C15198   2.500   5.568   9.510 -0.8911  0.7368  0.0262
  854MOL0    Cl15199   2.565   5.731   9.552 -0.0776 -0.6127 -0.7124
  854MOL0     C15200   2.780   4.772   9.653  0.1551 -0.8279 -0.4230
  854MOL0     C15201   2.796   4.640   9.694 -0.7293  0.6115 -0.3513
  854MOL0     O15202   2.601   4.395   9.804 -0.0375  0.0104  0.8009
  854MOL0     C15203   2.699   4.144   9.898 -0.1980 -0.4160  0.3310
  854MOL0     C15204   2.755   4.023   9.955 -0.0255  0.6387  0.4705
  854MOL0     N15205   2.692   3.534  10.390 -0.5809  0.0298 -0.1850
  854MOL0     N15206   2.638   3.457  10.483 -0.5089 -0.8660 -0.7735
  854MOL0     C15207   2.882   2.339  10.604  0.1407  1.1621 -0.0200
  854MOL0     C15208   2.933   2.214  10.574 -0.2078  0.6686  0.4182
  854MOL0     C15209   3.233   1.924  10.446 -0.5862 -0.2788  0.1238
  854MOL0     C15210   3.149   1.812  10.432 -1.1279 -0.0767 -0.4932
  854MOL0     C15211   3.184   1.699  10.352  0.2719 -0.5182 -0.8826
  854MOL0     C15212   3.313   1.680  10.296  0.8114  0.0782 -0.5416
  854MOL0     O15213   3.343   1.572  10.221 -0.8515 -0.6855 -0.1662
  854MOL0     C15214   3.480   1.528  10.185 -0.4505 -0.7747 -0.3044
  854MOL0     C15215   3.481   1.422  10.074 -0.4944  0.0407 -0.1334
  854MOL0     C15216   3.401   1.473   9.955  0.0163  0.3508  0.4278
  854MOL0     C15217   3.464   1.592   9.899  0.1494  0.1258 -0.1850
  854MOL0     C15218   3.403   1.620   9.765  0.1360 -0.2911 -0.2291
  854MOL0     C15219   3.364   1.649   9.658 -0.2594 -0.2794 -0.2187
  854MOL0     C15220   3.403   1.775  10.326 -0.4212 -0.2570 -0.4638
  854MOL0     C15221   3.366   1.894  10.396 -0.8191  0.0411  0.2420
  854MOL0     C15222   3.483   1.994  10.420  0.3850  0.3472 -0.2991
  854MOL0     H15223   3.191   2.198  10.802  0.4057 -0.3077 -0.9995
  854MOL0     H15224   3.086   2.412  10.871  0.1801  1.8254 -2.6160
  854MOL0     H15225   2.943   2.603  10.914 -2.3040  3.2094  2.1971
  854MOL0     H15226   3.037   2.658  10.770 -0.6330  0.5194 -1.3405
  854MOL0     H15227   2.832   2.777  10.684  2.6601 -1.8152 -0.4704
  854MOL0     H15228   2.913   2.854  10.820  2.2135 -1.9410 -2.4648
  854MOL0     H15229   2.749   2.782  10.975 -1.6120 -2.2793  0.7591
  854MOL0     H15230   2.671   2.677  10.871 -0.0550 -0.3117 -0.2032
  854MOL0     H15231   2.592   2.832  10.720  1.2262 -1.9943 -0.2803
  854MOL0     H15232   2.547   2.883  10.890  1.4140  1.6037  1.5102
  854MOL0     H15233   2.723   3.069  10.865  3.4152 -3.3923  0.7764
  854MOL0     H15234   2.761   3.018  10.701 -1.2166 -1.6671 -1.3459
  854MOL0     H15235   2.507   3.022  10.664  3.6201 -2.9580 -0.6182
  854MOL0     H15236   2.505   3.111  10.809  0.3086 -3.1073 -0.2482
  854MOL0     H15237   2.502   3.279  10.652 -1.6986 -1.8502 -0.4188
  854MOL0     H15238   2.582   3.187  10.527 -3.0837  0.3704  0.7914
  854MOL0     H15239   2.704   3.352  10.753  0.9486  1.4891 -1.3108
  854MOL0     H15240   2.805   3.231  10.660  1.1401  1.7902 -2.1023
  854MOL0     H15241   2.953   3.405  10.546  1.8387  0.9058 -0.6194
  854MOL0     H15242   3.029   3.557  10.372  0.0405 -1.6092  0.4186
  854MOL0     H15243   2.953   3.488  10.231  1.9342  1.1836  0.1958
  854MOL0     H15244   2.831   3.713  10.170  3.6835  1.2568 -4.1386
  854MOL0     H15245   2.897   3.772  10.319  1.1145 -1.2762  1.3864
  854MOL0     H15246   3.025   3.652  10.084 -0.4297 -0.4465 -0.2460
  854MOL0     H15247   3.126   3.729  10.210 -0.7225  2.2817  1.7127
  854MOL0     H15248   3.127   3.891  10.030 -1.3464  1.3826 -2.6600
  854MOL0     H15249   2.993   3.951  10.138  0.2203 -0.4788  1.1219
  854MOL0     H15250   3.027   4.011   9.747 -0.4703  0.6674 -1.0821
  854MOL0     H15251   2.928   4.221   9.667  1.8022 -2.2432 -0.3056
  854MOL0     H15252   2.606   4.488   9.467 -0.6936  1.0908  0.0592
  854MOL0     H15253   2.572   4.719   9.388 -0.0118  1.6165  0.6392
  854MOL0     H15254   2.508   4.994   9.396 -3.8612 -2.6912  0.2434
  854MOL0     H15255   2.489   4.887   9.530 -1.4275  1.0061 -0.3805
  854MOL0     H15256   2.523   5.089   9.681  1.0482 -0.9912 -0.9029
  854MOL0     H15257   2.566   5.182   9.539  1.0234 -0.0266  0.3933
  854MOL0     H15258   2.352   5.186   9.447  0.5410  0.8207  0.4312
  854MOL0     H15259   2.297   5.037   9.543  0.4007 -0.6353  0.4831
  854MOL0     H15260   2.327   5.168   9.748  2.6663 -0.8884 -0.8942
  854MOL0     H15261   2.176   5.186   9.656  0.7234 -4.9617 -2.1217
  854MOL0     H15262   2.407   5.381   9.699  0.8992 -1.1075 -0.9770
  854MOL0     H15263   2.239   5.404   9.729 -1.6251  2.1757 -1.6324
  854MOL0     H15264   2.342   5.382   9.448 -2.5376 -3.2831 -0.1175
  854MOL0     H15265   2.180   5.446   9.492  0.7229  2.0843 -0.6345
  854MOL0     H15266   2.325   5.609   9.621  3.4206 -0.6672  0.5382
  854MOL0     H15267   2.301   5.637   9.448 -1.7335 -2.2205 -1.0220
  854MOL0     H15268   2.526   5.502   9.592  1.7237 -0.9342 -1.9740
  854MOL0     H15269   2.539   5.533   9.414 -0.8650  1.4786 -0.2460
  854MOL0     H15270   2.817   4.846   9.724  0.3736 -3.0040  1.8851
  854MOL0     H15271   2.855   4.626   9.784  0.7367  2.0522 -1.0541
  854MOL0     H15272   2.601   4.172   9.934  0.5951  2.0241  0.8033
  854MOL0     H15273   2.692   3.969  10.025 -1.5087  1.1850 -0.3899
  854MOL0     H15274   2.798   2.376  10.546  0.7606  2.0764 -0.3674
  854MOL0     H15275   2.893   2.154  10.494  3.8432 -0.3330 -1.0912
  854MOL0     H15276   3.054   1.800  10.483 -1.1795  1.9789 -0.0353
  854MOL0     H15277   3.115   1.616  10.348 -1.8979  1.2469 -1.7668
  854MOL0     H15278   3.517   1.474  10.272  0.9427 -1.6789 -1.4167
  854MOL0     H15279   3.543   1.615  10.162 -0.7441 -0.2205  0.9073
  854MOL0     H15280   3.429   1.333  10.111  0.5557 -0.2312  0.7479
  854MOL0     H15281   3.583   1.393  10.045 -0.8934 -2.3782  0.6105
  854MOL0     H15282   3.303   1.494   9.997  0.1097 -0.4376  1.0641
  854MOL0     H15283   3.373   1.394   9.884 -1.8334  1.5672 -0.2590
  854MOL0     H15284   3.452   1.674   9.971  1.2632 -0.8201  1.1474
  854MOL0     H15285   3.571   1.578   9.881  0.3024 -1.7443  1.7083
  854MOL0     H15286   3.339   1.673   9.557 -0.4346 -0.1443 -0.1419
  854MOL0     H15287   3.501   1.761  10.282 -0.7355 -1.1918 -0.8863
  854MOL0     H15288   3.487   2.058  10.509  1.5962  3.5902 -2.5434
  854MOL0     H15289   3.578   1.941  10.427  0.2504 -0.6617 -4.0708
  854MOL0     H15290   3.478   2.058  10.332 -1.5344  0.2298 -0.3313
  855MOL0     O15291   4.394   7.397   9.737  0.2046  0.6117 -0.2657
  855MOL0     C15292   4.402   7.358   9.622  0.9107  0.2080  0.2325
  855MOL0     O15293   4.433   7.228   9.589  0.2379 -0.0792  0.0480
  855MOL0     C15294   4.452   7.134   9.696 -0.3524  0.2192 -0.7331
  855MOL0     C15295   4.340   7.095   9.784  0.2035 -0.4102  0.6832
  855MOL0     C15296   4.359   6.994   9.879 -0.5170  0.2072  1.1681
  855MOL0     C15297   4.479   6.928   9.900 -0.2014 -0.4343  0.3312
  855MOL0     O15298   4.503   6.809   9.963 -1.0157 -0.6560 -0.6180
  855MOL0     C15299   4.401   6.770  10.055  0.1928 -0.1702  0.4920
  855MOL0     C15300   4.463   6.656  10.136 -0.0038 -0.6992 -0.8698
  855MOL0     C15301   4.356   6.609  10.228  0.3981  0.7884 -0.5814
  855MOL0     C15302   4.415   6.506  10.321  0.2528 -0.0036  0.1475
  855MOL0     C15303   4.308   6.431  10.398 -0.3824 -0.0134  0.4045
  855MOL0     C15304   4.363   6.318  10.485 -0.1211  0.3613  0.2695
  855MOL0     C15305   4.262   6.262  10.584  0.0414  0.8297  0.1244
  855MOL0     C15306   4.333   6.178  10.695  0.6601  0.4375  0.0610
  855MOL0     N15307   4.411   6.068  10.653 -1.0218 -0.2387 -0.3642
  855MOL0     C15308   4.351   5.951  10.604 -1.0160 -0.3602  0.3516
  855MOL0     C15309   4.461   5.885  10.551  0.2998  0.7016 -1.2053
  855MOL0     C15310   4.443   5.746  10.493 -1.0272 -0.9618  0.1282
  855MOL0     C15311   4.456   5.632  10.583 -0.3199 -0.5669 -0.0253
  855MOL0     C15312   4.498   5.670  10.718 -0.2708 -0.3923 -0.4895
  855MOL0     C15313   4.523   5.557  10.814  0.4655  0.2306  0.6022
  855MOL0     O15314   4.555   5.604  10.953  0.6326 -0.9586 -0.3529
  855MOL0     C15315   4.681   5.610  10.992  0.0160 -0.7548 -0.8333
  855MOL0     C15316   4.798   5.602  10.913 -0.0107 -0.5029 -0.2290
  855MOL0     C15317   4.921   5.613  10.964  0.2559  0.2879 -1.5193
  855MOL0     C15318   4.939   5.631  11.108  0.3925 -1.0632 -0.5876
  855MOL0     C15319   5.080   5.650  11.159  1.0159 -0.3191 -0.3975
  855MOL0     O15320   5.089   5.727  11.274  0.2677  0.4795  0.3563
  855MOL0     C15321   5.203   5.781  11.330 -0.5067 -0.1685 -0.4247
  855MOL0     C15322   5.325   5.790  11.266 -0.0544  0.6809  0.4636
  855MOL0     C15323   5.428   5.858  11.323 -0.3104 -0.4140  0.2044
  855MOL0     C15324   5.421   5.901  11.456  1.2458 -0.7481  0.5407
  855MOL0     O15325   5.532   5.962  11.493  1.0389 -0.2157 -1.0409
  855MOL0     C15326   5.549   5.986  11.639  1.1687 -0.4103  0.1009
  855MOL0     C15327   5.679   6.068  11.656  0.0051 -0.1521 -0.3808
  855MOL0     C15328   5.663   6.209  11.595  0.7812  0.5384  0.9044
  855MOL0     C15329   5.653   6.323  11.685 -0.6771 -0.0696  0.2662
  855MOL0     C15330   5.569   6.443  11.626  1.2280  0.3634  0.8937
  855MOL0     C15331   5.559   6.558  11.725  0.1081 -0.4340 -0.2359
  855MOL0     C15332   5.458   6.668  11.673  0.1131 -0.6748 -0.9533
  855MOL0     C15333   5.434   6.772  11.776  0.6062  0.1229  0.1531
  855MOL0    Cl15334   5.365   6.701  11.931 -0.1610  0.0894 -0.1084
  855MOL0     C15335   5.299   5.880  11.525 -0.2659 -0.8927  1.0373
  855MOL0     C15336   5.182   5.830  11.461 -0.1464  0.2796 -0.8370
  855MOL0     O15337   5.172   5.603  11.095 -0.3917  0.6131  0.1166
  855MOL0     C15338   4.830   5.628  11.195 -0.0773  0.3107 -0.3637
  855MOL0     C15339   4.703   5.619  11.130 -0.1879 -0.9393  1.2528
  855MOL0     N15340   4.577   5.960  10.552  0.2929 -0.3194 -0.1752
  855MOL0     N15341   4.543   6.067  10.616  0.7723 -0.0764 -0.3148
  855MOL0     C15342   4.582   6.964   9.814  0.1168 -0.3667 -0.5856
  855MOL0     C15343   4.569   7.062   9.714 -0.0461 -0.4587 -0.6393
  855MOL0     C15344   4.375   7.455   9.514 -0.2586 -1.2948  0.7793
  855MOL0     C15345   4.294   7.568   9.542 -0.9904 -0.1686 -0.5669
  855MOL0     C15346   4.273   7.661   9.440  1.2946 -0.0056 -0.2321
  855MOL0     C15347   4.329   7.646   9.316  0.3852 -1.0804 -0.4987
  855MOL0     O15348   4.294   7.738   9.223  0.6305  0.2852  0.4683
  855MOL0     C15349   4.397   7.770   9.122  0.4693 -0.1111  0.2354
  855MOL0     C15350   4.352   7.885   9.036 -0.0308 -0.1676  0.4678
  855MOL0     C15351   4.247   7.850   8.931  0.2923  0.7142 -0.5294
  855MOL0     C15352   4.257   7.957   8.822 -0.8797  0.7138 -0.8267
  855MOL0     C15353   4.149   7.947   8.731  0.7575 -0.1937  0.6641
  855MOL0     C15354   4.075   7.927   8.633  0.0305 -0.6694  0.2012
  855MOL0     C15355   4.418   7.545   9.293 -0.3207  0.6643 -0.5586
  855MOL0     C15356   4.445   7.457   9.393 -0.7194 -0.1445 -1.0381
  855MOL0     C15357   4.555   7.355   9.367 -0.3323  0.0718  0.6356
  855MOL0     H15358   4.248   7.150   9.769  0.6234  0.2623  0.5297
  855MOL0     H15359   4.267   6.945   9.908 -0.0132 -2.1789 -0.8474
  855MOL0     H15360   4.367   6.852  10.118  0.3176  0.3163 -0.0692
  855MOL0     H15361   4.314   6.735   9.998 -1.6871 -0.2877  3.2209
  855MOL0     H15362   4.538   6.709  10.194  1.6015 -0.0841 -3.3449
  855MOL0     H15363   4.506   6.583  10.067  1.0896  1.1054 -2.1624
  855MOL0     H15364   4.275   6.565  10.169  1.0615 -2.6260  0.8110
  855MOL0     H15365   4.320   6.686  10.297  0.2378 -0.2424  0.5243
  855MOL0     H15366   4.480   6.445  10.257  1.0492  0.3923  0.5640
  855MOL0     H15367   4.482   6.552  10.394  1.1694 -2.1860  0.7530
  855MOL0     H15368   4.252   6.500  10.462 -0.6974  0.9155 -0.8319
  855MOL0     H15369   4.237   6.393  10.324 -1.9243  3.3571 -0.0490
  855MOL0     H15370   4.390   6.232  10.424 -2.1428  0.3998 -0.7317
  855MOL0     H15371   4.453   6.345  10.542 -0.3351 -3.3019  2.6619
  855MOL0     H15372   4.185   6.198  10.539 -0.9124 -0.5617  3.4302
  855MOL0     H15373   4.211   6.344  10.634 -0.9538  0.9737 -1.0896
  855MOL0     H15374   4.386   6.246  10.762  0.9573 -0.8657  1.2044
  855MOL0     H15375   4.263   6.127  10.762 -1.6637  0.2720 -2.2842
  855MOL0     H15376   4.250   5.912  10.603 -2.4574  3.0059 -1.3768
  855MOL0     H15377   4.342   5.746  10.451 -2.1682  2.4216  2.4434
  855MOL0     H15378   4.525   5.747  10.421 -0.5807 -0.2034  0.6325
  855MOL0     H15379   4.351   5.608  10.603 -0.7864  0.8817 -0.6510
  855MOL0     H15380   4.528   5.558  10.546  1.2153  2.2525 -3.2601
  855MOL0     H15381   4.424   5.734  10.767  0.5760  0.0321  0.2938
  855MOL0     H15382   4.598   5.716  10.720 -1.0352  1.3394  0.1873
  855MOL0     H15383   4.603   5.488  10.788  0.2540  0.1482  0.1603
  855MOL0     H15384   4.429   5.500  10.815  1.3297 -1.2815 -0.6151
  855MOL0     H15385   4.791   5.583  10.807  0.9265  1.4792 -0.6875
  855MOL0     H15386   4.997   5.591  10.890 -0.7424 -1.9057 -1.9879
  855MOL0     H15387   5.339   5.751  11.166  3.4064 -1.8269  1.7356
  855MOL0     H15388   5.521   5.878  11.269 -0.7626  0.7988 -0.1664
  855MOL0     H15389   5.467   6.051  11.672  1.7779  0.5475 -0.2487
  855MOL0     H15390   5.549   5.898  11.703 -0.6673 -0.8015 -0.3876
  855MOL0     H15391   5.700   6.076  11.763  0.7397 -4.7595  0.0588
  855MOL0     H15392   5.763   6.025  11.602 -0.1247 -0.0933 -0.6297
  855MOL0     H15393   5.755   6.230  11.540  1.1993  0.3581  1.5236
  855MOL0     H15394   5.582   6.216  11.521 -1.0592 -0.4243  2.7378
  855MOL0     H15395   5.752   6.368  11.697 -2.2174  3.8031 -0.0017
  855MOL0     H15396   5.601   6.295  11.777  2.7995 -0.0550  2.4514
  855MOL0     H15397   5.469   6.413  11.592  1.0649  1.0091  0.7873
  855MOL0     H15398   5.620   6.476  11.535 -1.8640 -0.4172 -1.2930
  855MOL0     H15399   5.538   6.516  11.824 -1.5877 -0.7333 -0.6879
  855MOL0     H15400   5.660   6.600  11.720  0.6140 -1.6521 -4.5197
  855MOL0     H15401   5.358   6.632  11.650 -0.6662  0.5410  0.3706
  855MOL0     H15402   5.515   6.699  11.585 -0.0184  0.9613 -0.4971
  855MOL0     H15403   5.519   6.830  11.815 -0.0643 -0.5713  2.8558
  855MOL0     H15404   5.372   6.845  11.723 -1.9554 -1.0555  1.3464
  855MOL0     H15405   5.296   5.896  11.633  2.2993 -1.4546  1.2396
  855MOL0     H15406   5.088   5.808  11.510 -0.3139 -1.5608 -1.9053
  855MOL0     H15407   4.833   5.657  11.299  0.8095  0.2450 -0.3664
  855MOL0     H15408   4.611   5.626  11.188 -1.0302  0.1703 -0.1647
  855MOL0     H15409   4.674   6.907   9.805 -0.4618 -1.3451 -0.5031
  855MOL0     H15410   4.651   7.077   9.645  0.4297 -1.0800 -0.2206
  855MOL0     H15411   4.251   7.571   9.642  3.3640 -2.4021  1.6395
  855MOL0     H15412   4.201   7.743   9.443  2.7499  1.3736 -1.3975
  855MOL0     H15413   4.421   7.690   9.052  0.7001  0.0379  0.1446
  855MOL0     H15414   4.488   7.802   9.173  1.3023  0.5638 -1.5853
  855MOL0     H15415   4.446   7.930   9.002  0.5195 -0.9348  0.9569
  855MOL0     H15416   4.310   7.967   9.095 -0.6861 -0.0852 -0.1024
  855MOL0     H15417   4.154   7.820   8.980  1.6282  0.2293  1.8604
  855MOL0     H15418   4.282   7.756   8.887  0.2519  0.6504 -0.4267
  855MOL0     H15419   4.239   8.053   8.870  0.9832 -0.3466  2.3232
  855MOL0     H15420   4.358   7.947   8.781 -0.1712 -1.2582  1.1636
  855MOL0     H15421   4.014   7.906   8.547  0.2137  0.2689 -0.1692
  855MOL0     H15422   4.482   7.538   9.205  1.0064 -0.2726  0.4395
  855MOL0     H15423   4.507   7.257   9.369 -2.8196  1.1871 -0.4738
  855MOL0     H15424   4.604   7.364   9.270  0.2012 -1.7543  0.7023
  855MOL0     H15425   4.633   7.362   9.444  1.6721 -1.5429 -1.1194
  856MOL0     O15426   0.385   8.393  11.413 -0.6416 -0.1321 -0.1132
  856MOL0     C15427   0.307   8.341  11.496  0.3872 -0.3473  0.4319
  856MOL0     O15428   0.181   8.288  11.463 -0.7002 -0.3734  0.1785
  856MOL0     C15429   0.117   8.325  11.350  0.6598 -0.0459 -0.1592
  856MOL0     C15430   0.018   8.242  11.310 -0.2714 -0.5621  0.0559
  856MOL0     C15431  -0.073   8.281  11.209 -0.2529 -0.3576 -0.8423
  856MOL0     C15432  -0.061   8.413  11.149 -0.0847 -0.2387 -1.1316
  856MOL0     O15433  -0.158   8.470  11.076 -0.7157 -0.7488  0.4776
  856MOL0     C15434  -0.296   8.448  11.119 -0.0084  0.1307 -0.7003
  856MOL0     C15435  -0.390   8.536  11.036  0.1182  0.7293  0.2645
  856MOL0     C15436  -0.518   8.459  11.009  0.1262  0.3474  0.7100
  856MOL0     C15437  -0.637   8.546  10.963  1.3569  0.5798 -0.3653
  856MOL0     C15438  -0.749   8.461  10.904  0.2504  0.8470  0.9644
  856MOL0     C15439  -0.734   8.425  10.754 -1.0400 -0.0249 -0.5691
  856MOL0     C15440  -0.864   8.418  10.676 -0.0876  0.2577 -0.4329
  856MOL0     C15441  -0.841   8.452  10.534  0.0041 -0.7691  0.2776
  856MOL0     N15442  -0.836   8.594  10.499 -0.6661  0.1655  0.1266
  856MOL0     C15443  -0.948   8.677  10.491 -0.6783 -0.3615  0.8142
  856MOL0     C15444  -0.890   8.796  10.471  0.3549 -0.3105  0.1667
  856MOL0     C15445  -0.972   8.924  10.463 -0.2771  0.3491 -0.0850
  856MOL0     C15446  -0.921   9.030  10.555  0.1276  0.1029 -0.8168
  856MOL0     C15447  -0.972   9.026  10.691  0.0134  0.2185  0.2155
  856MOL0     C15448  -0.892   9.132  10.777 -1.2324 -0.5433 -0.1873
  856MOL0     O15449  -0.941   9.155  10.909  1.1996  0.2805 -0.5624
  856MOL0     C15450  -0.912   9.064  11.011 -0.4549 -0.0841  0.2087
  856MOL0     C15451  -0.968   9.102  11.134 -0.0617  0.2835 -0.3734
  856MOL0     C15452  -0.953   9.029  11.252 -0.4299 -0.0335 -0.1810
  856MOL0     C15453  -0.876   8.918  11.248 -0.4762 -0.1723 -0.8395
  856MOL0     C15454  -0.854   8.850  11.382 -0.1818 -0.0047 -0.1691
  856MOL0     O15455  -0.932   8.891  11.486  0.0781  0.2666  0.3956
  856MOL0     C15456  -0.947   8.835  11.610 -0.4270 -0.0268  0.1244
  856MOL0     C15457  -0.916   8.705  11.640  0.1497 -0.1237  0.2519
  856MOL0     C15458  -0.921   8.648  11.770  0.4760 -0.6299 -0.0947
  856MOL0     C15459  -0.961   8.729  11.878 -0.1790  0.0471 -0.6696
  856MOL0     O15460  -0.954   8.676  12.001 -0.0559  0.8771  0.4246
  856MOL0     C15461  -1.066   8.706  12.077  0.2908  0.3179 -0.1967
  856MOL0     C15462  -1.066   8.598  12.191  0.0531  1.2258 -0.2737
  856MOL0     C15463  -1.051   8.448  12.152 -0.7412 -0.5200 -0.5865
  856MOL0     C15464  -1.164   8.412  12.050 -0.3413  0.8723 -0.0034
  856MOL0     C15465  -1.164   8.258  12.023 -0.3328 -0.1131 -0.8650
  856MOL0     C15466  -1.166   8.237  11.869 -0.1873  0.1805  0.5794
  856MOL0     C15467  -1.018   8.241  11.807 -1.1547  0.0523  0.2695
  856MOL0     C15468  -1.021   8.300  11.667  0.5056 -0.8509 -0.1430
  856MOL0    Cl15469  -1.051   8.191  11.526 -0.0940  0.2950  0.0394
  856MOL0     C15470  -1.004   8.858  11.848  0.4737  0.2866 -0.0785
  856MOL0     C15471  -1.000   8.911  11.719  0.7943  0.6741  1.2717
  856MOL0     O15472  -0.768   8.761  11.386 -0.0574 -0.3229 -0.4631
  856MOL0     C15473  -0.812   8.879  11.130  1.1040  0.1376  0.7640
  856MOL0     C15474  -0.837   8.950  11.011 -0.8543 -0.1015  0.8131
  856MOL0     N15475  -0.759   8.774  10.439  0.2105 -0.2395  0.8588
  856MOL0     N15476  -0.723   8.666  10.479  0.0065 -0.1518  0.0643
  856MOL0     C15477   0.052   8.475  11.174 -0.2773 -0.5182  0.0860
  856MOL0     C15478   0.137   8.436  11.271  0.4622  0.1473  0.1275
  856MOL0     C15479   0.343   8.305  11.632 -0.7047  0.9291 -0.1217
  856MOL0     C15480   0.418   8.404  11.702 -0.1103 -0.0378  0.0775
  856MOL0     C15481   0.441   8.375  11.840 -0.5412  0.2968 -0.4881
  856MOL0     C15482   0.387   8.262  11.903 -0.3866 -0.1806  0.4072
  856MOL0     O15483   0.395   8.231  12.042 -0.4676  0.3685  0.3629
  856MOL0     C15484   0.470   8.321  12.126 -0.0370 -0.5797  0.2269
  856MOL0     C15485   0.499   8.244  12.257  0.3054  0.0553  0.0785
  856MOL0     C15486   0.552   8.332  12.368 -0.3932  0.8404 -1.0801
  856MOL0     C15487   0.622   8.270  12.484  0.4225 -0.8721 -0.2141
  856MOL0     C15488   0.550   8.166  12.542 -0.4462  1.0570  0.0255
  856MOL0     C15489   0.487   8.081  12.600  0.3566 -0.2888 -0.1129
  856MOL0     C15490   0.325   8.169  11.825  0.7275  0.5096  0.0900
  856MOL0     C15491   0.306   8.182  11.695 -0.0040 -1.1751  0.2087
  856MOL0     C15492   0.252   8.064  11.617  1.0511  0.0392 -0.3997
  856MOL0     H15493  -0.019   8.163  11.375 -3.4952  1.6683  1.2552
  856MOL0     H15494  -0.161   8.218  11.198  0.0152 -0.5932 -1.7655
  856MOL0     H15495  -0.310   8.344  11.088 -0.2493 -0.4275  1.1760
  856MOL0     H15496  -0.314   8.469  11.225 -1.7342  2.2142 -1.3332
  856MOL0     H15497  -0.341   8.568  10.943  0.0876  1.4300  0.4802
  856MOL0     H15498  -0.412   8.631  11.086 -0.4312 -0.5951  2.6945
  856MOL0     H15499  -0.536   8.406  11.103  1.2869 -0.0612  0.7214
  856MOL0     H15500  -0.501   8.385  10.931  1.4415  0.7992  0.5293
  856MOL0     H15501  -0.677   8.568  11.063  0.3016 -2.1052 -0.1066
  856MOL0     H15502  -0.621   8.632  10.898 -1.6804  2.1553  0.7719
  856MOL0     H15503  -0.768   8.368  10.959 -0.0715 -0.5910 -1.3880
  856MOL0     H15504  -0.846   8.509  10.916 -1.5112 -1.7956 -1.4444
  856MOL0     H15505  -0.660   8.494  10.712  1.2378 -2.1380 -0.2729
  856MOL0     H15506  -0.678   8.332  10.745  0.9952  0.6934  2.8684
  856MOL0     H15507  -0.957   8.455  10.720 -0.5314 -1.4971  0.2169
  856MOL0     H15508  -0.885   8.311  10.678 -1.1145  0.4541 -0.2542
  856MOL0     H15509  -0.746   8.409  10.501  0.4547 -0.0732  0.6510
  856MOL0     H15510  -0.922   8.404  10.479 -1.3812  0.2249  1.3923
  856MOL0     H15511  -1.056   8.667  10.491 -1.3873  2.7835 -5.0838
  856MOL0     H15512  -0.963   8.954  10.359 -1.9014 -1.4915 -0.8011
  856MOL0     H15513  -1.077   8.912  10.491  0.8312 -1.2090  4.2846
  856MOL0     H15514  -0.812   9.022  10.565  0.2864  3.0465  1.2795
  856MOL0     H15515  -0.937   9.130  10.513  2.4793  0.4337 -1.0724
  856MOL0     H15516  -0.966   8.925  10.734  0.6099  0.6383  1.1506
  856MOL0     H15517  -1.078   9.051  10.687 -0.1358 -0.5386 -3.2428
  856MOL0     H15518  -0.882   9.232  10.734 -2.5843  0.8188  2.4261
  856MOL0     H15519  -0.791   9.089  10.776  1.2812  4.0943 -5.9759
  856MOL0     H15520  -1.038   9.185  11.129 -0.1748  0.1820 -0.4740
  856MOL0     H15521  -0.987   9.063  11.349  1.5440 -1.0304  0.9290
  856MOL0     H15522  -0.867   8.641  11.567  1.3905  1.8900 -0.7866
  856MOL0     H15523  -0.906   8.540  11.775 -1.2553 -1.2810 -4.3375
  856MOL0     H15524  -1.059   8.803  12.125 -0.0880 -0.6410  1.8891
  856MOL0     H15525  -1.165   8.697  12.030 -0.0373  3.4483 -0.3253
  856MOL0     H15526  -0.975   8.612  12.250  0.9237 -1.5519 -0.7981
  856MOL0     H15527  -1.149   8.609  12.262  0.0419  1.2553 -0.2912
  856MOL0     H15528  -0.952   8.432  12.108 -0.1485 -1.6631  1.0723
  856MOL0     H15529  -1.061   8.371  12.228 -1.1346 -1.0352 -1.1534
  856MOL0     H15530  -1.153   8.468  11.957  1.0553 -1.7683 -1.5385
  856MOL0     H15531  -1.252   8.432  12.112 -1.1672 -0.2411 -0.7799
  856MOL0     H15532  -1.254   8.210  12.062  0.4656  0.3735  1.7643
  856MOL0     H15533  -1.077   8.211  12.071  1.2944  3.1172 -0.3643
  856MOL0     H15534  -1.235   8.160  11.833 -1.9337  2.8892 -2.3105
  856MOL0     H15535  -1.219   8.321  11.824  1.3165  1.5127  1.2075
  856MOL0     H15536  -0.965   8.146  11.803  1.4471  1.4307 -0.7088
  856MOL0     H15537  -0.954   8.305  11.869 -1.9247 -0.6886  1.8792
  856MOL0     H15538  -1.101   8.374  11.653  0.4197 -0.7855  0.6520
  856MOL0     H15539  -0.923   8.344  11.647  0.0758 -0.1126 -0.6740
  856MOL0     H15540  -1.048   8.915  11.930  2.7422 -0.5885  1.8521
  856MOL0     H15541  -1.030   9.015  11.712 -0.5027  0.2073 -1.5302
  856MOL0     H15542  -0.748   8.792  11.127  1.1695  0.1966  0.3459
  856MOL0     H15543  -0.794   8.914  10.918 -1.6272  2.0629 -0.4560
  856MOL0     H15544   0.069   8.565  11.117 -1.0452 -0.1728  0.3913
  856MOL0     H15545   0.221   8.499  11.298 -0.4310  0.9018  1.2148
  856MOL0     H15546   0.447   8.496  11.652 -1.5019 -0.5250 -1.7216
  856MOL0     H15547   0.510   8.445  11.887 -1.3912  2.1698 -1.9200
  856MOL0     H15548   0.403   8.404  12.150  2.2082  1.2306  0.5994
  856MOL0     H15549   0.569   8.353  12.093  0.1554 -2.8402 -1.6022
  856MOL0     H15550   0.566   8.157  12.249 -1.3896 -1.3105  0.1398
  856MOL0     H15551   0.407   8.199  12.295 -1.2216  1.1785 -2.1192
  856MOL0     H15552   0.466   8.385  12.412 -1.8915 -2.4429  0.3180
  856MOL0     H15553   0.623   8.403  12.325 -0.7718  0.4271 -2.4305
  856MOL0     H15554   0.723   8.247  12.450  1.2176  0.0400  1.4264
  856MOL0     H15555   0.633   8.340  12.567 -1.5321  0.3649 -0.9075
  856MOL0     H15556   0.432   8.006  12.653  4.7576 -2.0542  2.5209
  856MOL0     H15557   0.308   8.073  11.872  2.3479 -0.2614 -0.8357
  856MOL0     H15558   0.253   7.965  11.662  1.6961 -0.8584 -2.2704
  856MOL0     H15559   0.149   8.090  11.590  0.6291 -0.0381  1.0954
  856MOL0     H15560   0.308   8.061  11.523  0.0499 -3.5518 -1.0236
  857MOL0     O15561   1.839   7.315  10.138 -0.3631 -0.8441 -0.3820
  857MOL0     C15562   1.762   7.404  10.181 -0.3335 -0.4055  0.0202
  857MOL0     O15563   1.789   7.482  10.295  0.9315 -0.2201 -0.2789
  857MOL0     C15564   1.916   7.482  10.362  0.0333  0.9889 -0.9925
  857MOL0     C15565   2.017   7.383  10.372  0.1438  0.3419 -0.1074
  857MOL0     C15566   2.145   7.404  10.442  0.7136 -1.1421 -0.0350
  857MOL0     C15567   2.166   7.528  10.503 -0.4245  0.4041  0.3078
  857MOL0     O15568   2.273   7.536  10.580  0.0799 -0.2720 -0.5698
  857MOL0     C15569   2.300   7.664  10.647 -0.0293  0.6517 -0.5350
  857MOL0     C15570   2.223   7.668  10.786 -0.2334  0.0014  0.6671
  857MOL0     C15571   2.268   7.799  10.848  0.3157 -0.1985 -0.4022
  857MOL0     C15572   2.195   7.867  10.963  0.3668  0.4971 -0.3242
  857MOL0     C15573   2.251   8.004  11.003 -1.2320  0.5821  0.3514
  857MOL0     C15574   2.216   8.052  11.148 -0.0544 -0.3796 -0.1448
  857MOL0     C15575   2.287   8.180  11.168  0.3023  0.1597  0.4496
  857MOL0     C15576   2.248   8.264  11.293  0.4854 -0.6972  0.0890
  857MOL0     N15577   2.233   8.183  11.420  0.5816  0.2084  0.4324
  857MOL0     C15578   2.112   8.166  11.493 -0.1728 -0.4474  0.3562
  857MOL0     C15579   2.145   8.075  11.584 -0.2506 -0.2000 -0.0377
  857MOL0     C15580   2.042   7.998  11.658  0.9946 -0.4461 -0.5443
  857MOL0     C15581   1.928   7.934  11.584  0.4854 -1.0957 -0.2715
  857MOL0     C15582   1.953   7.790  11.571 -0.8504 -0.0402 -0.3288
  857MOL0     C15583   1.857   7.726  11.470 -0.0922 -0.1031 -0.3699
  857MOL0     O15584   1.873   7.793  11.342 -0.0091  0.3103  0.3723
  857MOL0     C15585   1.809   7.742  11.230 -0.0883  0.9717 -0.5061
  857MOL0     C15586   1.839   7.802  11.110 -0.0842  0.6405  0.2314
  857MOL0     C15587   1.788   7.763  10.988  0.2326  0.4168  1.2406
  857MOL0     C15588   1.710   7.647  10.974 -0.2607 -0.2009  0.7641
  857MOL0     C15589   1.654   7.606  10.850  0.2356  0.1117 -0.3664
  857MOL0     O15590   1.565   7.500  10.858  0.3633  0.2105 -0.5148
  857MOL0     C15591   1.518   7.429  10.747  0.8397 -0.2521  0.1211
  857MOL0     C15592   1.584   7.428  10.622 -1.2361  0.2337 -0.4359
  857MOL0     C15593   1.539   7.351  10.514  0.1023  0.1709 -0.2309
  857MOL0     C15594   1.428   7.272  10.540  0.4107  0.5733 -0.3350
  857MOL0     O15595   1.359   7.215  10.439 -0.1413 -0.1113  0.2943
  857MOL0     C15596   1.441   7.180  10.328 -1.0063 -0.3033  0.6042
  857MOL0     C15597   1.374   7.073  10.245 -0.7902  0.4244 -0.2853
  857MOL0     C15598   1.455   7.009  10.135 -0.2962  0.7539 -0.1239
  857MOL0     C15599   1.381   6.888  10.075 -0.2267 -0.4481 -0.4187
  857MOL0     C15600   1.477   6.812   9.969  0.7024 -0.1406 -0.9030
  857MOL0     C15601   1.400   6.701   9.894 -1.2165 -0.4315  0.2783
  857MOL0     C15602   1.469   6.661   9.768 -0.1862 -0.5912 -0.3576
  857MOL0     C15603   1.376   6.576   9.684  0.1559  0.5353  0.3181
  857MOL0    Cl15604   1.331   6.434   9.770  0.0768 -0.4280 -0.0557
  857MOL0     C15605   1.364   7.264  10.665  0.0162 -0.5524 -1.1085
  857MOL0     C15606   1.409   7.346  10.771 -0.6937 -1.1303  0.2996
  857MOL0     O15607   1.687   7.673  10.753 -0.2490  0.0755 -0.9592
  857MOL0     C15608   1.685   7.576  11.098 -0.2792  0.1312 -0.5277
  857MOL0     C15609   1.725   7.625  11.228 -0.6775 -0.4050 -0.3741
  857MOL0     N15610   2.283   8.054  11.577 -0.7227  0.3796 -0.5933
  857MOL0     N15611   2.331   8.105  11.468  0.2381 -0.1047 -0.1268
  857MOL0     C15612   2.064   7.628  10.501  0.4738  0.3764  0.3038
  857MOL0     C15613   1.933   7.592  10.445 -0.8529 -0.1864  0.3987
  857MOL0     C15614   1.631   7.424  10.113  0.4223  0.8040 -0.2827
  857MOL0     C15615   1.540   7.522  10.164  0.1515  0.5650 -0.7603
  857MOL0     C15616   1.413   7.544  10.111  0.5514 -0.2339  0.3246
  857MOL0     C15617   1.374   7.475   9.991  0.7115 -0.8045 -0.1789
  857MOL0     O15618   1.255   7.502   9.937  0.2733 -0.0283 -0.5080
  857MOL0     C15619   1.147   7.401   9.969  0.3847 -0.8848 -0.6082
  857MOL0     C15620   1.061   7.343   9.855  0.5108  0.4296 -0.8133
  857MOL0     C15621   1.136   7.266   9.760 -0.8148  0.1364  0.5857
  857MOL0     C15622   1.192   7.127   9.813 -0.2845  0.5716  0.0295
  857MOL0     C15623   1.095   7.042   9.884 -0.0329  0.3123 -0.4981
  857MOL0     C15624   1.010   6.970   9.923  1.0311  0.9966 -0.3570
  857MOL0     C15625   1.467   7.384   9.943  0.0886  0.3385  1.1695
  857MOL0     C15626   1.597   7.359   9.991  0.6513  0.2410  0.1315
  857MOL0     C15627   1.689   7.275   9.903  0.0113 -0.2074 -0.3556
  857MOL0     H15628   2.008   7.295  10.309  0.1036  1.8418 -2.3221
  857MOL0     H15629   2.221   7.327  10.436 -0.7870 -2.6077 -1.6997
  857MOL0     H15630   2.407   7.672  10.664 -0.5349  1.0767  3.4158
  857MOL0     H15631   2.276   7.753  10.588 -3.8817 -0.5305 -1.0352
  857MOL0     H15632   2.256   7.582  10.844  3.0462  0.4563 -0.3205
  857MOL0     H15633   2.115   7.662  10.765 -0.0800  2.5778 -1.4812
  857MOL0     H15634   2.266   7.875  10.769 -0.9089 -0.3129 -0.5030
  857MOL0     H15635   2.374   7.788  10.871  0.2546  0.1852  0.0741
  857MOL0     H15636   2.091   7.867  10.932  1.1505  1.6533 -3.2809
  857MOL0     H15637   2.202   7.797  11.047  1.8677  1.8060  0.7058
  857MOL0     H15638   2.360   8.004  11.000 -1.1981  2.8446 -0.5212
  857MOL0     H15639   2.220   8.074  10.925  1.4062  2.5341  0.9082
  857MOL0     H15640   2.106   8.050  11.150 -0.2013 -2.1612 -3.5848
  857MOL0     H15641   2.258   7.977  11.215 -0.1640 -0.6201 -0.3406
  857MOL0     H15642   2.276   8.242  11.078 -4.5545  0.2916  0.8536
  857MOL0     H15643   2.392   8.151  11.177  0.1634 -1.3316 -2.0144
  857MOL0     H15644   2.309   8.351  11.321  1.0160 -0.8759 -0.4950
  857MOL0     H15645   2.148   8.295  11.263  1.0383  0.0725 -1.0419
  857MOL0     H15646   2.017   8.205  11.458 -0.4314 -1.2706  0.1057
  857MOL0     H15647   2.090   7.928  11.727 -0.2080 -1.7873 -1.0230
  857MOL0     H15648   1.985   8.073  11.713  2.8191  1.8333 -1.5946
  857MOL0     H15649   1.822   7.938  11.611  0.0028 -2.3311 -1.7662
  857MOL0     H15650   1.930   7.993  11.492 -1.5479  3.7196  2.4071
  857MOL0     H15651   1.964   7.738  11.667  0.3541 -1.8031 -1.3576
  857MOL0     H15652   2.053   7.782  11.529 -0.6429 -2.4775  0.4189
  857MOL0     H15653   1.754   7.752  11.498 -0.1147 -0.4281 -0.1579
  857MOL0     H15654   1.872   7.619  11.455 -2.1837 -0.8165  1.9753
  857MOL0     H15655   1.907   7.886  11.114 -0.3720  0.8765  0.2595
  857MOL0     H15656   1.806   7.817  10.896 -2.0034  1.9126  1.6062
  857MOL0     H15657   1.675   7.485  10.605 -0.6405 -0.4827  0.3130
  857MOL0     H15658   1.599   7.359  10.424 -3.0298 -0.3026 -2.4813
  857MOL0     H15659   1.455   7.273  10.271 -1.6190  0.0379  0.9923
  857MOL0     H15660   1.535   7.132  10.357 -2.1242 -2.1310  1.3376
  857MOL0     H15661   1.351   6.991  10.313 -2.2882 -0.6221 -1.9619
  857MOL0     H15662   1.279   7.102  10.200 -1.7328 -0.3264  1.1559
  857MOL0     H15663   1.463   7.076  10.049  0.3762  1.6249  0.5957
  857MOL0     H15664   1.559   6.989  10.162 -0.8486 -0.7425  1.0388
  857MOL0     H15665   1.288   6.914  10.025 -0.3971  0.1712  0.1980
  857MOL0     H15666   1.346   6.817  10.151 -0.1796 -0.0703 -0.0383
  857MOL0     H15667   1.557   6.758  10.021 -2.7354 -0.8712  4.3524
  857MOL0     H15668   1.507   6.896   9.904  1.3267  1.3228  1.1651
  857MOL0     H15669   1.379   6.618   9.961  0.3796  0.7765  2.3996
  857MOL0     H15670   1.305   6.744   9.860 -0.3364  0.2552 -1.4269
  857MOL0     H15671   1.563   6.611   9.793  0.8206  0.0019 -2.6886
  857MOL0     H15672   1.489   6.749   9.705  2.0926 -0.5293  0.3675
  857MOL0     H15673   1.288   6.628   9.646 -1.9602 -3.9912 -1.6740
  857MOL0     H15674   1.426   6.535   9.596 -0.3339 -0.3362  0.4365
  857MOL0     H15675   1.276   7.201  10.670  1.4665 -2.6544 -0.8297
  857MOL0     H15676   1.372   7.350  10.873 -1.6125  2.5463 -0.0303
  857MOL0     H15677   1.620   7.489  11.089  0.8866 -0.5541 -3.7460
  857MOL0     H15678   1.694   7.572  11.318 -0.7338 -1.6866 -1.1197
  857MOL0     H15679   2.060   7.715  10.565  0.6806 -0.2590  1.1883
  857MOL0     H15680   1.864   7.676  10.441  2.1604  2.9001  4.5991
  857MOL0     H15681   1.572   7.574  10.253  0.4810 -3.5058  1.7183
  857MOL0     H15682   1.340   7.614  10.149 -3.8534 -2.9643 -2.2424
  857MOL0     H15683   1.072   7.448  10.034 -1.0244 -0.6360 -2.3406
  857MOL0     H15684   1.196   7.324  10.029 -0.1735  0.9085  2.3968
  857MOL0     H15685   1.030   7.417   9.781 -1.3698 -1.7485 -2.3558
  857MOL0     H15686   0.968   7.291   9.879  0.9252 -1.0174 -2.1846
  857MOL0     H15687   1.216   7.333   9.728 -2.7748  1.5952 -1.6011
  857MOL0     H15688   1.080   7.254   9.667  0.3565  3.8957 -0.8138
  857MOL0     H15689   1.261   7.089   9.737 -1.7828  1.1104 -1.6748
  857MOL0     H15690   1.258   7.163   9.892  2.3141 -0.9144 -1.3377
  857MOL0     H15691   0.927   6.924   9.973  0.7206  2.6113  0.6937
  857MOL0     H15692   1.437   7.330   9.854  0.7555 -0.3865  1.3759
  857MOL0     H15693   1.761   7.333   9.844  0.9768 -1.4099 -0.4067
  857MOL0     H15694   1.737   7.192   9.956  3.0643 -0.5690 -3.3187
  857MOL0     H15695   1.647   7.204   9.830 -1.4239 -2.8765  2.8231
  858MOL0     O15696   2.442   3.899   5.953  0.4604  0.9722  0.6211
  858MOL0     C15697   2.375   3.891   5.845 -1.0104  0.0116  0.2264
  858MOL0     O15698   2.238   3.906   5.833  0.1846 -0.0833  0.4974
  858MOL0     C15699   2.180   3.974   5.933 -0.0651 -0.8355  0.8161
  858MOL0     C15700   2.222   4.099   5.961 -0.4766  1.0261 -0.0966
  858MOL0     C15701   2.171   4.164   6.077 -0.3254  0.7747  0.0753
  858MOL0     C15702   2.079   4.094   6.163 -0.0840  1.0482 -0.1890
  858MOL0     O15703   2.037   4.166   6.276 -0.8666  0.9933 -0.5485
  858MOL0     C15704   1.972   4.098   6.380 -0.0471  0.7812  0.1066
  858MOL0     C15705   1.822   4.095   6.357 -0.5171  0.1750  0.6093
  858MOL0     C15706   1.748   4.018   6.463 -0.1585  0.0237 -0.4310
  858MOL0     C15707   1.669   4.113   6.560  0.0207 -0.2477 -0.2671
  858MOL0     C15708   1.607   4.024   6.662 -0.5425  0.5589 -0.4433
  858MOL0     C15709   1.533   4.109   6.761  0.2958  0.4933  0.7982
  858MOL0     C15710   1.620   4.174   6.868 -0.4533  0.8793 -0.9685
  858MOL0     C15711   1.524   4.218   6.989  0.1146  0.5071  0.7136
  858MOL0     N15712   1.425   4.321   6.975 -0.0255  0.7735 -0.3688
  858MOL0     C15713   1.465   4.440   6.918 -0.8071 -0.7619  0.0235
  858MOL0     C15714   1.360   4.518   6.944 -0.5945 -0.4504 -0.2463
  858MOL0     C15715   1.361   4.664   6.897  0.2872  0.1469 -0.4691
  858MOL0     C15716   1.348   4.750   7.029  0.2409 -0.0128 -0.7108
  858MOL0     C15717   1.350   4.902   7.003 -0.4841  0.1773 -0.5143
  858MOL0     C15718   1.458   4.957   6.916  0.3628  0.5946 -0.5933
  858MOL0     O15719   1.577   4.890   6.950  0.1631  0.1994  0.2203
  858MOL0     C15720   1.690   4.935   6.887 -0.3511  0.5256  0.7301
  858MOL0     C15721   1.696   5.009   6.771  0.7379 -0.1480 -0.5083
  858MOL0     C15722   1.811   5.031   6.693  0.3773  0.2144 -0.1658
  858MOL0     C15723   1.930   4.975   6.739 -0.0599  0.5024 -0.0961
  858MOL0     C15724   2.062   5.006   6.674  0.2436 -0.1988 -0.4436
  858MOL0     O15725   2.073   5.107   6.589 -0.0622 -0.1147 -0.3917
  858MOL0     C15726   2.195   5.163   6.553  0.0604  0.1177 -1.2450
  858MOL0     C15727   2.224   5.206   6.423 -0.1129  0.7388 -0.2827
  858MOL0     C15728   2.346   5.248   6.380 -0.6898  0.1067 -0.1341
  858MOL0     C15729   2.437   5.295   6.475 -0.9546 -0.1137 -1.0647
  858MOL0     O15730   2.545   5.352   6.421 -0.1058  0.0986  0.1276
  858MOL0     C15731   2.646   5.403   6.509  0.6002  0.4418  0.3831
  858MOL0     C15732   2.712   5.519   6.436 -0.5927  0.5152 -0.7877
  858MOL0     C15733   2.831   5.584   6.517  0.2765  0.7647  0.6928
  858MOL0     C15734   2.956   5.632   6.445 -0.0581  0.5110  1.1705
  858MOL0     C15735   2.925   5.778   6.390  0.0212  0.2647 -0.5654
  858MOL0     C15736   2.827   5.779   6.273 -0.0112  1.2051  0.0954
  858MOL0     C15737   2.822   5.910   6.200 -0.2493  0.3390  0.5770
  858MOL0     C15738   2.712   5.926   6.092  0.0728  0.5350  0.5251
  858MOL0    Cl15739   2.730   5.796   5.975 -0.2751  0.2729  0.0660
  858MOL0     C15740   2.412   5.275   6.611  0.3547 -0.6829 -0.5714
  858MOL0     C15741   2.294   5.202   6.648  1.1013  0.1690  0.2008
  858MOL0     O15742   2.158   4.937   6.717 -0.1247 -1.0873  0.3749
  858MOL0     C15743   1.925   4.894   6.854  0.5123  0.5725  0.1079
  858MOL0     C15744   1.810   4.875   6.928  0.0170 -0.3461 -0.7158
  858MOL0     N15745   1.263   4.447   7.004 -0.5370  0.8271  0.3578
  858MOL0     N15746   1.299   4.325   7.013 -0.7444 -0.0963  0.6678
  858MOL0     C15747   2.033   3.970   6.123  0.3126 -0.4027  0.5255
  858MOL0     C15748   2.086   3.907   6.009  0.4124  0.7446 -0.2954
  858MOL0     C15749   2.453   3.841   5.731 -0.3478 -0.2351  0.2817
  858MOL0     C15750   2.573   3.773   5.757 -1.1889 -0.1107  0.9096
  858MOL0     C15751   2.645   3.716   5.662 -0.1064 -0.7539 -0.2221
  858MOL0     C15752   2.609   3.724   5.524 -0.4944  0.9061 -0.5551
  858MOL0     O15753   2.689   3.674   5.427 -0.7051 -0.5104  1.4193
  858MOL0     C15754   2.798   3.597   5.481 -0.7356  0.4664  0.0210
  858MOL0     C15755   2.871   3.539   5.361 -0.4522  0.6169  0.4453
  858MOL0     C15756   2.947   3.410   5.395  0.4827 -0.1294 -0.1674
  858MOL0     C15757   3.058   3.388   5.293  0.6798 -0.7733 -0.2864
  858MOL0     C15758   3.168   3.484   5.312 -0.1818  0.0250  1.5461
  858MOL0     C15759   3.261   3.563   5.324 -0.3634  0.1865  0.3936
  858MOL0     C15760   2.484   3.785   5.491 -0.0685 -0.4248  0.4063
  858MOL0     C15761   2.402   3.848   5.590 -0.0647  0.2709  0.7190
  858MOL0     C15762   2.276   3.917   5.546  0.1673  0.0517  0.7691
  858MOL0     H15763   2.285   4.152   5.890 -0.1266  0.9607  0.1567
  858MOL0     H15764   2.199   4.265   6.105 -0.9602  0.1504  3.2834
  858MOL0     H15765   2.006   3.995   6.395  0.0548  0.9455  1.0432
  858MOL0     H15766   1.992   4.150   6.474  0.0492  1.2823 -0.1844
  858MOL0     H15767   1.794   4.053   6.260  3.4568  2.3850 -1.7466
  858MOL0     H15768   1.805   4.202   6.352  1.1890  0.4639  0.3746
  858MOL0     H15769   1.813   3.949   6.518 -1.1353 -2.1589 -1.8486
  858MOL0     H15770   1.691   3.946   6.404  0.6213  0.0839 -1.2666
  858MOL0     H15771   1.718   4.201   6.602 -2.3720  0.6511  0.8147
  858MOL0     H15772   1.586   4.157   6.503 -0.2934 -0.4657  0.0185
  858MOL0     H15773   1.532   3.955   6.621  0.7504 -1.3841  0.2915
  858MOL0     H15774   1.681   3.965   6.718 -3.2567 -0.0196  2.8999
  858MOL0     H15775   1.476   4.182   6.703  0.1536 -1.3324 -1.4571
  858MOL0     H15776   1.462   4.046   6.815  1.5618 -1.3022  0.4434
  858MOL0     H15777   1.675   4.266   6.844  0.2845  0.6863 -0.0725
  858MOL0     H15778   1.683   4.097   6.913  0.6975  1.2063 -1.9577
  858MOL0     H15779   1.478   4.125   7.023  0.8757 -1.0696 -2.1648
  858MOL0     H15780   1.592   4.250   7.068  1.4612  2.1980 -1.0089
  858MOL0     H15781   1.555   4.468   6.864 -1.2657 -1.0847 -0.9308
  858MOL0     H15782   1.437   4.697   6.826 -1.8765  0.1611 -2.9125
  858MOL0     H15783   1.265   4.680   6.847 -0.4062 -1.1384  0.3868
  858MOL0     H15784   1.257   4.721   7.083  0.3132 -0.0672 -0.6179
  858MOL0     H15785   1.424   4.720   7.102 -1.0873 -2.5955 -0.2658
  858MOL0     H15786   1.378   4.943   7.100 -0.9949 -0.8238  0.0689
  858MOL0     H15787   1.250   4.941   6.984 -1.6629 -1.1470  2.4397
  858MOL0     H15788   1.473   5.064   6.933  1.4265  0.0918  2.0067
  858MOL0     H15789   1.432   4.932   6.812  0.9029 -0.5408 -0.4625
  858MOL0     H15790   1.603   5.051   6.736  0.7017 -1.8112 -2.5742
  858MOL0     H15791   1.817   5.080   6.597 -0.5075 -0.3577 -0.5298
  858MOL0     H15792   2.163   5.188   6.335 -2.1145 -1.3917  1.3883
  858MOL0     H15793   2.366   5.245   6.274 -0.5342  0.1200 -0.1054
  858MOL0     H15794   2.603   5.438   6.603  0.7175  0.1839  0.5330
  858MOL0     H15795   2.720   5.323   6.522  3.9894  3.0640 -1.2538
  858MOL0     H15796   2.755   5.475   6.346  0.2554 -3.1492  1.2096
  858MOL0     H15797   2.637   5.597   6.422  0.0141  1.0866 -0.9597
  858MOL0     H15798   2.789   5.660   6.583 -2.4632 -0.8248  0.9109
  858MOL0     H15799   2.869   5.498   6.574  0.2054  0.8839  0.9205
  858MOL0     H15800   2.991   5.568   6.363 -1.5733  0.6568  0.3721
  858MOL0     H15801   3.040   5.629   6.515  1.0813  0.1919 -0.1701
  858MOL0     H15802   3.025   5.811   6.359  0.9431 -1.1593  0.7807
  858MOL0     H15803   2.882   5.839   6.469 -3.4961 -2.0411 -0.5197
  858MOL0     H15804   2.860   5.690   6.218  2.1940 -0.6580  4.0478
  858MOL0     H15805   2.722   5.771   6.305  0.0961  0.5582  0.3133
  858MOL0     H15806   2.917   5.937   6.153 -0.5112 -1.2482 -0.9745
  858MOL0     H15807   2.806   5.985   6.278 -1.6330  0.0192  0.6360
  858MOL0     H15808   2.617   5.910   6.144 -4.5637 -0.3299 -6.7122
  858MOL0     H15809   2.727   6.029   6.059  2.6538 -0.2498 -1.0648
  858MOL0     H15810   2.473   5.306   6.696 -1.4416  2.9179 -0.4230
  858MOL0     H15811   2.277   5.171   6.751  0.4062 -1.5334 -0.3989
  858MOL0     H15812   2.018   4.847   6.885 -0.1760  0.8607  2.9391
  858MOL0     H15813   1.813   4.798   7.005  0.4891  1.1675  0.8381
  858MOL0     H15814   1.960   3.912   6.179  0.9102 -0.2266  1.5151
  858MOL0     H15815   2.041   3.819   5.964  1.4719  0.1378 -0.2110
  858MOL0     H15816   2.616   3.768   5.857 -3.6222 -3.8529  1.9668
  858MOL0     H15817   2.739   3.676   5.700 -0.3614  0.3237  1.6716
  858MOL0     H15818   2.767   3.525   5.557  2.9528  2.3477  3.7216
  858MOL0     H15819   2.867   3.665   5.532  1.1150 -0.6988 -0.8131
  858MOL0     H15820   2.928   3.626   5.328  0.5156 -1.1325 -2.8904
  858MOL0     H15821   2.793   3.511   5.290  2.1346  1.6901 -3.1098
  858MOL0     H15822   2.876   3.329   5.374 -1.2600  1.3763 -0.3917
  858MOL0     H15823   2.974   3.407   5.501 -1.7194 -0.4766  0.4355
  858MOL0     H15824   3.099   3.288   5.307 -0.1015 -1.5121 -2.7808
  858MOL0     H15825   3.014   3.403   5.194  4.9338 -2.8441 -2.7679
  858MOL0     H15826   3.336   3.637   5.341  0.3612  0.5111 -3.4372
  858MOL0     H15827   2.441   3.787   5.392  0.6156 -1.6605  0.0672
  858MOL0     H15828   2.283   3.948   5.441  1.7161  2.6410  1.5319
  858MOL0     H15829   2.190   3.851   5.563  0.4794 -0.3616  0.7436
  858MOL0     H15830   2.270   4.007   5.609  4.1570 -0.9126  2.8141
  859MOL0     O15831  10.773   2.670  10.198 -0.7046  0.2373 -0.0396
  859MOL0     C15832  10.787   2.710  10.318 -0.5144 -0.2190  0.6551
  859MOL0     O15833  10.693   2.713  10.419  0.4797  0.3487  0.5582
  859MOL0     C15834  10.569   2.674  10.382 -0.0586 -0.0471  0.2226
  859MOL0     C15835  10.504   2.698  10.258 -0.3960  0.4733 -0.2107
  859MOL0     C15836  10.381   2.633  10.234  0.3526  0.3511 -0.1214
  859MOL0     C15837  10.315   2.554  10.336  0.1353  0.0038  0.2009
  859MOL0     O15838  10.206   2.473  10.323 -0.6003  0.2562  0.3506
  859MOL0     C15839  10.142   2.447  10.189  0.3764 -0.9172 -0.0439
  859MOL0     C15840   9.996   2.445  10.233  1.1870  0.1580 -0.1741
  859MOL0     C15841   9.952   2.584  10.286 -0.8485  0.0150  0.0180
  859MOL0     C15842   9.807   2.574  10.332 -0.0681  0.0259 -0.5553
  859MOL0     C15843   9.735   2.706  10.340  0.0286  0.0952  0.1845
  859MOL0     C15844   9.585   2.685  10.313  0.5125 -0.3439  0.6371
  859MOL0     C15845   9.514   2.825  10.290  0.7286  0.2039  0.5230
  859MOL0     C15846   9.362   2.811  10.271  0.2817 -0.1140  0.5812
  859MOL0     N15847   9.325   2.731  10.158  0.4633 -0.0086  0.3709
  859MOL0     C15848   9.323   2.774  10.021  1.1112 -0.1859 -0.5451
  859MOL0     C15849   9.285   2.667   9.948 -0.4138  0.9845 -0.2576
  859MOL0     C15850   9.260   2.681   9.798  0.3292  0.5110 -0.5882
  859MOL0     C15851   9.404   2.670   9.732  0.0991 -0.5862  0.3894
  859MOL0     C15852   9.406   2.703   9.579  0.9893  0.0966 -0.7030
  859MOL0     C15853   9.367   2.850   9.540  0.6849 -1.1092 -0.6528
  859MOL0     O15854   9.227   2.879   9.570 -1.0373 -0.2454 -0.5379
  859MOL0     C15855   9.187   3.010   9.553 -0.7687  0.2073  0.6563
  859MOL0     C15856   9.046   3.018   9.555  0.5732 -0.4913 -1.0215
  859MOL0     C15857   8.978   3.141   9.518 -1.3739 -0.4021 -0.1006
  859MOL0     C15858   9.047   3.260   9.485  0.5883  0.1439 -0.3133
  859MOL0     C15859   8.977   3.387   9.442 -0.2794  0.4177 -0.5614
  859MOL0     O15860   8.842   3.387   9.457  0.0291  0.4444  0.0841
  859MOL0     C15861   8.777   3.506   9.450  0.0609  0.4446 -0.2444
  859MOL0     C15862   8.740   3.550   9.325 -0.1799  0.0765  0.4164
  859MOL0     C15863   8.675   3.668   9.307 -0.3336 -0.4109  0.2202
  859MOL0     C15864   8.638   3.747   9.415 -0.0397  0.5053 -0.3656
  859MOL0     O15865   8.565   3.866   9.404  0.3664  0.5667  0.2024
  859MOL0     C15866   8.614   3.977   9.485 -0.6913 -0.4232  0.8855
  859MOL0     C15867   8.500   4.001   9.586 -0.2250  0.1316  0.0659
  859MOL0     C15868   8.546   4.116   9.680  0.8683 -0.4351  0.6105
  859MOL0     C15869   8.557   4.266   9.616  0.3659  0.0567 -0.4669
  859MOL0     C15870   8.582   4.369   9.721  0.3737  0.5429  0.0540
  859MOL0     C15871   8.605   4.508   9.661  0.3532 -0.4859  0.8167
  859MOL0     C15872   8.651   4.608   9.773  1.4161  0.4581 -0.0263
  859MOL0     C15873   8.528   4.694   9.824  1.1720 -1.2592 -0.2367
  859MOL0    Cl15874   8.470   4.804   9.694 -0.2049  0.0171 -0.4270
  859MOL0     C15875   8.674   3.704   9.542  0.4293 -0.2915 -0.6437
  859MOL0     C15876   8.740   3.580   9.560  0.1456 -0.6519 -0.8198
  859MOL0     O15877   9.048   3.488   9.425  0.2537  0.3294 -0.9144
  859MOL0     C15878   9.190   3.252   9.482 -0.6383 -0.1986  0.3569
  859MOL0     C15879   9.254   3.131   9.514  0.3874 -0.1679  0.2585
  859MOL0     N15880   9.257   2.560  10.041 -0.5192 -0.3357  0.1970
  859MOL0     N15881   9.275   2.601  10.166  0.0867  0.4967  0.8411
  859MOL0     C15882  10.379   2.539  10.457  0.1239  0.3237  0.0366
  859MOL0     C15883  10.504   2.598  10.481 -0.3468 -0.6547 -0.0252
  859MOL0     C15884  10.916   2.763  10.359 -0.1383  0.9720 -0.2868
  859MOL0     C15885  10.963   2.745  10.489  0.8600 -0.1253 -0.3706
  859MOL0     C15886  11.078   2.790  10.537 -0.5143  0.4784 -0.7110
  859MOL0     C15887  11.172   2.847  10.465 -0.6619 -0.5740  0.6032
  859MOL0     O15888  11.290   2.893  10.515 -0.1686 -0.1297 -0.1680
  859MOL0     C15889  11.403   2.930  10.432 -0.8194 -0.4717 -0.4919
  859MOL0     C15890  11.522   2.973  10.519 -0.3243 -0.5422 -0.0678
  859MOL0     C15891  11.487   3.097  10.612  1.2371  0.3802 -0.0349
  859MOL0     C15892  11.589   3.138  10.709 -0.2386 -0.0093 -0.4636
  859MOL0     C15893  11.709   3.187  10.638 -0.2699 -0.2108  0.0294
  859MOL0     C15894  11.813   3.205  10.580  0.1970  1.0219 -0.0731
  859MOL0     C15895  11.133   2.869  10.330 -0.1967  0.3810  0.8097
  859MOL0     C15896  11.008   2.835  10.277  0.4522  1.4340  1.1123
  859MOL0     C15897  10.966   2.874  10.133  0.3058  0.2128  0.1120
  859MOL0     H15898  10.537   2.768  10.182 -1.3919 -0.1379 -1.2581
  859MOL0     H15899  10.337   2.649  10.136  1.6980  0.0867 -0.7809
  859MOL0     H15900  10.164   2.524  10.115 -0.7161 -0.8310 -0.2947
  859MOL0     H15901  10.170   2.349  10.148 -1.4233 -1.3370 -0.3715
  859MOL0     H15902   9.992   2.374  10.316  1.2370  2.1730  1.6449
  859MOL0     H15903   9.933   2.404  10.153 -1.8453 -1.5901  2.8629
  859MOL0     H15904   9.969   2.653  10.202  0.3417  0.6963  0.7719
  859MOL0     H15905  10.014   2.626  10.367 -0.0729  1.8024 -1.4135
  859MOL0     H15906   9.753   2.507  10.265 -0.6244  0.1526 -0.2406
  859MOL0     H15907   9.809   2.549  10.439 -0.5240 -1.7001 -0.9132
  859MOL0     H15908   9.760   2.761  10.431 -3.4223 -1.7462  2.4836
  859MOL0     H15909   9.778   2.781  10.273  2.2365 -0.9868  0.3025
  859MOL0     H15910   9.559   2.624  10.226 -6.2582  1.6100  0.7562
  859MOL0     H15911   9.540   2.644  10.404 -0.4244  0.3525  0.4954
  859MOL0     H15912   9.558   2.879  10.206 -2.6020 -0.6783 -2.0213
  859MOL0     H15913   9.528   2.898  10.371  0.5372 -2.0750  2.7494
  859MOL0     H15914   9.313   2.756  10.352 -1.3875 -1.2361 -1.0882
  859MOL0     H15915   9.312   2.908  10.275  1.0531  0.2553  3.3489
  859MOL0     H15916   9.336   2.874   9.981 -1.0208 -0.6114 -2.4675
  859MOL0     H15917   9.191   2.603   9.768 -1.3463  1.5373  0.4250
  859MOL0     H15918   9.200   2.771   9.785  0.7331  1.2180  1.9014
  859MOL0     H15919   9.478   2.739   9.773 -0.6351  1.4999 -1.5972
  859MOL0     H15920   9.438   2.568   9.746  1.3708 -0.4658 -1.5479
  859MOL0     H15921   9.339   2.635   9.527  0.3702 -1.1934  1.6486
  859MOL0     H15922   9.503   2.687   9.530  1.0207  0.5550 -0.8023
  859MOL0     H15923   9.378   2.863   9.432  0.6180  3.2069 -0.3167
  859MOL0     H15924   9.434   2.924   9.587 -2.3950  2.1159 -0.9194
  859MOL0     H15925   8.984   2.930   9.572 -2.1754  1.1344 -2.0136
  859MOL0     H15926   8.870   3.145   9.509 -1.5348  3.0422  1.6829
  859MOL0     H15927   8.769   3.496   9.235 -2.9308  0.9934 -1.1588
  859MOL0     H15928   8.632   3.695   9.211 -1.1378  1.5405  1.0689
  859MOL0     H15929   8.712   3.951   9.528  0.6466 -1.9133 -2.7219
  859MOL0     H15930   8.639   4.059   9.416  1.6302 -0.6864  1.3116
  859MOL0     H15931   8.408   4.033   9.535  0.5465  5.0827  1.2624
  859MOL0     H15932   8.478   3.914   9.648 -3.3813  0.8272  0.0946
  859MOL0     H15933   8.478   4.128   9.764 -2.5464 -2.0901 -1.6972
  859MOL0     H15934   8.643   4.082   9.718  0.7442 -3.0448 -1.0699
  859MOL0     H15935   8.465   4.284   9.559 -1.9325 -0.7337  2.7254
  859MOL0     H15936   8.644   4.275   9.551 -1.5379  2.0610 -2.9515
  859MOL0     H15937   8.667   4.339   9.783  1.4566  1.2791 -1.0317
  859MOL0     H15938   8.500   4.372   9.794  1.1092 -0.0646  0.9318
  859MOL0     H15939   8.672   4.512   9.575 -1.3417 -2.6558 -0.7166
  859MOL0     H15940   8.518   4.548   9.609  1.8814  2.2398  0.1631
  859MOL0     H15941   8.733   4.660   9.723  2.9079 -3.8988 -2.7212
  859MOL0     H15942   8.704   4.557   9.854  0.6705 -2.0217 -1.0105
  859MOL0     H15943   8.441   4.636   9.856  0.1842  0.6132  0.6891
  859MOL0     H15944   8.560   4.751   9.912  1.1947  1.8653 -2.1029
  859MOL0     H15945   8.646   3.765   9.627 -3.1604 -1.0639 -1.1041
  859MOL0     H15946   8.758   3.544   9.661 -2.8931 -1.4699 -0.4709
  859MOL0     H15947   9.253   3.338   9.462 -1.8823  1.2534  2.3436
  859MOL0     H15948   9.363   3.138   9.516  0.2563  2.8849  1.4677
  859MOL0     H15949  10.331   2.486  10.538 -0.1354 -0.3323 -0.5382
  859MOL0     H15950  10.550   2.570  10.575  0.5711  1.0325  0.0742
  859MOL0     H15951  10.895   2.695  10.558 -0.9089  2.0112 -0.4669
  859MOL0     H15952  11.108   2.764  10.638  0.1970 -1.5453 -1.3907
  859MOL0     H15953  11.376   3.025  10.384  1.9190  0.5979 -0.0499
  859MOL0     H15954  11.441   2.851  10.367  0.4939  1.3303 -2.0286
  859MOL0     H15955  11.604   2.995  10.451 -0.0587 -1.7374 -0.1502
  859MOL0     H15956  11.565   2.896  10.584  2.5269  0.3975 -0.7364
  859MOL0     H15957  11.388   3.084  10.657  0.3216  0.2951 -1.9730
  859MOL0     H15958  11.463   3.172  10.537 -3.7811 -0.5502  0.2775
  859MOL0     H15959  11.552   3.223  10.767 -0.6393 -1.4056  1.3739
  859MOL0     H15960  11.623   3.059  10.776  2.6199 -0.0591 -1.8106
  859MOL0     H15961  11.912   3.219  10.541  0.6651  1.3493  1.1723
  859MOL0     H15962  11.196   2.927  10.264  1.9525 -1.7107  0.8995
  859MOL0     H15963  10.929   2.795  10.068  2.9393  0.5270 -1.9694
  859MOL0     H15964  10.895   2.956  10.146  2.3388  2.3843 -1.5028
  859MOL0     H15965  11.044   2.936  10.086  2.6716 -1.2224  1.8854
  860MOL0     O15966  11.226   0.930  10.145 -0.6220  0.5326  0.0113
  860MOL0     C15967  11.141   0.889  10.064  0.1574  0.7994 -0.0188
  860MOL0     O15968  11.025   0.835  10.105 -0.1168  0.4303 -0.2234
  860MOL0     C15969  10.988   0.859  10.236 -0.9551 -0.8412  0.0284
  860MOL0     C15970  11.045   0.796  10.345  0.7021  0.3303 -0.0432
  860MOL0     C15971  10.980   0.811  10.471  0.4168 -0.2829 -0.7848
  860MOL0     C15972  10.871   0.887  10.494  0.2165 -0.4610 -0.0490
  860MOL0     O15973  10.824   0.869  10.619 -0.5122 -1.0601  1.0967
  860MOL0     C15974  10.709   0.935  10.666  0.3711 -0.0511  0.6079
  860MOL0     C15975  10.568   0.877  10.610 -0.6353  0.1385 -0.1582
  860MOL0     C15976  10.485   0.958  10.509 -0.8055  0.8320  0.3465
  860MOL0     C15977  10.387   1.056  10.577 -0.1652 -0.3685  1.7381
  860MOL0     C15978  10.306   1.135  10.461 -0.4113 -0.4197 -0.8978
  860MOL0     C15979  10.213   1.033  10.391 -0.6391 -0.9096 -0.0321
  860MOL0     C15980  10.083   1.079  10.344  0.8266 -0.4572 -0.2409
  860MOL0     C15981   9.975   1.063  10.459  0.0032  0.5547 -0.3925
  860MOL0     N15982   9.835   1.082  10.412 -0.1953  0.3456  0.2388
  860MOL0     C15983   9.784   1.016  10.308 -0.0295 -0.4744  0.2399
  860MOL0     C15984   9.668   1.078  10.286 -0.3077 -0.0060 -0.2684
  860MOL0     C15985   9.583   1.070  10.165  0.3193 -0.3348  0.5318
  860MOL0     C15986   9.431   1.098  10.194 -0.5000  1.0596 -0.4110
  860MOL0     C15987   9.380   1.003  10.306 -0.7024 -0.7471 -0.1663
  860MOL0     C15988   9.249   0.923  10.279 -0.6308 -0.1047 -0.4196
  860MOL0     O15989   9.214   0.894  10.142  0.1347  0.1650 -0.2560
  860MOL0     C15990   9.117   0.804  10.145 -0.2795  0.1471 -0.3908
  860MOL0     C15991   9.152   0.664  10.138  0.3783  0.0190 -0.8578
  860MOL0     C15992   9.055   0.571  10.126 -0.1528  0.2156 -1.1478
  860MOL0     C15993   8.921   0.610  10.144 -0.8545 -0.2032 -1.1585
  860MOL0     C15994   8.819   0.509  10.143  1.1223 -1.0501 -1.3295
  860MOL0     O15995   8.864   0.384  10.137 -0.8792  0.2643 -0.1773
  860MOL0     C15996   8.799   0.263  10.143 -0.5511 -0.6796  0.3465
  860MOL0     C15997   8.871   0.152  10.099  0.6670 -0.0287  0.8936
  860MOL0     C15998   8.820   0.023  10.106  0.1656 -0.0897  0.1404
  860MOL0     C15999   8.701  -0.001  10.173  0.0246 -1.0546  0.1180
  860MOL0     O16000   8.644  -0.126  10.170  0.2304  0.3383  0.4741
  860MOL0     C16001   8.720  -0.245  10.147  0.0177  0.1508 -0.1283
  860MOL0     C16002   8.795  -0.286  10.279 -0.2056  0.7775  0.5176
  860MOL0     C16003   8.763  -0.435  10.334  0.9208  0.5558  0.1039
  860MOL0     C16004   8.613  -0.453  10.367  1.2786  0.3608 -0.6482
  860MOL0     C16005   8.572  -0.599  10.388  0.3748  0.7425  0.5053
  860MOL0     C16006   8.588  -0.692  10.269 -0.6362 -0.3664  0.4040
  860MOL0     C16007   8.522  -0.641  10.140 -0.9455 -0.6328  0.2180
  860MOL0     C16008   8.512  -0.753  10.032 -0.4514  0.0169 -1.6448
  860MOL0    Cl16009   8.684  -0.817  10.010 -0.1568 -0.1172  0.3611
  860MOL0     C16010   8.626   0.117  10.213 -0.7796 -0.2220 -0.1492
  860MOL0     C16011   8.678   0.244  10.203 -0.1225 -0.1128 -0.2570
  860MOL0     O16012   8.697   0.547  10.154 -0.3954 -0.3545  0.6227
  860MOL0     C16013   8.887   0.743  10.149  0.5071 -0.3140  0.1861
  860MOL0     C16014   8.984   0.840  10.140 -0.2068 -0.0768 -0.1956
  860MOL0     N16015   9.655   1.187  10.373  0.7123  0.0618 -0.4746
  860MOL0     N16016   9.763   1.189  10.459  0.7500  0.4497  0.2284
  860MOL0     C16017  10.828   0.969  10.392  0.3620  0.2929  0.3520
  860MOL0     C16018  10.882   0.949  10.262  0.0472 -0.0736  0.2188
  860MOL0     C16019  11.157   0.892   9.912 -0.4061 -0.1682  0.0588
  860MOL0     C16020  11.041   0.860   9.834 -0.5541  0.3063  0.2037
  860MOL0     C16021  11.044   0.862   9.690  0.1092 -1.1995 -0.1885
  860MOL0     C16022  11.157   0.921   9.630 -0.6587  0.3589 -0.0065
  860MOL0     O16023  11.172   0.925   9.490  0.2815 -0.1208  0.2418
  860MOL0     C16024  11.107   0.825   9.409 -0.2824 -0.5830 -0.3921
  860MOL0     C16025  11.164   0.854   9.273  0.2433  0.8846  0.3747
  860MOL0     C16026  11.126   0.748   9.161 -0.1890 -0.0670 -1.0971
  860MOL0     C16027  11.178   0.779   9.016 -0.1735 -0.7929 -0.3474
  860MOL0     C16028  11.134   0.672   8.931  0.3914  0.0499 -0.0293
  860MOL0     C16029  11.079   0.594   8.851 -0.5134 -0.2889 -1.1255
  860MOL0     C16030  11.263   0.969   9.711  0.6161  0.0738  0.1746
  860MOL0     C16031  11.266   0.965   9.848 -0.1287  1.0359 -0.0317
  860MOL0     C16032  11.378   1.035   9.918  0.2107  0.8528  0.3840
  860MOL0     H16033  11.125   0.723  10.334 -0.8836 -2.2112  3.5187
  860MOL0     H16034  11.022   0.751  10.551  0.5281  1.1840  0.2900
  860MOL0     H16035  10.710   0.922  10.775 -1.8730  0.8258  0.7974
  860MOL0     H16036  10.708   1.041  10.638 -2.7126 -0.3849 -1.0240
  860MOL0     H16037  10.501   0.869  10.696 -4.2296  0.5529 -2.6985
  860MOL0     H16038  10.579   0.776  10.569 -2.9005 -0.3334  0.2466
  860MOL0     H16039  10.426   0.879  10.462  0.0304  1.0714 -1.1471
  860MOL0     H16040  10.554   1.006  10.439 -1.7755 -0.2778 -1.4424
  860MOL0     H16041  10.319   0.991  10.634 -0.7588 -4.6137 -3.0249
  860MOL0     H16042  10.438   1.135  10.631 -0.6557  4.0276 -3.4109
  860MOL0     H16043  10.243   1.204  10.519  2.0209  1.2488 -0.0754
  860MOL0     H16044  10.371   1.194  10.396 -0.4968 -0.9385 -1.4576
  860MOL0     H16045  10.272   0.994  10.307 -0.3460 -2.2502  0.7613
  860MOL0     H16046  10.196   0.947  10.457 -2.1408 -0.7328 -0.1512
  860MOL0     H16047  10.058   1.011  10.262 -0.1164 -0.3143 -0.0839
  860MOL0     H16048  10.086   1.184  10.313 -1.8386 -0.8577 -2.2357
  860MOL0     H16049   9.974   0.958  10.488  0.9368 -0.6126 -4.0524
  860MOL0     H16050   9.990   1.128  10.546 -4.0838 -0.0309  0.9284
  860MOL0     H16051   9.829   0.941  10.244  1.1374  0.0968  0.3770
  860MOL0     H16052   9.611   1.153  10.100  2.9811  0.5214  2.6200
  860MOL0     H16053   9.596   0.972  10.118  0.2831  0.6310 -1.6302
  860MOL0     H16054   9.418   1.204  10.216 -0.3904  1.4834 -2.2365
  860MOL0     H16055   9.381   1.073  10.100  1.9522 -2.3554 -0.9830
  860MOL0     H16056   9.369   1.061  10.399 -1.1203  2.6469 -2.1553
  860MOL0     H16057   9.465   0.937  10.324  0.2011 -0.3179 -2.5249
  860MOL0     H16058   9.170   0.992  10.310  0.3675  1.3719 -1.0301
  860MOL0     H16059   9.245   0.834  10.343  2.8191 -3.0910 -3.8821
  860MOL0     H16060   9.255   0.634  10.121  0.2369 -0.6104 -0.6386
  860MOL0     H16061   9.087   0.470  10.102 -0.7355 -0.0261 -0.9401
  860MOL0     H16062   8.970   0.168  10.057 -0.2736 -0.3543 -1.6123
  860MOL0     H16063   8.881  -0.056  10.063 -0.5171 -0.0854 -0.8760
  860MOL0     H16064   8.650  -0.323  10.115 -0.3216  1.2821 -2.3877
  860MOL0     H16065   8.786  -0.240  10.059 -0.8193  1.9947 -0.6924
  860MOL0     H16066   8.899  -0.263  10.255 -0.0497 -0.8185 -0.4554
  860MOL0     H16067   8.767  -0.227  10.366 -0.9436  1.2149 -0.0105
  860MOL0     H16068   8.784  -0.485  10.239 -1.3052  3.2591 -2.0326
  860MOL0     H16069   8.824  -0.472  10.416 -2.4199 -1.0840  2.0230
  860MOL0     H16070   8.540  -0.418  10.293 -5.0896 -2.7105  3.2901
  860MOL0     H16071   8.575  -0.405  10.457 -1.4181 -1.2506 -0.8274
  860MOL0     H16072   8.464  -0.597  10.404  0.3664  0.4045  0.4964
  860MOL0     H16073   8.615  -0.648  10.476 -1.4226 -2.5311 -0.2442
  860MOL0     H16074   8.696  -0.707  10.259 -0.0507  1.0491  3.4816
  860MOL0     H16075   8.552  -0.793  10.290 -4.1060  0.1270 -2.1087
  860MOL0     H16076   8.568  -0.553  10.094 -2.2627 -0.0721 -0.0713
  860MOL0     H16077   8.424  -0.610  10.175 -1.3868  2.0075 -2.9335
  860MOL0     H16078   8.455  -0.840  10.066 -0.5980 -0.2764 -2.6211
  860MOL0     H16079   8.470  -0.711   9.940  1.2768  3.3168 -1.0678
  860MOL0     H16080   8.529   0.093  10.256  0.1094 -1.8103  1.1128
  860MOL0     H16081   8.633   0.329  10.253 -1.1757 -2.1258  2.4622
  860MOL0     H16082   8.788   0.788  10.144  1.2948  1.6007  0.6075
  860MOL0     H16083   8.964   0.945  10.119  0.9928  0.6854  2.0739
  860MOL0     H16084  10.750   1.043  10.408 -0.3170 -0.3050 -0.1373
  860MOL0     H16085  10.834   1.009  10.185 -2.2248 -1.8695  0.1245
  860MOL0     H16086  10.946   0.823   9.872  0.1975 -1.8907  0.1058
  860MOL0     H16087  10.963   0.830   9.625 -0.3913 -1.2335  0.4479
  860MOL0     H16088  10.998   0.830   9.406 -0.3551 -1.0001  0.9017
  860MOL0     H16089  11.144   0.725   9.433  2.8025  0.1784 -1.4890
  860MOL0     H16090  11.273   0.852   9.287  0.3383  2.8700  0.2547
  860MOL0     H16091  11.131   0.954   9.242  2.4623  0.7603 -2.7760
  860MOL0     H16092  11.017   0.738   9.167  0.0133 -2.1833 -0.3656
  860MOL0     H16093  11.170   0.653   9.191  0.2785  0.4964  0.1063
  860MOL0     H16094  11.131   0.871   8.982 -1.0811 -1.1065  0.0300
  860MOL0     H16095  11.287   0.770   9.014 -0.0895  0.0576 -0.0693
  860MOL0     H16096  11.039   0.524   8.781  0.4035 -2.5968  0.4965
  860MOL0     H16097  11.344   1.015   9.655 -0.7831  0.9231 -1.2286
  860MOL0     H16098  11.427   0.972   9.993 -1.7933 -0.1289  0.9469
  860MOL0     H16099  11.456   1.074   9.852 -1.2425 -0.3415 -2.1712
  860MOL0     H16100  11.330   1.111   9.980 -1.6433  1.7239 -1.9738
  861MOL0     O16101   4.295   7.084  11.201  0.4169 -0.4866  0.5733
  861MOL0     C16102   4.356   6.981  11.165 -0.2925 -0.0371 -0.5558
  861MOL0     O16103   4.488   6.985  11.119 -0.3966 -0.5858 -0.3770
  861MOL0     C16104   4.563   7.103  11.129  0.5917  0.7129  0.5002
  861MOL0     C16105   4.695   7.095  11.180  0.1872  0.8271  0.0766
  861MOL0     C16106   4.773   7.212  11.191  0.7508  0.2638 -0.0535
  861MOL0     C16107   4.719   7.335  11.145  0.4410 -0.1068 -0.2591
  861MOL0     O16108   4.774   7.455  11.165  0.0199 -0.2584 -0.0043
  861MOL0     C16109   4.861   7.493  11.060 -0.1779 -0.2493 -0.2994
  861MOL0     C16110   4.901   7.643  11.079 -0.2375  0.2838  0.6188
  861MOL0     C16111   4.779   7.738  11.054 -0.6309 -0.4476  0.5156
  861MOL0     C16112   4.719   7.737  10.917  0.1336  0.2258  0.7063
  861MOL0     C16113   4.629   7.872  10.903 -0.1556 -0.3901 -0.6658
  861MOL0     C16114   4.544   7.896  10.777  1.1067 -0.3747 -0.2467
  861MOL0     C16115   4.423   7.803  10.773  0.0491 -0.7333  0.0464
  861MOL0     C16116   4.357   7.799  10.624  1.8775  0.2258 -0.1078
  861MOL0     N16117   4.290   7.927  10.603  0.0797  0.6548 -0.2796
  861MOL0     C16118   4.206   8.007  10.686 -0.4903  0.5860  0.5265
  861MOL0     C16119   4.166   8.111  10.597  0.6467  0.4347  0.6519
  861MOL0     C16120   4.050   8.205  10.627 -1.0953 -0.2737  0.8498
  861MOL0     C16121   3.923   8.138  10.666 -0.0105  0.4585  0.8503
  861MOL0     C16122   3.810   8.232  10.728 -0.3288 -0.2277  0.1987
  861MOL0     C16123   3.672   8.167  10.750  0.5127 -0.4454 -0.5831
  861MOL0     O16124   3.687   8.085  10.861  0.0764 -0.0250  0.0853
  861MOL0     C16125   3.575   8.022  10.911  0.3890 -0.3317  0.5318
  861MOL0     C16126   3.455   8.022  10.840  0.0736 -0.0335  0.9998
  861MOL0     C16127   3.350   7.948  10.899 -0.3738 -0.3359 -0.3898
  861MOL0     C16128   3.362   7.882  11.022  0.0416  1.0240 -0.1722
  861MOL0     C16129   3.240   7.800  11.064  0.4842 -0.0749  0.1059
  861MOL0     O16130   3.261   7.726  11.181  0.3912  0.2104  0.1200
  861MOL0     C16131   3.163   7.627  11.196 -0.5308  0.8739  0.1968
  861MOL0     C16132   3.055   7.652  11.286 -0.9224  0.6500  0.9967
  861MOL0     C16133   2.954   7.545  11.300  0.1079  0.6202 -0.2783
  861MOL0     C16134   2.966   7.413  11.238  0.2128 -0.5154 -1.3015
  861MOL0     O16135   2.880   7.311  11.255 -0.2683 -0.0382 -0.2715
  861MOL0     C16136   2.746   7.347  11.243 -0.1463  0.7136  0.7476
  861MOL0     C16137   2.664   7.223  11.186  0.5341  0.4179 -0.8248
  861MOL0     C16138   2.607   7.134  11.299 -0.5146 -0.4424 -0.2370
  861MOL0     C16139   2.523   7.195  11.417  0.0410  0.4151  0.5235
  861MOL0     C16140   2.454   7.083  11.492 -0.4342  0.0810  0.5699
  861MOL0     C16141   2.363   7.160  11.583  0.3115  0.5151  0.2501
  861MOL0     C16142   2.245   7.072  11.627  0.0297  0.0045  0.7289
  861MOL0     C16143   2.163   7.137  11.735 -0.1724  0.1483  0.0773
  861MOL0    Cl16144   2.253   7.199  11.867 -0.3615  0.0660  0.2821
  861MOL0     C16145   3.085   7.394  11.173  0.2012 -0.6104  0.4989
  861MOL0     C16146   3.176   7.498  11.143  0.5909  1.0789 -0.7205
  861MOL0     O16147   3.140   7.793  10.995 -0.1381  0.7774 -0.4230
  861MOL0     C16148   3.480   7.888  11.088 -0.0043  0.3806 -0.7438
  861MOL0     C16149   3.589   7.959  11.040  0.0024 -0.1814 -0.5222
  861MOL0     N16150   4.227   8.092  10.474 -0.1974 -1.1872 -0.3987
  861MOL0     N16151   4.301   7.990  10.479 -0.1367  0.2424 -0.3171
  861MOL0     C16152   4.591   7.341  11.092  0.5146 -0.1673 -0.3802
  861MOL0     C16153   4.524   7.221  11.082 -0.3147  1.0382  0.4576
  861MOL0     C16154   4.291   6.849  11.164  0.0912  0.4902  0.3981
  861MOL0     C16155   4.329   6.745  11.076 -0.2249 -0.5939  1.0152
  861MOL0     C16156   4.263   6.626  11.059 -1.0014  0.6730  0.0918
  861MOL0     C16157   4.163   6.582  11.142 -0.5781 -0.4632 -0.1222
  861MOL0     O16158   4.102   6.456  11.126 -0.1698 -0.6370  0.4411
  861MOL0     C16159   3.989   6.421  11.193  0.1217  0.1232 -0.0125
  861MOL0     C16160   3.948   6.292  11.124  0.0654 -0.5348  0.3444
  861MOL0     C16161   3.822   6.235  11.189 -0.7211  0.3380  0.2043
  861MOL0     C16162   3.830   6.168  11.323 -0.8108  0.0247 -0.5557
  861MOL0     C16163   3.701   6.160  11.392  0.8353 -0.5276 -0.1336
  861MOL0     C16164   3.596   6.156  11.461 -0.3908  0.4121 -0.0429
  861MOL0     C16165   4.116   6.685  11.235  0.0572  0.4939 -0.5431
  861MOL0     C16166   4.178   6.812  11.251 -0.4665 -1.2104  0.2183
  861MOL0     C16167   4.108   6.903  11.348  0.2044  0.0736 -0.6708
  861MOL0     H16168   4.725   6.998  11.217  0.3166 -0.0305 -2.1381
  861MOL0     H16169   4.869   7.211  11.243 -0.0213 -1.8727  1.4855
  861MOL0     H16170   4.956   7.438  11.055 -0.5997 -0.8939 -2.4197
  861MOL0     H16171   4.813   7.474  10.964  2.7580 -1.5026 -1.6418
  861MOL0     H16172   4.992   7.663  11.022  0.3654 -3.3186  0.0879
  861MOL0     H16173   4.920   7.664  11.185 -2.5305  1.7363  0.8183
  861MOL0     H16174   4.819   7.839  11.062 -0.8129 -0.0762 -2.3530
  861MOL0     H16175   4.708   7.719  11.136 -0.4234 -0.7227  0.6336
  861MOL0     H16176   4.799   7.744  10.843  0.5975 -0.4222  1.1417
  861MOL0     H16177   4.668   7.640  10.910  2.6301 -1.1521  0.1339
  861MOL0     H16178   4.557   7.882  10.984  1.6749  1.2283  0.8562
  861MOL0     H16179   4.693   7.958  10.924 -1.8350  0.5954  0.6237
  861MOL0     H16180   4.504   7.998  10.782  3.2139  0.4408  1.5926
  861MOL0     H16181   4.607   7.890  10.688  0.6926 -0.9576 -0.5090
  861MOL0     H16182   4.347   7.811  10.851 -2.0024 -2.0828 -1.6889
  861MOL0     H16183   4.469   7.705  10.791  2.1141 -0.0819 -1.3127
  861MOL0     H16184   4.418   7.774  10.537 -1.6996  0.7747 -3.0377
  861MOL0     H16185   4.272   7.730  10.617  0.9833  1.3994 -1.0428
  861MOL0     H16186   4.169   7.972  10.781  4.6155 -2.3036  1.8042
  861MOL0     H16187   4.085   8.280  10.699  0.0128 -2.4511  2.6913
  861MOL0     H16188   4.025   8.253  10.532 -1.1480 -2.0620 -0.0603
  861MOL0     H16189   3.878   8.076  10.588  1.1581  0.8701 -0.1826
  861MOL0     H16190   3.943   8.070  10.748 -0.2385 -0.8309 -0.1313
  861MOL0     H16191   3.809   8.329  10.676  1.7594  0.8585  2.0182
  861MOL0     H16192   3.846   8.249  10.829 -0.2523 -1.6538  0.4244
  861MOL0     H16193   3.637   8.121  10.657 -0.3501 -0.0020 -0.4910
  861MOL0     H16194   3.598   8.243  10.776  1.4840  0.4351 -0.3297
  861MOL0     H16195   3.430   8.067  10.745  1.5901  1.7394  1.3881
  861MOL0     H16196   3.255   7.949  10.845  0.1433  1.0239 -1.3485
  861MOL0     H16197   3.059   7.745  11.342  0.9581  1.9417 -1.1107
  861MOL0     H16198   2.871   7.555  11.369 -0.5189 -1.1444 -0.6974
  861MOL0     H16199   2.718   7.379  11.344  1.3747  2.8698  0.5602
  861MOL0     H16200   2.734   7.429  11.172 -3.2931  0.2679  0.6230
  861MOL0     H16201   2.576   7.256  11.130 -0.6877 -2.4477 -0.7849
  861MOL0     H16202   2.723   7.161  11.117  0.3966 -0.4520 -0.1711
  861MOL0     H16203   2.544   7.063  11.245 -1.9436 -2.1597  3.3978
  861MOL0     H16204   2.689   7.077  11.343 -0.3799 -1.2300 -1.4534
  861MOL0     H16205   2.454   7.261  11.363  2.4940  0.7334 -2.4721
  861MOL0     H16206   2.585   7.250  11.488 -0.9207  1.0080  0.9196
  861MOL0     H16207   2.533   7.032  11.548 -0.1521  1.4219  1.4494
  861MOL0     H16208   2.409   7.019  11.416 -0.5553 -0.0877  0.7850
  861MOL0     H16209   2.421   7.181  11.674  0.7071  0.8522 -0.0764
  861MOL0     H16210   2.337   7.259  11.546  3.2429  0.3840 -2.5717
  861MOL0     H16211   2.282   6.974  11.659 -2.3934 -1.5947 -1.0223
  861MOL0     H16212   2.183   7.065  11.537 -1.7667  1.6932  1.7494
  861MOL0     H16213   2.132   7.231  11.688  2.2103  1.3650  0.7553
  861MOL0     H16214   2.087   7.070  11.775 -0.6193  1.3670  1.3640
  861MOL0     H16215   3.101   7.298  11.124 -1.4053 -1.3213  1.2639
  861MOL0     H16216   3.268   7.470  11.092  0.9505 -0.6004  0.7662
  861MOL0     H16217   3.490   7.840  11.185  3.3461  0.8034 -0.7751
  861MOL0     H16218   3.686   7.958  11.088 -0.3372 -0.1150  0.1779
  861MOL0     H16219   4.553   7.427  11.037 -0.5925 -1.7158 -2.1390
  861MOL0     H16220   4.432   7.216  11.025  1.0745 -1.2577 -1.8109
  861MOL0     H16221   4.400   6.784  11.005 -0.9023 -3.1186 -1.1826
  861MOL0     H16222   4.309   6.556  10.990 -1.0167 -1.7778  2.3818
  861MOL0     H16223   3.911   6.498  11.183 -1.1423 -1.2035 -0.7654
  861MOL0     H16224   4.018   6.401  11.297  0.7246  0.4887 -0.1090
  861MOL0     H16225   4.031   6.220  11.120 -0.1644 -0.7703 -0.1969
  861MOL0     H16226   3.923   6.321  11.022 -0.8112  1.1533  1.0111
  861MOL0     H16227   3.776   6.165  11.119 -0.1962  1.5899 -1.4543
  861MOL0     H16228   3.740   6.307  11.198 -0.6522  0.3462  0.7725
  861MOL0     H16229   3.874   6.068  11.322 -4.4140 -1.7183 -0.4014
  861MOL0     H16230   3.895   6.222  11.392 -0.6124  0.2666 -0.9337
  861MOL0     H16231   3.516   6.130  11.527  1.0627  0.5115  1.8466
  861MOL0     H16232   4.043   6.646  11.305  3.1547 -0.4446  2.4860
  861MOL0     H16233   4.026   6.958  11.300  0.5120  1.2938  0.1452
  861MOL0     H16234   4.062   6.845  11.429 -0.1388  1.9047  0.5080
  861MOL0     H16235   4.173   6.973  11.402  0.3985 -1.0491  0.6080
  862MOL0     O16236   1.446   6.547   3.782  0.5877 -0.2194 -0.3769
  862MOL0     C16237   1.427   6.651   3.716 -0.0263  0.6958  0.2376
  862MOL0     O16238   1.520   6.738   3.669 -0.0746 -0.1658  0.2430
  862MOL0     C16239   1.649   6.730   3.708 -0.3441 -1.0794  0.4856
  862MOL0     C16240   1.743   6.714   3.606  1.3136  0.7553 -0.0194
  862MOL0     C16241   1.881   6.711   3.640 -0.3344 -0.0297  1.1860
  862MOL0     C16242   1.924   6.708   3.777  0.2109  0.0553  0.2439
  862MOL0     O16243   2.055   6.703   3.828  0.4351  0.2557 -0.4510
  862MOL0     C16244   2.151   6.716   3.726  0.2249 -0.3880  0.3029
  862MOL0     C16245   2.292   6.737   3.788  0.4141  0.7853 -0.0135
  862MOL0     C16246   2.348   6.608   3.844  0.0400 -0.3085  0.3474
  862MOL0     C16247   2.496   6.591   3.868  0.0733 -0.0158 -0.3923
  862MOL0     C16248   2.540   6.662   3.994 -0.4905 -0.5366 -0.1423
  862MOL0     C16249   2.689   6.657   4.019 -0.3724  0.5482 -0.2062
  862MOL0     C16250   2.750   6.783   4.084  0.1212  0.4838 -0.7718
  862MOL0     C16251   2.664   6.831   4.203  0.0522  0.7093 -0.7897
  862MOL0     N16252   2.694   6.737   4.322 -0.2989 -0.7989  0.3895
  862MOL0     C16253   2.665   6.605   4.339 -0.4092  0.3763  0.9763
  862MOL0     C16254   2.710   6.574   4.462  0.3528  0.2027 -0.1156
  862MOL0     C16255   2.697   6.443   4.532  0.1523  0.2846  0.4101
  862MOL0     C16256   2.562   6.367   4.524 -0.3422 -0.4399  0.6305
  862MOL0     C16257   2.549   6.256   4.426 -0.4333  0.0105  0.1283
  862MOL0     C16258   2.423   6.162   4.437 -0.1870 -0.6839 -0.5564
  862MOL0     O16259   2.429   6.053   4.350  0.3473  0.1782 -0.3824
  862MOL0     C16260   2.328   5.963   4.343 -0.6929  0.2928  0.5911
  862MOL0     C16261   2.348   5.861   4.249  0.4402 -0.1822  1.1412
  862MOL0     C16262   2.247   5.776   4.208 -0.4813  0.2132  0.7966
  862MOL0     C16263   2.123   5.775   4.269  0.4797  0.1350 -0.2880
  862MOL0     C16264   2.009   5.689   4.235  0.5695  0.3217 -0.4331
  862MOL0     O16265   1.880   5.708   4.281  0.6226 -0.1817  0.6248
  862MOL0     C16266   1.787   5.608   4.280 -0.2021  0.2694  0.0986
  862MOL0     C16267   1.691   5.621   4.180 -0.1854 -0.1272  0.5583
  862MOL0     C16268   1.595   5.517   4.163  0.3967 -0.1571  0.8367
  862MOL0     C16269   1.595   5.398   4.248  0.5191 -0.7340  0.7856
  862MOL0     O16270   1.503   5.300   4.227  0.0338 -0.3429  0.4263
  862MOL0     C16271   1.494   5.192   4.318 -0.0797 -1.0475 -0.2625
  862MOL0     C16272   1.374   5.104   4.269 -0.3240  0.2656 -0.2864
  862MOL0     C16273   1.418   4.989   4.175  0.0456 -0.1120 -0.9477
  862MOL0     C16274   1.305   4.903   4.124 -0.5602 -0.7248  0.0157
  862MOL0     C16275   1.364   4.788   4.038  0.0037 -0.2753  0.1956
  862MOL0     C16276   1.445   4.686   4.120  0.6796  0.3193  0.6445
  862MOL0     C16277   1.508   4.574   4.026 -0.3211 -0.6300 -0.3376
  862MOL0     C16278   1.597   4.616   3.912  0.2181  0.4516  1.1128
  862MOL0    Cl16279   1.500   4.632   3.768  0.3049 -0.1391 -0.2776
  862MOL0     C16280   1.700   5.387   4.343  0.5460 -0.4109 -0.1707
  862MOL0     C16281   1.793   5.488   4.359 -0.0644 -0.3672  0.8064
  862MOL0     O16282   2.043   5.581   4.184 -0.5597 -0.2434  0.2447
  862MOL0     C16283   2.106   5.867   4.376 -0.7034  0.4964  0.5240
  862MOL0     C16284   2.209   5.958   4.410  0.2957  1.0451 -0.3633
  862MOL0     N16285   2.770   6.689   4.514  0.4664 -0.2759 -0.4920
  862MOL0     N16286   2.757   6.785   4.436  0.6866  0.7537 -0.6111
  862MOL0     C16287   1.821   6.721   3.871 -0.7890  0.7543 -0.1861
  862MOL0     C16288   1.692   6.734   3.840  0.1259 -0.2534  0.0908
  862MOL0     C16289   1.288   6.680   3.670 -0.5433  0.3656  0.2917
  862MOL0     C16290   1.246   6.812   3.675 -0.5305 -0.5953  0.0491
  862MOL0     C16291   1.128   6.846   3.601 -1.0178  0.4918  0.4625
  862MOL0     C16292   1.051   6.756   3.535 -0.0368 -0.0640  0.7820
  862MOL0     O16293   0.932   6.785   3.474  0.5922  0.4058 -0.0710
  862MOL0     C16294   0.884   6.917   3.492 -0.6942  0.3088  0.4333
  862MOL0     C16295   0.763   6.917   3.404  0.3342  0.2918 -0.4303
  862MOL0     C16296   0.781   6.921   3.244  0.1556  0.7339  0.3849
  862MOL0     C16297   0.837   7.049   3.177  0.6335 -1.1372  0.2095
  862MOL0     C16298   0.977   7.073   3.203 -0.3199 -0.4051  1.1526
  862MOL0     C16299   1.097   7.089   3.222 -0.2277  0.2581 -0.1105
  862MOL0     C16300   1.085   6.625   3.552 -0.5928  0.6282 -0.3785
  862MOL0     C16301   1.203   6.583   3.609 -0.4505 -0.3723 -0.2251
  862MOL0     C16302   1.240   6.442   3.587 -0.4040 -0.7414  0.1937
  862MOL0     H16303   1.715   6.721   3.502  3.6696  0.0291 -0.7668
  862MOL0     H16304   1.949   6.711   3.555 -1.3803  1.0811  0.2916
  862MOL0     H16305   2.145   6.630   3.659 -0.5906 -1.1908  1.3563
  862MOL0     H16306   2.132   6.811   3.677  0.6946 -1.4577 -2.0958
  862MOL0     H16307   2.303   6.813   3.866  4.1785  3.2228 -2.5825
  862MOL0     H16308   2.362   6.773   3.712 -0.6763  0.8868 -1.0002
  862MOL0     H16309   2.323   6.531   3.770  0.5305 -0.0996 -0.0423
  862MOL0     H16310   2.292   6.586   3.936  2.4381 -1.2082  1.6874
  862MOL0     H16311   2.512   6.483   3.870 -0.8947 -0.1669 -0.5625
  862MOL0     H16312   2.552   6.628   3.781 -0.4933 -1.7785 -1.5489
  862MOL0     H16313   2.504   6.765   3.992  0.0878 -0.2823  1.3468
  862MOL0     H16314   2.494   6.620   4.084  1.6375  2.4845  2.5721
  862MOL0     H16315   2.717   6.569   4.078 -1.8777 -0.1003 -0.4299
  862MOL0     H16316   2.733   6.625   3.923 -2.8192  1.1088 -1.5943
  862MOL0     H16317   2.761   6.871   4.020  0.9974  1.2534  0.3936
  862MOL0     H16318   2.848   6.759   4.127  0.1158 -0.8352 -1.4513
  862MOL0     H16319   2.697   6.933   4.223 -0.2373  0.6624 -0.0106
  862MOL0     H16320   2.556   6.840   4.184  0.3721 -0.3142 -3.5491
  862MOL0     H16321   2.620   6.532   4.272  1.1546 -0.3758  0.7169
  862MOL0     H16322   2.780   6.377   4.506  0.1050  0.5057 -0.3279
  862MOL0     H16323   2.714   6.478   4.634  1.1331  2.5973 -0.4693
  862MOL0     H16324   2.541   6.321   4.621 -2.1750  1.4787  1.2257
  862MOL0     H16325   2.490   6.435   4.477  2.9642  2.2710 -0.9526
  862MOL0     H16326   2.636   6.191   4.444  0.2890  0.9403  0.0633
  862MOL0     H16327   2.567   6.295   4.326  2.0330 -2.3408 -0.4797
  862MOL0     H16328   2.337   6.228   4.421 -0.1765  1.1031  4.6192
  862MOL0     H16329   2.415   6.143   4.545  3.2370  2.4320  0.4566
  862MOL0     H16330   2.433   5.864   4.181  0.4387  0.2745  1.1573
  862MOL0     H16331   2.262   5.689   4.145  0.7517 -1.0392  2.7317
  862MOL0     H16332   1.674   5.708   4.118 -2.1217 -1.5860 -1.1335
  862MOL0     H16333   1.514   5.525   4.091  1.6464 -1.4354 -0.8014
  862MOL0     H16334   1.583   5.129   4.323  0.1614 -0.6954 -0.0743
  862MOL0     H16335   1.470   5.241   4.413  1.2014 -0.7663 -0.0598
  862MOL0     H16336   1.323   5.060   4.355 -1.0172 -2.2983 -1.8936
  862MOL0     H16337   1.293   5.155   4.215 -0.3612 -0.9572 -1.4387
  862MOL0     H16338   1.471   5.027   4.087  0.9536 -0.5079 -0.5823
  862MOL0     H16339   1.491   4.932   4.233  0.0384  0.9676  0.1493
  862MOL0     H16340   1.237   4.954   4.056  1.9371  0.4488 -1.7514
  862MOL0     H16341   1.255   4.861   4.212 -0.9216  1.6829  1.0545
  862MOL0     H16342   1.433   4.823   3.960  0.1558  1.5532  1.0838
  862MOL0     H16343   1.286   4.729   3.990 -0.4418  1.7486 -1.7345
  862MOL0     H16344   1.522   4.735   4.179  1.0497  0.0857  0.3569
  862MOL0     H16345   1.378   4.631   4.187  2.5673 -1.6891  0.9794
  862MOL0     H16346   1.431   4.501   3.999 -1.3036  0.6884 -1.2800
  862MOL0     H16347   1.574   4.530   4.101  3.7413  0.9376 -2.6900
  862MOL0     H16348   1.646   4.713   3.925 -0.4207  0.9522 -0.1061
  862MOL0     H16349   1.666   4.534   3.887 -1.6080 -1.0719  0.8575
  862MOL0     H16350   1.712   5.301   4.407  0.5536 -1.4809 -1.5611
  862MOL0     H16351   1.877   5.468   4.425  2.2849 -0.3502 -1.9887
  862MOL0     H16352   2.007   5.867   4.420 -2.4929 -1.8153 -3.0529
  862MOL0     H16353   2.190   6.035   4.485  0.3174 -0.2407  1.0231
  862MOL0     H16354   1.857   6.721   3.974  2.0661  0.1319 -1.0991
  862MOL0     H16355   1.614   6.751   3.913  0.6862  0.1993  0.5915
  862MOL0     H16356   1.314   6.874   3.733  0.5034  0.8999 -2.5778
  862MOL0     H16357   1.101   6.951   3.603 -0.3756  0.7296 -1.4980
  862MOL0     H16358   0.958   6.992   3.464 -1.7851  1.0852 -0.4393
  862MOL0     H16359   0.857   6.929   3.597 -1.4281 -0.2114  0.3075
  862MOL0     H16360   0.705   7.006   3.431  2.8935  2.8472 -2.6157
  862MOL0     H16361   0.703   6.830   3.433 -0.0682  0.9593  0.8038
  862MOL0     H16362   0.680   6.903   3.206  0.3962 -2.2357  0.9236
  862MOL0     H16363   0.837   6.833   3.212 -1.7786 -0.5995  0.4742
  862MOL0     H16364   0.818   7.048   3.070  0.5536 -1.0796  0.2225
  862MOL0     H16365   0.779   7.132   3.220 -1.2637 -2.2391 -0.1179
  862MOL0     H16366   1.203   7.104   3.233  0.0406 -1.7140  0.4219
  862MOL0     H16367   1.025   6.540   3.520  2.8964 -2.5761  0.7464
  862MOL0     H16368   1.348   6.423   3.588 -0.3790 -0.7451 -1.2321
  862MOL0     H16369   1.198   6.368   3.656 -0.7214 -2.5601 -1.8508
  862MOL0     H16370   1.216   6.422   3.482 -2.8440  0.5180  0.4426
  863MOL0     O16371   1.513   6.756   7.593  0.1471  0.1598 -0.5444
  863MOL0     C16372   1.572   6.863   7.569  0.4279 -0.1068  0.5246
  863MOL0     O16373   1.696   6.892   7.607  1.2386 -0.8867 -0.3938
  863MOL0     C16374   1.759   6.816   7.703  0.9618  0.0167 -0.1579
  863MOL0     C16375   1.703   6.798   7.827  0.5765  0.7315 -0.4424
  863MOL0     C16376   1.760   6.731   7.934 -0.4722 -1.0835 -0.5459
  863MOL0     C16377   1.890   6.679   7.918  1.2115  0.0544 -0.0326
  863MOL0     O16378   1.935   6.607   8.021 -0.6961 -0.1239 -0.5896
  863MOL0     C16379   2.060   6.542   8.003  0.2867  0.7885 -0.4179
  863MOL0     C16380   2.047   6.423   7.903 -0.4614 -1.0968  0.2579
  863MOL0     C16381   2.164   6.325   7.935 -0.2000 -0.3868  0.3826
  863MOL0     C16382   2.124   6.188   7.881  0.0001  0.6158  0.3464
  863MOL0     C16383   2.222   6.069   7.893 -0.1432  0.3212  0.2922
  863MOL0     C16384   2.142   5.940   7.837 -0.0780  0.6999 -0.2038
  863MOL0     C16385   2.224   5.808   7.836  0.0477  0.6544 -0.8764
  863MOL0     C16386   2.159   5.701   7.751 -0.3039  0.5191  0.5026
  863MOL0     N16387   2.164   5.712   7.602  0.1392 -1.0781  0.1774
  863MOL0     C16388   2.282   5.698   7.521  0.2439  0.9202 -0.1901
  863MOL0     C16389   2.225   5.715   7.394 -1.4926 -0.9014  0.3393
  863MOL0     C16390   2.313   5.696   7.266  0.0821 -0.2510 -0.6119
  863MOL0     C16391   2.276   5.790   7.156 -1.1341  1.1313  0.4300
  863MOL0     C16392   2.388   5.873   7.108 -0.0380  0.9618  1.3354
  863MOL0     C16393   2.348   5.953   6.980 -1.1075  1.0874 -0.0513
  863MOL0     O16394   2.457   5.937   6.883 -0.0549  0.6732 -0.2423
  863MOL0     C16395   2.456   5.998   6.758  0.0666 -0.1859 -0.3972
  863MOL0     C16396   2.562   5.969   6.674 -1.2031  1.0396 -0.3123
  863MOL0     C16397   2.573   6.026   6.545  0.0047  0.0261  0.2006
  863MOL0     C16398   2.470   6.119   6.503 -0.5386 -0.3473  0.3014
  863MOL0     C16399   2.463   6.190   6.363  0.2225 -0.7223 -0.1327
  863MOL0     O16400   2.346   6.251   6.330 -0.1173 -0.9117  0.0753
  863MOL0     C16401   2.335   6.305   6.201  0.1741  0.8506 -0.7314
  863MOL0     C16402   2.207   6.272   6.142 -0.0497 -0.2664  1.0496
  863MOL0     C16403   2.191   6.309   6.005  0.4183  0.0454 -0.1863
  863MOL0     C16404   2.294   6.364   5.935  0.6495  0.0783 -0.1449
  863MOL0     O16405   2.273   6.393   5.804  0.2780  0.1424  0.3582
  863MOL0     C16406   2.226   6.530   5.790  0.3852 -0.2235 -0.3598
  863MOL0     C16407   2.287   6.586   5.668 -0.2484  0.6593 -0.1462
  863MOL0     C16408   2.448   6.558   5.640  0.7532 -1.1928 -0.1286
  863MOL0     C16409   2.513   6.635   5.526 -0.6703  0.1830  0.0644
  863MOL0     C16410   2.646   6.575   5.485  0.1357 -0.6165  0.3456
  863MOL0     C16411   2.702   6.659   5.368 -0.8093 -1.0882 -0.2822
  863MOL0     C16412   2.845   6.620   5.339 -0.3535 -0.2535 -0.4728
  863MOL0     C16413   2.941   6.724   5.401  0.1591 -0.3926  0.2109
  863MOL0    Cl16414   2.944   6.728   5.585  0.1622 -0.3292  0.0042
  863MOL0     C16415   2.420   6.391   5.993 -0.4571 -1.3513  0.1586
  863MOL0     C16416   2.439   6.362   6.126  0.3077 -0.7276 -1.1312
  863MOL0     O16417   2.562   6.170   6.295 -0.0602 -0.5961  0.2782
  863MOL0     C16418   2.369   6.147   6.591  0.6055  0.5343 -0.7884
  863MOL0     C16419   2.355   6.084   6.722 -0.1040 -0.1071  0.0922
  863MOL0     N16420   2.092   5.743   7.399 -0.2154  0.6197  0.4176
  863MOL0     N16421   2.057   5.729   7.524  0.0382  0.1764  0.4060
  863MOL0     C16422   1.960   6.695   7.796  1.0088 -0.5200 -0.3784
  863MOL0     C16423   1.892   6.780   7.699  0.8188 -0.8299  0.1407
  863MOL0     C16424   1.510   6.953   7.472  0.6154  0.1814  0.2873
  863MOL0     C16425   1.573   7.082   7.459 -0.1318  0.3590  0.1023
  863MOL0     C16426   1.504   7.183   7.397 -0.7708 -0.0952  0.8798
  863MOL0     C16427   1.381   7.167   7.331  0.2520 -0.8803 -0.2675
  863MOL0     O16428   1.312   7.260   7.265  0.5041  0.6962 -0.1337
  863MOL0     C16429   1.366   7.303   7.143 -0.9496  0.0615 -0.5020
  863MOL0     C16430   1.405   7.454   7.136  0.8923  0.0506  0.0870
  863MOL0     C16431   1.283   7.550   7.151  0.3205  0.2505 -0.2160
  863MOL0     C16432   1.315   7.697   7.138  0.5191  0.2812 -0.4482
  863MOL0     C16433   1.306   7.741   6.996  0.4512 -0.2864 -0.3416
  863MOL0     C16434   1.297   7.762   6.873  0.1228  0.2506 -0.5078
  863MOL0     C16435   1.316   7.041   7.335 -0.6535 -0.3644  0.9596
  863MOL0     C16436   1.374   6.939   7.412 -1.1764 -0.7948 -1.6893
  863MOL0     C16437   1.301   6.812   7.409 -0.4805  0.5448 -0.0087
  863MOL0     H16438   1.602   6.828   7.853  0.1582 -2.2572  2.0047
  863MOL0     H16439   1.715   6.709   8.030 -0.7468  0.6358 -0.2488
  863MOL0     H16440   2.143   6.610   7.980 -1.5265  4.1133  1.8599
  863MOL0     H16441   2.081   6.515   8.107 -1.3879 -0.2911 -0.3134
  863MOL0     H16442   2.050   6.449   7.797  2.8214  0.6250  0.6282
  863MOL0     H16443   1.951   6.376   7.923 -0.5804 -0.7454  0.5244
  863MOL0     H16444   2.182   6.324   8.043  1.1617  0.5008  0.1867
  863MOL0     H16445   2.251   6.367   7.883  0.7053  0.7937  2.6908
  863MOL0     H16446   2.035   6.163   7.939  0.6100 -1.0192  0.6348
  863MOL0     H16447   2.094   6.194   7.776 -1.5661 -0.9148  0.6709
  863MOL0     H16448   2.313   6.069   7.832  0.3128 -0.4554  0.9693
  863MOL0     H16449   2.247   6.048   7.997 -3.0165  0.9457  1.2020
  863MOL0     H16450   2.038   5.944   7.870 -1.8273  1.8218 -4.9782
  863MOL0     H16451   2.139   5.961   7.729  2.2005  0.2006 -0.4169
  863MOL0     H16452   2.235   5.770   7.938 -1.5285 -1.3464 -1.3911
  863MOL0     H16453   2.319   5.824   7.784  1.4386 -1.1333  0.9898
  863MOL0     H16454   2.209   5.607   7.777  3.4636  2.2767  0.2616
  863MOL0     H16455   2.056   5.695   7.787 -0.7563 -0.0965 -0.8350
  863MOL0     H16456   2.387   5.683   7.543 -0.5452 -0.9709  2.8844
  863MOL0     H16457   2.418   5.710   7.295  1.5212 -2.6016 -4.0584
  863MOL0     H16458   2.299   5.595   7.225 -0.2676  0.6619 -2.8516
  863MOL0     H16459   2.241   5.734   7.069  0.1185  2.3391 -0.9119
  863MOL0     H16460   2.189   5.848   7.187 -2.4727 -0.0008 -1.0815
  863MOL0     H16461   2.476   5.813   7.083 -0.6152  1.6499 -3.3670
  863MOL0     H16462   2.417   5.951   7.178 -0.1074  1.1159  1.1910
  863MOL0     H16463   2.330   6.060   6.993  0.1033  1.2915  0.0474
  863MOL0     H16464   2.257   5.912   6.935 -0.4274 -0.1985 -0.2953
  863MOL0     H16465   2.622   5.880   6.692 -1.5402  0.7505 -0.6010
  863MOL0     H16466   2.639   5.980   6.472  0.9012 -2.7973  2.6308
  863MOL0     H16467   2.129   6.220   6.198 -0.2294 -0.6617  0.4376
  863MOL0     H16468   2.099   6.283   5.955  1.0846  0.6494 -1.7777
  863MOL0     H16469   2.117   6.538   5.791  0.4770  1.4150  0.6760
  863MOL0     H16470   2.244   6.586   5.882 -2.4255 -1.4697  1.0560
  863MOL0     H16471   2.227   6.555   5.582 -2.1818  1.8224  0.7255
  863MOL0     H16472   2.273   6.694   5.681 -1.9286  0.5667 -0.9226
  863MOL0     H16473   2.501   6.585   5.731 -1.2181  1.0346  0.4359
  863MOL0     H16474   2.456   6.451   5.615 -1.3616 -0.8961 -2.5340
  863MOL0     H16475   2.541   6.736   5.556  1.2022  0.6855 -2.9987
  863MOL0     H16476   2.440   6.633   5.445 -1.4652 -0.8072  0.7712
  863MOL0     H16477   2.622   6.471   5.459  0.8679 -0.5603 -0.6249
  863MOL0     H16478   2.704   6.597   5.575 -0.9729  2.1106  0.4811
  863MOL0     H16479   2.633   6.641   5.286 -2.4322  1.1618  0.5059
  863MOL0     H16480   2.692   6.765   5.394 -2.4898 -1.3268  0.1409
  863MOL0     H16481   2.864   6.617   5.231 -0.6067  0.3150 -0.5404
  863MOL0     H16482   2.870   6.523   5.382 -0.8749 -1.4457 -2.7312
  863MOL0     H16483   3.043   6.697   5.372 -1.2275 -2.5109 -3.2511
  863MOL0     H16484   2.929   6.823   5.356 -2.2684 -0.7417 -0.0249
  863MOL0     H16485   2.494   6.438   5.928 -2.3810  1.3393 -0.2319
  863MOL0     H16486   2.534   6.393   6.169 -2.2992  1.7580  3.5669
  863MOL0     H16487   2.297   6.221   6.559  0.7591 -0.4769 -3.7318
  863MOL0     H16488   2.276   6.114   6.790 -1.6970  0.3590 -1.8965
  863MOL0     H16489   2.063   6.665   7.778  0.4811 -2.7445  0.1043
  863MOL0     H16490   1.947   6.809   7.610  3.4633 -0.8633  1.6545
  863MOL0     H16491   1.656   7.112   7.523 -2.3350  0.7844  2.9417
  863MOL0     H16492   1.543   7.284   7.409  2.3376 -1.0056 -0.7423
  863MOL0     H16493   1.293   7.282   7.063 -3.5346 -0.7917  1.9117
  863MOL0     H16494   1.464   7.259   7.125  0.5593  3.6940 -2.2193
  863MOL0     H16495   1.457   7.484   7.045  3.1257 -1.2372  0.8457
  863MOL0     H16496   1.476   7.465   7.219 -0.0769  0.6869  0.8491
  863MOL0     H16497   1.226   7.537   7.243  2.0178 -1.3506  0.6792
  863MOL0     H16498   1.213   7.522   7.072  2.0493 -1.2681 -1.3028
  863MOL0     H16499   1.233   7.746   7.190  0.4834 -2.2202  2.1110
  863MOL0     H16500   1.406   7.734   7.187 -0.3919 -0.1636  1.6705
  863MOL0     H16501   1.275   7.781   6.770  1.2090 -4.1925 -1.7571
  863MOL0     H16502   1.229   7.031   7.271 -0.0608 -1.0943  0.2466
  863MOL0     H16503   1.273   6.789   7.512  1.3314 -3.8869 -0.3077
  863MOL0     H16504   1.212   6.819   7.345 -1.1423 -0.2295  0.8086
  863MOL0     H16505   1.365   6.733   7.369  0.7203  0.8744  1.1835
  864MOL0     O16506   1.717   9.615   0.879 -0.1131  0.0280 -0.2021
  864MOL0     C16507   1.802   9.662   0.961  0.0861 -0.0260  0.4558
  864MOL0     O16508   1.934   9.689   0.936  0.3060  0.0003 -0.0469
  864MOL0     C16509   1.981   9.678   0.808  0.4830 -0.2400 -1.0973
  864MOL0     C16510   2.046   9.784   0.745 -0.0775 -0.8029  0.0518
  864MOL0     C16511   2.109   9.775   0.616  0.0452 -0.4288 -0.6563
  864MOL0     C16512   2.098   9.658   0.541 -0.4154  0.2266  0.3176
  864MOL0     O16513   2.139   9.645   0.407 -0.4098  0.4429  0.0635
  864MOL0     C16514   2.171   9.767   0.325  0.8729  0.0596 -0.5464
  864MOL0     C16515   2.322   9.769   0.298  0.0149 -0.4917  0.0501
  864MOL0     C16516   2.376   9.657   0.213 -0.0205 -0.2353 -0.3691
  864MOL0     C16517   2.301   9.648   0.078 -0.5707  0.3434  0.3966
  864MOL0     C16518   2.374   9.545  -0.011 -0.3837 -0.3406  0.3944
  864MOL0     C16519   2.331   9.577  -0.165  0.1196  0.0593  0.8469
  864MOL0     C16520   2.430   9.682  -0.214 -0.4898  0.4448 -0.3866
  864MOL0     C16521   2.412   9.702  -0.367 -0.1044 -0.1376 -0.1938
  864MOL0     N16522   2.501   9.816  -0.409  0.3229 -0.2155 -0.1779
  864MOL0     C16523   2.465   9.950  -0.417  0.0292  0.4071 -0.0185
  864MOL0     C16524   2.559  10.011  -0.487 -0.1687  0.6530 -1.1321
  864MOL0     C16525   2.557  10.165  -0.505 -0.3241 -0.9890 -0.3526
  864MOL0     C16526   2.698  10.223  -0.470 -0.2817 -0.7250  0.3461
  864MOL0     C16527   2.692  10.270  -0.321 -0.0348 -0.3342 -0.5961
  864MOL0     C16528   2.821  10.321  -0.264  0.4408 -0.6900 -0.1511
  864MOL0     O16529   2.919  10.226  -0.301 -0.0227  1.1205 -1.1829
  864MOL0     C16530   3.053  10.228  -0.264 -0.2250  0.5766 -0.1093
  864MOL0     C16531   3.154  10.125  -0.314  0.0458  1.1138  0.3230
  864MOL0     C16532   3.287  10.119  -0.272  0.6012 -0.1448 -0.4054
  864MOL0     C16533   3.334  10.215  -0.177  0.1678 -0.6505  1.0123
  864MOL0     C16534   3.471  10.196  -0.120  0.2450  0.0319 -0.7471
  864MOL0     O16535   3.559  10.155  -0.213 -0.7408  0.4686 -0.2924
  864MOL0     C16536   3.694  10.184  -0.188 -0.6455  0.6408 -0.0736
  864MOL0     C16537   3.771  10.123  -0.087 -0.3641  0.7940 -0.2085
  864MOL0     C16538   3.913  10.129  -0.088 -0.3671  0.6773 -0.5369
  864MOL0     C16539   3.978  10.226  -0.165  0.5858  0.1119  0.4049
  864MOL0     O16540   4.116  10.248  -0.168 -0.7812  0.2234  0.0667
  864MOL0     C16541   4.208  10.165  -0.111 -0.6091  0.0460  0.2896
  864MOL0     C16542   4.226  10.200   0.035  0.3419  0.4610 -0.8471
  864MOL0     C16543   4.305  10.093   0.109  0.3571  0.3622 -1.0523
  864MOL0     C16544   4.454  10.113   0.095 -0.1165 -0.1122 -0.0350
  864MOL0     C16545   4.531   9.999   0.179 -0.6085  0.4562  0.3262
  864MOL0     C16546   4.680  10.018   0.147 -0.9298  0.5370 -0.7685
  864MOL0     C16547   4.767   9.909   0.220  0.8164 -0.0726  0.1420
  864MOL0     C16548   4.801   9.948   0.363  0.1067  1.0599  0.4437
  864MOL0    Cl16549   4.916   9.813   0.425 -0.0966  0.4844 -0.2975
  864MOL0     C16550   3.903  10.297  -0.257  0.4625 -0.1898 -0.0911
  864MOL0     C16551   3.761  10.269  -0.282 -0.1764 -0.3838  0.2772
  864MOL0     O16552   3.496  10.243  -0.007 -0.4690 -0.1831  0.4606
  864MOL0     C16553   3.240  10.316  -0.144 -0.2146  0.4010 -0.8090
  864MOL0     C16554   3.102  10.320  -0.174 -0.1589  1.1615  0.4319
  864MOL0     N16555   2.661   9.923  -0.515  0.9588  0.5903  0.3114
  864MOL0     N16556   2.620   9.809  -0.471 -0.2638  0.6284  0.0202
  864MOL0     C16557   2.034   9.550   0.608 -0.0064  0.5859  0.0103
  864MOL0     C16558   1.988   9.557   0.740 -0.9110 -0.2167  0.1516
  864MOL0     C16559   1.755   9.711   1.093  0.3552  0.6658  0.4270
  864MOL0     C16560   1.851   9.775   1.180  0.5138 -0.0580 -0.8430
  864MOL0     C16561   1.812   9.821   1.303  1.0060 -0.2082  0.5958
  864MOL0     C16562   1.679   9.805   1.339  0.2589 -0.1732 -0.0366
  864MOL0     O16563   1.654   9.862   1.461  0.4762 -0.4898  0.7127
  864MOL0     C16564   1.520   9.856   1.510  0.2856  0.8250  0.1712
  864MOL0     C16565   1.512   9.928   1.640 -0.1209 -0.3227  0.4905
  864MOL0     C16566   1.608   9.877   1.747  0.0216  0.1929 -0.2150
  864MOL0     C16567   1.590   9.940   1.876  0.3423  0.1430 -0.6288
  864MOL0     C16568   1.701   9.931   1.964 -0.4523  0.7327  0.4641
  864MOL0     C16569   1.777   9.889   2.053 -0.8249 -0.7391  1.2073
  864MOL0     C16570   1.589   9.741   1.263 -0.2596  0.3948  0.0951
  864MOL0     C16571   1.624   9.700   1.138  0.3306  0.0868  0.0751
  864MOL0     C16572   1.503   9.632   1.057 -1.4811  0.1120  0.3392
  864MOL0     H16573   2.064   9.879   0.793  4.4139  0.7750 -3.9477
  864MOL0     H16574   2.163   9.862   0.580  0.4687 -0.2244  0.4327
  864MOL0     H16575   2.105   9.777   0.238 -1.4288  0.6769  1.1731
  864MOL0     H16576   2.134   9.853   0.382 -0.4300 -1.2864  0.7378
  864MOL0     H16577   2.363   9.764   0.399 -0.4542  1.4524  0.3586
  864MOL0     H16578   2.362   9.865   0.264  1.1197  0.1278  2.8196
  864MOL0     H16579   2.374   9.563   0.269 -0.5162  0.0895  0.1641
  864MOL0     H16580   2.481   9.680   0.193 -0.4663  0.6714 -1.8043
  864MOL0     H16581   2.196   9.619   0.088  0.0997 -3.2828 -1.2564
  864MOL0     H16582   2.302   9.747   0.031 -1.1573  0.2918  0.2660
  864MOL0     H16583   2.481   9.547   0.012 -0.1935  1.6719 -0.4815
  864MOL0     H16584   2.353   9.441   0.016 -0.1033 -0.4934  0.0436
  864MOL0     H16585   2.339   9.484  -0.221  3.6512  0.8003 -0.1153
  864MOL0     H16586   2.228   9.612  -0.171 -0.5769 -1.9964 -0.2891
  864MOL0     H16587   2.537   9.664  -0.201  0.2389  1.5430 -3.8457
  864MOL0     H16588   2.420   9.777  -0.160  3.9830  0.9115  0.0100
  864MOL0     H16589   2.429   9.613  -0.428 -4.1552 -0.2243 -1.4648
  864MOL0     H16590   2.308   9.729  -0.388  0.3955  0.8503 -1.5826
  864MOL0     H16591   2.376   9.996  -0.376  0.3827  2.1046 -1.0788
  864MOL0     H16592   2.542  10.197  -0.608  0.7847 -0.4522 -0.3706
  864MOL0     H16593   2.482  10.211  -0.441  1.1713 -3.0142  3.1555
  864MOL0     H16594   2.790  10.169  -0.496  1.6417  1.7315  1.6973
  864MOL0     H16595   2.708  10.312  -0.532  0.8429 -1.0544  0.0278
  864MOL0     H16596   2.666  10.179  -0.266 -1.6516 -1.7373 -3.4863
  864MOL0     H16597   2.615  10.348  -0.314  0.8363  0.3842  2.2147
  864MOL0     H16598   2.802  10.321  -0.156 -0.3157 -5.2183 -0.0698
  864MOL0     H16599   2.833  10.421  -0.305  0.3994  0.1795  1.8230
  864MOL0     H16600   3.099  10.059  -0.380 -0.8365  2.3628 -0.2397
  864MOL0     H16601   3.356  10.039  -0.298  0.5667 -0.3969  0.2691
  864MOL0     H16602   3.722  10.059  -0.014 -1.1592  1.9542  0.3122
  864MOL0     H16603   3.972  10.061  -0.027 -0.9702 -0.6655 -1.4032
  864MOL0     H16604   4.191  10.058  -0.121 -0.0809  0.0405 -0.6913
  864MOL0     H16605   4.301  10.178  -0.169 -2.4697  1.9054 -2.5627
  864MOL0     H16606   4.276  10.297   0.043 -1.0255  1.0577  1.2206
  864MOL0     H16607   4.126  10.210   0.077  0.2287  1.3234 -1.2870
  864MOL0     H16608   4.268  10.075   0.211  0.2001  1.4387 -0.9070
  864MOL0     H16609   4.280  10.001   0.055 -1.2612  1.2004 -1.8171
  864MOL0     H16610   4.479  10.214   0.128  2.7915 -0.5547 -0.6106
  864MOL0     H16611   4.486  10.122  -0.009 -1.1481  1.0038 -0.2733
  864MOL0     H16612   4.499   9.898   0.152 -0.7631  0.5905  0.0047
  864MOL0     H16613   4.521  10.009   0.288 -0.3168 -0.4678  0.4496
  864MOL0     H16614   4.687  10.018   0.038  0.1106 -1.3101 -0.7462
  864MOL0     H16615   4.712  10.112   0.193  0.9298 -1.8642  3.4467
  864MOL0     H16616   4.852   9.890   0.154 -0.0442  0.2012 -1.0725
  864MOL0     H16617   4.710   9.816   0.230  1.9781 -1.7093 -5.3723
  864MOL0     H16618   4.856  10.042   0.354 -0.8021  1.7473  1.7269
  864MOL0     H16619   4.718   9.941   0.434 -1.0562  1.8824 -0.7807
  864MOL0     H16620   3.960  10.373  -0.309  0.5059 -1.1709 -1.5489
  864MOL0     H16621   3.691  10.314  -0.352 -0.9052  0.7822  1.7007
  864MOL0     H16622   3.274  10.389  -0.071 -1.5168  1.6341 -1.4090
  864MOL0     H16623   3.033  10.395  -0.138  0.2978  2.8571 -1.9720
  864MOL0     H16624   2.031   9.459   0.548  0.4756  1.7878 -1.9306
  864MOL0     H16625   1.940   9.471   0.787 -2.0004  1.0659  1.5099
  864MOL0     H16626   1.957   9.779   1.156  0.3820  2.4495 -1.2752
  864MOL0     H16627   1.879   9.865   1.377  0.3133  3.5339 -0.7893
  864MOL0     H16628   1.491   9.752   1.528  3.1444  0.3352  2.6859
  864MOL0     H16629   1.446   9.914   1.454  3.0292  5.3703  0.6945
  864MOL0     H16630   1.410   9.914   1.675  0.0875  0.1773  1.3093
  864MOL0     H16631   1.535  10.032   1.614 -2.9368  0.2451 -0.0734
  864MOL0     H16632   1.709   9.873   1.704  0.2429 -1.0876  0.3588
  864MOL0     H16633   1.586   9.770   1.761 -1.9643  0.4173 -1.2529
  864MOL0     H16634   1.571  10.048   1.880  0.8660  0.2276 -0.2535
  864MOL0     H16635   1.501   9.891   1.915  2.6386 -0.9591  3.9917
  864MOL0     H16636   1.824   9.833   2.131  1.8410 -1.8799 -1.0395
  864MOL0     H16637   1.491   9.721   1.305 -0.4953  0.8708 -0.2187
  864MOL0     H16638   1.405   9.644   1.103 -1.1799  0.0712  1.0029
  864MOL0     H16639   1.487   9.678   0.958  0.5228 -0.3594 -0.2497
  864MOL0     H16640   1.537   9.530   1.039  1.1575  0.7130  1.4828
  865MOL0     O16641   4.476   8.306   5.363 -0.3354  0.1934  0.3203
  865MOL0     C16642   4.581   8.297   5.427 -0.2913 -0.2553 -1.4239
  865MOL0     O16643   4.593   8.331   5.559  0.6334 -0.1453  0.0412
  865MOL0     C16644   4.489   8.365   5.638  0.2436 -0.6113 -0.0646
  865MOL0     C16645   4.510   8.478   5.719  0.3064  0.0236 -0.2826
  865MOL0     C16646   4.411   8.527   5.800  0.7290 -0.9365 -0.2224
  865MOL0     C16647   4.282   8.467   5.815 -0.6733  0.4243 -0.4737
  865MOL0     O16648   4.184   8.521   5.902  0.0918 -0.5335  0.2035
  865MOL0     C16649   4.102   8.422   5.966 -0.2045 -0.5965  0.7588
  865MOL0     C16650   4.015   8.498   6.067 -0.2391  0.1730  1.7740
  865MOL0     C16651   3.904   8.401   6.122  0.0704 -0.5377  0.5276
  865MOL0     C16652   3.943   8.281   6.209 -0.9799 -0.0312  0.2485
  865MOL0     C16653   3.855   8.156   6.193 -0.3092  1.0138 -1.0691
  865MOL0     C16654   3.711   8.184   6.252 -0.3821  0.2257  0.1961
  865MOL0     C16655   3.628   8.059   6.262 -0.8555  0.3831 -0.5388
  865MOL0     C16656   3.473   8.074   6.302 -0.1520 -0.3551 -0.0383
  865MOL0     N16657   3.458   8.084   6.443 -0.1668  1.2318 -0.4625
  865MOL0     C16658   3.439   7.970   6.532 -0.3923 -0.1601  0.2659
  865MOL0     C16659   3.435   8.029   6.658  0.8679  1.1148  0.5244
  865MOL0     C16660   3.402   7.947   6.780 -0.0806 -0.7742 -0.6971
  865MOL0     C16661   3.271   7.868   6.762  0.3337 -0.3430  0.8078
  865MOL0     C16662   3.156   7.958   6.734  0.6064 -0.5173  0.0913
  865MOL0     C16663   3.137   8.079   6.831 -0.2648  0.2075  0.5826
  865MOL0     O16664   3.126   8.045   6.964  0.3358 -0.3071 -0.2091
  865MOL0     C16665   3.143   8.152   7.053  0.2774 -0.2204  1.2055
  865MOL0     C16666   3.213   8.131   7.163 -0.5784  0.0628  0.9703
  865MOL0     C16667   3.234   8.224   7.264 -0.5183  0.3817  0.0818
  865MOL0     C16668   3.174   8.355   7.252  0.7636  0.0362  1.2016
  865MOL0     C16669   3.187   8.455   7.352  0.1048  0.7801  0.2551
  865MOL0     O16670   3.102   8.554   7.341  0.0923  0.2651  0.1162
  865MOL0     C16671   3.117   8.656   7.425 -0.0879 -0.8575 -0.4605
  865MOL0     C16672   3.068   8.645   7.555 -1.0324  0.5661 -0.0465
  865MOL0     C16673   3.069   8.761   7.633  0.5572  0.8030  1.0873
  865MOL0     C16674   3.113   8.882   7.590 -1.2363 -1.0148 -0.3673
  865MOL0     O16675   3.120   8.978   7.683 -0.5717 -0.2441  0.4618
  865MOL0     C16676   3.107   9.112   7.634 -0.1140 -0.4746 -0.5704
  865MOL0     C16677   3.066   9.188   7.757  0.3567 -0.6148  0.0984
  865MOL0     C16678   3.169   9.185   7.862  0.4222 -0.7788 -0.1844
  865MOL0     C16679   3.147   9.300   7.963 -0.1924 -0.9421  0.7174
  865MOL0     C16680   3.248   9.305   8.085 -0.7761  0.1417 -0.1329
  865MOL0     C16681   3.245   9.425   8.170 -0.1126 -0.5799  0.0827
  865MOL0     C16682   3.281   9.567   8.110  0.0116 -0.3427  0.6900
  865MOL0     C16683   3.424   9.558   8.049  0.5005  0.4034  0.1825
  865MOL0    Cl16684   3.554   9.511   8.169  0.4039 -0.3564  0.4643
  865MOL0     C16685   3.158   8.894   7.454  0.5947 -0.4075 -0.1378
  865MOL0     C16686   3.160   8.780   7.371 -0.7507 -0.1562 -0.2234
  865MOL0     O16687   3.267   8.432   7.442 -0.2728  0.4110 -0.3107
  865MOL0     C16688   3.110   8.385   7.122  0.2066 -0.3592 -0.1718
  865MOL0     C16689   3.089   8.278   7.038 -0.1139  0.2925  0.4825
  865MOL0     N16690   3.443   8.161   6.646 -0.0068 -0.1927  0.4858
  865MOL0     N16691   3.461   8.196   6.523  0.0766  0.1289  0.5710
  865MOL0     C16692   4.263   8.348   5.736  0.1163  0.3888  0.2610
  865MOL0     C16693   4.367   8.301   5.650  0.2315  0.1672 -0.9657
  865MOL0     C16694   4.700   8.234   5.356  0.4320 -0.6775 -0.0047
  865MOL0     C16695   4.668   8.116   5.279 -0.3339  0.1824 -0.9752
  865MOL0     C16696   4.771   8.048   5.205  0.4036 -0.1345  0.2457
  865MOL0     C16697   4.901   8.105   5.203  0.3621  0.3061  0.0948
  865MOL0     O16698   5.008   8.058   5.143  0.6000 -0.2307  0.3337
  865MOL0     C16699   5.004   7.935   5.081  0.8317  0.7054  0.0526
  865MOL0     C16700   5.140   7.918   5.013 -0.4477 -0.1437  0.2380
  865MOL0     C16701   5.248   7.884   5.129 -0.4303 -0.0803  1.0234
  865MOL0     C16702   5.391   7.905   5.086 -0.2168  0.8902  0.4961
  865MOL0     C16703   5.435   7.786   5.010 -0.0929  0.3162  0.4219
  865MOL0     C16704   5.484   7.687   4.964  0.9114  0.9003  0.0344
  865MOL0     C16705   4.920   8.214   5.285 -0.2551  0.5064 -0.3025
  865MOL0     C16706   4.828   8.284   5.364  0.0040  0.4192 -0.0033
  865MOL0     C16707   4.862   8.406   5.443  0.1928 -0.4598  0.5582
  865MOL0     H16708   4.599   8.538   5.703  0.5803 -0.4399 -0.5253
  865MOL0     H16709   4.422   8.629   5.836 -0.8815  0.0714 -2.3635
  865MOL0     H16710   4.045   8.367   5.890 -0.4227  2.5392 -1.5762
  865MOL0     H16711   4.166   8.347   6.011  1.6996  0.6429  0.2428
  865MOL0     H16712   3.963   8.586   6.029 -0.5515 -1.2358 -1.3817
  865MOL0     H16713   4.085   8.529   6.145  0.7014 -0.0943  1.0446
  865MOL0     H16714   3.838   8.372   6.040 -2.7756 -0.5440  2.6778
  865MOL0     H16715   3.845   8.472   6.181 -1.7979 -1.1723 -0.5217
  865MOL0     H16716   4.047   8.251   6.193 -0.9061 -0.1914  0.9696
  865MOL0     H16717   3.947   8.319   6.311  3.5691  1.1410 -0.1676
  865MOL0     H16718   3.862   8.135   6.086 -0.3769 -1.6531 -0.6158
  865MOL0     H16719   3.889   8.068   6.249 -1.8170  2.9786  3.3734
  865MOL0     H16720   3.709   8.240   6.346  3.5280  2.0153 -0.5731
  865MOL0     H16721   3.669   8.254   6.179 -1.4618 -1.5507 -0.9530
  865MOL0     H16722   3.670   7.987   6.333  1.2671  0.5627 -1.5372
  865MOL0     H16723   3.637   8.009   6.166 -0.8439 -0.5281 -0.0699
  865MOL0     H16724   3.422   8.151   6.243  4.8044  4.3398  0.9612
  865MOL0     H16725   3.419   7.982   6.279  0.4050 -0.0669 -2.9562
  865MOL0     H16726   3.418   7.869   6.498 -1.0279 -0.1094  0.4944
  865MOL0     H16727   3.480   7.871   6.796  0.7020  0.1305 -0.1633
  865MOL0     H16728   3.411   8.018   6.862  3.1489 -0.4991 -1.1365
  865MOL0     H16729   3.295   7.798   6.681  1.6322 -0.9166  1.6510
  865MOL0     H16730   3.268   7.810   6.855  0.1635  1.0709  1.7103
  865MOL0     H16731   3.060   7.907   6.724  0.8248 -0.7324 -1.1223
  865MOL0     H16732   3.165   8.001   6.633 -0.4299  0.7242  0.5017
  865MOL0     H16733   3.050   8.136   6.797 -0.7666 -0.4082  0.8100
  865MOL0     H16734   3.224   8.141   6.806  0.7187 -1.5526 -0.6040
  865MOL0     H16735   3.256   8.031   7.174 -2.2507 -0.9983 -1.4063
  865MOL0     H16736   3.293   8.184   7.346  0.5476  0.9037 -0.4148
  865MOL0     H16737   3.036   8.549   7.596  2.2981 -0.5695  0.2179
  865MOL0     H16738   3.035   8.750   7.736  1.4077  0.9353  1.3859
  865MOL0     H16739   3.199   9.142   7.582  0.3328 -1.3485 -0.3118
  865MOL0     H16740   3.017   9.122   7.572 -0.1135  1.6019 -0.3182
  865MOL0     H16741   3.047   9.292   7.727 -0.4189 -1.1962 -1.5424
  865MOL0     H16742   2.968   9.155   7.793 -0.8258  0.9685 -1.4750
  865MOL0     H16743   3.164   9.089   7.912  0.1902 -2.5177 -3.2786
  865MOL0     H16744   3.270   9.190   7.821 -0.3980  0.2803 -2.2364
  865MOL0     H16745   3.044   9.294   7.999 -1.1409 -0.1836 -1.6665
  865MOL0     H16746   3.161   9.399   7.918  0.6990 -0.7654  1.3591
  865MOL0     H16747   3.350   9.293   8.046 -0.7431  3.4029 -1.3208
  865MOL0     H16748   3.214   9.232   8.159 -2.6277  1.6137  0.5552
  865MOL0     H16749   3.145   9.435   8.215  0.4641  0.4792  1.1885
  865MOL0     H16750   3.310   9.399   8.254 -0.6725 -1.8871  0.1353
  865MOL0     H16751   3.277   9.646   8.186 -2.5835  0.6862 -0.4157
  865MOL0     H16752   3.199   9.582   8.039  0.3913  2.5344  0.7077
  865MOL0     H16753   3.423   9.479   7.973  1.6005 -2.4969  2.9356
  865MOL0     H16754   3.459   9.649   8.000 -1.6853  1.0483 -0.2851
  865MOL0     H16755   3.192   8.996   7.440 -4.3002  1.9505  2.6771
  865MOL0     H16756   3.165   8.786   7.262 -6.5045 -3.6139 -1.1226
  865MOL0     H16757   3.078   8.487   7.100  4.1468  1.0924 -0.0101
  865MOL0     H16758   3.022   8.304   6.958 -3.7327 -0.4127  3.0282
  865MOL0     H16759   4.181   8.277   5.730 -0.2922  0.9121 -0.4484
  865MOL0     H16760   4.350   8.216   5.584  1.7270 -0.3081 -0.7811
  865MOL0     H16761   4.569   8.071   5.270  0.6693 -2.5303  0.4732
  865MOL0     H16762   4.734   7.964   5.147  0.9962  0.1802 -0.6139
  865MOL0     H16763   4.920   7.920   5.013 -2.1142  0.2115  3.4645
  865MOL0     H16764   4.979   7.853   5.150 -2.6440 -0.3562 -2.2068
  865MOL0     H16765   5.157   8.015   4.966 -1.6695  0.0952  0.2574
  865MOL0     H16766   5.143   7.845   4.932  0.2562  0.9698 -0.7640
  865MOL0     H16767   5.222   7.781   5.154 -0.7351 -0.1982  0.2635
  865MOL0     H16768   5.240   7.941   5.222  0.1922 -0.6167  1.4115
  865MOL0     H16769   5.391   7.990   5.017 -0.2130 -0.0815 -0.7446
  865MOL0     H16770   5.463   7.924   5.166  1.0008  2.9282 -0.9924
  865MOL0     H16771   5.517   7.599   4.912  0.7915  2.2560 -2.4742
  865MOL0     H16772   5.025   8.242   5.289 -0.8748  3.2151 -0.8725
  865MOL0     H16773   4.878   8.378   5.548  2.5399 -0.6243  0.2075
  865MOL0     H16774   4.953   8.455   5.406 -2.2251  3.2913 -1.0307
  865MOL0     H16775   4.780   8.478   5.438  2.6858  2.4757 -2.9405
  866MOL0     O16776   5.030   0.425   4.273 -0.2045 -0.5006 -0.1497
  866MOL0     C16777   5.011   0.318   4.333  0.0954  0.1658 -0.0285
  866MOL0     O16778   5.077   0.279   4.449  0.0941 -0.0249 -0.0463
  866MOL0     C16779   5.171   0.361   4.491 -0.9029 -0.7235  0.3316
  866MOL0     C16780   5.289   0.370   4.426 -0.7101 -0.4779 -0.7715
  866MOL0     C16781   5.390   0.460   4.463  0.6899  0.3207  0.5407
  866MOL0     C16782   5.390   0.531   4.586 -0.3661  0.4769 -0.6257
  866MOL0     O16783   5.506   0.591   4.630  0.2783  0.0328 -0.5465
  866MOL0     C16784   5.565   0.539   4.746  0.0248  0.2764 -0.3433
  866MOL0     C16785   5.705   0.603   4.764  0.2893 -0.0561  0.0228
  866MOL0     C16786   5.678   0.739   4.830 -0.1496 -0.0845 -0.8885
  866MOL0     C16787   5.810   0.820   4.819  1.0227  0.9175  0.3428
  866MOL0     C16788   5.802   0.959   4.876  0.8443  0.0866  0.4777
  866MOL0     C16789   5.946   1.013   4.904  1.2218 -0.4340  0.1752
  866MOL0     C16790   6.031   1.057   4.779 -0.4725  0.0497 -0.1577
  866MOL0     C16791   6.180   1.073   4.819  0.3339  0.1148  0.6554
  866MOL0     N16792   6.263   1.167   4.737  0.0876 -0.2641  0.0706
  866MOL0     C16793   6.233   1.282   4.678  0.0832  0.0272  0.0116
  866MOL0     C16794   6.340   1.329   4.609  0.0631  0.1289  0.6177
  866MOL0     C16795   6.371   1.453   4.529  0.7902 -0.2134  0.0104
  866MOL0     C16796   6.427   1.569   4.627  0.1943  1.1774 -0.0834
  866MOL0     C16797   6.508   1.677   4.553 -0.8205 -0.4745 -0.5380
  866MOL0     C16798   6.569   1.784   4.653 -0.2354  0.4358  0.1948
  866MOL0     O16799   6.680   1.853   4.596 -0.0009  0.3752 -0.5670
  866MOL0     C16800   6.756   1.935   4.672  1.0417  0.6415 -0.8911
  866MOL0     C16801   6.721   2.000   4.792 -0.4745  0.2037 -0.0652
  866MOL0     C16802   6.809   2.074   4.871  0.4063  0.7378 -0.1956
  866MOL0     C16803   6.943   2.090   4.824  1.2001 -0.1042  0.6521
  866MOL0     C16804   7.041   2.179   4.894 -0.2877  0.1733  0.1625
  866MOL0     O16805   7.166   2.192   4.840 -0.1232  0.0107 -0.4472
  866MOL0     C16806   7.259   2.271   4.908 -0.2003  0.2985 -0.9358
  866MOL0     C16807   7.389   2.223   4.923 -0.1061  0.0783  0.6394
  866MOL0     C16808   7.481   2.314   4.973  0.2899  0.4734 -0.9781
  866MOL0     C16809   7.459   2.447   5.011 -0.3499 -0.7032 -0.0153
  866MOL0     O16810   7.576   2.509   5.057 -0.2875 -0.5548 -0.4993
  866MOL0     C16811   7.555   2.610   5.163  0.5831 -0.0207  0.2775
  866MOL0     C16812   7.648   2.728   5.131 -0.6941 -0.1217  0.2828
  866MOL0     C16813   7.801   2.707   5.161 -0.1336 -0.1821  0.3195
  866MOL0     C16814   7.866   2.842   5.118  0.3906 -0.1659 -0.4029
  866MOL0     C16815   8.026   2.831   5.128  1.7204 -0.5857  0.0453
  866MOL0     C16816   8.083   2.974   5.068  0.0366 -0.6260 -1.0255
  866MOL0     C16817   8.233   2.969   5.056  0.9030  1.0684  0.6345
  866MOL0     C16818   8.281   3.085   4.974  0.7263  0.6633 -0.3790
  866MOL0    Cl16819   8.271   3.239   5.055  0.4489  0.3973  0.0378
  866MOL0     C16820   7.334   2.503   4.995 -0.1161 -0.0121  0.3619
  866MOL0     C16821   7.241   2.412   4.947 -0.4677  0.9925 -0.0155
  866MOL0     O16822   7.007   2.243   4.995  0.6145 -0.5440  0.2399
  866MOL0     C16823   6.975   2.036   4.709 -1.0009  0.7610 -0.6728
  866MOL0     C16824   6.885   1.953   4.634 -0.4363 -0.1256 -1.9075
  866MOL0     N16825   6.440   1.245   4.639 -0.2963 -0.3837 -0.9378
  866MOL0     N16826   6.401   1.154   4.719  0.9670 -0.2349  0.3198
  866MOL0     C16827   5.270   0.519   4.660 -0.2993 -0.0680  0.5259
  866MOL0     C16828   5.161   0.438   4.612  0.0236  0.3230 -0.2028
  866MOL0     C16829   4.903   0.232   4.281  0.7355 -0.3077  0.9817
  866MOL0     C16830   4.916   0.102   4.318 -0.6007  1.0640  0.6340
  866MOL0     C16831   4.838  -0.001   4.266 -0.2916 -0.5586 -0.6834
  866MOL0     C16832   4.734   0.020   4.182 -1.0926 -0.8583  0.8691
  866MOL0     O16833   4.660  -0.080   4.140  0.1149  0.3760  0.0109
  866MOL0     C16834   4.533  -0.048   4.105 -0.2679 -0.8243  0.1749
  866MOL0     C16835   4.445  -0.169   4.093 -0.6058 -0.1237  0.1146
  866MOL0     C16836   4.417  -0.250   4.219  0.0899 -1.6130  0.2692
  866MOL0     C16837   4.344  -0.379   4.180  0.4179 -0.6691 -0.0207
  866MOL0     C16838   4.340  -0.472   4.291  0.4940  0.0128  0.2431
  866MOL0     C16839   4.342  -0.532   4.400  0.1985 -0.6139 -0.4857
  866MOL0     C16840   4.714   0.158   4.142 -0.3195 -0.0053  1.0653
  866MOL0     C16841   4.794   0.267   4.195  0.0909  0.2084  0.3732
  866MOL0     C16842   4.755   0.410   4.157  0.5583  0.9049 -0.7038
  866MOL0     H16843   5.301   0.321   4.330  1.4458 -1.8137  0.1035
  866MOL0     H16844   5.485   0.465   4.410  1.1337 -0.5621  1.2249
  866MOL0     H16845   5.500   0.548   4.833  0.7124 -0.8518  0.3121
  866MOL0     H16846   5.588   0.433   4.730 -0.8245  0.0026  0.2019
  866MOL0     H16847   5.751   0.624   4.667 -1.1722 -0.8198 -0.8729
  866MOL0     H16848   5.765   0.531   4.821 -2.3447 -1.4335  1.2416
  866MOL0     H16849   5.656   0.736   4.937 -0.4916 -0.0247 -0.9567
  866MOL0     H16850   5.595   0.782   4.772  0.5687  1.5440 -0.7818
  866MOL0     H16851   5.895   0.763   4.858  0.6956  2.2293  3.2305
  866MOL0     H16852   5.826   0.837   4.712  0.4549  0.5711  0.1962
  866MOL0     H16853   5.747   1.022   4.805 -2.6281  0.6110  3.3510
  866MOL0     H16854   5.755   0.949   4.974  3.4514 -1.8196  1.6574
  866MOL0     H16855   5.946   1.105   4.965 -0.1182  0.0524 -0.5242
  866MOL0     H16856   5.995   0.940   4.970 -2.4109 -0.8531  2.6604
  866MOL0     H16857   6.001   1.162   4.773  2.3048  1.1028  1.9880
  866MOL0     H16858   6.008   1.002   4.687 -2.8084 -0.8874  0.9200
  866MOL0     H16859   6.175   1.125   4.916 -5.5280 -0.6496  1.1229
  866MOL0     H16860   6.232   0.977   4.818  1.3733  0.6351 -1.3666
  866MOL0     H16861   6.132   1.319   4.662 -0.5789 -1.3948  0.7369
  866MOL0     H16862   6.445   1.435   4.450 -0.6893 -0.8025 -1.3092
  866MOL0     H16863   6.281   1.485   4.476  2.1880  1.7835 -1.3292
  866MOL0     H16864   6.343   1.600   4.689  0.0248  3.1084 -1.2029
  866MOL0     H16865   6.508   1.519   4.682 -0.4117 -0.1494 -0.3428
  866MOL0     H16866   6.450   1.720   4.471 -0.7131 -0.6785 -0.7246
  866MOL0     H16867   6.598   1.633   4.509  0.6801  2.1600 -0.3065
  866MOL0     H16868   6.610   1.734   4.742 -0.5790  3.0725  1.9616
  866MOL0     H16869   6.489   1.851   4.688  0.0697  0.9310 -0.0371
  866MOL0     H16870   6.615   2.001   4.812 -0.1217  0.1937  2.0492
  866MOL0     H16871   6.777   2.133   4.956  1.9969  0.9797  0.2826
  866MOL0     H16872   7.422   2.123   4.896  1.4628  0.2158  1.8794
  866MOL0     H16873   7.580   2.281   5.003  1.1598 -0.2939 -4.2854
  866MOL0     H16874   7.452   2.646   5.171  0.1471 -1.2216  0.2536
  866MOL0     H16875   7.591   2.579   5.261  2.7117 -4.4124 -1.5910
  866MOL0     H16876   7.628   2.769   5.031  1.1016  0.7154  0.2346
  866MOL0     H16877   7.615   2.803   5.203 -2.9402 -1.3112  0.6033
  866MOL0     H16878   7.829   2.682   5.263 -2.3261 -2.1807  0.5216
  866MOL0     H16879   7.846   2.627   5.102  0.3772 -1.1068  1.9275
  866MOL0     H16880   7.832   2.926   5.180  0.5909  1.1243 -1.9655
  866MOL0     H16881   7.842   2.879   5.018  2.5186  0.2040 -0.8313
  866MOL0     H16882   8.072   2.754   5.066  4.6350 -0.6465  2.0999
  866MOL0     H16883   8.049   2.816   5.234 -0.1802  2.7070  1.1110
  866MOL0     H16884   8.035   3.007   4.976 -2.6207  3.9469  1.6209
  866MOL0     H16885   8.052   3.050   5.140 -1.5744 -1.2757 -0.9706
  866MOL0     H16886   8.258   2.880   4.997 -3.6980  0.8459 -1.3361
  866MOL0     H16887   8.289   2.962   5.150  0.9263 -2.0535  0.5132
  866MOL0     H16888   8.386   3.066   4.952  0.4563  0.2008 -1.3429
  866MOL0     H16889   8.231   3.092   4.876  0.6362  0.9807 -0.3108
  866MOL0     H16890   7.305   2.605   5.016  0.6929  0.5576 -1.1739
  866MOL0     H16891   7.142   2.451   4.923 -0.6823 -0.1048 -1.0017
  866MOL0     H16892   7.070   2.033   4.658 -0.6373 -0.4382  0.0158
  866MOL0     H16893   6.922   1.893   4.552  0.1920  2.3989 -3.6156
  866MOL0     H16894   5.269   0.587   4.745 -2.0909  0.4170  0.1595
  866MOL0     H16895   5.060   0.438   4.652  0.0197  1.3004 -0.1771
  866MOL0     H16896   4.997   0.073   4.384  1.5509 -1.7080 -2.8383
  866MOL0     H16897   4.857  -0.106   4.290  1.2334 -0.2834 -0.5986
  866MOL0     H16898   4.544  -0.001   4.006  0.3501  0.1072  0.6732
  866MOL0     H16899   4.485   0.021   4.175  1.3685  0.1798  0.3567
  866MOL0     H16900   4.499  -0.229   4.019  3.0547  2.0738  0.7395
  866MOL0     H16901   4.346  -0.147   4.052 -0.7937  1.8781  1.4858
  866MOL0     H16902   4.348  -0.188   4.277  2.9094  4.2248 -1.8746
  866MOL0     H16903   4.513  -0.276   4.265  1.9202 -3.2424 -3.9937
  866MOL0     H16904   4.240  -0.354   4.155  0.9233 -0.0960 -1.6396
  866MOL0     H16905   4.390  -0.424   4.092 -0.4456 -2.1405  0.2391
  866MOL0     H16906   4.350  -0.587   4.492 -0.2581 -1.5958 -1.0169
  866MOL0     H16907   4.646   0.184   4.061  3.2582  0.9323 -1.9220
  866MOL0     H16908   4.770   0.467   4.249  0.9690 -0.6638  0.2313
  866MOL0     H16909   4.821   0.444   4.077  0.9095 -1.2493 -1.3831
  866MOL0     H16910   4.648   0.414   4.134 -0.6926 -0.5650  3.7577
  867MOL0     O16911   5.895  10.879   3.735 -0.1320  0.5327 -0.3002
  867MOL0     C16912   5.963  10.881   3.834 -0.5080  0.2948 -0.4762
  867MOL0     O16913   5.924  10.858   3.966  0.1735  0.0465 -0.3927
  867MOL0     C16914   5.789  10.835   3.985  0.7372 -0.9480 -1.1019
  867MOL0     C16915   5.746  10.708   4.031  0.4535 -0.2761 -1.0873
  867MOL0     C16916   5.624  10.660   4.015  0.4797  0.2290 -0.1604
  867MOL0     C16917   5.517  10.750   3.981 -0.7607 -0.4309  0.0279
  867MOL0     O16918   5.388  10.718   3.963  0.1313 -0.5795  0.9010
  867MOL0     C16919   5.330  10.589   3.956 -0.2221  0.2380 -1.2488
  867MOL0     C16920   5.223  10.573   4.068  0.7465 -0.9784  0.7646
  867MOL0     C16921   5.083  10.646   4.033  0.3501  0.0981  0.0091
  867MOL0     C16922   4.999  10.635   4.161 -0.3618  0.3091 -0.0958
  867MOL0     C16923   4.885  10.731   4.172  0.3428 -0.0197 -0.3696
  867MOL0     C16924   4.811  10.711   4.301  0.2475  0.9978 -0.3954
  867MOL0     C16925   4.750  10.840   4.361 -0.3935  0.1113 -0.1377
  867MOL0     C16926   4.662  10.930   4.284  0.3414 -0.1707 -0.1043
  867MOL0     N16927   4.708  10.984   4.151 -0.4220  0.4539  0.6064
  867MOL0     C16928   4.787  11.080   4.128  0.5602 -0.4404  0.2278
  867MOL0     C16929   4.787  11.112   3.994  0.7684 -0.2999  0.2787
  867MOL0     C16930   4.885  11.214   3.926  0.6696 -0.6119  0.3980
  867MOL0     C16931   5.008  11.144   3.874 -0.5507 -0.1900 -0.0596
  867MOL0     C16932   5.107  11.097   3.985  0.0828 -0.7995  0.0822
  867MOL0     C16933   5.152  11.213   4.090  1.0084  1.0208 -0.0859
  867MOL0     O16934   5.274  11.173   4.144 -0.5155 -0.2919 -0.6406
  867MOL0     C16935   5.350  11.268   4.203  0.1810  0.0101 -0.4919
  867MOL0     C16936   5.495  11.250   4.206  0.0790  0.4586  0.2985
  867MOL0     C16937   5.580  11.346   4.268 -0.1603  0.0187  0.0742
  867MOL0     C16938   5.523  11.461   4.326 -0.4838  0.1587  0.0991
  867MOL0     C16939   5.609  11.563   4.387  0.0892  0.4494  0.7498
  867MOL0     O16940   5.749  11.550   4.367 -0.7599  0.5761 -0.1773
  867MOL0     C16941   5.832  11.644   4.426  0.3060 -0.1823  0.5092
  867MOL0     C16942   5.812  11.777   4.400 -0.4460 -0.0294  0.8583
  867MOL0     C16943   5.888  11.879   4.448 -0.4790 -0.0587  0.4816
  867MOL0     C16944   5.985  11.857   4.541  0.3605  0.6706  0.0683
  867MOL0     O16945   6.052  11.958   4.597 -0.7785  0.4733 -0.0383
  867MOL0     C16946   6.044  12.086   4.529 -0.2175  0.3527 -0.7775
  867MOL0     C16947   6.155  12.171   4.581 -0.7394 -0.0694 -0.3168
  867MOL0     C16948   6.163  12.305   4.513  0.1757 -0.9144 -1.1553
  867MOL0     C16949   6.216  12.283   4.370  0.1343 -0.2115 -0.2208
  867MOL0     C16950   6.271  12.404   4.301  0.9214 -0.1985  0.1087
  867MOL0     C16951   6.163  12.506   4.261 -0.1391 -0.6374  0.5191
  867MOL0     C16952   6.223  12.650   4.248 -1.4067  0.4747  0.2981
  867MOL0     C16953   6.116  12.762   4.240  0.0343  0.5610  0.2405
  867MOL0    Cl16954   6.022  12.769   4.389 -0.0450  0.2637 -0.6650
  867MOL0     C16955   6.000  11.716   4.586 -0.4019  0.9349  0.4452
  867MOL0     C16956   5.928  11.607   4.524  0.1774  0.4246 -0.5360
  867MOL0     O16957   5.551  11.657   4.455  0.1011  0.1043  0.5806
  867MOL0     C16958   5.385  11.469   4.335  0.9915 -0.7268  0.8442
  867MOL0     C16959   5.298  11.381   4.267 -0.3591  0.2433 -0.1717
  867MOL0     N16960   4.706  11.014   3.935 -0.1677  0.1802 -0.4670
  867MOL0     N16961   4.651  10.942   4.032 -0.4375 -0.3062  0.1684
  867MOL0     C16962   5.553  10.881   3.955  0.4772  0.7229  0.5214
  867MOL0     C16963   5.686  10.927   3.954  0.3283 -0.1662  0.1483
  867MOL0     C16964   6.100  10.939   3.826  1.2810  0.3851  0.2670
  867MOL0     C16965   6.154  11.014   3.934  0.3005 -0.7754  0.1188
  867MOL0     C16966   6.268  11.079   3.941 -0.6011 -0.5477 -0.6696
  867MOL0     C16967   6.345  11.065   3.821 -0.6699 -0.5107 -1.1604
  867MOL0     O16968   6.469  11.122   3.826 -0.3683 -0.1456  0.0641
  867MOL0     C16969   6.479  11.268   3.831  0.0914  0.5603 -0.3185
  867MOL0     C16970   6.370  11.349   3.768 -0.0489 -0.1964  0.4451
  867MOL0     C16971   6.417  11.502   3.754  0.7647  0.4075  0.3237
  867MOL0     C16972   6.394  11.582   3.880  0.8341  0.7457 -0.1580
  867MOL0     C16973   6.455  11.715   3.874 -0.5776  0.8220  0.2398
  867MOL0     C16974   6.532  11.803   3.877  0.4383 -0.2432 -0.4589
  867MOL0     C16975   6.308  10.997   3.712 -0.3705  1.2285  0.0682
  867MOL0     C16976   6.182  10.938   3.704  0.9646 -0.7650  0.0373
  867MOL0     C16977   6.151  10.868   3.586  0.9142 -0.2298  0.0899
  867MOL0     H16978   5.823  10.642   4.069 -0.9771  0.4632  3.9200
  867MOL0     H16979   5.606  10.558   4.047  0.3279 -0.0622 -1.1688
  867MOL0     H16980   5.282  10.577   3.858  0.8720  2.8222 -2.1876
  867MOL0     H16981   5.409  10.515   3.967  1.0060  1.6050 -0.4308
  867MOL0     H16982   5.257  10.618   4.162 -2.7177 -1.5931  2.4913
  867MOL0     H16983   5.195  10.469   4.091 -1.1302  0.0230  3.5840
  867MOL0     H16984   5.016  10.607   3.956 -0.2405 -1.6662  1.3688
  867MOL0     H16985   5.100  10.749   3.999 -0.7747  1.4110  3.0774
  867MOL0     H16986   4.955  10.535   4.171  0.7844 -0.0046  3.7123
  867MOL0     H16987   5.068  10.654   4.244 -0.1977 -0.5447 -0.0243
  867MOL0     H16988   4.937  10.827   4.182  2.3172 -1.2363  3.8561
  867MOL0     H16989   4.816  10.724   4.088 -1.6702  2.7621  0.9099
  867MOL0     H16990   4.739  10.634   4.275  0.5390  1.0154 -1.3135
  867MOL0     H16991   4.879  10.665   4.373  0.9570  1.3677 -0.8004
  867MOL0     H16992   4.825  10.913   4.393 -1.5946  0.8827  1.0399
  867MOL0     H16993   4.691  10.808   4.447 -0.5896 -3.2546 -1.3823
  867MOL0     H16994   4.568  10.874   4.278 -1.1137  1.7117  2.6396
  867MOL0     H16995   4.639  11.016   4.348 -1.5972 -0.8490  0.1866
  867MOL0     H16996   4.852  11.115   4.208  2.7903 -2.6380 -0.4570
  867MOL0     H16997   4.815  11.270   3.862  1.9822 -0.7583 -1.2188
  867MOL0     H16998   4.918  11.286   4.001 -0.6061 -2.7322  3.1675
  867MOL0     H16999   4.983  11.061   3.808  1.2313  1.8748 -3.6165
  867MOL0     H17000   5.070  11.213   3.816  1.1176 -2.0771 -0.6203
  867MOL0     H17001   5.194  11.053   3.936  0.1973 -0.1239 -0.3430
  867MOL0     H17002   5.065  11.010   4.036  1.4891 -0.6755  1.5146
  867MOL0     H17003   5.083  11.207   4.175  0.5779  1.3619 -0.4047
  867MOL0     H17004   5.149  11.315   4.050  0.9004  1.2138  0.4151
  867MOL0     H17005   5.544  11.172   4.149 -3.9994 -1.5255 -0.8329
  867MOL0     H17006   5.684  11.329   4.293  0.1179 -0.2037 -1.1838
  867MOL0     H17007   5.751  11.803   4.315 -0.3122  1.7240  1.2706
  867MOL0     H17008   5.858  11.974   4.404 -2.1303 -1.1224 -0.7884
  867MOL0     H17009   6.063  12.072   4.422 -1.6934 -1.7547 -0.8121
  867MOL0     H17010   5.947  12.132   4.552 -0.1291  0.2397 -0.1597
  867MOL0     H17011   6.149  12.187   4.689  0.9273  0.6482 -0.3000
  867MOL0     H17012   6.255  12.128   4.569 -0.4463 -0.1620  2.0790
  867MOL0     H17013   6.071  12.360   4.496  0.4349 -0.2654 -0.5099
  867MOL0     H17014   6.227  12.373   4.570 -1.1181 -0.6012 -0.0173
  867MOL0     H17015   6.135  12.239   4.311 -1.7847  0.6571  1.6447
  867MOL0     H17016   6.303  12.217   4.366  1.8548  1.9738 -2.7629
  867MOL0     H17017   6.323  12.374   4.210 -1.2036  2.6164 -2.2302
  867MOL0     H17018   6.342  12.456   4.365 -1.1327  0.7205  1.7864
  867MOL0     H17019   6.139  12.466   4.162  2.3606 -0.9258 -0.0329
  867MOL0     H17020   6.073  12.490   4.320 -0.2621  0.3723  0.6314
  867MOL0     H17021   6.282  12.663   4.157 -2.6502  0.4451 -0.5429
  867MOL0     H17022   6.295  12.660   4.329  0.7653 -4.1020 -0.7113
  867MOL0     H17023   6.163  12.860   4.222 -0.4102  0.8928  0.8298
  867MOL0     H17024   6.054  12.737   4.154  0.8496 -2.2944  0.4000
  867MOL0     H17025   6.071  11.712   4.668  0.0390  0.7300  0.0594
  867MOL0     H17026   5.954  11.502   4.540 -0.2729  0.3978  0.0336
  867MOL0     H17027   5.334  11.543   4.396  3.3250  0.4320  1.4876
  867MOL0     H17028   5.191  11.379   4.281 -0.8230  0.6319 -3.0289
  867MOL0     H17029   5.488  10.960   3.917  1.3416  1.0232 -0.4005
  867MOL0     H17030   5.721  11.023   3.915 -2.4895  0.3661 -1.3170
  867MOL0     H17031   6.093  11.015   4.024  1.1147  1.9483  0.7282
  867MOL0     H17032   6.303  11.129   4.031  0.3855 -5.5360  2.1015
  867MOL0     H17033   6.575  11.289   3.781 -0.6481 -0.8244 -2.4576
  867MOL0     H17034   6.481  11.292   3.937 -3.3049  2.8875 -0.6435
  867MOL0     H17035   6.278  11.331   3.824 -0.3575 -4.3769 -1.0520
  867MOL0     H17036   6.356  11.304   3.670 -0.3138 -0.3789  0.5660
  867MOL0     H17037   6.353  11.537   3.673 -0.6109 -0.6681  0.9006
  867MOL0     H17038   6.522  11.503   3.721 -0.2072 -0.5636 -3.3049
  867MOL0     H17039   6.290  11.596   3.913 -0.3861 -1.6905 -2.5631
  867MOL0     H17040   6.455  11.531   3.954  3.4096 -1.3380 -3.4376
  867MOL0     H17041   6.609  11.878   3.884  1.3699 -1.2093 -0.2065
  867MOL0     H17042   6.381  10.979   3.634 -0.1644  1.6050  0.1724
  867MOL0     H17043   6.228  10.847   3.510 -0.9941 -0.2127 -1.9557
  867MOL0     H17044   6.119  10.771   3.624  2.7863 -0.9139  0.0584
  867MOL0     H17045   6.080  10.930   3.531  1.9817  1.9166  1.0257
  868MOL0     O17046   9.022  10.523   4.141  0.0587 -0.0468 -0.0771
  868MOL0     C17047   9.112  10.569   4.075 -0.1449  0.2455  0.5002
  868MOL0     O17048   9.096  10.623   3.945  0.0196 -0.0183 -0.2200
  868MOL0     C17049   8.975  10.590   3.887 -0.4151 -0.0144  0.4874
  868MOL0     C17050   8.947  10.451   3.870  0.0869 -0.0449  0.6734
  868MOL0     C17051   8.834  10.407   3.792 -0.0312  0.2593  0.2496
  868MOL0     C17052   8.742  10.497   3.729  0.1344  0.0584 -0.2016
  868MOL0     O17053   8.624  10.443   3.678  1.0491 -0.1552  0.3648
  868MOL0     C17054   8.541  10.523   3.591 -0.4550  0.4269  0.2208
  868MOL0     C17055   8.463  10.426   3.488  0.4331  1.0822 -0.5214
  868MOL0     C17056   8.399  10.304   3.565  0.2614  0.6326 -0.0370
  868MOL0     C17057   8.350  10.204   3.467  0.5337  0.5422  0.6117
  868MOL0     C17058   8.234  10.255   3.369 -0.0462  0.3266 -0.5534
  868MOL0     C17059   8.217  10.147   3.262 -0.1739 -0.9473 -0.2190
  868MOL0     C17060   8.126  10.219   3.160  0.0636  1.1401  0.4670
  868MOL0     C17061   8.106  10.109   3.045 -0.0211  0.1707 -0.5579
  868MOL0     N17062   8.046  10.179   2.933 -0.3214  1.1761  0.4499
  868MOL0     C17063   7.911  10.190   2.906  0.0764 -0.5394 -0.2283
  868MOL0     C17064   7.910  10.277   2.811  0.2416  0.5402  0.2088
  868MOL0     C17065   7.785  10.320   2.748  0.1747 -0.0233 -0.2218
  868MOL0     C17066   7.748  10.473   2.789  0.0832 -0.4587 -0.9144
  868MOL0     C17067   7.612  10.520   2.741 -0.3508 -0.5394 -0.2762
  868MOL0     C17068   7.491  10.424   2.765  0.2203 -0.0210 -0.4564
  868MOL0     O17069   7.366  10.485   2.718  0.3880 -0.0853  0.2046
  868MOL0     C17070   7.325  10.600   2.767  0.2414  0.4019  0.7485
  868MOL0     C17071   7.315  10.621   2.903  0.7722 -0.6991 -0.4977
  868MOL0     C17072   7.275  10.752   2.946  0.0412  0.2199  1.3538
  868MOL0     C17073   7.225  10.851   2.850 -0.2769 -0.1361 -0.0812
  868MOL0     C17074   7.167  10.976   2.894  1.0277 -0.4818 -0.0480
  868MOL0     O17075   7.132  11.070   2.797 -0.2438  0.6068  0.5386
  868MOL0     C17076   7.112  11.196   2.834 -0.8746 -1.1295  0.5476
  868MOL0     C17077   7.141  11.295   2.733 -0.0444  0.5939 -0.3050
  868MOL0     C17078   7.107  11.425   2.766 -0.4047 -1.2969  0.9898
  868MOL0     C17079   7.042  11.458   2.885  0.6881 -0.3606  0.1426
  868MOL0     O17080   7.034  11.592   2.918 -0.5533 -0.1870 -0.1802
  868MOL0     C17081   7.087  11.638   3.056 -0.0235  0.3104  0.0862
  868MOL0     C17082   7.072  11.795   3.084  0.0432  0.2800  0.0898
  868MOL0     C17083   7.124  11.824   3.214  0.3351 -0.5305  0.7740
  868MOL0     C17084   7.273  11.841   3.206  1.2546  0.0275  0.6122
  868MOL0     C17085   7.343  11.882   3.332 -0.3022 -0.2315 -0.8223
  868MOL0     C17086   7.306  12.021   3.401  0.1028  0.2472  0.4645
  868MOL0     C17087   7.327  12.001   3.543 -0.3613  1.4569  0.5209
  868MOL0     C17088   7.365  12.137   3.603 -1.5094  0.0068  0.0880
  868MOL0    Cl17089   7.395  12.088   3.774 -0.1957 -0.2914 -0.2558
  868MOL0     C17090   7.009  11.363   2.982  0.3286  0.8408  0.1352
  868MOL0     C17091   7.042  11.235   2.947 -0.7524  0.1102 -1.0591
  868MOL0     O17092   7.158  10.983   3.019 -0.1206 -0.6193  0.5977
  868MOL0     C17093   7.222  10.813   2.714 -1.2651  0.2633  0.6557
  868MOL0     C17094   7.267  10.688   2.674 -0.3008  0.0968 -0.1031
  868MOL0     N17095   8.037  10.306   2.774 -0.1096  0.5205  0.9568
  868MOL0     N17096   8.123  10.257   2.860 -0.4080 -0.4610  0.0103
  868MOL0     C17097   8.766  10.630   3.760 -0.8433  0.0190 -0.6194
  868MOL0     C17098   8.876  10.679   3.840 -0.3936  0.0762 -0.7325
  868MOL0     C17099   9.246  10.603   4.133  0.0047  0.5010  0.4749
  868MOL0     C17100   9.305  10.718   4.086 -0.3818 -0.4006  0.0157
  868MOL0     C17101   9.437  10.764   4.126 -0.3164  0.4172 -0.4442
  868MOL0     C17102   9.503  10.689   4.224 -0.0778  0.1257  0.2582
  868MOL0     O17103   9.634  10.718   4.250 -1.1182 -0.1828  0.4446
  868MOL0     C17104   9.721  10.677   4.144 -0.6178  0.1548  0.3830
  868MOL0     C17105   9.863  10.725   4.172 -0.4000 -0.9192  0.4464
  868MOL0     C17106   9.866  10.879   4.170 -0.9505  0.0035 -0.9613
  868MOL0     C17107   9.993  10.929   4.240 -0.3444  0.5336  0.3940
  868MOL0     C17108  10.114  10.886   4.174  0.4510  0.4772  0.8134
  868MOL0     C17109  10.212  10.829   4.126  0.2463  0.1420 -0.3005
  868MOL0     C17110   9.442  10.571   4.276  1.0817  0.9132 -0.3023
  868MOL0     C17111   9.313  10.522   4.224 -1.0070 -0.1519 -0.6368
  868MOL0     C17112   9.255  10.391   4.294  0.0711  0.4769  0.9047
  868MOL0     H17113   9.026  10.389   3.910  0.4939  1.5657  2.5321
  868MOL0     H17114   8.818  10.300   3.779 -2.5883  0.7564 -1.7395
  868MOL0     H17115   8.455  10.573   3.636  0.3756  1.0959  1.1006
  868MOL0     H17116   8.594  10.605   3.541 -1.0058  2.2622  2.4874
  868MOL0     H17117   8.530  10.386   3.411  0.1557 -0.5472  0.0533
  868MOL0     H17118   8.384  10.485   3.440 -0.4730  2.6452  2.6546
  868MOL0     H17119   8.316  10.353   3.617  1.6105  4.6910 -1.3077
  868MOL0     H17120   8.464  10.260   3.641 -0.4206  3.4662  2.4045
  868MOL0     H17121   8.428  10.171   3.397 -0.4260 -1.6973  0.5058
  868MOL0     H17122   8.307  10.117   3.518  1.9276  0.4175  1.6220
  868MOL0     H17123   8.144  10.294   3.419  1.2869  2.9528  0.0074
  868MOL0     H17124   8.271  10.344   3.317  0.1911  1.9986  2.2498
  868MOL0     H17125   8.318  10.139   3.222 -0.4645  4.3546 -2.7653
  868MOL0     H17126   8.180  10.049   3.294  1.0284 -1.1698  0.5707
  868MOL0     H17127   8.153  10.321   3.130 -0.8676  1.0714 -0.7152
  868MOL0     H17128   8.034  10.237   3.216 -0.6909  2.2821 -1.0694
  868MOL0     H17129   8.199  10.059   3.014  0.5190  0.4416  0.5811
  868MOL0     H17130   8.045  10.029   3.088  1.2058 -0.4696  0.0491
  868MOL0     H17131   7.831  10.136   2.955  2.1585 -4.2921 -0.5604
  868MOL0     H17132   7.790  10.312   2.640  0.4958 -0.1546 -0.1968
  868MOL0     H17133   7.700  10.262   2.784  0.0615 -0.6503 -1.4635
  868MOL0     H17134   7.749  10.471   2.898 -1.4532  2.3096 -0.7697
  868MOL0     H17135   7.823  10.544   2.755 -2.6698  2.1391 -2.0357
  868MOL0     H17136   7.636  10.511   2.635 -0.5143  1.0094 -0.4588
  868MOL0     H17137   7.589  10.622   2.772 -1.2432 -0.2806 -1.6947
  868MOL0     H17138   7.477  10.393   2.869  0.4122  1.0095 -0.1065
  868MOL0     H17139   7.513  10.337   2.704  2.0572 -0.6905  1.0500
  868MOL0     H17140   7.354  10.547   2.973  0.5622 -0.2964  0.0510
  868MOL0     H17141   7.284  10.763   3.053  1.7975 -0.6337  1.3186
  868MOL0     H17142   7.163  11.262   2.632 -2.7527 -0.3831 -0.6497
  868MOL0     H17143   7.115  11.512   2.702  2.0988 -1.6307  0.7680
  868MOL0     H17144   7.031  11.587   3.135 -3.8584  1.2398 -1.7656
  868MOL0     H17145   7.194  11.621   3.045  0.0347  1.2202 -0.9435
  868MOL0     H17146   7.123  11.850   3.005 -2.7386  1.6637 -0.8847
  868MOL0     H17147   6.970  11.835   3.087  0.8810  2.6575 -0.8797
  868MOL0     H17148   7.076  11.916   3.248 -1.4032  0.3079 -3.3674
  868MOL0     H17149   7.101  11.749   3.290  1.5338 -2.3563 -0.5805
  868MOL0     H17150   7.287  11.915   3.127 -4.7938 -0.9732 -1.9063
  868MOL0     H17151   7.317  11.749   3.164 -0.6813 -0.8649  0.4275
  868MOL0     H17152   7.449  11.870   3.311 -0.2729  0.9560 -1.3935
  868MOL0     H17153   7.314  11.808   3.407 -1.3949  3.2305  2.4876
  868MOL0     H17154   7.373  12.097   3.359  0.4390  1.4196  2.9396
  868MOL0     H17155   7.204  12.048   3.372 -0.7406 -1.1627  1.8865
  868MOL0     H17156   7.424  11.951   3.550 -2.2007 -2.4971  0.5221
  868MOL0     H17157   7.247  11.945   3.593  1.5809 -1.0116  1.0855
  868MOL0     H17158   7.452  12.178   3.549 -0.4602  0.0029  1.7159
  868MOL0     H17159   7.288  12.213   3.587 -1.0168  0.0189 -2.9296
  868MOL0     H17160   6.955  11.378   3.075  1.2395 -1.6538  1.1586
  868MOL0     H17161   7.001  11.156   3.010 -2.7193  0.9314 -1.2206
  868MOL0     H17162   7.193  10.872   2.627 -2.9938 -3.1273 -1.3216
  868MOL0     H17163   7.269  10.668   2.567 -3.5540 -0.6497 -0.1236
  868MOL0     H17164   8.712  10.703   3.700 -1.7315  0.4837  0.6884
  868MOL0     H17165   8.897  10.784   3.857 -2.0285  0.0606  1.9581
  868MOL0     H17166   9.262  10.789   4.016 -1.2803 -0.1594  0.8072
  868MOL0     H17167   9.490  10.853   4.095  2.0599 -0.4042  0.9353
  868MOL0     H17168   9.687  10.715   4.048 -1.8051  1.8128  1.4040
  868MOL0     H17169   9.728  10.568   4.135  0.6915  0.3867 -2.9387
  868MOL0     H17170   9.940  10.681   4.108 -1.7943 -1.5275 -0.8752
  868MOL0     H17171   9.878  10.704   4.278 -1.1820  2.5093  1.3739
  868MOL0     H17172   9.785  10.930   4.224  1.1502  0.4349  2.0771
  868MOL0     H17173   9.869  10.924   4.071  1.2741  0.0976 -0.8918
  868MOL0     H17174   9.986  11.038   4.228 -1.0464  0.5226  0.6640
  868MOL0     H17175   9.998  10.901   4.345  3.2592 -0.1920  0.1902
  868MOL0     H17176  10.296  10.778   4.082 -2.1938 -3.3834 -1.2973
  868MOL0     H17177   9.477  10.502   4.352  0.6867 -2.2617 -2.7932
  868MOL0     H17178   9.173  10.419   4.362 -2.5113 -0.5989 -1.5429
  868MOL0     H17179   9.213  10.318   4.224  0.3403  0.5668  0.6481
  868MOL0     H17180   9.335  10.343   4.350  1.0584  0.2451 -0.6411
  869MOL0     O17181   1.202   6.581  10.794  0.2230 -0.0579 -0.3666
  869MOL0     C17182   1.084   6.621  10.788 -0.6398 -0.7214  0.9179
  869MOL0     O17183   1.033   6.715  10.862 -0.0441 -0.2106 -0.2647
  869MOL0     C17184   1.120   6.802  10.934 -0.0583 -0.1033  0.0437
  869MOL0     C17185   1.231   6.770  11.011 -1.2042  1.0343  0.1955
  869MOL0     C17186   1.322   6.866  11.068  0.3931 -0.4248  0.2355
  869MOL0     C17187   1.278   6.994  11.065 -0.0927  0.2740 -0.1636
  869MOL0     O17188   1.348   7.091  11.117 -0.8884 -0.3151 -0.2703
  869MOL0     C17189   1.463   7.066  11.202 -0.4688  0.2645 -0.4602
  869MOL0     C17190   1.479   7.182  11.299 -0.4177  0.3334 -0.1038
  869MOL0     C17191   1.597   7.156  11.396  1.1270 -0.3104 -0.7220
  869MOL0     C17192   1.737   7.204  11.363 -0.0820 -0.6409 -0.3336
  869MOL0     C17193   1.840   7.186  11.477  0.1339  0.6700 -0.8696
  869MOL0     C17194   1.820   7.285  11.588 -0.1624  0.1713  0.3334
  869MOL0     C17195   1.800   7.227  11.727  0.0156  0.7123 -0.4808
  869MOL0     C17196   1.818   7.332  11.841 -1.1587  1.0223  0.7824
  869MOL0     N17197   1.711   7.423  11.852 -0.9621 -0.3115  0.1107
  869MOL0     C17198   1.591   7.411  11.908 -0.6595 -0.5436 -0.2888
  869MOL0     C17199   1.540   7.540  11.893  0.8934  0.0544  0.9350
  869MOL0     C17200   1.404   7.576  11.926  0.6772  0.1231 -0.9662
  869MOL0     C17201   1.401   7.693  12.018 -0.5564 -1.0742  0.1247
  869MOL0     C17202   1.467   7.672  12.155 -0.3140 -0.5442 -0.1049
  869MOL0     C17203   1.479   7.798  12.226  0.1401 -0.0553 -0.1708
  869MOL0     O17204   1.567   7.778  12.343 -0.0631 -0.4055  0.2139
  869MOL0     C17205   1.599   7.889  12.419  0.7771 -0.3196  0.0354
  869MOL0     C17206   1.492   7.965  12.472  0.0656 -0.0158 -0.2645
  869MOL0     C17207   1.512   8.053  12.574  0.2384 -0.1718 -0.1868
  869MOL0     C17208   1.643   8.085  12.616 -0.5916  1.0885 -0.1442
  869MOL0     C17209   1.660   8.203  12.699 -0.8218  0.4157  0.2930
  869MOL0     O17210   1.546   8.287  12.715  0.1334  0.5626  0.3596
  869MOL0     C17211   1.554   8.376  12.820  0.1607 -0.6273 -0.0728
  869MOL0     C17212   1.553   8.510  12.799  0.3202 -1.1219  0.3283
  869MOL0     C17213   1.537   8.603  12.910 -0.5140 -0.4427 -0.0564
  869MOL0     C17214   1.551   8.566  13.042 -0.3557 -0.2815 -1.3336
  869MOL0     O17215   1.554   8.656  13.146  0.3042 -0.6655 -0.3471
  869MOL0     C17216   1.684   8.713  13.162  0.2144 -0.7875  0.3596
  869MOL0     C17217   1.699   8.800  13.278  0.2486  0.1052 -0.3635
  869MOL0     C17218   1.835   8.864  13.316  1.2324  0.1585 -0.4355
  869MOL0     C17219   1.820   8.936  13.452  1.2112  1.0299 -0.4778
  869MOL0     C17220   1.947   9.019  13.485  0.6092 -0.1464 -0.1348
  869MOL0     C17221   2.092   8.972  13.441  0.3276  0.5751  0.3052
  869MOL0     C17222   2.184   9.081  13.496 -0.0585  0.6931  0.0230
  869MOL0     C17223   2.211   9.069  13.642  0.5141  0.6144  0.8953
  869MOL0    Cl17224   2.307   8.923  13.674  0.2568 -0.1933 -0.3405
  869MOL0     C17225   1.562   8.426  13.059 -0.3144  0.2415  0.0498
  869MOL0     C17226   1.564   8.332  12.954 -0.2451  0.3565 -0.4075
  869MOL0     O17227   1.766   8.214  12.765  0.2910 -0.4347  0.3180
  869MOL0     C17228   1.755   8.016  12.553 -0.2702 -0.1323  0.3088
  869MOL0     C17229   1.732   7.915  12.459  0.4267  0.6751 -0.3423
  869MOL0     N17230   1.631   7.629  11.834 -0.2359  0.0531  0.3320
  869MOL0     N17231   1.739   7.552  11.810 -0.3353  0.2738  0.0340
  869MOL0     C17232   1.162   7.032  11.001  0.5690  0.1815 -0.9219
  869MOL0     C17233   1.085   6.936  10.933  0.3388 -0.5122  0.0678
  869MOL0     C17234   0.996   6.531  10.701 -0.5892 -0.1870 -0.0854
  869MOL0     C17235   0.862   6.574  10.678  0.2799  0.3458  0.6599
  869MOL0     C17236   0.772   6.499  10.599 -0.6138 -0.2098 -0.0089
  869MOL0     C17237   0.815   6.382  10.537  0.1682  0.1019  0.9616
  869MOL0     O17238   0.733   6.302  10.449 -0.3810 -0.7628  0.5221
  869MOL0     C17239   0.679   6.369  10.332 -0.0308 -0.5576 -0.7331
  869MOL0     C17240   0.631   6.253  10.239 -0.3460  0.3189 -0.0994
  869MOL0     C17241   0.517   6.174  10.311  0.7265  0.6209 -0.2729
  869MOL0     C17242   0.468   6.066  10.219 -0.5215 -0.7586  0.3498
  869MOL0     C17243   0.335   6.021  10.252  0.4232 -0.5375 -0.6297
  869MOL0     C17244   0.235   5.996  10.310 -0.0610  0.1413  0.8838
  869MOL0     C17245   0.936   6.332  10.576  0.2411 -0.1520  0.3243
  869MOL0     C17246   1.033   6.404  10.647 -0.3047 -0.3776 -0.2038
  869MOL0     C17247   1.170   6.346  10.660  0.6260 -0.1506  0.3240
  869MOL0     H17248   1.253   6.664  11.007 -0.5846  0.9935  3.1076
  869MOL0     H17249   1.416   6.837  11.113  0.4420 -3.8780 -1.7429
  869MOL0     H17250   1.429   6.985  11.268 -0.4258 -0.8875 -1.8019
  869MOL0     H17251   1.554   7.036  11.149 -0.1309  0.8611 -0.2365
  869MOL0     H17252   1.386   7.184  11.357  0.3723  3.5359  1.3237
  869MOL0     H17253   1.484   7.281  11.252 -1.6170  0.6391  0.3630
  869MOL0     H17254   1.597   7.049  11.417  0.8139 -0.7244 -2.6241
  869MOL0     H17255   1.577   7.206  11.491  1.4902  1.0945 -1.3551
  869MOL0     H17256   1.768   7.139  11.280  0.4471 -0.3208 -0.3922
  869MOL0     H17257   1.740   7.307  11.328  0.0730  0.3791  2.4611
  869MOL0     H17258   1.830   7.087  11.521  6.0322  0.0336 -0.2532
  869MOL0     H17259   1.939   7.185  11.432  0.4361 -3.8865 -0.5443
  869MOL0     H17260   1.892   7.367  11.584 -1.3559  1.2172 -0.9024
  869MOL0     H17261   1.726   7.332  11.555 -0.4140 -1.2341 -1.0526
  869MOL0     H17262   1.874   7.151  11.754 -0.4064  1.1764  2.2971
  869MOL0     H17263   1.701   7.181  11.719 -0.0580  0.7921 -0.0787
  869MOL0     H17264   1.831   7.280  11.936  0.9421  1.1758  0.6300
  869MOL0     H17265   1.919   7.372  11.829  0.6199 -3.0910  0.2820
  869MOL0     H17266   1.540   7.323  11.946  3.4807 -2.7377  0.7870
  869MOL0     H17267   1.341   7.605  11.841 -0.6056 -0.1427 -0.1423
  869MOL0     H17268   1.354   7.493  11.977 -1.3613  0.4123 -2.3673
  869MOL0     H17269   1.454   7.774  11.967 -0.2176 -1.4465 -0.1174
  869MOL0     H17270   1.298   7.727  12.034 -0.9394 -2.2317  0.2289
  869MOL0     H17271   1.567   7.627  12.145 -0.3733 -1.3981  2.3393
  869MOL0     H17272   1.409   7.599  12.212 -0.4087 -0.8998 -0.6566
  869MOL0     H17273   1.383   7.836  12.259 -0.4867 -1.3816 -0.4012
  869MOL0     H17274   1.540   7.861  12.160  0.7426 -1.5254 -1.0813
  869MOL0     H17275   1.392   7.960  12.431  1.0262  1.5273 -3.1624
  869MOL0     H17276   1.423   8.093  12.622 -0.1832 -0.6333 -0.5706
  869MOL0     H17277   1.566   8.554  12.701  3.8229  1.1685  1.6054
  869MOL0     H17278   1.520   8.709  12.891  2.1920  0.1312  0.4051
  869MOL0     H17279   1.757   8.632  13.164  0.1116 -0.9175 -0.5460
  869MOL0     H17280   1.718   8.768  13.073 -0.2513 -2.0509 -0.6344
  869MOL0     H17281   1.636   8.886  13.251  1.6888  1.4161  0.2606
  869MOL0     H17282   1.649   8.746  13.360 -1.0704 -0.9085 -1.7794
  869MOL0     H17283   1.913   8.788  13.321 -0.5287 -1.7078  4.6336
  869MOL0     H17284   1.878   8.935  13.245  1.1907  0.2687 -0.3510
  869MOL0     H17285   1.791   8.866  13.531  0.7902  0.4581 -1.1309
  869MOL0     H17286   1.739   9.009  13.443 -0.9304 -1.2595 -1.1130
  869MOL0     H17287   1.941   9.040  13.592 -1.9337  1.6164 -0.5372
  869MOL0     H17288   1.932   9.116  13.437 -1.4503 -0.8926 -1.1218
  869MOL0     H17289   2.111   8.881  13.498 -1.8194 -1.8748 -2.6260
  869MOL0     H17290   2.105   8.946  13.336 -1.7439 -1.1145  0.3894
  869MOL0     H17291   2.157   9.185  13.475 -0.0630  1.1490  2.0612
  869MOL0     H17292   2.282   9.064  13.450  0.0556  2.1236 -0.2966
  869MOL0     H17293   2.281   9.148  13.672  1.5797  1.7486 -3.6787
  869MOL0     H17294   2.121   9.081  13.702  0.4757  1.7606  0.6343
  869MOL0     H17295   1.549   8.404  13.164 -1.7053  0.8999  0.0308
  869MOL0     H17296   1.557   8.229  12.987 -1.0351  0.5676  0.1063
  869MOL0     H17297   1.856   8.039  12.588  0.7640 -3.7922  0.1174
  869MOL0     H17298   1.800   7.843  12.415 -2.4240 -3.0681  0.9241
  869MOL0     H17299   1.147   7.139  11.009  2.8911  0.4281  1.6156
  869MOL0     H17300   0.999   6.965  10.874  1.1352 -0.8439 -1.2857
  869MOL0     H17301   0.826   6.669  10.717  1.4210  1.8226 -1.6166
  869MOL0     H17302   0.677   6.544  10.574 -1.8573 -1.8369  1.5705
  869MOL0     H17303   0.761   6.421  10.281  0.7718 -1.8154 -0.7583
  869MOL0     H17304   0.597   6.437  10.355  0.3830 -0.0826 -0.6379
  869MOL0     H17305   0.714   6.186  10.215 -0.9273 -0.1188 -0.9473
  869MOL0     H17306   0.598   6.288  10.141 -1.8990 -1.1212 -0.1427
  869MOL0     H17307   0.432   6.241  10.326  0.4812  0.2285  0.1203
  869MOL0     H17308   0.565   6.136  10.401  0.6849 -1.2998 -1.0163
  869MOL0     H17309   0.464   6.112  10.119  3.1134  1.9560  1.2168
  869MOL0     H17310   0.547   5.990  10.215  0.9880  0.7568 -0.6559
  869MOL0     H17311   0.138   5.999  10.355 -1.3798 -2.1249 -1.5431
  869MOL0     H17312   0.945   6.241  10.519 -0.2983 -0.1758  0.2769
  869MOL0     H17313   1.221   6.343  10.756  1.2495 -1.4010 -0.0304
  869MOL0     H17314   1.173   6.243  10.624  1.1314 -1.2208  3.1987
  869MOL0     H17315   1.238   6.414  10.608  0.8743  0.5985  1.5961
  870MOL0     O17316   0.358  10.571   5.621  0.4411 -0.2243  0.3417
  870MOL0     C17317   0.432  10.660   5.667 -0.0853 -0.2192  0.2335
  870MOL0     O17318   0.448  10.777   5.604 -0.7089 -0.0130 -0.8441
  870MOL0     C17319   0.429  10.798   5.471  0.1452  0.6944 -0.1867
  870MOL0     C17320   0.302  10.824   5.424 -0.1161 -0.5142 -0.2525
  870MOL0     C17321   0.276  10.836   5.290  0.0843  0.0096  0.6974
  870MOL0     C17322   0.384  10.836   5.204 -0.5922 -0.1650  0.5962
  870MOL0     O17323   0.361  10.848   5.063  0.1542  0.2122  0.0254
  870MOL0     C17324   0.331  10.978   5.005 -0.2175 -0.0394 -0.4611
  870MOL0     C17325   0.350  10.991   4.855  0.4384  0.1684  0.0875
  870MOL0     C17326   0.486  10.966   4.794  0.9657  0.2305  0.9595
  870MOL0     C17327   0.482  11.005   4.641 -0.0857  0.1719 -0.6441
  870MOL0     C17328   0.383  10.923   4.552 -0.7175 -0.0186 -0.2296
  870MOL0     C17329   0.367  10.967   4.411  0.7776 -1.5588 -0.9634
  870MOL0     C17330   0.322  11.122   4.406  0.0408 -0.5501  1.5802
  870MOL0     C17331   0.241  11.167   4.284  0.2960 -0.1781 -0.1986
  870MOL0     N17332   0.309  11.119   4.164 -0.1782  0.1697  0.3481
  870MOL0     C17333   0.378  11.200   4.077 -0.6267 -0.6456 -0.2750
  870MOL0     C17334   0.430  11.120   3.985 -0.1449 -0.4601  0.1875
  870MOL0     C17335   0.495  11.181   3.859 -0.3945 -0.6376  0.2736
  870MOL0     C17336   0.632  11.120   3.851 -0.1635 -0.6156 -0.7313
  870MOL0     C17337   0.715  11.173   3.735  1.2331  0.3138  0.1691
  870MOL0     C17338   0.849  11.101   3.740  0.5973 -0.5205 -0.5025
  870MOL0     O17339   0.945  11.129   3.638  0.2028 -0.3674 -0.0737
  870MOL0     C17340   0.948  11.035   3.533  0.2068  0.9270 -0.8335
  870MOL0     C17341   0.846  10.941   3.498  0.3994 -0.4011 -0.8713
  870MOL0     C17342   0.860  10.847   3.398  0.2890 -0.6728  0.4737
  870MOL0     C17343   0.978  10.848   3.320 -0.0185 -0.8292  0.0307
  870MOL0     C17344   0.984  10.767   3.195 -0.0214 -0.6255  0.6110
  870MOL0     O17345   0.875  10.697   3.170  0.3841  0.5436  0.8187
  870MOL0     C17346   0.885  10.627   3.051 -0.5567 -0.0632 -0.6361
  870MOL0     C17347   0.839  10.685   2.936 -0.2746  0.0116  0.4115
  870MOL0     C17348   0.827  10.612   2.815  0.7057  0.2452 -0.0401
  870MOL0     C17349   0.884  10.484   2.815 -0.1829  0.4376  0.0882
  870MOL0     O17350   0.900  10.415   2.702  0.4208 -0.1513 -0.7999
  870MOL0     C17351   0.952  10.486   2.592  0.3306 -1.2742 -0.6189
  870MOL0     C17352   1.018  10.378   2.504  0.6945 -0.1305  0.4768
  870MOL0     C17353   1.103  10.267   2.568  0.8846 -0.7121 -0.5367
  870MOL0     C17354   1.259  10.304   2.566 -0.3524 -0.3171 -0.1144
  870MOL0     C17355   1.327  10.276   2.433  0.3285  0.3150 -0.6290
  870MOL0     C17356   1.475  10.236   2.458 -0.5377  0.1172 -1.0637
  870MOL0     C17357   1.553  10.233   2.316  0.4784 -0.0043 -0.3556
  870MOL0     C17358   1.570  10.367   2.255  0.0321 -0.2125  0.7361
  870MOL0    Cl17359   1.651  10.346   2.094  0.2483  0.2837  0.4345
  870MOL0     C17360   0.932  10.424   2.930  0.1069  0.6595  0.4064
  870MOL0     C17361   0.927  10.494   3.050  0.4645  0.2687 -0.2959
  870MOL0     O17362   1.083  10.781   3.119  0.3245  0.2527 -0.2837
  870MOL0     C17363   1.075  10.943   3.344  0.4249 -0.0542  0.1883
  870MOL0     C17364   1.065  11.032   3.450  1.1844 -0.2886 -0.7718
  870MOL0     N17365   0.397  10.989   4.021  0.7234 -0.4061  0.0634
  870MOL0     N17366   0.320  10.994   4.118  0.6321  0.1628 -0.0219
  870MOL0     C17367   0.514  10.810   5.235 -0.3551 -0.3976 -1.0933
  870MOL0     C17368   0.529  10.784   5.375 -1.3546 -0.1841 -0.2009
  870MOL0     C17369   0.504  10.636   5.790 -1.2989 -0.2942 -1.4204
  870MOL0     C17370   0.459  10.533   5.872 -0.2878  0.0439 -0.0965
  870MOL0     C17371   0.487  10.515   6.004  0.3243  0.2723 -0.5709
  870MOL0     C17372   0.584  10.606   6.062  0.3154  0.4090 -0.7306
  870MOL0     O17373   0.629  10.586   6.199 -0.3309  0.0022  0.3532
  870MOL0     C17374   0.601  10.466   6.272  0.4906 -0.0122  0.3830
  870MOL0     C17375   0.460  10.469   6.341  0.4506  0.8092  0.3979
  870MOL0     C17376   0.442  10.591   6.447 -0.2088  0.0825 -0.3908
  870MOL0     C17377   0.286  10.620   6.457 -0.7758 -0.1008  0.0114
  870MOL0     C17378   0.220  10.517   6.543 -0.0875 -0.8419  0.6388
  870MOL0     C17379   0.161  10.429   6.602 -0.0083  0.3510  0.2725
  870MOL0     C17380   0.641  10.708   5.979  0.6118  0.6331  0.5881
  870MOL0     C17381   0.605  10.720   5.849  0.3150 -0.6006 -0.0162
  870MOL0     C17382   0.684  10.812   5.762  0.4218 -0.0783 -0.4843
  870MOL0     H17383   0.213  10.845   5.483 -1.3311 -0.9588 -1.8588
  870MOL0     H17384   0.173  10.837   5.257 -0.0089 -1.4822  0.8885
  870MOL0     H17385   0.229  11.010   5.030 -0.5141  0.7685 -2.4645
  870MOL0     H17386   0.394  11.060   5.042  0.7026 -0.6214 -0.6914
  870MOL0     H17387   0.305  11.087   4.827 -2.3400 -1.5533 -1.9098
  870MOL0     H17388   0.290  10.909   4.814 -1.4284  1.2383  0.5618
  870MOL0     H17389   0.527  10.866   4.812 -0.6077 -0.5893  0.2080
  870MOL0     H17390   0.549  11.039   4.847 -0.2549  1.7517  0.3609
  870MOL0     H17391   0.467  11.110   4.615  3.7607  1.8177  2.5936
  870MOL0     H17392   0.580  10.981   4.597 -0.0865 -0.9060 -0.0785
  870MOL0     H17393   0.412  10.818   4.545 -1.6199 -0.1861 -1.9448
  870MOL0     H17394   0.283  10.927   4.597  0.1891 -0.6437  2.0112
  870MOL0     H17395   0.457  10.956   4.350  0.3647 -1.2221 -1.6535
  870MOL0     H17396   0.284  10.910   4.368 -1.9416  2.0448 -0.9652
  870MOL0     H17397   0.410  11.187   4.405  0.2299 -0.8067  0.6503
  870MOL0     H17398   0.253  11.130   4.490 -1.5217 -0.9019  0.3674
  870MOL0     H17399   0.143  11.119   4.292 -0.1888  1.1454  3.6461
  870MOL0     H17400   0.250  11.276   4.283  2.2020 -0.3010 -1.0242
  870MOL0     H17401   0.367  11.308   4.068 -0.5062 -0.2779  2.8952
  870MOL0     H17402   0.433  11.165   3.770  0.4214  1.0362 -0.6427
  870MOL0     H17403   0.518  11.288   3.868 -2.7476 -0.0954  0.4992
  870MOL0     H17404   0.671  11.146   3.951  0.5419  3.3019 -1.8522
  870MOL0     H17405   0.629  11.012   3.836 -0.1949 -0.5140 -1.4951
  870MOL0     H17406   0.724  11.281   3.747  3.3010 -0.1046  4.1843
  870MOL0     H17407   0.664  11.147   3.641 -0.3796 -1.9245  1.5730
  870MOL0     H17408   0.832  10.994   3.760  0.8962 -0.1490  2.1617
  870MOL0     H17409   0.907  11.125   3.830  0.6435 -0.3883 -0.5677
  870MOL0     H17410   0.751  10.947   3.551  1.6708  0.0651  1.5034
  870MOL0     H17411   0.777  10.779   3.386 -0.5855  0.2356  1.2955
  870MOL0     H17412   0.802  10.787   2.943  1.1259  0.6348 -0.6631
  870MOL0     H17413   0.784  10.659   2.727 -0.3557 -1.7123 -0.6309
  870MOL0     H17414   0.884  10.556   2.544 -0.5215 -2.0326 -0.5301
  870MOL0     H17415   1.037  10.550   2.618  2.1089 -3.3592 -1.0043
  870MOL0     H17416   0.941  10.328   2.443 -1.1645 -0.1537  2.6922
  870MOL0     H17417   1.075  10.431   2.428  0.1731  0.8235  0.7336
  870MOL0     H17418   1.057  10.250   2.665 -0.5071  1.6935 -0.6960
  870MOL0     H17419   1.086  10.172   2.516  1.6894  0.0563 -2.2897
  870MOL0     H17420   1.313  10.253   2.647 -3.7308  2.5392  4.3988
  870MOL0     H17421   1.277  10.407   2.596  2.5600 -0.9381  0.6591
  870MOL0     H17422   1.309  10.357   2.361  2.4729  0.4022 -1.1338
  870MOL0     H17423   1.280  10.182   2.401  0.3704 -0.6207  1.8556
  870MOL0     H17424   1.516  10.308   2.529 -0.8347  1.1247 -1.8866
  870MOL0     H17425   1.467  10.143   2.514 -1.2201  1.2849  0.9052
  870MOL0     H17426   1.484  10.183   2.248  0.2906 -0.6622  0.3045
  870MOL0     H17427   1.644  10.171   2.323 -0.5865 -1.4773  4.5744
  870MOL0     H17428   1.473  10.407   2.224  1.2552  1.4112 -1.2508
  870MOL0     H17429   1.632  10.437   2.312  1.5806 -1.0005  0.0693
  870MOL0     H17430   0.951  10.317   2.919 -4.0039 -0.1403 -0.5952
  870MOL0     H17431   0.955  10.453   3.146  0.4098  1.8011  0.3941
  870MOL0     H17432   1.166  10.951   3.286  1.2735  1.3321  1.6363
  870MOL0     H17433   1.145  11.098   3.478  0.4152 -0.5232  2.3081
  870MOL0     H17434   0.590  10.818   5.159  0.1719 -2.1173 -0.7930
  870MOL0     H17435   0.624  10.749   5.412 -1.8559 -4.1634 -2.1159
  870MOL0     H17436   0.387  10.470   5.820  2.9198 -3.6158 -0.5877
  870MOL0     H17437   0.432  10.451   6.072  2.0593  0.1471  0.8110
  870MOL0     H17438   0.671  10.446   6.354  0.2806 -0.4155  0.4674
  870MOL0     H17439   0.607  10.385   6.200  4.5518  0.6924 -0.3281
  870MOL0     H17440   0.452  10.377   6.399 -2.2000  1.4571  1.2392
  870MOL0     H17441   0.385  10.476   6.261  1.4106  0.8570 -0.5146
  870MOL0     H17442   0.492  10.671   6.390 -1.8777  2.0883  0.8021
  870MOL0     H17443   0.492  10.566   6.541  1.5099  0.0190 -1.2876
  870MOL0     H17444   0.258  10.721   6.488 -2.6851 -0.8723  0.9939
  870MOL0     H17445   0.243  10.614   6.357  2.0510  3.5422 -1.6345
  870MOL0     H17446   0.115  10.365   6.675 -1.4985  1.2796  0.1791
  870MOL0     H17447   0.724  10.766   6.016  0.2090  0.3266  2.0393
  870MOL0     H17448   0.605  10.876   5.722 -2.3600 -2.5946  0.5614
  870MOL0     H17449   0.765  10.868   5.809 -0.3561  0.3855  0.3391
  870MOL0     H17450   0.715  10.744   5.682 -3.9663 -3.8250  0.6017
  871MOL0     O17451   5.138   0.795   8.253  0.2971 -0.1054  0.6510
  871MOL0     C17452   5.232   0.740   8.314 -0.2782 -0.3118  0.5137
  871MOL0     O17453   5.238   0.621   8.365 -0.5077 -0.0073  0.6909
  871MOL0     C17454   5.145   0.517   8.346  0.5206 -0.0619 -0.4631
  871MOL0     C17455   5.155   0.405   8.420 -0.4442  0.4299  0.1776
  871MOL0     C17456   5.081   0.290   8.405 -0.2614 -0.0112  0.5787
  871MOL0     C17457   4.977   0.294   8.306 -0.7002 -0.3266  0.4896
  871MOL0     O17458   4.883   0.194   8.295 -0.0423  0.0018 -0.2624
  871MOL0     C17459   4.941   0.058   8.302 -0.7851  0.0172  1.1920
  871MOL0     C17460   4.829  -0.045   8.295 -0.7397 -0.2506  0.6339
  871MOL0     C17461   4.754  -0.045   8.160  0.2154 -0.9515  0.3794
  871MOL0     C17462   4.608  -0.076   8.186 -0.2990  0.0059  0.0784
  871MOL0     C17463   4.538  -0.069   8.054  0.8068 -0.5337  0.0299
  871MOL0     C17464   4.383  -0.082   8.072  0.2175 -0.1587  0.6050
  871MOL0     C17465   4.318   0.052   8.138  0.0191  0.5128  0.5076
  871MOL0     C17466   4.166   0.033   8.128 -0.2163 -0.1389  0.0511
  871MOL0     N17467   4.097   0.154   8.174  0.7951 -0.4932  0.9463
  871MOL0     C17468   4.042   0.156   8.305 -0.0671 -0.2042 -0.4444
  871MOL0     C17469   3.995   0.287   8.312  0.7598  0.2813 -0.7465
  871MOL0     C17470   3.918   0.361   8.423  0.3602 -0.0854  0.6077
  871MOL0     C17471   3.995   0.398   8.550  0.7037  0.2892  0.5165
  871MOL0     C17472   4.149   0.432   8.522 -0.9471 -0.0427 -0.4749
  871MOL0     C17473   4.197   0.486   8.654 -0.0480 -0.2389 -0.1419
  871MOL0     O17474   4.188   0.381   8.756 -0.4978 -0.0825  1.1527
  871MOL0     C17475   4.258   0.391   8.870 -0.0167 -0.1770  0.2930
  871MOL0     C17476   4.263   0.274   8.945  0.6020 -0.9420 -0.6141
  871MOL0     C17477   4.349   0.267   9.060 -0.1752  1.0798 -0.3666
  871MOL0     C17478   4.413   0.376   9.119  0.2077  0.3083  0.3034
  871MOL0     C17479   4.486   0.370   9.246 -0.0230  0.3926 -0.7382
  871MOL0     O17480   4.556   0.485   9.284  0.8328 -0.8235 -0.0528
  871MOL0     C17481   4.599   0.483   9.412  0.8978 -0.5433  0.3289
  871MOL0     C17482   4.700   0.400   9.439  0.8238  0.3865  0.0344
  871MOL0     C17483   4.747   0.359   9.564  0.0372 -0.5878  0.2766
  871MOL0     C17484   4.680   0.429   9.661 -0.3212 -0.1259  0.1103
  871MOL0     O17485   4.709   0.413   9.792 -0.3537  0.5793 -0.3294
  871MOL0     C17486   4.631   0.315   9.863 -0.4309  0.2177 -0.3759
  871MOL0     C17487   4.709   0.247   9.974 -0.8690  0.1204 -0.0219
  871MOL0     C17488   4.817   0.148   9.922  0.7041 -0.7898 -0.3126
  871MOL0     C17489   4.929   0.136  10.018 -0.8470 -0.6125 -0.4912
  871MOL0     C17490   4.986  -0.008  10.008  0.8676 -0.0647  0.1782
  871MOL0     C17491   5.108  -0.035  10.098 -0.5999  0.0941 -0.5979
  871MOL0     C17492   5.075  -0.015  10.250 -0.7647  0.1405 -0.2861
  871MOL0     C17493   5.220   0.002  10.315  0.6253  0.4093 -0.1097
  871MOL0    Cl17494   5.211   0.024  10.490  0.2850 -0.1411 -0.3775
  871MOL0     C17495   4.565   0.509   9.645 -0.2338 -0.3742 -0.2352
  871MOL0     C17496   4.518   0.534   9.517 -0.6725 -0.2182  0.1768
  871MOL0     O17497   4.479   0.259   9.315  0.0590 -0.2612  0.6681
  871MOL0     C17498   4.412   0.494   9.032 -0.5461  0.3366 -0.0011
  871MOL0     C17499   4.337   0.500   8.913  0.7506  0.9552  0.4731
  871MOL0     N17500   4.017   0.361   8.197  0.2354 -0.1072 -0.3471
  871MOL0     N17501   4.070   0.275   8.111 -0.4233 -1.1919  0.9934
  871MOL0     C17502   4.958   0.410   8.234  0.2232 -0.2523  0.4461
  871MOL0     C17503   5.039   0.516   8.252 -0.7861  0.4736  0.1967
  871MOL0     C17504   5.341   0.830   8.340 -0.2440 -0.4977  0.7201
  871MOL0     C17505   5.390   0.869   8.466 -0.3028  0.3507 -0.0678
  871MOL0     C17506   5.499   0.952   8.491 -0.0022 -0.1365  0.4835
  871MOL0     C17507   5.570   1.002   8.377 -0.6682 -0.0269  0.9975
  871MOL0     O17508   5.669   1.096   8.405 -0.0296  1.1160 -0.1068
  871MOL0     C17509   5.715   1.180   8.300 -0.3820 -1.0598  0.3707
  871MOL0     C17510   5.815   1.285   8.347  0.2935  0.0150 -0.2935
  871MOL0     C17511   5.862   1.376   8.230 -0.4510  0.7060  0.2663
  871MOL0     C17512   5.986   1.310   8.158  0.1531  0.9264 -0.3233
  871MOL0     C17513   6.001   1.387   8.033  0.6686  0.6077  0.6549
  871MOL0     C17514   6.041   1.440   7.934 -0.1909  0.7214 -0.3787
  871MOL0     C17515   5.516   0.977   8.249 -0.2680  0.0252 -0.9789
  871MOL0     C17516   5.405   0.895   8.228  0.4566 -0.6262  0.4797
  871MOL0     C17517   5.381   0.849   8.092  0.5666  0.8122  0.6636
  871MOL0     H17518   5.237   0.389   8.490 -0.1248 -1.6074 -0.5881
  871MOL0     H17519   5.111   0.206   8.467  2.7874  1.1834  0.8842
  871MOL0     H17520   5.018   0.031   8.229 -0.0260 -0.1422  2.0291
  871MOL0     H17521   4.988   0.044   8.400  2.6976 -0.7964 -0.4184
  871MOL0     H17522   4.765  -0.018   8.380  0.7094  2.5327  0.9632
  871MOL0     H17523   4.893  -0.131   8.313  1.3179  0.9236 -0.6603
  871MOL0     H17524   4.801  -0.124   8.100  2.6689 -0.0471  0.9799
  871MOL0     H17525   4.770   0.050   8.109 -0.6262 -0.4046  1.1087
  871MOL0     H17526   4.603  -0.170   8.241 -0.8915 -0.9040 -1.4688
  871MOL0     H17527   4.571   0.003   8.251 -0.3433 -0.8077  1.0581
  871MOL0     H17528   4.547   0.033   8.016 -0.2030 -0.4834 -0.0871
  871MOL0     H17529   4.577  -0.137   7.977 -2.8899  0.2507 -2.8558
  871MOL0     H17530   4.338  -0.102   7.974  3.2402  0.7276 -1.1073
  871MOL0     H17531   4.355  -0.169   8.132  0.0711  0.1221  0.9446
  871MOL0     H17532   4.357   0.144   8.093 -2.2232  0.0746 -2.6723
  871MOL0     H17533   4.352   0.052   8.242 -0.1326  0.0274  0.5597
  871MOL0     H17534   4.128   0.004   8.030 -5.0314  1.2923  1.2465
  871MOL0     H17535   4.128  -0.051   8.186 -1.5803  1.0739  0.9888
  871MOL0     H17536   4.041   0.079   8.381  0.3859 -0.9343 -1.1619
  871MOL0     H17537   3.882   0.457   8.385 -3.2327 -0.2545  3.0835
  871MOL0     H17538   3.829   0.305   8.453 -0.1789 -0.9296 -2.2722
  871MOL0     H17539   3.940   0.477   8.601 -0.3494  0.7390 -1.2461
  871MOL0     H17540   3.988   0.308   8.613 -1.5019  0.0169 -0.0440
  871MOL0     H17541   4.163   0.509   8.445  0.9192 -2.4333 -2.6928
  871MOL0     H17542   4.198   0.347   8.474  0.4860  0.8655 -0.6789
  871MOL0     H17543   4.151   0.580   8.683  1.9632  0.2687  1.6582
  871MOL0     H17544   4.294   0.533   8.642 -0.2731  0.7035  1.4318
  871MOL0     H17545   4.218   0.190   8.892 -0.4360 -1.5091  1.0951
  871MOL0     H17546   4.361   0.172   9.111  1.8581 -0.1249 -2.8443
  871MOL0     H17547   4.753   0.358   9.354  0.3968  2.2788 -1.2358
  871MOL0     H17548   4.821   0.280   9.579 -1.1700 -1.3116  3.1104
  871MOL0     H17549   4.543   0.366   9.903 -0.5990  1.1009 -1.7849
  871MOL0     H17550   4.602   0.238   9.790 -1.0662  0.9390 -0.9038
  871MOL0     H17551   4.765   0.327  10.021 -1.0711  0.1147  0.2264
  871MOL0     H17552   4.635   0.212  10.047 -3.1594  5.3042  0.6001
  871MOL0     H17553   4.752   0.061   9.913 -1.0745  0.5761 -1.3744
  871MOL0     H17554   4.866   0.180   9.830  2.0189  1.8968  1.1977
  871MOL0     H17555   4.890   0.166  10.116  2.0772  1.7376  0.0787
  871MOL0     H17556   5.010   0.204   9.989  1.1959 -1.3320  2.9873
  871MOL0     H17557   5.014  -0.022   9.903 -4.7258 -0.3949 -1.6323
  871MOL0     H17558   4.912  -0.085  10.033  1.6136 -1.9975 -2.9442
  871MOL0     H17559   5.126  -0.142  10.082 -1.2637 -0.4987  2.1667
  871MOL0     H17560   5.196   0.020  10.063  0.1564 -0.8813 -0.2456
  871MOL0     H17561   5.008  -0.093  10.287  1.0138 -0.8601  0.9928
  871MOL0     H17562   5.041   0.088  10.263  2.3258  1.3816 -1.1442
  871MOL0     H17563   5.294  -0.076  10.296  0.7336  0.3726  0.4349
  871MOL0     H17564   5.262   0.095  10.276 -2.7195  1.4361 -1.5814
  871MOL0     H17565   4.531   0.567   9.730  1.6417  0.5961 -0.0757
  871MOL0     H17566   4.436   0.601   9.494 -0.2692  0.2224  0.0152
  871MOL0     H17567   4.464   0.581   9.070  0.8214 -0.8093  0.8455
  871MOL0     H17568   4.334   0.592   8.855 -0.2170 -0.5660 -2.0608
  871MOL0     H17569   4.878   0.415   8.160  1.3571  2.0343 -0.7065
  871MOL0     H17570   5.018   0.604   8.193  0.3829  1.4485  1.1760
  871MOL0     H17571   5.342   0.849   8.562  1.4089  4.0923  1.7670
  871MOL0     H17572   5.548   0.984   8.582  3.5664 -2.1002 -0.5369
  871MOL0     H17573   5.629   1.237   8.262 -0.5881  0.9747  3.5182
  871MOL0     H17574   5.774   1.124   8.227 -0.3753  1.5811 -1.8473
  871MOL0     H17575   5.894   1.231   8.401  0.4227  1.5590  1.1682
  871MOL0     H17576   5.757   1.343   8.419  0.7971 -1.4870  1.3912
  871MOL0     H17577   5.893   1.472   8.271  0.0516  0.6697 -0.0297
  871MOL0     H17578   5.774   1.391   8.167  0.2152  0.0864 -0.8533
  871MOL0     H17579   6.072   1.326   8.224 -1.2086 -0.3210  1.8785
  871MOL0     H17580   5.981   1.202   8.138  2.4532 -0.3648  4.6222
  871MOL0     H17581   6.075   1.474   7.839  0.1851 -0.0103 -0.5180
  871MOL0     H17582   5.566   1.018   8.162  1.0651 -0.4937 -0.4864
  871MOL0     H17583   5.284   0.890   8.062  0.4550 -0.1595 -0.3951
  871MOL0     H17584   5.458   0.879   8.020  2.2182  1.7813  2.7381
  871MOL0     H17585   5.362   0.741   8.090 -0.7723  0.9666  2.4485
  872MOL0     O17586   7.341   8.986   6.623  0.1054  0.0854  0.5032
  872MOL0     C17587   7.298   8.889   6.560  1.3453 -0.6282 -0.0047
  872MOL0     O17588   7.172   8.834   6.568  0.6989 -0.1721  0.0804
  872MOL0     C17589   7.075   8.868   6.659 -0.1375  0.1106  0.0732
  872MOL0     C17590   7.100   8.880   6.795  0.4760 -0.6991 -0.8693
  872MOL0     C17591   6.989   8.877   6.890  1.4183 -0.2258 -0.4142
  872MOL0     C17592   6.859   8.879   6.841  0.6710  0.1129  0.2485
  872MOL0     O17593   6.753   8.887   6.924  0.7308 -0.4521 -0.3034
  872MOL0     C17594   6.730   9.025   6.967 -0.2751  0.7154 -0.9624
  872MOL0     C17595   6.725   9.124   6.849 -0.8520  0.0310  0.0087
  872MOL0     C17596   6.725   9.274   6.885  0.0979  0.1483  0.0824
  872MOL0     C17597   6.600   9.317   6.961  0.3124 -0.7082 -0.0246
  872MOL0     C17598   6.588   9.462   6.961  0.2868  0.2960 -0.6904
  872MOL0     C17599   6.711   9.540   7.031 -0.2279  0.5083  0.1543
  872MOL0     C17600   6.685   9.683   7.015  0.0173  0.5811 -0.3144
  872MOL0     C17601   6.775   9.769   7.108  0.9916 -0.5274  0.5344
  872MOL0     N17602   6.750   9.908   7.091 -0.0504  0.0386  0.6532
  872MOL0     C17603   6.629   9.968   7.127 -0.0900 -0.0383  0.2187
  872MOL0     C17604   6.642  10.096   7.088  1.1359 -0.3083 -0.2594
  872MOL0     C17605   6.534  10.205   7.091 -0.3639 -0.5786  0.6771
  872MOL0     C17606   6.534  10.283   7.226 -0.4216  0.0846  0.4100
  872MOL0     C17607   6.673  10.334   7.247 -0.2704 -0.0975 -0.1700
  872MOL0     C17608   6.680  10.433   7.363 -0.2309  0.3894  0.7581
  872MOL0     O17609   6.810  10.482   7.393  1.0705  0.1074 -0.1811
  872MOL0     C17610   6.849  10.608   7.336  0.0813  0.1618  0.0615
  872MOL0     C17611   6.770  10.672   7.235 -0.2050 -0.0391 -0.2008
  872MOL0     C17612   6.821  10.791   7.179 -0.8083  0.5531 -0.6140
  872MOL0     C17613   6.950  10.847   7.217 -0.5612  0.3748 -0.0371
  872MOL0     C17614   6.990  10.980   7.168  0.4709  0.1881  0.1576
  872MOL0     O17615   6.898  11.058   7.110 -0.3384 -0.1320  0.2815
  872MOL0     C17616   6.938  11.178   7.051  0.1180 -0.9933  0.1478
  872MOL0     C17617   7.049  11.194   6.960  0.0850  0.2655  0.1230
  872MOL0     C17618   7.082  11.321   6.911 -0.1307 -0.2139 -0.0798
  872MOL0     C17619   6.993  11.432   6.933 -0.2428 -0.6954 -0.3026
  872MOL0     O17620   6.980  11.540   6.852 -0.1076 -0.2742  0.1320
  872MOL0     C17621   7.103  11.584   6.787 -0.1228 -0.2986  0.0069
  872MOL0     C17622   7.089  11.736   6.780 -0.5783 -0.4020 -1.0495
  872MOL0     C17623   7.206  11.791   6.699  0.4622 -1.5854 -0.5146
  872MOL0     C17624   7.145  11.906   6.613  0.0838  1.1706  0.2279
  872MOL0     C17625   7.081  11.843   6.488 -0.2715  0.0874 -1.0748
  872MOL0     C17626   7.018  11.935   6.388  0.3937 -0.1109 -0.9779
  872MOL0     C17627   6.967  11.879   6.256 -0.7866  0.2571  0.7639
  872MOL0     C17628   6.909  11.989   6.172 -0.3991 -0.8517 -0.2507
  872MOL0    Cl17629   6.859  11.929   6.008  0.0979  0.3416  0.0041
  872MOL0     C17630   6.884  11.417   7.012  0.5244  1.0499  0.0749
  872MOL0     C17631   6.854  11.292   7.063  0.0195 -0.0443 -0.1283
  872MOL0     O17632   7.112  10.997   7.172  0.4874  1.0352  0.3567
  872MOL0     C17633   7.024  10.785   7.315 -0.5748  0.6649  0.3613
  872MOL0     C17634   6.976  10.668   7.380  0.4966  1.1903 -0.9521
  872MOL0     N17635   6.763  10.115   7.025  0.5627  1.2434 -0.7249
  872MOL0     N17636   6.834  10.002   7.028  0.4498  0.8414 -0.2120
  872MOL0     C17637   6.838   8.869   6.700  0.5632 -1.1314 -1.2228
  872MOL0     C17638   6.945   8.871   6.617  0.3908 -0.0024 -0.0957
  872MOL0     C17639   7.388   8.828   6.454 -0.0374 -0.3937 -0.4281
  872MOL0     C17640   7.351   8.694   6.413 -0.7670 -1.2807  0.7239
  872MOL0     C17641   7.434   8.632   6.321  0.1297 -0.1907 -0.3112
  872MOL0     C17642   7.549   8.691   6.264  0.8644  0.2197 -0.4298
  872MOL0     O17643   7.627   8.632   6.170 -0.2149  0.6199  0.0098
  872MOL0     C17644   7.594   8.499   6.116  0.7009 -0.5253  0.0629
  872MOL0     C17645   7.707   8.442   6.019  0.4614 -0.4141 -0.4399
  872MOL0     C17646   7.683   8.291   5.990  0.0530 -0.7224 -0.4835
  872MOL0     C17647   7.798   8.216   5.934 -0.5154  0.5502 -0.4192
  872MOL0     C17648   7.828   8.263   5.798 -0.0453 -1.0874 -0.4086
  872MOL0     C17649   7.892   8.263   5.700 -0.0962  0.2294 -0.3725
  872MOL0     C17650   7.582   8.817   6.306 -1.1525  0.2431 -0.5062
  872MOL0     C17651   7.496   8.893   6.385  0.1361 -0.2162  0.1256
  872MOL0     C17652   7.523   9.037   6.410  0.3447  0.4051 -0.1017
  872MOL0     H17653   7.204   8.883   6.825 -0.1269 -0.2740  1.3814
  872MOL0     H17654   7.000   8.867   6.998 -2.5985 -0.1021  0.1530
  872MOL0     H17655   6.635   9.023   7.023  0.1340 -3.5923 -0.0664
  872MOL0     H17656   6.814   9.048   7.033 -0.9964 -2.4046  1.3011
  872MOL0     H17657   6.648   9.098   6.776 -1.8822 -1.6877  1.5845
  872MOL0     H17658   6.826   9.123   6.807 -0.4228 -2.9069  0.8509
  872MOL0     H17659   6.735   9.335   6.795  0.7949 -0.1130 -0.0216
  872MOL0     H17660   6.810   9.299   6.948  1.4586  0.2401 -1.7049
  872MOL0     H17661   6.513   9.271   6.912 -1.2416  1.6697  0.3332
  872MOL0     H17662   6.593   9.289   7.066 -2.3185  0.5863  0.2194
  872MOL0     H17663   6.577   9.493   6.856 -0.0191  1.3291 -0.3607
  872MOL0     H17664   6.494   9.490   7.010  0.4084  0.7929 -0.7334
  872MOL0     H17665   6.733   9.507   7.133 -2.0031  1.0398  0.7411
  872MOL0     H17666   6.797   9.506   6.973 -0.5166 -0.9923  0.5479
  872MOL0     H17667   6.583   9.710   7.044 -0.2084  0.0444 -0.5765
  872MOL0     H17668   6.694   9.702   6.908  1.6904  1.9856  0.0310
  872MOL0     H17669   6.755   9.743   7.212 -1.0666  1.0573  0.6001
  872MOL0     H17670   6.878   9.751   7.076  1.6687  1.5275  1.3879
  872MOL0     H17671   6.538   9.919   7.161 -0.3772 -1.1001 -1.9027
  872MOL0     H17672   6.554  10.285   7.018 -1.5414  0.1039  1.0654
  872MOL0     H17673   6.444  10.153   7.057 -0.9719  1.1008 -0.4063
  872MOL0     H17674   6.464  10.365   7.210 -0.0750  0.2500 -0.2843
  872MOL0     H17675   6.500  10.215   7.305  2.4023  1.1872  2.7776
  872MOL0     H17676   6.717  10.382   7.159 -0.5234 -0.4924 -0.5122
  872MOL0     H17677   6.730  10.244   7.269 -3.2196 -1.9725  0.3999
  872MOL0     H17678   6.649  10.366   7.444  0.2938 -1.1295 -0.2530
  872MOL0     H17679   6.610  10.515   7.347 -1.9892 -0.9901  1.1393
  872MOL0     H17680   6.675  10.639   7.193 -0.7185  0.4504  0.5385
  872MOL0     H17681   6.762  10.844   7.105  0.1430 -0.7863 -2.3963
  872MOL0     H17682   7.121  11.115   6.939  0.5711  0.9279 -0.7431
  872MOL0     H17683   7.167  11.322   6.843 -0.8160  2.0030 -0.9992
  872MOL0     H17684   7.196  11.569   6.841  0.6315 -0.4507 -1.3029
  872MOL0     H17685   7.114  11.554   6.682  1.1322  3.5229 -1.1147
  872MOL0     H17686   6.994  11.761   6.733 -0.3040  2.7117 -0.2343
  872MOL0     H17687   7.101  11.785   6.878 -3.9198  1.7323 -1.5584
  872MOL0     H17688   7.279  11.838   6.766  0.3408 -0.7867 -0.9351
  872MOL0     H17689   7.255  11.714   6.638  2.5211  0.3599 -1.4467
  872MOL0     H17690   7.229  11.972   6.587  1.3554 -0.7264 -0.8109
  872MOL0     H17691   7.072  11.960   6.674 -1.5575  1.0087 -1.5242
  872MOL0     H17692   7.010  11.769   6.528  2.2088 -0.4736  2.8336
  872MOL0     H17693   7.166  11.801   6.434  1.8445 -0.5470  2.4576
  872MOL0     H17694   6.936  11.991   6.433  1.5743  1.8279 -1.1073
  872MOL0     H17695   7.095  12.010   6.369 -0.3492  1.5267  1.8680
  872MOL0     H17696   6.905  11.791   6.276  2.0515 -1.9086  0.7364
  872MOL0     H17697   7.056  11.844   6.203 -1.3416 -0.5865  0.3621
  872MOL0     H17698   6.829  12.045   6.221  0.8309  3.7814 -2.8893
  872MOL0     H17699   6.989  12.060   6.150  0.4874 -2.0620 -1.1187
  872MOL0     H17700   6.813  11.498   7.023 -0.0636  0.5726 -0.1360
  872MOL0     H17701   6.765  11.261   7.116  1.5153 -2.8578  0.9553
  872MOL0     H17702   7.123  10.824   7.337 -0.2170  0.6588 -1.1184
  872MOL0     H17703   7.037  10.627   7.461  3.9390  5.2268 -1.1122
  872MOL0     H17704   6.743   8.894   6.655 -1.0075  1.0615  2.7365
  872MOL0     H17705   6.936   8.868   6.509  0.2720 -2.3727 -0.0752
  872MOL0     H17706   7.265   8.646   6.459 -2.7021  1.4145  0.1386
  872MOL0     H17707   7.406   8.528   6.313 -2.3659  0.2146  1.7264
  872MOL0     H17708   7.499   8.500   6.062  0.5192 -3.6819  0.1506
  872MOL0     H17709   7.586   8.425   6.196 -2.3324 -1.8395 -1.2992
  872MOL0     H17710   7.810   8.465   6.048  0.9531 -0.2499 -2.2020
  872MOL0     H17711   7.685   8.495   5.925  2.0469 -0.3079 -0.7813
  872MOL0     H17712   7.608   8.279   5.912 -0.3187  2.5965 -0.7813
  872MOL0     H17713   7.651   8.246   6.085 -3.7257 -0.1242 -1.3473
  872MOL0     H17714   7.887   8.224   5.998 -3.8460  0.9404  4.7460
  872MOL0     H17715   7.781   8.109   5.939 -2.4351  0.8740  2.2674
  872MOL0     H17716   7.943   8.278   5.607  1.2801  0.9802  0.4581
  872MOL0     H17717   7.679   8.849   6.270 -0.4332 -1.7119 -0.4307
  872MOL0     H17718   7.583   9.037   6.501  1.1720 -0.5281 -0.6298
  872MOL0     H17719   7.586   9.088   6.336  1.9947  0.4157  1.2404
  872MOL0     H17720   7.423   9.082   6.410  2.0602  4.8232 -1.5246
  873MOL0     O17721   7.450   8.255   0.407  0.3744 -0.2194  0.6613
  873MOL0     C17722   7.394   8.152   0.459  0.3960 -0.0037  0.4927
  873MOL0     O17723   7.304   8.068   0.391 -0.1843  0.8283 -0.1937
  873MOL0     C17724   7.290   8.099   0.260  0.0908  0.1733 -0.9890
  873MOL0     C17725   7.216   8.211   0.220  0.2422  0.2297 -0.3764
  873MOL0     C17726   7.206   8.239   0.083  0.5778  0.4159 -1.0999
  873MOL0     C17727   7.248   8.137  -0.006  0.0721 -0.4231 -1.1117
  873MOL0     O17728   7.230   8.132  -0.146 -0.1713 -0.1322 -0.2632
  873MOL0     C17729   7.173   8.245  -0.222 -0.4666 -0.6752 -0.1236
  873MOL0     C17730   7.020   8.240  -0.254 -0.6266  0.3993  0.1352
  873MOL0     C17731   6.996   8.092  -0.303 -0.3747  0.5509 -0.0318
  873MOL0     C17732   6.864   8.077  -0.390  0.1375 -0.4988 -0.8996
  873MOL0     C17733   6.764   7.973  -0.338 -0.6327 -0.3607  0.5689
  873MOL0     C17734   6.645   7.949  -0.441 -0.5951 -0.6139 -0.4364
  873MOL0     C17735   6.540   7.852  -0.390 -0.1699  0.2449 -0.2248
  873MOL0     C17736   6.461   7.778  -0.498 -0.7912 -0.1160  0.5783
  873MOL0     N17737   6.392   7.861  -0.596 -1.0062  0.0007 -0.6968
  873MOL0     C17738   6.251   7.878  -0.618 -0.2435  0.4360 -0.0838
  873MOL0     C17739   6.259   7.939  -0.745 -0.4550 -0.6336  0.1198
  873MOL0     C17740   6.133   7.963  -0.836 -0.3404 -0.0362 -0.0526
  873MOL0     C17741   6.040   8.063  -0.768  0.1354  0.4306 -0.5566
  873MOL0     C17742   6.109   8.204  -0.734  0.3769  0.2600  0.7844
  873MOL0     C17743   6.005   8.318  -0.735 -0.0579 -0.1587 -0.8016
  873MOL0     O17744   5.924   8.307  -0.617 -0.7505  0.1994  0.0982
  873MOL0     C17745   5.960   8.376  -0.503 -0.1521 -0.1816  1.1786
  873MOL0     C17746   6.080   8.443  -0.475 -0.5741  0.6972  0.5607
  873MOL0     C17747   6.099   8.530  -0.368 -0.3503 -0.2368 -0.7065
  873MOL0     C17748   5.996   8.534  -0.264  0.3163 -0.4304  0.1751
  873MOL0     C17749   6.018   8.618  -0.140 -0.0754 -1.0619  0.1454
  873MOL0     O17750   5.917   8.628  -0.042 -0.0089 -0.3655 -0.2095
  873MOL0     C17751   5.944   8.724   0.055 -0.5377  0.1716 -0.4590
  873MOL0     C17752   5.889   8.855   0.050 -0.8684  0.4456  0.4661
  873MOL0     C17753   5.932   8.942   0.153  0.6657 -0.1360  1.2273
  873MOL0     C17754   6.026   8.915   0.247 -0.0903  0.3383  0.3495
  873MOL0     O17755   6.085   9.001   0.339 -0.1102  0.8392  0.8809
  873MOL0     C17756   6.012   9.110   0.389  0.8027 -1.2020 -0.7549
  873MOL0     C17757   5.999   9.235   0.311 -0.4904  0.6301  0.8909
  873MOL0     C17758   6.136   9.311   0.284  0.1609  0.6176 -0.1093
  873MOL0     C17759   6.109   9.459   0.244 -0.8252  1.3257  0.3375
  873MOL0     C17760   6.240   9.526   0.201 -0.0322  0.3606  0.8609
  873MOL0     C17761   6.216   9.675   0.165  0.2772 -0.1923  0.3057
  873MOL0     C17762   6.345   9.739   0.116 -0.8299  0.5982 -0.2584
  873MOL0     C17763   6.299   9.874   0.067  0.4129  1.1516 -0.3551
  873MOL0    Cl17764   6.451   9.955  -0.007  0.0775  0.2378  0.3700
  873MOL0     C17765   6.069   8.781   0.254 -0.1926 -0.4834  0.4787
  873MOL0     C17766   6.030   8.688   0.156 -0.4282  0.4299  0.1911
  873MOL0     O17767   6.131   8.672  -0.134 -1.2079  1.1959  0.3251
  873MOL0     C17768   5.881   8.449  -0.281  0.1040 -1.1217  0.2981
  873MOL0     C17769   5.865   8.367  -0.394 -0.0556 -1.2847 -0.5707
  873MOL0     N17770   6.391   7.956  -0.788 -0.2658 -0.0200  0.2434
  873MOL0     N17771   6.465   7.908  -0.702  0.1645  0.7506  0.1830
  873MOL0     C17772   7.303   8.013   0.035 -0.6168 -0.3820 -0.1007
  873MOL0     C17773   7.332   7.995   0.174  0.0088 -0.2656  0.2950
  873MOL0     C17774   7.397   8.132   0.605 -0.2246 -1.0980  0.3736
  873MOL0     C17775   7.381   8.007   0.652  0.4714  0.0158 -0.4912
  873MOL0     C17776   7.394   7.967   0.785  0.5320 -0.3032  0.6584
  873MOL0     C17777   7.433   8.058   0.883  0.0489 -0.3933  0.1470
  873MOL0     O17778   7.444   8.038   1.018  1.1103  0.4292  0.1957
  873MOL0     C17779   7.515   7.919   1.051 -0.9909 -0.2609 -0.4074
  873MOL0     C17780   7.431   7.806   1.096  0.0700 -0.0235  0.4710
  873MOL0     C17781   7.516   7.676   1.104  0.3908 -0.1449 -0.3731
  873MOL0     C17782   7.433   7.550   1.123  0.1025  0.7151 -1.1924
  873MOL0     C17783   7.384   7.544   1.259  0.3130  0.8216  0.0524
  873MOL0     C17784   7.328   7.530   1.368  1.0755 -0.1460  0.1020
  873MOL0     C17785   7.445   8.197   0.839  0.1156  0.1736 -0.5002
  873MOL0     C17786   7.433   8.237   0.699 -0.0377  0.9643 -0.2337
  873MOL0     C17787   7.443   8.385   0.671  0.1865 -0.0488  0.0207
  873MOL0     H17788   7.178   8.286   0.288 -2.6677 -1.5247  0.1073
  873MOL0     H17789   7.143   8.325   0.065 -1.3777 -0.0025  2.7697
  873MOL0     H17790   7.195   8.342  -0.177 -3.4381  0.1399 -0.1974
  873MOL0     H17791   7.216   8.239  -0.322 -0.8512  0.5816 -0.3855
  873MOL0     H17792   6.988   8.307  -0.335 -0.8861  0.8112  0.5779
  873MOL0     H17793   6.967   8.261  -0.161  0.6457 -1.2568  1.2861
  873MOL0     H17794   6.996   8.025  -0.217  0.1492  2.8324  1.8369
  873MOL0     H17795   7.083   8.065  -0.364  2.0377 -0.1805  3.4379
  873MOL0     H17796   6.805   8.165  -0.414 -0.9099 -0.6360  0.9341
  873MOL0     H17797   6.878   8.033  -0.489 -1.8177 -1.0419 -0.9749
  873MOL0     H17798   6.817   7.878  -0.329  0.9271  0.0612 -2.6440
  873MOL0     H17799   6.743   8.000  -0.234  3.3247  1.8872  0.9900
  873MOL0     H17800   6.597   8.047  -0.452 -1.0327 -0.2825  3.2438
  873MOL0     H17801   6.691   7.907  -0.531 -0.1904  2.4092 -1.8028
  873MOL0     H17802   6.476   7.895  -0.313 -0.2324  0.9948 -0.6828
  873MOL0     H17803   6.606   7.781  -0.340  2.5425  1.9591 -1.1527
  873MOL0     H17804   6.527   7.713  -0.556 -1.3752 -0.9315  0.8150
  873MOL0     H17805   6.384   7.714  -0.454 -0.4040 -1.3422 -0.4814
  873MOL0     H17806   6.165   7.828  -0.575  0.3054 -0.5334 -0.0835
  873MOL0     H17807   6.171   8.008  -0.928  0.6218 -1.3428 -0.3358
  873MOL0     H17808   6.073   7.873  -0.853  1.4254 -1.2801  0.0676
  873MOL0     H17809   5.954   8.071  -0.835 -1.6382 -0.2528  1.5140
  873MOL0     H17810   6.010   8.030  -0.668 -0.5485  2.9105  0.1286
  873MOL0     H17811   6.177   8.223  -0.818  0.9710  2.6102  1.7186
  873MOL0     H17812   6.153   8.197  -0.634 -3.9071 -3.3850  2.7495
  873MOL0     H17813   5.950   8.299  -0.828 -0.6447  1.7698 -0.8914
  873MOL0     H17814   6.059   8.411  -0.752  0.9583 -1.2522 -4.4003
  873MOL0     H17815   6.162   8.411  -0.539 -2.3411 -0.5726 -1.2200
  873MOL0     H17816   6.201   8.561  -0.346  0.0492 -1.2814 -1.0230
  873MOL0     H17817   5.820   8.884  -0.028 -0.1624  1.6397  0.2707
  873MOL0     H17818   5.903   9.044   0.131  2.1591  0.1646  0.5569
  873MOL0     H17819   5.911   9.071   0.408  0.0311  1.2098  0.5267
  873MOL0     H17820   6.045   9.136   0.490 -2.1620 -0.9667  0.2779
  873MOL0     H17821   5.944   9.209   0.220  0.3508 -2.1747  1.0802
  873MOL0     H17822   5.932   9.301   0.366  1.1694  4.7970 -1.5548
  873MOL0     H17823   6.209   9.294   0.364  0.5944 -1.4248 -0.8831
  873MOL0     H17824   6.187   9.256   0.204 -0.1962 -0.3678  0.3175
  873MOL0     H17825   6.071   9.522   0.324  0.4309  2.8060 -0.1959
  873MOL0     H17826   6.043   9.456   0.157  1.3635 -0.9788 -1.4146
  873MOL0     H17827   6.276   9.466   0.116  2.5179 -0.3571  2.3490
  873MOL0     H17828   6.323   9.517   0.271 -0.2869 -2.1113  0.9243
  873MOL0     H17829   6.144   9.670   0.083  0.6284  0.5048 -0.0504
  873MOL0     H17830   6.170   9.728   0.249 -4.5348 -3.1854 -0.0624
  873MOL0     H17831   6.396   9.684   0.037  0.4232  0.2066  0.7710
  873MOL0     H17832   6.406   9.756   0.206  3.3916 -0.7680 -2.5538
  873MOL0     H17833   6.226   9.858  -0.013  1.3624 -2.5903 -0.6668
  873MOL0     H17834   6.256   9.926   0.153  1.1452  1.5794 -0.2392
  873MOL0     H17835   6.128   8.760   0.343  0.1091  2.3539  1.0402
  873MOL0     H17836   6.066   8.586   0.152 -2.0734 -0.2302  1.1497
  873MOL0     H17837   5.812   8.434  -0.199 -4.1524 -0.8592 -2.9300
  873MOL0     H17838   5.770   8.317  -0.406 -0.9386  0.0272  0.7374
  873MOL0     H17839   7.333   7.942  -0.041  0.5296 -0.1655  0.1420
  873MOL0     H17840   7.382   7.902   0.198 -0.7329 -1.2711 -1.8584
  873MOL0     H17841   7.333   7.927   0.596 -0.0483  0.0456 -0.0919
  873MOL0     H17842   7.369   7.865   0.809  3.3838 -1.2706 -0.0672
  873MOL0     H17843   7.593   7.940   1.124  0.5525 -3.4662 -0.9268
  873MOL0     H17844   7.576   7.879   0.969  2.6491 -0.7767  2.2980
  873MOL0     H17845   7.345   7.798   1.030  1.0319 -0.6198 -0.7591
  873MOL0     H17846   7.398   7.826   1.199 -0.9592  2.8841 -0.3180
  873MOL0     H17847   7.593   7.688   1.181 -0.5136  0.9793  0.4020
  873MOL0     H17848   7.568   7.660   1.009 -0.8771 -1.1292 -0.9288
  873MOL0     H17849   7.344   7.551   1.059 -1.6529 -2.4269  0.9609
  873MOL0     H17850   7.492   7.461   1.097  0.0733  1.1314 -2.7875
  873MOL0     H17851   7.271   7.514   1.458 -0.8513 -0.0543 -1.0417
  873MOL0     H17852   7.442   8.268   0.921  1.9902  0.8369 -0.9428
  873MOL0     H17853   7.457   8.439   0.765  2.5908 -0.1639 -0.2185
  873MOL0     H17854   7.531   8.398   0.608  0.0120  1.0668 -0.0119
  873MOL0     H17855   7.362   8.435   0.617  0.5689 -0.1577 -0.6631
  874MOL0     O17856   3.854   1.971   4.076 -0.4788 -0.1661 -0.8342
  874MOL0     C17857   3.858   1.997   3.955 -0.4722 -0.5727 -0.2076
  874MOL0     O17858   3.904   1.913   3.863 -0.7624  0.4281  0.0220
  874MOL0     C17859   3.925   1.784   3.905 -0.9730 -0.1488  0.2206
  874MOL0     C17860   4.055   1.757   3.960  0.3965 -0.8445  0.0195
  874MOL0     C17861   4.073   1.622   3.993 -0.3978 -0.0450  0.3280
  874MOL0     C17862   3.982   1.521   3.965 -0.4820 -0.0198 -0.9620
  874MOL0     O17863   4.021   1.396   4.002 -0.0828 -0.3496 -0.1178
  874MOL0     C17864   3.912   1.333   4.066  0.5712 -0.1974 -0.2002
  874MOL0     C17865   3.950   1.237   4.179 -0.7918  0.2440 -0.3335
  874MOL0     C17866   3.829   1.163   4.225  0.0181 -0.4836  1.3277
  874MOL0     C17867   3.828   1.143   4.372 -0.1473  0.4429 -0.4490
  874MOL0     C17868   3.698   1.073   4.420  0.5519 -0.1383 -0.3416
  874MOL0     C17869   3.677   1.094   4.579 -0.2034 -0.6356 -0.8968
  874MOL0     C17870   3.784   1.026   4.673 -0.1579 -0.0089 -0.0099
  874MOL0     C17871   3.760   0.879   4.713  0.0950 -1.0416  0.1093
  874MOL0     N17872   3.843   0.840   4.830 -0.0214  0.3626  1.2345
  874MOL0     C17873   3.932   0.731   4.830  0.4959 -0.9590 -0.0654
  874MOL0     C17874   3.979   0.728   4.950 -0.4389  1.5310  0.0838
  874MOL0     C17875   4.092   0.631   4.992 -0.6532  0.3774 -0.2724
  874MOL0     C17876   4.229   0.689   4.979  0.2157  0.5771  0.3071
  874MOL0     C17877   4.248   0.839   4.973  0.4233 -0.4548 -0.7254
  874MOL0     C17878   4.396   0.877   4.959  0.0502  0.3135  0.1429
  874MOL0     O17879   4.391   1.019   4.957 -0.3999 -0.6342  0.0828
  874MOL0     C17880   4.509   1.094   4.973  0.4491 -0.7266  0.4074
  874MOL0     C17881   4.497   1.220   5.038  0.9697  0.2709 -0.7727
  874MOL0     C17882   4.607   1.300   5.051  0.0948  0.6049 -0.3488
  874MOL0     C17883   4.729   1.269   4.990  0.3505 -0.3616  0.3141
  874MOL0     C17884   4.848   1.369   4.999  0.4082 -0.3922 -0.7085
  874MOL0     O17885   4.968   1.323   4.960  0.1399 -0.9763 -0.1716
  874MOL0     C17886   5.096   1.374   5.000 -0.2543 -0.6009 -0.3033
  874MOL0     C17887   5.121   1.497   5.063  0.1707 -0.4489  0.9765
  874MOL0     C17888   5.244   1.546   5.086  0.7039  0.3173  1.3689
  874MOL0     C17889   5.359   1.472   5.057  0.5687 -0.1657 -0.1052
  874MOL0     O17890   5.480   1.520   5.092 -0.7412 -0.4900  0.0536
  874MOL0     C17891   5.542   1.603   4.999  0.0216 -0.4652  0.4308
  874MOL0     C17892   5.660   1.674   5.075  0.8444 -0.1308 -0.6316
  874MOL0     C17893   5.621   1.786   5.177 -0.3154 -0.0183  0.9784
  874MOL0     C17894   5.720   1.809   5.284  0.3631 -0.6903  0.9142
  874MOL0     C17895   5.859   1.843   5.234  0.2131 -0.4371  0.3877
  874MOL0     C17896   5.971   1.834   5.341  0.3338 -0.9376  0.4624
  874MOL0     C17897   6.113   1.872   5.287  0.1452  0.2655 -0.6040
  874MOL0     C17898   6.144   2.013   5.246 -1.0262  0.0825 -0.1968
  874MOL0    Cl17899   6.136   2.114   5.395 -0.0451 -0.0053 -0.7250
  874MOL0     C17900   5.340   1.348   4.999 -0.2649  0.0214 -0.8149
  874MOL0     C17901   5.202   1.298   4.977 -0.3231 -0.5930  0.2010
  874MOL0     O17902   4.826   1.477   5.057 -0.7057  0.5993  0.1598
  874MOL0     C17903   4.752   1.147   4.923  0.7719  0.2584 -0.7007
  874MOL0     C17904   4.641   1.057   4.922  1.0780 -0.2002  0.1602
  874MOL0     N17905   3.917   0.825   5.029  0.1003 -0.8272 -0.1240
  874MOL0     N17906   3.835   0.888   4.954  0.9168 -0.3346  0.4104
  874MOL0     C17907   3.858   1.543   3.892 -0.1557 -1.1780 -0.9257
  874MOL0     C17908   3.826   1.684   3.872 -0.6351 -0.1252 -0.0033
  874MOL0     C17909   3.832   2.137   3.928 -0.0964 -0.8179  0.2823
  874MOL0     C17910   3.779   2.218   4.030 -0.0884  0.1170 -0.4451
  874MOL0     C17911   3.760   2.359   4.017  0.0970 -1.1121  0.2823
  874MOL0     C17912   3.801   2.424   3.906  0.0170 -0.5495  0.4467
  874MOL0     O17913   3.786   2.561   3.892 -0.7869  0.5632  0.0824
  874MOL0     C17914   3.660   2.599   3.833  0.7891  0.8483 -0.3607
  874MOL0     C17915   3.688   2.708   3.726  0.1091 -0.0437 -0.3490
  874MOL0     C17916   3.799   2.677   3.630  0.8302 -0.2533  0.3073
  874MOL0     C17917   3.748   2.570   3.535  0.6695 -0.0480  0.0212
  874MOL0     C17918   3.853   2.516   3.448  0.1031 -0.7629  0.5680
  874MOL0     C17919   3.945   2.470   3.379 -0.2173  0.5264 -0.5553
  874MOL0     C17920   3.872   2.351   3.809  0.0891 -0.0285 -0.7222
  874MOL0     C17921   3.892   2.213   3.820 -1.5404 -0.1793  0.1918
  874MOL0     C17922   3.968   2.153   3.704  0.1410  0.0471  0.0537
  874MOL0     H17923   4.131   1.833   3.975  0.6114 -0.6643 -1.6751
  874MOL0     H17924   4.165   1.584   4.035  0.9642  0.7826 -1.7165
  874MOL0     H17925   3.843   1.403   4.113 -1.2096 -2.2754  0.4858
  874MOL0     H17926   3.865   1.280   3.982  2.1500 -1.5860 -0.2685
  874MOL0     H17927   3.983   1.297   4.264  0.5229 -1.8468  0.7352
  874MOL0     H17928   4.032   1.171   4.148 -1.9125 -1.7486  0.7477
  874MOL0     H17929   3.807   1.074   4.166  4.8200  0.7892 -3.0549
  874MOL0     H17930   3.743   1.230   4.209  0.9453  0.3622 -0.3707
  874MOL0     H17931   3.910   1.078   4.404  0.2683  0.8042 -0.7615
  874MOL0     H17932   3.840   1.242   4.417 -0.5804 -1.5182  4.5581
  874MOL0     H17933   3.617   1.112   4.358  0.1128 -0.3341  0.1064
  874MOL0     H17934   3.706   0.966   4.398  1.7498 -0.3383  0.9563
  874MOL0     H17935   3.687   1.202   4.585 -1.6292 -0.5558  0.4839
  874MOL0     H17936   3.580   1.061   4.617 -0.6805 -3.1780 -3.8406
  874MOL0     H17937   3.772   1.086   4.764  0.9563 -1.2545  0.9892
  874MOL0     H17938   3.885   1.039   4.635  0.5173  0.7876  1.9532
  874MOL0     H17939   3.654   0.862   4.737 -0.1642 -1.5884 -1.3302
  874MOL0     H17940   3.781   0.810   4.631 -2.8418 -1.2884 -0.5434
  874MOL0     H17941   3.972   0.684   4.741 -0.2007 -2.3161  0.3124
  874MOL0     H17942   4.074   0.604   5.096 -2.1280  3.9487  0.5679
  874MOL0     H17943   4.089   0.541   4.931  4.1572  0.2883 -0.7791
  874MOL0     H17944   4.273   0.666   5.077 -1.6294  1.3236  1.3633
  874MOL0     H17945   4.282   0.638   4.898  1.0827 -2.7113  2.7296
  874MOL0     H17946   4.219   0.889   5.065  2.7650  0.2164 -0.2950
  874MOL0     H17947   4.179   0.875   4.897  0.3813  1.2198  0.0711
  874MOL0     H17948   4.438   0.831   4.869  3.5425  3.0087  0.1751
  874MOL0     H17949   4.457   0.847   5.045  1.5036  0.7228 -0.7136
  874MOL0     H17950   4.396   1.239   5.073  1.4513  1.2886  0.1301
  874MOL0     H17951   4.597   1.379   5.125  1.4178 -1.1717  1.8391
  874MOL0     H17952   5.044   1.572   5.081 -0.3185 -0.6507 -0.1771
  874MOL0     H17953   5.262   1.649   5.116 -1.2373  1.3617 -0.7564
  874MOL0     H17954   5.582   1.531   4.926  1.1680 -0.4763  1.0494
  874MOL0     H17955   5.483   1.680   4.948  0.4262 -0.6329 -0.3174
  874MOL0     H17956   5.702   1.589   5.128 -3.9621 -1.0601  2.2434
  874MOL0     H17957   5.733   1.709   5.001 -0.0398 -1.6031 -2.2651
  874MOL0     H17958   5.619   1.879   5.119 -0.0779 -1.9441 -2.3602
  874MOL0     H17959   5.521   1.780   5.220 -0.4456  1.0134  0.8528
  874MOL0     H17960   5.703   1.739   5.367  1.5472 -0.0229  1.7521
  874MOL0     H17961   5.699   1.906   5.328  3.5040  0.2092  0.6357
  874MOL0     H17962   5.843   1.936   5.177  0.0349 -0.4038  0.4909
  874MOL0     H17963   5.882   1.758   5.169  1.1803  0.1769 -0.1043
  874MOL0     H17964   5.941   1.908   5.415  3.6148  0.0291  1.0040
  874MOL0     H17965   5.968   1.729   5.372 -1.7840 -0.9215  0.4599
  874MOL0     H17966   6.126   1.801   5.204 -2.1152 -1.6706  0.5623
  874MOL0     H17967   6.193   1.856   5.360  1.2052  4.9507 -0.4727
  874MOL0     H17968   6.239   2.017   5.191 -1.1888 -2.6714 -0.8426
  874MOL0     H17969   6.069   2.067   5.186 -0.6603  2.8246  1.6420
  874MOL0     H17970   5.423   1.291   4.958  1.3325  2.3615 -1.0424
  874MOL0     H17971   5.185   1.203   4.929 -0.2875 -1.3629  1.6631
  874MOL0     H17972   4.852   1.118   4.893  0.3713 -1.0287 -0.8680
  874MOL0     H17973   4.661   0.959   4.879  2.4239  0.7216 -1.4229
  874MOL0     H17974   3.782   1.469   3.867 -2.2919  0.3222  0.7910
  874MOL0     H17975   3.736   1.725   3.826 -0.8663  2.1466  2.2273
  874MOL0     H17976   3.739   2.178   4.123 -1.1179  2.2785  0.1044
  874MOL0     H17977   3.710   2.416   4.094 -0.5193  0.3305 -1.1363
  874MOL0     H17978   3.600   2.643   3.913  0.2733 -0.5197  0.0374
  874MOL0     H17979   3.601   2.513   3.800  0.2328  0.8390  0.6210
  874MOL0     H17980   3.709   2.800   3.783  1.1235 -1.1960  1.2287
  874MOL0     H17981   3.603   2.727   3.660 -1.0760 -1.5016  0.6793
  874MOL0     H17982   3.882   2.645   3.695 -0.2558  1.8105  2.9159
  874MOL0     H17983   3.818   2.769   3.574 -0.1579 -1.0696 -1.4310
  874MOL0     H17984   3.688   2.502   3.596 -1.0861  1.5242  0.1520
  874MOL0     H17985   3.679   2.615   3.462 -0.0419 -1.1865 -0.0216
  874MOL0     H17986   4.013   2.420   3.313  1.7999 -0.5631  2.1444
  874MOL0     H17987   3.911   2.406   3.724  0.5896  2.5081  1.0339
  874MOL0     H17988   3.931   2.053   3.680  0.3354 -1.0532  3.6838
  874MOL0     H17989   3.964   2.206   3.609 -0.1791  0.5232  0.3298
  874MOL0     H17990   4.073   2.145   3.733  0.5314 -0.6752 -1.4606
  875MOL0     O17991   0.167   4.265   2.741 -0.3172  0.1678  0.0166
  875MOL0     C17992   0.169   4.340   2.838 -1.2276 -0.3828 -0.6864
  875MOL0     O17993   0.276   4.420   2.874  0.2243  0.0527 -0.2075
  875MOL0     C17994   0.383   4.427   2.795 -0.3773 -0.4095  0.0359
  875MOL0     C17995   0.472   4.314   2.808 -0.0349 -0.9133  0.8091
  875MOL0     C17996   0.591   4.312   2.721  0.4805 -0.8760 -0.3667
  875MOL0     C17997   0.622   4.408   2.625  0.3960 -1.0010 -0.4391
  875MOL0     O17998   0.734   4.424   2.548  0.1194  0.2052 -0.5426
  875MOL0     C17999   0.849   4.343   2.572  1.5429 -0.6937 -0.3651
  875MOL0     C18000   0.942   4.413   2.464 -0.1402 -0.3845  0.6650
  875MOL0     C18001   1.092   4.410   2.503  0.3582  0.4945  0.1887
  875MOL0     C18002   1.142   4.558   2.510 -1.1007  0.6549 -0.1542
  875MOL0     C18003   1.298   4.571   2.515  0.3535  0.5273 -0.3599
  875MOL0     C18004   1.336   4.526   2.663  0.1139  0.7954  1.0368
  875MOL0     C18005   1.485   4.560   2.681  0.7245 -0.4729  0.1247
  875MOL0     C18006   1.532   4.556   2.827 -0.3731  0.7884 -0.3977
  875MOL0     N18007   1.504   4.685   2.891  0.4797  0.5351 -0.2621
  875MOL0     C18008   1.586   4.796   2.904 -0.0090 -0.5249 -0.0370
  875MOL0     C18009   1.518   4.881   2.985 -0.0808  0.0077  0.2815
  875MOL0     C18010   1.566   5.022   3.026 -0.5883  0.0258 -1.6471
  875MOL0     C18011   1.453   5.121   3.053 -0.0472 -0.8468 -0.0787
  875MOL0     C18012   1.380   5.145   2.918 -0.2613 -0.3122 -0.6233
  875MOL0     C18013   1.419   5.281   2.867  0.0732 -0.6865  0.7131
  875MOL0     O18014   1.361   5.312   2.740  0.6946  0.8601 -0.3650
  875MOL0     C18015   1.233   5.356   2.744  0.1109  0.8515 -0.0028
  875MOL0     C18016   1.141   5.306   2.648  0.2001 -0.7177  0.6997
  875MOL0     C18017   1.021   5.367   2.625 -0.4793 -0.8108  0.5992
  875MOL0     C18018   0.981   5.476   2.704  0.4289  0.3065 -0.1053
  875MOL0     C18019   0.855   5.544   2.672  0.6237 -0.7330  0.4718
  875MOL0     O18020   0.786   5.498   2.563  0.2843 -0.8253  0.0071
  875MOL0     C18021   0.670   5.561   2.530  0.2491 -0.7153  0.4480
  875MOL0     C18022   0.657   5.540   2.397 -0.5343 -0.3079 -0.4372
  875MOL0     C18023   0.545   5.582   2.322 -0.8079  0.0530  0.5677
  875MOL0     C18024   0.434   5.642   2.384 -0.5430 -0.3204  0.4210
  875MOL0     O18025   0.317   5.665   2.315 -0.0485 -0.5126  0.5086
  875MOL0     C18026   0.283   5.806   2.302 -0.0531  0.3780 -0.5220
  875MOL0     C18027   0.383   5.872   2.206 -0.4987 -0.0438 -0.0965
  875MOL0     C18028   0.336   6.012   2.161 -0.3360 -0.0110 -0.1855
  875MOL0     C18029   0.330   6.112   2.270 -0.1538 -0.2341 -0.0524
  875MOL0     C18030   0.323   6.253   2.208  0.3379  0.1803  0.0537
  875MOL0     C18031   0.254   6.345   2.313  1.3613  0.3186  0.6727
  875MOL0     C18032   0.338   6.349   2.442 -0.1464  0.1522  0.7221
  875MOL0     C18033   0.268   6.440   2.532 -0.0562 -0.2525  0.5292
  875MOL0    Cl18034   0.114   6.371   2.582 -0.4183 -0.7302  0.0636
  875MOL0     C18035   0.447   5.664   2.522  0.7494 -0.0609  0.1983
  875MOL0     C18036   0.560   5.622   2.593  0.8094 -0.5269 -0.2551
  875MOL0     O18037   0.814   5.636   2.744 -0.4753 -0.1221  0.5170
  875MOL0     C18038   1.064   5.523   2.804 -0.1233  0.2081  0.0875
  875MOL0     C18039   1.191   5.469   2.820 -0.5772  0.0286  0.5350
  875MOL0     N18040   1.394   4.823   3.014  0.3029  0.0564 -0.1347
  875MOL0     N18041   1.387   4.706   2.964  0.0072 -0.8384  0.0252
  875MOL0     C18042   0.523   4.513   2.608  0.2918  0.7084 -0.3184
  875MOL0     C18043   0.403   4.524   2.697  1.4713  0.0816 -0.6462
  875MOL0     C18044   0.052   4.323   2.924 -0.3462  0.8331  0.4130
  875MOL0     C18045   0.074   4.351   3.057  0.6283 -0.4694  0.3075
  875MOL0     C18046  -0.029   4.362   3.150  0.3089 -0.0606 -0.3999
  875MOL0     C18047  -0.153   4.314   3.121 -0.5533  0.5239 -0.5073
  875MOL0     O18048  -0.263   4.318   3.210  0.3333  0.2994  0.0288
  875MOL0     C18049  -0.230   4.359   3.346 -0.0329  0.6268  0.6579
  875MOL0     C18050  -0.349   4.322   3.426  0.0986 -0.7401 -0.5160
  875MOL0     C18051  -0.340   4.343   3.579  0.1583  0.6368  0.1849
  875MOL0     C18052  -0.480   4.376   3.635  0.5426 -0.7502 -0.4232
  875MOL0     C18053  -0.582   4.272   3.624  0.0557 -0.0119 -0.5149
  875MOL0     C18054  -0.663   4.177   3.623  0.2394  0.9925 -0.2772
  875MOL0     C18055  -0.171   4.266   2.993  0.0095  0.2311 -0.4165
  875MOL0     C18056  -0.074   4.266   2.894  0.9804  0.8773 -0.5975
  875MOL0     C18057  -0.121   4.228   2.751 -0.5591  0.0606 -1.1981
  875MOL0     H18058   0.440   4.246   2.886 -1.5534  0.4628  1.4582
  875MOL0     H18059   0.664   4.233   2.735  1.1224 -0.4307 -1.1727
  875MOL0     H18060   0.888   4.377   2.669  2.6569 -1.0465 -0.6752
  875MOL0     H18061   0.832   4.236   2.556 -0.2964 -0.4002 -0.5614
  875MOL0     H18062   0.913   4.517   2.447 -0.8283 -0.2272  2.6105
  875MOL0     H18063   0.933   4.356   2.371  0.1301  0.4687  0.1045
  875MOL0     H18064   1.149   4.359   2.423 -0.0606 -0.1503  0.2920
  875MOL0     H18065   1.101   4.356   2.598 -2.7903 -0.1718  0.1918
  875MOL0     H18066   1.127   4.608   2.414  0.2433  1.6944  0.1384
  875MOL0     H18067   1.091   4.612   2.591 -1.9929  2.0337 -1.5898
  875MOL0     H18068   1.359   4.525   2.436 -0.1821 -3.4182  1.3330
  875MOL0     H18069   1.317   4.679   2.510 -3.1209  1.1916 -1.7717
  875MOL0     H18070   1.259   4.576   2.721 -0.2723 -0.3119  1.5054
  875MOL0     H18071   1.326   4.420   2.690  0.7555  0.5733  0.4358
  875MOL0     H18072   1.502   4.659   2.637 -2.4154  1.6082  3.0657
  875MOL0     H18073   1.538   4.484   2.624 -0.5521 -0.5483 -1.0231
  875MOL0     H18074   1.481   4.476   2.881  0.1389 -0.3155 -1.5059
  875MOL0     H18075   1.639   4.537   2.825 -0.3470  0.8603  0.1799
  875MOL0     H18076   1.681   4.823   2.859  0.9333 -3.1675  0.2176
  875MOL0     H18077   1.626   4.998   3.114 -1.7177 -0.9291 -1.1096
  875MOL0     H18078   1.637   5.060   2.952  0.5917 -2.6795 -2.0024
  875MOL0     H18079   1.391   5.072   3.127 -0.1295 -0.3210  0.2054
  875MOL0     H18080   1.491   5.206   3.111 -1.5240 -2.2350  3.1561
  875MOL0     H18081   1.273   5.124   2.928  0.0314 -1.9348 -0.6090
  875MOL0     H18082   1.416   5.069   2.848 -0.1440 -1.3628  0.5317
  875MOL0     H18083   1.526   5.291   2.845 -0.5609  1.0582 -2.2386
  875MOL0     H18084   1.391   5.356   2.942 -0.0532  0.4424 -0.4151
  875MOL0     H18085   1.173   5.221   2.590  0.7281  1.2391 -2.0754
  875MOL0     H18086   0.945   5.329   2.557  2.0256  0.2299 -3.0826
  875MOL0     H18087   0.732   5.483   2.342  3.2142  1.3856  2.4440
  875MOL0     H18088   0.551   5.564   2.216  0.5250 -2.7635  1.0222
  875MOL0     H18089   0.184   5.808   2.255 -0.7324  2.9067  0.7902
  875MOL0     H18090   0.276   5.862   2.396  1.3761 -0.7756  0.3198
  875MOL0     H18091   0.473   5.893   2.263 -0.4377  1.5760 -0.7136
  875MOL0     H18092   0.408   5.815   2.116 -0.4796 -1.4592  0.7801
  875MOL0     H18093   0.395   6.055   2.080  0.9842  2.2251  1.8323
  875MOL0     H18094   0.236   6.010   2.115 -1.6997  0.4027  2.5147
  875MOL0     H18095   0.422   6.108   2.328  1.0459  0.0132 -1.8382
  875MOL0     H18096   0.244   6.094   2.334  2.0048 -1.0333  2.7928
  875MOL0     H18097   0.271   6.249   2.112  0.6884 -0.0088 -0.1287
  875MOL0     H18098   0.422   6.292   2.185 -0.3861 -0.2827 -4.8926
  875MOL0     H18099   0.243   6.447   2.275 -0.5775 -0.0016  0.2542
  875MOL0     H18100   0.150   6.317   2.333  1.5141 -1.7615 -1.0863
  875MOL0     H18101   0.444   6.371   2.426 -0.2980  0.5203  0.1742
  875MOL0     H18102   0.330   6.255   2.497 -5.5787 -0.9325 -1.2824
  875MOL0     H18103   0.324   6.460   2.624  2.4500  3.5767 -1.5985
  875MOL0     H18104   0.261   6.536   2.481 -2.1086  0.2420  1.6262
  875MOL0     H18105   0.364   5.712   2.572 -0.4538 -1.8074 -0.0337
  875MOL0     H18106   0.549   5.618   2.701 -1.0669 -0.5693 -0.4132
  875MOL0     H18107   1.038   5.613   2.857  1.3023  0.3875  0.5231
  875MOL0     H18108   1.256   5.527   2.885  0.1626 -0.3896  0.1798
  875MOL0     H18109   0.556   4.591   2.541  1.3745  2.5286  2.1910
  875MOL0     H18110   0.329   4.602   2.678 -0.6545 -1.5887  0.2741
  875MOL0     H18111   0.177   4.374   3.083  0.9067 -0.0005 -1.1141
  875MOL0     H18112  -0.014   4.399   3.251 -1.7980 -1.0834  0.3519
  875MOL0     H18113  -0.204   4.465   3.356  4.3845 -0.1848 -0.0192
  875MOL0     H18114  -0.144   4.299   3.377 -0.1545 -0.0164 -0.2055
  875MOL0     H18115  -0.381   4.219   3.406 -1.7751 -1.2728  3.9243
  875MOL0     H18116  -0.426   4.390   3.389 -2.7253 -2.4541  1.7723
  875MOL0     H18117  -0.271   4.425   3.601  1.7080 -0.5087 -0.2583
  875MOL0     H18118  -0.308   4.250   3.627 -1.3385 -1.7171 -3.0190
  875MOL0     H18119  -0.478   4.401   3.742 -0.6490 -1.8260 -0.1267
  875MOL0     H18120  -0.515   4.471   3.593 -1.8281 -0.9194  0.9940
  875MOL0     H18121  -0.744   4.111   3.647 -2.2015  3.7143 -0.4621
  875MOL0     H18122  -0.271   4.237   2.962  0.6566  0.1783 -2.5830
  875MOL0     H18123  -0.227   4.202   2.763 -0.9211  2.0384  0.4787
  875MOL0     H18124  -0.103   4.309   2.679 -0.0474  1.9564  0.9259
  875MOL0     H18125  -0.060   4.138   2.740 -1.1237 -0.7816  1.6537
  876MOL0     O18126   1.380   5.826   0.988 -0.2723  0.7013 -0.0222
  876MOL0     C18127   1.329   5.718   1.018 -0.6058  0.4458  0.6978
  876MOL0     O18128   1.233   5.648   0.944 -0.1417 -0.2577 -0.8525
  876MOL0     C18129   1.232   5.689   0.818  0.6945 -0.2356  0.0740
  876MOL0     C18130   1.352   5.696   0.736 -0.3377  0.9248  0.4205
  876MOL0     C18131   1.351   5.742   0.609  0.0210  0.1493  0.1050
  876MOL0     C18132   1.227   5.790   0.554  0.2262 -0.2740  1.0282
  876MOL0     O18133   1.215   5.856   0.434 -0.9332 -0.6414 -0.0627
  876MOL0     C18134   1.141   5.796   0.328  0.6006  0.6161  0.3479
  876MOL0     C18135   1.217   5.675   0.273 -0.2129  0.2587  0.5643
  876MOL0     C18136   1.131   5.571   0.203 -1.0637 -0.6735  0.3353
  876MOL0     C18137   1.028   5.502   0.293  1.0741 -0.2420  0.3894
  876MOL0     C18138   0.994   5.369   0.235 -0.2346  0.1466 -0.0305
  876MOL0     C18139   0.924   5.375   0.093  0.1114  0.3146  0.7210
  876MOL0     C18140   0.922   5.233   0.019  0.3047  0.3726 -0.3849
  876MOL0     C18141   1.054   5.191  -0.058  0.7133 -0.5507 -1.1030
  876MOL0     N18142   1.084   5.268  -0.176 -0.6341 -0.4064 -0.2320
  876MOL0     C18143   0.993   5.290  -0.281 -0.0549  0.6356 -0.6126
  876MOL0     C18144   1.036   5.405  -0.335 -0.6234 -1.1280  0.4505
  876MOL0     C18145   0.969   5.468  -0.451  0.2087 -0.2917  0.1706
  876MOL0     C18146   1.002   5.382  -0.579 -0.5712  0.4182 -0.6873
  876MOL0     C18147   1.154   5.386  -0.615 -0.0282 -0.9322  0.2550
  876MOL0     C18148   1.206   5.519  -0.658 -0.5916 -0.6207 -0.2487
  876MOL0     O18149   1.136   5.554  -0.784  0.2296 -0.0771 -0.0501
  876MOL0     C18150   1.187   5.657  -0.860 -0.7085 -1.2172 -0.0983
  876MOL0     C18151   1.227   5.779  -0.804  0.3593 -0.5707  0.3256
  876MOL0     C18152   1.279   5.873  -0.895 -0.5693 -0.3575 -0.2584
  876MOL0     C18153   1.279   5.866  -1.031 -0.3260 -0.0942  0.6854
  876MOL0     C18154   1.335   5.964  -1.129  0.1445  0.0159 -0.1634
  876MOL0     O18155   1.340   6.087  -1.075 -0.9003  0.2071 -0.1322
  876MOL0     C18156   1.428   6.179  -1.132 -1.0253 -0.1110 -0.1903
  876MOL0     C18157   1.557   6.147  -1.180  0.3778  0.3472 -0.4509
  876MOL0     C18158   1.638   6.244  -1.247  0.7355  0.1172 -0.3904
  876MOL0     C18159   1.584   6.368  -1.272 -0.4776 -0.1840 -0.6877
  876MOL0     O18160   1.674   6.469  -1.299  0.2217  0.1731 -0.4037
  876MOL0     C18161   1.793   6.441  -1.367  0.2693  0.4232 -0.5420
  876MOL0     C18162   1.819   6.564  -1.451 -0.5215  0.3397 -0.1557
  876MOL0     C18163   1.842   6.696  -1.378  0.1641  0.3192  0.6198
  876MOL0     C18164   1.980   6.703  -1.306  0.2660 -0.5117  0.1008
  876MOL0     C18165   2.000   6.828  -1.221  0.4357  0.5598 -0.4137
  876MOL0     C18166   2.072   6.948  -1.285 -0.3549  1.0625  0.2473
  876MOL0     C18167   2.026   6.981  -1.423  0.4360  0.3180  0.7897
  876MOL0     C18168   2.091   7.122  -1.466 -0.8670  0.2276  0.0533
  876MOL0    Cl18169   2.276   7.102  -1.495  0.0092  0.0839  0.5184
  876MOL0     C18170   1.453   6.396  -1.228 -0.4118  0.1004 -0.8088
  876MOL0     C18171   1.383   6.309  -1.146 -0.5415 -0.0612 -0.0387
  876MOL0     O18172   1.366   5.934  -1.241  0.4842  0.3247 -0.5398
  876MOL0     C18173   1.245   5.741  -1.077 -0.0553  0.8250  0.3440
  876MOL0     C18174   1.202   5.639  -0.998  0.3526 -0.4151  0.8184
  876MOL0     N18175   1.150   5.449  -0.266 -0.0728  0.2830 -0.2971
  876MOL0     N18176   1.178   5.366  -0.170 -0.0612 -0.2330  0.1719
  876MOL0     C18177   1.106   5.763   0.631  0.4261 -0.3022  0.9879
  876MOL0     C18178   1.106   5.724   0.761  0.1326  0.5512 -0.0637
  876MOL0     C18179   1.372   5.649   1.140  0.0359 -0.7326  0.6175
  876MOL0     C18180   1.265   5.593   1.214  0.6070 -0.6896 -0.5153
  876MOL0     C18181   1.296   5.544   1.343  0.0636  0.1463 -0.3217
  876MOL0     C18182   1.426   5.567   1.392 -0.4391  0.5628 -0.2020
  876MOL0     O18183   1.454   5.524   1.519 -1.0020  0.6932 -0.1683
  876MOL0     C18184   1.432   5.622   1.618 -0.6235 -1.1500 -0.1381
  876MOL0     C18185   1.363   5.566   1.734 -0.3557  0.2968  0.1477
  876MOL0     C18186   1.355   5.673   1.850 -0.0661  0.3915 -0.3783
  876MOL0     C18187   1.253   5.645   1.965 -0.1160 -0.6026  0.6813
  876MOL0     C18188   1.277   5.756   2.055 -1.0489 -0.3594 -0.4501
  876MOL0     C18189   1.298   5.844   2.146 -0.0493  0.4155  0.0638
  876MOL0     C18190   1.533   5.621   1.325  0.5667 -0.1209  0.5707
  876MOL0     C18191   1.509   5.653   1.191 -0.7997 -0.8880 -0.3843
  876MOL0     C18192   1.618   5.715   1.110  0.1438 -0.3640  0.1692
  876MOL0     H18193   1.452   5.667   0.768  1.3099  1.4732 -3.6644
  876MOL0     H18194   1.442   5.750   0.551 -0.2588  0.5861 -0.2717
  876MOL0     H18195   1.036   5.779   0.354 -0.0746  0.0340 -2.4885
  876MOL0     H18196   1.130   5.866   0.245  0.8954  0.8886  0.5340
  876MOL0     H18197   1.263   5.631   0.363 -2.1402 -1.0170  0.9832
  876MOL0     H18198   1.301   5.711   0.212 -0.9593  1.8532  0.4254
  876MOL0     H18199   1.199   5.498   0.158  0.7684  2.0827 -1.6903
  876MOL0     H18200   1.084   5.610   0.113 -1.3385 -2.1605 -0.1914
  876MOL0     H18201   1.066   5.506   0.395  2.5840  0.7813 -0.1591
  876MOL0     H18202   0.937   5.561   0.307  1.9195  0.6405  2.5693
  876MOL0     H18203   1.086   5.315   0.210  0.1178 -0.0528  1.5867
  876MOL0     H18204   0.936   5.302   0.300 -0.0645 -2.3835 -2.3051
  876MOL0     H18205   0.819   5.406   0.100  0.6592  2.7092 -0.7158
  876MOL0     H18206   0.969   5.440   0.018 -1.6735  0.2468 -0.4832
  876MOL0     H18207   0.837   5.223  -0.050 -0.1902  2.4172 -0.1184
  876MOL0     H18208   0.917   5.160   0.101  3.2380  4.4721  3.9596
  876MOL0     H18209   1.139   5.198   0.010 -0.1329  1.3350 -0.1454
  876MOL0     H18210   1.051   5.085  -0.083  0.8663 -0.4016 -1.7520
  876MOL0     H18211   0.895   5.248  -0.299  0.0346 -0.0197  0.3544
  876MOL0     H18212   0.862   5.472  -0.428  0.4289  1.5630  0.9935
  876MOL0     H18213   0.994   5.574  -0.458  2.3295 -0.5641  2.5152
  876MOL0     H18214   0.970   5.279  -0.562 -2.4239  1.4906  3.9457
  876MOL0     H18215   0.933   5.422  -0.654 -1.7563  0.4119  0.3675
  876MOL0     H18216   1.165   5.326  -0.705  0.2704  2.3515 -2.0762
  876MOL0     H18217   1.218   5.342  -0.537  0.4541 -2.3544 -0.9071
  876MOL0     H18218   1.313   5.506  -0.679  0.0399 -0.3437  2.4343
  876MOL0     H18219   1.186   5.590  -0.577 -1.2854  0.6676 -1.5015
  876MOL0     H18220   1.203   5.804  -0.701  1.2629 -1.0386  0.6690
  876MOL0     H18221   1.318   5.968  -0.861  3.3739 -0.3703 -3.8993
  876MOL0     H18222   1.587   6.043  -1.170  1.2393  0.7965  4.1544
  876MOL0     H18223   1.737   6.210  -1.277  1.0088  1.5101 -1.1767
  876MOL0     H18224   1.871   6.425  -1.291  0.9288  0.2925 -1.2278
  876MOL0     H18225   1.797   6.353  -1.433 -0.9203 -1.5218  1.8279
  876MOL0     H18226   1.900   6.532  -1.517  0.9280  0.8993  1.3133
  876MOL0     H18227   1.728   6.582  -1.509  0.3696 -0.2280 -1.8131
  876MOL0     H18228   1.831   6.768  -1.459 -0.5404 -2.0916 -1.5705
  876MOL0     H18229   1.767   6.713  -1.300 -1.2088 -0.3450 -0.5248
  876MOL0     H18230   2.062   6.693  -1.378 -1.3909  1.6305 -2.2730
  876MOL0     H18231   1.986   6.615  -1.241 -1.8157 -0.9845 -0.2728
  876MOL0     H18232   2.049   6.794  -1.130  0.5834 -0.8728 -0.9986
  876MOL0     H18233   1.898   6.862  -1.200  1.0903  1.6442  1.1776
  876MOL0     H18234   2.047   7.026  -1.213 -0.2850 -0.6107  2.1792
  876MOL0     H18235   2.180   6.934  -1.285 -0.3988  0.4321 -1.3185
  876MOL0     H18236   1.917   6.977  -1.433  0.0341 -0.2813  4.0201
  876MOL0     H18237   2.066   6.911  -1.497  0.2209 -0.0890  1.0493
  876MOL0     H18238   2.045   7.156  -1.559  2.4328  1.4687 -1.2826
  876MOL0     H18239   2.071   7.192  -1.385  0.3866 -0.0885  0.6705
  876MOL0     H18240   1.423   6.500  -1.226 -1.5259 -0.2001 -1.4271
  876MOL0     H18241   1.277   6.326  -1.129 -0.3861 -1.6772  3.4342
  876MOL0     H18242   1.247   5.730  -1.185 -2.8210  0.2176  0.2947
  876MOL0     H18243   1.174   5.541  -1.036 -0.3326  0.8969 -2.3575
  876MOL0     H18244   1.011   5.779   0.580  2.5345  0.2372 -3.2634
  876MOL0     H18245   1.022   5.711   0.828  1.5346  0.4151  1.7731
  876MOL0     H18246   1.172   5.570   1.164  0.8520 -2.3712 -0.2411
  876MOL0     H18247   1.227   5.493   1.411  3.1157 -1.9658  1.4364
  876MOL0     H18248   1.365   5.703   1.584  0.3514 -0.0712  0.4549
  876MOL0     H18249   1.529   5.659   1.653 -1.2808  0.2458  0.2998
  876MOL0     H18250   1.424   5.480   1.762 -2.8740 -2.6628 -2.5060
  876MOL0     H18251   1.262   5.530   1.707 -0.5961  2.7643 -2.8032
  876MOL0     H18252   1.344   5.769   1.799  1.6574 -0.1875 -1.9425
  876MOL0     H18253   1.453   5.688   1.896  1.0917 -0.3577 -2.4606
  876MOL0     H18254   1.146   5.647   1.941 -0.3317  0.5220  1.6051
  876MOL0     H18255   1.272   5.544   2.004 -2.0696 -2.1290 -2.0205
  876MOL0     H18256   1.309   5.923   2.218  2.5838  0.4030 -0.2091
  876MOL0     H18257   1.636   5.627   1.357 -0.1476 -0.1893  3.0968
  876MOL0     H18258   1.716   5.710   1.160 -1.3933 -1.8934  3.3075
  876MOL0     H18259   1.618   5.649   1.023 -2.4463 -0.4007  0.1292
  876MOL0     H18260   1.599   5.821   1.090  0.7253 -0.3217 -0.1785
  877MOL0     O18261   5.428   5.848   1.753  1.0333 -0.5369 -0.1508
  877MOL0     C18262   5.500   5.938   1.711 -0.8344  0.0397  1.4157
  877MOL0     O18263   5.480   6.011   1.595 -0.2820  0.2376  0.2805
  877MOL0     C18264   5.387   5.978   1.502 -1.4806 -0.1407  0.1539
  877MOL0     C18265   5.259   5.938   1.536  0.3929  0.5690 -0.3506
  877MOL0     C18266   5.171   5.916   1.434  0.6636 -0.4892 -0.0665
  877MOL0     C18267   5.206   5.934   1.303 -0.0679  0.1902  0.2707
  877MOL0     O18268   5.114   5.876   1.206 -0.1971 -0.6406  1.3431
  877MOL0     C18269   5.100   5.948   1.078  0.5977 -0.2010 -0.0118
  877MOL0     C18270   5.183   5.881   0.967  0.8617  1.3105  0.2621
  877MOL0     C18271   5.130   5.748   0.908  0.6714  0.1281 -0.5208
  877MOL0     C18272   5.189   5.699   0.774  0.3270  0.0578 -0.3707
  877MOL0     C18273   5.102   5.571   0.742  0.7964  0.3211  0.0427
  877MOL0     C18274   5.120   5.505   0.602 -0.0034 -0.3010  0.1229
  877MOL0     C18275   5.022   5.385   0.593  0.0853  0.3738  0.5682
  877MOL0     C18276   5.041   5.316   0.451 -0.1474  0.1888  0.0094
  877MOL0     N18277   4.928   5.221   0.432  0.3282 -0.1640  0.5313
  877MOL0     C18278   4.914   5.093   0.474 -0.0900  1.1580  0.9202
  877MOL0     C18279   4.803   5.042   0.415  0.6251 -0.0628  0.2505
  877MOL0     C18280   4.737   4.910   0.428 -0.5478 -0.5351 -0.0594
  877MOL0     C18281   4.661   4.897   0.553  0.5625 -0.5645 -0.6137
  877MOL0     C18282   4.523   4.979   0.569 -0.0634 -0.1120 -0.0539
  877MOL0     C18283   4.444   4.941   0.692  1.3051 -0.9260 -0.6916
  877MOL0     O18284   4.524   4.964   0.805  0.1025  0.1513 -0.8130
  877MOL0     C18285   4.451   4.932   0.924 -0.3327  0.2010  0.0220
  877MOL0     C18286   4.365   5.027   0.984 -0.2101 -0.2327 -0.4307
  877MOL0     C18287   4.306   4.988   1.102 -0.0917  0.8332  0.0560
  877MOL0     C18288   4.311   4.860   1.157 -0.4146  0.4482  0.2565
  877MOL0     C18289   4.249   4.830   1.287 -0.3217 -0.6591 -1.0879
  877MOL0     O18290   4.194   4.939   1.344 -1.2388  0.0872 -0.4133
  877MOL0     C18291   4.165   4.934   1.479  0.4352 -0.3324  0.3264
  877MOL0     C18292   4.248   4.987   1.574 -0.1732 -0.5977 -0.1881
  877MOL0     C18293   4.203   4.982   1.711 -0.0408 -0.2894  0.6817
  877MOL0     C18294   4.078   4.928   1.747 -0.0900  0.4829 -0.6746
  877MOL0     O18295   4.053   4.931   1.882  0.3992 -0.3651  0.1877
  877MOL0     C18296   3.975   5.047   1.921  0.1469 -1.2089  1.1421
  877MOL0     C18297   4.040   5.106   2.049 -0.3128  0.0848  0.0424
  877MOL0     C18298   4.191   5.148   2.043  0.5688  1.0787  0.3867
  877MOL0     C18299   4.231   5.255   1.941 -0.1699  0.2313  0.5717
  877MOL0     C18300   4.391   5.275   1.937  0.2990  0.0823 -1.0437
  877MOL0     C18301   4.424   5.371   1.828  0.6005  0.0372 -0.4245
  877MOL0     C18302   4.583   5.378   1.813  0.4505  0.0697  0.5518
  877MOL0     C18303   4.619   5.477   1.706  0.0885 -0.2860 -0.0860
  877MOL0    Cl18304   4.786   5.506   1.726 -0.4124 -0.1028  0.3070
  877MOL0     C18305   4.002   4.868   1.648  0.6372  0.6595  0.1520
  877MOL0     C18306   4.041   4.875   1.511  0.5192  0.6435 -0.0611
  877MOL0     O18307   4.263   4.721   1.338  0.2078 -0.0592 -0.0357
  877MOL0     C18308   4.399   4.770   1.086  0.0640  0.1804 -0.6525
  877MOL0     C18309   4.474   4.807   0.982  0.8819 -0.2689  0.5566
  877MOL0     N18310   4.752   5.149   0.335  0.0980  0.3067  0.1524
  877MOL0     N18311   4.837   5.248   0.333 -0.2956  0.0786  0.0142
  877MOL0     C18312   5.333   5.989   1.263 -0.7551  0.9479  0.9632
  877MOL0     C18313   5.419   6.010   1.369 -0.1627  0.4654  0.4800
  877MOL0     C18314   5.616   5.988   1.798  0.6799  0.2243  0.4256
  877MOL0     C18315   5.624   6.127   1.814  0.3690  0.3329 -0.0179
  877MOL0     C18316   5.715   6.192   1.894 -0.1778 -0.0353 -0.9566
  877MOL0     C18317   5.819   6.113   1.963 -0.4010 -0.8133 -0.2559
  877MOL0     O18318   5.917   6.173   2.026 -0.1940 -0.0321 -0.2419
  877MOL0     C18319   6.043   6.116   2.008  0.2444 -0.4688 -0.3055
  877MOL0     C18320   6.152   6.225   2.006  0.7364  0.8964  0.4877
  877MOL0     C18321   6.191   6.269   2.143  0.3405 -0.4520  0.8440
  877MOL0     C18322   6.107   6.375   2.211  1.1139 -0.1166 -0.1517
  877MOL0     C18323   6.099   6.500   2.133 -0.5329 -0.5909  0.0715
  877MOL0     C18324   6.094   6.605   2.077  1.2755 -0.0454  0.2891
  877MOL0     C18325   5.802   5.974   1.964 -0.6725 -0.2424  0.7183
  877MOL0     C18326   5.699   5.911   1.886 -0.0050 -0.2149  0.7002
  877MOL0     C18327   5.679   5.763   1.925  0.1587  0.1988  0.4636
  877MOL0     H18328   5.211   5.925   1.632 -0.7141  1.5063 -0.7550
  877MOL0     H18329   5.068   5.894   1.462  0.4883  0.8543  0.4162
  877MOL0     H18330   4.992   5.950   1.065  0.2216 -0.7526  2.5721
  877MOL0     H18331   5.136   6.052   1.079  0.6536 -0.2213  0.9354
  877MOL0     H18332   5.286   5.866   1.001  1.0363 -0.8162 -1.0102
  877MOL0     H18333   5.190   5.954   0.885 -0.0036  0.9715 -0.1192
  877MOL0     H18334   5.021   5.761   0.900  0.7481  0.3247 -1.2955
  877MOL0     H18335   5.132   5.673   0.988 -3.1602  2.9341  2.6195
  877MOL0     H18336   5.178   5.769   0.691 -3.2830  1.8875  1.4505
  877MOL0     H18337   5.294   5.669   0.779  1.1162  1.8340 -3.2345
  877MOL0     H18338   5.131   5.489   0.808 -0.1300 -1.0714 -1.2079
  877MOL0     H18339   4.997   5.596   0.757  1.4125  2.3544  1.4530
  877MOL0     H18340   5.089   5.580   0.530  1.1330 -0.7728 -0.9013
  877MOL0     H18341   5.225   5.477   0.591  0.7158  2.7933 -1.8623
  877MOL0     H18342   4.919   5.421   0.589 -0.5022 -1.3645 -1.4802
  877MOL0     H18343   5.039   5.325   0.683 -3.1489  0.8983  1.6610
  877MOL0     H18344   5.022   5.394   0.376 -3.7648 -0.1641  0.3353
  877MOL0     H18345   5.138   5.269   0.440 -0.1223  0.2668 -0.0983
  877MOL0     H18346   4.960   5.029   0.549 -2.3871  0.1399  1.5484
  877MOL0     H18347   4.664   4.901   0.347 -0.3420 -2.9092 -0.0696
  877MOL0     H18348   4.810   4.830   0.413 -2.1568 -2.3926  1.2818
  877MOL0     H18349   4.641   4.790   0.564  0.0161 -0.5949 -1.7057
  877MOL0     H18350   4.721   4.933   0.637  0.0219  0.9377 -0.8348
  877MOL0     H18351   4.457   4.974   0.482  0.6665 -1.1664 -0.5678
  877MOL0     H18352   4.546   5.083   0.593 -0.5806 -0.5447  2.6501
  877MOL0     H18353   4.402   4.840   0.679 -1.3791 -0.0198  0.1900
  877MOL0     H18354   4.359   5.010   0.690  1.4093 -0.8096 -1.3682
  877MOL0     H18355   4.363   5.126   0.940  1.9123 -0.1510 -0.4483
  877MOL0     H18356   4.269   5.073   1.159  0.1194  1.5448 -0.8269
  877MOL0     H18357   4.339   5.038   1.546  0.1565 -0.3796  1.2035
  877MOL0     H18358   4.266   5.031   1.785  1.2531  0.7595 -1.0267
  877MOL0     H18359   3.953   5.116   1.839 -1.1664 -2.2046  0.6374
  877MOL0     H18360   3.874   5.012   1.944 -0.9615  1.4042  0.6235
  877MOL0     H18361   3.981   5.193   2.082 -1.4493  0.7908 -3.3796
  877MOL0     H18362   4.017   5.033   2.127  3.1905  1.7572  2.9102
  877MOL0     H18363   4.235   5.173   2.140 -0.9033  0.3441  1.2862
  877MOL0     H18364   4.242   5.055   2.017 -0.3922  0.4979  0.4938
  877MOL0     H18365   4.162   5.332   1.976 -1.2598  0.9717 -2.8746
  877MOL0     H18366   4.193   5.233   1.841  0.7950 -3.1090  0.8003
  877MOL0     H18367   4.430   5.174   1.920  0.9640  0.6125 -2.9317
  877MOL0     H18368   4.424   5.319   2.031 -1.8159  0.6040 -0.4808
  877MOL0     H18369   4.376   5.338   1.736  0.6456 -0.6971 -0.1971
  877MOL0     H18370   4.383   5.469   1.854 -1.6634 -0.0565 -3.2283
  877MOL0     H18371   4.619   5.276   1.795 -3.5603 -1.1142 -2.4868
  877MOL0     H18372   4.620   5.405   1.912  1.0054 -2.1443  0.9972
  877MOL0     H18373   4.591   5.444   1.606 -0.6711 -1.0482  0.3679
  877MOL0     H18374   4.564   5.570   1.723 -1.8527 -1.3524 -0.3140
  877MOL0     H18375   3.901   4.837   1.673  0.3332  1.3663 -0.1974
  877MOL0     H18376   3.973   4.847   1.431  1.4575 -0.8819 -0.3755
  877MOL0     H18377   4.421   4.678   1.139 -0.6621  1.5520  2.2586
  877MOL0     H18378   4.542   4.740   0.931  1.4403  0.5906  0.1601
  877MOL0     H18379   5.365   6.001   1.160  2.8870 -1.2200  1.6718
  877MOL0     H18380   5.512   6.061   1.349 -0.4793  1.2075  0.8436
  877MOL0     H18381   5.549   6.186   1.762 -0.5921 -0.3459  0.5687
  877MOL0     H18382   5.725   6.299   1.907 -1.7630 -0.0009  0.4152
  877MOL0     H18383   6.052   6.065   1.913 -1.4163 -2.8881  0.7446
  877MOL0     H18384   6.055   6.035   2.080 -2.8514 -0.5200  0.3003
  877MOL0     H18385   6.122   6.310   1.945 -2.3234  1.0054  1.9385
  877MOL0     H18386   6.235   6.181   1.951 -1.2395  0.4153 -2.2943
  877MOL0     H18387   6.296   6.298   2.137 -0.1242  1.5842  1.8606
  877MOL0     H18388   6.189   6.177   2.202  2.9680 -0.6641  0.7207
  877MOL0     H18389   6.007   6.331   2.210  2.0058 -2.2564  0.1065
  877MOL0     H18390   6.140   6.399   2.312  0.9863  2.1675 -0.6073
  877MOL0     H18391   6.076   6.700   2.029  0.2387  0.9231  2.4776
  877MOL0     H18392   5.872   5.920   2.027  0.7409  0.0626 -0.5451
  877MOL0     H18393   5.622   5.722   1.841 -1.5631  0.8628  1.2515
  877MOL0     H18394   5.780   5.721   1.926  1.2965  2.1662 -4.5255
  877MOL0     H18395   5.617   5.748   2.014 -0.5304 -1.9988 -0.3087
  878MOL0     O18396   3.871  10.799   3.405  0.3177  0.2366 -0.7180
  878MOL0     C18397   3.786  10.750   3.332  0.4142 -0.1603  0.0569
  878MOL0     O18398   3.802  10.641   3.243  0.1385  0.4030  0.5559
  878MOL0     C18399   3.929  10.593   3.215  0.4199  0.2889  0.0832
  878MOL0     C18400   3.933  10.453   3.221  0.3682  0.1869 -0.2489
  878MOL0     C18401   4.057  10.388   3.198 -0.5377 -0.0628  0.6808
  878MOL0     C18402   4.179  10.460   3.174  0.0909 -0.7477 -0.2251
  878MOL0     O18403   4.293  10.382   3.165  0.1657  0.1963 -0.5628
  878MOL0     C18404   4.413  10.449   3.198 -0.8492 -0.1262 -0.4326
  878MOL0     C18405   4.527  10.343   3.244 -0.2034  0.3169 -0.1825
  878MOL0     C18406   4.557  10.240   3.129  0.9720 -0.4397  0.1772
  878MOL0     C18407   4.701  10.211   3.113  0.1106 -0.5136 -1.4214
  878MOL0     C18408   4.762  10.304   3.005 -0.3340 -0.2578 -0.1496
  878MOL0     C18409   4.913  10.299   3.005 -0.5318  0.1028 -0.8167
  878MOL0     C18410   4.964  10.157   2.957 -0.7388  0.1139 -0.7549
  878MOL0     C18411   5.038  10.081   3.077  0.4381 -1.4898  0.2264
  878MOL0     N18412   5.106   9.962   3.032  0.3816 -0.7206 -0.1064
  878MOL0     C18413   5.240   9.966   2.998 -1.0245  0.7106  0.1080
  878MOL0     C18414   5.278   9.831   2.991  0.3133  0.1508  0.7310
  878MOL0     C18415   5.416   9.775   2.980  0.3913  0.6342  0.0238
  878MOL0     C18416   5.501   9.797   3.112 -0.9095 -0.4118  0.2501
  878MOL0     C18417   5.426   9.767   3.244 -0.3670  0.2717 -0.1729
  878MOL0     C18418   5.503   9.831   3.355  0.9056 -0.4909  0.1880
  878MOL0     O18419   5.516   9.978   3.349  0.2580 -0.1011  0.7802
  878MOL0     C18420   5.397  10.046   3.373 -0.1224 -0.0042 -0.4909
  878MOL0     C18421   5.297  10.012   3.464  0.4675 -0.0550 -0.2249
  878MOL0     C18422   5.182  10.094   3.481 -0.4982 -0.1654  0.2909
  878MOL0     C18423   5.167  10.214   3.403 -0.3250 -0.7622  0.3231
  878MOL0     C18424   5.058  10.314   3.417  0.4257  0.5543 -0.5289
  878MOL0     O18425   4.999  10.310   3.551  0.3677  0.6511 -0.4751
  878MOL0     C18426   4.902  10.407   3.556 -0.3141  0.1305  0.0024
  878MOL0     C18427   4.777  10.387   3.499 -0.3015 -0.5699 -0.4969
  878MOL0     C18428   4.688  10.504   3.510  0.1210  0.2127 -0.0268
  878MOL0     C18429   4.735  10.628   3.557 -0.6678  0.1759  0.3355
  878MOL0     O18430   4.644  10.725   3.535 -1.3506  0.1388  0.1550
  878MOL0     C18431   4.645  10.831   3.637 -0.6884  0.7962  0.6084
  878MOL0     C18432   4.516  10.907   3.661  0.1734 -1.1143  0.8939
  878MOL0     C18433   4.484  11.015   3.560 -0.7468  0.0126  0.0939
  878MOL0     C18434   4.575  11.145   3.577  0.4827  0.9613 -0.4921
  878MOL0     C18435   4.596  11.218   3.447 -0.2760  0.3758  0.0115
  878MOL0     C18436   4.669  11.343   3.485 -0.4799  0.4479 -0.1394
  878MOL0     C18437   4.825  11.316   3.521 -0.3532 -0.4045  0.8298
  878MOL0     C18438   4.911  11.445   3.466  0.4743  0.9825  0.2540
  878MOL0    Cl18439   5.066  11.432   3.556 -0.1696  0.0774  0.0007
  878MOL0     C18440   4.873  10.639   3.604  0.0821 -0.5581 -0.1130
  878MOL0     C18441   4.956  10.527   3.600  0.2076 -0.8932 -1.5908
  878MOL0     O18442   5.041  10.400   3.332 -0.1743  0.1798  0.2644
  878MOL0     C18443   5.265  10.243   3.308  0.0182  0.5203  0.7088
  878MOL0     C18444   5.378  10.157   3.296  0.3410 -0.4975  0.8386
  878MOL0     N18445   5.157   9.762   2.990 -0.0728  1.4904 -0.5629
  878MOL0     N18446   5.058   9.834   3.028  0.9651 -0.3259 -0.3476
  878MOL0     C18447   4.165  10.600   3.162 -0.6724  0.1636 -0.3586
  878MOL0     C18448   4.046  10.664   3.181  0.0196  0.7843 -0.5837
  878MOL0     C18449   3.647  10.800   3.374 -0.4240  0.0098 -0.0091
  878MOL0     C18450   3.634  10.937   3.391 -0.5307  0.7030 -0.3144
  878MOL0     C18451   3.511  10.981   3.447  0.5825 -0.8936 -0.9757
  878MOL0     C18452   3.397  10.901   3.481 -0.2508  0.1925 -0.6690
  878MOL0     O18453   3.276  10.947   3.525  0.3927 -0.9966 -0.2624
  878MOL0     C18454   3.193  10.853   3.586  0.5406 -0.1801 -0.6054
  878MOL0     C18455   3.103  10.923   3.689  0.7575 -0.8080 -1.6500
  878MOL0     C18456   3.173  10.937   3.828 -0.4090  0.4470 -0.2574
  878MOL0     C18457   3.086  10.989   3.943 -0.6473 -0.0633 -0.4796
  878MOL0     C18458   3.163  11.065   4.036 -1.3549  0.4263  0.2983
  878MOL0     C18459   3.223  11.137   4.122  0.3493  0.2793  0.2111
  878MOL0     C18460   3.410  10.764   3.446 -0.2843  0.1815 -0.0938
  878MOL0     C18461   3.539  10.712   3.411 -0.5507 -0.2436  0.2948
  878MOL0     C18462   3.552  10.560   3.392 -0.4256  0.4675  0.0403
  878MOL0     H18463   3.844  10.398   3.249  1.1611  0.4788  3.2895
  878MOL0     H18464   4.062  10.280   3.198  0.2335 -0.1104 -2.2354
  878MOL0     H18465   4.449  10.520   3.123 -1.9909  1.1971  0.2269
  878MOL0     H18466   4.387  10.506   3.287 -0.3082 -0.6921  0.1009
  878MOL0     H18467   4.510  10.285   3.335  3.0505 -0.9209 -0.2327
  878MOL0     H18468   4.612  10.412   3.255 -2.3246  3.5505 -2.3352
  878MOL0     H18469   4.503  10.272   3.039  0.1325 -0.5433  0.6254
  878MOL0     H18470   4.498  10.151   3.155 -0.0233 -0.3001 -1.4617
  878MOL0     H18471   4.760  10.231   3.203  2.3277  1.0881 -3.0907
  878MOL0     H18472   4.715  10.112   3.068  2.1838  0.0669 -2.1655
  878MOL0     H18473   4.733  10.280   2.902  2.9098 -0.9320 -1.0411
  878MOL0     H18474   4.746  10.412   3.016 -0.5493 -0.0017 -2.4923
  878MOL0     H18475   4.961  10.377   2.946  0.8790  0.0686  0.2503
  878MOL0     H18476   4.931  10.320   3.110 -3.1759 -0.1816 -0.2290
  878MOL0     H18477   5.022  10.194   2.871 -2.4399 -1.6737 -2.8090
  878MOL0     H18478   4.891  10.086   2.917  1.6326 -3.3075  0.5352
  878MOL0     H18479   5.109  10.153   3.119 -1.1683  1.1598 -1.3427
  878MOL0     H18480   4.966  10.051   3.154  0.4455  0.6363  1.1368
  878MOL0     H18481   5.316  10.042   2.991 -0.7411  0.3993 -0.2316
  878MOL0     H18482   5.401   9.671   2.949 -1.2678  0.9988 -0.4864
  878MOL0     H18483   5.473   9.816   2.896  2.4541 -0.4081  0.8467
  878MOL0     H18484   5.576   9.717   3.111  0.8569  1.0859 -2.7634
  878MOL0     H18485   5.554   9.893   3.110  1.2811 -1.5518  0.1300
  878MOL0     H18486   5.412   9.661   3.267 -1.6324  0.6279  0.7999
  878MOL0     H18487   5.328   9.815   3.248 -1.2497 -1.0305 -3.2830
  878MOL0     H18488   5.597   9.775   3.365  1.0423 -0.4921 -0.9057
  878MOL0     H18489   5.440   9.815   3.443  2.2782  0.0093  1.2906
  878MOL0     H18490   5.306   9.926   3.529 -0.9286 -1.4377 -1.7471
  878MOL0     H18491   5.098  10.082   3.549 -0.6103 -0.2981  0.1302
  878MOL0     H18492   4.751  10.285   3.473 -1.4800 -0.2024 -0.8443
  878MOL0     H18493   4.587  10.500   3.471 -1.8834 -2.4015  4.6189
  878MOL0     H18494   4.683  10.787   3.730  3.0742  0.5069 -0.8991
  878MOL0     H18495   4.725  10.900   3.610 -0.6930  0.2766 -0.8430
  878MOL0     H18496   4.439  10.830   3.651  0.8307 -1.6935  0.1765
  878MOL0     H18497   4.509  10.951   3.761  0.9757  1.7975 -0.2068
  878MOL0     H18498   4.489  10.960   3.465 -3.1587 -0.1262 -0.0115
  878MOL0     H18499   4.380  11.048   3.570 -1.6057 -2.8190  1.7690
  878MOL0     H18500   4.677  11.122   3.609  0.7904  2.2370 -0.5095
  878MOL0     H18501   4.529  11.207   3.654  1.8423  0.6426  0.6209
  878MOL0     H18502   4.497  11.236   3.405  0.8973 -1.0870 -3.8035
  878MOL0     H18503   4.652  11.163   3.372 -0.4424  2.7102 -1.9632
  878MOL0     H18504   4.668  11.406   3.395  0.2315 -0.8692 -1.1037
  878MOL0     H18505   4.621  11.392   3.570 -1.8880  2.1534 -1.8438
  878MOL0     H18506   4.860  11.221   3.478  3.7107  0.4807  1.7844
  878MOL0     H18507   4.835  11.305   3.629  2.1056  0.3458  0.7482
  878MOL0     H18508   4.921  11.428   3.358 -0.5674 -1.1516  0.4395
  878MOL0     H18509   4.865  11.540   3.491  0.6241  0.8794  0.9368
  878MOL0     H18510   4.907  10.735   3.643  1.3396 -0.7520 -0.6859
  878MOL0     H18511   5.054  10.538   3.644 -2.2640  1.0415  4.5645
  878MOL0     H18512   5.259  10.322   3.234 -4.7169  1.8924  2.1868
  878MOL0     H18513   5.451  10.192   3.224 -2.0576 -1.2532 -2.1756
  878MOL0     H18514   4.259  10.655   3.152 -0.4176  0.4591  2.6783
  878MOL0     H18515   4.041  10.772   3.177  1.4468  0.8228 -2.8346
  878MOL0     H18516   3.727  10.992   3.403  0.4919 -0.0327 -3.7908
  878MOL0     H18517   3.503  11.085   3.474 -1.7559 -1.4040  0.5576
  878MOL0     H18518   3.251  10.781   3.644 -2.5332 -0.5120  2.3595
  878MOL0     H18519   3.142  10.814   3.497  0.5516  2.0228 -1.6386
  878MOL0     H18520   3.010  10.871   3.714  1.8228 -0.3094  5.3380
  878MOL0     H18521   3.080  11.023   3.652 -3.0413 -0.1344  1.7568
  878MOL0     H18522   3.253  11.010   3.813 -0.0875 -0.0363 -0.9277
  878MOL0     H18523   3.207  10.840   3.864  1.9613  1.8384  1.4978
  878MOL0     H18524   2.998  11.045   3.910 -2.8467 -2.4762  0.9874
  878MOL0     H18525   3.055  10.899   3.996  2.6781 -0.9474  0.1965
  878MOL0     H18526   3.275  11.195   4.196  4.0345  2.2937 -3.5169
  878MOL0     H18527   3.335  10.688   3.463 -0.2584  0.2007  0.1094
  878MOL0     H18528   3.463  10.522   3.443  1.9257 -3.8903  1.3547
  878MOL0     H18529   3.559  10.534   3.286  2.1755  3.4119 -0.6614
  878MOL0     H18530   3.642  10.528   3.444 -0.1358  1.0818 -0.0688
  879MOL0     O18531   7.572   1.579   6.578  0.0251 -0.3361  0.0094
  879MOL0     C18532   7.534   1.611   6.464 -0.0992  0.4219 -0.6617
  879MOL0     O18533   7.621   1.658   6.375 -0.7753 -0.5042 -0.3103
  879MOL0     C18534   7.752   1.685   6.406  0.2079  0.1069  0.1356
  879MOL0     C18535   7.786   1.787   6.489 -0.9551 -0.2034 -0.4208
  879MOL0     C18536   7.928   1.817   6.500  0.1024 -1.0453 -0.8639
  879MOL0     C18537   8.021   1.748   6.428 -0.3271  0.2669  0.2143
  879MOL0     O18538   8.150   1.785   6.438  0.0588 -0.8347  0.0558
  879MOL0     C18539   8.252   1.685   6.462 -0.7845  0.0981  0.7851
  879MOL0     C18540   8.386   1.750   6.408 -0.0676  0.7940  0.3844
  879MOL0     C18541   8.515   1.659   6.421  0.5092 -0.6124 -0.1192
  879MOL0     C18542   8.555   1.622   6.565 -0.4605  0.1055 -0.1415
  879MOL0     C18543   8.644   1.714   6.637 -0.8396 -0.9884 -0.6720
  879MOL0     C18544   8.791   1.669   6.591 -1.0615 -0.4758  0.0979
  879MOL0     C18545   8.905   1.748   6.669  0.6735  0.2949 -0.0038
  879MOL0     C18546   8.899   1.905   6.668 -0.2624  0.3265  0.1363
  879MOL0     N18547   9.033   1.946   6.708  0.9450 -0.0984 -0.1503
  879MOL0     C18548   9.083   1.951   6.829  0.0960 -0.2727 -0.0242
  879MOL0     C18549   9.214   1.993   6.821 -0.5317 -0.4055  0.7517
  879MOL0     C18550   9.319   2.001   6.929 -0.2741  0.4259  0.5274
  879MOL0     C18551   9.273   2.066   7.067  0.0015  0.0696 -0.5544
  879MOL0     C18552   9.212   2.203   7.044  0.0847 -0.3419 -0.5400
  879MOL0     C18553   9.212   2.296   7.166  0.1961  0.0828 -0.4433
  879MOL0     O18554   9.343   2.305   7.222  0.0223 -0.2767 -0.3950
  879MOL0     C18555   9.440   2.368   7.139  0.1135  0.3114  0.1470
  879MOL0     C18556   9.570   2.329   7.163 -0.0582  1.1726  0.4640
  879MOL0     C18557   9.678   2.382   7.078  0.2697 -0.7121 -0.8364
  879MOL0     C18558   9.655   2.479   6.982  0.1718  0.1405 -0.2231
  879MOL0     C18559   9.761   2.530   6.891 -0.6366  0.5454  0.0542
  879MOL0     O18560   9.704   2.610   6.795 -0.1840  0.0651 -1.1811
  879MOL0     C18561   9.788   2.619   6.682 -1.0635  0.2867 -1.2921
  879MOL0     C18562   9.759   2.544   6.564 -0.1403  0.0042 -0.0994
  879MOL0     C18563   9.842   2.560   6.445  1.0747  0.1793 -0.0885
  879MOL0     C18564   9.953   2.647   6.444 -0.2560 -0.4725 -0.0428
  879MOL0     O18565  10.030   2.666   6.333 -0.1432 -0.0276 -0.7911
  879MOL0     C18566  10.053   2.802   6.295 -0.4332 -0.0850 -0.2783
  879MOL0     C18567  10.143   2.793   6.169 -0.1986 -0.5510 -0.5981
  879MOL0     C18568  10.257   2.697   6.169 -0.4641  0.2290  0.0814
  879MOL0     C18569  10.357   2.715   6.279 -0.8421  0.1314  0.1248
  879MOL0     C18570  10.482   2.628   6.257  0.5711  0.1386  0.3868
  879MOL0     C18571  10.595   2.666   6.359  1.0293  1.1399  0.8028
  879MOL0     C18572  10.728   2.601   6.317 -1.2288  0.0306  0.4229
  879MOL0     C18573  10.849   2.624   6.419  0.7170  0.5442  0.7464
  879MOL0    Cl18574  10.890   2.805   6.449  0.4964  0.1043  0.0717
  879MOL0     C18575   9.969   2.726   6.558  0.1928  0.9684 -0.8644
  879MOL0     C18576   9.892   2.710   6.672  0.2099  1.0019 -0.1769
  879MOL0     O18577   9.883   2.499   6.903 -0.1956  0.7009  0.1481
  879MOL0     C18578   9.525   2.519   6.972  0.0837  0.3905  0.0793
  879MOL0     C18579   9.421   2.468   7.042  0.3523  0.1914  0.3152
  879MOL0     N18580   9.244   2.006   6.686  0.1251 -0.1635  0.8002
  879MOL0     N18581   9.130   1.977   6.618 -0.1599  0.3115  0.1837
  879MOL0     C18582   7.985   1.643   6.339 -0.7815  0.7294 -0.9017
  879MOL0     C18583   7.852   1.619   6.324 -0.1477 -0.2128 -0.6964
  879MOL0     C18584   7.395   1.600   6.415  0.0320 -0.6130  0.0015
  879MOL0     C18585   7.351   1.692   6.318  0.1047  0.4403 -0.2918
  879MOL0     C18586   7.218   1.698   6.284  0.6986 -0.9763  0.4776
  879MOL0     C18587   7.130   1.592   6.324 -0.5768 -1.2341  0.2046
  879MOL0     O18588   6.997   1.587   6.317 -0.1545 -0.1994  0.0836
  879MOL0     C18589   6.929   1.710   6.311  0.3425  0.1090 -0.4760
  879MOL0     C18590   6.779   1.695   6.304 -0.3065  0.0853  0.2656
  879MOL0     C18591   6.715   1.618   6.415  0.0556  0.3556 -0.1957
  879MOL0     C18592   6.687   1.714   6.532  0.1946  0.9794 -0.5190
  879MOL0     C18593   6.613   1.635   6.634  0.6475  0.1289 -0.3611
  879MOL0     C18594   6.550   1.580   6.718  0.7719 -0.5102 -0.4647
  879MOL0     C18595   7.186   1.490   6.397  0.5878  0.3659  0.4118
  879MOL0     C18596   7.315   1.491   6.454 -0.2649 -0.3075 -0.0739
  879MOL0     C18597   7.337   1.386   6.563 -0.2409 -0.6122  0.1985
  879MOL0     H18598   7.702   1.829   6.543  0.4606  0.3714  1.4519
  879MOL0     H18599   7.962   1.894   6.569  0.4969  0.9215 -3.1339
  879MOL0     H18600   8.254   1.660   6.568  2.3291  2.5981  1.4366
  879MOL0     H18601   8.236   1.595   6.401 -1.1231  0.1445  0.7993
  879MOL0     H18602   8.390   1.838   6.474 -1.1767  0.5965  0.7307
  879MOL0     H18603   8.378   1.777   6.303  1.0449 -1.2864 -0.2911
  879MOL0     H18604   8.594   1.714   6.369  1.2814  1.3158  2.8702
  879MOL0     H18605   8.487   1.563   6.377  0.7312 -0.3919 -0.7586
  879MOL0     H18606   8.473   1.609   6.637  1.3129 -3.2496  1.5170
  879MOL0     H18607   8.605   1.525   6.567  0.2988  0.3851 -2.7064
  879MOL0     H18608   8.628   1.821   6.620 -2.4943 -0.7779  1.6583
  879MOL0     H18609   8.619   1.708   6.743 -1.9217 -0.9974 -0.9180
  879MOL0     H18610   8.812   1.562   6.604 -2.6717 -0.6581  1.6693
  879MOL0     H18611   8.808   1.707   6.489 -4.1339 -0.8531 -0.6771
  879MOL0     H18612   9.003   1.724   6.626 -0.0869 -1.2769 -0.9586
  879MOL0     H18613   8.910   1.708   6.770 -0.5758 -1.9464 -0.7485
  879MOL0     H18614   8.866   1.951   6.574 -1.9986  0.4242  0.7470
  879MOL0     H18615   8.826   1.928   6.746  2.2171 -1.2177  3.0824
  879MOL0     H18616   9.030   1.905   6.912 -1.5910  0.6125 -0.5620
  879MOL0     H18617   9.373   1.908   6.950  3.4037  2.2235 -0.0273
  879MOL0     H18618   9.401   2.058   6.884  4.3156 -4.7288  1.2245
  879MOL0     H18619   9.197   2.007   7.120  1.2587  1.0166  2.4544
  879MOL0     H18620   9.359   2.088   7.130  0.0577  0.4814 -0.7746
  879MOL0     H18621   9.106   2.180   7.029  0.4669 -1.9745 -0.9405
  879MOL0     H18622   9.252   2.259   6.959  1.1473  0.9913  0.7951
  879MOL0     H18623   9.147   2.251   7.241  1.1820  2.2726  1.8858
  879MOL0     H18624   9.153   2.387   7.151 -1.2570 -0.0366  3.4849
  879MOL0     H18625   9.589   2.263   7.247 -2.2887 -0.3124 -0.1155
  879MOL0     H18626   9.779   2.343   7.089 -0.6484 -2.8934  0.4910
  879MOL0     H18627   9.675   2.477   6.550 -1.7944  1.6208  1.5415
  879MOL0     H18628   9.824   2.510   6.350 -2.0988 -1.3316  1.1584
  879MOL0     H18629   9.963   2.860   6.273 -0.8241 -0.1230  1.1105
  879MOL0     H18630  10.113   2.863   6.363 -1.0014  0.7408 -0.5076
  879MOL0     H18631  10.074   2.765   6.090 -0.1533 -2.1856 -0.1080
  879MOL0     H18632  10.192   2.889   6.152 -0.1595 -0.4747 -0.0720
  879MOL0     H18633  10.237   2.591   6.151  0.7775 -0.0102 -0.0165
  879MOL0     H18634  10.306   2.725   6.075  1.5791 -0.6489  0.8151
  879MOL0     H18635  10.318   2.674   6.373 -0.7238 -2.0731 -0.7273
  879MOL0     H18636  10.397   2.817   6.284  0.0665 -0.1864 -0.3591
  879MOL0     H18637  10.531   2.630   6.159 -0.2979  0.5061 -0.0545
  879MOL0     H18638  10.447   2.525   6.259 -1.4797  0.7823  0.0058
  879MOL0     H18639  10.609   2.774   6.359  5.4854  0.8897 -3.2689
  879MOL0     H18640  10.560   2.632   6.457  1.2736  0.8240  0.7822
  879MOL0     H18641  10.759   2.654   6.226 -1.3755  1.4226  1.1643
  879MOL0     H18642  10.722   2.492   6.311  3.5342 -0.4266 -0.2479
  879MOL0     H18643  10.809   2.578   6.509 -1.8403 -0.1399 -0.6286
  879MOL0     H18644  10.927   2.558   6.380 -3.0821 -2.5551 -2.5435
  879MOL0     H18645  10.045   2.804   6.552  0.1174  1.1254  0.0890
  879MOL0     H18646   9.909   2.765   6.764  3.3559 -0.1371  0.0345
  879MOL0     H18647   9.503   2.608   6.914  0.5463 -0.2735 -1.1523
  879MOL0     H18648   9.322   2.506   7.018  0.6865  2.0760  1.6750
  879MOL0     H18649   8.058   1.598   6.274 -0.3084 -2.2028  1.4111
  879MOL0     H18650   7.828   1.548   6.245 -2.4494  2.6016 -2.7542
  879MOL0     H18651   7.414   1.772   6.281  2.5224 -0.0559  2.3738
  879MOL0     H18652   7.170   1.779   6.231 -2.9827 -1.4636  2.7105
  879MOL0     H18653   6.958   1.761   6.219  0.4061  1.1787  0.1208
  879MOL0     H18654   6.943   1.767   6.404  0.2011 -2.2401  1.0798
  879MOL0     H18655   6.746   1.646   6.212 -2.4370  1.4257  0.2590
  879MOL0     H18656   6.739   1.797   6.313  0.1897  0.5512 -2.0838
  879MOL0     H18657   6.780   1.537   6.448  0.3441  1.4279  2.0483
  879MOL0     H18658   6.619   1.578   6.382  0.0124  1.2516 -1.2354
  879MOL0     H18659   6.781   1.739   6.583  0.6127 -1.6756  0.1921
  879MOL0     H18660   6.622   1.795   6.498  0.6135  0.0033 -3.9756
  879MOL0     H18661   6.495   1.533   6.797 -3.3720  0.4760 -2.5165
  879MOL0     H18662   7.121   1.413   6.438  1.0091 -1.3846 -1.9867
  879MOL0     H18663   7.247   1.329   6.587 -0.2569 -0.7822 -0.2655
  879MOL0     H18664   7.422   1.319   6.546  0.1287  0.7464 -4.9706
  879MOL0     H18665   7.344   1.444   6.656 -1.2822 -0.3901  0.1501
  880MOL0     O18666  10.984   3.957   8.575  0.4013  0.2066  0.5914
  880MOL0     C18667  10.927   3.960   8.463 -0.1289  0.0253 -0.4598
  880MOL0     O18668  10.814   4.028   8.433  1.0062  0.2951  0.1347
  880MOL0     C18669  10.771   4.140   8.497  1.2478  0.7304  0.3253
  880MOL0     C18670  10.844   4.221   8.590  0.2336  0.1750  0.0998
  880MOL0     C18671  10.786   4.338   8.642 -0.0281 -0.4031 -0.6501
  880MOL0     C18672  10.662   4.398   8.599 -0.6889 -0.3014 -0.0237
  880MOL0     O18673  10.619   4.520   8.646  0.3043  0.7207 -0.8995
  880MOL0     C18674  10.499   4.573   8.585 -0.6116 -0.7618 -0.4252
  880MOL0     C18675  10.462   4.709   8.652 -1.0556 -0.3285  0.2492
  880MOL0     C18676  10.313   4.741   8.647 -0.1512  0.3513 -0.2359
  880MOL0     C18677  10.271   4.842   8.749 -0.2056  0.1507  0.1111
  880MOL0     C18678  10.120   4.872   8.770  0.3021  0.0437 -0.0476
  880MOL0     C18679  10.075   4.945   8.643  0.0041 -0.0728 -0.0823
  880MOL0     C18680   9.941   4.997   8.654  0.2221 -0.2348  0.2865
  880MOL0     C18681   9.919   5.141   8.709 -0.3988  0.3495 -0.3234
  880MOL0     N18682  10.022   5.225   8.641  0.6570 -0.0401  0.0843
  880MOL0     C18683  10.131   5.276   8.700 -0.8235 -0.3959  0.3556
  880MOL0     C18684  10.201   5.339   8.606  0.1974  0.0041 -1.0504
  880MOL0     C18685  10.335   5.402   8.620  0.3536  0.0937  0.1307
  880MOL0     C18686  10.345   5.538   8.680  0.1117 -1.2294  0.3177
  880MOL0     C18687  10.305   5.648   8.570 -0.1898 -0.1300 -1.3598
  880MOL0     C18688  10.306   5.794   8.634  0.9386 -0.4565  0.1310
  880MOL0     O18689  10.442   5.838   8.630 -0.0117  0.1695  0.1005
  880MOL0     C18690  10.463   5.940   8.706  0.3130  0.1733 -0.3871
  880MOL0     C18691  10.586   5.940   8.781  0.5292 -0.0576  0.3236
  880MOL0     C18692  10.616   6.044   8.862  0.7305 -0.5881  0.2730
  880MOL0     C18693  10.540   6.163   8.873 -0.0685  0.6449  0.4146
  880MOL0     C18694  10.571   6.273   8.968 -0.6924  0.9532 -0.0358
  880MOL0     O18695  10.480   6.380   8.963  0.6881 -0.3382 -0.3719
  880MOL0     C18696  10.495   6.476   9.056 -0.1664 -0.5203 -0.0221
  880MOL0     C18697  10.404   6.493   9.161 -0.6328 -0.5958  0.3664
  880MOL0     C18698  10.437   6.573   9.271  1.3743 -0.5701 -0.3657
  880MOL0     C18699  10.542   6.673   9.271 -0.2278 -0.7110 -0.0510
  880MOL0     O18700  10.555   6.773   9.364  0.6720  0.3892  0.1724
  880MOL0     C18701  10.522   6.748   9.500 -0.2703 -0.0221  0.2382
  880MOL0     C18702  10.560   6.865   9.584  0.6665 -0.1185  0.1700
  880MOL0     C18703  10.709   6.885   9.620 -0.0413 -0.7821 -0.2164
  880MOL0     C18704  10.801   6.873   9.500 -0.2179  0.6807  0.6084
  880MOL0     C18705  10.949   6.904   9.527 -0.1611  0.5016  0.1622
  880MOL0     C18706  11.035   6.874   9.401 -0.4565  0.2487  0.8104
  880MOL0     C18707  11.155   6.963   9.383 -0.5100  0.1768 -0.2956
  880MOL0     C18708  11.145   7.111   9.419  0.8366  0.5384  0.3956
  880MOL0    Cl18709  11.323   7.161   9.417 -0.1009  0.5295  0.1473
  880MOL0     C18710  10.625   6.659   9.159  0.2771 -0.2793  1.2129
  880MOL0     C18711  10.608   6.557   9.055 -0.5591 -0.6631 -0.3427
  880MOL0     O18712  10.679   6.262   9.029 -0.4446  0.2502  0.5563
  880MOL0     C18713  10.426   6.172   8.782 -0.5393 -0.1416 -0.0637
  880MOL0     C18714  10.382   6.052   8.709  0.1025 -0.6550  0.0635
  880MOL0     N18715  10.136   5.332   8.489 -0.1906  0.2566 -0.4685
  880MOL0     N18716  10.031   5.261   8.510 -0.3392  0.0862  0.1848
  880MOL0     C18717  10.596   4.328   8.497  0.0119 -0.4461  0.4779
  880MOL0     C18718  10.652   4.203   8.453 -0.6649 -0.2164  0.5188
  880MOL0     C18719  10.972   3.868   8.352 -0.9706  0.1790  0.7084
  880MOL0     C18720  10.902   3.872   8.230  0.0727  0.5852  0.4309
  880MOL0     C18721  10.936   3.785   8.126  0.4411  0.0396 -1.1196
  880MOL0     C18722  11.047   3.707   8.126  0.5541  0.6460  0.6407
  880MOL0     O18723  11.095   3.636   8.018  0.6791  0.5114  0.2810
  880MOL0     C18724  11.011   3.559   7.931  0.2200 -0.9082 -0.1556
  880MOL0     C18725  11.037   3.405   7.941 -0.7716 -0.7636  0.8702
  880MOL0     C18726  11.188   3.366   7.925 -0.7967 -0.3889  0.4329
  880MOL0     C18727  11.212   3.213   7.928 -0.0074 -0.9119 -0.6727
  880MOL0     C18728  11.122   3.140   7.835  0.0642 -0.5505 -0.3129
  880MOL0     C18729  11.041   3.092   7.752  0.5019 -0.2764  0.4497
  880MOL0     C18730  11.121   3.700   8.248  0.3928  0.3984  0.3567
  880MOL0     C18731  11.086   3.785   8.360 -1.3178  0.1529  0.1618
  880MOL0     C18732  11.163   3.776   8.484  0.0279 -0.0070 -0.0948
  880MOL0     H18733  10.943   4.200   8.629  1.4508  3.2991 -0.9611
  880MOL0     H18734  10.835   4.387   8.726  0.1518 -0.9378 -0.4412
  880MOL0     H18735  10.518   4.580   8.478 -0.7400 -0.9147 -0.4572
  880MOL0     H18736  10.420   4.499   8.597  0.4205 -1.7958  0.2419
  880MOL0     H18737  10.513   4.795   8.607 -1.2305  1.7078  3.6301
  880MOL0     H18738  10.500   4.689   8.753  2.5426 -2.2650 -1.3228
  880MOL0     H18739  10.253   4.649   8.656 -1.5170  1.3276  1.4450
  880MOL0     H18740  10.287   4.782   8.549  1.5071 -0.6594 -1.1349
  880MOL0     H18741  10.303   4.807   8.847  2.2162  1.9816  0.0654
  880MOL0     H18742  10.331   4.931   8.730 -2.3359  1.0999 -3.0501
  880MOL0     H18743  10.072   4.774   8.777  2.3518 -1.0835 -1.0268
  880MOL0     H18744  10.094   4.933   8.857 -3.4983 -1.2303 -0.1163
  880MOL0     H18745  10.152   5.016   8.612  1.8690 -2.1609 -0.4436
  880MOL0     H18746  10.072   4.872   8.563 -2.4627 -0.7609  0.5649
  880MOL0     H18747   9.880   4.937   8.722 -0.4896  0.5749  0.3937
  880MOL0     H18748   9.897   4.999   8.554 -0.6160  0.5709  0.6541
  880MOL0     H18749   9.815   5.170   8.692  0.1653  1.8104 -1.5044
  880MOL0     H18750   9.945   5.140   8.815 -1.2452  2.3773 -0.0628
  880MOL0     H18751  10.169   5.261   8.800  0.7891  2.5480  0.2929
  880MOL0     H18752  10.397   5.332   8.677  1.4130 -1.2774 -2.5293
  880MOL0     H18753  10.377   5.399   8.519 -3.7948 -1.6255 -1.7801
  880MOL0     H18754  10.287   5.542   8.773  1.1478 -2.0649  1.0233
  880MOL0     H18755  10.451   5.553   8.701  0.2784  0.5487 -1.4602
  880MOL0     H18756  10.204   5.622   8.535 -0.5083 -0.3917 -0.2909
  880MOL0     H18757  10.362   5.641   8.477  0.6245 -2.5794 -0.7642
  880MOL0     H18758  10.264   5.780   8.734  3.5413 -0.7230  1.2657
  880MOL0     H18759  10.246   5.861   8.572 -2.1080  1.2291  4.4120
  880MOL0     H18760  10.651   5.854   8.771 -0.4903 -0.8427  0.2946
  880MOL0     H18761  10.700   6.040   8.931 -1.0423 -1.8387  2.5292
  880MOL0     H18762  10.312   6.436   9.158 -1.6633  1.0238 -0.3791
  880MOL0     H18763  10.366   6.581   9.353  0.3617  0.1425 -1.2847
  880MOL0     H18764  10.414   6.734   9.510  0.1573 -1.9891  3.7617
  880MOL0     H18765  10.566   6.657   9.542  1.2224  0.8616  0.6562
  880MOL0     H18766  10.520   6.952   9.531  0.8863  1.5356  2.5512
  880MOL0     H18767  10.507   6.848   9.679  1.4680 -1.0427  0.4684
  880MOL0     H18768  10.728   6.977   9.675  1.6503 -1.7550  0.9020
  880MOL0     H18769  10.743   6.811   9.692 -1.4356 -0.1776  1.1189
  880MOL0     H18770  10.779   6.941   9.417  1.7261  0.6449  0.0141
  880MOL0     H18771  10.800   6.767   9.476  1.0738  0.8222 -0.1400
  880MOL0     H18772  10.981   6.833   9.604 -3.2701  0.8201  1.9237
  880MOL0     H18773  10.956   7.000   9.578  3.0672 -0.1002  1.1389
  880MOL0     H18774  11.071   6.772   9.416  0.9726  0.5469 -0.3085
  880MOL0     H18775  10.976   6.881   9.309 -1.0893  2.0927  1.2961
  880MOL0     H18776  11.194   6.965   9.280  2.1572 -1.4551  0.5786
  880MOL0     H18777  11.228   6.915   9.448 -1.8374  0.7095  1.6662
  880MOL0     H18778  11.088   7.164   9.342 -1.7703 -1.4566  0.8135
  880MOL0     H18779  11.102   7.130   9.517  1.2225 -1.3684  0.9733
  880MOL0     H18780  10.717   6.717   9.159 -0.8417  1.5978 -0.3602
  880MOL0     H18781  10.673   6.550   8.968  0.6190  3.1416  0.0784
  880MOL0     H18782  10.371   6.265   8.794  1.3854  0.7707  2.7363
  880MOL0     H18783  10.293   6.063   8.648 -1.4122  2.2528  2.4937
  880MOL0     H18784  10.499   4.353   8.457  0.9654  1.9203 -0.5234
  880MOL0     H18785  10.596   4.153   8.374 -0.1990 -0.8152  0.5637
  880MOL0     H18786  10.830   3.951   8.211 -0.5109 -0.4781 -2.2489
  880MOL0     H18787  10.874   3.806   8.039 -0.9674  0.6325 -0.0306
  880MOL0     H18788  11.031   3.592   7.829  1.2667  0.4405  0.4538
  880MOL0     H18789  10.908   3.589   7.949  0.7652 -0.3873  2.7170
  880MOL0     H18790  10.992   3.361   7.851  2.6706  2.4429 -2.8259
  880MOL0     H18791  10.995   3.362   8.032  0.2823  0.8107  2.1707
  880MOL0     H18792  11.256   3.415   7.995  0.7043  1.6479 -2.2909
  880MOL0     H18793  11.235   3.388   7.829  1.6945  1.9534  2.0418
  880MOL0     H18794  11.320   3.202   7.910  0.6129  1.8910  0.6869
  880MOL0     H18795  11.201   3.173   8.029 -0.1654  1.2452  0.2161
  880MOL0     H18796  10.992   3.035   7.676  2.1217 -0.3669 -0.5730
  880MOL0     H18797  11.207   3.635   8.256 -0.0663  0.0119  3.5257
  880MOL0     H18798  11.200   3.877   8.505  2.4700 -0.6631 -0.8581
  880MOL0     H18799  11.099   3.746   8.567  0.7869  0.6440  0.7454
  880MOL0     H18800  11.242   3.702   8.468 -0.3627 -0.0296 -2.2249
  881MOL0     O18801   8.164   5.805   7.338  0.0837  0.0573 -0.5790
  881MOL0     C18802   8.089   5.721   7.394 -0.2456  0.1895 -0.0545
  881MOL0     O18803   8.138   5.610   7.455 -0.4969  0.0127  0.0377
  881MOL0     C18804   8.266   5.582   7.454 -0.9731 -0.5036  0.4779
  881MOL0     C18805   8.380   5.672   7.444  0.1618  0.0580  0.0249
  881MOL0     C18806   8.514   5.632   7.446  0.6583 -0.3625  0.1617
  881MOL0     C18807   8.547   5.494   7.445  0.0511 -0.7024 -0.3792
  881MOL0     O18808   8.671   5.443   7.473  0.8014 -0.1307 -0.9008
  881MOL0     C18809   8.792   5.518   7.444  0.4384  0.1379 -0.5659
  881MOL0     C18810   8.797   5.524   7.286 -0.5498 -0.6665  0.1976
  881MOL0     C18811   8.905   5.622   7.237  0.7799 -0.2532 -0.1794
  881MOL0     C18812   8.916   5.759   7.315 -0.5342  0.5287 -0.0364
  881MOL0     C18813   9.010   5.856   7.240  0.4802  0.4308  0.8323
  881MOL0     C18814   8.962   6.003   7.253 -0.2043 -0.8085  0.2593
  881MOL0     C18815   9.069   6.099   7.202  0.1340 -0.1025  0.3338
  881MOL0     C18816   9.030   6.239   7.173 -0.4472  1.4947 -0.7366
  881MOL0     N18817   8.975   6.317   7.290 -0.2610  0.0418  0.2492
  881MOL0     C18818   8.866   6.281   7.368  0.3618 -0.0385 -0.1910
  881MOL0     C18819   8.852   6.383   7.465 -0.0942 -0.4574  0.7238
  881MOL0     C18820   8.775   6.386   7.596 -0.3364  0.3060  0.2313
  881MOL0     C18821   8.654   6.474   7.593  0.3213  0.9189  0.3327
  881MOL0     C18822   8.627   6.559   7.469 -0.1665 -0.1969  0.5313
  881MOL0     C18823   8.490   6.635   7.483 -0.5415 -0.1458 -1.4307
  881MOL0     O18824   8.514   6.739   7.574 -0.3917 -0.2172 -0.4769
  881MOL0     C18825   8.418   6.818   7.625 -0.1926 -0.1208 -0.6124
  881MOL0     C18826   8.449   6.906   7.726  1.1257  0.3566 -1.0689
  881MOL0     C18827   8.343   6.986   7.783 -0.1275  0.1515 -0.0634
  881MOL0     C18828   8.211   6.973   7.743  0.3098 -0.0298  0.6741
  881MOL0     C18829   8.100   7.042   7.810  0.0110  0.4040  0.4502
  881MOL0     O18830   7.973   7.013   7.759 -0.4233 -0.4946 -0.4752
  881MOL0     C18831   7.865   7.071   7.814 -0.4644 -0.4442  1.1085
  881MOL0     C18832   7.830   7.055   7.947 -0.8292 -0.6753 -0.1756
  881MOL0     C18833   7.715   7.120   8.000 -1.1559 -1.0220  0.0212
  881MOL0     C18834   7.620   7.190   7.918  0.0023 -0.1033  0.1462
  881MOL0     O18835   7.506   7.246   7.969 -0.8921  0.0178  0.4194
  881MOL0     C18836   7.494   7.262   8.115  0.7793 -1.7193  1.0750
  881MOL0     C18837   7.411   7.384   8.130 -0.0170  0.1261  0.0533
  881MOL0     C18838   7.347   7.397   8.272  0.2612 -0.1814 -0.7473
  881MOL0     C18839   7.194   7.382   8.269 -0.2532  0.3439 -0.2404
  881MOL0     C18840   7.149   7.253   8.212  0.6914  0.8131  0.0080
  881MOL0     C18841   7.017   7.267   8.145  0.3133  0.0391 -0.0167
  881MOL0     C18842   6.949   7.137   8.123 -0.0272  0.3419 -0.2194
  881MOL0     C18843   6.825   7.155   8.025  0.1114 -0.4963  1.0529
  881MOL0    Cl18844   6.740   6.997   7.990  0.0094 -0.1853  0.2761
  881MOL0     C18845   7.655   7.193   7.777  0.8816 -1.4004 -0.4020
  881MOL0     C18846   7.777   7.137   7.726  0.0130 -0.2897 -0.2139
  881MOL0     O18847   8.126   7.132   7.887  0.4508 -0.1003  0.2536
  881MOL0     C18848   8.192   6.886   7.646  0.7917  0.1546  0.6242
  881MOL0     C18849   8.290   6.822   7.579  0.1732  0.8869  0.7866
  881MOL0     N18850   8.965   6.464   7.451 -0.3146  0.0722 -0.4319
  881MOL0     N18851   9.033   6.425   7.347 -0.5383 -0.6419 -0.6423
  881MOL0     C18852   8.442   5.406   7.442 -0.3567 -0.1389  0.4542
  881MOL0     C18853   8.306   5.447   7.443  0.4505  0.2145 -0.1647
  881MOL0     C18854   7.949   5.751   7.393  0.0750  0.3523 -0.1896
  881MOL0     C18855   7.861   5.630   7.401  0.6582 -0.6251  0.0322
  881MOL0     C18856   7.720   5.647   7.405 -0.2313  0.7576 -0.3377
  881MOL0     C18857   7.671   5.777   7.435 -0.2266 -0.1005 -0.1572
  881MOL0     O18858   7.543   5.806   7.452 -0.3776  0.5696  0.6213
  881MOL0     C18859   7.444   5.725   7.383 -0.5183  0.7304 -0.5474
  881MOL0     C18860   7.314   5.799   7.372  0.3326  0.2328  0.5969
  881MOL0     C18861   7.316   5.916   7.267  1.7632  0.1447  0.2476
  881MOL0     C18862   7.174   5.985   7.247 -0.3305 -0.0927  0.3925
  881MOL0     C18863   7.192   6.126   7.201  0.2523 -0.1615 -0.1659
  881MOL0     C18864   7.215   6.245   7.177 -0.0780 -0.3497 -0.5656
  881MOL0     C18865   7.751   5.893   7.429  0.9791  0.0276 -0.9134
  881MOL0     C18866   7.887   5.882   7.403 -0.4521  0.0919 -0.2033
  881MOL0     C18867   7.963   6.008   7.388  0.1655  0.8745  0.5632
  881MOL0     H18868   8.361   5.779   7.442 -0.6942 -0.0936 -1.7255
  881MOL0     H18869   8.585   5.714   7.448  1.2136 -0.7097 -2.2139
  881MOL0     H18870   8.776   5.617   7.486  2.7043  0.5681 -0.6180
  881MOL0     H18871   8.883   5.489   7.496 -0.9715  0.4910  2.2999
  881MOL0     H18872   8.700   5.533   7.236 -0.2363  0.7531 -0.2176
  881MOL0     H18873   8.836   5.426   7.258  1.7052 -0.1542  1.3052
  881MOL0     H18874   8.898   5.642   7.130 -1.5178 -1.5472 -0.3385
  881MOL0     H18875   9.004   5.581   7.259  2.2388  1.3353 -3.2019
  881MOL0     H18876   8.818   5.808   7.323 -0.4828  0.7881 -0.9066
  881MOL0     H18877   8.951   5.742   7.417  0.4191 -2.5462 -0.7805
  881MOL0     H18878   9.116   5.843   7.265  0.0628 -0.8108  2.1074
  881MOL0     H18879   8.991   5.849   7.133  0.9417  0.9672  0.7119
  881MOL0     H18880   8.864   6.024   7.211 -0.7451  0.7465  2.1411
  881MOL0     H18881   8.972   6.022   7.361  2.2228 -0.5419  0.0506
  881MOL0     H18882   9.107   6.057   7.109 -1.1648 -0.7178  0.0645
  881MOL0     H18883   9.156   6.107   7.268  2.8242  3.1164 -3.1584
  881MOL0     H18884   9.119   6.297   7.147  0.5928  1.2641  2.0014
  881MOL0     H18885   8.953   6.249   7.095  0.3700  0.7072 -1.6730
  881MOL0     H18886   8.805   6.191   7.377  0.1974 -0.4204 -3.6241
  881MOL0     H18887   8.742   6.284   7.617 -0.8698  0.6307  1.0472
  881MOL0     H18888   8.834   6.429   7.678 -1.4821 -0.8110  1.7110
  881MOL0     H18889   8.565   6.412   7.599  0.6004  0.0899 -2.6594
  881MOL0     H18890   8.645   6.536   7.683 -2.1034  3.3859 -1.4769
  881MOL0     H18891   8.621   6.495   7.381  2.3392 -1.1718  0.9753
  881MOL0     H18892   8.707   6.634   7.459 -0.1670  0.2352  3.0866
  881MOL0     H18893   8.407   6.576   7.522 -0.5070  0.7128  0.0362
  881MOL0     H18894   8.462   6.694   7.395 -3.5169  3.0304  1.3358
  881MOL0     H18895   8.553   6.908   7.755  1.7731  2.4831 -3.2139
  881MOL0     H18896   8.380   7.049   7.863 -0.5581 -1.4654  1.4516
  881MOL0     H18897   7.895   7.013   8.024 -0.4958  0.7797  0.3663
  881MOL0     H18898   7.711   7.126   8.108  0.9462  2.2772  0.0526
  881MOL0     H18899   7.441   7.172   8.147 -2.9098 -0.1016 -0.0004
  881MOL0     H18900   7.586   7.277   8.172 -0.1141  3.4655  1.6037
  881MOL0     H18901   7.484   7.463   8.110 -2.2035  3.0283  2.5646
  881MOL0     H18902   7.337   7.395   8.050 -2.7190  1.2497  2.5422
  881MOL0     H18903   7.399   7.333   8.344  2.0303  1.1741 -0.7438
  881MOL0     H18904   7.356   7.504   8.297  1.3531  0.1970 -2.5528
  881MOL0     H18905   7.149   7.464   8.212 -1.2382  0.6907  0.9845
  881MOL0     H18906   7.147   7.393   8.367 -2.4360 -3.4176 -0.6933
  881MOL0     H18907   7.133   7.186   8.298 -1.6549  0.4987 -0.6080
  881MOL0     H18908   7.214   7.211   8.135 -0.4972  0.9243 -1.0805
  881MOL0     H18909   6.953   7.334   8.202  1.9334  0.3721  1.4873
  881MOL0     H18910   7.028   7.312   8.046 -0.6892 -0.7631 -0.5114
  881MOL0     H18911   6.908   7.092   8.214 -2.2664 -0.5386 -1.5696
  881MOL0     H18912   7.024   7.068   8.082 -0.1156  0.0176  0.1546
  881MOL0     H18913   6.753   7.225   8.069 -0.3342 -1.1977  1.4499
  881MOL0     H18914   6.859   7.206   7.934 -0.2438 -0.5372  0.8930
  881MOL0     H18915   7.581   7.250   7.721 -0.4692 -3.4687 -0.8520
  881MOL0     H18916   7.808   7.139   7.622 -3.1445 -1.3915 -1.2878
  881MOL0     H18917   8.095   6.864   7.603  1.0403  0.2819 -0.0225
  881MOL0     H18918   8.251   6.759   7.499  2.5882  0.7801 -0.4085
  881MOL0     H18919   8.449   5.297   7.442 -3.9427 -0.4854  0.0586
  881MOL0     H18920   8.232   5.370   7.427 -0.7602  0.8571  1.8816
  881MOL0     H18921   7.903   5.531   7.382 -0.4470 -0.6092 -3.1357
  881MOL0     H18922   7.663   5.556   7.410  0.0926  0.5748  0.2120
  881MOL0     H18923   7.416   5.639   7.445  0.1235  1.3264  0.6018
  881MOL0     H18924   7.487   5.682   7.293  2.3573 -1.4082  1.6630
  881MOL0     H18925   7.289   5.842   7.470  0.5117 -1.9275  1.6423
  881MOL0     H18926   7.228   5.735   7.354  0.2148  0.7715 -0.9160
  881MOL0     H18927   7.356   5.881   7.172 -0.0523  1.6093 -1.1363
  881MOL0     H18928   7.393   5.983   7.304  1.4912  0.6112 -0.0270
  881MOL0     H18929   7.113   5.922   7.182  4.2555 -4.8698 -0.0026
  881MOL0     H18930   7.139   5.992   7.350  1.3397 -0.0080  0.9781
  881MOL0     H18931   7.226   6.343   7.135 -1.3145  1.5516  3.1421
  881MOL0     H18932   7.693   5.984   7.443  0.1296 -0.6686  0.2846
  881MOL0     H18933   7.943   6.049   7.288  1.5957 -0.5679 -0.3559
  881MOL0     H18934   7.927   6.080   7.462 -0.2318 -1.5014  2.8446
  881MOL0     H18935   8.072   5.999   7.385 -0.0027 -1.9424 -1.8969
  882MOL0     O18936  10.714   5.025   3.165 -0.4244 -0.0841 -0.7403
  882MOL0     C18937  10.696   5.103   3.072  0.5701  0.9039 -0.3167
  882MOL0     O18938  10.790   5.177   3.003 -0.0140  0.1612 -0.3667
  882MOL0     C18939  10.914   5.180   3.068 -0.2299 -0.3528  1.3523
  882MOL0     C18940  11.005   5.077   3.062 -0.1347  1.1153  0.8570
  882MOL0     C18941  11.127   5.082   3.109 -0.2139  0.1193 -0.6873
  882MOL0     C18942  11.176   5.206   3.166  0.5838 -0.1972  1.1840
  882MOL0     O18943  11.313   5.214   3.192 -0.5085  0.6814  0.8455
  882MOL0     C18944  11.382   5.328   3.148 -0.2991 -0.3345 -0.5522
  882MOL0     C18945  11.405   5.436   3.253 -0.3543 -0.7202  0.9406
  882MOL0     C18946  11.498   5.386   3.361  0.1521  0.6857 -0.4562
  882MOL0     C18947  11.522   5.500   3.461 -0.5891  0.8389 -0.5250
  882MOL0     C18948  11.581   5.449   3.593  0.6664  0.6396 -0.7955
  882MOL0     C18949  11.712   5.374   3.573 -0.5703 -0.1303 -0.1379
  882MOL0     C18950  11.783   5.364   3.711 -0.1854  0.1022 -0.4003
  882MOL0     C18951  11.729   5.244   3.789  0.3955  0.7980  0.8431
  882MOL0     N18952  11.807   5.214   3.915  0.0509 -0.4456  0.5303
  882MOL0     C18953  11.759   5.244   4.033  0.2155 -0.3209 -1.1805
  882MOL0     C18954  11.823   5.167   4.122  0.2011  0.4745 -0.1534
  882MOL0     C18955  11.803   5.158   4.271  0.7070  0.2312  0.6012
  882MOL0     C18956  11.814   5.281   4.355 -0.1056 -1.0531  0.2693
  882MOL0     C18957  11.961   5.324   4.367  0.2408 -0.9352 -0.5222
  882MOL0     C18958  11.958   5.467   4.390  0.0501 -0.7380  0.8473
  882MOL0     O18959  11.931   5.527   4.261 -0.2936 -0.4406  0.1807
  882MOL0     C18960  11.903   5.657   4.255  0.1761  0.7374  0.8298
  882MOL0     C18961  11.825   5.698   4.147  1.0266 -0.1621  0.0288
  882MOL0     C18962  11.789   5.836   4.123 -0.0250 -0.3478 -0.1351
  882MOL0     C18963  11.832   5.937   4.215  0.4939  0.4676  0.9571
  882MOL0     C18964  11.805   6.082   4.186 -0.0720 -0.5012 -0.7228
  882MOL0     O18965  11.887   6.167   4.258 -0.2265 -0.1578  0.7784
  882MOL0     C18966  11.887   6.300   4.263  0.2229  0.4176  0.4035
  882MOL0     C18967  11.794   6.386   4.199 -0.2486 -0.0159 -0.2104
  882MOL0     C18968  11.805   6.524   4.221  0.0768  0.0397  0.9743
  882MOL0     C18969  11.909   6.583   4.292 -0.4856 -0.1981  0.4668
  882MOL0     O18970  11.933   6.720   4.310  0.4145 -0.3423  0.2482
  882MOL0     C18971  11.848   6.811   4.236  0.0680  0.0298 -0.2894
  882MOL0     C18972  11.917   6.832   4.103 -0.5070 -0.8516 -1.3481
  882MOL0     C18973  11.875   6.971   4.037  0.5968 -0.5825  0.4382
  882MOL0     C18974  11.731   6.937   3.981 -0.2259  0.6055 -1.4377
  882MOL0     C18975  11.652   7.057   3.939 -0.7959 -0.2437  0.6904
  882MOL0     C18976  11.528   7.025   3.841  0.5680 -0.2445 -0.0363
  882MOL0     C18977  11.450   7.155   3.798  0.6684  0.2941  0.1352
  882MOL0     C18978  11.314   7.104   3.741 -0.8528 -0.4166 -0.2044
  882MOL0    Cl18979  11.227   7.236   3.639 -0.1478  0.7153  0.1193
  882MOL0     C18980  12.001   6.490   4.347 -0.8349  0.7309  0.3521
  882MOL0     C18981  11.988   6.352   4.346  0.7186 -0.1247 -0.6384
  882MOL0     O18982  11.727   6.106   4.098  0.0950  0.7990  0.3419
  882MOL0     C18983  11.904   5.893   4.323  0.1249  1.0163 -0.1056
  882MOL0     C18984  11.947   5.757   4.342 -0.1219  0.2670  0.0683
  882MOL0     N18985  11.932   5.104   4.054  0.4890  0.8527 -0.4360
  882MOL0     N18986  11.917   5.138   3.932 -0.4963 -0.0012 -0.7849
  882MOL0     C18987  11.091   5.320   3.153  0.3862  0.8109  0.4358
  882MOL0     C18988  10.959   5.311   3.105 -0.5688 -0.2802 -0.3216
  882MOL0     C18989  10.562   5.100   3.011  0.7490 -0.4161  0.1442
  882MOL0     C18990  10.489   4.986   3.001  0.3160  0.8499  0.3932
  882MOL0     C18991  10.374   4.971   2.921 -0.6165 -0.5043  0.3084
  882MOL0     C18992  10.323   5.084   2.858  0.3705 -0.2956  0.4773
  882MOL0     O18993  10.213   5.068   2.774 -0.6634 -1.0576  0.1679
  882MOL0     C18994  10.095   5.117   2.831  0.8251 -0.0111 -1.0029
  882MOL0     C18995   9.972   5.030   2.794 -0.4639  0.1370 -0.3991
  882MOL0     C18996   9.969   4.895   2.866  0.0952 -0.3076 -0.3413
  882MOL0     C18997   9.901   4.784   2.782 -0.0383 -0.1276  0.1814
  882MOL0     C18998   9.996   4.724   2.687  0.1422  0.6258  0.5606
  882MOL0     C18999  10.058   4.676   2.595 -0.0307 -0.5395 -0.1221
  882MOL0     C19000  10.384   5.209   2.884  0.3110 -0.2579  1.0414
  882MOL0     C19001  10.506   5.216   2.961  0.6138  0.4290 -0.0928
  882MOL0     C19002  10.556   5.351   2.991 -0.3579 -0.2307  0.2530
  882MOL0     H19003  10.978   4.987   3.007  1.9490 -0.8215  2.7845
  882MOL0     H19004  11.181   4.988   3.110  1.9093  1.1452 -3.7252
  882MOL0     H19005  11.483   5.288   3.132 -0.4149 -1.0493  0.4073
  882MOL0     H19006  11.352   5.369   3.051  0.5845  0.9040 -0.3165
  882MOL0     H19007  11.308   5.470   3.289 -0.4211  1.4320 -1.0793
  882MOL0     H19008  11.453   5.529   3.221  0.3801 -0.3578  2.9242
  882MOL0     H19009  11.596   5.357   3.322 -0.3897 -1.4345 -0.3669
  882MOL0     H19010  11.456   5.301   3.414 -1.4020  2.3121  1.0652
  882MOL0     H19011  11.599   5.562   3.416  2.4185 -1.9024  0.4871
  882MOL0     H19012  11.430   5.558   3.473 -0.8566  0.4864 -0.8557
  882MOL0     H19013  11.593   5.541   3.652 -0.3928 -0.3350  1.0087
  882MOL0     H19014  11.507   5.390   3.647  3.2012 -0.6394  1.5115
  882MOL0     H19015  11.706   5.274   3.530 -3.4234 -0.3308  0.4928
  882MOL0     H19016  11.776   5.437   3.511 -0.6547 -0.2836 -0.3798
  882MOL0     H19017  11.795   5.453   3.772  2.0002 -0.1587 -0.3917
  882MOL0     H19018  11.890   5.351   3.693 -0.0697 -2.8171  1.6782
  882MOL0     H19019  11.623   5.268   3.801  0.3508  1.9272 -1.2555
  882MOL0     H19020  11.742   5.158   3.723  0.1793  1.7464 -0.4720
  882MOL0     H19021  11.682   5.319   4.054  1.4994  1.1454 -1.4995
  882MOL0     H19022  11.702   5.121   4.293  1.4496 -2.5124 -0.1363
  882MOL0     H19023  11.866   5.088   4.327 -1.0394  1.2444  4.1432
  882MOL0     H19024  11.749   5.363   4.323  0.1074  0.8481  4.1148
  882MOL0     H19025  11.775   5.271   4.457 -2.0571 -2.0056 -0.5118
  882MOL0     H19026  12.025   5.288   4.285  0.8142  0.3815 -0.6846
  882MOL0     H19027  12.001   5.276   4.457  0.5227 -2.6970 -1.5334
  882MOL0     H19028  12.058   5.503   4.415 -0.8783  0.0828  3.7181
  882MOL0     H19029  11.897   5.494   4.476 -1.2804 -1.2964  0.1177
  882MOL0     H19030  11.802   5.626   4.070 -1.3883 -0.1278  0.6517
  882MOL0     H19031  11.731   5.864   4.036  0.3832 -2.0985 -1.0039
  882MOL0     H19032  11.710   6.361   4.135 -0.1154 -1.1426  0.0457
  882MOL0     H19033  11.731   6.583   4.167 -1.6170 -1.5666  1.4306
  882MOL0     H19034  11.748   6.767   4.231  1.0984 -2.3092 -1.6612
  882MOL0     H19035  11.849   6.908   4.288 -2.2918 -0.0842  0.1186
  882MOL0     H19036  12.027   6.833   4.107 -0.5002  1.2679 -0.2315
  882MOL0     H19037  11.894   6.748   4.038  1.5426 -0.4078 -2.7658
  882MOL0     H19038  11.878   7.056   4.105  0.6301  0.3140 -0.6532
  882MOL0     H19039  11.932   7.001   3.948 -0.9320 -0.6417 -0.6054
  882MOL0     H19040  11.671   6.890   4.059 -0.5042  3.0307 -0.0905
  882MOL0     H19041  11.758   6.881   3.891 -1.0831  0.5962 -1.6984
  882MOL0     H19042  11.713   7.122   3.876  0.0640 -2.5638 -1.0503
  882MOL0     H19043  11.619   7.126   4.017 -3.7939  0.7769 -1.2998
  882MOL0     H19044  11.563   6.980   3.748 -0.9129 -1.8991  0.1626
  882MOL0     H19045  11.465   6.960   3.902  0.2670 -0.5053 -0.6229
  882MOL0     H19046  11.506   7.202   3.716  0.5798 -0.9884 -0.6785
  882MOL0     H19047  11.432   7.221   3.884 -1.0455  1.1551 -0.8196
  882MOL0     H19048  11.331   7.023   3.670  1.5217 -0.0331 -0.1448
  882MOL0     H19049  11.257   7.052   3.819 -0.4291  0.3593  0.6401
  882MOL0     H19050  12.089   6.537   4.390 -1.5295  3.4517 -0.9569
  882MOL0     H19051  12.064   6.284   4.385  1.9398  1.2850 -0.4446
  882MOL0     H19052  11.954   5.958   4.393  0.4457  1.2811 -0.5785
  882MOL0     H19053  12.020   5.723   4.415  0.4652  2.8541  0.8163
  882MOL0     H19054  11.109   5.412   3.207  0.5731 -0.1971  2.1725
  882MOL0     H19055  10.898   5.400   3.094  1.4242  0.9677 -1.8808
  882MOL0     H19056  10.533   4.893   3.036 -3.6710 -1.5707 -0.3358
  882MOL0     H19057  10.322   4.877   2.904 -2.3090 -0.2706  3.4451
  882MOL0     H19058  10.085   5.224   2.809 -2.8867  0.7997  3.3272
  882MOL0     H19059  10.109   5.113   2.939 -1.4727 -0.0877 -0.6563
  882MOL0     H19060   9.959   5.012   2.687  1.0172 -1.3286 -0.3773
  882MOL0     H19061   9.886   5.087   2.829 -2.4782 -1.7537 -2.0097
  882MOL0     H19062   9.941   4.928   2.966  0.7286 -2.4964  0.6251
  882MOL0     H19063  10.071   4.862   2.886 -0.1346 -3.1651 -3.0669
  882MOL0     H19064   9.864   4.709   2.853 -0.0249  1.3229  1.7743
  882MOL0     H19065   9.823   4.832   2.721  1.1914 -1.1994 -2.3911
  882MOL0     H19066  10.095   4.624   2.508  1.7996 -4.4889  2.7205
  882MOL0     H19067  10.349   5.297   2.831 -0.5016 -0.8413  0.5997
  882MOL0     H19068  10.628   5.371   2.911 -0.4541  1.4533  0.5550
  882MOL0     H19069  10.462   5.406   3.001 -0.1812  0.1613 -0.1948
  882MOL0     H19070  10.614   5.369   3.082 -0.7636  0.5145  0.3673
  883MOL0     O19071   2.750   5.692   2.521  0.3994 -0.5987  0.3891
  883MOL0     C19072   2.842   5.764   2.481 -0.4420  0.0786  0.0060
  883MOL0     O19073   2.951   5.819   2.557 -0.2890  0.6618  0.0349
  883MOL0     C19074   2.941   5.840   2.685 -0.4045  0.1188 -0.6134
  883MOL0     C19075   3.056   5.805   2.763 -0.0170  0.1038 -0.0670
  883MOL0     C19076   3.046   5.834   2.901  0.1325  1.2193 -0.2884
  883MOL0     C19077   2.937   5.905   2.961 -1.1840 -0.1156  0.3682
  883MOL0     O19078   2.924   5.923   3.093  0.0010 -0.0550 -0.3528
  883MOL0     C19079   3.045   5.973   3.154  0.5151  0.0096 -0.1326
  883MOL0     C19080   3.014   6.030   3.298  0.1034 -0.4640  0.6531
  883MOL0     C19081   3.005   5.910   3.385  0.2586 -0.9620  0.5432
  883MOL0     C19082   2.967   5.948   3.527  0.2092  1.1150  0.0064
  883MOL0     C19083   3.080   5.950   3.623 -1.0189  0.1565  0.4511
  883MOL0     C19084   3.066   6.062   3.723 -0.3756  0.3995 -0.8342
  883MOL0     C19085   3.184   6.060   3.827  0.4813 -0.3565  0.2484
  883MOL0     C19086   3.171   5.972   3.941 -0.8842  0.8983 -0.2553
  883MOL0     N19087   3.042   5.961   4.009  0.4032  0.2923 -0.1787
  883MOL0     C19088   2.934   5.885   3.953 -0.6944  0.9863 -0.8609
  883MOL0     C19089   2.835   5.890   4.044 -0.0891 -0.0424  1.0819
  883MOL0     C19090   2.712   5.809   4.037 -0.3417 -0.5249  0.0028
  883MOL0     C19091   2.721   5.681   4.129  0.4297 -0.1730 -1.1718
  883MOL0     C19092   2.606   5.580   4.097  0.7669 -0.2986 -0.0819
  883MOL0     C19093   2.617   5.446   4.182  0.0954  0.6074 -0.4030
  883MOL0     O19094   2.589   5.468   4.316 -0.1274 -0.3779 -0.5722
  883MOL0     C19095   2.457   5.444   4.354  0.4423 -0.6072 -0.1366
  883MOL0     C19096   2.452   5.436   4.495  0.6109  0.5584  0.6604
  883MOL0     C19097   2.340   5.367   4.552 -0.6716  1.0330  0.0269
  883MOL0     C19098   2.237   5.328   4.469  0.4949  1.1150  0.4317
  883MOL0     C19099   2.106   5.262   4.519  1.1408 -0.0185  0.7366
  883MOL0     O19100   2.113   5.198   4.635 -0.1940  0.8946 -0.3309
  883MOL0     C19101   2.020   5.118   4.699  0.2855 -0.5245  0.3414
  883MOL0     C19102   1.914   5.050   4.639  0.2693  0.0127  0.6075
  883MOL0     C19103   1.828   4.969   4.716 -1.2441  1.3095  0.1069
  883MOL0     C19104   1.851   4.954   4.852  0.2700  0.1931 -0.0062
  883MOL0     O19105   1.754   4.883   4.930  0.0744 -0.7726  0.2030
  883MOL0     C19106   1.716   4.941   5.059 -0.5172 -0.4525 -0.3226
  883MOL0     C19107   1.752   4.859   5.177  0.0777 -0.6353 -0.4702
  883MOL0     C19108   1.694   4.929   5.304 -0.4862 -0.6247  0.0237
  883MOL0     C19109   1.811   5.004   5.369 -0.7608 -0.7582 -0.9553
  883MOL0     C19110   1.763   5.096   5.469 -0.0149 -0.0326 -0.3085
  883MOL0     C19111   1.695   5.225   5.421  0.4396  1.0492 -0.5223
  883MOL0     C19112   1.774   5.316   5.323  1.4710  0.2716  0.3290
  883MOL0     C19113   1.708   5.345   5.191  0.6266  0.2020  0.3053
  883MOL0    Cl19114   1.528   5.424   5.207 -0.0810  0.2302  0.1369
  883MOL0     C19115   1.955   5.026   4.910  0.8814  0.2016  0.3769
  883MOL0     C19116   2.032   5.109   4.833  0.0612 -0.6299  0.4806
  883MOL0     O19117   2.006   5.266   4.451 -0.3192  0.6422 -0.5290
  883MOL0     C19118   2.238   5.365   4.338 -0.5702  0.7141  0.1007
  883MOL0     C19119   2.348   5.416   4.277  0.2192 -0.7296  0.6572
  883MOL0     N19120   2.886   5.960   4.156 -0.7998 -0.0202 -0.2883
  883MOL0     N19121   3.003   6.014   4.134  0.2072 -0.1697  0.0599
  883MOL0     C19122   2.827   5.927   2.884  0.0609  0.0513  0.5701
  883MOL0     C19123   2.830   5.899   2.742  0.4028 -0.2562 -0.0693
  883MOL0     C19124   2.855   5.779   2.331 -1.1626  0.2374 -0.6232
  883MOL0     C19125   2.977   5.797   2.258 -0.8180  0.4852 -0.4778
  883MOL0     C19126   2.993   5.811   2.123 -0.4225  0.1074 -0.1173
  883MOL0     C19127   2.881   5.808   2.044 -0.4726 -1.0438  0.2855
  883MOL0     O19128   2.904   5.818   1.909 -0.6103  0.0040 -0.4287
  883MOL0     C19129   2.805   5.841   1.807  0.9833 -0.4935  1.0485
  883MOL0     C19130   2.889   5.881   1.685 -0.0144  0.8139  0.1926
  883MOL0     C19131   2.930   6.030   1.685 -0.8319  0.0848 -0.1148
  883MOL0     C19132   2.966   6.069   1.547 -0.3156  0.2694 -0.5925
  883MOL0     C19133   3.069   5.988   1.471 -0.9697 -0.0703  0.1539
  883MOL0     C19134   3.164   5.932   1.412  0.4424  0.0261  0.1233
  883MOL0     C19135   2.759   5.808   2.105  0.2325  0.4866  0.2766
  883MOL0     C19136   2.740   5.785   2.243 -0.5171 -0.5083  0.4103
  883MOL0     C19137   2.590   5.758   2.278  0.5493  0.1378  0.2694
  883MOL0     H19138   3.148   5.770   2.717  0.4748 -0.1518  1.0814
  883MOL0     H19139   3.134   5.820   2.964  1.2024  1.9484 -1.5506
  883MOL0     H19140   3.130   5.904   3.162  0.2648 -0.4816 -1.4261
  883MOL0     H19141   3.091   6.050   3.092  3.2302 -1.5844 -0.2381
  883MOL0     H19142   2.925   6.094   3.294 -0.2043 -0.9080  0.1545
  883MOL0     H19143   3.094   6.095   3.332  0.6015  0.1326 -1.4967
  883MOL0     H19144   3.100   5.856   3.392  1.9916  2.0322  1.8681
  883MOL0     H19145   2.930   5.839   3.350 -1.1809  1.9054 -2.8180
  883MOL0     H19146   2.904   6.038   3.528 -2.4990 -0.6225 -1.4973
  883MOL0     H19147   2.907   5.863   3.560 -0.1571  1.3535 -0.0411
  883MOL0     H19148   3.079   5.857   3.680 -1.6140  0.8325  1.5996
  883MOL0     H19149   3.178   5.950   3.575 -1.4588 -3.0843 -0.7095
  883MOL0     H19150   3.065   6.152   3.662  1.3614  0.0251 -1.4848
  883MOL0     H19151   2.970   6.047   3.772  0.3028  1.8096  1.0266
  883MOL0     H19152   3.215   6.155   3.872  4.9310 -1.0445 -0.8740
  883MOL0     H19153   3.271   6.038   3.765 -0.6014 -4.1706 -0.1817
  883MOL0     H19154   3.199   5.877   3.894 -1.8490  1.0081 -1.0905
  883MOL0     H19155   3.251   5.991   4.013 -1.3336  2.3753 -0.1316
  883MOL0     H19156   2.947   5.823   3.864  1.9160  0.0942  0.0614
  883MOL0     H19157   2.625   5.868   4.068 -0.5776 -1.0733  0.3781
  883MOL0     H19158   2.690   5.787   3.932  1.4196 -0.4401 -0.4307
  883MOL0     H19159   2.818   5.635   4.108  0.3272 -1.0663  0.1856
  883MOL0     H19160   2.732   5.714   4.233  1.7894 -0.1527 -1.3015
  883MOL0     H19161   2.614   5.554   3.991 -4.4405  2.1603 -1.3805
  883MOL0     H19162   2.509   5.625   4.117  0.1103 -2.1523  1.1850
  883MOL0     H19163   2.723   5.420   4.170  1.0121  2.7534  2.1815
  883MOL0     H19164   2.562   5.357   4.150  1.5659 -0.5359  0.0971
  883MOL0     H19165   2.538   5.450   4.560  0.1484 -2.5821  2.1600
  883MOL0     H19166   2.354   5.348   4.658  1.3250  2.4128  0.0812
  883MOL0     H19167   1.906   5.039   4.531  6.1141  0.4104 -0.1830
  883MOL0     H19168   1.752   4.906   4.671  0.4764 -0.5428 -0.3336
  883MOL0     H19169   1.759   5.040   5.077 -0.6171 -0.8473  2.5261
  883MOL0     H19170   1.608   4.955   5.059 -0.4478  0.1898  0.9623
  883MOL0     H19171   1.714   4.757   5.163  0.4506 -1.4875  3.5816
  883MOL0     H19172   1.861   4.860   5.173  0.1850  3.6349 -0.7554
  883MOL0     H19173   1.618   5.003   5.277 -0.6647 -1.8375 -3.3035
  883MOL0     H19174   1.650   4.857   5.373 -0.3747  0.1330  0.9094
  883MOL0     H19175   1.884   5.048   5.300 -0.2258  0.6791  0.4726
  883MOL0     H19176   1.878   4.932   5.416  1.2412  0.4929 -1.7266
  883MOL0     H19177   1.852   5.141   5.513 -0.2250  1.1279 -1.0178
  883MOL0     H19178   1.708   5.027   5.534  0.1775 -2.0694 -2.2233
  883MOL0     H19179   1.597   5.205   5.375  2.0041  0.0142 -3.6950
  883MOL0     H19180   1.673   5.283   5.512  1.7598  1.9775 -0.7653
  883MOL0     H19181   1.861   5.269   5.276  0.1659 -1.0884 -0.8332
  883MOL0     H19182   1.814   5.401   5.379  0.8631  0.5460  0.3576
  883MOL0     H19183   1.772   5.420   5.142  3.0328  1.0626  4.3115
  883MOL0     H19184   1.707   5.254   5.130  2.2705 -0.4218  1.1645
  883MOL0     H19185   1.985   5.019   5.014 -1.8653 -0.2349  1.2051
  883MOL0     H19186   2.109   5.169   4.879  0.2222  0.1827 -0.7998
  883MOL0     H19187   2.155   5.333   4.276  0.7775 -0.8368 -0.9981
  883MOL0     H19188   2.338   5.437   4.172 -4.8840  3.4608  1.5797
  883MOL0     H19189   2.730   5.967   2.910  0.5580 -0.0742  2.7955
  883MOL0     H19190   2.744   5.922   2.681 -2.0698 -1.6278  2.6129
  883MOL0     H19191   3.067   5.800   2.318 -0.8253 -2.4320 -0.2090
  883MOL0     H19192   3.096   5.810   2.090  0.2405  2.0260  1.6512
  883MOL0     H19193   2.735   5.922   1.829 -0.1530 -1.3643  0.7391
  883MOL0     H19194   2.749   5.751   1.781  0.4518  0.4643 -1.3932
  883MOL0     H19195   2.832   5.859   1.594 -1.5674  2.8902  0.6082
  883MOL0     H19196   2.980   5.823   1.663 -1.2582 -0.0483 -3.4160
  883MOL0     H19197   3.014   6.061   1.748 -0.8268 -1.9977  0.9818
  883MOL0     H19198   2.853   6.100   1.717  2.1124  2.7230  1.8033
  883MOL0     H19199   2.871   6.063   1.493 -1.4192  0.9071  1.2098
  883MOL0     H19200   2.987   6.176   1.550 -2.2943  0.7007  2.6961
  883MOL0     H19201   3.235   5.872   1.358  0.7443  0.9117 -0.4720
  883MOL0     H19202   2.672   5.806   2.039  0.8789  0.9556 -0.6228
  883MOL0     H19203   2.572   5.709   2.374 -1.0547  1.4713  0.7012
  883MOL0     H19204   2.535   5.850   2.256 -0.5724 -0.7596 -0.8185
  883MOL0     H19205   2.559   5.679   2.209  0.0592  0.8443 -0.3368
  884MOL0     O19206   4.600   4.849   5.769 -0.9712 -0.6367 -0.3827
  884MOL0     C19207   4.515   4.821   5.685  0.1043 -0.6279 -0.2239
  884MOL0     O19208   4.419   4.915   5.643 -0.3165  0.6282 -0.2243
  884MOL0     C19209   4.411   5.034   5.714  0.5903  0.8943 -0.5033
  884MOL0     C19210   4.434   5.048   5.851 -0.3332 -0.5689  0.4073
  884MOL0     C19211   4.401   5.169   5.908 -1.0957 -0.3164  0.2193
  884MOL0     C19212   4.400   5.286   5.831  0.3152 -0.1277 -0.3143
  884MOL0     O19213   4.404   5.411   5.900  0.2632 -0.3255 -0.2964
  884MOL0     C19214   4.422   5.523   5.815 -0.4118  0.3852  0.9432
  884MOL0     C19215   4.464   5.649   5.898  0.5131 -0.5373  0.4213
  884MOL0     C19216   4.468   5.785   5.817  0.1748  0.3181 -0.2904
  884MOL0     C19217   4.315   5.830   5.796  0.0937 -0.7205  0.1402
  884MOL0     C19218   4.296   5.939   5.679  0.7211  1.2472 -0.9269
  884MOL0     C19219   4.399   6.055   5.694  0.4487 -0.2048 -1.2170
  884MOL0     C19220   4.383   6.136   5.817 -0.0865  0.3169 -0.6066
  884MOL0     C19221   4.240   6.191   5.842  0.0327  0.0550 -0.1757
  884MOL0     N19222   4.247   6.279   5.958  0.1395  0.5406 -0.5891
  884MOL0     C19223   4.301   6.406   5.953 -0.4104 -0.0355 -0.3753
  884MOL0     C19224   4.351   6.433   6.073  0.2175 -0.0905 -0.2069
  884MOL0     C19225   4.424   6.566   6.127  0.6182  0.0673  1.2563
  884MOL0     C19226   4.567   6.578   6.070 -1.0753  0.0408 -0.2867
  884MOL0     C19227   4.644   6.448   6.104 -0.5289  0.3686  0.2579
  884MOL0     C19228   4.792   6.450   6.085  0.5465 -0.0416  0.6829
  884MOL0     O19229   4.849   6.554   6.160  0.7794  1.2958 -0.4179
  884MOL0     C19230   4.872   6.523   6.290 -0.0313 -0.3450  0.3942
  884MOL0     C19231   4.942   6.616   6.363 -0.3568 -0.8831 -0.4121
  884MOL0     C19232   4.987   6.595   6.491  0.4337 -0.2385 -1.4689
  884MOL0     C19233   4.956   6.473   6.556  0.9770  0.2838  0.0369
  884MOL0     C19234   4.976   6.444   6.700 -0.1982 -0.0260  0.1304
  884MOL0     O19235   4.925   6.338   6.757  0.4870  0.1244 -0.5545
  884MOL0     C19236   4.945   6.330   6.891 -0.5088 -0.1715  0.2813
  884MOL0     C19237   4.840   6.346   6.984 -0.1877 -0.5457  0.1829
  884MOL0     C19238   4.872   6.336   7.127 -0.6443 -1.0530  0.4156
  884MOL0     C19239   5.009   6.318   7.170 -0.7133 -0.0468 -0.1648
  884MOL0     O19240   5.056   6.311   7.298  0.2202 -0.2039  0.7090
  884MOL0     C19241   4.975   6.324   7.415 -0.7826  0.3402 -0.5768
  884MOL0     C19242   4.968   6.204   7.510 -0.7951  0.1588  0.0109
  884MOL0     C19243   4.978   6.063   7.444  0.1905  0.3919 -1.0893
  884MOL0     C19244   5.109   6.009   7.393  0.1381 -0.0069 -0.4826
  884MOL0     C19245   5.102   5.857   7.403 -0.6318 -0.1407 -0.7830
  884MOL0     C19246   5.216   5.781   7.325 -0.1347 -0.5340 -0.1848
  884MOL0     C19247   5.354   5.815   7.396 -0.3593  0.6813  0.3352
  884MOL0     C19248   5.387   5.736   7.530 -0.6860 -0.1617 -0.1306
  884MOL0    Cl19249   5.331   5.830   7.667 -0.0682 -0.1055 -0.1708
  884MOL0     C19250   5.110   6.309   7.079 -0.1991  0.2868 -0.5322
  884MOL0     C19251   5.077   6.320   6.949 -0.8495 -0.5551 -0.6340
  884MOL0     O19252   5.044   6.526   6.753 -0.4477 -0.2700 -0.2299
  884MOL0     C19253   4.891   6.372   6.483  0.3920 -0.1034 -0.3214
  884MOL0     C19254   4.841   6.403   6.358 -0.7179  1.0436  0.4873
  884MOL0     N19255   4.335   6.315   6.155 -0.0536  0.3110  0.3569
  884MOL0     N19256   4.274   6.232   6.084  0.4928 -0.2875  0.6053
  884MOL0     C19257   4.400   5.280   5.694 -0.1546 -0.0559 -0.1798
  884MOL0     C19258   4.399   5.146   5.635  0.4828 -1.1522  0.2959
  884MOL0     C19259   4.529   4.692   5.603 -0.4978  0.8573 -1.2146
  884MOL0     C19260   4.476   4.684   5.475  0.7484  1.0594 -0.2402
  884MOL0     C19261   4.505   4.584   5.376 -0.5868  0.0548 -0.0141
  884MOL0     C19262   4.581   4.479   5.427  0.7381  0.0871 -0.0363
  884MOL0     O19263   4.607   4.375   5.347  0.7664  0.3626 -0.3069
  884MOL0     C19264   4.730   4.297   5.375 -0.0663 -0.7862  0.2654
  884MOL0     C19265   4.784   4.217   5.258  0.4948  0.3204  0.8439
  884MOL0     C19266   4.702   4.105   5.231 -0.3152 -0.3223 -0.3776
  884MOL0     C19267   4.768   4.012   5.128  0.2155 -0.6497  0.0411
  884MOL0     C19268   4.781   4.084   4.998 -0.0422  0.3711  0.1708
  884MOL0     C19269   4.775   4.142   4.894  0.1944 -0.8321 -0.1142
  884MOL0     C19270   4.639   4.486   5.556  0.5215 -0.3579  0.1765
  884MOL0     C19271   4.611   4.584   5.650 -0.5999  0.1591  0.0842
  884MOL0     C19272   4.678   4.566   5.788 -0.0195 -0.0978  0.0742
  884MOL0     H19273   4.435   4.971   5.928  0.6604 -0.7191  0.2538
  884MOL0     H19274   4.394   5.165   6.016 -0.1177  0.3470  0.3246
  884MOL0     H19275   4.497   5.506   5.737  0.7717  1.4531  1.8172
  884MOL0     H19276   4.322   5.534   5.771 -1.7906  0.8497  3.9844
  884MOL0     H19277   4.559   5.620   5.943  1.1014 -0.3901 -0.7089
  884MOL0     H19278   4.404   5.651   5.989  0.5202  0.7434  0.4068
  884MOL0     H19279   4.521   5.790   5.721 -0.4278  3.8786 -0.5497
  884MOL0     H19280   4.514   5.866   5.874  2.2123  0.3921 -1.9285
  884MOL0     H19281   4.255   5.745   5.762  1.5782 -1.1555 -1.5692
  884MOL0     H19282   4.278   5.857   5.895  2.0191 -4.6304  2.1651
  884MOL0     H19283   4.305   5.892   5.581  1.6366 -1.0812  0.2013
  884MOL0     H19284   4.195   5.979   5.692 -0.6754 -2.2147 -0.0122
  884MOL0     H19285   4.503   6.022   5.684  0.3652 -1.6983  1.7458
  884MOL0     H19286   4.377   6.121   5.610  0.2888  0.4214 -0.6960
  884MOL0     H19287   4.441   6.227   5.800 -1.3764  1.0775 -1.0892
  884MOL0     H19288   4.420   6.082   5.904 -0.9682  0.6846  0.0126
  884MOL0     H19289   4.201   6.244   5.755  0.9817 -0.8249 -1.1661
  884MOL0     H19290   4.168   6.110   5.858 -1.3724  0.9923 -1.4906
  884MOL0     H19291   4.308   6.474   5.869  0.2081  0.3755  0.0098
  884MOL0     H19292   4.362   6.652   6.101 -0.5509 -1.0273  0.3054
  884MOL0     H19293   4.423   6.574   6.236 -1.8252 -0.3562  1.3136
  884MOL0     H19294   4.557   6.584   5.962  0.0990 -2.2345 -0.5933
  884MOL0     H19295   4.617   6.666   6.112 -0.3063 -1.4118  2.0925
  884MOL0     H19296   4.611   6.363   6.044 -0.1017 -1.2060  2.1212
  884MOL0     H19297   4.627   6.428   6.211 -0.7592  0.4631  0.2379
  884MOL0     H19298   4.821   6.464   5.980 -0.2431 -0.7887  0.3526
  884MOL0     H19299   4.837   6.355   6.116  3.6910  1.0806 -0.0656
  884MOL0     H19300   4.949   6.713   6.314 -1.0242 -0.6262 -0.0023
  884MOL0     H19301   5.021   6.681   6.548  1.8684 -1.7275  0.0418
  884MOL0     H19302   4.739   6.366   6.949  0.5008  1.6090 -0.7172
  884MOL0     H19303   4.802   6.358   7.207 -2.1108  1.0129 -1.3458
  884MOL0     H19304   5.006   6.410   7.476 -1.4756 -0.7568  1.3851
  884MOL0     H19305   4.869   6.346   7.400 -1.3931 -3.7586 -4.7259
  884MOL0     H19306   5.054   6.211   7.577 -1.7745  3.0328  1.1077
  884MOL0     H19307   4.886   6.203   7.583 -2.0863 -0.8478 -1.3867
  884MOL0     H19308   4.929   5.992   7.512  0.6171 -1.1845 -2.3454
  884MOL0     H19309   4.908   6.063   7.359 -0.9526 -0.0925 -0.1805
  884MOL0     H19310   5.187   6.042   7.461 -2.8666  2.5638  2.0043
  884MOL0     H19311   5.124   6.037   7.288 -4.0790 -2.9117 -2.1544
  884MOL0     H19312   5.005   5.829   7.361 -0.5979 -0.7205 -0.4845
  884MOL0     H19313   5.097   5.830   7.509  2.4962 -0.0343 -0.5040
  884MOL0     H19314   5.198   5.679   7.361 -0.6751  0.7849  3.8019
  884MOL0     H19315   5.216   5.799   7.217  1.8934  2.3465  0.1728
  884MOL0     H19316   5.370   5.923   7.406  0.8693  0.4746  0.8044
  884MOL0     H19317   5.423   5.786   7.316 -1.7718  2.5349 -1.6503
  884MOL0     H19318   5.333   5.641   7.531  2.7046 -2.3184  2.2331
  884MOL0     H19319   5.494   5.712   7.538 -0.4591  1.1507  1.2577
  884MOL0     H19320   5.211   6.289   7.112 -0.2296 -1.2739 -1.3398
  884MOL0     H19321   5.167   6.301   6.891  1.6506  0.5260  2.5807
  884MOL0     H19322   4.859   6.275   6.520 -0.8861  0.7247  0.8462
  884MOL0     H19323   4.779   6.331   6.305  1.7508  2.4977 -5.0971
  884MOL0     H19324   4.411   5.358   5.620  1.9704 -0.4037 -0.2867
  884MOL0     H19325   4.399   5.149   5.527  3.8608  1.6522  0.1896
  884MOL0     H19326   4.401   4.758   5.446 -1.6239 -0.5344  1.4409
  884MOL0     H19327   4.457   4.586   5.279 -0.7100 -2.4552 -0.0771
  884MOL0     H19328   4.718   4.231   5.461 -0.7586  0.1431  0.9034
  884MOL0     H19329   4.804   4.373   5.402 -1.4190  0.6074  0.1986
  884MOL0     H19330   4.883   4.182   5.288  1.4132  2.4494  0.5128
  884MOL0     H19331   4.799   4.272   5.165 -1.1494 -2.4551 -1.2318
  884MOL0     H19332   4.610   4.142   5.185  0.5592 -0.4019 -2.3295
  884MOL0     H19333   4.682   4.047   5.321 -1.7227 -0.3009 -0.6491
  884MOL0     H19334   4.865   3.972   5.158 -0.5562 -2.5784  0.1260
  884MOL0     H19335   4.699   3.929   5.109  0.2194 -0.5426 -0.4555
  884MOL0     H19336   4.774   4.197   4.802  2.4877 -2.3343 -1.1449
  884MOL0     H19337   4.692   4.403   5.603 -0.0590  0.4662  2.4130
  884MOL0     H19338   4.605   4.575   5.869 -0.7352 -1.7823 -0.3405
  884MOL0     H19339   4.719   4.464   5.794 -3.3080 -1.5461  0.1870
  884MOL0     H19340   4.757   4.641   5.792 -1.9661  2.2555 -2.1502
  885MOL0     O19341   7.329   4.300   7.053 -0.1240  0.5811  0.4995
  885MOL0     C19342   7.335   4.270   7.174  0.6110 -0.9146 -0.0197
  885MOL0     O19343   7.411   4.180   7.233 -0.1043  0.0314 -0.1388
  885MOL0     C19344   7.434   4.079   7.146  0.7961  0.6849 -0.6564
  885MOL0     C19345   7.565   4.027   7.129  0.2543 -0.7960  0.1876
  885MOL0     C19346   7.582   3.910   7.056  0.4471 -0.0501  1.0817
  885MOL0     C19347   7.477   3.845   6.987 -0.3765 -0.8685 -0.2638
  885MOL0     O19348   7.496   3.721   6.918 -0.5381 -0.2505  0.6104
  885MOL0     C19349   7.413   3.616   6.951 -0.2841  0.9548 -0.2368
  885MOL0     C19350   7.356   3.559   6.818  0.0145  0.3011 -0.7957
  885MOL0     C19351   7.234   3.465   6.850 -0.2989  0.2612 -0.2401
  885MOL0     C19352   7.191   3.397   6.713  0.2558 -0.7788 -0.1070
  885MOL0     C19353   7.073   3.297   6.727 -0.6165  0.0210  0.5793
  885MOL0     C19354   7.028   3.231   6.595 -0.7477 -0.0461  0.0652
  885MOL0     C19355   6.896   3.169   6.576  0.8169  0.7872  0.4250
  885MOL0     C19356   6.872   3.065   6.689 -1.3121 -0.4434 -1.1182
  885MOL0     N19357   6.939   2.940   6.662 -0.4769 -0.1803  0.6540
  885MOL0     C19358   6.874   2.815   6.651  0.1748 -0.0522 -0.1817
  885MOL0     C19359   6.978   2.732   6.656  0.1393  0.7609 -0.2629
  885MOL0     C19360   6.980   2.582   6.649  0.7517 -0.4298  0.2713
  885MOL0     C19361   7.021   2.540   6.509  0.1753  0.0065  0.0681
  885MOL0     C19362   7.148   2.614   6.445 -0.6637  0.3977  0.2901
  885MOL0     C19363   7.286   2.597   6.502 -0.8231  1.1643  0.5400
  885MOL0     O19364   7.301   2.462   6.539  0.0708 -0.1914  0.6595
  885MOL0     C19365   7.395   2.437   6.635 -0.0576 -0.5273 -0.8678
  885MOL0     C19366   7.352   2.374   6.748 -0.0352 -0.9931  1.1592
  885MOL0     C19367   7.435   2.354   6.855  0.5065  0.5991  0.2181
  885MOL0     C19368   7.571   2.399   6.861 -0.9508  0.8345  0.1691
  885MOL0     C19369   7.672   2.387   6.965  0.4495 -0.0097  0.0645
  885MOL0     O19370   7.629   2.339   7.085 -0.6849  0.0139 -0.0371
  885MOL0     C19371   7.713   2.324   7.187 -0.3269 -0.0345 -0.0084
  885MOL0     C19372   7.769   2.196   7.198  0.5387 -1.0937 -0.7722
  885MOL0     C19373   7.857   2.169   7.302 -0.3674 -0.0186  0.1867
  885MOL0     C19374   7.898   2.269   7.401 -0.5191 -0.0984 -0.5202
  885MOL0     O19375   7.995   2.228   7.497 -0.1464 -0.5921 -0.4840
  885MOL0     C19376   7.972   2.296   7.621  0.6639  0.0269  0.2582
  885MOL0     C19377   8.052   2.225   7.729  0.1683 -0.4527  0.3204
  885MOL0     C19378   8.019   2.276   7.865 -0.1935 -0.0211 -0.0859
  885MOL0     C19379   8.094   2.211   7.977 -1.2691  0.9010 -0.2305
  885MOL0     C19380   8.246   2.228   7.949  0.1658 -0.1981 -0.4602
  885MOL0     C19381   8.311   2.189   8.084  0.7419  0.4781  0.2113
  885MOL0     C19382   8.467   2.194   8.089 -0.1110 -0.9567  0.3043
  885MOL0     C19383   8.527   2.154   8.229  0.3831  0.2523 -0.3270
  885MOL0    Cl19384   8.460   1.999   8.306 -0.0257 -0.5530 -0.4519
  885MOL0     C19385   7.836   2.403   7.395  0.6868  0.3661  0.2546
  885MOL0     C19386   7.754   2.424   7.282 -0.2591 -0.1629  0.7388
  885MOL0     O19387   7.779   2.431   6.947 -0.5979 -0.5114 -0.1809
  885MOL0     C19388   7.618   2.468   6.740  0.1288  0.1418 -0.4883
  885MOL0     C19389   7.520   2.494   6.640  0.0460  0.3866 -0.5988
  885MOL0     N19390   7.088   2.803   6.693 -0.2694  0.4891  0.2138
  885MOL0     N19391   7.067   2.925   6.708 -0.5098  0.0179 -0.4371
  885MOL0     C19392   7.353   3.895   7.017  0.7643  0.1987  0.0214
  885MOL0     C19393   7.324   4.005   7.098 -0.3290 -0.2019  0.3701
  885MOL0     C19394   7.238   4.333   7.274 -0.3501  0.1795 -0.0987
  885MOL0     C19395   7.201   4.255   7.377 -0.6945  0.4827  0.1645
  885MOL0     C19396   7.119   4.299   7.477 -0.1408 -0.2213  0.0234
  885MOL0     C19397   7.079   4.434   7.483 -0.9826 -0.3551 -0.5513
  885MOL0     O19398   7.017   4.483   7.599 -0.7225 -0.5483 -0.3628
  885MOL0     C19399   6.928   4.592   7.594  0.4548  0.4128  0.3957
  885MOL0     C19400   6.798   4.551   7.649  0.6053 -0.9942 -0.7711
  885MOL0     C19401   6.700   4.497   7.543  0.2122 -0.0373 -0.5810
  885MOL0     C19402   6.754   4.371   7.465 -0.4951 -0.1427  0.2369
  885MOL0     C19403   6.638   4.327   7.379 -0.7301 -1.3102  0.5176
  885MOL0     C19404   6.561   4.283   7.299  0.3748  0.1764 -1.0117
  885MOL0     C19405   7.112   4.506   7.366  0.2292 -1.1320 -0.3130
  885MOL0     C19406   7.189   4.461   7.258 -0.0743  0.8427  0.4951
  885MOL0     C19407   7.217   4.552   7.137  0.1029 -0.3412 -1.4096
  885MOL0     H19408   7.647   4.072   7.184 -0.6793 -0.2623  1.1748
  885MOL0     H19409   7.682   3.871   7.037 -0.1374 -0.0470 -3.0519
  885MOL0     H19410   7.468   3.537   7.002 -1.7992  1.4964  2.4691
  885MOL0     H19411   7.334   3.653   7.018 -2.1617 -0.4318 -1.5672
  885MOL0     H19412   7.427   3.505   6.755 -0.4026  2.1419 -2.9726
  885MOL0     H19413   7.324   3.643   6.755 -0.4262  0.3444 -0.5234
  885MOL0     H19414   7.153   3.521   6.897  1.3358  0.6227  2.3218
  885MOL0     H19415   7.256   3.401   6.935 -3.8659  3.6788  3.7207
  885MOL0     H19416   7.162   3.466   6.634  2.4330 -2.0667 -2.1924
  885MOL0     H19417   7.285   3.348   6.684  1.0766  0.6701  0.0175
  885MOL0     H19418   7.105   3.217   6.796  0.1260 -2.8779 -2.8070
  885MOL0     H19419   6.991   3.356   6.767 -0.1022  1.6196 -0.6456
  885MOL0     H19420   7.019   3.322   6.536  0.0341  1.1498  1.7135
  885MOL0     H19421   7.115   3.173   6.563  0.3071  0.2491  2.2244
  885MOL0     H19422   6.868   3.136   6.476 -1.0346 -0.6557  1.3406
  885MOL0     H19423   6.825   3.249   6.598 -0.9680 -0.2283 -1.3441
  885MOL0     H19424   6.908   3.116   6.779 -2.9791  0.1119 -0.7263
  885MOL0     H19425   6.767   3.054   6.718 -0.5590 -1.5124  1.5310
  885MOL0     H19426   6.768   2.794   6.640 -0.2490 -0.5761  3.6103
  885MOL0     H19427   7.046   2.537   6.724 -0.0036  0.0744  1.2781
  885MOL0     H19428   6.881   2.540   6.672 -0.0409 -1.5035 -4.2687
  885MOL0     H19429   7.034   2.432   6.508  0.0461 -0.0234 -1.7437
  885MOL0     H19430   6.930   2.563   6.452 -0.7507  1.9420  2.1622
  885MOL0     H19431   7.128   2.722   6.441  0.2232  0.5726  0.5170
  885MOL0     H19432   7.144   2.576   6.342  5.7144  1.2129 -0.6502
  885MOL0     H19433   7.288   2.664   6.589 -1.9410  0.1432  1.3866
  885MOL0     H19434   7.368   2.623   6.434  1.0802 -0.5730  2.0028
  885MOL0     H19435   7.252   2.335   6.737 -0.0461 -1.1537  1.8198
  885MOL0     H19436   7.402   2.305   6.945 -3.2278  2.6459  0.1393
  885MOL0     H19437   7.751   2.119   7.124 -0.9233 -4.8181  3.0595
  885MOL0     H19438   7.903   2.071   7.308  1.8618  0.8392 -1.4367
  885MOL0     H19439   8.002   2.402   7.619 -1.0256  0.5282 -0.9492
  885MOL0     H19440   7.864   2.295   7.639  0.5355  1.7725 -0.1804
  885MOL0     H19441   8.049   2.117   7.712  0.5836 -0.0905 -2.6707
  885MOL0     H19442   8.156   2.251   7.708  0.5023 -2.4955 -0.8985
  885MOL0     H19443   8.052   2.380   7.862 -0.4763  0.0596 -1.4162
  885MOL0     H19444   7.912   2.259   7.880  0.3334 -1.4189  2.6706
  885MOL0     H19445   8.062   2.107   7.982 -1.4428  0.8552 -1.8533
  885MOL0     H19446   8.069   2.269   8.066  1.0239  1.1029  0.3424
  885MOL0     H19447   8.276   2.331   7.932  2.9263 -0.6486  0.9598
  885MOL0     H19448   8.275   2.158   7.870 -4.1735 -6.3699  2.5417
  885MOL0     H19449   8.277   2.261   8.159 -0.2453  1.9935 -1.6177
  885MOL0     H19450   8.279   2.089   8.115  0.2727  0.8947  1.1198
  885MOL0     H19451   8.506   2.294   8.068 -2.1287 -0.2332 -0.1902
  885MOL0     H19452   8.509   2.120   8.020  3.1727 -0.2711  1.3994
  885MOL0     H19453   8.634   2.141   8.213  0.3861 -0.0152 -0.0855
  885MOL0     H19454   8.525   2.237   8.299  2.6506  0.0744  0.0123
  885MOL0     H19455   7.870   2.483   7.461 -1.1387 -0.9952  3.0414
  885MOL0     H19456   7.696   2.510   7.251 -2.3838 -2.0345 -0.8107
  885MOL0     H19457   7.712   2.516   6.716  1.1892 -1.5872  0.0562
  885MOL0     H19458   7.551   2.542   6.547  2.1566  0.4063  0.0502
  885MOL0     H19459   7.263   3.856   6.972 -0.1676  1.5465  0.6478
  885MOL0     H19460   7.224   4.044   7.114 -0.5868 -1.4867  2.2188
  885MOL0     H19461   7.228   4.153   7.403 -2.7523  0.2924  1.7724
  885MOL0     H19462   7.100   4.227   7.556 -0.6599  0.2889  0.3827
  885MOL0     H19463   6.899   4.614   7.490 -2.3993 -1.0323  0.7671
  885MOL0     H19464   6.973   4.678   7.644 -1.1286  0.7277  1.3417
  885MOL0     H19465   6.749   4.636   7.698  0.3049 -0.8891 -1.2474
  885MOL0     H19466   6.798   4.479   7.731 -1.0702  0.2669  0.3945
  885MOL0     H19467   6.671   4.570   7.467  0.5816  2.1792  1.3253
  885MOL0     H19468   6.612   4.467   7.600  0.0293  1.0042 -0.2961
  885MOL0     H19469   6.844   4.399   7.409 -1.5567 -0.1557 -1.5250
  885MOL0     H19470   6.787   4.285   7.525  1.1111 -0.5895 -1.2008
  885MOL0     H19471   6.489   4.258   7.224  0.7720 -3.5680 -0.3382
  885MOL0     H19472   7.093   4.613   7.357  2.5066 -0.8411 -2.4639
  885MOL0     H19473   7.170   4.650   7.140  0.1775 -0.3272 -0.4181
  885MOL0     H19474   7.325   4.567   7.121 -0.0524  0.7293 -1.5055
  885MOL0     H19475   7.177   4.507   7.046 -0.9218 -0.8372 -0.7326
  886MOL0     O19476   5.523   6.083   5.224  0.4179 -0.4120 -0.3987
  886MOL0     C19477   5.614   6.147   5.275  0.2927 -0.2707 -0.1089
  886MOL0     O19478   5.744   6.125   5.232 -0.3184 -0.0406  0.3260
  886MOL0     C19479   5.777   6.028   5.135 -0.8726 -0.0235  0.9834
  886MOL0     C19480   5.725   6.015   5.004 -0.4486 -0.2861 -0.3031
  886MOL0     C19481   5.768   5.916   4.924  0.5641 -0.5852 -0.2371
  886MOL0     C19482   5.893   5.855   4.952  0.1332 -0.1227  0.0246
  886MOL0     O19483   5.963   5.770   4.863 -0.4044  0.2326  0.4445
  886MOL0     C19484   5.920   5.731   4.731 -0.3121 -1.3105  0.8149
  886MOL0     C19485   6.027   5.647   4.664 -0.4682  0.7093  0.0021
  886MOL0     C19486   6.150   5.730   4.623 -0.7163  0.0911 -0.2271
  886MOL0     C19487   6.258   5.648   4.551  0.2339 -0.8760  0.3343
  886MOL0     C19488   6.385   5.719   4.554  0.4505  0.2580 -0.4424
  886MOL0     C19489   6.389   5.856   4.496 -0.9724 -0.4163  0.6938
  886MOL0     C19490   6.530   5.917   4.504  0.5316  0.2626 -0.3269
  886MOL0     C19491   6.542   6.053   4.423  0.5331 -0.8585  0.0269
  886MOL0     N19492   6.493   6.185   4.478 -1.3523  0.4154 -0.7372
  886MOL0     C19493   6.544   6.265   4.582 -1.6971 -0.1436  0.2742
  886MOL0     C19494   6.449   6.354   4.614  0.3463  0.6037 -0.2646
  886MOL0     C19495   6.448   6.471   4.711 -0.1577 -0.3150 -0.2640
  886MOL0     C19496   6.590   6.529   4.739  0.6186  0.2910 -0.1637
  886MOL0     C19497   6.655   6.570   4.600  0.2554 -0.1879  0.0799
  886MOL0     C19498   6.783   6.669   4.597  0.0501  0.9428 -0.4025
  886MOL0     O19499   6.843   6.675   4.469  0.0424  0.3894  0.4222
  886MOL0     C19500   6.939   6.769   4.460  0.5927 -0.4471  0.4567
  886MOL0     C19501   6.996   6.786   4.340 -0.1435 -0.1560 -0.3182
  886MOL0     C19502   7.100   6.871   4.314 -0.0497  0.8081 -0.6466
  886MOL0     C19503   7.162   6.932   4.424 -0.7297 -0.1268 -0.1998
  886MOL0     C19504   7.288   7.001   4.410 -0.1795 -0.1696  0.4419
  886MOL0     O19505   7.338   6.993   4.282  0.5455 -0.2001  0.6514
  886MOL0     C19506   7.446   7.063   4.255 -0.6199 -0.6318 -0.0635
  886MOL0     C19507   7.425   7.148   4.145  0.1698 -0.4415 -0.7813
  886MOL0     C19508   7.532   7.236   4.105  0.6590 -0.2760 -0.8604
  886MOL0     C19509   7.657   7.243   4.173 -0.2951  0.0423  0.1526
  886MOL0     O19510   7.760   7.316   4.115 -0.1471  0.5325 -0.1224
  886MOL0     C19511   7.893   7.253   4.103  0.6719 -0.0724 -0.6278
  886MOL0     C19512   7.992   7.317   3.999  0.6114  0.4534 -0.5396
  886MOL0     C19513   8.007   7.468   3.991  1.2098  0.1173 -0.4506
  886MOL0     C19514   8.078   7.504   3.864 -0.1151 -0.7679  0.5053
  886MOL0     C19515   8.098   7.654   3.862 -0.0889  0.2852 -0.1770
  886MOL0     C19516   8.185   7.713   3.751 -0.6466  0.3537 -0.5928
  886MOL0     C19517   8.125   7.715   3.611 -1.1483  0.3985 -0.3117
  886MOL0     C19518   8.150   7.599   3.517 -1.4602  0.5722  0.6878
  886MOL0    Cl19519   8.236   7.656   3.361  0.3077  0.0002  0.8004
  886MOL0     C19520   7.677   7.143   4.274 -1.0869 -0.1519  0.9099
  886MOL0     C19521   7.569   7.063   4.325  0.7281  0.0794  0.5947
  886MOL0     O19522   7.347   7.049   4.504 -0.0615  0.2819 -0.9096
  886MOL0     C19523   7.097   6.931   4.551 -0.2198 -0.2757  0.2662
  886MOL0     C19524   6.988   6.855   4.560 -0.5349 -0.4342 -0.5201
  886MOL0     N19525   6.345   6.339   4.526  0.6514  0.0204 -1.0671
  886MOL0     N19526   6.369   6.238   4.448  0.0499  0.5845  0.1707
  886MOL0     C19527   5.943   5.868   5.087  0.3411 -0.6475  0.8707
  886MOL0     C19528   5.875   5.945   5.179 -0.1541  0.0199  0.4717
  886MOL0     C19529   5.588   6.258   5.364 -0.5418 -0.0094  0.5340
  886MOL0     C19530   5.702   6.301   5.434 -0.0197 -0.0475 -1.1029
  886MOL0     C19531   5.697   6.406   5.525 -0.2552 -0.4165 -0.1713
  886MOL0     C19532   5.577   6.461   5.567  1.4404  0.5376  0.6196
  886MOL0     O19533   5.563   6.543   5.673  0.5190 -0.0240 -0.3837
  886MOL0     C19534   5.651   6.514   5.778  0.4139 -0.4809 -0.2578
  886MOL0     C19535   5.618   6.561   5.914  0.3081  0.6266 -0.1846
  886MOL0     C19536   5.733   6.515   6.011  1.3046 -0.1779 -0.4615
  886MOL0     C19537   5.697   6.552   6.152  0.8589 -0.4887  0.5007
  886MOL0     C19538   5.785   6.493   6.239 -0.8885 -0.9625 -0.7697
  886MOL0     C19539   5.875   6.448   6.304  0.1284  0.5854  0.5101
  886MOL0     C19540   5.455   6.422   5.494  0.7871  0.5291 -0.6624
  886MOL0     C19541   5.466   6.332   5.386  0.4684  0.0109 -0.1501
  886MOL0     C19542   5.336   6.314   5.298  0.1266  0.0799  0.0370
  886MOL0     H19543   5.645   6.077   4.966 -1.2702  0.3327  2.2203
  886MOL0     H19544   5.698   5.901   4.842 -2.7629 -1.9398  2.5873
  886MOL0     H19545   5.824   5.680   4.725 -0.4053 -0.9564 -1.8576
  886MOL0     H19546   5.908   5.817   4.664  1.0036 -2.0107 -0.3714
  886MOL0     H19547   5.981   5.611   4.572  0.6158  1.7930 -0.9905
  886MOL0     H19548   6.052   5.559   4.724 -1.2415 -0.7755 -1.7434
  886MOL0     H19549   6.205   5.774   4.707 -3.0861 -0.0976  1.5161
  886MOL0     H19550   6.120   5.813   4.558  1.9093  0.7373 -0.7361
  886MOL0     H19551   6.274   5.550   4.597  2.4341 -0.0784  1.4066
  886MOL0     H19552   6.224   5.628   4.449 -1.0875  1.6112  0.2066
  886MOL0     H19553   6.416   5.732   4.658  1.2568  0.7039 -0.7269
  886MOL0     H19554   6.461   5.648   4.520  0.7477  0.7615 -0.8413
  886MOL0     H19555   6.361   5.841   4.391  2.5236  1.2800 -0.6673
  886MOL0     H19556   6.322   5.921   4.554 -0.1521 -1.0434  2.4093
  886MOL0     H19557   6.609   5.847   4.473  2.8697  1.9139  1.4463
  886MOL0     H19558   6.552   5.946   4.608 -0.3990  2.6931 -0.7549
  886MOL0     H19559   6.650   6.062   4.411  0.5468  0.1147  0.7770
  886MOL0     H19560   6.505   6.028   4.323 -0.4543 -2.6435  0.7756
  886MOL0     H19561   6.636   6.255   4.638 -2.6759  1.3047  2.3091
  886MOL0     H19562   6.393   6.550   4.659 -1.4981  0.4233  2.1004
  886MOL0     H19563   6.383   6.459   4.798  1.6678 -1.4410  1.0141
  886MOL0     H19564   6.571   6.613   4.807  0.8105 -1.1813  1.7841
  886MOL0     H19565   6.652   6.449   4.780 -0.0505  0.5526  1.4181
  886MOL0     H19566   6.574   6.615   4.541 -2.6751 -2.4929  2.0090
  886MOL0     H19567   6.673   6.479   4.543 -0.5111 -1.3962  1.6925
  886MOL0     H19568   6.855   6.632   4.670  0.0978  0.7278 -0.5578
  886MOL0     H19569   6.756   6.766   4.640 -0.0363  0.9822 -0.5454
  886MOL0     H19570   6.964   6.736   4.249  1.4233 -2.0298  0.0833
  886MOL0     H19571   7.151   6.879   4.218 -3.1196  2.1883 -2.3164
  886MOL0     H19572   7.327   7.151   4.098 -0.9172  0.9439  1.3832
  886MOL0     H19573   7.524   7.292   4.013  0.0116 -0.9058 -1.2035
  886MOL0     H19574   7.940   7.251   4.202 -1.5874  1.7139  0.5876
  886MOL0     H19575   7.879   7.145   4.090  0.5182 -0.5095  2.3135
  886MOL0     H19576   8.090   7.270   4.009 -0.5109 -1.8472  0.6337
  886MOL0     H19577   7.938   7.285   3.909 -1.1722 -3.1924  1.5770
  886MOL0     H19578   7.911   7.519   3.993  1.0818 -0.0920 -1.0632
  886MOL0     H19579   8.059   7.497   4.083  0.1494  0.1291  0.1589
  886MOL0     H19580   8.019   7.470   3.779 -1.8755  1.5188  0.6926
  886MOL0     H19581   8.180   7.466   3.863  2.4140  4.4228  4.6562
  886MOL0     H19582   8.154   7.687   3.950  0.8959 -0.6099 -0.4521
  886MOL0     H19583   8.002   7.706   3.871  0.0454  0.4132  0.5992
  886MOL0     H19584   8.172   7.817   3.783 -0.2189  0.1871  0.1434
  886MOL0     H19585   8.283   7.664   3.756 -1.3123 -0.9090  0.9281
  886MOL0     H19586   8.180   7.799   3.569 -2.7574  1.5834 -0.1365
  886MOL0     H19587   8.020   7.743   3.624 -1.2912 -0.4692  0.5120
  886MOL0     H19588   8.219   7.534   3.571 -0.4858  3.0161  2.5743
  886MOL0     H19589   8.061   7.539   3.495  0.7804 -2.8413  0.2050
  886MOL0     H19590   7.767   7.158   4.334 -0.8054  1.3130  0.1829
  886MOL0     H19591   7.587   6.996   4.409 -1.5980 -0.2573  0.8833
  886MOL0     H19592   7.123   6.991   4.637 -2.3978  0.4584  0.4882
  886MOL0     H19593   6.941   6.855   4.658  0.7265  0.7876  0.1225
  886MOL0     H19594   6.020   5.797   5.116  0.0794 -1.0635  0.5584
  886MOL0     H19595   5.901   5.958   5.284 -0.5012  0.0153  0.5588
  886MOL0     H19596   5.801   6.262   5.414 -1.0136 -1.1776 -4.5097
  886MOL0     H19597   5.779   6.450   5.582 -1.6904  2.1401  0.0211
  886MOL0     H19598   5.749   6.554   5.753  0.4450 -0.3284  0.1013
  886MOL0     H19599   5.653   6.405   5.777 -0.2074 -0.4918 -0.3958
  886MOL0     H19600   5.528   6.517   5.959  1.8351 -0.0511  2.4624
  886MOL0     H19601   5.609   6.670   5.922  0.1595  0.4884  3.2593
  886MOL0     H19602   5.821   6.568   5.974  0.0102  0.6666 -2.4905
  886MOL0     H19603   5.741   6.406   6.006 -0.7107 -0.3500 -0.8011
  886MOL0     H19604   5.705   6.661   6.157 -1.8956  0.1806 -4.0969
  886MOL0     H19605   5.592   6.536   6.175  0.3997  0.1334 -1.0040
  886MOL0     H19606   5.943   6.403   6.373 -1.6449 -0.3948  1.6751
  886MOL0     H19607   5.352   6.448   5.513 -0.9665 -4.6693 -1.5191
  886MOL0     H19608   5.287   6.410   5.316  1.8898  1.5063 -2.1532
  886MOL0     H19609   5.366   6.315   5.193  0.0773  1.0996  0.0213
  886MOL0     H19610   5.280   6.226   5.329  1.9173 -0.0253  3.3638
  887MOL0     O19611  10.128   6.956   4.148 -0.1652  0.2040  0.3271
  887MOL0     C19612  10.110   6.887   4.242  0.0246 -0.9269 -0.8321
  887MOL0     O19613  10.139   6.920   4.373  0.2796 -0.8462  0.1279
  887MOL0     C19614  10.199   7.043   4.395  0.5389 -0.1065  0.1103
  887MOL0     C19615  10.126   7.131   4.482  0.0332  0.0482  1.2304
  887MOL0     C19616  10.170   7.264   4.500 -0.1193  0.4741  0.0083
  887MOL0     C19617  10.293   7.304   4.449  0.2614 -0.1763  1.0990
  887MOL0     O19618  10.348   7.423   4.455  0.0197 -0.6559 -0.1145
  887MOL0     C19619  10.274   7.538   4.506 -0.5561 -0.7419 -0.1549
  887MOL0     C19620  10.333   7.664   4.447 -0.8882 -0.4371 -0.5354
  887MOL0     C19621  10.284   7.793   4.513 -0.1981  0.6112 -0.1270
  887MOL0     C19622  10.347   7.919   4.458  0.2917 -0.0912  0.6969
  887MOL0     C19623  10.300   8.034   4.537  0.3610 -0.6080 -0.5515
  887MOL0     C19624  10.155   8.082   4.504  0.4964  0.5537  0.5796
  887MOL0     C19625  10.164   8.166   4.370  0.2066 -0.1879  0.0645
  887MOL0     C19626  10.024   8.199   4.321 -0.6556  1.5824 -0.0455
  887MOL0     N19627  10.042   8.285   4.202 -0.3891 -0.6513 -0.7299
  887MOL0     C19628  10.062   8.235   4.079 -0.8122  0.5646  0.0690
  887MOL0     C19629  10.075   8.351   4.003 -0.3284  0.6995  0.2018
  887MOL0     C19630  10.090   8.340   3.856  0.8349  0.6515  0.7051
  887MOL0     C19631   9.951   8.345   3.782 -0.8525 -0.2842 -0.0663
  887MOL0     C19632   9.940   8.461   3.684  0.5173  0.3231 -0.0787
  887MOL0     C19633   9.877   8.583   3.741 -0.5629  0.3719 -0.3412
  887MOL0     O19634   9.865   8.687   3.635  0.5481  0.0227 -0.7090
  887MOL0     C19635   9.772   8.785   3.659  0.1335  0.4949  0.4551
  887MOL0     C19636   9.803   8.917   3.612 -0.1733  0.5685  0.3567
  887MOL0     C19637   9.712   9.016   3.646 -0.3728 -0.2412  0.0655
  887MOL0     C19638   9.587   8.999   3.712  0.2279  0.3478 -0.8568
  887MOL0     C19639   9.512   9.109   3.769 -0.0125  0.2150  0.4802
  887MOL0     O19640   9.440   9.086   3.887  1.1019  0.5954  0.0141
  887MOL0     C19641   9.344   9.182   3.926 -0.2895 -0.6938 -0.7757
  887MOL0     C19642   9.208   9.160   3.921 -0.0372  0.2016  0.0847
  887MOL0     C19643   9.113   9.260   3.946  1.1968 -0.6877 -0.0100
  887MOL0     C19644   9.155   9.387   3.978  1.3758 -0.6106  0.6272
  887MOL0     O19645   9.073   9.496   3.990 -0.5768 -0.2599 -0.1840
  887MOL0     C19646   8.936   9.475   3.979 -1.1076 -0.0215 -0.2034
  887MOL0     C19647   8.867   9.615   3.991 -0.7475  0.4476 -0.5197
  887MOL0     C19648   8.775   9.614   4.114 -0.4502 -0.2179  1.3240
  887MOL0     C19649   8.689   9.742   4.114  0.3119  0.1784  0.3679
  887MOL0     C19650   8.573   9.755   4.018  0.1515  0.2542 -0.5668
  887MOL0     C19651   8.476   9.873   4.039 -0.1235 -0.1824  0.0257
  887MOL0     C19652   8.535  10.016   3.991  1.2102  0.6694  1.0069
  887MOL0     C19653   8.563  10.016   3.842 -0.8243  0.4827 -0.6840
  887MOL0    Cl19654   8.412   9.979   3.750  0.1868  0.2921  0.1381
  887MOL0     C19655   9.292   9.408   3.977 -0.5301  0.2965 -0.4818
  887MOL0     C19656   9.388   9.312   3.962  0.4406  1.0318  0.3330
  887MOL0     O19657   9.506   9.210   3.698 -0.1467 -0.3275 -0.0059
  887MOL0     C19658   9.564   8.865   3.758  0.1135  0.3665 -0.1143
  887MOL0     C19659   9.645   8.754   3.719  0.3510 -0.0014  0.2750
  887MOL0     N19660  10.061   8.467   4.079 -0.3558  0.0726 -0.7408
  887MOL0     N19661  10.045   8.425   4.198 -0.0130  0.5206 -0.1903
  887MOL0     C19662  10.367   7.208   4.371 -0.0525  0.2825  0.5591
  887MOL0     C19663  10.321   7.077   4.345  0.2724 -0.7217 -0.2724
  887MOL0     C19664  10.046   6.757   4.217  0.4522  0.3435 -0.8181
  887MOL0     C19665  10.055   6.675   4.104 -0.3569  0.4882  0.1598
  887MOL0     C19666  10.001   6.552   4.099 -0.9124  0.3115  0.0006
  887MOL0     C19667   9.944   6.500   4.207  0.0427 -0.6747 -0.6465
  887MOL0     O19668   9.901   6.367   4.206  0.2489  0.5048  0.0480
  887MOL0     C19669   9.944   6.277   4.095 -0.1765 -0.3868 -0.1472
  887MOL0     C19670  10.086   6.236   4.121 -0.5031  0.0536 -0.0858
  887MOL0     C19671  10.130   6.178   4.257  0.7615  0.3924 -0.0640
  887MOL0     C19672  10.077   6.046   4.308 -0.2837 -0.3542  0.5855
  887MOL0     C19673  10.142   5.996   4.435  0.2938 -0.3459  0.6353
  887MOL0     C19674  10.179   5.955   4.544 -0.0197  0.1589 -0.4065
  887MOL0     C19675   9.936   6.570   4.328  0.3211 -0.0905  0.0288
  887MOL0     C19676   9.968   6.708   4.331  0.2411 -0.1598  0.6162
  887MOL0     C19677   9.906   6.775   4.446 -0.6203  0.3942 -0.3350
  887MOL0     H19678  10.055   7.086   4.550 -0.2072 -0.2099  0.8128
  887MOL0     H19679  10.127   7.329   4.576  1.5063 -0.5482  1.9128
  887MOL0     H19680  10.168   7.518   4.486 -0.1626 -1.0707 -2.0998
  887MOL0     H19681  10.273   7.543   4.615  2.8217  0.5362 -0.0665
  887MOL0     H19682  10.330   7.657   4.338  1.7342  0.7894 -0.7645
  887MOL0     H19683  10.438   7.665   4.478 -1.7028  2.8804  2.8381
  887MOL0     H19684  10.301   7.797   4.621 -0.4910 -0.6721 -0.0126
  887MOL0     H19685  10.175   7.802   4.507 -0.2910 -0.7274 -0.8481
  887MOL0     H19686  10.456   7.916   4.466  0.7200  3.4836 -1.6186
  887MOL0     H19687  10.332   7.919   4.349  1.0770 -0.8010  0.5759
  887MOL0     H19688  10.293   8.002   4.641  1.0690 -1.3500 -0.7245
  887MOL0     H19689  10.358   8.126   4.532 -2.0401  1.1219  1.2678
  887MOL0     H19690  10.079   8.005   4.487 -2.2104  3.6091 -2.8795
  887MOL0     H19691  10.128   8.144   4.590  0.8574 -0.2134  1.2591
  887MOL0     H19692  10.211   8.100   4.297 -1.9141  0.1327 -1.7140
  887MOL0     H19693  10.218   8.261   4.379 -0.6847  0.5514 -1.7033
  887MOL0     H19694   9.979   8.105   4.287  2.4127 -0.6528  1.5679
  887MOL0     H19695   9.963   8.241   4.401 -3.0095  4.0180 -2.8893
  887MOL0     H19696  10.048   8.131   4.051  1.5729  0.4253 -0.8519
  887MOL0     H19697  10.165   8.412   3.821  1.4717  1.5058  3.5581
  887MOL0     H19698  10.131   8.241   3.836  0.2820  0.0335  2.4611
  887MOL0     H19699   9.950   8.248   3.732  1.5997 -1.6957  2.3423
  887MOL0     H19700   9.866   8.340   3.852 -1.4845 -1.7194 -0.8959
  887MOL0     H19701   9.876   8.432   3.600  2.1797  3.5095 -2.6380
  887MOL0     H19702  10.035   8.489   3.638  2.0262  0.4616  2.8949
  887MOL0     H19703   9.938   8.627   3.821  0.1997  1.5317 -1.5153
  887MOL0     H19704   9.783   8.555   3.791  0.1408 -1.8615 -0.1690
  887MOL0     H19705   9.894   8.939   3.556 -0.1371  3.8646  1.4945
  887MOL0     H19706   9.757   9.112   3.626  1.5277 -0.9899  0.5355
  887MOL0     H19707   9.187   9.057   3.895 -0.5072  0.2785  0.1460
  887MOL0     H19708   9.010   9.229   3.958  1.3030 -0.5840  1.2983
  887MOL0     H19709   8.915   9.428   3.882  2.2237 -0.4174 -0.8287
  887MOL0     H19710   8.895   9.400   4.048  1.1632  0.0440  1.3220
  887MOL0     H19711   8.941   9.694   4.008 -1.1534  0.9310 -0.9391
  887MOL0     H19712   8.830   9.630   3.889 -0.1524 -2.5564 -1.2738
  887MOL0     H19713   8.717   9.523   4.135 -2.0886  0.9508  2.0542
  887MOL0     H19714   8.845   9.619   4.198  1.3086  4.0268 -0.1402
  887MOL0     H19715   8.758   9.825   4.098  0.4254  0.2072  0.9863
  887MOL0     H19716   8.644   9.747   4.213  1.0151  1.6983  0.6402
  887MOL0     H19717   8.508   9.668   4.029  0.7319 -0.1868 -0.5709
  887MOL0     H19718   8.608   9.758   3.915 -1.3493  0.4287 -1.0962
  887MOL0     H19719   8.389   9.851   3.978 -0.9539  0.1852  1.0558
  887MOL0     H19720   8.452   9.876   4.146  2.9300 -1.5199  0.8619
  887MOL0     H19721   8.620  10.043   4.054  1.3761 -0.8548  1.4835
  887MOL0     H19722   8.458  10.093   3.986 -1.1010 -1.5284 -3.9431
  887MOL0     H19723   8.605  10.116   3.824 -0.1415  0.5104  0.8463
  887MOL0     H19724   8.644   9.949   3.811  1.4400  1.8762  1.7232
  887MOL0     H19725   9.314   9.514   3.971  0.5312  0.1335  0.1855
  887MOL0     H19726   9.495   9.334   3.959  0.2463  1.8386 -1.7723
  887MOL0     H19727   9.473   8.846   3.814  1.8343 -0.5199  2.6017
  887MOL0     H19728   9.610   8.660   3.759  0.3937 -0.4128 -0.6302
  887MOL0     H19729  10.465   7.246   4.346 -0.1666  2.0267  2.5014
  887MOL0     H19730  10.363   6.997   4.285 -0.6475 -0.9567 -0.6230
  887MOL0     H19731  10.123   6.705   4.026  1.9746 -1.3273  1.3661
  887MOL0     H19732  10.027   6.486   4.016  0.0180 -2.4157  2.3252
  887MOL0     H19733   9.925   6.320   3.996 -0.7497 -0.6831 -0.1723
  887MOL0     H19734   9.884   6.187   4.109  0.6211 -0.9343 -0.1424
  887MOL0     H19735  10.148   6.323   4.097  0.0721 -0.3739 -0.1516
  887MOL0     H19736  10.110   6.162   4.045 -0.1875  0.1957 -0.1276
  887MOL0     H19737  10.109   6.249   4.337  2.2968 -0.7269  1.4210
  887MOL0     H19738  10.240   6.177   4.251  0.8216  2.0008  0.3905
  887MOL0     H19739   9.968   6.047   4.308 -0.2934  1.4654  0.7271
  887MOL0     H19740  10.108   5.973   4.233 -0.1067  2.0165 -1.8098
  887MOL0     H19741  10.210   5.935   4.644  0.7511 -2.0018 -1.0157
  887MOL0     H19742   9.891   6.517   4.411 -0.1462 -1.2276 -0.9346
  887MOL0     H19743   9.836   6.699   4.482  1.6827 -1.7970 -0.2292
  887MOL0     H19744   9.977   6.794   4.527 -1.0728 -0.0968  0.1892
  887MOL0     H19745   9.849   6.863   4.416 -4.3058 -0.9369  2.0342
  888MOL0     O19746   6.694   0.436   8.762  0.9116 -0.7066 -0.0991
  888MOL0     C19747   6.634   0.542   8.786  0.1595  0.0356 -0.1866
  888MOL0     O19748   6.644   0.601   8.907  0.1638 -0.0144 -0.3372
  888MOL0     C19749   6.749   0.586   8.987 -0.7524 -0.7671 -0.9048
  888MOL0     C19750   6.759   0.463   9.056  0.6536 -0.1371  0.1992
  888MOL0     C19751   6.853   0.449   9.163  0.5268 -0.2019  1.3814
  888MOL0     C19752   6.929   0.563   9.194 -0.9302  0.5499 -0.2459
  888MOL0     O19753   7.023   0.557   9.297 -0.1202  0.4289  0.9888
  888MOL0     C19754   6.975   0.525   9.427 -0.4436 -0.0330 -0.1564
  888MOL0     C19755   7.079   0.594   9.536  0.2558  0.1654 -0.4360
  888MOL0     C19756   7.205   0.516   9.570 -0.1429 -0.1870  0.0779
  888MOL0     C19757   7.303   0.482   9.448 -0.5156 -0.5135  0.1259
  888MOL0     C19758   7.343   0.604   9.367  0.9786 -0.3300 -0.3398
  888MOL0     C19759   7.431   0.569   9.246  1.3272  0.4826  0.3036
  888MOL0     C19760   7.347   0.511   9.117 -0.7834 -0.4701 -0.3877
  888MOL0     C19761   7.281   0.641   9.054  0.2426  0.7621 -0.4042
  888MOL0     N19762   7.248   0.619   8.913 -0.3268 -0.2308 -0.3653
  888MOL0     C19763   7.139   0.536   8.863  0.2002  0.6684  0.5358
  888MOL0     C19764   7.156   0.538   8.726 -0.0682 -0.1618 -0.8183
  888MOL0     C19765   7.077   0.460   8.622 -0.3339 -0.4566 -0.1311
  888MOL0     C19766   6.955   0.539   8.576 -0.3618  0.2336 -0.9642
  888MOL0     C19767   6.876   0.445   8.477 -0.4023 -0.3001  0.4938
  888MOL0     C19768   6.759   0.516   8.402 -0.2681 -0.3582 -0.3513
  888MOL0     O19769   6.704   0.422   8.315 -0.4689 -0.0347  0.3712
  888MOL0     C19770   6.613   0.464   8.219  0.6545  0.1522  0.1646
  888MOL0     C19771   6.534   0.581   8.215  0.4208  0.0558 -0.5204
  888MOL0     C19772   6.450   0.613   8.105 -0.6539 -0.6955  0.3113
  888MOL0     C19773   6.437   0.528   7.991  0.0358  0.4840 -0.1087
  888MOL0     C19774   6.341   0.559   7.888 -0.0781  1.1664 -0.1006
  888MOL0     O19775   6.363   0.488   7.765 -0.1604  0.0408 -0.2757
  888MOL0     C19776   6.276   0.521   7.663  0.4453 -0.8633 -0.6336
  888MOL0     C19777   6.210   0.410   7.607 -0.4740 -0.5374  0.4292
  888MOL0     C19778   6.150   0.412   7.482  1.0534  0.1375  0.4120
  888MOL0     C19779   6.127   0.533   7.424  0.0818 -0.3330  0.1744
  888MOL0     O19780   6.056   0.559   7.309  0.3436 -0.4248 -0.3374
  888MOL0     C19781   5.989   0.449   7.239  0.3631  1.0865 -0.8317
  888MOL0     C19782   5.903   0.496   7.132  1.1110  0.0829  0.4120
  888MOL0     C19783   5.802   0.610   7.153 -0.1215 -0.0733  0.0436
  888MOL0     C19784   5.724   0.632   7.022 -0.0253 -0.1823 -0.2892
  888MOL0     C19785   5.637   0.760   7.051 -0.4527 -0.7025  0.0681
  888MOL0     C19786   5.545   0.778   6.937 -0.8477  0.1825  0.1192
  888MOL0     C19787   5.410   0.840   6.968  0.1749  0.0311 -0.8214
  888MOL0     C19788   5.424   0.981   7.033 -0.1132  0.3264 -1.1029
  888MOL0    Cl19789   5.521   1.091   6.923 -0.0173 -0.4809 -0.0465
  888MOL0     C19790   6.173   0.651   7.483  0.0383 -0.3674 -0.8631
  888MOL0     C19791   6.267   0.641   7.592  0.5412 -0.3274 -0.4945
  888MOL0     O19792   6.251   0.645   7.904  0.2530 -0.2648 -0.1599
  888MOL0     C19793   6.503   0.404   8.003  0.2444  0.4027  0.8930
  888MOL0     C19794   6.588   0.366   8.113 -0.8043  0.1055 -0.4383
  888MOL0     N19795   7.240   0.649   8.706  0.3642  0.2123 -0.0007
  888MOL0     N19796   7.292   0.693   8.813  0.9431 -0.4371 -0.5407
  888MOL0     C19797   6.922   0.678   9.123 -0.3529  0.1821  1.2928
  888MOL0     C19798   6.830   0.694   9.014 -1.2185  0.6196 -0.7425
  888MOL0     C19799   6.530   0.588   8.694  0.1227  0.1967  0.7988
  888MOL0     C19800   6.509   0.728   8.696 -0.0229  0.5089 -0.7251
  888MOL0     C19801   6.392   0.774   8.627 -0.1566  0.2625  0.3297
  888MOL0     C19802   6.303   0.695   8.563 -0.4305 -0.8071 -1.1221
  888MOL0     O19803   6.186   0.742   8.501 -0.0283  0.1368 -0.1262
  888MOL0     C19804   6.143   0.878   8.521 -0.7867 -0.0330  0.4482
  888MOL0     C19805   6.021   0.915   8.435  0.5294  0.2102  0.6323
  888MOL0     C19806   6.036   0.917   8.280  0.5794  0.1657 -0.5088
  888MOL0     C19807   6.177   0.946   8.222  0.0485  0.0215 -0.4654
  888MOL0     C19808   6.227   1.065   8.279  0.2378 -0.7781 -0.1794
  888MOL0     C19809   6.282   1.163   8.328 -0.0199  0.4212  0.1942
  888MOL0     C19810   6.329   0.557   8.566  0.0366  0.4591  0.1258
  888MOL0     C19811   6.444   0.502   8.616  0.5355 -0.5410 -0.5139
  888MOL0     C19812   6.452   0.345   8.599 -0.9700 -0.1316 -0.1831
  888MOL0     H19813   6.685   0.387   9.038  0.0142 -0.2208  2.7784
  888MOL0     H19814   6.860   0.359   9.224  0.8337 -2.2362 -1.4620
  888MOL0     H19815   6.877   0.573   9.432  0.4766  2.6430 -3.7101
  888MOL0     H19816   6.968   0.417   9.447  1.8929 -0.8056 -2.8147
  888MOL0     H19817   7.023   0.626   9.625  1.0506 -0.8117  0.4364
  888MOL0     H19818   7.106   0.692   9.496 -2.5776  3.2767  4.3502
  888MOL0     H19819   7.174   0.417   9.604 -0.9063  0.2509  0.6835
  888MOL0     H19820   7.254   0.567   9.654 -1.5620 -1.8881  2.0292
  888MOL0     H19821   7.392   0.444   9.500 -2.1694  0.4871  4.1081
  888MOL0     H19822   7.250   0.418   9.377 -1.7833  0.8977 -0.2575
  888MOL0     H19823   7.255   0.658   9.329  1.3365  0.5353  0.0369
  888MOL0     H19824   7.397   0.669   9.436 -0.9386 -0.7165  1.6274
  888MOL0     H19825   7.501   0.648   9.218  0.6176  0.3001 -2.1278
  888MOL0     H19826   7.488   0.481   9.279 -1.6217 -2.0044 -0.8094
  888MOL0     H19827   7.276   0.437   9.155  0.6767  0.6235  5.5029
  888MOL0     H19828   7.412   0.464   9.044 -0.6855 -3.5235  1.4822
  888MOL0     H19829   7.193   0.658   9.117  0.5513  2.6312 -0.4270
  888MOL0     H19830   7.346   0.729   9.064  0.1036  0.7604  0.6290
  888MOL0     H19831   7.081   0.464   8.920  0.5988 -1.2441 -1.3276
  888MOL0     H19832   7.141   0.437   8.536 -1.8440 -1.1967 -1.0985
  888MOL0     H19833   7.035   0.366   8.658  0.0138 -2.2833 -3.9309
  888MOL0     H19834   6.910   0.571   8.670  1.4577 -1.3099  0.5145
  888MOL0     H19835   6.986   0.635   8.533 -2.3237  2.2158  1.7150
  888MOL0     H19836   6.829   0.368   8.538 -2.7016  0.0031 -0.7882
  888MOL0     H19837   6.946   0.408   8.401  1.5464  1.4603  1.3289
  888MOL0     H19838   6.799   0.602   8.348  0.3872  1.2526  2.5029
  888MOL0     H19839   6.683   0.553   8.472 -0.8444 -0.5387 -0.8664
  888MOL0     H19840   6.524   0.644   8.303 -1.2827  0.2814 -0.8461
  888MOL0     H19841   6.388   0.702   8.119 -2.4806 -2.1901  2.3801
  888MOL0     H19842   6.242   0.319   7.657  3.0152  0.4326  0.2698
  888MOL0     H19843   6.122   0.315   7.443 -1.1313  0.5997  0.6869
  888MOL0     H19844   6.057   0.375   7.196  1.2539  1.1849  0.3717
  888MOL0     H19845   5.919   0.401   7.308  1.4850 -1.2269 -1.2075
  888MOL0     H19846   5.967   0.514   7.045  0.9853 -1.4219 -0.0209
  888MOL0     H19847   5.839   0.412   7.105 -1.4107  1.6387  1.2172
  888MOL0     H19848   5.739   0.578   7.237 -1.2358  2.0881  0.1022
  888MOL0     H19849   5.868   0.692   7.181 -2.1014  0.9331  2.0723
  888MOL0     H19850   5.653   0.553   6.996 -0.9828 -0.6709  3.2636
  888MOL0     H19851   5.797   0.648   6.942  1.6435 -0.5763  1.0742
  888MOL0     H19852   5.694   0.852   7.068 -1.3163  0.5084 -2.8876
  888MOL0     H19853   5.583   0.742   7.145  0.2362 -1.4019  0.3386
  888MOL0     H19854   5.598   0.829   6.856 -1.3853  0.8174  0.1596
  888MOL0     H19855   5.519   0.679   6.897  1.2835  0.4009 -1.9875
  888MOL0     H19856   5.367   0.781   7.049  2.6924 -0.8924 -0.0662
  888MOL0     H19857   5.345   0.836   6.881  1.1565  0.3128 -1.5878
  888MOL0     H19858   5.325   1.026   7.046  0.6483  1.2827  2.6000
  888MOL0     H19859   5.481   0.978   7.126 -0.8833  0.6632 -0.6101
  888MOL0     H19860   6.160   0.748   7.436 -0.2930  0.6667  1.2480
  888MOL0     H19861   6.326   0.721   7.636  1.8136 -1.8696  0.7061
  888MOL0     H19862   6.488   0.336   7.920  1.0902  4.2781 -2.8096
  888MOL0     H19863   6.637   0.270   8.101 -1.1384 -0.0692 -0.4016
  888MOL0     H19864   6.986   0.760   9.154  0.6711  0.6547 -1.7556
  888MOL0     H19865   6.809   0.795   8.978 -1.5361  1.3194  1.2683
  888MOL0     H19866   6.569   0.796   8.756 -1.2428  0.0411  1.1119
  888MOL0     H19867   6.380   0.882   8.632  1.7358  0.5927 -1.1330
  888MOL0     H19868   6.236   0.931   8.501 -0.9597  0.5680  1.1825
  888MOL0     H19869   6.133   0.913   8.624  1.8830  2.4856 -0.0305
  888MOL0     H19870   5.992   1.018   8.455  0.2607  0.0421  1.1180
  888MOL0     H19871   5.940   0.847   8.462 -0.5056  0.4749 -1.5324
  888MOL0     H19872   5.971   0.995   8.239 -0.7471 -1.2785 -1.2310
  888MOL0     H19873   5.987   0.827   8.242  0.9108  0.0302 -0.6138
  888MOL0     H19874   6.243   0.865   8.256 -3.9398 -3.1390  0.5234
  888MOL0     H19875   6.177   0.946   8.113  5.3496 -0.3259 -0.7491
  888MOL0     H19876   6.319   1.257   8.365 -1.7976  0.1356  2.9853
  888MOL0     H19877   6.263   0.483   8.521  0.2157 -0.2742  1.0427
  888MOL0     H19878   6.360   0.290   8.618 -1.4002  0.4705 -0.4855
  888MOL0     H19879   6.464   0.320   8.494 -0.0035 -2.1047  0.3535
  888MOL0     H19880   6.532   0.299   8.658 -1.0872 -3.1137 -2.1427
  889MOL0     O19881   1.996   8.454  11.377  0.4660  0.5206  0.0402
  889MOL0     C19882   1.924   8.547  11.350 -1.6331 -0.2195 -0.0061
  889MOL0     O19883   1.917   8.605  11.225 -0.7135 -0.1387  0.0411
  889MOL0     C19884   2.006   8.564  11.132 -0.4213 -0.9551  0.4857
  889MOL0     C19885   2.112   8.646  11.097 -0.1407 -0.5572 -0.4312
  889MOL0     C19886   2.210   8.604  11.006  0.2214  0.0816  0.2633
  889MOL0     C19887   2.206   8.474  10.956  0.6215  0.0211 -1.0092
  889MOL0     O19888   2.295   8.421  10.871 -0.5538  0.3740  0.4345
  889MOL0     C19889   2.434   8.444  10.898  0.2814 -0.0845 -0.3146
  889MOL0     C19890   2.520   8.364  10.797 -0.2440 -1.2443 -0.1868
  889MOL0     C19891   2.478   8.372  10.647 -2.1558 -0.6372 -0.3096
  889MOL0     C19892   2.590   8.301  10.559 -0.0119  0.3031  0.8153
  889MOL0     C19893   2.562   8.314  10.405  0.5581  0.1138  0.2990
  889MOL0     C19894   2.430   8.241  10.371  0.3592 -0.4128  0.7413
  889MOL0     C19895   2.378   8.283  10.234  0.2510  0.7042  0.0174
  889MOL0     C19896   2.254   8.375  10.244  0.2678 -0.3596  0.3828
  889MOL0     N19897   2.287   8.510  10.190  0.3556  0.5107 -0.2922
  889MOL0     C19898   2.304   8.542  10.057  0.4097 -0.2305 -0.9997
  889MOL0     C19899   2.354   8.664  10.057  0.6608 -1.0399  1.4017
  889MOL0     C19900   2.400   8.746   9.936 -0.3324 -0.2051  0.2642
  889MOL0     C19901   2.489   8.870   9.975 -0.5365  0.1490 -0.4863
  889MOL0     C19902   2.510   8.965   9.859  0.7081  0.4030 -0.6999
  889MOL0     C19903   2.546   8.890   9.732 -0.2064 -0.3916  0.6562
  889MOL0     O19904   2.580   8.983   9.636  0.0231 -0.4891  0.5297
  889MOL0     C19905   2.715   8.982   9.622 -0.3014 -0.4137  0.3342
  889MOL0     C19906   2.775   8.888   9.530  0.0010  0.1784 -0.1446
  889MOL0     C19907   2.911   8.902   9.492 -0.5252 -0.1763  0.1441
  889MOL0     C19908   2.990   9.003   9.555  0.1131 -0.6158  0.7529
  889MOL0     C19909   3.136   9.011   9.507  0.8374  0.4862 -0.3553
  889MOL0     O19910   3.183   8.891   9.449  0.4862  0.3738 -0.3943
  889MOL0     C19911   3.303   8.846   9.412 -0.6033  0.2640 -0.4982
  889MOL0     C19912   3.324   8.706   9.400 -0.2062 -0.1928 -0.2063
  889MOL0     C19913   3.455   8.658   9.404  0.3831 -0.2423  0.0138
  889MOL0     C19914   3.564   8.742   9.402  0.8154 -0.5396  0.7830
  889MOL0     O19915   3.689   8.700   9.381 -0.5852 -0.4589 -0.2065
  889MOL0     C19916   3.715   8.674   9.242 -0.5841 -0.3488 -0.5237
  889MOL0     C19917   3.781   8.793   9.175  0.0802 -0.4294  0.7729
  889MOL0     C19918   3.924   8.821   9.212 -0.0636 -0.2497  0.0056
  889MOL0     C19919   3.991   8.916   9.119 -0.6985  0.1202 -0.4831
  889MOL0     C19920   4.128   8.977   9.164 -0.7074 -0.3368 -0.2664
  889MOL0     C19921   4.190   9.075   9.058  0.0375  0.6328  0.3951
  889MOL0     C19922   4.324   9.152   9.112 -0.0681  0.6463  0.3991
  889MOL0     C19923   4.359   9.262   9.026 -1.6752 -0.8781 -0.4030
  889MOL0    Cl19924   4.507   9.350   9.081  0.4275  0.3393 -0.0278
  889MOL0     C19925   3.544   8.882   9.413  1.3922 -0.3737 -0.5246
  889MOL0     C19926   3.412   8.927   9.424 -0.4299 -0.4139 -0.7278
  889MOL0     O19927   3.192   9.119   9.514 -0.0277 -0.7087 -0.0375
  889MOL0     C19928   2.929   9.088   9.648 -1.0634  0.4692  0.0534
  889MOL0     C19929   2.798   9.086   9.683  0.6818 -0.0409  0.7687
  889MOL0     N19930   2.367   8.696  10.180 -0.2608 -1.1613  0.4323
  889MOL0     N19931   2.331   8.612  10.267 -0.4073 -0.3637 -0.4603
  889MOL0     C19932   2.095   8.389  10.980  0.4212  0.3889 -0.2333
  889MOL0     C19933   1.998   8.437  11.071  0.1572  0.3820  0.6413
  889MOL0     C19934   1.847   8.598  11.469 -0.5474 -0.6983 -0.1982
  889MOL0     C19935   1.847   8.735  11.487  0.8477 -0.3269 -0.1227
  889MOL0     C19936   1.789   8.797  11.603 -0.6007 -0.0430  0.3074
  889MOL0     C19937   1.751   8.711  11.704  0.3842  0.0011 -0.2221
  889MOL0     O19938   1.702   8.762  11.822  0.0577  0.2775 -0.2023
  889MOL0     C19939   1.703   8.681  11.944 -0.2588 -0.1759  0.1107
  889MOL0     C19940   1.732   8.776  12.050 -0.4022  0.4408  0.4159
  889MOL0     C19941   1.698   8.724  12.191 -0.9882 -0.4672  0.6818
  889MOL0     C19942   1.780   8.612  12.246 -0.1901 -0.1864  0.4377
  889MOL0     C19943   1.780   8.604  12.391  0.5988 -0.1753  0.1503
  889MOL0     C19944   1.785   8.565  12.505 -0.4583  0.4416  0.0182
  889MOL0     C19945   1.748   8.572  11.685 -0.4533 -0.1879 -1.0758
  889MOL0     C19946   1.796   8.519  11.572 -0.4156  0.2331 -0.8089
  889MOL0     C19947   1.785   8.363  11.560 -0.3903 -0.6126 -0.4360
  889MOL0     H19948   2.123   8.744  11.141  1.8759  0.1990 -2.4292
  889MOL0     H19949   2.294   8.664  10.972  0.2338 -0.7408 -1.2615
  889MOL0     H19950   2.459   8.550  10.887  0.8416 -0.1614  0.1960
  889MOL0     H19951   2.464   8.420  11.001 -0.7194 -2.3318 -0.4888
  889MOL0     H19952   2.517   8.261  10.835 -0.3363 -0.5746  1.7269
  889MOL0     H19953   2.618   8.412  10.805 -1.1235  0.7842 -0.8243
  889MOL0     H19954   2.465   8.476  10.615 -2.7194 -0.1409  1.4468
  889MOL0     H19955   2.379   8.327  10.634 -3.5055  1.3309  2.2194
  889MOL0     H19956   2.688   8.343  10.584 -0.1215  0.4004  1.0789
  889MOL0     H19957   2.583   8.192  10.563 -1.8110  0.2676 -1.1850
  889MOL0     H19958   2.554   8.419  10.375  2.0293 -0.1470 -1.1408
  889MOL0     H19959   2.649   8.273  10.353 -0.2222 -2.0892  0.6260
  889MOL0     H19960   2.450   8.134  10.374  0.1071 -0.5943 -1.7367
  889MOL0     H19961   2.347   8.270  10.435  0.4432  1.2063  0.1713
  889MOL0     H19962   2.350   8.188  10.188 -3.1938  0.6063  1.9925
  889MOL0     H19963   2.456   8.320  10.167  1.9404 -0.0167  1.4841
  889MOL0     H19964   2.180   8.339  10.173 -1.6628 -1.7526  2.9119
  889MOL0     H19965   2.214   8.382  10.346  1.6944  1.7205  0.8506
  889MOL0     H19966   2.294   8.478   9.970 -0.6235  0.0671 -1.1106
  889MOL0     H19967   2.459   8.683   9.869 -1.5897 -0.4180 -0.6675
  889MOL0     H19968   2.316   8.782   9.876 -0.7372  2.1038  2.0643
  889MOL0     H19969   2.445   8.932  10.053 -0.6116  3.8910 -3.1997
  889MOL0     H19970   2.592   8.846  10.002 -0.1427  0.5424 -1.5799
  889MOL0     H19971   2.579   9.047   9.882  1.3877 -0.3261 -0.0595
  889MOL0     H19972   2.414   9.009   9.830 -0.7617 -1.5995  0.8903
  889MOL0     H19973   2.465   8.825   9.697 -0.2843  0.6340 -1.2080
  889MOL0     H19974   2.615   8.807   9.754 -2.4633 -2.6209 -0.1085
  889MOL0     H19975   2.709   8.819   9.478 -1.2553  2.0227 -1.1466
  889MOL0     H19976   2.956   8.839   9.416 -0.5409 -1.5536  1.2309
  889MOL0     H19977   3.240   8.639   9.408 -0.1283 -0.2293  0.3714
  889MOL0     H19978   3.463   8.550   9.411  1.0962 -0.2847 -1.1246
  889MOL0     H19979   3.779   8.587   9.230  0.6431  0.3261  0.8011
  889MOL0     H19980   3.621   8.670   9.186 -1.4590  1.4422  0.6984
  889MOL0     H19981   3.773   8.787   9.066  3.2527  2.2437  0.2382
  889MOL0     H19982   3.731   8.886   9.203  0.5367 -0.6972  2.5966
  889MOL0     H19983   3.921   8.865   9.313  2.5761  0.3487 -0.0964
  889MOL0     H19984   3.979   8.728   9.224 -2.0158 -1.1403  3.3051
  889MOL0     H19985   3.926   9.003   9.121 -0.3607  0.4273 -1.7306
  889MOL0     H19986   4.008   8.874   9.019 -0.1098  2.2459 -1.3285
  889MOL0     H19987   4.203   8.897   9.162  0.9346  1.1401 -2.1420
  889MOL0     H19988   4.124   9.025   9.262 -1.1856 -2.0417  0.5843
  889MOL0     H19989   4.189   9.024   8.962  0.8298  1.6485 -0.1828
  889MOL0     H19990   4.116   9.155   9.045  1.2829  1.9819  1.1632
  889MOL0     H19991   4.413   9.089   9.122 -0.2107  0.2624 -0.6926
  889MOL0     H19992   4.301   9.176   9.217  2.2868  1.2831  0.8421
  889MOL0     H19993   4.381   9.235   8.922  2.0351  1.0201 -0.2619
  889MOL0     H19994   4.274   9.331   9.028 -0.5942  0.5555  2.8938
  889MOL0     H19995   3.611   8.965   9.433  0.6048  0.5741 -1.7273
  889MOL0     H19996   3.421   9.033   9.447  1.3536 -0.5021 -0.8712
  889MOL0     H19997   2.992   9.167   9.688  1.3978 -1.2065 -0.2121
  889MOL0     H19998   2.756   9.158   9.753 -0.8974  0.3094 -0.4900
  889MOL0     H19999   2.088   8.293  10.929 -1.8031 -0.6621  1.8667
  889MOL0     H20000   1.905   8.383  11.087 -0.9419  1.7322 -0.8717
  889MOL0     H20001   1.872   8.792  11.398 -5.9252 -0.7387 -2.9413
  889MOL0     H20002   1.808   8.902  11.624  3.2325 -0.6921  0.8146
  889MOL0     H20003   1.781   8.605  11.944  0.3183  0.4012  0.4731
  889MOL0     H20004   1.601   8.645  11.957 -1.0893  2.0398  0.2660
  889MOL0     H20005   1.675   8.866  12.027 -2.6833 -0.9281  0.4949
  889MOL0     H20006   1.837   8.802  12.029  0.3358 -3.7868 -2.2432
  889MOL0     H20007   1.591   8.703  12.195 -1.4748  0.7770 -2.6829
  889MOL0     H20008   1.713   8.811  12.256  0.4776  0.0497 -0.2893
  889MOL0     H20009   1.741   8.515  12.215  1.0176 -0.3300 -0.7075
  889MOL0     H20010   1.885   8.617  12.217  0.2266 -0.8805  1.7324
  889MOL0     H20011   1.785   8.515  12.600 -1.7906 -0.7212 -0.5676
  889MOL0     H20012   1.711   8.506  11.763  2.1285 -0.2620  0.1789
  889MOL0     H20013   1.699   8.330  11.621 -0.5628  0.8204  0.1439
  889MOL0     H20014   1.789   8.329  11.456  0.3302 -1.6740 -0.0792
  889MOL0     H20015   1.878   8.320  11.598 -1.6497 -1.5036  1.8675
  890MOL0     O20016   8.218   7.501   9.562 -0.6591 -0.4529  0.1929
  890MOL0     C20017   8.233   7.444   9.668  1.1550  0.3980 -1.0242
  890MOL0     O20018   8.215   7.315   9.694  0.2909 -0.6145 -1.4299
  890MOL0     C20019   8.160   7.232   9.596 -0.6067 -0.5823 -0.3958
  890MOL0     C20020   8.034   7.258   9.538  0.8995  0.8117  0.4392
  890MOL0     C20021   7.977   7.162   9.452 -0.4045 -0.2209  0.4168
  890MOL0     C20022   8.043   7.048   9.419 -0.3635  0.9761  0.5198
  890MOL0     O20023   7.991   6.974   9.319  0.2234 -0.7410 -0.3944
  890MOL0     C20024   8.052   6.843   9.277 -0.6408  0.7909 -1.3015
  890MOL0     C20025   7.961   6.780   9.168  0.0077  0.8735 -0.3242
  890MOL0     C20026   7.963   6.858   9.030  0.0279 -0.2688 -0.0390
  890MOL0     C20027   7.848   6.808   8.938 -0.2061  0.6546  0.5469
  890MOL0     C20028   7.823   6.886   8.804 -0.0629 -1.2015  0.2635
  890MOL0     C20029   7.945   6.896   8.713  0.4722  0.8664 -0.6711
  890MOL0     C20030   7.931   6.981   8.584 -0.0217 -0.1027  0.3799
  890MOL0     C20031   8.050   6.982   8.491  0.2706  0.7614  0.1900
  890MOL0     N20032   8.155   7.050   8.563 -0.4494  0.1901 -0.2247
  890MOL0     C20033   8.166   7.190   8.580 -0.5338 -0.2666 -0.1915
  890MOL0     C20034   8.292   7.208   8.629  0.1522 -0.4001  0.0528
  890MOL0     C20035   8.351   7.344   8.681 -0.0834 -0.2842  0.0419
  890MOL0     C20036   8.258   7.434   8.762  1.1338 -0.2681 -0.2388
  890MOL0     C20037   8.338   7.549   8.839  1.0654  0.3546  0.1462
  890MOL0     C20038   8.248   7.622   8.933  0.0081  0.3891 -0.2343
  890MOL0     O20039   8.183   7.728   8.861 -0.7882 -0.7396 -0.0859
  890MOL0     C20040   8.069   7.785   8.905 -1.1727  0.4142 -0.1540
  890MOL0     C20041   8.009   7.773   9.033 -0.9422  0.5302 -0.0863
  890MOL0     C20042   7.887   7.824   9.063  0.7386  0.3620  0.2816
  890MOL0     C20043   7.823   7.915   8.968  0.0066 -0.4135  0.0277
  890MOL0     C20044   7.695   7.986   9.002 -0.0956  0.4662 -0.5606
  890MOL0     O20045   7.640   7.963   9.125  0.0611 -0.2614 -0.0934
  890MOL0     C20046   7.511   8.002   9.151 -0.4786  0.0633 -0.2016
  890MOL0     C20047   7.418   7.901   9.174 -0.9211  0.0363 -0.9058
  890MOL0     C20048   7.280   7.947   9.191 -0.3724 -0.0462 -0.4939
  890MOL0     C20049   7.253   8.081   9.188  0.2311 -0.3100  0.1977
  890MOL0     O20050   7.132   8.146   9.199  0.2939 -0.2391 -0.2935
  890MOL0     C20051   7.031   8.088   9.271  0.3893 -0.8543 -0.7779
  890MOL0     C20052   7.057   8.090   9.427  0.9052 -0.4176  0.2214
  890MOL0     C20053   7.077   8.240   9.472 -0.4839  0.4478  0.3801
  890MOL0     C20054   7.144   8.258   9.605 -0.5005 -0.2598 -0.0810
  890MOL0     C20055   7.145   8.404   9.655  0.6103 -0.4920  0.0125
  890MOL0     C20056   7.024   8.423   9.743  0.5615 -0.3573  0.0380
  890MOL0     C20057   7.015   8.572   9.793 -0.0031  0.3691 -0.9008
  890MOL0     C20058   7.145   8.631   9.844 -0.0363  0.1978 -0.9225
  890MOL0    Cl20059   7.213   8.564   9.995  0.0901  0.2469 -0.2005
  890MOL0     C20060   7.358   8.171   9.178 -0.1244 -0.1806  0.4776
  890MOL0     C20061   7.486   8.134   9.168 -0.7448 -0.3201 -0.5370
  890MOL0     O20062   7.658   8.076   8.926 -0.7462  0.0589  0.6562
  890MOL0     C20063   7.877   7.927   8.836  0.1313 -1.2802  0.2661
  890MOL0     C20064   7.994   7.852   8.807 -0.7895 -1.0825 -0.6269
  890MOL0     N20065   8.356   7.089   8.637  0.1686  0.7062 -0.0011
  890MOL0     N20066   8.279   6.992   8.599  0.4984 -0.7600 -1.0876
  890MOL0     C20067   8.165   7.020   9.485 -0.5636  0.3723  1.0987
  890MOL0     C20068   8.214   7.108   9.581 -1.2071  0.6695  0.1918
  890MOL0     C20069   8.251   7.519   9.793 -0.0722 -0.4442  0.7226
  890MOL0     C20070   8.372   7.491   9.865  0.8584 -0.4198  0.2690
  890MOL0     C20071   8.391   7.559   9.983  0.4625 -0.5926  0.5573
  890MOL0     C20072   8.293   7.640  10.037  0.2749  0.0621 -0.1024
  890MOL0     O20073   8.312   7.690  10.165 -0.7781 -0.2700 -0.0969
  890MOL0     C20074   8.200   7.732  10.254 -1.0962 -0.4699 -0.0166
  890MOL0     C20075   8.141   7.610  10.323  0.1259  0.4587  0.5699
  890MOL0     C20076   8.219   7.561  10.441  0.1243  0.2070  0.6076
  890MOL0     C20077   8.180   7.641  10.577 -0.4011 -0.2396  0.7865
  890MOL0     C20078   8.306   7.646  10.658 -0.0979  0.8273 -0.6896
  890MOL0     C20079   8.406   7.636  10.729  0.0334 -0.4470  0.3324
  890MOL0     C20080   8.184   7.680   9.964 -0.2017  0.5024  0.5076
  890MOL0     C20081   8.172   7.626   9.836  0.9538  0.1319 -0.1615
  890MOL0     C20082   8.059   7.688   9.757  0.2471 -1.0948  0.4623
  890MOL0     H20083   7.974   7.347   9.553  0.5424  0.2997  2.4638
  890MOL0     H20084   7.883   7.185   9.404 -0.5151  2.2875  1.6785
  890MOL0     H20085   8.152   6.863   9.239  0.0951  1.3469  0.7943
  890MOL0     H20086   8.050   6.778   9.365 -0.8159 -0.5559 -2.2557
  890MOL0     H20087   7.864   6.757   9.212  0.2767 -1.0984 -0.6595
  890MOL0     H20088   7.980   6.676   9.140 -0.9755  1.0272 -1.6355
  890MOL0     H20089   8.059   6.840   8.981  0.3477 -3.8996  1.6182
  890MOL0     H20090   7.951   6.962   9.062  2.0777 -0.4606  1.5524
  890MOL0     H20091   7.881   6.708   8.908  0.1690  1.3422 -1.4717
  890MOL0     H20092   7.754   6.796   8.994 -1.2075 -0.7677 -1.3404
  890MOL0     H20093   7.737   6.852   8.746 -1.9607  2.8688  0.3267
  890MOL0     H20094   7.812   6.989   8.840  1.6347 -0.5268 -1.0375
  890MOL0     H20095   8.017   6.954   8.770  0.9635 -0.0018 -0.3781
  890MOL0     H20096   7.985   6.795   8.697 -1.0101  0.5465 -2.9186
  890MOL0     H20097   7.918   7.082   8.624  4.0620  0.4585  0.7636
  890MOL0     H20098   7.841   6.948   8.531  0.6016 -0.6719 -0.3476
  890MOL0     H20099   8.069   6.881   8.454 -1.0425 -0.1651  1.8893
  890MOL0     H20100   8.029   7.042   8.402  1.5181 -3.0855 -3.0552
  890MOL0     H20101   8.096   7.271   8.566 -1.3609 -1.3820 -3.6306
  890MOL0     H20102   8.445   7.322   8.734 -0.0879  0.5772  0.4313
  890MOL0     H20103   8.391   7.393   8.592  1.1595 -0.2858  0.5747
  890MOL0     H20104   8.179   7.476   8.699 -0.0271  0.7252  1.7709
  890MOL0     H20105   8.220   7.371   8.843  0.7345  0.8886  0.5034
  890MOL0     H20106   8.383   7.619   8.768  2.9116  1.3158  2.1586
  890MOL0     H20107   8.416   7.501   8.899  1.1856  0.0869 -0.2178
  890MOL0     H20108   8.308   7.674   9.009  1.3424  0.3818 -1.2442
  890MOL0     H20109   8.172   7.552   8.968 -1.3979  1.0490 -1.8206
  890MOL0     H20110   8.058   7.721   9.114  0.3579  0.1548 -1.0861
  890MOL0     H20111   7.834   7.812   9.157 -0.5406 -1.6381 -0.6223
  890MOL0     H20112   7.435   7.793   9.169  0.8301 -0.0753  3.5075
  890MOL0     H20113   7.196   7.879   9.205 -1.3106  1.1094 -0.2828
  890MOL0     H20114   6.932   8.129   9.247 -0.3278 -0.4144  2.4987
  890MOL0     H20115   7.025   7.985   9.233 -0.7525 -1.1996  0.2807
  890MOL0     H20116   6.972   8.050   9.484 -0.3504  1.6518 -0.1253
  890MOL0     H20117   7.140   8.023   9.454  1.3173 -0.5426 -1.2733
  890MOL0     H20118   7.128   8.294   9.391 -0.6802 -3.3265 -2.5306
  890MOL0     H20119   6.975   8.278   9.484 -1.5287 -2.3183  1.1704
  890MOL0     H20120   7.248   8.227   9.591 -0.9683 -2.5557  1.0542
  890MOL0     H20121   7.105   8.182   9.673 -0.8645 -1.3217 -1.4310
  890MOL0     H20122   7.149   8.485   9.582  0.6679 -0.6296 -0.1374
  890MOL0     H20123   7.230   8.402   9.724 -0.3150  2.2239  1.3987
  890MOL0     H20124   6.933   8.402   9.687  0.5927  2.6686 -1.3503
  890MOL0     H20125   7.041   8.360   9.831 -0.0338 -0.4887  0.0659
  890MOL0     H20126   6.941   8.567   9.873  0.1927  0.8561 -0.6827
  890MOL0     H20127   6.963   8.634   9.720 -1.0469 -2.4230 -2.6904
  890MOL0     H20128   7.214   8.613   9.762  2.9542 -0.3846  1.5609
  890MOL0     H20129   7.128   8.737   9.868 -0.1127 -0.1739  0.8242
  890MOL0     H20130   7.329   8.275   9.173 -0.5686 -0.3581 -0.8054
  890MOL0     H20131   7.566   8.208   9.171  0.2024 -1.2513 -1.9136
  890MOL0     H20132   7.832   7.992   8.763  2.0314 -0.8707 -0.6020
  890MOL0     H20133   8.042   7.834   8.711 -0.9494 -3.2275 -0.3654
  890MOL0     H20134   8.226   6.933   9.460  1.7214  2.6606 -2.0388
  890MOL0     H20135   8.307   7.088   9.633 -0.8890 -0.4368 -0.7450
  890MOL0     H20136   8.451   7.426   9.827  0.6822  0.1077 -1.0542
  890MOL0     H20137   8.478   7.543  10.046  0.1067  2.2510  1.9398
  890MOL0     H20138   8.127   7.784  10.192  1.7384  1.9002 -1.6371
  890MOL0     H20139   8.240   7.796  10.333  0.0212 -0.9915 -0.1312
  890MOL0     H20140   8.127   7.532  10.247 -0.6453  1.9106 -0.8537
  890MOL0     H20141   8.040   7.634  10.356  0.6182 -1.4431  3.8313
  890MOL0     H20142   8.326   7.555  10.421  0.7088 -1.1940  3.6072
  890MOL0     H20143   8.197   7.456  10.462  0.5928 -0.4084 -1.7656
  890MOL0     H20144   8.140   7.742  10.559  0.1238 -0.4826 -2.4984
  890MOL0     H20145   8.099   7.594  10.633  2.2245 -1.8251  3.4874
  890MOL0     H20146   8.493   7.622  10.790  0.2988 -1.8742 -0.3303
  890MOL0     H20147   8.116   7.759   9.994 -1.7284  0.0716 -1.5764
  890MOL0     H20148   7.967   7.686   9.816 -1.5301  1.4825 -1.9526
  890MOL0     H20149   8.084   7.790   9.726  0.3931 -1.4990 -0.8376
  890MOL0     H20150   8.045   7.633   9.663  0.2077 -2.3313  1.1726
  891MOL0     O20151   5.757   4.075   2.075  0.8890  0.6506 -0.7617
  891MOL0     C20152   5.793   4.018   2.176  0.4628  0.9852  0.3193
  891MOL0     O20153   5.909   3.944   2.180  0.4768 -0.7823  0.3347
  891MOL0     C20154   5.976   3.901   2.069  0.1408 -0.0388  0.5170
  891MOL0     C20155   5.921   3.812   1.975  0.1328 -0.0210  0.6640
  891MOL0     C20156   5.979   3.783   1.853 -0.5794 -0.5766  0.6048
  891MOL0     C20157   6.104   3.843   1.831  0.0248 -0.3508 -0.3023
  891MOL0     O20158   6.171   3.835   1.710  0.2416  0.5268 -0.6834
  891MOL0     C20159   6.100   3.796   1.588 -0.7210 -0.3940  0.1450
  891MOL0     C20160   6.142   3.872   1.467  0.2385  0.1254  0.7332
  891MOL0     C20161   6.299   3.907   1.452  0.0487 -0.0020 -0.6307
  891MOL0     C20162   6.335   3.989   1.329 -0.0470  0.0315 -0.0050
  891MOL0     C20163   6.489   3.990   1.309 -0.2873  0.4998 -0.9245
  891MOL0     C20164   6.537   3.867   1.229  0.0808 -0.1347 -0.7267
  891MOL0     C20165   6.687   3.872   1.179 -0.1116 -0.4242 -0.4252
  891MOL0     C20166   6.732   3.741   1.119 -0.5465 -0.7387 -0.4585
  891MOL0     N20167   6.877   3.731   1.092  0.0259 -0.2024 -0.0025
  891MOL0     C20168   6.942   3.822   1.012 -0.1225 -0.0495  0.6230
  891MOL0     C20169   7.063   3.764   0.973 -0.2269  0.8897 -0.1468
  891MOL0     C20170   7.180   3.819   0.898 -0.1339 -0.6661 -1.0750
  891MOL0     C20171   7.283   3.880   0.991 -0.4199 -0.5601 -0.3568
  891MOL0     C20172   7.407   3.923   0.905 -0.5222 -0.2908  0.0571
  891MOL0     C20173   7.519   3.812   0.913 -0.1915  0.5595  0.5392
  891MOL0     O20174   7.548   3.758   0.785  0.4697  0.4305  0.4710
  891MOL0     C20175   7.654   3.670   0.779 -0.6032 -0.2714  0.5635
  891MOL0     C20176   7.717   3.617   0.891 -0.1379  0.1954  0.7148
  891MOL0     C20177   7.819   3.514   0.878 -0.1807 -0.1784 -0.2848
  891MOL0     C20178   7.877   3.484   0.752  0.2770 -0.5075  0.1094
  891MOL0     C20179   7.985   3.379   0.754  1.2586  1.0398  0.7500
  891MOL0     O20180   8.069   3.375   0.860  0.4025  0.6418 -0.4239
  891MOL0     C20181   8.142   3.256   0.870  0.2343  0.8000  1.0887
  891MOL0     C20182   8.105   3.158   0.962 -0.3229  0.2327 -0.3436
  891MOL0     C20183   8.186   3.049   0.984 -0.6844 -0.1966  0.3556
  891MOL0     C20184   8.299   3.034   0.906 -0.5828 -0.3265 -0.2280
  891MOL0     O20185   8.380   2.920   0.908  0.0732  0.1714 -0.4075
  891MOL0     C20186   8.378   2.834   1.028  0.1910  0.9598  0.3234
  891MOL0     C20187   8.515   2.754   1.033  0.4173  0.0475 -0.9063
  891MOL0     C20188   8.495   2.633   1.131 -0.6593  0.3699  0.5360
  891MOL0     C20189   8.473   2.671   1.281 -0.4292 -0.3538 -0.0845
  891MOL0     C20190   8.346   2.625   1.334  0.7395 -0.6826  0.2291
  891MOL0     C20191   8.323   2.477   1.353  0.2817  0.3462 -0.1199
  891MOL0     C20192   8.184   2.446   1.399 -0.4407 -0.8130  0.1205
  891MOL0     C20193   8.089   2.375   1.300  0.2517 -0.1106 -0.1331
  891MOL0    Cl20194   7.945   2.321   1.385 -0.3791  0.1911 -0.3934
  891MOL0     C20195   8.339   3.130   0.815 -0.0778  0.1263  0.5921
  891MOL0     C20196   8.253   3.238   0.787 -0.2248 -0.4530 -0.8356
  891MOL0     O20197   7.986   3.302   0.652  0.5231  0.4788 -0.3677
  891MOL0     C20198   7.810   3.534   0.641 -1.0033 -0.5433 -0.6974
  891MOL0     C20199   7.710   3.636   0.651 -0.0049 -0.4505  0.1035
  891MOL0     N20200   7.059   3.637   1.039 -1.1348  0.1761  0.7052
  891MOL0     N20201   6.953   3.621   1.114 -0.7207 -0.3084 -0.5292
  891MOL0     C20202   6.162   3.934   1.922 -0.0143  0.4153  0.1351
  891MOL0     C20203   6.100   3.958   2.040  0.3231  0.4009  1.1712
  891MOL0     C20204   5.736   4.060   2.312  0.6828 -0.2492  0.1673
  891MOL0     C20205   5.817   4.031   2.429  0.5180 -0.6169  0.7368
  891MOL0     C20206   5.791   4.090   2.551  0.2800  0.6494 -0.2211
  891MOL0     C20207   5.673   4.162   2.573  0.2890 -0.2490  0.9296
  891MOL0     O20208   5.625   4.211   2.692 -0.5217  0.1558  0.7525
  891MOL0     C20209   5.717   4.264   2.786 -0.1726 -0.7674  0.4892
  891MOL0     C20210   5.662   4.252   2.927  0.2990 -0.3928 -0.4510
  891MOL0     C20211   5.567   4.368   2.973 -0.1502  0.2949  0.8156
  891MOL0     C20212   5.645   4.499   2.994  0.5387 -0.2704  0.1488
  891MOL0     C20213   5.565   4.602   3.053 -0.1962 -0.3972 -0.6094
  891MOL0     C20214   5.493   4.682   3.118 -0.7621  0.6733 -0.3199
  891MOL0     C20215   5.594   4.186   2.465  0.3759  0.9831 -0.7822
  891MOL0     C20216   5.621   4.133   2.337 -0.5086 -0.1273  0.1116
  891MOL0     C20217   5.516   4.151   2.222  0.1803 -1.2191  0.3054
  891MOL0     H20218   5.822   3.781   2.009 -0.6623  2.6465  1.0524
  891MOL0     H20219   5.942   3.703   1.790 -2.6806  2.2681 -2.1243
  891MOL0     H20220   6.126   3.693   1.560 -0.3452  0.1764 -1.7698
  891MOL0     H20221   5.993   3.812   1.602 -0.8972 -0.6598 -0.7749
  891MOL0     H20222   6.080   3.962   1.466 -2.1206 -1.4062 -0.8711
  891MOL0     H20223   6.107   3.813   1.381  1.4594  0.9712 -0.3825
  891MOL0     H20224   6.351   3.811   1.447  0.7279  0.0774  2.4476
  891MOL0     H20225   6.322   3.953   1.549 -2.0758 -0.3497  0.1092
  891MOL0     H20226   6.289   3.958   1.235  2.4550  1.1001 -1.6945
  891MOL0     H20227   6.311   4.095   1.346 -1.9422 -0.2176 -0.8071
  891MOL0     H20228   6.509   4.077   1.246  2.2867  2.2424  2.0168
  891MOL0     H20229   6.535   4.009   1.407 -0.4644 -1.5593 -0.4001
  891MOL0     H20230   6.523   3.782   1.296 -2.9491 -0.6008 -1.8020
  891MOL0     H20231   6.476   3.851   1.140 -0.4722  5.3508 -1.7016
  891MOL0     H20232   6.757   3.905   1.256 -2.3484  0.3567  1.4072
  891MOL0     H20233   6.689   3.953   1.106 -0.4006  1.3189  1.4027
  891MOL0     H20234   6.698   3.667   1.192  0.8154 -1.3207 -0.4035
  891MOL0     H20235   6.676   3.724   1.026 -1.3441 -0.8744  0.0329
  891MOL0     H20236   6.913   3.927   1.001 -1.1549 -0.2560  1.2314
  891MOL0     H20237   7.223   3.732   0.847  2.9154 -0.6937  1.2333
  891MOL0     H20238   7.142   3.894   0.829 -1.9142  0.5520  1.1305
  891MOL0     H20239   7.232   3.967   1.035  1.2293  2.0575 -3.1775
  891MOL0     H20240   7.309   3.808   1.069 -0.6360 -1.4602 -1.1074
  891MOL0     H20241   7.454   4.008   0.957  0.6998 -0.7732 -0.2084
  891MOL0     H20242   7.374   3.943   0.803  1.6890  0.6306 -0.5581
  891MOL0     H20243   7.478   3.734   0.978 -2.0811 -2.9301 -4.2550
  891MOL0     H20244   7.609   3.853   0.958  0.4627  0.6548 -0.7993
  891MOL0     H20245   7.688   3.648   0.990  0.8369  2.7906  0.2631
  891MOL0     H20246   7.851   3.469   0.971  2.1259  4.2714  1.3811
  891MOL0     H20247   8.014   3.162   1.019  0.1556 -1.0568  0.5536
  891MOL0     H20248   8.152   2.978   1.059 -1.0903 -1.3151 -0.8481
  891MOL0     H20249   8.378   2.890   1.122  0.6414 -2.1694  2.3218
  891MOL0     H20250   8.288   2.772   1.026 -1.4025  3.1556 -0.5366
  891MOL0     H20251   8.534   2.706   0.936 -2.8190 -2.5212 -0.4468
  891MOL0     H20252   8.585   2.833   1.063 -1.7930  1.4006  1.0096
  891MOL0     H20253   8.409   2.585   1.084 -0.3513  2.0423 -1.9475
  891MOL0     H20254   8.585   2.571   1.133  1.8853  3.7118  3.8575
  891MOL0     H20255   8.484   2.779   1.292  2.7239 -0.5223 -0.6135
  891MOL0     H20256   8.555   2.629   1.339 -0.5584  0.1594  0.4839
  891MOL0     H20257   8.262   2.664   1.275 -0.8336 -3.4524  0.4715
  891MOL0     H20258   8.342   2.677   1.430 -0.2402  0.9145 -0.6117
  891MOL0     H20259   8.325   2.435   1.252 -1.3067  1.1282 -0.5021
  891MOL0     H20260   8.398   2.435   1.422 -1.5976 -2.8793  0.1963
  891MOL0     H20261   8.137   2.539   1.432  0.5598 -1.0728  2.4390
  891MOL0     H20262   8.177   2.382   1.488  0.5529 -3.8455 -1.8007
  891MOL0     H20263   8.058   2.443   1.220  0.8551 -2.6347 -2.6842
  891MOL0     H20264   8.123   2.281   1.256 -0.4714 -0.3493 -0.1848
  891MOL0     H20265   8.432   3.119   0.759  0.1071 -2.8468  1.3056
  891MOL0     H20266   8.295   3.307   0.714  0.0766 -0.8154 -1.0078
  891MOL0     H20267   7.833   3.486   0.546 -1.8919 -3.1798  0.3350
  891MOL0     H20268   7.673   3.693   0.566 -0.0155 -1.2779 -0.4552
  891MOL0     H20269   6.253   3.990   1.900  1.0066 -0.5390  1.6984
  891MOL0     H20270   6.139   4.032   2.109  0.2824  2.2680 -0.7009
  891MOL0     H20271   5.910   3.976   2.422  1.7158  1.2682  1.0256
  891MOL0     H20272   5.853   4.058   2.634 -0.5385  2.5071  1.1859
  891MOL0     H20273   5.743   4.366   2.756 -0.3057  0.5795  4.3847
  891MOL0     H20274   5.811   4.208   2.796  0.9183  1.2469  2.3852
  891MOL0     H20275   5.751   4.246   2.990  0.4162 -0.8905 -0.6565
  891MOL0     H20276   5.611   4.158   2.953 -3.3451  1.2776 -1.0019
  891MOL0     H20277   5.510   4.343   3.062  1.8932 -0.8408  1.8827
  891MOL0     H20278   5.492   4.383   2.895  3.3545 -2.1970 -3.5372
  891MOL0     H20279   5.732   4.482   3.058  0.6126 -2.0416 -0.3570
  891MOL0     H20280   5.679   4.518   2.892  2.0497 -2.8740  0.0761
  891MOL0     H20281   5.442   4.755   3.178  0.3162  1.4860 -0.3624
  891MOL0     H20282   5.491   4.215   2.488 -0.0271 -1.7107  1.3647
  891MOL0     H20283   5.436   4.204   2.274  0.7553  0.1239 -0.1425
  891MOL0     H20284   5.553   4.219   2.145 -2.0974 -2.0866 -1.6954
  891MOL0     H20285   5.481   4.055   2.183 -2.1831  0.4643 -2.1722
  892MOL0     O20286   8.222   8.210  10.734 -0.3159 -0.8417  1.1269
  892MOL0     C20287   8.138   8.126  10.715 -0.5326 -0.2306  0.5184
  892MOL0     O20288   8.141   8.041  10.609 -0.2411 -0.3290 -0.7489
  892MOL0     C20289   8.241   8.051  10.520 -0.2763  0.6933  0.2307
  892MOL0     C20290   8.221   8.150  10.417  0.0251  0.4599  0.1570
  892MOL0     C20291   8.328   8.172  10.324  0.1313  0.9519  0.5682
  892MOL0     C20292   8.437   8.095  10.321 -0.8762  0.0075  1.4597
  892MOL0     O20293   8.529   8.120  10.225  0.3991 -0.0346 -0.7437
  892MOL0     C20294   8.572   8.003  10.153 -0.6443 -0.1735 -1.0599
  892MOL0     C20295   8.566   8.046  10.011  0.3593 -0.2126 -0.0461
  892MOL0     C20296   8.641   7.958   9.912  0.0873 -0.8349 -0.0873
  892MOL0     C20297   8.605   7.809   9.904 -0.8089  0.2446  0.3468
  892MOL0     C20298   8.673   7.746   9.781 -0.3044 -0.1164 -1.2963
  892MOL0     C20299   8.824   7.724   9.802 -0.6846  0.2298 -0.3366
  892MOL0     C20300   8.885   7.686   9.673  0.9824  0.7477 -0.5239
  892MOL0     C20301   9.036   7.688   9.681 -0.2181 -0.6972 -0.0896
  892MOL0     N20302   9.089   7.587   9.763 -0.0181  0.0765 -0.3818
  892MOL0     C20303   9.062   7.454   9.755  0.4775  0.3423 -0.1206
  892MOL0     C20304   9.159   7.398   9.838 -0.1683 -0.3958 -0.3995
  892MOL0     C20305   9.189   7.251   9.865 -0.1050  0.0195 -0.2272
  892MOL0     C20306   9.269   7.196   9.746  0.9564  0.6363  0.0654
  892MOL0     C20307   9.299   7.050   9.773  0.1010  0.8523 -0.2973
  892MOL0     C20308   9.371   6.986   9.655  0.2090 -0.3046 -0.3332
  892MOL0     O20309   9.305   7.013   9.529  0.1486 -0.0112 -0.0254
  892MOL0     C20310   9.358   6.947   9.424  0.2126  0.3952  0.9882
  892MOL0     C20311   9.418   7.028   9.319 -0.3350  0.2963 -0.8430
  892MOL0     C20312   9.469   6.974   9.204 -1.2320 -0.0507 -0.6524
  892MOL0     C20313   9.474   6.835   9.189  0.2837  0.9042  0.0525
  892MOL0     C20314   9.527   6.773   9.073  0.2038 -0.7881 -0.2010
  892MOL0     O20315   9.547   6.641   9.059  0.7564  0.1449 -0.0616
  892MOL0     C20316   9.619   6.607   8.949  0.7692 -0.1351 -0.2168
  892MOL0     C20317   9.571   6.613   8.820  0.4136 -0.5339  0.3766
  892MOL0     C20318   9.644   6.569   8.708  0.3321 -0.4815 -0.1912
  892MOL0     C20319   9.770   6.523   8.726 -0.7127  0.0541 -0.5951
  892MOL0     O20320   9.844   6.462   8.625  0.5141 -0.5084  0.7424
  892MOL0     C20321   9.901   6.570   8.547  0.1530  0.3842 -0.8282
  892MOL0     C20322   9.976   6.495   8.437  0.0837  1.4686 -0.3629
  892MOL0     C20323  10.086   6.398   8.483 -0.0980 -0.7953  0.7618
  892MOL0     C20324  10.039   6.247   8.465  0.4792 -0.1087 -0.3731
  892MOL0     C20325  10.069   6.176   8.334  0.6486  0.0081 -0.9508
  892MOL0     C20326  10.073   6.022   8.338  0.1314 -0.2493 -0.2119
  892MOL0     C20327  10.052   5.982   8.193 -0.5023  0.2138  0.4642
  892MOL0     C20328  10.069   5.837   8.166 -0.0363 -0.4385  0.0606
  892MOL0    Cl20329   9.934   5.754   8.244 -0.1517  0.2338 -0.3188
  892MOL0     C20330   9.821   6.521   8.860 -0.0011  1.2795  0.0611
  892MOL0     C20331   9.748   6.560   8.964 -1.2163  0.0174  1.1633
  892MOL0     O20332   9.542   6.861   8.983  0.2873  0.1576 -0.1474
  892MOL0     C20333   9.430   6.749   9.293  0.2303 -0.7032 -1.1321
  892MOL0     C20334   9.360   6.804   9.410 -0.8169 -0.0737 -0.1813
  892MOL0     N20335   9.233   7.499   9.891  0.2880  0.8007 -0.2193
  892MOL0     N20336   9.201   7.605   9.835  0.3113 -0.4905  0.4381
  892MOL0     C20337   8.462   7.989  10.421  0.4138 -0.4265  0.0587
  892MOL0     C20338   8.360   7.975  10.518  1.0473  0.6655  0.2058
  892MOL0     C20339   8.030   8.099  10.819 -0.3339  0.1122  1.3567
  892MOL0     C20340   7.950   8.202  10.861 -0.2754  0.5736  0.9127
  892MOL0     C20341   7.839   8.180  10.946 -0.4517  0.4846 -0.0262
  892MOL0     C20342   7.807   8.051  10.984  0.0646  0.0420 -0.1167
  892MOL0     O20343   7.692   8.016  11.042  0.6200  0.2994 -0.3314
  892MOL0     C20344   7.586   8.111  11.033 -0.1430 -0.1960 -0.1339
  892MOL0     C20345   7.455   8.030  11.030 -0.0297 -0.4418 -0.3610
  892MOL0     C20346   7.443   7.907  11.131  0.1830  0.0042 -0.8879
  892MOL0     C20347   7.345   7.805  11.074  0.1176  0.2135 -0.3425
  892MOL0     C20348   7.408   7.730  10.962  0.2228 -0.0638 -0.8394
  892MOL0     C20349   7.467   7.670  10.880  0.2064 -0.2072 -0.2647
  892MOL0     C20350   7.890   7.943  10.943 -0.9587 -0.4115 -0.7621
  892MOL0     C20351   8.009   7.970  10.867  1.1699 -0.1472  0.7294
  892MOL0     C20352   8.073   7.846  10.817 -0.0203  0.1240 -0.0636
  892MOL0     H20353   8.123   8.198  10.416  0.1007  0.6130 -0.1900
  892MOL0     H20354   8.306   8.256  10.258  0.4130 -0.2581 -1.1309
  892MOL0     H20355   8.674   7.973  10.178 -1.2667 -3.2156 -1.7061
  892MOL0     H20356   8.509   7.915  10.170  1.9064 -1.7564  1.0463
  892MOL0     H20357   8.604   8.148  10.004  2.2741 -0.6177  2.7964
  892MOL0     H20358   8.462   8.040   9.977  0.5005  2.8615 -1.2693
  892MOL0     H20359   8.746   7.954   9.942  0.5134 -1.3354 -1.5410
  892MOL0     H20360   8.633   8.016   9.819 -0.9233  1.0482  1.1113
  892MOL0     H20361   8.648   7.774   9.999  1.8636 -0.8809 -1.1718
  892MOL0     H20362   8.497   7.793   9.898 -0.6895  0.0609 -2.5530
  892MOL0     H20363   8.628   7.649   9.760  0.3564 -0.9085  0.7535
  892MOL0     H20364   8.656   7.819   9.701  2.1769  2.6464  0.4558
  892MOL0     H20365   8.868   7.818   9.838 -2.3958  0.3428  1.6736
  892MOL0     H20366   8.856   7.648   9.875 -0.3908 -0.2268 -0.9361
  892MOL0     H20367   8.866   7.762   9.596 -0.9976 -1.4219 -2.3313
  892MOL0     H20368   8.826   7.599   9.642 -0.7324  0.2941  3.4806
  892MOL0     H20369   9.063   7.664   9.578  1.1049 -3.3653  0.7699
  892MOL0     H20370   9.078   7.785   9.706  5.4098 -2.9259  0.5571
  892MOL0     H20371   8.994   7.404   9.688  0.5521  1.1856 -0.8530
  892MOL0     H20372   9.261   7.246   9.948  1.8192 -3.0148 -1.8900
  892MOL0     H20373   9.108   7.188   9.900  0.3317  0.8578  2.6279
  892MOL0     H20374   9.198   7.194   9.664 -2.0200 -2.5413  2.4650
  892MOL0     H20375   9.365   7.248   9.731  0.8164  0.8736 -0.0133
  892MOL0     H20376   9.211   6.987   9.789  1.2595 -1.0035 -0.8820
  892MOL0     H20377   9.364   7.029   9.858 -0.4595 -2.5638 -0.5463
  892MOL0     H20378   9.377   6.878   9.670  4.0594 -0.3497 -1.1604
  892MOL0     H20379   9.471   7.027   9.671  0.5621 -2.1446  3.2257
  892MOL0     H20380   9.422   7.135   9.333 -1.8053  0.5335 -1.9898
  892MOL0     H20381   9.523   7.040   9.137  1.2451 -2.2772 -1.0206
  892MOL0     H20382   9.473   6.655   8.799  0.2716 -1.2486 -0.4145
  892MOL0     H20383   9.611   6.566   8.605  1.1828 -4.4669 -0.4948
  892MOL0     H20384   9.830   6.640   8.503 -0.3732  0.9686  0.8916
  892MOL0     H20385   9.971   6.627   8.610 -0.9317  1.9484 -0.9877
  892MOL0     H20386   9.903   6.439   8.378 -2.3493  2.6032  1.3633
  892MOL0     H20387  10.031   6.562   8.371  2.2041 -0.3690 -0.5839
  892MOL0     H20388  10.166   6.417   8.411 -0.9297 -0.3802 -0.0781
  892MOL0     H20389  10.114   6.429   8.584 -1.0217 -1.9752  1.4065
  892MOL0     H20390   9.934   6.230   8.492  0.7832 -0.2391  0.7984
  892MOL0     H20391  10.090   6.192   8.545  0.1840 -3.2231 -2.1834
  892MOL0     H20392  10.169   6.205   8.302  1.6695 -2.9745 -0.8069
  892MOL0     H20393   9.994   6.214   8.263  1.7347  1.1727 -1.5001
  892MOL0     H20394  10.166   5.989   8.387  2.7518  3.2618 -2.3632
  892MOL0     H20395   9.990   5.983   8.397 -0.3367  1.2826  0.1892
  892MOL0     H20396  10.139   6.031   8.150 -1.2583  2.6272  1.5405
  892MOL0     H20397   9.964   6.033   8.154  0.2260  2.0964  1.1783
  892MOL0     H20398  10.067   5.807   8.061 -2.8247 -4.5435  1.0370
  892MOL0     H20399  10.169   5.809   8.198  0.1941  1.5345  1.2397
  892MOL0     H20400   9.920   6.476   8.870 -1.5321 -2.3456  0.5945
  892MOL0     H20401   9.791   6.554   9.064 -0.1819 -1.3777  0.6683
  892MOL0     H20402   9.445   6.642   9.280  0.1832 -0.4782 -3.6312
  892MOL0     H20403   9.308   6.746   9.486  0.0874  0.4933  0.9098
  892MOL0     H20404   8.545   7.920  10.415 -2.1039 -3.6577 -0.4295
  892MOL0     H20405   8.388   7.896  10.587  1.2537  0.9770  0.4833
  892MOL0     H20406   7.980   8.300  10.825  1.3763 -0.4930 -0.7409
  892MOL0     H20407   7.787   8.269  10.978 -1.6497 -0.2102  0.0415
  892MOL0     H20408   7.590   8.173  10.943  1.5039  0.3333  0.2750
  892MOL0     H20409   7.583   8.175  11.121 -1.8921 -0.2102 -0.1434
  892MOL0     H20410   7.437   8.006  10.925  2.4590  1.2165 -1.2751
  892MOL0     H20411   7.368   8.087  11.061 -1.2911 -2.6567  0.3691
  892MOL0     H20412   7.424   7.939  11.234 -0.1926  1.3121 -1.3370
  892MOL0     H20413   7.538   7.853  11.131 -0.0181 -0.4341 -3.1484
  892MOL0     H20414   7.327   7.732  11.154 -4.6096 -1.6322 -2.6488
  892MOL0     H20415   7.245   7.839  11.046  0.0807 -1.8471 -3.2581
  892MOL0     H20416   7.516   7.609  10.806  0.2881  0.4061 -0.7224
  892MOL0     H20417   7.875   7.842  10.981 -0.5756  0.7038  2.7784
  892MOL0     H20418   8.075   7.781  10.905 -0.9047  0.1983  0.0132
  892MOL0     H20419   8.026   7.797  10.732 -0.9345 -2.2061  1.6935
  892MOL0     H20420   8.180   7.869  10.808  0.0747  0.3249  1.2893
  893MOL0     O20421   5.547   2.917   8.556  0.4819  0.4714 -0.0307
  893MOL0     C20422   5.583   2.839   8.648 -0.3238 -0.3186  0.0379
  893MOL0     O20423   5.510   2.730   8.691  0.6263 -0.7626 -0.6205
  893MOL0     C20424   5.406   2.687   8.608  0.3791  0.4590 -0.8112
  893MOL0     C20425   5.303   2.620   8.672  0.7253  0.1564 -1.4245
  893MOL0     C20426   5.189   2.577   8.603 -0.4072  0.2498 -0.1925
  893MOL0     C20427   5.186   2.582   8.464 -0.1116  0.4791  0.4179
  893MOL0     O20428   5.078   2.532   8.399  0.7924 -0.0903  0.2026
  893MOL0     C20429   5.070   2.539   8.252 -0.1573 -0.9376 -0.1521
  893MOL0     C20430   4.940   2.457   8.230 -0.0731 -0.7311 -0.3101
  893MOL0     C20431   4.963   2.309   8.257  0.7728 -0.1495  0.5343
  893MOL0     C20432   4.834   2.231   8.236 -0.2234  0.4829 -0.0653
  893MOL0     C20433   4.824   2.068   8.267 -0.5981 -0.6910 -0.2238
  893MOL0     C20434   4.691   2.016   8.231  0.5484  0.7600 -0.2170
  893MOL0     C20435   4.584   2.032   8.345  1.0749 -0.2163 -0.3909
  893MOL0     C20436   4.446   1.960   8.324 -0.6881 -0.8549  0.3443
  893MOL0     N20437   4.387   2.008   8.199 -0.0520 -1.2145 -0.2093
  893MOL0     C20438   4.391   2.141   8.154  0.4390 -0.1911  0.5686
  893MOL0     C20439   4.331   2.127   8.032 -0.3711 -0.0319  0.0188
  893MOL0     C20440   4.314   2.247   7.932 -0.2152 -0.1477  0.7830
  893MOL0     C20441   4.384   2.372   7.984  0.0776  0.7479 -0.5632
  893MOL0     C20442   4.537   2.354   7.996  0.2710 -0.4340 -0.2791
  893MOL0     C20443   4.598   2.467   8.079 -0.5443  0.2786 -0.1222
  893MOL0     O20444   4.605   2.574   7.990 -0.3214  0.2444 -0.4213
  893MOL0     C20445   4.673   2.683   8.031 -0.5386 -0.1574 -0.2846
  893MOL0     C20446   4.742   2.751   7.935 -0.3172  0.8130  0.0776
  893MOL0     C20447   4.834   2.858   7.963  0.1851  0.5213 -0.6880
  893MOL0     C20448   4.832   2.901   8.098 -0.0913 -0.5024  0.0384
  893MOL0     C20449   4.916   3.019   8.139 -0.2828 -0.3158  0.1551
  893MOL0     O20450   4.943   3.019   8.267 -0.4076 -0.0415  0.2733
  893MOL0     C20451   5.032   3.103   8.320 -1.1967 -0.5106 -0.2544
  893MOL0     C20452   5.150   3.052   8.357 -0.0657 -0.2937 -1.1875
  893MOL0     C20453   5.241   3.138   8.424  0.5360 -0.2163 -0.6801
  893MOL0     C20454   5.209   3.270   8.459 -0.1604 -0.1969 -0.6009
  893MOL0     O20455   5.309   3.339   8.529 -0.3587 -1.2201  0.3244
  893MOL0     C20456   5.313   3.481   8.537 -0.0044 -0.5096 -0.1438
  893MOL0     C20457   5.422   3.528   8.431 -0.7864  0.5054  0.8094
  893MOL0     C20458   5.567   3.499   8.483  0.8277  1.1496  1.0360
  893MOL0     C20459   5.659   3.480   8.372  0.5604  0.3289  0.2217
  893MOL0     C20460   5.805   3.480   8.431 -0.2138  0.5475  0.2830
  893MOL0     C20461   5.896   3.368   8.362 -0.1291  0.3344  0.0177
  893MOL0     C20462   6.046   3.404   8.375  0.3644 -0.7120 -0.8651
  893MOL0     C20463   6.121   3.283   8.329  0.3277 -0.2575  0.4282
  893MOL0    Cl20464   6.148   3.165   8.462 -0.2585  0.3580 -0.3950
  893MOL0     C20465   5.088   3.323   8.412 -0.7172  0.2929 -0.2583
  893MOL0     C20466   5.004   3.235   8.339  0.3560 -0.1288  0.3223
  893MOL0     O20467   4.942   3.104   8.060 -0.3656 -0.4184 -0.5373
  893MOL0     C20468   4.768   2.825   8.195 -0.3641  0.7524 -0.3267
  893MOL0     C20469   4.686   2.722   8.164  0.0446  0.9767 -0.3757
  893MOL0     N20470   4.295   1.997   8.005 -0.4057  0.4067  0.1858
  893MOL0     N20471   4.322   1.923   8.104 -0.7739 -1.0867  0.1534
  893MOL0     C20472   5.291   2.657   8.403  0.8928  0.6764  0.6170
  893MOL0     C20473   5.394   2.706   8.470 -0.9870 -0.4814 -0.2478
  893MOL0     C20474   5.704   2.878   8.719  0.6122 -0.3237  0.6373
  893MOL0     C20475   5.764   2.786   8.805 -1.4723 -0.1968  0.0666
  893MOL0     C20476   5.886   2.809   8.873  0.3687 -0.5761  0.0939
  893MOL0     C20477   5.949   2.936   8.849 -0.4002 -0.6653 -0.6303
  893MOL0     O20478   6.066   2.967   8.914  0.8255 -0.9220 -0.4349
  893MOL0     C20479   6.128   3.097   8.891  1.1823 -0.3646 -0.0584
  893MOL0     C20480   6.261   3.109   8.963  0.3399  0.5027  0.2847
  893MOL0     C20481   6.369   3.021   8.896 -0.6833  0.1284  0.1939
  893MOL0     C20482   6.502   3.033   8.969  0.0390 -0.3539 -0.1834
  893MOL0     C20483   6.483   2.941   9.084 -0.1058 -0.5142  0.5853
  893MOL0     C20484   6.464   2.873   9.184 -0.6940 -0.2555 -0.3159
  893MOL0     C20485   5.875   3.036   8.783  0.9331  0.5851  0.4878
  893MOL0     C20486   5.750   3.012   8.720 -0.4965 -0.2794  0.3153
  893MOL0     C20487   5.700   3.126   8.641  0.3993  0.1653  0.3065
  893MOL0     H20488   5.305   2.603   8.779  2.4303  0.8122 -1.3281
  893MOL0     H20489   5.111   2.525   8.658  0.3912 -0.2730  0.4726
  893MOL0     H20490   5.052   2.643   8.221  0.4846 -1.0686 -1.0137
  893MOL0     H20491   5.150   2.493   8.193  0.9149  1.5180 -0.7510
  893MOL0     H20492   4.914   2.469   8.125 -0.6611  0.6971 -0.0306
  893MOL0     H20493   4.865   2.494   8.302  1.8824  0.7826  1.0613
  893MOL0     H20494   5.004   2.307   8.358 -0.0777 -0.9602  0.8724
  893MOL0     H20495   5.040   2.270   8.189 -2.2875 -1.8511 -2.2659
  893MOL0     H20496   4.755   2.274   8.297 -0.4957  0.4385 -0.3870
  893MOL0     H20497   4.816   2.234   8.128 -1.9378 -1.2709  0.1262
  893MOL0     H20498   4.887   2.014   8.197 -1.6154 -0.5440 -1.2756
  893MOL0     H20499   4.860   2.048   8.369  3.7882  0.5498 -1.3349
  893MOL0     H20500   4.654   2.068   8.143  0.3786 -2.1629 -2.0102
  893MOL0     H20501   4.685   1.910   8.205 -2.1359  0.6137  0.6824
  893MOL0     H20502   4.566   2.136   8.372  3.1976 -0.3204  1.7134
  893MOL0     H20503   4.612   2.002   8.446 -2.0281 -0.6210  0.4540
  893MOL0     H20504   4.454   1.851   8.312  0.7698 -0.7118 -0.1463
  893MOL0     H20505   4.384   1.991   8.409  1.3125  1.8836  0.9383
  893MOL0     H20506   4.427   2.229   8.206  1.2581 -0.3468  0.2749
  893MOL0     H20507   4.357   2.229   7.833  1.1595 -0.8545  1.4859
  893MOL0     H20508   4.207   2.269   7.921 -0.3488 -0.9390  0.4064
  893MOL0     H20509   4.361   2.450   7.911  0.4624  2.1964  0.8035
  893MOL0     H20510   4.335   2.408   8.075 -3.3474  1.1922 -2.4174
  893MOL0     H20511   4.584   2.367   7.898 -0.0762  3.1661 -0.1245
  893MOL0     H20512   4.570   2.258   8.035  2.3114 -0.1011 -1.0642
  893MOL0     H20513   4.697   2.430   8.108 -2.0895 -3.0362  1.4667
  893MOL0     H20514   4.530   2.482   8.163 -2.2638 -0.0044 -1.4182
  893MOL0     H20515   4.740   2.719   7.831  0.3448 -1.1399  0.6123
  893MOL0     H20516   4.878   2.914   7.881 -1.6632  3.0259 -0.0895
  893MOL0     H20517   5.182   2.951   8.331  0.5328  0.0248 -1.6982
  893MOL0     H20518   5.329   3.093   8.469  0.8443  2.3026  1.4994
  893MOL0     H20519   5.216   3.529   8.515  1.1420  0.6786 -3.2898
  893MOL0     H20520   5.344   3.498   8.640  0.9282 -3.1058  0.0569
  893MOL0     H20521   5.405   3.467   8.342 -1.5998 -2.2293  2.7093
  893MOL0     H20522   5.398   3.634   8.417  0.4249  0.3452 -5.8043
  893MOL0     H20523   5.594   3.576   8.556  0.7838 -0.0335  2.3451
  893MOL0     H20524   5.564   3.403   8.536 -3.5313 -0.0689 -0.9086
  893MOL0     H20525   5.643   3.553   8.292  0.0743  1.8252  1.6304
  893MOL0     H20526   5.646   3.377   8.337  1.4705 -0.1753  1.2658
  893MOL0     H20527   5.790   3.455   8.537 -2.3863  2.4689  0.4968
  893MOL0     H20528   5.858   3.575   8.424  2.5060 -0.9639 -1.4409
  893MOL0     H20529   5.880   3.266   8.397 -0.2087  0.5395  0.5966
  893MOL0     H20530   5.863   3.362   8.258 -2.8066  0.5523  0.7831
  893MOL0     H20531   6.060   3.417   8.482 -2.9126  0.8076 -0.5096
  893MOL0     H20532   6.066   3.496   8.318 -0.5004  0.5910  0.8611
  893MOL0     H20533   6.084   3.234   8.239  0.4550 -2.7132  1.6286
  893MOL0     H20534   6.225   3.311   8.310  0.4821 -0.1325  1.4049
  893MOL0     H20535   5.064   3.428   8.424  0.9750  0.5628  1.2472
  893MOL0     H20536   4.912   3.275   8.298 -1.0722  0.4339  3.7594
  893MOL0     H20537   4.776   2.847   8.301 -1.1716 -2.5472  0.5398
  893MOL0     H20538   4.621   2.687   8.243  0.2648  1.1147 -0.1293
  893MOL0     H20539   5.278   2.681   8.298 -0.8611 -1.3871  0.2769
  893MOL0     H20540   5.464   2.764   8.411  0.9759  0.7308  2.9887
  893MOL0     H20541   5.718   2.688   8.806 -1.3130 -0.3414 -2.2806
  893MOL0     H20542   5.930   2.721   8.919 -0.8752 -0.9193  0.6790
  893MOL0     H20543   6.065   3.175   8.934  0.1504 -0.7252 -0.8578
  893MOL0     H20544   6.124   3.118   8.784 -2.4848 -2.2805 -0.4566
  893MOL0     H20545   6.249   3.065   9.063  0.7757  3.1752  1.6335
  893MOL0     H20546   6.313   3.206   8.961  0.7264  0.2889 -1.2153
  893MOL0     H20547   6.373   3.062   8.794  0.8740 -0.5586 -0.0503
  893MOL0     H20548   6.337   2.917   8.895 -0.0899 -0.1150 -2.7174
  893MOL0     H20549   6.583   3.011   8.899 -0.1889 -3.3729  0.3702
  893MOL0     H20550   6.532   3.131   9.008  0.4214 -0.7049  0.4086
  893MOL0     H20551   6.457   2.823   9.279  1.0127  0.0537  0.0058
  893MOL0     H20552   5.917   3.136   8.780  1.7693  0.3121 -3.5209
  893MOL0     H20553   5.753   3.215   8.675  2.6013 -0.4483 -1.2937
  893MOL0     H20554   5.727   3.111   8.536  5.1312 -1.8654  1.5503
  893MOL0     H20555   5.594   3.144   8.660  0.0313 -2.2720  0.9862
  894MOL0     O20556   0.477   5.355   4.810 -0.5064  0.0780  0.2346
  894MOL0     C20557   0.605   5.350   4.797 -0.6491  0.2470  0.4087
  894MOL0     O20558   0.669   5.235   4.807 -0.4630 -0.4113 -0.3561
  894MOL0     C20559   0.613   5.112   4.814 -0.7257 -0.3055  0.3708
  894MOL0     C20560   0.509   5.060   4.727  0.6484  0.3030 -0.7079
  894MOL0     C20561   0.461   4.937   4.754  0.3681 -0.1763 -0.9523
  894MOL0     C20562   0.511   4.852   4.861  0.0979 -0.2231  0.2025
  894MOL0     O20563   0.444   4.735   4.888 -0.0560 -0.1664 -0.1705
  894MOL0     C20564   0.468   4.655   5.006 -0.0812 -0.3392  0.1400
  894MOL0     C20565   0.371   4.540   5.027  0.3407  0.2458  0.1380
  894MOL0     C20566   0.402   4.413   4.933  0.1055  0.6103 -0.3152
  894MOL0     C20567   0.341   4.290   5.011 -0.0284  0.4846  0.3962
  894MOL0     C20568   0.332   4.162   4.915  0.2935  0.0335  0.4311
  894MOL0     C20569   0.466   4.098   4.871  0.9725  0.3055 -0.0262
  894MOL0     C20570   0.461   4.031   4.735 -0.5357  0.5782  0.8437
  894MOL0     C20571   0.606   3.970   4.702 -0.1489  0.3203 -0.6090
  894MOL0     N20572   0.580   3.857   4.605 -0.7016  1.2029  0.0790
  894MOL0     C20573   0.521   3.879   4.486 -0.9118  0.3020 -0.4997
  894MOL0     C20574   0.527   3.768   4.419 -0.0069  0.5912 -0.0066
  894MOL0     C20575   0.493   3.739   4.277  0.0584  0.4288 -0.2996
  894MOL0     C20576   0.529   3.590   4.238  0.0579  0.1218  0.2299
  894MOL0     C20577   0.494   3.584   4.089 -0.2626 -0.0705 -0.3798
  894MOL0     C20578   0.565   3.476   4.010  0.1962 -0.1785  0.5231
  894MOL0     O20579   0.686   3.526   3.939 -0.1514  0.2990 -0.1219
  894MOL0     C20580   0.810   3.476   3.969 -0.8266 -0.7840  0.9400
  894MOL0     C20581   0.899   3.546   4.043  0.1539 -1.1142  0.0082
  894MOL0     C20582   1.015   3.482   4.089  0.6212  0.0762  0.3920
  894MOL0     C20583   1.049   3.348   4.049 -0.4352 -0.2588 -0.5690
  894MOL0     C20584   1.171   3.280   4.095 -0.5767 -0.8593  0.3092
  894MOL0     O20585   1.259   3.354   4.170 -0.4355 -1.0308  0.1524
  894MOL0     C20586   1.356   3.304   4.261  0.2382 -0.8943  0.4984
  894MOL0     C20587   1.472   3.375   4.282  0.9258 -0.8657 -0.5100
  894MOL0     C20588   1.576   3.337   4.368  0.4325 -0.9772 -0.9497
  894MOL0     C20589   1.563   3.220   4.436 -0.6502  0.1422  0.3732
  894MOL0     O20590   1.656   3.167   4.524  0.0622 -0.0549 -0.2415
  894MOL0     C20591   1.652   3.230   4.658 -0.6456  0.1806 -0.1072
  894MOL0     C20592   1.743   3.350   4.670 -0.4635  0.3986 -0.6581
  894MOL0     C20593   1.791   3.389   4.810  0.4641 -0.2488  0.6928
  894MOL0     C20594   1.681   3.408   4.906  1.1169 -0.0639 -0.3314
  894MOL0     C20595   1.752   3.439   5.054 -0.1978 -0.3080  1.0308
  894MOL0     C20596   1.640   3.462   5.156  0.1614 -0.1813  0.2082
  894MOL0     C20597   1.591   3.328   5.217 -0.2178  0.7132 -0.4429
  894MOL0     C20598   1.476   3.339   5.323  0.4627  0.7623 -0.4208
  894MOL0    Cl20599   1.376   3.481   5.287  0.2595 -0.2036 -0.3015
  894MOL0     C20600   1.445   3.143   4.420 -0.4413 -0.5098 -0.8744
  894MOL0     C20601   1.339   3.180   4.334 -0.1406 -0.0085 -0.2534
  894MOL0     O20602   1.193   3.171   4.057  0.3253  0.9568  0.1323
  894MOL0     C20603   0.960   3.279   3.975  0.6865 -0.3285  0.1135
  894MOL0     C20604   0.837   3.346   3.934 -0.1460  0.0432  0.0466
  894MOL0     N20605   0.579   3.669   4.502 -0.0854 -0.5581  0.0937
  894MOL0     N20606   0.617   3.722   4.619  0.3391 -0.4206  0.3891
  894MOL0     C20607   0.613   4.901   4.939 -0.1487  0.6611  0.1266
  894MOL0     C20608   0.671   5.023   4.908  0.3498 -0.0854  0.4217
  894MOL0     C20609   0.680   5.474   4.769 -0.1773 -0.8727 -0.1094
  894MOL0     C20610   0.804   5.464   4.698  1.1588  0.7772  0.3099
  894MOL0     C20611   0.870   5.573   4.649  0.1834  0.1467  0.3961
  894MOL0     C20612   0.837   5.698   4.693 -0.9403 -0.6964 -0.0735
  894MOL0     O20613   0.914   5.810   4.655 -0.9223  0.4316 -0.3324
  894MOL0     C20614   0.857   5.935   4.673 -1.4175  0.0460  0.5645
  894MOL0     C20615   0.939   6.036   4.578 -0.2685 -0.2763 -1.2382
  894MOL0     C20616   0.902   6.027   4.429  0.1600  1.0710  1.5339
  894MOL0     C20617   0.963   6.132   4.337 -0.2947  0.6025 -0.8503
  894MOL0     C20618   0.909   6.259   4.386  0.0783  0.3426  0.1627
  894MOL0     C20619   0.894   6.377   4.427  0.0349 -0.8306  0.0059
  894MOL0     C20620   0.727   5.714   4.779 -0.1579 -0.1639 -0.1204
  894MOL0     C20621   0.637   5.604   4.803 -0.1688 -0.6660  0.1504
  894MOL0     C20622   0.513   5.646   4.882 -0.3640  0.1611  1.3784
  894MOL0     H20623   0.468   5.133   4.658  2.2687 -0.1813 -2.2689
  894MOL0     H20624   0.365   4.903   4.718 -0.8046  2.3474 -0.4422
  894MOL0     H20625   0.571   4.617   5.003 -0.5117 -1.5353 -2.5456
  894MOL0     H20626   0.454   4.720   5.093 -2.3478  0.5571 -0.8196
  894MOL0     H20627   0.273   4.578   4.997  0.8936  1.9991  0.4502
  894MOL0     H20628   0.358   4.515   5.133 -4.7518  0.2620 -0.2178
  894MOL0     H20629   0.511   4.403   4.935 -0.0071 -0.9603 -0.9699
  894MOL0     H20630   0.363   4.426   4.831 -0.9481 -1.0158 -0.1598
  894MOL0     H20631   0.406   4.265   5.095  2.1616 -2.7495 -1.9751
  894MOL0     H20632   0.243   4.320   5.047  0.2677  3.1405 -0.7441
  894MOL0     H20633   0.280   4.089   4.976  0.7292  0.4261  1.2916
  894MOL0     H20634   0.269   4.193   4.831 -0.7945  0.0765  1.2574
  894MOL0     H20635   0.548   4.170   4.875  0.5109  1.0179 -2.0971
  894MOL0     H20636   0.504   4.024   4.941 -0.0800 -2.3053 -2.0520
  894MOL0     H20637   0.427   4.107   4.664  1.7525  2.8399  1.9904
  894MOL0     H20638   0.388   3.951   4.722 -0.3943  0.7263 -1.1740
  894MOL0     H20639   0.672   4.045   4.657  0.0990  1.5164  1.5980
  894MOL0     H20640   0.659   3.951   4.796  2.6347  3.5253 -1.3309
  894MOL0     H20641   0.482   3.977   4.461  0.7078  0.6760 -1.7367
  894MOL0     H20642   0.386   3.755   4.262 -0.3470 -1.2855  0.4681
  894MOL0     H20643   0.551   3.809   4.217 -0.3640  0.8304 -0.2421
  894MOL0     H20644   0.637   3.577   4.237 -0.0839 -1.6043 -2.1961
  894MOL0     H20645   0.483   3.515   4.304 -0.9147  0.9360  0.4952
  894MOL0     H20646   0.515   3.683   4.048  1.9009  0.0839  0.9615
  894MOL0     H20647   0.385   3.576   4.082 -0.5196  2.1230  0.4590
  894MOL0     H20648   0.502   3.455   3.923 -0.4300  0.9921  0.6740
  894MOL0     H20649   0.571   3.377   4.057 -1.0560 -0.6172 -0.1917
  894MOL0     H20650   0.864   3.640   4.084  0.2252 -1.2805  0.4590
  894MOL0     H20651   1.078   3.542   4.154 -1.8971  2.9339  0.4396
  894MOL0     H20652   1.489   3.458   4.215 -0.1204  0.1544  0.4626
  894MOL0     H20653   1.670   3.391   4.373  0.6742 -1.4112 -0.7462
  894MOL0     H20654   1.552   3.245   4.699  0.0210  0.1217  1.5954
  894MOL0     H20655   1.703   3.162   4.727 -0.7371  0.4451  0.2253
  894MOL0     H20656   1.836   3.336   4.615 -1.8167  0.2698 -3.0248
  894MOL0     H20657   1.682   3.433   4.632 -1.7762 -1.0823 -1.9651
  894MOL0     H20658   1.851   3.303   4.839  0.5540 -0.5007 -0.1938
  894MOL0     H20659   1.863   3.472   4.808  0.3975 -0.0465  3.3406
  894MOL0     H20660   1.617   3.321   4.923  0.0687  1.0434  1.8300
  894MOL0     H20661   1.635   3.501   4.875  4.5449  1.4307 -1.3992
  894MOL0     H20662   1.806   3.533   5.038 -0.7149 -0.1505  0.1574
  894MOL0     H20663   1.813   3.358   5.098 -2.6467 -1.2545  2.9528
  894MOL0     H20664   1.675   3.528   5.235  0.6710  0.1289 -0.2729
  894MOL0     H20665   1.559   3.516   5.107  1.4573  2.7607  1.0691
  894MOL0     H20666   1.675   3.268   5.252 -1.4918 -0.1074  1.3558
  894MOL0     H20667   1.544   3.282   5.130  0.2466  0.4992 -0.5868
  894MOL0     H20668   1.415   3.249   5.333  1.6958 -0.1173 -0.5587
  894MOL0     H20669   1.521   3.354   5.421 -0.6448 -1.2609  0.4594
  894MOL0     H20670   1.435   3.054   4.482 -0.2838 -0.5079 -0.8445
  894MOL0     H20671   1.250   3.118   4.326 -1.3204  1.0656  2.9484
  894MOL0     H20672   0.967   3.177   3.939 -3.9052 -0.1212 -2.1039
  894MOL0     H20673   0.768   3.296   3.866 -0.4756  0.6821 -0.0975
  894MOL0     H20674   0.631   4.843   5.029 -1.5639  0.1243  0.0820
  894MOL0     H20675   0.753   5.046   4.975 -0.9998  1.8399  1.5039
  894MOL0     H20676   0.834   5.361   4.681  0.4135  0.7362 -0.8330
  894MOL0     H20677   0.964   5.551   4.600 -0.6285 -2.9395 -0.0002
  894MOL0     H20678   0.866   5.964   4.778 -3.8267 -1.1858  1.1790
  894MOL0     H20679   0.749   5.933   4.657 -1.7478  3.4002  1.6256
  894MOL0     H20680   1.045   6.011   4.583  0.4535  2.6613  1.5387
  894MOL0     H20681   0.923   6.139   4.610  0.4557  0.2047 -2.3688
  894MOL0     H20682   0.793   6.028   4.418  0.0978 -1.3689  1.3273
  894MOL0     H20683   0.929   5.927   4.394  0.4575  1.4773  0.5647
  894MOL0     H20684   1.071   6.119   4.349 -0.6964 -1.7410  1.2663
  894MOL0     H20685   0.948   6.124   4.229  0.7110  3.7015 -1.3201
  894MOL0     H20686   0.886   6.482   4.446  0.2689  0.1362 -4.1319
  894MOL0     H20687   0.700   5.812   4.819  0.4312 -0.0406 -0.0172
  894MOL0     H20688   0.420   5.657   4.826 -0.2282  0.0752  1.1322
  894MOL0     H20689   0.498   5.564   4.953  0.2200 -0.8627  0.3560
  894MOL0     H20690   0.539   5.726   4.952  0.5663 -1.6707  3.2230
  895MOL0     O20691   6.249   2.790   0.564 -0.4391 -0.1623  0.4810
  895MOL0     C20692   6.164   2.860   0.510 -1.1784  0.2864  0.6701
  895MOL0     O20693   6.185   2.921   0.389 -0.0236 -1.2504  0.4659
  895MOL0     C20694   6.302   2.899   0.314  0.0852  1.3676 -0.1442
  895MOL0     C20695   6.357   3.012   0.253  1.1407 -0.4499 -0.0441
  895MOL0     C20696   6.478   3.014   0.199 -0.6022 -1.0874 -0.2189
  895MOL0     C20697   6.553   2.901   0.191 -0.1770  0.9422 -0.4237
  895MOL0     O20698   6.670   2.919   0.127 -0.0370 -0.0069  0.0309
  895MOL0     C20699   6.755   2.802   0.122 -0.3707 -0.2026  0.6574
  895MOL0     C20700   6.880   2.838   0.037 -0.4253 -0.1175  0.0299
  895MOL0     C20701   7.010   2.759   0.039  0.1138  0.2533  0.5834
  895MOL0     C20702   7.106   2.794  -0.080 -0.8793 -0.4249  0.0751
  895MOL0     C20703   7.256   2.754  -0.058 -0.2035  0.3562 -0.1181
  895MOL0     C20704   7.291   2.610  -0.016 -0.8966  0.1529  0.5689
  895MOL0     C20705   7.440   2.574  -0.012 -0.1321  0.5158  0.3689
  895MOL0     C20706   7.499   2.619   0.123  0.0025 -0.5096  0.2898
  895MOL0     N20707   7.636   2.562   0.139 -0.4541 -0.0350  0.5120
  895MOL0     C20708   7.741   2.625   0.207 -0.4526  0.1930  0.5462
  895MOL0     C20709   7.835   2.527   0.228  0.4897 -0.1281  0.4982
  895MOL0     C20710   7.975   2.553   0.280  0.0866 -0.8958  0.8682
  895MOL0     C20711   8.087   2.559   0.177 -0.4199 -0.2156 -0.1844
  895MOL0     C20712   8.070   2.667   0.066  0.7304  0.6730  0.4430
  895MOL0     C20713   8.199   2.679  -0.018 -0.0594  0.0276  0.3222
  895MOL0     O20714   8.226   2.564  -0.106 -0.3897  0.1616  0.7492
  895MOL0     C20715   8.355   2.511  -0.102  0.9371 -0.2383  0.3210
  895MOL0     C20716   8.459   2.535  -0.013  0.7521 -0.5173 -0.3395
  895MOL0     C20717   8.580   2.458  -0.010  0.9128  0.1100  0.2949
  895MOL0     C20718   8.596   2.351  -0.097 -1.4447  0.2412  0.1153
  895MOL0     C20719   8.717   2.275  -0.092 -0.6994 -1.1781 -0.2073
  895MOL0     O20720   8.736   2.184  -0.189  1.1190 -0.4273 -0.2993
  895MOL0     C20721   8.854   2.121  -0.222 -0.7767 -0.0323  0.0062
  895MOL0     C20722   8.851   2.011  -0.308 -0.3763 -0.2335  0.7943
  895MOL0     C20723   8.972   1.943  -0.340  0.0326 -0.8791 -0.2789
  895MOL0     C20724   9.097   1.987  -0.301 -0.6341  0.1092 -0.7167
  895MOL0     O20725   9.205   1.912  -0.353  0.0851 -0.2976  0.7604
  895MOL0     C20726   9.320   1.898  -0.267 -0.2843  1.0585 -0.2508
  895MOL0     C20727   9.390   1.764  -0.300  0.5042 -0.2120  0.3952
  895MOL0     C20728   9.299   1.643  -0.284  1.0869  0.0977 -0.0916
  895MOL0     C20729   9.229   1.634  -0.143 -0.1491  0.1180 -0.1931
  895MOL0     C20730   9.191   1.488  -0.090  0.3842 -0.1721 -0.1159
  895MOL0     C20731   9.289   1.381  -0.079  0.4119 -0.6355 -0.7468
  895MOL0     C20732   9.412   1.418   0.001  0.1119  0.3198  0.3827
  895MOL0     C20733   9.383   1.424   0.156 -0.1414 -0.3986  0.2386
  895MOL0    Cl20734   9.363   1.256   0.219  0.2600  0.2135  0.4176
  895MOL0     C20735   9.105   2.098  -0.227 -0.6555  0.3512 -0.4674
  895MOL0     C20736   8.986   2.163  -0.181  1.1560  0.6629  0.1034
  895MOL0     O20737   8.801   2.307  -0.004 -0.3610  0.2297 -0.3880
  895MOL0     C20738   8.498   2.334  -0.200 -0.8490  0.5001 -1.2120
  895MOL0     C20739   8.370   2.409  -0.187 -0.2337 -0.2542 -0.4249
  895MOL0     N20740   7.792   2.416   0.152  0.6545  0.7376 -0.6082
  895MOL0     N20741   7.679   2.437   0.101 -0.3417  0.5018 -0.3516
  895MOL0     C20742   6.494   2.783   0.246  0.6307 -0.6467  0.5984
  895MOL0     C20743   6.377   2.780   0.316  0.2398 -0.6000 -0.0108
  895MOL0     C20744   6.038   2.898   0.582 -0.6115 -0.2254  0.9829
  895MOL0     C20745   5.968   3.005   0.525 -0.6193  0.0474 -0.1723
  895MOL0     C20746   5.848   3.047   0.575  0.4631  0.0608 -0.1299
  895MOL0     C20747   5.793   2.985   0.692  0.0784 -0.4139 -0.3830
  895MOL0     O20748   5.672   3.026   0.759  0.5079 -0.0896  0.1994
  895MOL0     C20749   5.606   3.142   0.710  0.1699  0.2343 -0.0770
  895MOL0     C20750   5.666   3.264   0.755 -0.4045 -0.3125  0.1561
  895MOL0     C20751   5.697   3.262   0.895 -0.9151  0.8626 -0.0595
  895MOL0     C20752   5.715   3.404   0.962  0.1350 -0.4389 -0.3437
  895MOL0     C20753   5.596   3.488   0.966 -0.2059  0.0662  0.6700
  895MOL0     C20754   5.503   3.562   0.948  0.4730  0.3078  0.7106
  895MOL0     C20755   5.861   2.875   0.742 -0.5839 -0.1532  1.3118
  895MOL0     C20756   5.981   2.828   0.698 -0.4041 -0.2269 -0.0437
  895MOL0     C20757   6.043   2.706   0.754 -0.2599 -0.7844 -0.0108
  895MOL0     H20758   6.316   3.108   0.282  3.8598 -0.0562  2.9899
  895MOL0     H20759   6.527   3.108   0.178  2.4626 -2.0836  1.7375
  895MOL0     H20760   6.777   2.764   0.222 -0.1893  2.9091  1.9023
  895MOL0     H20761   6.709   2.715   0.074  1.4380  0.0061 -1.6601
  895MOL0     H20762   6.901   2.941   0.067 -1.2455 -0.2856  1.2621
  895MOL0     H20763   6.856   2.848  -0.069  2.9242  2.0699 -0.6661
  895MOL0     H20764   6.992   2.652   0.027  0.0116  0.3786 -0.4494
  895MOL0     H20765   7.062   2.780   0.133 -1.9209 -0.8911  2.0498
  895MOL0     H20766   7.061   2.753  -0.171 -1.4465 -0.8327  0.5276
  895MOL0     H20767   7.107   2.901  -0.100  0.8661 -0.6200 -1.0836
  895MOL0     H20768   7.311   2.773  -0.150 -3.2839 -0.4298 -2.2675
  895MOL0     H20769   7.276   2.827   0.022 -4.8691  3.1405 -1.1074
  895MOL0     H20770   7.234   2.570   0.069  0.7763 -3.4228  0.2176
  895MOL0     H20771   7.253   2.551  -0.100  0.5345 -0.9500  0.6507
  895MOL0     H20772   7.482   2.624  -0.100  3.5220 -0.2449  1.4997
  895MOL0     H20773   7.466   2.468  -0.021  1.2781  0.8750 -0.0409
  895MOL0     H20774   7.494   2.728   0.133 -1.5440 -0.7573  3.3497
  895MOL0     H20775   7.433   2.576   0.199 -0.8605 -1.9898 -1.2189
  895MOL0     H20776   7.745   2.729   0.239 -1.4815  0.5935 -0.5247
  895MOL0     H20777   7.973   2.651   0.331  2.1970  0.2934 -1.1661
  895MOL0     H20778   8.004   2.479   0.356 -2.0380 -1.9415  0.7259
  895MOL0     H20779   8.183   2.570   0.227  0.5434 -1.0598 -1.7637
  895MOL0     H20780   8.093   2.460   0.131 -1.8979 -0.0626 -0.7509
  895MOL0     H20781   8.047   2.763   0.113  0.0834  0.9250 -0.3700
  895MOL0     H20782   7.987   2.637   0.002  2.1360  1.9466 -2.1699
  895MOL0     H20783   8.275   2.708   0.055  1.0827  1.3560 -1.3284
  895MOL0     H20784   8.205   2.769  -0.079  2.7152 -1.9460 -2.6054
  895MOL0     H20785   8.449   2.609   0.066  2.4280  1.8742 -2.2253
  895MOL0     H20786   8.653   2.490   0.063  1.2073 -0.3848  0.2205
  895MOL0     H20787   8.753   1.993  -0.350 -0.6675 -0.6262  1.6384
  895MOL0     H20788   8.979   1.878  -0.426  3.3675  3.1632 -3.5395
  895MOL0     H20789   9.388   1.981  -0.288 -0.3609  0.5553 -2.9250
  895MOL0     H20790   9.300   1.893  -0.160 -2.2569 -1.3979 -0.6418
  895MOL0     H20791   9.415   1.765  -0.406  0.0190  1.8347  0.2624
  895MOL0     H20792   9.488   1.742  -0.257  1.5318 -0.7309 -2.0566
  895MOL0     H20793   9.219   1.654  -0.357 -0.0980  1.4575  1.3409
  895MOL0     H20794   9.355   1.556  -0.319 -0.5627 -0.2918 -1.9022
  895MOL0     H20795   9.136   1.689  -0.161 -1.8251 -3.4757 -4.5056
  895MOL0     H20796   9.296   1.678  -0.069  0.6904 -0.0164 -0.8583
  895MOL0     H20797   9.107   1.459  -0.153  0.8330  0.1171 -0.8571
  895MOL0     H20798   9.166   1.493   0.017  2.2852 -1.2917  0.4426
  895MOL0     H20799   9.237   1.297  -0.031  0.5436  0.1123  0.7572
  895MOL0     H20800   9.322   1.355  -0.180 -1.0800 -2.9273 -0.7192
  895MOL0     H20801   9.454   1.512  -0.037 -1.6190 -0.1890 -3.2739
  895MOL0     H20802   9.491   1.345  -0.018 -2.0841 -1.6185 -2.3062
  895MOL0     H20803   9.471   1.460   0.211  0.9003 -0.9041 -1.0367
  895MOL0     H20804   9.297   1.484   0.186  0.9017  2.1054 -1.4641
  895MOL0     H20805   9.199   2.137  -0.191  0.5807 -1.5269 -1.5538
  895MOL0     H20806   8.992   2.259  -0.130 -2.4674  2.0536 -1.7282
  895MOL0     H20807   8.519   2.271  -0.287 -0.0869 -1.1144  0.0887
  895MOL0     H20808   8.289   2.376  -0.252 -1.4111 -0.3242  1.0395
  895MOL0     H20809   6.545   2.688   0.236  0.8154 -0.4280 -0.8396
  895MOL0     H20810   6.343   2.694   0.372 -0.1146  0.9518  2.3126
  895MOL0     H20811   6.016   3.049   0.437 -0.2763 -1.9359 -1.0402
  895MOL0     H20812   5.810   3.138   0.531 -2.0054 -1.2845 -0.9984
  895MOL0     H20813   5.506   3.150   0.754  0.4328 -1.1772  0.8205
  895MOL0     H20814   5.600   3.141   0.600  0.2472  3.0817 -0.1881
  895MOL0     H20815   5.601   3.350   0.734  0.9112  0.5908 -0.3809
  895MOL0     H20816   5.760   3.274   0.700  0.3339 -1.4349  1.1730
  895MOL0     H20817   5.787   3.201   0.902  0.3758  2.3035 -2.4123
  895MOL0     H20818   5.624   3.202   0.951  1.8313 -1.7396  0.9771
  895MOL0     H20819   5.749   3.385   1.064  1.4536 -1.2057 -0.8894
  895MOL0     H20820   5.796   3.451   0.905  0.5707  0.6172  1.1042
  895MOL0     H20821   5.408   3.610   0.955 -0.0149 -0.4478 -0.5214
  895MOL0     H20822   5.810   2.838   0.830 -0.8259  1.0251  1.6863
  895MOL0     H20823   6.055   2.642   0.666 -1.6349 -0.1127 -0.7221
  895MOL0     H20824   6.141   2.721   0.800  0.4334  2.4001 -2.1155
  895MOL0     H20825   5.979   2.664   0.831  2.2152  0.2214  2.7854
  896MOL0     O20826   5.701   5.612   9.239  0.5678  0.3717 -0.3144
  896MOL0     C20827   5.582   5.629   9.238  0.8139  0.4780 -0.2083
  896MOL0     O20828   5.504   5.591   9.132  0.9608 -0.2234 -1.2152
  896MOL0     C20829   5.565   5.520   9.028  0.3511 -0.0120 -0.2956
  896MOL0     C20830   5.644   5.405   9.055 -0.3489 -0.6181 -0.0030
  896MOL0     C20831   5.689   5.322   8.950  0.3715  0.6524 -1.2263
  896MOL0     C20832   5.665   5.370   8.815  0.6935 -0.8086  0.7792
  896MOL0     O20833   5.722   5.290   8.723  0.0079  0.9184  0.5995
  896MOL0     C20834   5.734   5.337   8.591 -0.2690 -0.5620  0.1230
  896MOL0     C20835   5.758   5.224   8.491 -0.0708 -0.5186 -0.5215
  896MOL0     C20836   5.800   5.272   8.354 -0.9248  0.2693 -0.0752
  896MOL0     C20837   5.923   5.368   8.344  0.2571 -1.0436  0.2682
  896MOL0     C20838   5.915   5.435   8.206  0.0083 -0.1151  0.3659
  896MOL0     C20839   5.993   5.368   8.090  0.8915  0.4529 -0.0808
  896MOL0     C20840   6.007   5.444   7.961  0.6302  0.1687  0.8729
  896MOL0     C20841   5.877   5.431   7.884 -0.9372 -0.3096  0.6657
  896MOL0     N20842   5.881   5.521   7.763  0.1742  0.8014 -1.2897
  896MOL0     C20843   5.867   5.660   7.778  0.3576 -0.1285  0.7040
  896MOL0     C20844   5.880   5.710   7.657  0.4354 -1.0342  1.1642
  896MOL0     C20845   5.887   5.853   7.628  0.4717  0.6539  0.6234
  896MOL0     C20846   5.750   5.925   7.628  0.3410 -1.2064  0.7011
  896MOL0     C20847   5.679   5.924   7.762 -1.0067 -1.4623  0.0150
  896MOL0     C20848   5.776   5.988   7.868 -0.2227  0.2268  1.0286
  896MOL0     O20849   5.708   6.033   7.982 -0.4121 -0.0130 -0.0124
  896MOL0     C20850   5.670   5.938   8.080  0.6282 -0.3132 -0.1702
  896MOL0     C20851   5.757   5.915   8.178 -0.0937 -0.3967 -0.6357
  896MOL0     C20852   5.727   5.817   8.280 -0.0002 -0.2443 -0.7543
  896MOL0     C20853   5.602   5.753   8.276  0.9656  0.8632 -0.4069
  896MOL0     C20854   5.559   5.647   8.373 -0.1076 -0.5524  0.0153
  896MOL0     O20855   5.429   5.604   8.364  0.2826  0.3488 -0.4213
  896MOL0     C20856   5.391   5.494   8.432  0.1262  0.0898  0.9430
  896MOL0     C20857   5.351   5.505   8.567 -0.0348  0.1051 -0.0007
  896MOL0     C20858   5.317   5.394   8.635  0.1022  0.0720 -0.5237
  896MOL0     C20859   5.315   5.273   8.574 -0.1274  0.4406 -0.4361
  896MOL0     O20860   5.285   5.146   8.631 -0.7945 -0.8095  0.0109
  896MOL0     C20861   5.296   5.128   8.775  0.6711  0.0617  0.3830
  896MOL0     C20862   5.426   5.073   8.819 -0.9517  0.1053  0.9288
  896MOL0     C20863   5.449   5.095   8.958 -0.2536 -0.0488 -0.4694
  896MOL0     C20864   5.381   4.978   9.048  0.8305  0.3520 -0.1226
  896MOL0     C20865   5.475   4.933   9.156  0.0372 -1.1198  0.4045
  896MOL0     C20866   5.390   4.878   9.280 -0.1036 -0.1229 -0.4056
  896MOL0     C20867   5.490   4.817   9.375 -0.4497  0.4243  0.4839
  896MOL0     C20868   5.432   4.790   9.506  0.0261  0.0926 -0.5425
  896MOL0    Cl20869   5.523   4.673   9.608  0.1243 -0.4696  0.0684
  896MOL0     C20870   5.330   5.270   8.435 -0.0067  0.5748  0.6683
  896MOL0     C20871   5.367   5.378   8.358 -0.1681  0.2843 -1.0120
  896MOL0     O20872   5.634   5.625   8.465  0.2125  0.1020 -0.7124
  896MOL0     C20873   5.517   5.774   8.165  0.5292 -0.5025 -0.9519
  896MOL0     C20874   5.553   5.864   8.072  0.0091  0.0028  0.5131
  896MOL0     N20875   5.890   5.607   7.566 -0.1217  0.5633 -0.3073
  896MOL0     N20876   5.888   5.493   7.631  0.1039 -0.2486 -0.5392
  896MOL0     C20877   5.590   5.491   8.788  0.3016  0.4147 -0.0954
  896MOL0     C20878   5.548   5.560   8.898  0.3616 -1.3120  0.2471
  896MOL0     C20879   5.513   5.666   9.358  0.3057  0.2527  0.0226
  896MOL0     C20880   5.400   5.587   9.393 -0.4401 -0.0071 -0.1900
  896MOL0     C20881   5.324   5.623   9.501  0.0049  0.3946 -0.0946
  896MOL0     C20882   5.349   5.743   9.568  0.7331 -1.1490 -0.6726
  896MOL0     O20883   5.277   5.781   9.678 -0.5648 -0.6249 -0.0310
  896MOL0     C20884   5.135   5.796   9.658  0.4948 -0.1212  0.7739
  896MOL0     C20885   5.055   5.753   9.784 -0.1710 -0.9700 -0.2301
  896MOL0     C20886   5.070   5.600   9.835 -0.4519  0.2204  0.1281
  896MOL0     C20887   5.205   5.562   9.902  0.5011  0.5003 -0.0297
  896MOL0     C20888   5.191   5.435   9.980  0.2457 -0.1344  1.2317
  896MOL0     C20889   5.164   5.343  10.051  0.8060 -0.2018 -0.2154
  896MOL0     C20890   5.463   5.818   9.536 -0.2514  0.0050 -0.1482
  896MOL0     C20891   5.548   5.778   9.437  0.0480 -0.1224  1.0068
  896MOL0     C20892   5.658   5.874   9.394  0.5392 -0.7493  0.0575
  896MOL0     H20893   5.650   5.370   9.158  1.2403 -1.6755 -0.4081
  896MOL0     H20894   5.741   5.229   8.969  2.4009  2.1455  1.0224
  896MOL0     H20895   5.643   5.391   8.561  1.0183  1.6439 -0.0442
  896MOL0     H20896   5.812   5.413   8.597 -1.3079  0.6892 -1.2657
  896MOL0     H20897   5.671   5.157   8.481  2.6379 -4.0607 -3.3576
  896MOL0     H20898   5.833   5.158   8.535  1.0589  0.2118 -1.3104
  896MOL0     H20899   5.715   5.323   8.306 -0.1243  2.1343  0.3831
  896MOL0     H20900   5.828   5.182   8.299 -2.0560 -0.4766  0.5391
  896MOL0     H20901   5.925   5.453   8.414 -0.1560 -0.8716  0.0763
  896MOL0     H20902   6.007   5.299   8.354  1.7892  0.9105  1.6526
  896MOL0     H20903   5.810   5.442   8.178  0.0863  0.2845  0.1587
  896MOL0     H20904   5.959   5.535   8.218 -1.8600  0.6481  1.2601
  896MOL0     H20905   6.097   5.359   8.125  1.1929  2.8151 -0.2027
  896MOL0     H20906   5.948   5.270   8.072 -0.7760  1.3762 -1.0840
  896MOL0     H20907   6.079   5.393   7.896  2.4657  2.1595  1.2261
  896MOL0     H20908   6.032   5.549   7.983 -0.7389  1.4546 -2.9443
  896MOL0     H20909   5.852   5.328   7.858  2.2231 -0.7888 -0.8611
  896MOL0     H20910   5.789   5.460   7.944 -2.0261 -1.9158 -0.0924
  896MOL0     H20911   5.866   5.715   7.871  1.9574 -2.3667  2.1589
  896MOL0     H20912   5.954   5.899   7.701  0.1276  2.0335  0.1187
  896MOL0     H20913   5.930   5.864   7.528 -1.6619 -1.2906 -0.5977
  896MOL0     H20914   5.759   6.028   7.591 -1.8959 -1.2196 -0.0236
  896MOL0     H20915   5.680   5.882   7.556 -2.5400  3.1864  0.5274
  896MOL0     H20916   5.656   5.821   7.790  3.2864 -2.0438  2.2164
  896MOL0     H20917   5.590   5.988   7.764  0.0746  0.0923  0.2196
  896MOL0     H20918   5.822   6.078   7.826  2.6825 -1.9948 -0.9711
  896MOL0     H20919   5.847   5.918   7.914  0.8911  1.1666  0.7731
  896MOL0     H20920   5.859   5.948   8.165  0.1115 -1.4387 -1.8711
  896MOL0     H20921   5.807   5.811   8.354  0.6081  2.4248 -1.0699
  896MOL0     H20922   5.351   5.605   8.609  1.8134 -1.5012  4.4249
  896MOL0     H20923   5.285   5.398   8.738 -0.4752  0.4700 -0.7089
  896MOL0     H20924   5.255   5.211   8.832 -2.5632 -0.8677 -0.3355
  896MOL0     H20925   5.221   5.053   8.802  1.3109 -1.5056 -1.9113
  896MOL0     H20926   5.425   4.965   8.805  0.3626  0.3677 -1.7479
  896MOL0     H20927   5.507   5.124   8.766 -2.2949 -0.1285 -1.4864
  896MOL0     H20928   5.556   5.089   8.979 -0.8028 -1.8611  2.2484
  896MOL0     H20929   5.413   5.194   8.986  0.8348  0.0878  0.4674
  896MOL0     H20930   5.342   4.892   8.992 -0.3843  0.4111  0.5996
  896MOL0     H20931   5.301   5.030   9.101 -0.5546  0.6724 -2.4165
  896MOL0     H20932   5.536   5.017   9.193 -0.3738 -1.1291  1.1300
  896MOL0     H20933   5.543   4.863   9.107 -0.0135  1.2636 -3.4572
  896MOL0     H20934   5.348   4.970   9.323  1.5498  0.4293  0.1298
  896MOL0     H20935   5.315   4.811   9.237 -1.0422  0.2834  0.5616
  896MOL0     H20936   5.580   4.878   9.392 -1.8784  1.6627  4.8215
  896MOL0     H20937   5.529   4.728   9.325 -0.5335  1.1052 -0.8510
  896MOL0     H20938   5.412   4.877   9.569  5.0876  0.6576  0.7137
  896MOL0     H20939   5.329   4.756   9.490 -0.1070  0.1019  0.2453
  896MOL0     H20940   5.312   5.171   8.394 -0.8700  0.5407  1.1023
  896MOL0     H20941   5.381   5.359   8.252 -1.6354 -1.1882 -0.9815
  896MOL0     H20942   5.417   5.732   8.162 -0.2414  1.1807 -0.0962
  896MOL0     H20943   5.491   5.891   7.987  1.4396  6.3731  1.0246
  896MOL0     H20944   5.555   5.543   8.700 -1.5070  1.0039  0.9079
  896MOL0     H20945   5.498   5.656   8.900  1.0966 -0.9039 -0.6025
  896MOL0     H20946   5.374   5.502   9.331 -0.1385  0.4142 -0.9018
  896MOL0     H20947   5.235   5.564   9.518 -0.2507  1.3689  2.4568
  896MOL0     H20948   5.101   5.720   9.586  3.0756 -2.3477  1.7179
  896MOL0     H20949   5.111   5.898   9.627 -2.2763 -0.7775  0.4947
  896MOL0     H20950   4.948   5.770   9.764  0.1056 -0.3974 -1.3422
  896MOL0     H20951   5.077   5.821   9.867  0.2930  0.5812 -1.5746
  896MOL0     H20952   5.051   5.526   9.756  1.2307  0.2094 -0.2906
  896MOL0     H20953   4.999   5.584   9.917 -0.1306 -0.9862  0.1960
  896MOL0     H20954   5.293   5.551   9.838 -0.3999  0.4504 -1.3038
  896MOL0     H20955   5.232   5.640   9.973 -0.1052  0.1222  0.6264
  896MOL0     H20956   5.168   5.276  10.135  1.2580 -0.4798 -0.4516
  896MOL0     H20957   5.485   5.911   9.587 -0.7471  1.1376 -1.9137
  896MOL0     H20958   5.620   5.928   9.307 -0.3088 -1.6132 -0.1153
  896MOL0     H20959   5.678   5.946   9.474  1.0049 -0.5366 -0.2462
  896MOL0     H20960   5.754   5.824   9.375  0.3273 -0.9044 -0.6283
  897MOL0     O20961   9.744  10.721   7.559  0.5875 -0.7215 -0.2301
  897MOL0     C20962   9.756  10.841   7.541  0.7272  0.2502 -0.8878
  897MOL0     O20963   9.650  10.923   7.509 -0.8628 -0.1774  0.1260
  897MOL0     C20964   9.523  10.891   7.550  0.6805  0.0708  0.6294
  897MOL0     C20965   9.486  10.908   7.681  1.1396 -0.5332 -0.1296
  897MOL0     C20966   9.353  10.878   7.726  0.2175 -0.2955 -0.0976
  897MOL0     C20967   9.252  10.840   7.628  0.7537  0.0251  0.1264
  897MOL0     O20968   9.118  10.819   7.648  0.1087 -0.3360 -0.0366
  897MOL0     C20969   9.042  10.884   7.761 -0.5933 -0.7428 -0.1157
  897MOL0     C20970   8.917  10.805   7.796  0.7088  0.4959  0.1680
  897MOL0     C20971   8.935  10.692   7.899  0.1240 -0.6166  0.6808
  897MOL0     C20972   8.822  10.596   7.922  0.6680  0.0069  0.4507
  897MOL0     C20973   8.844  10.508   8.048  0.5935 -0.3094  0.4829
  897MOL0     C20974   8.948  10.396   8.025 -0.9766 -0.4851 -0.3328
  897MOL0     C20975   9.024  10.359   8.155 -0.2539  0.2862  0.1745
  897MOL0     C20976   9.154  10.289   8.116  0.8880 -0.0044 -0.2568
  897MOL0     N20977   9.129  10.168   8.040  0.0289 -0.0764  0.2600
  897MOL0     C20978   9.184  10.149   7.915  0.0804 -0.0947 -0.7623
  897MOL0     C20979   9.180  10.009   7.902 -0.5896 -0.2230  1.0229
  897MOL0     C20980   9.226   9.919   7.792 -0.5188 -0.6450 -0.4334
  897MOL0     C20981   9.365   9.863   7.822 -0.6544  0.1342 -0.0264
  897MOL0     C20982   9.360   9.753   7.930 -0.2427 -0.1004 -0.0558
  897MOL0     C20983   9.497   9.665   7.926  0.8848  0.2635  0.2324
  897MOL0     O20984   9.605   9.749   7.930 -1.1800  0.1222 -0.3043
  897MOL0     C20985   9.728   9.690   7.943  0.2586  0.3731 -0.1905
  897MOL0     C20986   9.766   9.557   7.968 -0.8741  0.6760 -0.0642
  897MOL0     C20987   9.897   9.521   7.998  0.7046  0.1889  0.3301
  897MOL0     C20988   9.997   9.620   8.004 -0.3334  0.0358 -0.3081
  897MOL0     C20989  10.139   9.588   8.056 -0.2801 -0.5511  0.1783
  897MOL0     O20990  10.161   9.459   8.092  0.0693  0.6047  0.3787
  897MOL0     C20991  10.276   9.408   8.144  0.3496  0.2429 -0.3326
  897MOL0     C20992  10.388   9.477   8.175 -0.5695 -0.0590 -0.2433
  897MOL0     C20993  10.502   9.398   8.216  0.4675 -0.3055  0.5933
  897MOL0     C20994  10.494   9.254   8.226 -0.0957  0.3014 -1.1599
  897MOL0     O20995  10.601   9.176   8.270 -0.3997  0.1550 -0.6520
  897MOL0     C20996  10.729   9.221   8.233  0.0440  0.5767  0.0821
  897MOL0     C20997  10.796   9.079   8.244  0.2100  0.6716  0.8121
  897MOL0     C20998  10.941   9.069   8.188  0.4086  0.6250 -0.1302
  897MOL0     C20999  10.966   9.096   8.032 -0.5714  0.4937 -0.5136
  897MOL0     C21000  11.108   9.053   7.994 -0.1611 -0.2598 -1.0210
  897MOL0     C21001  11.120   9.039   7.851  0.1685 -0.2031 -0.0106
  897MOL0     C21002  11.260   9.007   7.810  1.2064 -0.1033 -0.4522
  897MOL0     C21003  11.269   8.997   7.665  0.1876 -0.4476  0.0891
  897MOL0    Cl21004  11.439   8.949   7.634  0.2796 -0.0247 -0.6087
  897MOL0     C21005  10.377   9.190   8.201  0.3709  0.5296 -0.5466
  897MOL0     C21006  10.267   9.268   8.157  0.1471  0.3221  0.3432
  897MOL0     O21007  10.221   9.678   8.041  0.6818 -0.1422 -0.1369
  897MOL0     C21008   9.956   9.743   7.970  0.0777 -1.0054  0.5798
  897MOL0     C21009   9.828   9.784   7.940 -0.0345  1.3423 -0.0631
  897MOL0     N21010   9.127   9.947   8.010  1.3767  0.3322  0.5468
  897MOL0     N21011   9.096  10.043   8.093  0.5085  0.0063  0.5373
  897MOL0     C21012   9.308  10.814   7.496  0.6048  0.1801 -0.2210
  897MOL0     C21013   9.444  10.833   7.462 -0.7916  0.1659  0.0090
  897MOL0     C21014   9.892  10.905   7.549  0.5144  0.3873  0.2504
  897MOL0     C21015   9.899  11.045   7.552  0.6046  0.3453 -0.1034
  897MOL0     C21016  10.021  11.111   7.554  0.0060  0.0067  0.5085
  897MOL0     C21017  10.145  11.043   7.558  0.0014  0.4841 -0.0685
  897MOL0     O21018  10.272  11.089   7.564  0.2126  0.0793 -0.3998
  897MOL0     C21019  10.299  11.223   7.538 -0.1355 -0.0043 -0.2155
  897MOL0     C21020  10.428  11.217   7.455  0.0511  0.0525  1.1943
  897MOL0     C21021  10.471  11.359   7.414  0.3929 -0.3735  0.1075
  897MOL0     C21022  10.615  11.364   7.369 -0.1389  0.3184  0.9864
  897MOL0     C21023  10.631  11.269   7.261 -0.0435 -0.5452 -0.2543
  897MOL0     C21024  10.654  11.189   7.173  0.6068 -0.3485  0.3782
  897MOL0     C21025  10.135  10.903   7.566  0.2403  1.1387  0.5442
  897MOL0     C21026  10.016  10.834   7.558 -0.3220 -0.1821 -0.8444
  897MOL0     C21027  10.015  10.685   7.548  0.5278  0.2244  0.1213
  897MOL0     H21028   9.548  10.965   7.749 -2.2718  1.8528  1.2715
  897MOL0     H21029   9.317  10.909   7.824 -0.4287 -2.5512  0.4403
  897MOL0     H21030   9.105  10.898   7.850  1.0042 -0.1668 -1.2881
  897MOL0     H21031   9.013  10.982   7.722  2.6436  1.5996  2.6894
  897MOL0     H21032   8.876  10.754   7.707  0.4706 -1.3686  1.2878
  897MOL0     H21033   8.833  10.868   7.826  2.5054  3.2851 -0.3464
  897MOL0     H21034   8.972  10.736   7.993  0.9965  1.4020 -0.5477
  897MOL0     H21035   9.021  10.632   7.866  0.4446 -0.3918  1.0926
  897MOL0     H21036   8.733  10.654   7.950  0.2637  0.2083 -1.1826
  897MOL0     H21037   8.801  10.523   7.843 -1.0448 -0.1526  0.9980
  897MOL0     H21038   8.868  10.569   8.136  0.3670  2.5640 -1.3262
  897MOL0     H21039   8.747  10.460   8.067  0.7415 -0.9554 -0.3669
  897MOL0     H21040   8.899  10.302   7.998 -1.8328  0.1551 -1.0390
  897MOL0     H21041   9.012  10.430   7.943  1.4869 -0.1486  1.5781
  897MOL0     H21042   8.972  10.288   8.221  1.3514  0.3951  1.6183
  897MOL0     H21043   9.040  10.454   8.207 -0.3158  1.0011 -1.0827
  897MOL0     H21044   9.212  10.351   8.047  1.9346 -2.8965 -2.1724
  897MOL0     H21045   9.208  10.264   8.208  1.7135 -0.8922 -0.9581
  897MOL0     H21046   9.221  10.226   7.849  2.8568 -1.0074 -0.3734
  897MOL0     H21047   9.153   9.844   7.759 -2.8187  1.9891 -1.7827
  897MOL0     H21048   9.242   9.981   7.704 -1.1252 -2.8661 -2.2248
  897MOL0     H21049   9.419   9.815   7.739  1.8774  1.5304  0.7282
  897MOL0     H21050   9.429   9.948   7.847 -0.2705  0.2491 -1.3420
  897MOL0     H21051   9.275   9.684   7.919 -1.6907  1.3454  1.5620
  897MOL0     H21052   9.350   9.802   8.027  1.9729  0.0585  0.1376
  897MOL0     H21053   9.499   9.603   7.836 -2.3140  1.8628 -1.1009
  897MOL0     H21054   9.497   9.597   8.011  2.0736 -0.6413 -0.4596
  897MOL0     H21055   9.698   9.474   7.985  0.1000 -0.0477  0.3997
  897MOL0     H21056   9.916   9.416   8.018  0.3420 -0.1354 -0.9365
  897MOL0     H21057  10.395   9.582   8.147 -3.8334 -0.0107 -1.2597
  897MOL0     H21058  10.590   9.449   8.252 -0.2579  3.2917 -2.1334
  897MOL0     H21059  10.739   9.268   8.134 -0.0871  0.1389 -0.1461
  897MOL0     H21060  10.761   9.290   8.312 -2.0851  0.4261  1.1317
  897MOL0     H21061  10.789   9.043   8.347 -4.5094  0.5592  0.6584
  897MOL0     H21062  10.739   9.017   8.174 -0.2360 -0.9581  2.5599
  897MOL0     H21063  10.996   9.149   8.239 -0.2828 -0.1533  1.9362
  897MOL0     H21064  10.977   8.970   8.218 -2.4265 -0.1198  1.2017
  897MOL0     H21065  10.955   9.202   8.006  0.3725  0.6444 -0.3097
  897MOL0     H21066  10.904   9.032   7.969  0.8099 -2.2577  0.7637
  897MOL0     H21067  11.136   8.964   8.050 -3.1429 -1.5800 -1.4311
  897MOL0     H21068  11.180   9.130   8.023 -1.7863  0.7357  0.5977
  897MOL0     H21069  11.045   8.970   7.810 -0.8256 -0.1157  1.5579
  897MOL0     H21070  11.090   9.129   7.798  2.9235  0.6215 -0.3107
  897MOL0     H21071  11.286   8.913   7.860 -2.7418 -0.1100  2.0796
  897MOL0     H21072  11.321   9.091   7.844 -0.7953  1.1220  0.2811
  897MOL0     H21073  11.193   8.925   7.634  0.0349 -0.2657  0.0370
  897MOL0     H21074  11.259   9.096   7.621 -0.0329 -0.5670 -0.1287
  897MOL0     H21075  10.371   9.084   8.225 -3.8303  0.9253  0.9127
  897MOL0     H21076  10.169   9.229   8.131  0.0828  1.3568 -1.1335
  897MOL0     H21077  10.022   9.829   7.980 -2.3272  1.1422 -0.9422
  897MOL0     H21078   9.806   9.887   7.915  2.7304  2.2194  0.7422
  897MOL0     H21079   9.239  10.787   7.416  0.4890 -2.0022  0.5594
  897MOL0     H21080   9.496  10.818   7.368 -3.8376  0.1201 -1.8192
  897MOL0     H21081   9.804  11.096   7.562 -0.9944 -2.4712  0.2098
  897MOL0     H21082  10.020  11.219   7.565  0.5938 -0.0026  0.7150
  897MOL0     H21083  10.303  11.286   7.627  1.8344  0.7470 -0.7956
  897MOL0     H21084  10.218  11.273   7.484  0.8064  0.4293 -1.2584
  897MOL0     H21085  10.420  11.140   7.378  0.8618  0.0521  1.1029
  897MOL0     H21086  10.507  11.171   7.515  1.2247 -1.4576 -1.3037
  897MOL0     H21087  10.475  11.406   7.513 -0.0949 -2.0160  0.9506
  897MOL0     H21088  10.394  11.405   7.351  0.5307  0.2064  0.3543
  897MOL0     H21089  10.636  11.468   7.341  1.0668 -0.5550 -1.6466
  897MOL0     H21090  10.693  11.341   7.442  1.4152 -1.3600 -1.0878
  897MOL0     H21091  10.664  11.140   7.078 -0.1823 -0.6350  0.4356
  897MOL0     H21092  10.228  10.849   7.578 -0.4229  0.4556  3.3308
  897MOL0     H21093   9.968  10.653   7.454 -2.0337  2.9223  0.3390
  897MOL0     H21094  10.115  10.641   7.546  1.0938  1.4493  0.5135
  897MOL0     H21095   9.963  10.644   7.635  1.2124  0.7950  0.8107
  898MOL0     O21096   7.077   5.315   3.085  0.6651 -0.0304  0.1805
  898MOL0     C21097   7.048   5.439   3.114  0.3979  0.1863  0.7118
  898MOL0     O21098   6.999   5.479   3.238  0.3944 -0.0176 -0.2574
  898MOL0     C21099   6.945   5.393   3.342 -0.5176 -0.5481  1.0627
  898MOL0     C21100   6.894   5.265   3.326  0.4840  0.6634 -0.1966
  898MOL0     C21101   6.838   5.198   3.439 -0.6616 -0.3928 -0.6979
  898MOL0     C21102   6.833   5.258   3.566  0.4716  0.4915 -0.1468
  898MOL0     O21103   6.778   5.175   3.664  0.7366  0.3958  0.8459
  898MOL0     C21104   6.831   5.202   3.794 -0.5793 -0.1225  0.3545
  898MOL0     C21105   6.758   5.122   3.899  0.2969 -0.3787  0.7012
  898MOL0     C21106   6.810   5.145   4.037  0.6423  0.2874  0.7590
  898MOL0     C21107   6.730   5.072   4.148 -0.4205 -0.2091 -0.1211
  898MOL0     C21108   6.795   4.932   4.174  0.0544  0.0054 -0.6706
  898MOL0     C21109   6.719   4.815   4.245  0.4860  0.6550  0.2847
  898MOL0     C21110   6.664   4.866   4.384 -1.0837 -0.4163  0.2715
  898MOL0     C21111   6.551   4.778   4.434  0.2576  0.3396 -0.3429
  898MOL0     N21112   6.496   4.835   4.560  1.2025 -0.3954 -0.6489
  898MOL0     C21113   6.440   4.952   4.594  0.2212 -0.2549  0.0275
  898MOL0     C21114   6.390   4.923   4.717  0.2883  0.1592 -0.1630
  898MOL0     C21115   6.301   5.006   4.806  0.2853 -0.2469  0.6285
  898MOL0     C21116   6.396   5.075   4.910 -0.3010  0.6051  0.0445
  898MOL0     C21117   6.509   5.171   4.863  0.2760 -0.1529 -0.1954
  898MOL0     C21118   6.467   5.298   4.807  0.3064 -0.8997  0.1385
  898MOL0     O21119   6.578   5.353   4.731 -0.6926  0.0283 -0.7038
  898MOL0     C21120   6.664   5.440   4.780 -0.1442  0.2964  0.8090
  898MOL0     C21121   6.685   5.478   4.916 -0.2772  0.1770  0.1663
  898MOL0     C21122   6.793   5.555   4.962 -0.0793  0.5253  0.8076
  898MOL0     C21123   6.879   5.610   4.865  0.2923  0.9570 -0.4987
  898MOL0     C21124   6.989   5.704   4.906  0.0303 -0.2987  0.5515
  898MOL0     O21125   7.002   5.722   5.036 -0.2872 -0.1199  0.2942
  898MOL0     C21126   7.105   5.791   5.081 -0.1092  0.2071  0.2139
  898MOL0     C21127   7.245   5.746   5.069 -0.1348 -0.1561  0.1023
  898MOL0     C21128   7.349   5.824   5.135 -0.2101  0.2224  0.8813
  898MOL0     C21129   7.314   5.930   5.215 -0.8697  0.3218  0.0119
  898MOL0     O21130   7.413   6.003   5.279 -0.1103 -0.5841  0.2110
  898MOL0     C21131   7.553   5.977   5.249  0.3016  0.3762 -0.8776
  898MOL0     C21132   7.669   6.061   5.319 -0.5687  0.8873  0.3714
  898MOL0     C21133   7.653   6.211   5.300 -0.0217 -0.7540 -0.0890
  898MOL0     C21134   7.576   6.285   5.399 -0.2845 -1.0031  0.2882
  898MOL0     C21135   7.646   6.302   5.539  0.8714 -0.2395  0.7476
  898MOL0     C21136   7.594   6.427   5.616  0.0212  0.6924 -1.0222
  898MOL0     C21137   7.466   6.383   5.704  0.2992  0.8148 -0.3916
  898MOL0     C21138   7.434   6.484   5.810  0.8705  0.3414 -0.7720
  898MOL0    Cl21139   7.557   6.451   5.948 -0.3274  0.0483 -0.1302
  898MOL0     C21140   7.182   5.962   5.233  0.1260  0.3054  0.2631
  898MOL0     C21141   7.079   5.895   5.168 -0.8312 -0.1120  0.5492
  898MOL0     O21142   7.049   5.766   4.824 -0.3188  0.1150  0.2040
  898MOL0     C21143   6.862   5.568   4.735  0.3940 -0.4422  0.2180
  898MOL0     C21144   6.765   5.469   4.689  0.5625 -0.2466 -0.3475
  898MOL0     N21145   6.420   4.801   4.757  0.8340  0.0445  0.8817
  898MOL0     N21146   6.500   4.748   4.668  0.9725 -0.5543  0.0373
  898MOL0     C21147   6.883   5.392   3.579  0.4077  0.1965  0.4980
  898MOL0     C21148   6.924   5.454   3.462 -0.1336  0.0377 -0.0133
  898MOL0     C21149   7.102   5.546   3.027 -0.0736 -0.4640 -1.5477
  898MOL0     C21150   7.221   5.619   3.067  0.4181  0.0922 -0.2268
  898MOL0     C21151   7.272   5.725   2.993  0.0430 -0.0903 -0.5191
  898MOL0     C21152   7.209   5.757   2.871  0.2032  0.0011  0.7986
  898MOL0     O21153   7.275   5.837   2.784 -0.2721 -0.8374 -0.5508
  898MOL0     C21154   7.250   5.823   2.640 -0.2319 -0.0781 -0.4603
  898MOL0     C21155   7.348   5.901   2.547  0.2280  0.5859  0.5504
  898MOL0     C21156   7.408   5.822   2.434 -0.3608 -0.6802 -0.0174
  898MOL0     C21157   7.506   5.910   2.358 -0.5228 -0.5295 -0.7399
  898MOL0     C21158   7.641   5.906   2.407  0.8004  1.2256  0.0929
  898MOL0     C21159   7.750   5.886   2.460  0.6086  0.7484  0.9773
  898MOL0     C21160   7.095   5.685   2.837 -0.1866 -0.9269  0.7846
  898MOL0     C21161   7.034   5.590   2.917  0.0477 -0.1887  0.0267
  898MOL0     C21162   6.898   5.537   2.878  1.0901 -0.0757  0.1398
  898MOL0     H21163   6.903   5.216   3.229  0.3522 -1.3656  0.7666
  898MOL0     H21164   6.807   5.096   3.419 -0.1384 -0.2691 -2.2703
  898MOL0     H21165   6.936   5.173   3.790 -0.9347 -1.3273 -0.8416
  898MOL0     H21166   6.830   5.305   3.833 -2.0919  0.4199 -0.9931
  898MOL0     H21167   6.756   5.014   3.883  0.3951 -0.4684  1.2738
  898MOL0     H21168   6.658   5.166   3.900  0.8761  0.9999  2.0218
  898MOL0     H21169   6.786   5.251   4.049 -0.2609  0.5819 -2.6444
  898MOL0     H21170   6.918   5.127   4.045  0.7226  0.0398 -0.6778
  898MOL0     H21171   6.724   5.133   4.238 -0.6581  1.2492 -1.1020
  898MOL0     H21172   6.633   5.059   4.100 -0.1512  0.4928 -0.8718
  898MOL0     H21173   6.822   4.880   4.081 -2.0952  1.1277 -2.0111
  898MOL0     H21174   6.884   4.959   4.232 -1.6829  2.4292  1.0545
  898MOL0     H21175   6.642   4.774   4.179  1.0874 -0.1315  0.0534
  898MOL0     H21176   6.795   4.740   4.271  1.3816  1.7935  1.0347
  898MOL0     H21177   6.645   4.974   4.390 -0.5206 -0.3134  0.2570
  898MOL0     H21178   6.743   4.857   4.459 -0.6925  3.1325  0.4633
  898MOL0     H21179   6.475   4.794   4.357 -0.4600 -2.3610 -0.3202
  898MOL0     H21180   6.580   4.673   4.446 -1.4002 -0.5450 -3.0901
  898MOL0     H21181   6.431   5.045   4.540  1.9486 -0.4023 -0.5847
  898MOL0     H21182   6.260   5.078   4.735 -0.0884  1.4152  2.4511
  898MOL0     H21183   6.222   4.950   4.858 -0.1558 -2.8561 -2.4935
  898MOL0     H21184   6.343   5.135   4.983 -3.7475 -2.8889  0.7326
  898MOL0     H21185   6.450   4.996   4.964  0.7882  0.8278 -0.6649
  898MOL0     H21186   6.561   5.117   4.782 -1.1365  2.0373 -2.7170
  898MOL0     H21187   6.586   5.192   4.937  2.0214 -0.2873 -1.8806
  898MOL0     H21188   6.440   5.363   4.890 -1.5716 -1.0980 -0.2781
  898MOL0     H21189   6.377   5.288   4.745  0.6234  2.7992 -1.1997
  898MOL0     H21190   6.625   5.448   5.001 -0.7770  3.2846  1.0346
  898MOL0     H21191   6.791   5.593   5.063  0.3966  4.1026 -0.3881
  898MOL0     H21192   7.266   5.655   5.014 -0.4015 -1.9589  2.8376
  898MOL0     H21193   7.449   5.786   5.118  0.3454  0.0357  4.0523
  898MOL0     H21194   7.569   5.875   5.285 -3.5773 -0.2065 -0.4640
  898MOL0     H21195   7.582   5.989   5.144  0.7555  0.9372 -0.6968
  898MOL0     H21196   7.678   6.031   5.424 -0.5478  0.1926  0.1761
  898MOL0     H21197   7.759   6.030   5.265  1.3327  3.5378  1.7773
  898MOL0     H21198   7.753   6.252   5.283 -1.8588  2.7930 -4.5419
  898MOL0     H21199   7.601   6.222   5.204 -0.2581 -1.6894 -0.0825
  898MOL0     H21200   7.483   6.229   5.414  1.7772 -4.0758  2.9774
  898MOL0     H21201   7.536   6.383   5.371  2.0912  0.8017  2.6078
  898MOL0     H21202   7.751   6.330   5.528  0.2096  2.7691  1.2747
  898MOL0     H21203   7.638   6.205   5.590  0.6770 -0.8340 -0.3765
  898MOL0     H21204   7.672   6.472   5.678  3.1090 -1.7389 -2.7818
  898MOL0     H21205   7.577   6.506   5.543  0.5449  1.9150  0.1437
  898MOL0     H21206   7.488   6.287   5.753 -4.2492 -1.1450 -1.5813
  898MOL0     H21207   7.383   6.357   5.637 -1.0029  0.9206  1.1069
  898MOL0     H21208   7.417   6.587   5.779  2.2761  0.3351 -1.5967
  898MOL0     H21209   7.335   6.451   5.845  0.1738  1.0944 -1.9535
  898MOL0     H21210   7.161   6.048   5.295  0.0534  0.8288 -0.4750
  898MOL0     H21211   6.983   5.898   5.218 -0.7485 -5.8263  1.6756
  898MOL0     H21212   6.922   5.612   4.656 -0.9499 -0.1277 -0.6740
  898MOL0     H21213   6.772   5.446   4.584  2.2322  2.0982 -0.8279
  898MOL0     H21214   6.869   5.440   3.676  0.1755 -2.5601  1.9312
  898MOL0     H21215   6.949   5.559   3.472 -0.3418  0.4351 -2.7673
  898MOL0     H21216   7.266   5.580   3.158 -2.2546 -2.1482  0.2563
  898MOL0     H21217   7.353   5.788   3.029 -0.7713  0.2197  0.8651
  898MOL0     H21218   7.150   5.862   2.619  0.2800  0.9253 -1.1848
  898MOL0     H21219   7.271   5.717   2.624  4.0400 -0.0629  3.0594
  898MOL0     H21220   7.424   5.965   2.594 -0.7044  2.6487 -0.5871
  898MOL0     H21221   7.280   5.980   2.512 -0.9516 -0.2250  0.9375
  898MOL0     H21222   7.322   5.796   2.372 -2.1814  3.0772  0.6560
  898MOL0     H21223   7.451   5.729   2.473 -3.5438 -1.7176  1.3552
  898MOL0     H21224   7.503   5.863   2.260 -2.3882 -3.8355  0.7550
  898MOL0     H21225   7.460   6.008   2.341 -1.8902 -0.9555  0.2988
  898MOL0     H21226   7.839   5.849   2.506  0.4938 -2.6823 -1.1671
  898MOL0     H21227   7.037   5.714   2.749 -2.0017 -0.9520  1.9056
  898MOL0     H21228   6.916   5.506   2.775 -0.9998 -3.1415  0.5599
  898MOL0     H21229   6.853   5.458   2.939 -1.8957 -1.1689 -3.1637
  898MOL0     H21230   6.818   5.611   2.870 -0.3683 -1.1487  3.1561
  899MOL0     O21231   5.682   0.926  10.233  0.1571 -0.8926 -0.1610
  899MOL0     C21232   5.752   0.828  10.236  0.8461  0.4366 -0.6145
  899MOL0     O21233   5.707   0.692  10.240 -0.0508 -0.1737 -0.4248
  899MOL0     C21234   5.571   0.663  10.239  0.4616 -0.0813  0.7878
  899MOL0     C21235   5.465   0.731  10.180 -0.0612  0.3886  0.2486
  899MOL0     C21236   5.345   0.682  10.175  0.4680  0.1835  0.0357
  899MOL0     C21237   5.305   0.558  10.221  0.4855 -0.2114 -0.0992
  899MOL0     O21238   5.180   0.492  10.205  0.7090  0.4408  0.0150
  899MOL0     C21239   5.076   0.544  10.122  0.6114  0.1994  0.9371
  899MOL0     C21240   5.121   0.507   9.973  0.0321 -0.3404 -0.0245
  899MOL0     C21241   5.036   0.567   9.849 -0.6863  0.1382  0.0955
  899MOL0     C21242   5.033   0.491   9.716  0.0066  0.2863  0.3004
  899MOL0     C21243   5.156   0.533   9.639 -0.4927 -0.0921  0.4752
  899MOL0     C21244   5.174   0.443   9.515 -0.2295 -0.0301 -0.4860
  899MOL0     C21245   5.250   0.312   9.540  0.6011 -0.4623 -0.2105
  899MOL0     C21246   5.264   0.225   9.414 -0.2051  1.0815  0.8044
  899MOL0     N21247   5.383   0.267   9.326  0.1548  0.3105 -0.7696
  899MOL0     C21248   5.387   0.389   9.269 -0.7811 -0.6616  0.4564
  899MOL0     C21249   5.502   0.388   9.204 -0.7247 -0.2426  0.5354
  899MOL0     C21250   5.559   0.491   9.110  0.5172  0.2013  0.2347
  899MOL0     C21251   5.712   0.520   9.113  0.6423 -0.1743  0.3235
  899MOL0     C21252   5.760   0.626   9.210  1.5330  0.6821 -0.1718
  899MOL0     C21253   5.732   0.591   9.351 -0.0768  0.7924 -0.0974
  899MOL0     O21254   5.591   0.605   9.379  0.0656 -0.4563 -0.2011
  899MOL0     C21255   5.553   0.693   9.481  0.2420  0.3634 -1.3776
  899MOL0     C21256   5.494   0.645   9.604 -0.7187  0.2041  0.6826
  899MOL0     C21257   5.456   0.728   9.706  0.2888 -0.0555 -0.7942
  899MOL0     C21258   5.474   0.866   9.696  0.4071 -0.8884 -1.1893
  899MOL0     C21259   5.452   0.965   9.808 -0.2038 -0.7797  0.9672
  899MOL0     O21260   5.390   0.916   9.919 -0.0752 -0.0700  1.1264
  899MOL0     C21261   5.361   1.001  10.015 -0.2902 -0.1225  0.1844
  899MOL0     C21262   5.240   0.994  10.077  0.5085  0.6984  0.5076
  899MOL0     C21263   5.205   1.074  10.186  0.0404 -0.5061  0.4002
  899MOL0     C21264   5.297   1.165  10.246  0.2183  0.4734  0.4009
  899MOL0     O21265   5.264   1.248  10.355 -0.1021  0.0223  1.1728
  899MOL0     C21266   5.125   1.279  10.365  1.1159  0.9097  0.9031
  899MOL0     C21267   5.115   1.396  10.462 -0.1171  0.0983 -0.2684
  899MOL0     C21268   4.978   1.424  10.516 -0.9406 -0.0468 -0.7485
  899MOL0     C21269   5.006   1.522  10.630  0.1157 -0.1515 -0.2746
  899MOL0     C21270   4.875   1.561  10.701  0.4163  0.2915 -0.1614
  899MOL0     C21271   4.899   1.590  10.844  0.2952 -0.3005 -0.2754
  899MOL0     C21272   4.956   1.740  10.853 -0.0174 -0.3355  0.2943
  899MOL0     C21273   4.902   1.811  10.981  0.1159  0.1916  0.4274
  899MOL0    Cl21274   4.728   1.826  10.982 -0.4897  0.2949  0.0169
  899MOL0     C21275   5.422   1.167  10.189 -0.0270 -1.0198 -0.6264
  899MOL0     C21276   5.452   1.084  10.081  0.0467 -0.1439  0.7922
  899MOL0     O21277   5.496   1.080   9.787  0.4105  0.1343 -0.6612
  899MOL0     C21278   5.529   0.913   9.584 -0.3152  0.0612  0.5098
  899MOL0     C21279   5.561   0.827   9.478 -0.7091 -0.2295  0.0756
  899MOL0     N21280   5.557   0.260   9.213 -0.5035 -0.7582  0.0778
  899MOL0     N21281   5.481   0.187   9.286 -0.0546  0.6078 -0.7191
  899MOL0     C21282   5.406   0.488  10.279  0.0051  0.4245  1.0542
  899MOL0     C21283   5.542   0.533  10.279  0.3497 -0.2189  0.2948
  899MOL0     C21284   5.895   0.829  10.263  0.5815  0.2700  0.2596
  899MOL0     C21285   5.970   0.706  10.256 -0.7527  0.0219  0.2214
  899MOL0     C21286   6.112   0.709  10.268 -0.7960  0.5291  0.0843
  899MOL0     C21287   6.187   0.812  10.320 -0.0949  0.7960 -0.1704
  899MOL0     O21288   6.326   0.803  10.346 -0.5683  0.5945  0.0112
  899MOL0     C21289   6.395   0.679  10.334 -0.1380 -0.2893  0.7543
  899MOL0     C21290   6.541   0.703  10.366  0.3539 -0.4839  0.0184
  899MOL0     C21291   6.617   0.575  10.322 -0.0941  0.2250  0.3431
  899MOL0     C21292   6.763   0.621  10.321 -0.6159 -0.1281 -0.4854
  899MOL0     C21293   6.845   0.499  10.313  0.7526  0.2138 -0.8317
  899MOL0     C21294   6.907   0.398  10.325  0.1561 -0.0911  0.3436
  899MOL0     C21295   6.115   0.929  10.331  0.3907 -0.0562  0.0125
  899MOL0     C21296   5.978   0.942  10.299 -0.3177  0.2597 -0.1120
  899MOL0     C21297   5.919   1.078  10.299  0.0002 -0.1967  0.3202
  899MOL0     H21298   5.481   0.834  10.149  0.7170  0.4807  0.9119
  899MOL0     H21299   5.265   0.748  10.140  0.0007  1.1719  2.7602
  899MOL0     H21300   4.981   0.495  10.144  1.5863 -1.7583  0.9917
  899MOL0     H21301   5.068   0.653  10.128 -1.4302  0.0896  0.8694
  899MOL0     H21302   5.128   0.398   9.961 -0.1271 -0.1000 -3.0174
  899MOL0     H21303   5.215   0.562   9.965  0.1675 -0.4480  0.7496
  899MOL0     H21304   5.082   0.666   9.837 -2.9360  1.0895 -1.2301
  899MOL0     H21305   4.931   0.576   9.877 -0.3138  0.6446  1.3986
  899MOL0     H21306   5.008   0.386   9.734  0.3300  0.2792  0.7200
  899MOL0     H21307   4.948   0.526   9.657 -0.7011  0.0022  1.1435
  899MOL0     H21308   5.145   0.633   9.597  3.3888  0.0295 -0.7240
  899MOL0     H21309   5.238   0.526   9.711 -0.8862 -1.2787  0.8374
  899MOL0     H21310   5.075   0.424   9.471  0.3394 -1.1596 -1.3091
  899MOL0     H21311   5.216   0.510   9.439 -2.7891  2.5991  0.2007
  899MOL0     H21312   5.193   0.253   9.612 -1.8839  2.0110  0.0337
  899MOL0     H21313   5.345   0.335   9.589 -0.1797 -0.5323  1.4036
  899MOL0     H21314   5.287   0.123   9.445 -5.1456 -0.8256 -0.7956
  899MOL0     H21315   5.172   0.213   9.356  0.2575  2.0511 -0.1803
  899MOL0     H21316   5.315   0.470   9.270 -0.4589 -0.3585 -0.0882
  899MOL0     H21317   5.545   0.464   9.005  3.1346 -1.0973  0.1344
  899MOL0     H21318   5.507   0.584   9.133  1.1583  0.7909 -0.6307
  899MOL0     H21319   5.764   0.424   9.121  2.2024  0.6944  1.0990
  899MOL0     H21320   5.730   0.559   9.012  1.3127  2.7005  1.4512
  899MOL0     H21321   5.709   0.722   9.197 -0.2904 -0.0809  0.9538
  899MOL0     H21322   5.868   0.643   9.197  2.1318 -1.3591  1.4927
  899MOL0     H21323   5.782   0.654   9.425 -0.3594  0.2938  0.5297
  899MOL0     H21324   5.760   0.488   9.375  0.9519 -0.4172 -5.3116
  899MOL0     H21325   5.473   0.539   9.613 -3.0442  0.7117  2.4042
  899MOL0     H21326   5.408   0.691   9.796  1.9727 -0.4750 -0.0354
  899MOL0     H21327   5.155   0.941  10.035 -2.0279  2.2428  3.3286
  899MOL0     H21328   5.102   1.065  10.221 -1.4733  3.2342 -2.4255
  899MOL0     H21329   5.079   1.307  10.270 -1.3615 -2.0719  1.1067
  899MOL0     H21330   5.080   1.193  10.415  0.4441  0.9648  0.3998
  899MOL0     H21331   5.188   1.376  10.542  0.7194 -1.6703 -1.4169
  899MOL0     H21332   5.165   1.476  10.407 -0.1095 -0.5713 -1.2500
  899MOL0     H21333   4.927   1.479  10.437 -0.0992 -0.4881 -1.6096
  899MOL0     H21334   4.926   1.333  10.548 -0.1530 -0.0640  0.5618
  899MOL0     H21335   5.067   1.606  10.596  2.0511 -0.8104  1.3341
  899MOL0     H21336   5.077   1.467  10.693 -1.0391 -0.7784  0.5164
  899MOL0     H21337   4.802   1.480  10.693 -1.0042  1.1440  2.8103
  899MOL0     H21338   4.818   1.648  10.665  1.2523  0.6706 -0.5964
  899MOL0     H21339   4.803   1.577  10.895  2.1428 -3.0650  2.9459
  899MOL0     H21340   4.971   1.524  10.893 -0.0010  0.6313  1.4994
  899MOL0     H21341   4.922   1.805  10.772 -1.4252  1.0447  1.9107
  899MOL0     H21342   5.065   1.736  10.847 -0.0807 -0.9012 -0.6819
  899MOL0     H21343   4.950   1.776  11.074  0.8917 -0.2402 -0.1233
  899MOL0     H21344   4.942   1.913  10.982 -5.2983  2.6480  2.0174
  899MOL0     H21345   5.507   1.228  10.219  0.2628 -1.2747 -0.9247
  899MOL0     H21346   5.553   1.091  10.042  0.6146  0.3207  2.2893
  899MOL0     H21347   5.521   1.018   9.560  1.4206 -0.1508 -1.2889
  899MOL0     H21348   5.593   0.875   9.386 -1.9835  0.8424  0.1638
  899MOL0     H21349   5.398   0.390  10.324 -2.5260  2.0835  4.6659
  899MOL0     H21350   5.620   0.475  10.328 -1.5598 -0.7999  2.8666
  899MOL0     H21351   5.926   0.608  10.245 -2.4768  0.4844  2.3063
  899MOL0     H21352   6.166   0.616  10.255  0.5040  1.1658  0.7122
  899MOL0     H21353   6.387   0.640  10.232 -0.3569 -0.0203  0.6645
  899MOL0     H21354   6.347   0.608  10.401  0.6943 -1.5593  0.0364
  899MOL0     H21355   6.563   0.740  10.467 -0.9038  2.1063 -0.5558
  899MOL0     H21356   6.567   0.785  10.298 -0.0350 -1.6363 -1.5649
  899MOL0     H21357   6.592   0.542  10.220  0.9024  1.7376 -0.4251
  899MOL0     H21358   6.586   0.491  10.386 -1.1903 -0.2466 -0.7621
  899MOL0     H21359   6.779   0.670  10.224  2.6955 -1.9058 -1.0198
  899MOL0     H21360   6.777   0.666  10.419 -0.9009 -1.1754  0.0480
  899MOL0     H21361   6.959   0.305  10.334  4.4796  2.3002  3.8497
  899MOL0     H21362   6.171   1.020  10.352 -1.3110  0.7578  1.2692
  899MOL0     H21363   5.879   1.090  10.197 -1.8303 -4.2037  0.3764
  899MOL0     H21364   5.845   1.095  10.378 -0.0408  1.1889  0.0067
  899MOL0     H21365   5.999   1.151  10.311  1.9942 -2.2664  0.2283
  900MOL0     O21366   1.683   2.176   8.687 -0.6067  0.3391 -0.7210
  900MOL0     C21367   1.611   2.071   8.693 -0.1552 -0.5171  0.0684
  900MOL0     O21368   1.483   2.067   8.745  0.4412  0.4233 -0.5459
  900MOL0     C21369   1.421   2.192   8.778  0.7091  1.2738  0.0692
  900MOL0     C21370   1.383   2.226   8.903  0.4969 -0.2954  0.0272
  900MOL0     C21371   1.322   2.346   8.928  0.1706  0.5249  0.6960
  900MOL0     C21372   1.286   2.434   8.823 -0.0205 -0.5866 -0.6548
  900MOL0     O21373   1.223   2.552   8.852 -0.0168  0.4389 -0.3785
  900MOL0     C21374   1.086   2.541   8.892  0.7254 -0.2404 -0.7161
  900MOL0     C21375   1.055   2.657   8.987  0.3628  0.8025 -0.1433
  900MOL0     C21376   1.124   2.645   9.122 -0.7235  0.5250  0.2624
  900MOL0     C21377   1.041   2.719   9.225  0.0054 -0.3313 -0.4895
  900MOL0     C21378   1.126   2.733   9.361  0.2045  0.1305 -0.0564
  900MOL0     C21379   1.184   2.865   9.396  0.6863  0.8793 -0.0908
  900MOL0     C21380   1.293   2.930   9.305  0.0791  0.1075  0.0598
  900MOL0     C21381   1.357   3.057   9.360 -0.3109 -0.6014 -0.4618
  900MOL0     N21382   1.275   3.181   9.346 -1.2099 -1.2911 -0.0732
  900MOL0     C21383   1.155   3.220   9.407  0.5778 -0.2634 -0.2349
  900MOL0     C21384   1.158   3.356   9.388  0.8783 -0.4741 -0.4526
  900MOL0     C21385   1.042   3.441   9.418 -0.3146 -0.6386  0.1391
  900MOL0     C21386   1.039   3.473   9.567  0.7723  0.1610  0.3191
  900MOL0     C21387   0.924   3.560   9.611  0.1666 -0.0883  1.2063
  900MOL0     C21388   0.910   3.569   9.760 -0.8558 -0.8260  0.0533
  900MOL0     O21389   1.016   3.639   9.840 -0.0532  0.7829  0.6562
  900MOL0     C21390   1.016   3.612   9.974 -0.3718  0.6685  0.4475
  900MOL0     C21391   1.106   3.692  10.050 -0.0099 -0.3978  0.2817
  900MOL0     C21392   1.092   3.710  10.187 -0.6555 -0.6248 -1.7856
  900MOL0     C21393   0.990   3.651  10.258  0.1183 -0.4727  0.0248
  900MOL0     C21394   0.958   3.688  10.402  0.0593  1.1392  0.4930
  900MOL0     O21395   0.842   3.633  10.447  0.1251 -1.0420  0.6394
  900MOL0     C21396   0.828   3.653  10.576 -0.0610 -0.2466 -0.1209
  900MOL0     C21397   0.741   3.744  10.624  0.3140 -0.6700 -0.4912
  900MOL0     C21398   0.703   3.744  10.754  0.3465  0.2577  0.0568
  900MOL0     C21399   0.753   3.652  10.839 -0.8690 -0.3288  0.1031
  900MOL0     O21400   0.729   3.658  10.973 -0.2481 -0.0074  0.3601
  900MOL0     C21401   0.588   3.677  11.019  0.0192  0.0907 -0.2267
  900MOL0     C21402   0.550   3.583  11.131 -0.8322 -0.7930  0.1949
  900MOL0     C21403   0.521   3.447  11.090  0.3023 -0.4973  0.2559
  900MOL0     C21404   0.469   3.370  11.213  0.0039 -0.8055  0.9483
  900MOL0     C21405   0.495   3.221  11.186  0.3178  0.7428  0.3607
  900MOL0     C21406   0.412   3.166  11.070 -0.2491  0.3560  1.1802
  900MOL0     C21407   0.466   3.023  11.033  1.2293  0.1673 -0.4367
  900MOL0     C21408   0.585   3.028  10.940  0.6489 -0.1552  0.5184
  900MOL0    Cl21409   0.642   2.869  10.894 -0.4645  0.3959  0.0751
  900MOL0     C21410   0.853   3.563  10.805  0.1037  0.2820 -0.1271
  900MOL0     C21411   0.883   3.566  10.668  0.0505  0.0310  1.7123
  900MOL0     O21412   1.032   3.760  10.467  0.5526 -0.4247 -0.3998
  900MOL0     C21413   0.904   3.568  10.182  0.5921  0.2498  0.5932
  900MOL0     C21414   0.915   3.546  10.041  0.1088 -0.0410 -0.3717
  900MOL0     N21415   1.266   3.401   9.318  0.6287  0.7954  0.3591
  900MOL0     N21416   1.336   3.294   9.297 -0.8552  0.2011  0.0490
  900MOL0     C21417   1.318   2.401   8.694 -0.4030 -0.4488  0.2928
  900MOL0     C21418   1.384   2.279   8.669 -0.0578 -0.0357 -0.0393
  900MOL0     C21419   1.686   1.943   8.666  0.0437 -0.3297 -0.0673
  900MOL0     C21420   1.644   1.834   8.744  0.1155  0.4232 -0.5416
  900MOL0     C21421   1.708   1.711   8.725  0.6173  0.5658  0.3624
  900MOL0     C21422   1.822   1.687   8.634 -0.4304 -0.3650  0.8488
  900MOL0     O21423   1.876   1.558   8.646 -0.1650  0.0380  0.3760
  900MOL0     C21424   1.980   1.530   8.550  0.5924  0.5457  0.9352
  900MOL0     C21425   2.038   1.393   8.573  0.4685 -0.0204 -0.1178
  900MOL0     C21426   2.163   1.405   8.653  0.0608 -0.7537 -0.0701
  900MOL0     C21427   2.184   1.268   8.728 -0.0972 -0.8114  0.4540
  900MOL0     C21428   2.235   1.162   8.635 -0.5388 -0.1840 -1.2707
  900MOL0     C21429   2.278   1.062   8.576  0.0277 -0.7285  0.5464
  900MOL0     C21430   1.862   1.802   8.561 -0.0219 -0.1630  0.5751
  900MOL0     C21431   1.793   1.929   8.568 -0.2694 -0.9157  0.4031
  900MOL0     C21432   1.840   2.045   8.474 -0.6303  0.4448 -0.4592
  900MOL0     H21433   1.394   2.155   8.985  1.9479  2.0418  2.0005
  900MOL0     H21434   1.294   2.369   9.030  4.4539  1.9027  1.7291
  900MOL0     H21435   1.019   2.542   8.805 -0.2591 -1.3233 -0.0022
  900MOL0     H21436   1.062   2.453   8.952 -0.9701  1.3165  1.0057
  900MOL0     H21437   0.949   2.656   9.015  0.6186  0.5345  0.8530
  900MOL0     H21438   1.100   2.750   8.952  2.1188  0.2482  0.5539
  900MOL0     H21439   1.227   2.683   9.131 -0.4303 -0.6783  2.8096
  900MOL0     H21440   1.125   2.540   9.151  0.4412  1.1074  2.6602
  900MOL0     H21441   1.021   2.820   9.189  0.8825  0.1622  0.3535
  900MOL0     H21442   0.949   2.662   9.240 -0.4118 -0.1812 -2.2826
  900MOL0     H21443   1.083   2.683   9.448 -1.2366 -4.8076 -3.1848
  900MOL0     H21444   1.214   2.669   9.344 -0.3756 -1.2343  1.7907
  900MOL0     H21445   1.100   2.934   9.412  0.5503  0.4410  1.1936
  900MOL0     H21446   1.230   2.842   9.493 -1.0346 -1.4922  0.2677
  900MOL0     H21447   1.240   2.956   9.212  0.4019  0.1229 -0.1200
  900MOL0     H21448   1.365   2.849   9.294 -0.2373 -0.6937  2.9772
  900MOL0     H21449   1.359   3.041   9.469 -0.6880  4.5085  0.5576
  900MOL0     H21450   1.461   3.055   9.325 -0.9459 -4.2149 -2.6746
  900MOL0     H21451   1.075   3.161   9.451  0.4644  0.0440 -0.0250
  900MOL0     H21452   1.064   3.538   9.372 -0.5422 -1.4913 -1.8365
  900MOL0     H21453   0.942   3.410   9.388 -1.2289  2.7557 -0.6957
  900MOL0     H21454   1.032   3.377   9.619 -1.3474 -0.0696 -0.3128
  900MOL0     H21455   1.131   3.507   9.616  0.2136  1.6190  0.4076
  900MOL0     H21456   0.846   3.504   9.559  1.2364 -1.7128  1.2653
  900MOL0     H21457   0.944   3.660   9.570 -1.5333 -0.8841 -1.9056
  900MOL0     H21458   0.899   3.466   9.796  0.9309 -0.8841  0.5517
  900MOL0     H21459   0.824   3.633   9.777  1.0801  2.2736 -1.0491
  900MOL0     H21460   1.185   3.745   9.998 -1.4547 -1.4669 -3.3611
  900MOL0     H21461   1.151   3.779  10.246 -2.1039 -0.6689 -0.2055
  900MOL0     H21462   0.693   3.821  10.564  0.0200 -0.4098  0.0662
  900MOL0     H21463   0.621   3.809  10.784  0.6887 -0.1852  2.1086
  900MOL0     H21464   0.570   3.784  11.038 -0.6292  0.4265 -2.5089
  900MOL0     H21465   0.516   3.673  10.937 -0.2469  2.8341 -0.2493
  900MOL0     H21466   0.628   3.583  11.207  2.5333 -0.9764 -2.9660
  900MOL0     H21467   0.462   3.627  11.179  0.4688  0.4047  1.5788
  900MOL0     H21468   0.438   3.448  11.018 -0.5484 -2.1408  1.1417
  900MOL0     H21469   0.617   3.415  11.049 -0.2642 -0.6590 -1.0022
  900MOL0     H21470   0.366   3.394  11.241 -0.7144  1.4488 -2.8403
  900MOL0     H21471   0.529   3.403  11.299 -1.0547 -1.6121  2.0304
  900MOL0     H21472   0.477   3.156  11.273  4.4541  0.1290  0.9746
  900MOL0     H21473   0.598   3.195  11.160 -0.5770 -2.9569 -0.0561
  900MOL0     H21474   0.306   3.155  11.095 -0.0012  0.2425  2.2057
  900MOL0     H21475   0.423   3.219  10.975 -1.6913 -2.1952 -0.5436
  900MOL0     H21476   0.386   2.959  10.997  0.2156  0.1408  1.6882
  900MOL0     H21477   0.490   2.976  11.129 -2.0871 -1.9836 -0.5043
  900MOL0     H21478   0.553   3.089  10.855  1.5582 -0.2140  0.1170
  900MOL0     H21479   0.672   3.067  10.994 -0.3525  0.3265  1.8425
  900MOL0     H21480   0.888   3.487  10.874  0.7464  0.9020  0.2461
  900MOL0     H21481   0.955   3.494  10.631 -0.6546 -1.3077  2.8330
  900MOL0     H21482   0.820   3.523  10.234  2.3030 -3.7952  0.1951
  900MOL0     H21483   0.847   3.488   9.980 -0.0995  2.2856 -2.5294
  900MOL0     H21484   1.306   2.481   8.621 -0.1251  0.4023  1.1455
  900MOL0     H21485   1.426   2.263   8.571  2.9482  2.3534  0.7190
  900MOL0     H21486   1.581   1.838   8.832  1.8123  2.3619  0.6819
  900MOL0     H21487   1.682   1.633   8.796  1.6262 -1.6175 -1.4940
  900MOL0     H21488   2.064   1.600   8.550  0.9834  0.2883 -3.0527
  900MOL0     H21489   1.930   1.525   8.453  0.1968 -2.6801  1.1942
  900MOL0     H21490   2.074   1.357   8.476  3.9879 -0.5471  1.2294
  900MOL0     H21491   1.961   1.324   8.611  0.8199 -0.9808 -1.0798
  900MOL0     H21492   2.144   1.482   8.728 -0.2444 -1.3004  0.4288
  900MOL0     H21493   2.247   1.427   8.587  0.4735 -3.6397 -0.6244
  900MOL0     H21494   2.259   1.298   8.803  0.0873  1.5896 -0.6012
  900MOL0     H21495   2.101   1.237   8.792  0.1992 -0.0226  1.2559
  900MOL0     H21496   2.310   0.972   8.528  1.2384  0.0357 -0.1296
  900MOL0     H21497   1.952   1.795   8.500 -0.9895 -2.5184 -0.6975
  900MOL0     H21498   1.759   2.113   8.443 -0.8067 -0.4214 -1.9814
  900MOL0     H21499   1.917   2.104   8.524 -0.4885  0.2754 -0.4797
  900MOL0     H21500   1.889   2.011   8.383 -1.1864  0.3788 -0.7410
  901MOL0     O21501   5.814   6.884   3.060  0.1809 -0.0452 -0.3085
  901MOL0     C21502   5.752   6.870   3.166  1.1320  0.1576  0.5427
  901MOL0     O21503   5.709   6.973   3.247 -0.1922 -0.3127  0.5531
  901MOL0     C21504   5.708   7.106   3.218 -0.1283  0.2803 -0.4337
  901MOL0     C21505   5.694   7.198   3.321 -0.9475 -0.2565  0.9628
  901MOL0     C21506   5.732   7.332   3.298  0.3168 -0.6540  0.3151
  901MOL0     C21507   5.765   7.385   3.174  0.3492 -0.2260  0.2820
  901MOL0     O21508   5.806   7.512   3.147  0.1802 -0.0343  0.4732
  901MOL0     C21509   5.872   7.584   3.254  0.6072 -0.3150  0.1876
  901MOL0     C21510   5.934   7.719   3.221  0.7586  0.0917 -0.2474
  901MOL0     C21511   6.070   7.690   3.149  0.1815 -0.4488  0.8491
  901MOL0     C21512   6.123   7.823   3.084 -0.5641  0.2568 -0.5423
  901MOL0     C21513   6.262   7.801   3.025 -0.2483  0.4847  0.5782
  901MOL0     C21514   6.336   7.933   2.980  0.2324  0.0455 -0.3568
  901MOL0     C21515   6.480   7.894   2.947 -0.1666  0.5518  0.1390
  901MOL0     C21516   6.495   7.836   2.806  0.6385 -0.2320  0.0119
  901MOL0     N21517   6.637   7.819   2.784 -0.3625  0.4809 -0.4677
  901MOL0     C21518   6.714   7.901   2.711  0.2147 -0.9991 -0.8009
  901MOL0     C21519   6.839   7.859   2.730  0.0117  0.7641 -0.2873
  901MOL0     C21520   6.981   7.922   2.686  0.7642  0.6542  0.5235
  901MOL0     C21521   7.058   7.835   2.588 -0.0913  0.0581 -0.3749
  901MOL0     C21522   7.136   7.716   2.635 -0.2552 -0.5521  0.1884
  901MOL0     C21523   7.213   7.725   2.772 -0.9126 -0.9768 -0.0364
  901MOL0     O21524   7.325   7.809   2.755 -0.4747 -0.1519  0.1096
  901MOL0     C21525   7.381   7.861   2.868 -0.4721 -0.1357 -0.0851
  901MOL0     C21526   7.464   7.973   2.854  0.4403 -0.6205 -0.1440
  901MOL0     C21527   7.541   8.021   2.965 -0.1137  0.5192 -0.2310
  901MOL0     C21528   7.529   7.960   3.094 -0.3799  0.6198  0.0337
  901MOL0     C21529   7.597   8.010   3.211  0.7455 -1.1111 -0.3884
  901MOL0     O21530   7.601   7.921   3.308  0.0264  0.1493  0.1235
  901MOL0     C21531   7.637   7.960   3.435  0.0982 -0.3443 -0.6450
  901MOL0     C21532   7.533   7.974   3.529 -0.2224  0.0261 -0.0212
  901MOL0     C21533   7.567   8.028   3.651 -0.8665 -0.4656 -0.8245
  901MOL0     C21534   7.698   8.040   3.699 -0.4476  0.6850 -0.0710
  901MOL0     O21535   7.724   8.101   3.814 -0.2989  0.0052 -0.3557
  901MOL0     C21536   7.774   8.010   3.917  0.0506 -0.6470 -0.7118
  901MOL0     C21537   7.771   8.091   4.056 -0.7469 -0.5113 -0.3540
  901MOL0     C21538   7.676   8.024   4.146  0.5404  0.5440 -0.4978
  901MOL0     C21539   7.728   7.888   4.197  0.2278  0.0085 -0.0301
  901MOL0     C21540   7.665   7.853   4.333 -0.6629 -0.4800 -0.4705
  901MOL0     C21541   7.713   7.710   4.380 -0.5703 -0.4472  0.3644
  901MOL0     C21542   7.668   7.663   4.509  0.4174  0.6309  0.5854
  901MOL0     C21543   7.521   7.644   4.525 -0.0271  0.5844 -0.0935
  901MOL0    Cl21544   7.464   7.495   4.445  0.1701 -0.3222 -0.1279
  901MOL0     C21545   7.802   8.002   3.609  0.4197 -0.0323 -0.5238
  901MOL0     C21546   7.766   7.974   3.478 -0.0022 -1.1363 -0.2936
  901MOL0     O21547   7.648   8.118   3.208 -0.8914  0.4246 -0.7841
  901MOL0     C21548   7.447   7.847   3.104 -0.1389  0.2125 -0.3557
  901MOL0     C21549   7.372   7.800   2.992 -0.0009 -0.2049 -0.8489
  901MOL0     N21550   6.837   7.745   2.817 -1.2522  0.1550 -1.1664
  901MOL0     N21551   6.712   7.726   2.855 -0.3717 -0.4325  0.3067
  901MOL0     C21552   5.759   7.293   3.068  0.7832 -0.5343 -0.6179
  901MOL0     C21553   5.728   7.159   3.090 -0.4554  0.8294  0.0596
  901MOL0     C21554   5.718   6.736   3.201 -1.2653  0.4970  0.0458
  901MOL0     C21555   5.730   6.639   3.102 -0.4200 -0.3034  0.0434
  901MOL0     C21556   5.693   6.509   3.120 -0.5014 -0.1530  0.1715
  901MOL0     C21557   5.636   6.477   3.241 -0.9158  0.1586  0.4127
  901MOL0     O21558   5.596   6.354   3.276  0.1647 -0.0426 -0.4303
  901MOL0     C21559   5.671   6.232   3.238 -0.5043 -0.4515 -0.3127
  901MOL0     C21560   5.789   6.209   3.335 -0.4732 -0.4224  0.0473
  901MOL0     C21561   5.751   6.189   3.482  0.1321 -0.5907  0.2901
  901MOL0     C21562   5.864   6.213   3.563 -0.6916 -0.0056 -0.4486
  901MOL0     C21563   5.959   6.105   3.548 -0.1465 -0.3277 -0.3424
  901MOL0     C21564   6.044   6.017   3.534  0.4677 -0.2178  0.1606
  901MOL0     C21565   5.639   6.569   3.342  0.0040  0.0063 -0.0259
  901MOL0     C21566   5.669   6.694   3.329  0.8288  0.7499 -0.1832
  901MOL0     C21567   5.645   6.787   3.442 -0.1675  0.0758 -0.6589
  901MOL0     H21568   5.672   7.174   3.424 -2.7950 -0.1953  0.6191
  901MOL0     H21569   5.740   7.399   3.384  0.8039 -0.2499 -0.0345
  901MOL0     H21570   5.801   7.600   3.336 -3.3358  0.8009 -3.1273
  901MOL0     H21571   5.942   7.515   3.304 -1.3175  0.5116  4.4851
  901MOL0     H21572   5.954   7.777   3.312  2.4124 -1.4059  0.3747
  901MOL0     H21573   5.871   7.772   3.149  0.7462  0.6450  0.1622
  901MOL0     H21574   6.053   7.619   3.068 -1.0702 -0.8408  1.4351
  901MOL0     H21575   6.140   7.646   3.222  1.4107 -0.0155 -0.0363
  901MOL0     H21576   6.055   7.873   3.014 -1.6548  1.7267  1.4255
  901MOL0     H21577   6.127   7.895   3.167 -2.0780  0.1999 -0.3800
  901MOL0     H21578   6.318   7.746   3.102  1.5138 -1.4951 -1.9406
  901MOL0     H21579   6.260   7.739   2.935  2.1263 -1.0467  1.4647
  901MOL0     H21580   6.288   7.999   2.908  0.5271  1.7317  0.9208
  901MOL0     H21581   6.338   7.986   3.076  0.3306 -0.3237 -0.1494
  901MOL0     H21582   6.532   7.826   3.015 -1.6960 -2.1469 -1.2258
  901MOL0     H21583   6.540   7.985   2.944  1.4982 -0.4903  0.6916
  901MOL0     H21584   6.436   7.744   2.804  1.0202 -0.5075  1.0399
  901MOL0     H21585   6.455   7.908   2.733  3.7128 -0.6730 -2.2840
  901MOL0     H21586   6.689   7.995   2.663 -1.1719  0.4676  2.4999
  901MOL0     H21587   6.965   8.024   2.649 -0.4234  0.8275  1.4556
  901MOL0     H21588   7.035   7.931   2.780 -1.3408 -0.2307  1.8898
  901MOL0     H21589   6.990   7.800   2.510  0.5048  3.1295 -2.4361
  901MOL0     H21590   7.121   7.903   2.530 -0.5436  0.6402 -0.1839
  901MOL0     H21591   7.206   7.688   2.556  0.8256 -1.8512  1.5490
  901MOL0     H21592   7.057   7.645   2.659 -0.5748  0.6401  3.1391
  901MOL0     H21593   7.241   7.624   2.804 -0.1372 -0.5845  0.5785
  901MOL0     H21594   7.149   7.771   2.848  1.6907  1.6508  0.7698
  901MOL0     H21595   7.466   8.019   2.755 -1.6543  1.1516  0.5610
  901MOL0     H21596   7.608   8.103   2.944  1.1496 -0.3974  0.1396
  901MOL0     H21597   7.430   7.956   3.499 -0.5826  0.1084  1.1265
  901MOL0     H21598   7.486   8.062   3.715  0.1800 -1.1412  0.9148
  901MOL0     H21599   7.716   7.917   3.921  0.2489 -0.7446  0.5433
  901MOL0     H21600   7.873   7.965   3.905  0.2973  0.0020 -1.1483
  901MOL0     H21601   7.877   8.097   4.083 -1.0138  0.0423  0.6209
  901MOL0     H21602   7.744   8.196   4.043 -2.3130 -0.5313  2.0876
  901MOL0     H21603   7.664   8.088   4.234 -0.8664  0.4265 -0.5870
  901MOL0     H21604   7.571   8.022   4.115 -0.1985  1.2030  1.7789
  901MOL0     H21605   7.837   7.886   4.211  0.2292  0.0024 -0.0416
  901MOL0     H21606   7.691   7.810   4.131  0.8083 -1.7714  1.6463
  901MOL0     H21607   7.556   7.846   4.322 -0.8795  3.0060 -1.6244
  901MOL0     H21608   7.702   7.918   4.413 -3.2727 -2.7207  2.8541
  901MOL0     H21609   7.679   7.647   4.297 -0.3605  2.1438 -1.8540
  901MOL0     H21610   7.822   7.715   4.377 -0.4887 -1.9089 -1.5546
  901MOL0     H21611   7.705   7.736   4.582 -0.0086 -0.1950  1.6623
  901MOL0     H21612   7.713   7.567   4.539 -1.0495 -0.3536 -0.2549
  901MOL0     H21613   7.505   7.642   4.634 -0.1329 -0.4410 -0.1184
  901MOL0     H21614   7.458   7.720   4.479  0.9860  2.2469  1.1359
  901MOL0     H21615   7.909   8.006   3.625  1.2197  2.0638 -5.0107
  901MOL0     H21616   7.843   7.960   3.402  2.7455  0.3662  2.0159
  901MOL0     H21617   7.441   7.783   3.191  0.7039  1.4447  0.6430
  901MOL0     H21618   7.331   7.699   2.996  0.5536 -0.4488 -1.2627
  901MOL0     H21619   5.776   7.349   2.976 -2.9832  0.2428 -0.9861
  901MOL0     H21620   5.732   7.095   3.002  0.7588 -0.2569  0.8552
  901MOL0     H21621   5.748   6.654   2.996  0.1185  2.7451  0.4613
  901MOL0     H21622   5.707   6.439   3.039 -1.5969 -0.2640  0.0644
  901MOL0     H21623   5.711   6.244   3.137 -1.0067  1.8030 -0.3047
  901MOL0     H21624   5.612   6.140   3.234  1.7382 -1.9811 -0.2187
  901MOL0     H21625   5.857   6.294   3.325  0.6568 -1.3121  0.0399
  901MOL0     H21626   5.852   6.125   3.307 -0.1962 -0.7466  1.5466
  901MOL0     H21627   5.709   6.089   3.498 -0.9630 -0.0412  0.9760
  901MOL0     H21628   5.670   6.257   3.511  0.9376  1.1566 -1.3403
  901MOL0     H21629   5.913   6.305   3.530  0.4744 -1.0279 -1.7156
  901MOL0     H21630   5.836   6.233   3.666  1.5984  0.1322  0.2016
  901MOL0     H21631   6.117   5.943   3.505  0.7711 -0.1165  0.6630
  901MOL0     H21632   5.622   6.541   3.445 -0.2796  2.5791  0.6775
  901MOL0     H21633   5.609   6.734   3.530 -1.0773  0.7147 -0.6306
  901MOL0     H21634   5.729   6.852   3.468  0.7297 -1.0528 -0.6899
  901MOL0     H21635   5.571   6.859   3.406  0.5265  1.6728  0.9701
  902MOL0     O21636   3.671  10.853   9.337  0.0917  0.1343  0.4557
  902MOL0     C21637   3.619  10.969   9.307 -0.9240  0.0969 -0.6837
  902MOL0     O21638   3.680  11.084   9.359 -0.0584  0.0480 -0.1930
  902MOL0     C21639   3.783  11.078   9.453 -0.2829 -0.6222  0.3431
  902MOL0     C21640   3.893  11.158   9.434  0.4423 -1.6090  0.5032
  902MOL0     C21641   3.999  11.156   9.533 -0.1396  0.1128  0.5057
  902MOL0     C21642   3.997  11.069   9.637 -0.2097 -0.1406 -0.6544
  902MOL0     O21643   4.094  11.068   9.729 -0.0530 -0.1339  0.8015
  902MOL0     C21644   4.227  11.056   9.688 -1.0231 -0.9160 -0.5212
  902MOL0     C21645   4.306  10.982   9.786  0.1072 -0.3503  0.0408
  902MOL0     C21646   4.454  10.977   9.745  0.2198  0.3267  0.0849
  902MOL0     C21647   4.538  11.050   9.838 -1.2249 -0.9734  0.2229
  902MOL0     C21648   4.618  10.964   9.942  0.2646 -0.1314 -0.2412
  902MOL0     C21649   4.532  10.906  10.057 -0.8168  0.6722 -0.1423
  902MOL0     C21650   4.613  10.801  10.134 -0.4990  0.7400  0.0411
  902MOL0     C21651   4.625  10.669  10.067  0.6202  1.1920 -0.6029
  902MOL0     N21652   4.491  10.603  10.053  0.7240 -0.2213  0.4054
  902MOL0     C21653   4.397  10.579  10.146  1.3948  0.0556  0.2257
  902MOL0     C21654   4.277  10.571  10.083  0.9375  0.1607  0.0870
  902MOL0     C21655   4.138  10.532  10.125 -0.4985  0.2360 -1.0242
  902MOL0     C21656   4.018  10.615  10.091  0.2338  0.1772  1.1154
  902MOL0     C21657   4.009  10.638   9.938 -0.2205 -0.1081  0.0118
  902MOL0     C21658   4.009  10.516   9.847  0.8653 -0.2213  0.7200
  902MOL0     O21659   3.939  10.554   9.725  0.6572 -0.6992  0.0139
  902MOL0     C21660   3.802  10.535   9.703 -0.1715 -0.9535  0.3660
  902MOL0     C21661   3.753  10.594   9.580 -0.2324 -1.2391 -1.0761
  902MOL0     C21662   3.616  10.589   9.549  0.1026 -0.5978  0.0803
  902MOL0     C21663   3.532  10.513   9.643  0.2904 -1.5646 -0.5621
  902MOL0     C21664   3.384  10.511   9.618  0.4095  0.2020  1.3590
  902MOL0     O21665   3.348  10.558   9.490  1.1878  0.1159  0.2792
  902MOL0     C21666   3.206  10.572   9.461 -0.4881  1.0030  0.2881
  902MOL0     C21667   3.165  10.510   9.339 -0.3036 -0.0133 -0.7844
  902MOL0     C21668   3.035  10.526   9.294  0.7994 -0.2089 -0.6244
  902MOL0     C21669   2.933  10.576   9.383 -0.0054 -0.3256  1.2651
  902MOL0     O21670   2.804  10.562   9.335  0.0798 -0.3513 -0.1286
  902MOL0     C21671   2.693  10.610   9.416 -0.0715  0.2308 -0.1725
  902MOL0     C21672   2.563  10.543   9.378  0.9310 -0.7025  0.2937
  902MOL0     C21673   2.532  10.560   9.229 -0.2994 -0.4556 -0.3709
  902MOL0     C21674   2.535  10.709   9.182 -0.7082  0.0220  0.1841
  902MOL0     C21675   2.492  10.744   9.044 -0.1024 -0.6825  0.7615
  902MOL0     C21676   2.343  10.776   9.042 -0.9261 -0.3009  0.3740
  902MOL0     C21677   2.280  10.786   8.910 -0.2191 -0.1250  1.0670
  902MOL0     C21678   2.330  10.911   8.821  0.2735  1.4878 -0.0705
  902MOL0    Cl21679   2.240  10.898   8.677 -0.0855  0.4408 -0.5146
  902MOL0     C21680   2.977  10.639   9.495  1.2617  0.6455  0.1932
  902MOL0     C21681   3.109  10.633   9.542  0.1898 -0.6651  0.9018
  902MOL0     O21682   3.311  10.466   9.703 -0.0474 -0.7930  0.4720
  902MOL0     C21683   3.582  10.472   9.770  0.6346  0.6251 -0.3340
  902MOL0     C21684   3.717  10.477   9.793  0.5610  0.1316  0.3610
  902MOL0     N21685   4.309  10.570   9.948  0.0754 -0.4323 -0.7114
  902MOL0     N21686   4.435  10.571   9.936 -0.2113  0.7193 -0.3862
  902MOL0     C21687   3.873  11.002   9.664 -0.6032  0.2941  0.0512
  902MOL0     C21688   3.768  11.004   9.567  0.2348 -0.0535 -0.3718
  902MOL0     C21689   3.509  10.958   9.223 -0.8598  0.3436  1.1739
  902MOL0     C21690   3.442  10.834   9.215  0.1158  0.7382  0.6045
  902MOL0     C21691   3.353  10.812   9.111  0.1112 -0.0514 -0.0467
  902MOL0     C21692   3.319  10.913   9.018  0.7079  0.2561 -0.5848
  902MOL0     O21693   3.223  10.898   8.920  0.7297  1.0096  0.3708
  902MOL0     C21694   3.119  10.803   8.944  0.3703  0.4913  0.2197
  902MOL0     C21695   2.985  10.857   8.895  0.4204  0.2582 -0.9458
  902MOL0     C21696   2.882  10.741   8.872 -0.0374 -0.0564 -0.0135
  902MOL0     C21697   2.930  10.642   8.761 -0.2925  0.0033  0.2872
  902MOL0     C21698   2.970  10.709   8.636  0.4272 -0.2801 -0.0828
  902MOL0     C21699   2.995  10.741   8.525 -0.0075 -0.3221 -0.3190
  902MOL0     C21700   3.360  11.042   9.054 -0.2922  0.6566  0.6895
  902MOL0     C21701   3.460  11.058   9.146  0.0391 -0.6124 -0.0992
  902MOL0     C21702   3.509  11.200   9.167  0.3356 -0.3385 -0.1098
  902MOL0     H21703   3.899  11.216   9.343 -1.5535 -3.2330 -0.7487
  902MOL0     H21704   4.083  11.223   9.519  0.8219  0.0199  4.5959
  902MOL0     H21705   4.238  11.009   9.590  0.0058 -2.7332  0.4232
  902MOL0     H21706   4.261  11.160   9.679 -0.2395 -1.0310  0.8687
  902MOL0     H21707   4.275  10.878   9.794 -4.1351  0.8009  1.4815
  902MOL0     H21708   4.280  11.032   9.881 -0.1082 -2.0719  0.9245
  902MOL0     H21709   4.468  11.027   9.649  1.8155 -2.5964 -1.3138
  902MOL0     H21710   4.486  10.873   9.755 -1.7724 -0.3433 -0.0131
  902MOL0     H21711   4.615  11.101   9.779  2.3963 -1.3881  4.1386
  902MOL0     H21712   4.475  11.134   9.867 -1.8510  1.0374 -5.6232
  902MOL0     H21713   4.661  10.885   9.880 -0.6932  0.0812 -1.1888
  902MOL0     H21714   4.699  11.015   9.996 -0.0414 -0.5659  0.6503
  902MOL0     H21715   4.498  10.982  10.127 -2.2213 -0.2233  0.1947
  902MOL0     H21716   4.438  10.867  10.016 -1.0379  2.7627 -1.8026
  902MOL0     H21717   4.565  10.783  10.230 -1.9377  3.7674 -0.0041
  902MOL0     H21718   4.710  10.841  10.163  1.9245 -2.8397 -2.3724
  902MOL0     H21719   4.675  10.682   9.971  2.8773 -1.3402  0.1028
  902MOL0     H21720   4.689  10.612  10.135 -0.1442  0.6581 -0.3208
  902MOL0     H21721   4.419  10.566  10.252  0.5030 -0.0556  0.4083
  902MOL0     H21722   4.107  10.435  10.085 -1.2487  1.3376 -3.2876
  902MOL0     H21723   4.152  10.525  10.233 -0.4703 -1.5563 -1.1208
  902MOL0     H21724   3.923  10.578  10.130 -1.6364  3.6706  0.2934
  902MOL0     H21725   4.033  10.711  10.141 -0.3569 -0.3005  2.2355
  902MOL0     H21726   4.095  10.697   9.904  1.8948 -3.6531 -1.3920
  902MOL0     H21727   3.914  10.686   9.916  0.4490  0.8572 -0.8849
  902MOL0     H21728   3.964  10.425   9.889 -2.6394  0.5116 -1.0218
  902MOL0     H21729   4.112  10.484   9.832  0.7786 -0.0973 -0.2021
  902MOL0     H21730   3.824  10.642   9.514 -1.4442 -0.5708 -1.9471
  902MOL0     H21731   3.580  10.631   9.455 -1.4571  0.4357  1.1134
  902MOL0     H21732   3.236  10.456   9.278  1.1649 -0.8531  1.5136
  902MOL0     H21733   3.012  10.490   9.194 -0.2149  1.5315 -1.0534
  902MOL0     H21734   2.701  10.574   9.519 -1.2066  3.0823  1.0095
  902MOL0     H21735   2.682  10.719   9.419 -1.5861  0.1001  2.4867
  902MOL0     H21736   2.570  10.438   9.406  0.3114 -0.3519  1.9029
  902MOL0     H21737   2.491  10.595   9.443  1.1537 -1.5238  1.2206
  902MOL0     H21738   2.602  10.508   9.163  0.9463  0.6523  0.0381
  902MOL0     H21739   2.430  10.534   9.199 -0.3233  1.4301 -2.1641
  902MOL0     H21740   2.639  10.739   9.193 -0.2012  0.9564 -4.6980
  902MOL0     H21741   2.482  10.774   9.252 -2.2616 -1.1977  0.2095
  902MOL0     H21742   2.513  10.672   8.964  1.1803  1.1651 -0.6760
  902MOL0     H21743   2.536  10.839   9.011  0.0403 -0.4666  1.5629
  902MOL0     H21744   2.294  10.688   9.085 -0.0394 -0.4362  1.1440
  902MOL0     H21745   2.313  10.854   9.112  1.9322  2.0183 -0.7770
  902MOL0     H21746   2.171  10.793   8.914 -0.6834 -3.4574 -1.1424
  902MOL0     H21747   2.289  10.690   8.858  0.2174 -1.8842  4.1577
  902MOL0     H21748   2.300  11.006   8.867 -0.1586  0.9185  0.8448
  902MOL0     H21749   2.438  10.920   8.807  0.4658  2.3928  1.6781
  902MOL0     H21750   2.905  10.684   9.563  1.2591  0.9740 -0.0256
  902MOL0     H21751   3.137  10.692   9.628  1.4082 -0.4220  0.3635
  902MOL0     H21752   3.510  10.427   9.839  1.1179 -0.4714 -0.5283
  902MOL0     H21753   3.762  10.446   9.886  2.1698  0.8843 -0.1202
  902MOL0     H21754   3.865  10.949   9.758 -0.9308  2.7532  1.4977
  902MOL0     H21755   3.669  10.960   9.572  0.6230 -1.0788 -1.3994
  902MOL0     H21756   3.456  10.743   9.273  1.6543  0.2093 -0.5173
  902MOL0     H21757   3.326  10.707   9.118  1.9595 -0.5734 -0.3110
  902MOL0     H21758   3.102  10.789   9.051  2.2260 -0.1882  0.4585
  902MOL0     H21759   3.132  10.702   8.904  0.3922  0.2514  0.8301
  902MOL0     H21760   2.987  10.915   8.802  1.5612  0.9026 -0.5470
  902MOL0     H21761   2.948  10.929   8.970 -0.7640  0.0510 -1.3087
  902MOL0     H21762   2.784  10.782   8.845 -0.5097 -1.7681 -1.0623
  902MOL0     H21763   2.863  10.679   8.960  0.8079  0.2845  0.4173
  902MOL0     H21764   3.015  10.584   8.798 -0.7031  0.6637  2.3754
  902MOL0     H21765   2.850  10.572   8.735  0.1480  0.0650 -1.3613
  902MOL0     H21766   3.023  10.781   8.430  2.4067  2.9566  1.5580
  902MOL0     H21767   3.313  11.118   8.993 -0.0479  1.0344  0.9642
  902MOL0     H21768   3.612  11.212   9.130 -0.5293 -2.4583 -3.7530
  902MOL0     H21769   3.464  11.257   9.085  0.7245  1.0025  0.5767
  902MOL0     H21770   3.484  11.239   9.266  1.4120  0.9082 -0.2964
  903MOL0     O21771   8.104   3.134   7.813 -0.8507  0.2601  1.1717
  903MOL0     C21772   8.172   3.061   7.746 -0.0020  0.0589  0.1863
  903MOL0     O21773   8.124   2.938   7.688  0.0986 -0.6542  0.3577
  903MOL0     C21774   7.994   2.892   7.716 -0.0946 -0.1189  0.3375
  903MOL0     C21775   7.948   2.813   7.611 -0.2393 -0.3633  0.0579
  903MOL0     C21776   7.828   2.749   7.635  0.1024  1.2171 -1.2177
  903MOL0     C21777   7.749   2.747   7.754  0.8551  0.5175  0.5881
  903MOL0     O21778   7.633   2.670   7.762  0.4008 -0.4586  0.5621
  903MOL0     C21779   7.560   2.694   7.878  0.0459 -0.2168  0.4970
  903MOL0     C21780   7.432   2.607   7.848 -0.0958 -0.7897 -0.2092
  903MOL0     C21781   7.331   2.669   7.754  0.0947 -0.5928  0.8323
  903MOL0     C21782   7.257   2.795   7.799  0.2458 -0.4052 -0.1108
  903MOL0     C21783   7.197   2.780   7.943 -0.0989 -0.5217 -0.2455
  903MOL0     C21784   7.149   2.920   7.985  0.5864 -0.2835 -0.2403
  903MOL0     C21785   7.061   2.924   8.110 -0.2978  0.4090 -0.7914
  903MOL0     C21786   6.965   2.806   8.114  0.9023 -1.2459 -0.0560
  903MOL0     N21787   6.859   2.811   8.008  0.2388 -0.9179  0.9696
  903MOL0     C21788   6.844   2.721   7.913  0.5780 -0.3811 -0.4281
  903MOL0     C21789   6.721   2.741   7.869 -0.0051 -1.1315  0.4271
  903MOL0     C21790   6.651   2.658   7.754  0.7510  0.7122  0.6014
  903MOL0     C21791   6.499   2.662   7.747  1.1624 -0.3215 -0.5600
  903MOL0     C21792   6.428   2.802   7.706 -0.1892 -0.1541 -1.0669
  903MOL0     C21793   6.488   2.862   7.577 -0.0172  0.3016 -1.1148
  903MOL0     O21794   6.474   2.785   7.459  0.5353  0.6914  0.3612
  903MOL0     C21795   6.372   2.815   7.371  0.9556 -0.2458  0.3242
  903MOL0     C21796   6.384   2.810   7.231 -0.0077  0.8038  0.1351
  903MOL0     C21797   6.271   2.815   7.152 -0.0931  0.4457 -0.2171
  903MOL0     C21798   6.143   2.842   7.203 -1.0237 -0.4744  0.3908
  903MOL0     C21799   6.019   2.842   7.121  0.5832  0.5883 -0.5051
  903MOL0     O21800   6.029   2.814   6.993 -0.2591  0.2056 -0.0336
  903MOL0     C21801   5.924   2.839   6.912 -0.4339  0.4305 -0.1226
  903MOL0     C21802   5.892   2.739   6.818 -0.5750  0.2310  0.1392
  903MOL0     C21803   5.788   2.751   6.728  0.6763 -0.9861 -0.6589
  903MOL0     C21804   5.698   2.864   6.735  0.7663 -0.4520 -0.5666
  903MOL0     O21805   5.585   2.881   6.661  0.0337  0.1577  0.1536
  903MOL0     C21806   5.526   2.768   6.592  0.5070 -0.4011 -0.6163
  903MOL0     C21807   5.403   2.806   6.511 -0.2973 -1.1605  0.3916
  903MOL0     C21808   5.366   2.707   6.400 -0.0136  0.1720  0.8375
  903MOL0     C21809   5.463   2.737   6.280  0.8381  0.2656 -0.8379
  903MOL0     C21810   5.417   2.655   6.157  0.0434  1.2366 -0.1460
  903MOL0     C21811   5.400   2.505   6.172  0.9747 -0.8318 -1.0598
  903MOL0     C21812   5.526   2.422   6.154 -0.5520 -0.5521 -0.2398
  903MOL0     C21813   5.506   2.272   6.182  0.0387  0.1847  0.9107
  903MOL0    Cl21814   5.382   2.180   6.075 -0.1529 -0.1747 -0.4333
  903MOL0     C21815   5.728   2.970   6.816 -1.6931  0.4395 -0.1634
  903MOL0     C21816   5.843   2.958   6.896  0.6896 -0.1722  0.3615
  903MOL0     O21817   5.909   2.856   7.176  0.6832  0.6934 -0.0293
  903MOL0     C21818   6.127   2.868   7.339  0.5224 -0.6376 -0.5503
  903MOL0     C21819   6.240   2.853   7.423  0.4939  0.1030 -0.4006
  903MOL0     N21820   6.681   2.860   7.919  0.7891 -0.0351  0.5627
  903MOL0     N21821   6.764   2.908   7.999  0.2715  0.7562  0.1104
  903MOL0     C21822   7.796   2.841   7.853 -0.7760 -0.2451  1.1561
  903MOL0     C21823   7.919   2.902   7.833 -0.1641  0.0279 -0.0794
  903MOL0     C21824   8.299   3.110   7.699 -0.4132  1.0050  1.2439
  903MOL0     C21825   8.319   3.087   7.560 -0.8631 -0.0267  0.6380
  903MOL0     C21826   8.445   3.113   7.505  0.3243 -0.4627 -1.0976
  903MOL0     C21827   8.551   3.152   7.582 -0.3878 -0.3191 -0.2529
  903MOL0     O21828   8.653   3.192   7.506 -0.0148 -0.5843  0.5055
  903MOL0     C21829   8.762   3.253   7.563 -0.9059  0.0849  0.0623
  903MOL0     C21830   8.852   3.311   7.454  0.1986 -0.2396  1.2178
  903MOL0     C21831   8.815   3.446   7.394  0.0691  0.1822 -0.2672
  903MOL0     C21832   8.918   3.491   7.287 -0.6277 -0.1772 -0.6439
  903MOL0     C21833   8.901   3.638   7.260 -0.0694  0.4825 -0.0963
  903MOL0     C21834   8.870   3.751   7.240 -0.0397 -0.2548 -0.2292
  903MOL0     C21835   8.533   3.185   7.716 -0.8202  0.2286  1.2771
  903MOL0     C21836   8.412   3.152   7.782  0.0653 -0.4732 -0.3372
  903MOL0     C21837   8.403   3.164   7.931  0.2749 -0.5936  0.6439
  903MOL0     H21838   8.011   2.816   7.522  0.8911  3.0687  0.8450
  903MOL0     H21839   7.783   2.685   7.560  0.1746 -0.5297  0.1683
  903MOL0     H21840   7.592   2.644   7.970 -3.3698 -0.9669  1.4446
  903MOL0     H21841   7.543   2.800   7.899 -0.5576 -0.3061  0.4737
  903MOL0     H21842   7.392   2.572   7.943  3.1708  1.0059  2.0161
  903MOL0     H21843   7.461   2.515   7.796  3.4245 -0.7333  1.4142
  903MOL0     H21844   7.251   2.593   7.748  0.7416 -1.2371  0.0806
  903MOL0     H21845   7.362   2.689   7.651  0.9488 -1.3420  0.9240
  903MOL0     H21846   7.338   2.868   7.808  2.7033 -3.1922  2.9431
  903MOL0     H21847   7.184   2.819   7.721  0.2644 -1.3952 -0.4377
  903MOL0     H21848   7.117   2.705   7.943  0.8133 -1.6600 -3.4030
  903MOL0     H21849   7.275   2.748   8.013 -3.1478 -3.9009  1.9421
  903MOL0     H21850   7.238   2.984   7.988  0.6431 -0.2975 -1.3702
  903MOL0     H21851   7.091   2.978   7.913 -0.0950  0.1624  0.6345
  903MOL0     H21852   7.006   3.018   8.125  0.7189  0.6620  2.0878
  903MOL0     H21853   7.121   2.917   8.202 -0.7871  0.3549 -0.4714
  903MOL0     H21854   7.015   2.709   8.104  1.6379 -0.9309  0.4892
  903MOL0     H21855   6.910   2.809   8.208  1.4010 -2.3500  0.2849
  903MOL0     H21856   6.901   2.630   7.895  2.1441  0.9028 -2.3811
  903MOL0     H21857   6.680   2.668   7.649 -2.5942  1.9814 -0.3287
  903MOL0     H21858   6.668   2.553   7.779  2.0433  0.9927  0.9593
  903MOL0     H21859   6.457   2.579   7.689  2.8383 -1.9317  0.3947
  903MOL0     H21860   6.467   2.638   7.848  2.2154  0.8561  0.0799
  903MOL0     H21861   6.445   2.882   7.779  1.1659  2.1829 -3.7486
  903MOL0     H21862   6.320   2.800   7.693 -0.3196 -1.5370 -0.0562
  903MOL0     H21863   6.592   2.887   7.599 -0.3547  0.3400  0.5417
  903MOL0     H21864   6.442   2.960   7.562 -0.5574  1.4839  5.4602
  903MOL0     H21865   6.476   2.774   7.185  0.0173  2.1248 -0.8861
  903MOL0     H21866   6.281   2.773   7.053  0.8758 -0.0545  0.0747
  903MOL0     H21867   5.948   2.646   6.818  2.1555  1.7195 -1.6771
  903MOL0     H21868   5.766   2.661   6.671  3.5771 -1.8964 -0.4876
  903MOL0     H21869   5.594   2.711   6.527  0.3601  2.2263 -3.3109
  903MOL0     H21870   5.500   2.695   6.669  1.9835  1.7586  2.1391
  903MOL0     H21871   5.325   2.818   6.588 -1.5543 -0.1162 -0.9857
  903MOL0     H21872   5.432   2.903   6.468  0.5710 -2.0610 -1.1373
  903MOL0     H21873   5.381   2.603   6.431  3.4262  0.0857 -0.5872
  903MOL0     H21874   5.264   2.719   6.365  1.1426  1.2747 -2.4659
  903MOL0     H21875   5.563   2.703   6.309  0.5131 -0.4611 -0.5593
  903MOL0     H21876   5.479   2.842   6.255  1.0850  0.9859  1.9776
  903MOL0     H21877   5.486   2.671   6.073  0.3136 -1.4306 -0.5109
  903MOL0     H21878   5.318   2.689   6.128  0.5716  0.6290 -2.9588
  903MOL0     H21879   5.351   2.478   6.265  1.5384  1.3332 -0.0796
  903MOL0     H21880   5.332   2.471   6.093  0.4734 -0.1370 -0.9395
  903MOL0     H21881   5.611   2.434   6.222  0.2991 -1.4876 -1.1010
  903MOL0     H21882   5.564   2.425   6.051 -0.3524  0.7096 -0.1469
  903MOL0     H21883   5.606   2.233   6.163  2.1520  5.5200 -0.7561
  903MOL0     H21884   5.484   2.255   6.288 -1.1070  0.2554  0.7008
  903MOL0     H21885   5.670   3.062   6.806  0.1124  1.9042  1.9649
  903MOL0     H21886   5.864   3.035   6.969 -0.4194 -0.9300  1.5293
  903MOL0     H21887   6.036   2.904   7.387  2.3755  1.0937  1.9625
  903MOL0     H21888   6.224   2.862   7.530  2.4607  0.9390 -0.1227
  903MOL0     H21889   7.736   2.872   7.937 -1.3555  0.0772  0.6357
  903MOL0     H21890   7.959   2.969   7.909  2.8200  2.3842 -3.4206
  903MOL0     H21891   8.251   3.043   7.487 -1.5047  1.1839  0.4749
  903MOL0     H21892   8.462   3.088   7.400 -0.8485 -1.6421 -1.0240
  903MOL0     H21893   8.817   3.178   7.620 -0.2757  0.4304 -0.0861
  903MOL0     H21894   8.739   3.337   7.629 -0.2725  0.6764 -0.4497
  903MOL0     H21895   8.856   3.234   7.377  0.2969  1.9930 -1.1386
  903MOL0     H21896   8.950   3.326   7.501  0.3626 -0.5075  0.9602
  903MOL0     H21897   8.821   3.509   7.483  1.0794 -0.2484 -0.0239
  903MOL0     H21898   8.715   3.444   7.349 -0.5429  0.4806  1.0485
  903MOL0     H21899   9.019   3.477   7.325 -0.1902  1.0163 -1.3173
  903MOL0     H21900   8.905   3.437   7.193  3.2783 -0.0953 -1.3908
  903MOL0     H21901   8.838   3.852   7.227  1.2395  0.2071  0.0926
  903MOL0     H21902   8.616   3.231   7.767 -0.3303  0.4714  0.2861
  903MOL0     H21903   8.489   3.108   7.970  2.7858  1.1839 -1.8665
  903MOL0     H21904   8.413   3.267   7.966 -1.5325  0.0994 -0.7414
  903MOL0     H21905   8.311   3.128   7.978  0.7483 -1.1687  1.1447
  904MOL0     O21906   6.944  10.197   5.202 -0.0288  1.0242  0.1131
  904MOL0     C21907   6.840  10.206   5.253  1.3759  0.9422 -0.7223
  904MOL0     O21908   6.816  10.242   5.384 -0.0498 -1.2287  0.1986
  904MOL0     C21909   6.924  10.230   5.465  0.4025 -0.8658  0.7003
  904MOL0     C21910   7.003  10.337   5.507  0.6143 -0.4297 -0.6836
  904MOL0     C21911   7.110  10.327   5.594 -0.2617 -0.3038  0.7620
  904MOL0     C21912   7.153  10.203   5.633  0.1674  1.0156  0.4027
  904MOL0     O21913   7.263  10.191   5.711  0.3429 -0.3283  0.0530
  904MOL0     C21914   7.271  10.097   5.819 -0.0944  0.3925  0.0487
  904MOL0     C21915   7.371   9.985   5.786  0.5234 -0.1045 -0.6670
  904MOL0     C21916   7.504  10.039   5.746 -0.0991  0.0603  0.3786
  904MOL0     C21917   7.600   9.917   5.745  0.4891  0.2174 -0.5572
  904MOL0     C21918   7.716   9.939   5.662 -0.7986  0.5428  0.2554
  904MOL0     C21919   7.831   9.842   5.687 -0.6255 -0.1184 -0.1591
  904MOL0     C21920   7.937   9.901   5.785 -0.7094  0.1301  1.0542
  904MOL0     C21921   8.031   9.792   5.837 -0.3865  0.1864  0.1747
  904MOL0     N21922   8.115   9.737   5.727  0.4707  0.5643 -0.3243
  904MOL0     C21923   8.210   9.811   5.663  0.3271  0.1922  0.5820
  904MOL0     C21924   8.292   9.724   5.601 -0.5541 -0.0329 -0.3317
  904MOL0     C21925   8.409   9.740   5.499  0.5519 -0.2635 -0.1699
  904MOL0     C21926   8.359   9.827   5.382  0.4073  1.1362  0.2572
  904MOL0     C21927   8.350   9.981   5.402  0.0715  0.1250 -0.4114
  904MOL0     C21928   8.480  10.055   5.417 -1.2193  1.2401  0.5436
  904MOL0     O21929   8.538  10.028   5.555 -0.2261  0.4177  0.9053
  904MOL0     C21930   8.655  10.096   5.579  0.4438 -0.3171  0.1100
  904MOL0     C21931   8.659  10.237   5.566  0.3577  0.2074 -0.3443
  904MOL0     C21932   8.777  10.301   5.600  0.4688 -0.5278 -0.3782
  904MOL0     C21933   8.892  10.227   5.637 -1.0171  0.1988  0.5835
  904MOL0     C21934   9.010  10.304   5.686  0.0619 -1.1429  0.4481
  904MOL0     O21935   9.125  10.237   5.717  0.3814 -0.4392 -0.0595
  904MOL0     C21936   9.242  10.304   5.736  0.9062  0.0656  0.1306
  904MOL0     C21937   9.254  10.408   5.825  0.2499  0.9571  0.4565
  904MOL0     C21938   9.371  10.482   5.853 -0.3145 -0.4221 -0.0202
  904MOL0     C21939   9.486  10.444   5.783 -0.4426  0.7317  0.3735
  904MOL0     O21940   9.595  10.523   5.809 -0.4258 -0.0920  0.5414
  904MOL0     C21941   9.695  10.529   5.699  0.3331 -0.7091  0.4498
  904MOL0     C21942   9.798  10.624   5.745  0.6712 -0.4851 -0.4394
  904MOL0     C21943   9.887  10.655   5.620 -0.1641 -0.4247  0.2486
  904MOL0     C21944  10.006  10.739   5.669  0.4534  0.8143  0.2436
  904MOL0     C21945  10.107  10.736   5.543 -0.0989 -0.0810  0.0812
  904MOL0     C21946  10.223  10.836   5.563  0.6562 -0.7423 -0.4099
  904MOL0     C21947  10.309  10.851   5.440 -0.0060  0.4803  0.0835
  904MOL0     C21948  10.439  10.940   5.462 -0.1777 -0.1924  0.1634
  904MOL0    Cl21949  10.397  11.114   5.487 -0.2609  0.0512  0.9113
  904MOL0     C21950   9.487  10.324   5.703 -0.3016  0.5956 -0.7398
  904MOL0     C21951   9.362  10.259   5.681  0.1502  0.5191 -0.9649
  904MOL0     O21952   8.982  10.425   5.710 -0.3044  0.4857 -0.6294
  904MOL0     C21953   8.886  10.090   5.645  0.0377  0.6586 -0.0203
  904MOL0     C21954   8.771  10.027   5.609 -0.1171  0.3616 -0.1124
  904MOL0     N21955   8.245   9.604   5.634  0.0766 -0.6249 -0.1280
  904MOL0     N21956   8.139   9.612   5.702 -0.0605  0.0372 -0.3792
  904MOL0     C21957   7.069  10.094   5.607  0.6869 -0.1854 -0.3261
  904MOL0     C21958   6.959  10.107   5.517 -0.7575  0.3228 -0.2627
  904MOL0     C21959   6.729  10.175   5.163 -0.1675 -0.0836 -0.3327
  904MOL0     C21960   6.611  10.242   5.187 -0.0881 -0.0979  0.1969
  904MOL0     C21961   6.489  10.212   5.129 -0.1910 -0.4018 -0.6488
  904MOL0     C21962   6.491  10.122   5.023 -0.6337  0.3238  0.0545
  904MOL0     O21963   6.381  10.080   4.960 -0.3568 -0.3135  0.7382
  904MOL0     C21964   6.256  10.098   5.010 -1.1559  0.1482  0.1008
  904MOL0     C21965   6.237   9.994   5.117  0.8564 -0.2976  0.5507
  904MOL0     C21966   6.105   9.920   5.094  0.4169  0.3267 -0.4788
  904MOL0     C21967   6.109   9.823   4.960  0.0826 -0.7154 -0.7699
  904MOL0     C21968   6.155   9.685   4.972 -0.1053 -0.0065 -0.1520
  904MOL0     C21969   6.170   9.559   4.972 -0.5031 -1.1584 -0.7072
  904MOL0     C21970   6.609  10.047   4.998  0.2361  0.5763 -0.6216
  904MOL0     C21971   6.727  10.078   5.060 -0.4297 -0.2734 -0.4774
  904MOL0     C21972   6.850  10.007   5.014 -0.1350  0.0462 -0.6633
  904MOL0     H21973   6.951  10.414   5.451 -0.2575  0.0149  0.6983
  904MOL0     H21974   7.179  10.409   5.616  1.7873 -0.5880 -3.4870
  904MOL0     H21975   7.311  10.146   5.909  0.3069 -0.4007  0.3063
  904MOL0     H21976   7.167  10.065   5.830 -0.8506  2.7611  0.5279
  904MOL0     H21977   7.330   9.922   5.706 -0.7766  0.0912 -0.1681
  904MOL0     H21978   7.376   9.928   5.879 -1.0894  0.9681  0.1108
  904MOL0     H21979   7.553  10.119   5.802 -0.0929 -0.5863  1.3187
  904MOL0     H21980   7.493  10.075   5.643 -2.0138  0.8029  0.8056
  904MOL0     H21981   7.628   9.912   5.850  1.1165 -1.0188 -0.7690
  904MOL0     H21982   7.550   9.828   5.705  3.9018 -1.8534 -0.5551
  904MOL0     H21983   7.687   9.940   5.556 -0.5742 -0.9327  0.1552
  904MOL0     H21984   7.748  10.040   5.686  2.7162 -0.3872 -0.0069
  904MOL0     H21985   7.788   9.747   5.721  2.8317 -1.9931 -0.5364
  904MOL0     H21986   7.882   9.816   5.594 -2.8998 -1.4614 -1.1087
  904MOL0     H21987   7.885   9.963   5.859 -1.1435  2.3685 -1.0142
  904MOL0     H21988   8.006   9.962   5.727  1.3814 -2.7004  0.3445
  904MOL0     H21989   8.108   9.843   5.896  2.1126  0.6263 -3.1517
  904MOL0     H21990   7.972   9.723   5.898 -1.2445  2.5445  2.1792
  904MOL0     H21991   8.210   9.920   5.662 -0.8984  0.2052 -0.2966
  904MOL0     H21992   8.495   9.789   5.546 -0.2528 -0.6108  1.7368
  904MOL0     H21993   8.447   9.642   5.471  2.1041 -0.0931  1.2103
  904MOL0     H21994   8.434   9.823   5.302  0.5667  1.8350  0.3637
  904MOL0     H21995   8.265   9.785   5.346  0.1784  0.8803  1.1517
  904MOL0     H21996   8.284  10.011   5.485 -0.8049  1.4387 -1.5510
  904MOL0     H21997   8.305  10.023   5.312 -1.2571  1.4083  0.7918
  904MOL0     H21998   8.448  10.159   5.412 -4.2504  0.3778  0.2318
  904MOL0     H21999   8.555  10.028   5.342  0.9502  1.1863  2.5844
  904MOL0     H22000   8.582  10.303   5.526  0.2761  0.1480 -0.2862
  904MOL0     H22001   8.780  10.409   5.583  0.4535 -0.0181  2.3959
  904MOL0     H22002   9.166  10.425   5.886 -1.7138 -3.7864 -0.6685
  904MOL0     H22003   9.376  10.569   5.918  0.3817  0.5952 -1.3930
  904MOL0     H22004   9.749  10.436   5.680 -0.6683 -1.4548  1.1541
  904MOL0     H22005   9.647  10.570   5.609 -0.3024 -0.3366  0.9462
  904MOL0     H22006   9.751  10.713   5.787  1.9660  0.6669 -1.3408
  904MOL0     H22007   9.857  10.578   5.825 -3.1224 -1.3013  2.1489
  904MOL0     H22008   9.920  10.564   5.570  1.5385  0.4082 -0.2035
  904MOL0     H22009   9.820  10.704   5.548  0.7055 -0.7222 -0.7917
  904MOL0     H22010  10.052  10.697   5.759  2.0381  1.4406 -0.2505
  904MOL0     H22011   9.974  10.840   5.696  2.1568  1.5757 -0.4176
  904MOL0     H22012  10.071  10.777   5.449 -2.7186 -0.7643  0.7064
  904MOL0     H22013  10.162  10.642   5.532  0.1970  0.0910  0.0725
  904MOL0     H22014  10.178  10.931   5.593 -0.2600 -0.7158 -1.7531
  904MOL0     H22015  10.294  10.801   5.638  2.5659  0.4688 -1.5531
  904MOL0     H22016  10.254  10.883   5.351 -2.4624 -0.1018  1.3129
  904MOL0     H22017  10.346  10.753   5.407 -1.9343  0.4063 -2.2003
  904MOL0     H22018  10.479  10.898   5.555 -1.8353 -3.2472 -0.3632
  904MOL0     H22019  10.509  10.928   5.379  0.4346  3.6041 -0.0644
  904MOL0     H22020   9.573  10.291   5.646  0.3349 -1.6032  1.3437
  904MOL0     H22021   9.364  10.178   5.608 -2.3621 -0.2441 -0.3044
  904MOL0     H22022   8.963  10.024   5.681 -1.1895 -0.1751  1.1486
  904MOL0     H22023   8.766   9.919   5.612  1.9408  0.2462  1.2596
  904MOL0     H22024   7.100   9.992   5.627 -0.4465 -0.3291  0.8499
  904MOL0     H22025   6.912  10.011   5.499  1.8000 -0.9432 -0.7546
  904MOL0     H22026   6.608  10.314   5.268 -2.1772  0.0745  0.0238
  904MOL0     H22027   6.406  10.272   5.166  1.1362  0.8059  0.5312
  904MOL0     H22028   6.192  10.078   4.924 -0.8008  0.0302 -0.1390
  904MOL0     H22029   6.234  10.199   5.044 -2.6446 -0.3181  0.6105
  904MOL0     H22030   6.231  10.038   5.217 -2.2075 -0.3159  0.4468
  904MOL0     H22031   6.308   9.911   5.115 -2.6888 -3.6176  0.8377
  904MOL0     H22032   6.028   9.997   5.092 -1.3828 -1.3236  0.7157
  904MOL0     H22033   6.090   9.856   5.182 -0.6002 -1.9697 -2.2346
  904MOL0     H22034   6.002   9.820   4.942 -0.4958  0.5526  1.9427
  904MOL0     H22035   6.172   9.880   4.892  0.5192 -1.3725 -0.9279
  904MOL0     H22036   6.165   9.453   4.957  0.6673 -1.2016 -0.8582
  904MOL0     H22037   6.604   9.966   4.926  1.1723 -1.3297  1.3624
  904MOL0     H22038   6.903   9.949   5.090  0.4128 -0.3945 -1.3583
  904MOL0     H22039   6.838   9.937   4.931  2.5894  0.1766 -1.2774
  904MOL0     H22040   6.924  10.077   4.971 -1.0329  2.5566  1.5999
  905MOL0     O22041   3.256   4.728   6.642  0.5743  0.0447  0.4965
  905MOL0     C22042   3.133   4.709   6.652 -0.1652  0.6470 -0.2400
  905MOL0     O22043   3.043   4.712   6.548 -0.8376 -0.2068 -0.3341
  905MOL0     C22044   3.088   4.766   6.427  0.1498  0.8900  0.1498
  905MOL0     C22045   3.126   4.676   6.325 -0.0066 -0.5606 -0.0718
  905MOL0     C22046   3.142   4.717   6.190  0.1266 -0.0465 -0.9270
  905MOL0     C22047   3.140   4.854   6.164 -0.4149 -0.2749 -0.1059
  905MOL0     O22048   3.145   4.888   6.034 -0.1483  0.0523 -0.3745
  905MOL0     C22049   3.046   4.993   6.010  0.0899 -0.1736 -0.3235
  905MOL0     C22050   2.969   4.986   5.882  0.0402  0.0210 -1.0534
  905MOL0     C22051   2.902   5.129   5.862 -0.6647  0.1758  0.2700
  905MOL0     C22052   2.805   5.122   5.745  0.1753 -0.4876 -0.1377
  905MOL0     C22053   2.750   5.262   5.702  0.3689  0.2890  0.5160
  905MOL0     C22054   2.668   5.254   5.566 -0.7030 -0.2504 -0.0749
  905MOL0     C22055   2.532   5.185   5.581  0.2711 -0.6452  0.0681
  905MOL0     C22056   2.444   5.197   5.451 -0.9288 -0.2669 -0.1618
  905MOL0     N22057   2.522   5.164   5.327 -0.5625 -0.6509 -0.3741
  905MOL0     C22058   2.582   5.238   5.230  0.9495 -0.9736 -0.5492
  905MOL0     C22059   2.651   5.158   5.144  0.4534  1.1786  0.2933
  905MOL0     C22060   2.743   5.193   5.033 -0.3426 -0.6736  0.0999
  905MOL0     C22061   2.667   5.204   4.899  0.1160  0.0546 -0.7778
  905MOL0     C22062   2.758   5.263   4.791 -0.6778 -0.0253 -0.1245
  905MOL0     C22063   2.723   5.217   4.648 -0.4851  0.3328 -0.1079
  905MOL0     O22064   2.837   5.145   4.602  0.3891 -0.6372 -0.4684
  905MOL0     C22065   2.819   5.064   4.488 -0.3076 -0.5058 -0.1888
  905MOL0     C22066   2.907   4.960   4.470  0.0891 -0.2333 -0.6257
  905MOL0     C22067   2.880   4.861   4.382 -0.3562 -1.0345 -0.0209
  905MOL0     C22068   2.774   4.863   4.294  0.5879 -0.2817 -0.0516
  905MOL0     C22069   2.758   4.757   4.190 -0.1495  0.4980  0.1311
  905MOL0     O22070   2.630   4.737   4.149  0.9528 -0.7180 -0.3546
  905MOL0     C22071   2.591   4.636   4.071 -0.0553 -0.2270 -0.0762
  905MOL0     C22072   2.662   4.602   3.956  0.2015 -0.1943 -0.3464
  905MOL0     C22073   2.639   4.487   3.889  0.4775 -0.1334 -0.2363
  905MOL0     C22074   2.532   4.390   3.932 -0.4402 -0.2243 -0.3054
  905MOL0     O22075   2.501   4.271   3.879  0.5240 -0.0852  0.0368
  905MOL0     C22076   2.522   4.226   3.743 -0.1859  0.7384  0.6569
  905MOL0     C22077   2.552   4.076   3.754  0.4820 -0.1836 -0.3604
  905MOL0     C22078   2.425   4.001   3.804  0.1418 -0.3560  0.4840
  905MOL0     C22079   2.461   3.858   3.809  0.5758 -0.0297 -0.6601
  905MOL0     C22080   2.358   3.747   3.851  0.2737 -0.4566  0.2160
  905MOL0     C22081   2.229   3.739   3.765 -0.5451  0.1992  0.4257
  905MOL0     C22082   2.127   3.635   3.817  0.4597 -0.3690 -0.3948
  905MOL0     C22083   1.997   3.636   3.736  0.2151  0.2662  0.5984
  905MOL0    Cl22084   1.873   3.745   3.782  0.5732  0.0199  0.1376
  905MOL0     C22085   2.456   4.430   4.044 -0.0744 -0.5323  0.1379
  905MOL0     C22086   2.486   4.551   4.110 -0.4444 -0.2084  1.0312
  905MOL0     O22087   2.856   4.694   4.151  1.1637 -0.1964  0.3116
  905MOL0     C22088   2.685   4.976   4.306  0.3700  0.6797 -0.4218
  905MOL0     C22089   2.703   5.084   4.402  0.1740 -0.2185  0.5492
  905MOL0     N22090   2.627   5.023   5.184 -0.9622  0.3889 -0.5273
  905MOL0     N22091   2.538   5.034   5.286  0.2130  0.5965 -0.5430
  905MOL0     C22092   3.115   4.942   6.271 -0.1465  0.5768 -0.9216
  905MOL0     C22093   3.090   4.900   6.403  0.7607  0.7263 -0.7169
  905MOL0     C22094   3.076   4.680   6.787 -0.3205  0.9850  0.1128
  905MOL0     C22095   2.969   4.753   6.829 -1.0939 -0.5711  0.3152
  905MOL0     C22096   2.928   4.754   6.958  0.1787 -0.2871  0.7115
  905MOL0     C22097   2.987   4.671   7.050  0.7612 -0.2156 -0.3359
  905MOL0     O22098   2.934   4.660   7.176 -0.0355  0.0536  0.1829
  905MOL0     C22099   2.956   4.780   7.261 -0.8459  0.8076  1.0696
  905MOL0     C22100   2.970   4.755   7.413  0.0913 -1.0861  0.0685
  905MOL0     C22101   3.086   4.664   7.453 -0.6565 -0.7046 -0.2169
  905MOL0     C22102   3.112   4.688   7.598  1.4018  0.0657 -0.6722
  905MOL0     C22103   2.993   4.684   7.689  0.5754 -0.1663 -0.2339
  905MOL0     C22104   2.893   4.679   7.764  0.2503 -0.5619 -0.1576
  905MOL0     C22105   3.090   4.588   7.006 -0.0406  0.4336 -0.5501
  905MOL0     C22106   3.132   4.593   6.882 -0.1069  0.4111  0.2252
  905MOL0     C22107   3.246   4.501   6.843  1.2368  0.1975  0.8253
  905MOL0     H22108   3.112   4.571   6.347  2.9433 -0.8619  0.7302
  905MOL0     H22109   3.143   4.650   6.106 -0.8321 -0.1708 -0.8486
  905MOL0     H22110   2.975   4.993   6.094  0.6424  3.2192  0.2962
  905MOL0     H22111   3.092   5.092   6.016 -0.8205  0.3146 -1.1147
  905MOL0     H22112   2.887   4.915   5.895 -2.9720  3.1964 -1.1554
  905MOL0     H22113   3.030   4.955   5.797 -1.4601 -0.8601 -1.8595
  905MOL0     H22114   2.977   5.205   5.839 -0.6792  0.0091 -0.3305
  905MOL0     H22115   2.855   5.157   5.957 -0.4414  3.2796 -0.4436
  905MOL0     H22116   2.858   5.079   5.660  1.4071 -1.5202  1.1185
  905MOL0     H22117   2.724   5.054   5.774 -1.0990 -0.1866 -2.6726
  905MOL0     H22118   2.696   5.300   5.788  0.2102 -3.0700  2.0459
  905MOL0     H22119   2.833   5.334   5.699 -0.5166  1.3354  0.8599
  905MOL0     H22120   2.650   5.355   5.529  2.5639  0.9319  1.2220
  905MOL0     H22121   2.725   5.208   5.485 -1.4819 -1.7748  0.2009
  905MOL0     H22122   2.476   5.232   5.662 -1.2518  0.3357 -1.4790
  905MOL0     H22123   2.544   5.078   5.600  0.0661 -0.4978  1.0859
  905MOL0     H22124   2.362   5.125   5.453 -0.9124 -0.3866 -2.1128
  905MOL0     H22125   2.419   5.301   5.429  0.7521  1.1432  3.6234
  905MOL0     H22126   2.572   5.346   5.225 -0.8339 -1.1351 -3.7961
  905MOL0     H22127   2.797   5.284   5.060 -1.5627  1.5462 -4.1351
  905MOL0     H22128   2.810   5.111   5.006 -1.4918 -1.6108  0.0138
  905MOL0     H22129   2.624   5.109   4.868  0.3330 -0.0848 -0.6505
  905MOL0     H22130   2.586   5.276   4.915 -0.6246 -0.7692 -0.7600
  905MOL0     H22131   2.865   5.258   4.812 -0.5763  1.8998 -0.0076
  905MOL0     H22132   2.736   5.370   4.796  2.7678  0.7694  0.9349
  905MOL0     H22133   2.704   5.298   4.577  0.9070  0.3950 -0.4452
  905MOL0     H22134   2.628   5.164   4.660 -1.0081  1.6693  2.1648
  905MOL0     H22135   2.994   4.957   4.534  1.1952  2.3280 -1.8817
  905MOL0     H22136   2.952   4.780   4.376  0.2806 -0.4658 -0.0845
  905MOL0     H22137   2.736   4.673   3.922  0.5355 -1.0511 -1.4775
  905MOL0     H22138   2.710   4.461   3.811  1.7363  0.0423  0.8132
  905MOL0     H22139   2.437   4.242   3.677  1.2894  1.3175 -1.1847
  905MOL0     H22140   2.601   4.273   3.684  0.1356  1.6392  1.7516
  905MOL0     H22141   2.581   4.024   3.662  2.7532 -2.1945  1.3317
  905MOL0     H22142   2.634   4.061   3.825  0.4145 -0.2380 -0.2945
  905MOL0     H22143   2.387   4.036   3.900 -1.2080  0.9149 -0.4738
  905MOL0     H22144   2.344   4.018   3.733  0.5697  1.4259  0.3857
  905MOL0     H22145   2.536   3.852   3.888  0.8639 -0.4262 -0.9615
  905MOL0     H22146   2.488   3.826   3.708 -2.6531 -1.0697 -1.3188
  905MOL0     H22147   2.344   3.752   3.959  1.0329 -0.3406  0.3141
  905MOL0     H22148   2.411   3.654   3.827  0.4127  0.0441 -1.5090
  905MOL0     H22149   2.183   3.839   3.765  1.2810  1.0909 -0.3934
  905MOL0     H22150   2.251   3.713   3.661 -1.3918 -0.3534  0.3749
  905MOL0     H22151   2.097   3.664   3.918 -0.6214  0.7942 -1.0302
  905MOL0     H22152   2.170   3.534   3.813  4.9410  1.3090 -2.2950
  905MOL0     H22153   2.029   3.652   3.633  0.2835 -2.0281  0.2184
  905MOL0     H22154   1.948   3.539   3.740 -1.3112  1.0379  1.5978
  905MOL0     H22155   2.385   4.359   4.084  1.4137 -1.5926  1.0227
  905MOL0     H22156   2.431   4.574   4.201 -0.4694  1.7081  0.5728
  905MOL0     H22157   2.590   4.982   4.253 -1.7695  0.8113  3.0475
  905MOL0     H22158   2.645   5.174   4.416  0.6618 -0.2339  3.1346
  905MOL0     H22159   3.120   5.045   6.238  0.4751  1.1455  0.8681
  905MOL0     H22160   3.065   4.984   6.467  0.5499  1.2046 -1.4138
  905MOL0     H22161   2.917   4.820   6.761 -0.7386  0.2245  0.8253
  905MOL0     H22162   2.839   4.807   6.988  0.5086  0.9480 -0.3837
  905MOL0     H22163   2.873   4.846   7.235 -1.0113 -0.3105 -1.5140
  905MOL0     H22164   3.042   4.835   7.222 -2.2879  1.9211 -0.7208
  905MOL0     H22165   2.873   4.716   7.445 -0.0804  0.4052  1.4500
  905MOL0     H22166   2.993   4.855   7.450 -1.6686 -0.1580 -1.2128
  905MOL0     H22167   3.180   4.686   7.401 -0.0353  1.5362  1.6914
  905MOL0     H22168   3.059   4.559   7.434  0.6659 -1.3746  1.3559
  905MOL0     H22169   3.180   4.605   7.623 -1.6405 -2.1572  0.9199
  905MOL0     H22170   3.177   4.775   7.608  2.1821 -0.6293  0.6270
  905MOL0     H22171   2.798   4.673   7.814 -0.6502  1.3117 -1.5304
  905MOL0     H22172   3.132   4.524   7.082  0.2398  1.0676 -0.1581
  905MOL0     H22173   3.250   4.415   6.911 -0.5227  0.3709  1.1799
  905MOL0     H22174   3.248   4.456   6.743  2.5261  0.0857  0.8754
  905MOL0     H22175   3.336   4.563   6.852  0.8428  0.5617  2.8466
  906MOL0     O22176   5.213   4.567   4.022 -0.1532  0.0598 -0.0463
  906MOL0     C22177   5.220   4.501   4.124  0.0221  0.4806 -1.0123
  906MOL0     O22178   5.288   4.387   4.137  0.0222  0.6927 -0.7887
  906MOL0     C22179   5.322   4.304   4.037 -0.3046 -0.4890 -0.5478
  906MOL0     C22180   5.246   4.287   3.921 -0.0434  0.0078  0.0215
  906MOL0     C22181   5.276   4.195   3.827  0.0885  0.2693  0.7786
  906MOL0     C22182   5.395   4.132   3.830 -0.1330 -0.5584 -0.3027
  906MOL0     O22183   5.439   4.057   3.723  0.4201 -0.3738 -0.0926
  906MOL0     C22184   5.403   3.917   3.748  0.0917 -0.5954  0.3704
  906MOL0     C22185   5.465   3.830   3.640  0.8042 -0.4560  0.0505
  906MOL0     C22186   5.620   3.823   3.663  1.2822  0.1137 -0.8155
  906MOL0     C22187   5.677   3.721   3.567 -0.2745  0.0050  1.1617
  906MOL0     C22188   5.789   3.645   3.631 -0.5757 -0.6409  0.1474
  906MOL0     C22189   5.844   3.519   3.557  1.4462 -0.0557  0.8168
  906MOL0     C22190   5.901   3.538   3.415  0.2939  0.7227  0.6479
  906MOL0     C22191   5.993   3.421   3.361 -0.4826 -0.2217  0.2835
  906MOL0     N22192   5.904   3.313   3.314 -0.5568  0.3649  0.0209
  906MOL0     C22193   5.849   3.211   3.390  0.9033 -0.1709 -0.2773
  906MOL0     C22194   5.777   3.142   3.297  0.1741 -0.3764 -0.6167
  906MOL0     C22195   5.683   3.026   3.329 -0.0560  0.2720  0.2898
  906MOL0     C22196   5.738   2.898   3.254  0.5127  0.3935 -0.0344
  906MOL0     C22197   5.890   2.875   3.262  0.6551 -0.2566 -0.0014
  906MOL0     C22198   5.939   2.734   3.215  0.1770 -0.0214 -0.0083
  906MOL0     O22199   6.070   2.720   3.262  0.2625 -0.5072 -0.2195
  906MOL0     C22200   6.143   2.682   3.162  1.1138  0.8566  0.4070
  906MOL0     C22201   6.143   2.539   3.143  0.1517 -0.5266 -0.0105
  906MOL0     C22202   6.202   2.485   3.029  0.3948  0.2849 -0.3855
  906MOL0     C22203   6.267   2.562   2.935  0.5905 -0.1928  0.7607
  906MOL0     C22204   6.332   2.500   2.819 -0.1521  0.2111 -0.0802
  906MOL0     O22205   6.421   2.578   2.753 -0.6308  0.3775  0.0544
  906MOL0     C22206   6.449   2.531   2.626  0.5156 -0.8103  0.1521
  906MOL0     C22207   6.563   2.466   2.579 -0.0757 -0.3597 -0.2189
  906MOL0     C22208   6.585   2.429   2.448 -0.2180  0.2151  0.2264
  906MOL0     C22209   6.499   2.472   2.346  0.5612  0.6581  0.2568
  906MOL0     O22210   6.510   2.449   2.207  0.2708 -1.2920 -0.1522
  906MOL0     C22211   6.635   2.418   2.152  0.2106  1.2675 -0.7722
  906MOL0     C22212   6.618   2.423   1.998  0.1952 -0.5164 -0.3302
  906MOL0     C22213   6.599   2.563   1.954  0.2102  0.5027 -0.8956
  906MOL0     C22214   6.597   2.587   1.806  0.4683 -0.2795  0.5080
  906MOL0     C22215   6.508   2.496   1.722 -0.8558 -0.3512 -1.4213
  906MOL0     C22216   6.369   2.507   1.779 -0.8654  0.1088 -0.7165
  906MOL0     C22217   6.259   2.456   1.684 -0.0955  0.3066 -0.6151
  906MOL0     C22218   6.172   2.355   1.751  0.1760 -0.2182  1.0126
  906MOL0    Cl22219   6.246   2.191   1.747  0.2472 -0.1525  0.1121
  906MOL0     C22220   6.381   2.534   2.384  0.9077 -0.4506 -0.7152
  906MOL0     C22221   6.356   2.567   2.521 -0.5019 -0.2339 -0.2147
  906MOL0     O22222   6.300   2.385   2.787 -0.3841 -0.3846 -0.1983
  906MOL0     C22223   6.277   2.702   2.962 -1.1066  0.2895 -0.6255
  906MOL0     C22224   6.207   2.761   3.073 -0.4861  0.0523 -0.4714
  906MOL0     N22225   5.804   3.191   3.171 -0.0919  0.7653  0.2117
  906MOL0     N22226   5.880   3.290   3.184 -0.3711 -1.2823  0.4599
  906MOL0     C22227   5.472   4.140   3.943 -0.3492  0.0585  1.4299
  906MOL0     C22228   5.439   4.228   4.042 -0.2916 -0.7688  0.4478
  906MOL0     C22229   5.155   4.565   4.242 -0.2604  0.4561  0.4447
  906MOL0     C22230   5.044   4.640   4.207  0.0099 -0.4645 -0.5788
  906MOL0     C22231   4.963   4.699   4.308  0.7452  0.5317 -0.5239
  906MOL0     C22232   5.003   4.680   4.442  0.3089 -0.2944 -0.9056
  906MOL0     O22233   4.931   4.746   4.550 -0.1536 -0.1417 -0.0240
  906MOL0     C22234   4.793   4.787   4.527  0.0005  0.8859  1.4248
  906MOL0     C22235   4.734   4.816   4.662 -0.2069 -0.4290  0.2548
  906MOL0     C22236   4.612   4.913   4.643 -0.2150 -0.2995  0.6426
  906MOL0     C22237   4.549   4.938   4.782 -0.3962 -0.2769 -0.1875
  906MOL0     C22238   4.528   4.816   4.853  0.5742  0.2274 -0.6759
  906MOL0     C22239   4.517   4.717   4.920  0.1042 -0.3568 -0.0428
  906MOL0     C22240   5.117   4.605   4.471  0.1249  0.5834 -0.0083
  906MOL0     C22241   5.193   4.542   4.376 -0.4541 -0.3485 -0.1526
  906MOL0     C22242   5.299   4.445   4.429  0.1757  0.9913  0.9896
  906MOL0     H22243   5.155   4.345   3.908  0.7173  1.3163  0.3114
  906MOL0     H22244   5.207   4.183   3.744 -0.4188  1.7530  0.9452
  906MOL0     H22245   5.446   3.896   3.846 -0.7451  1.6052  1.2789
  906MOL0     H22246   5.295   3.898   3.751 -0.1261  0.6633  2.3220
  906MOL0     H22247   5.431   3.872   3.545 -0.8102 -2.7720 -0.4878
  906MOL0     H22248   5.426   3.728   3.642  0.8997 -0.5551 -1.4595
  906MOL0     H22249   5.638   3.805   3.769 -1.1913  5.2803  0.7852
  906MOL0     H22250   5.664   3.923   3.649 -0.0723  0.9893  0.8248
  906MOL0     H22251   5.605   3.647   3.530  2.1788 -0.9605 -2.1274
  906MOL0     H22252   5.700   3.777   3.477 -2.3764  2.9609  2.3014
  906MOL0     H22253   5.876   3.710   3.644 -0.1778 -1.2780  0.7918
  906MOL0     H22254   5.766   3.611   3.733  2.0575  0.4648  1.2106
  906MOL0     H22255   5.930   3.484   3.616  0.9689 -0.8448  1.0556
  906MOL0     H22256   5.772   3.438   3.545  1.9702 -0.5000  0.6305
  906MOL0     H22257   5.963   3.628   3.408  0.2877  0.6742 -0.1981
  906MOL0     H22258   5.813   3.543   3.350  1.3181  0.2215 -0.8415
  906MOL0     H22259   6.055   3.451   3.276  1.5343 -3.0949  0.6129
  906MOL0     H22260   6.059   3.384   3.440 -0.8696  0.2286  0.8211
  906MOL0     H22261   5.855   3.199   3.497  1.2818 -0.2864 -0.3118
  906MOL0     H22262   5.676   3.029   3.438 -1.3260  0.5081  0.2200
  906MOL0     H22263   5.586   3.047   3.281  0.4059  1.0656 -0.3236
  906MOL0     H22264   5.691   2.807   3.292  0.4345  1.0574  1.5534
  906MOL0     H22265   5.707   2.901   3.150 -0.1075 -1.5038  0.0523
  906MOL0     H22266   5.923   2.888   3.366  1.4583  0.1198 -0.2958
  906MOL0     H22267   5.936   2.960   3.211  4.3212  0.3946  3.8203
  906MOL0     H22268   5.927   2.742   3.107 -2.1866 -0.6638  0.1721
  906MOL0     H22269   5.877   2.650   3.247 -1.6827  2.0816  2.3401
  906MOL0     H22270   6.087   2.462   3.195 -1.4048 -2.1654 -3.7369
  906MOL0     H22271   6.192   2.378   3.010  1.7082 -0.2542  1.6188
  906MOL0     H22272   6.638   2.435   2.652  0.0759  1.0044  0.2370
  906MOL0     H22273   6.672   2.368   2.424 -0.7199 -0.7906  0.9092
  906MOL0     H22274   6.720   2.479   2.184  1.5436 -0.8905  0.0094
  906MOL0     H22275   6.667   2.315   2.173  2.2853  1.9933 -0.1734
  906MOL0     H22276   6.707   2.378   1.953 -1.6232 -3.8167 -0.9501
  906MOL0     H22277   6.533   2.357   1.980  0.7704 -0.6185 -3.0465
  906MOL0     H22278   6.511   2.610   1.999  0.1250  0.8801 -1.4526
  906MOL0     H22279   6.691   2.614   1.984  2.6489 -3.9205 -0.0092
  906MOL0     H22280   6.695   2.566   1.762  0.0156  0.0399 -0.7171
  906MOL0     H22281   6.574   2.693   1.793 -1.7027 -0.7199  0.3314
  906MOL0     H22282   6.540   2.392   1.720  2.7810  0.5170  1.0600
  906MOL0     H22283   6.510   2.542   1.623  0.5963  2.2257 -0.3123
  906MOL0     H22284   6.354   2.454   1.873 -2.5355  0.6615 -0.6309
  906MOL0     H22285   6.354   2.613   1.803  2.6854  0.6655 -0.3957
  906MOL0     H22286   6.302   2.398   1.602  0.8329 -0.2066  0.2056
  906MOL0     H22287   6.196   2.533   1.639 -0.2865  0.2897 -0.3761
  906MOL0     H22288   6.153   2.383   1.855 -1.5661  1.3169  0.3377
  906MOL0     H22289   6.077   2.352   1.696  2.2454  4.1423 -3.5730
  906MOL0     H22290   6.304   2.553   2.309 -0.0600 -0.1338  0.3376
  906MOL0     H22291   6.273   2.632   2.546  1.5759  2.4678  0.1219
  906MOL0     H22292   6.338   2.766   2.900  1.9528 -1.9792 -0.1809
  906MOL0     H22293   6.215   2.868   3.085  0.2428  0.1054 -1.3629
  906MOL0     H22294   5.559   4.075   3.946  1.4075  2.2133  0.3976
  906MOL0     H22295   5.514   4.224   4.120  1.2094  1.5320 -0.7681
  906MOL0     H22296   5.011   4.662   4.106 -0.5943  0.2470 -0.2302
  906MOL0     H22297   4.870   4.754   4.291 -1.5958 -1.7997  3.2703
  906MOL0     H22298   4.738   4.708   4.474 -3.0507  3.3369  0.6331
  906MOL0     H22299   4.786   4.873   4.460 -2.2491 -0.2257  0.0997
  906MOL0     H22300   4.812   4.876   4.709 -1.8902  2.6262 -0.5642
  906MOL0     H22301   4.709   4.724   4.715  0.8420 -0.8277  0.0810
  906MOL0     H22302   4.540   4.864   4.577 -1.2692  0.2408  1.3751
  906MOL0     H22303   4.636   5.013   4.606 -2.3768 -0.1573 -0.5320
  906MOL0     H22304   4.618   4.992   4.847 -1.9863 -0.1348  1.4488
  906MOL0     H22305   4.452   4.986   4.771 -1.4439 -1.6808  2.1493
  906MOL0     H22306   4.502   4.640   4.993 -0.8461 -1.4054 -1.3187
  906MOL0     H22307   5.139   4.583   4.575 -1.1619  0.0174  0.1589
  906MOL0     H22308   5.343   4.490   4.518  1.7380  1.3101  0.1037
  906MOL0     H22309   5.250   4.350   4.450  0.8954  0.1902 -0.7312
  906MOL0     H22310   5.381   4.429   4.358  1.3336  0.2233  2.4633
  907MOL0     O22311   7.239   4.274   7.853  0.8137 -0.2967  0.3643
  907MOL0     C22312   7.350   4.319   7.871  0.6624 -0.6198  0.0319
  907MOL0     O22313   7.464   4.255   7.832  0.2249 -0.3714 -0.4632
  907MOL0     C22314   7.454   4.141   7.754 -0.0403  0.4513 -0.0901
  907MOL0     C22315   7.430   4.147   7.618 -0.7323 -0.9466 -0.4265
  907MOL0     C22316   7.458   4.039   7.535 -0.0122 -0.1765  0.1793
  907MOL0     C22317   7.489   3.912   7.586  0.0952  0.4381 -0.2068
  907MOL0     O22318   7.513   3.798   7.509  0.5943 -0.6780  0.9406
  907MOL0     C22319   7.442   3.776   7.384 -0.1949  0.2877 -0.0257
  907MOL0     C22320   7.368   3.657   7.345  0.1767 -0.0815  0.2112
  907MOL0     C22321   7.243   3.652   7.421  0.2127 -0.0643 -0.1082
  907MOL0     C22322   7.146   3.557   7.354 -0.1182 -0.1477  0.5973
  907MOL0     C22323   7.068   3.633   7.237  0.7901 -0.1871 -0.2748
  907MOL0     C22324   6.997   3.531   7.143 -0.0121  0.0931  0.5130
  907MOL0     C22325   6.858   3.491   7.196 -0.5151  0.6771 -0.6016
  907MOL0     C22326   6.786   3.398   7.087 -1.0558 -0.2233  0.7234
  907MOL0     N22327   6.727   3.466   6.968 -0.0237  0.1780  0.6099
  907MOL0     C22328   6.658   3.584   6.954  0.8156  0.0038 -0.9486
  907MOL0     C22329   6.636   3.594   6.821  0.4014 -0.0371  0.6905
  907MOL0     C22330   6.547   3.693   6.752 -0.0989  0.0152  0.5358
  907MOL0     C22331   6.589   3.837   6.780  0.4654  1.4733  0.5764
  907MOL0     C22332   6.553   3.927   6.652 -0.2221  0.3986  0.0888
  907MOL0     C22333   6.626   4.062   6.652 -0.0221 -0.8384 -0.6432
  907MOL0     O22334   6.615   4.121   6.787 -0.1484 -0.0495 -0.2420
  907MOL0     C22335   6.663   4.248   6.813 -0.7633  0.2888  1.1418
  907MOL0     C22336   6.698   4.335   6.710 -0.2999  0.4648 -0.1438
  907MOL0     C22337   6.730   4.467   6.742 -0.6115  0.5608  1.0315
  907MOL0     C22338   6.752   4.515   6.874 -0.4545 -0.2928  0.7456
  907MOL0     C22339   6.803   4.649   6.906  1.1556  0.4317 -0.7486
  907MOL0     O22340   6.826   4.741   6.804 -0.4033  0.0466  0.2692
  907MOL0     C22341   6.888   4.860   6.833  0.1881  0.9841  0.5051
  907MOL0     C22342   7.026   4.870   6.855 -0.6833 -0.0542 -0.5324
  907MOL0     C22343   7.096   4.991   6.839 -0.0456  0.2349  0.9350
  907MOL0     C22344   7.029   5.105   6.800  0.3691 -0.6728  0.3868
  907MOL0     O22345   7.096   5.217   6.788  0.2684 -0.5024  0.1626
  907MOL0     C22346   7.051   5.311   6.687  0.3183  0.0453 -0.1554
  907MOL0     C22347   7.176   5.395   6.644  0.4782 -0.1428 -0.0694
  907MOL0     C22348   7.254   5.326   6.531  0.2131  0.1825  0.4377
  907MOL0     C22349   7.396   5.387   6.514 -0.4983  0.5643 -0.3437
  907MOL0     C22350   7.463   5.314   6.404  0.4360  0.2808  1.0056
  907MOL0     C22351   7.610   5.295   6.405 -0.0721  0.9933  0.2430
  907MOL0     C22352   7.695   5.428   6.402 -0.3374  0.4487 -0.1360
  907MOL0     C22353   7.845   5.408   6.430 -0.1247 -0.2470  0.1760
  907MOL0    Cl22354   7.921   5.291   6.312 -0.5273 -0.1681 -0.8884
  907MOL0     C22355   6.887   5.093   6.767  0.5316  0.9041 -1.1701
  907MOL0     C22356   6.818   4.975   6.802 -0.4141  0.5499  0.9325
  907MOL0     O22357   6.828   4.668   7.026  0.2223  0.2995 -0.0315
  907MOL0     C22358   6.713   4.423   6.973  0.3746 -0.5700  0.4111
  907MOL0     C22359   6.676   4.289   6.944 -0.1158  0.0532  0.1612
  907MOL0     N22360   6.696   3.488   6.759 -0.4170  0.2084 -0.1105
  907MOL0     N22361   6.751   3.404   6.845  0.4807 -0.1760  0.0657
  907MOL0     C22362   7.507   3.900   7.727 -0.5064 -0.4020 -0.7800
  907MOL0     C22363   7.482   4.013   7.810 -0.0573  0.6837  0.6918
  907MOL0     C22364   7.367   4.447   7.948 -0.5484 -0.7223 -0.7644
  907MOL0     C22365   7.473   4.445   8.036  0.4611 -0.0198  0.5734
  907MOL0     C22366   7.497   4.556   8.124 -0.4249 -0.3618 -0.2089
  907MOL0     C22367   7.423   4.672   8.124  0.2729  0.2600 -0.3908
  907MOL0     O22368   7.432   4.786   8.205 -0.6107  0.3788  0.0557
  907MOL0     C22369   7.549   4.807   8.283  0.2453 -0.4066  0.5233
  907MOL0     C22370   7.560   4.950   8.337  0.6671 -0.6038  0.8282
  907MOL0     C22371   7.435   4.999   8.411 -0.3362  0.4322  0.2931
  907MOL0     C22372   7.438   5.151   8.440 -0.5954  0.3617 -0.0270
  907MOL0     C22373   7.346   5.190   8.545  0.8351 -0.3292 -0.5972
  907MOL0     C22374   7.260   5.247   8.608  0.4533  0.5021  0.1055
  907MOL0     C22375   7.317   4.670   8.034 -0.0765 -0.1056 -0.6317
  907MOL0     C22376   7.284   4.561   7.945  0.9969 -0.0612 -0.1788
  907MOL0     C22377   7.156   4.572   7.864 -0.2837  0.8376 -0.3632
  907MOL0     H22378   7.393   4.245   7.589 -5.1979 -1.8589  1.3437
  907MOL0     H22379   7.456   4.048   7.427  1.2183 -2.1641 -0.0488
  907MOL0     H22380   7.385   3.867   7.363 -2.5201 -0.5619  2.1889
  907MOL0     H22381   7.526   3.775   7.313 -2.4722 -4.7666 -3.2820
  907MOL0     H22382   7.422   3.562   7.352  0.8476  0.3252  0.5769
  907MOL0     H22383   7.349   3.674   7.239  0.3778 -1.9057 -0.1472
  907MOL0     H22384   7.207   3.755   7.423 -0.8910 -0.4348  2.0287
  907MOL0     H22385   7.265   3.606   7.518 -0.0221 -0.7279 -0.3607
  907MOL0     H22386   7.206   3.473   7.316  0.6662  1.7381 -2.7370
  907MOL0     H22387   7.075   3.529   7.432 -0.2279  2.5313  1.5654
  907MOL0     H22388   6.999   3.705   7.282 -0.2467 -0.4397 -1.3909
  907MOL0     H22389   7.143   3.686   7.179  1.4372 -0.2255  0.5006
  907MOL0     H22390   6.987   3.591   7.052 -0.0016  2.4686  2.0102
  907MOL0     H22391   7.062   3.446   7.120 -0.1483 -0.0962  0.8178
  907MOL0     H22392   6.797   3.582   7.204  1.3264  1.8770  0.6215
  907MOL0     H22393   6.862   3.439   7.292 -1.7685 -1.0790 -1.4473
  907MOL0     H22394   6.858   3.322   7.053  1.2244  1.9039  0.4804
  907MOL0     H22395   6.708   3.341   7.138  0.2157 -2.9288 -0.1336
  907MOL0     H22396   6.621   3.659   7.022  3.3315  0.7981 -0.3493
  907MOL0     H22397   6.571   3.682   6.646 -0.3990  2.1091  0.2054
  907MOL0     H22398   6.440   3.672   6.769  0.0422  0.0977  1.6177
  907MOL0     H22399   6.547   3.880   6.871 -2.1550  0.3145  0.0042
  907MOL0     H22400   6.698   3.842   6.790  0.5110  0.3698  0.7509
  907MOL0     H22401   6.444   3.929   6.656 -0.4384 -1.1203 -2.6435
  907MOL0     H22402   6.578   3.894   6.550 -3.4626  0.5734 -0.8706
  907MOL0     H22403   6.594   4.124   6.568 -2.8486 -0.9874  0.2030
  907MOL0     H22404   6.729   4.032   6.630 -0.0203  0.9311 -3.3868
  907MOL0     H22405   6.693   4.301   6.607 -2.6106 -3.5661  1.0679
  907MOL0     H22406   6.739   4.541   6.663  0.4486 -0.7281 -0.0964
  907MOL0     H22407   7.087   4.783   6.876  0.5584  1.2168  1.5083
  907MOL0     H22408   7.203   4.987   6.855 -0.0501  0.0335  0.9190
  907MOL0     H22409   7.022   5.247   6.603  0.1943 -0.2493  0.1102
  907MOL0     H22410   6.973   5.383   6.713  0.0406  0.1157 -1.1495
  907MOL0     H22411   7.156   5.498   6.613 -0.7849 -0.1278  0.7369
  907MOL0     H22412   7.257   5.397   6.719  0.7494 -1.0842 -0.3199
  907MOL0     H22413   7.257   5.219   6.552  0.1813  0.3001  1.0567
  907MOL0     H22414   7.212   5.352   6.434  2.3172  1.5057 -0.1794
  907MOL0     H22415   7.448   5.366   6.608 -1.2809  2.2097  0.4931
  907MOL0     H22416   7.402   5.493   6.488 -0.3142  0.4184 -0.8910
  907MOL0     H22417   7.433   5.363   6.310 -3.2879  0.3383  2.0346
  907MOL0     H22418   7.416   5.217   6.421 -1.3439  1.2844  2.1791
  907MOL0     H22419   7.644   5.232   6.488 -0.2102 -0.2571 -0.6293
  907MOL0     H22420   7.639   5.230   6.322  1.3260  2.8611 -0.8235
  907MOL0     H22421   7.647   5.500   6.469 -2.3662 -2.2875  1.5101
  907MOL0     H22422   7.685   5.479   6.305 -0.8215  1.7537  0.5663
  907MOL0     H22423   7.904   5.499   6.422  0.2053 -0.3233  1.5255
  907MOL0     H22424   7.843   5.358   6.527 -1.4606 -0.2305  0.1738
  907MOL0     H22425   6.830   5.180   6.735 -0.5495  0.0373 -1.6535
  907MOL0     H22426   6.711   4.960   6.796 -0.2834 -0.8474  1.7543
  907MOL0     H22427   6.704   4.469   7.071 -0.3848 -1.7669  0.9273
  907MOL0     H22428   6.646   4.223   7.025 -1.4862 -0.9458 -1.1153
  907MOL0     H22429   7.518   3.797   7.762  1.9183 -0.0961 -0.4641
  907MOL0     H22430   7.499   4.005   7.917  1.3809 -1.7262  0.3771
  907MOL0     H22431   7.542   4.362   8.042  0.6414  0.2148  3.1530
  907MOL0     H22432   7.575   4.558   8.200 -1.6941  1.5217  1.1231
  907MOL0     H22433   7.630   4.795   8.210 -0.1635 -0.4965  0.0740
  907MOL0     H22434   7.554   4.730   8.360  0.7777 -1.8933 -0.9293
  907MOL0     H22435   7.588   5.014   8.252 -2.4636 -2.9066 -2.2199
  907MOL0     H22436   7.641   4.944   8.411  0.9153  0.5158  0.6788
  907MOL0     H22437   7.399   4.942   8.497 -2.2228 -0.0018 -0.7041
  907MOL0     H22438   7.355   4.985   8.336 -0.2194 -0.5070  0.3349
  907MOL0     H22439   7.541   5.174   8.470  0.1044 -0.5419 -1.6119
  907MOL0     H22440   7.405   5.206   8.352  1.2590  0.4205 -0.7380
  907MOL0     H22441   7.183   5.305   8.653  0.9763  0.0641  1.6411
  907MOL0     H22442   7.253   4.757   8.035 -0.7532 -0.5839 -1.2552
  907MOL0     H22443   7.175   4.549   7.759  0.5328 -1.6201  0.2716
  907MOL0     H22444   7.086   4.491   7.890 -0.0654  0.6182 -0.4560
  907MOL0     H22445   7.116   4.673   7.877  1.1157  1.7483 -2.6297
  908MOL0     O22446   1.863   5.384   8.130  0.9422 -0.6388 -0.4621
  908MOL0     C22447   1.983   5.427   8.144  0.6654 -0.1808 -0.3197
  908MOL0     O22448   2.019   5.561   8.163 -0.1458  0.0456  0.8776
  908MOL0     C22449   1.924   5.654   8.190 -0.3627  0.9054 -0.0136
  908MOL0     C22450   1.872   5.672   8.320  0.0321 -0.3702 -1.0879
  908MOL0     C22451   1.785   5.776   8.338  0.2932  0.7604 -0.6875
  908MOL0     C22452   1.737   5.855   8.242 -0.7298 -0.2139  0.2872
  908MOL0     O22453   1.651   5.953   8.282  0.0770 -0.5431  0.9937
  908MOL0     C22454   1.615   6.060   8.192 -0.4371 -0.0033 -0.2403
  908MOL0     C22455   1.720   6.175   8.166 -0.2968  0.2491  0.1962
  908MOL0     C22456   1.760   6.242   8.300 -0.5843  0.2894  1.1264
  908MOL0     C22457   1.848   6.365   8.285 -0.5592 -0.7107 -0.1122
  908MOL0     C22458   1.898   6.421   8.416 -0.7192  0.7511  0.0008
  908MOL0     C22459   1.985   6.328   8.503  0.4071 -0.7800  0.1599
  908MOL0     C22460   2.022   6.388   8.642  0.4718  0.1529  0.1263
  908MOL0     C22461   2.102   6.520   8.635  0.8700 -0.1773 -0.3283
  908MOL0     N22462   2.217   6.517   8.538  0.6346 -0.5208 -0.2161
  908MOL0     C22463   2.304   6.414   8.537 -0.8656  0.2138 -0.8496
  908MOL0     C22464   2.385   6.427   8.427  0.9921  0.3511 -0.0924
  908MOL0     C22465   2.501   6.340   8.390  0.0179 -0.1906 -0.2491
  908MOL0     C22466   2.473   6.290   8.248  0.1413  0.2754  0.3056
  908MOL0     C22467   2.403   6.146   8.255 -0.5842 -1.2470 -1.1940
  908MOL0     C22468   2.487   6.028   8.307  1.2717  0.2276 -0.5540
  908MOL0     O22469   2.416   5.903   8.287  0.6819 -0.2720 -0.1919
  908MOL0     C22470   2.341   5.844   8.388 -0.6674  0.1056 -0.7072
  908MOL0     C22471   2.306   5.908   8.502 -0.2792  0.1117  0.2587
  908MOL0     C22472   2.220   5.849   8.596  0.2297 -0.1580  0.2706
  908MOL0     C22473   2.177   5.720   8.578 -0.0185  1.1347 -0.5413
  908MOL0     C22474   2.083   5.648   8.678  0.5728 -0.2812  0.8064
  908MOL0     O22475   2.040   5.514   8.661  0.2117 -0.4560  0.1620
  908MOL0     C22476   1.922   5.473   8.721  1.0355  0.6938 -0.6946
  908MOL0     C22477   1.793   5.506   8.670  0.0380 -0.2074  0.3574
  908MOL0     C22478   1.675   5.442   8.705  0.3780  0.1545  0.1383
  908MOL0     C22479   1.682   5.341   8.798 -0.8846 -0.2524  0.1283
  908MOL0     O22480   1.582   5.258   8.840  0.2911 -0.7953  0.1045
  908MOL0     C22481   1.442   5.289   8.812  0.1472  0.3241 -0.7008
  908MOL0     C22482   1.345   5.190   8.871 -0.1100  0.2451  0.5786
  908MOL0     C22483   1.208   5.223   8.815 -0.3627 -0.8052  0.8581
  908MOL0     C22484   1.097   5.151   8.875 -0.2303  0.8623  0.2531
  908MOL0     C22485   0.959   5.166   8.823 -0.1216  0.3916  0.5304
  908MOL0     C22486   0.907   5.311   8.833  0.7649  0.3373 -0.0634
  908MOL0     C22487   0.762   5.318   8.788  0.9365 -0.1426 -0.5265
  908MOL0     C22488   0.661   5.247   8.873  0.2250 -0.9824  0.8286
  908MOL0    Cl22489   0.674   5.253   9.048  0.0041 -0.0958  0.1541
  908MOL0     C22490   1.809   5.319   8.867  0.5600 -0.0857  0.6173
  908MOL0     C22491   1.923   5.384   8.826 -1.0565  0.1041  0.5252
  908MOL0     O22492   2.033   5.723   8.758  0.5301 -0.3594 -0.1721
  908MOL0     C22493   2.214   5.652   8.469  0.3039  0.5737  0.0140
  908MOL0     C22494   2.299   5.713   8.373 -0.4401 -0.5623 -0.2423
  908MOL0     N22495   2.331   6.531   8.351 -0.3219  0.2725  0.1238
  908MOL0     N22496   2.236   6.590   8.423 -0.1023 -0.2346  0.2804
  908MOL0     C22497   1.796   5.837   8.114 -0.0788  0.7086 -0.0346
  908MOL0     C22498   1.890   5.741   8.091  0.2695  0.2847  1.0326
  908MOL0     C22499   2.089   5.328   8.160 -0.5146  0.7395  0.4492
  908MOL0     C22500   2.054   5.230   8.270 -0.4679 -0.1323  0.3437
  908MOL0     C22501   2.146   5.142   8.320 -0.6361 -0.7659  0.6135
  908MOL0     C22502   2.272   5.148   8.276 -0.5788 -0.0172 -0.1230
  908MOL0     O22503   2.376   5.065   8.314  0.2134  0.5513 -0.2470
  908MOL0     C22504   2.356   4.946   8.392  0.0310  0.1205 -0.6948
  908MOL0     C22505   2.292   4.832   8.306 -0.0067 -0.3763 -1.0717
  908MOL0     C22506   2.134   4.814   8.324 -0.1763  0.6464 -0.1912
  908MOL0     C22507   2.079   4.680   8.294 -0.7692  0.6509 -0.0981
  908MOL0     C22508   2.140   4.582   8.389  1.0296 -0.1735  0.9982
  908MOL0     C22509   2.184   4.491   8.455  0.7064 -0.8639 -0.4267
  908MOL0     C22510   2.311   5.237   8.180 -0.3044 -0.4137  0.7198
  908MOL0     C22511   2.222   5.332   8.123 -0.0568  0.2832  0.1837
  908MOL0     C22512   2.282   5.447   8.040 -0.6812 -0.4095 -0.0140
  908MOL0     H22513   1.905   5.606   8.399 -0.6797 -0.5983 -0.9789
  908MOL0     H22514   1.747   5.787   8.440 -0.1447  1.2929 -0.9010
  908MOL0     H22515   1.568   6.026   8.099  1.4147 -4.8731  0.3289
  908MOL0     H22516   1.531   6.104   8.246  0.9061 -1.5678  3.4346
  908MOL0     H22517   1.679   6.252   8.100  0.2515 -0.2139 -0.7103
  908MOL0     H22518   1.801   6.135   8.103 -2.0228  0.6031 -2.4028
  908MOL0     H22519   1.817   6.163   8.350  0.7971  0.4143 -0.1720
  908MOL0     H22520   1.672   6.273   8.357  0.3411  0.3845  2.5500
  908MOL0     H22521   1.938   6.337   8.230  0.5683  1.2884  0.6131
  908MOL0     H22522   1.794   6.444   8.231  0.5418  0.5720  0.6127
  908MOL0     H22523   1.971   6.498   8.390  1.8391 -1.2959  0.7151
  908MOL0     H22524   1.812   6.456   8.474  0.4942 -0.5085  2.7036
  908MOL0     H22525   1.926   6.236   8.514 -0.3609 -0.4925 -1.3663
  908MOL0     H22526   2.077   6.290   8.457 -0.7442 -2.4601 -0.8533
  908MOL0     H22527   2.063   6.311   8.707 -0.8232 -0.7699 -0.1254
  908MOL0     H22528   1.925   6.417   8.685  2.0230  1.0401  3.3027
  908MOL0     H22529   2.037   6.600   8.596 -1.9555 -0.9489  2.3394
  908MOL0     H22530   2.142   6.538   8.736  1.1311  1.3038 -0.6715
  908MOL0     H22531   2.321   6.341   8.615  2.5120  0.5346 -1.1232
  908MOL0     H22532   2.592   6.400   8.399 -0.2815  0.6564 -2.3503
  908MOL0     H22533   2.493   6.262   8.466  0.2058  1.2408  1.3151
  908MOL0     H22534   2.408   6.350   8.183  1.0525 -0.8697 -1.7858
  908MOL0     H22535   2.570   6.281   8.198  0.5643 -0.7978  1.2750
  908MOL0     H22536   2.378   6.125   8.150  3.0914 -2.3638 -1.9867
  908MOL0     H22537   2.320   6.159   8.324 -0.6970 -0.8986 -1.3935
  908MOL0     H22538   2.505   6.046   8.414 -0.4910  1.8263 -0.4693
  908MOL0     H22539   2.580   6.023   8.249  0.5298 -2.3595 -1.6652
  908MOL0     H22540   2.321   6.016   8.498  3.9840 -0.3374 -1.5837
  908MOL0     H22541   2.188   5.909   8.680  1.4323 -1.4089  1.6733
  908MOL0     H22542   1.792   5.580   8.590 -1.1572 -1.4124 -0.7988
  908MOL0     H22543   1.578   5.465   8.664  0.1149 -1.7137 -0.3721
  908MOL0     H22544   1.420   5.390   8.846  0.4855 -0.8231  3.3699
  908MOL0     H22545   1.433   5.277   8.703  4.0929  0.1715 -1.1925
  908MOL0     H22546   1.380   5.089   8.849 -1.8586 -1.0914  3.4452
  908MOL0     H22547   1.339   5.196   8.980 -1.1488  3.1952  0.4558
  908MOL0     H22548   1.201   5.332   8.813  0.7699 -0.6885 -2.1566
  908MOL0     H22549   1.202   5.205   8.707 -1.8351  2.5470  0.2519
  908MOL0     H22550   1.103   5.195   8.975 -0.9414 -0.0749  0.7169
  908MOL0     H22551   1.121   5.045   8.881  0.0187  0.9978  2.3173
  908MOL0     H22552   0.898   5.097   8.883  0.7487 -1.4583 -0.6334
  908MOL0     H22553   0.946   5.139   8.718  0.1812 -4.1733  1.4565
  908MOL0     H22554   0.903   5.347   8.936 -4.5517 -0.8566  0.4189
  908MOL0     H22555   0.975   5.373   8.772  0.7518  2.0008  1.5146
  908MOL0     H22556   0.763   5.277   8.686 -1.4745 -0.2923 -0.5581
  908MOL0     H22557   0.721   5.418   8.771 -1.8923 -1.1728 -0.4261
  908MOL0     H22558   0.563   5.277   8.835  0.6037 -0.4522  0.2414
  908MOL0     H22559   0.677   5.139   8.866 -1.9084 -1.2409 -2.8746
  908MOL0     H22560   1.809   5.245   8.947  1.4538  0.0709  0.7714
  908MOL0     H22561   2.014   5.344   8.870 -0.7656 -0.8632 -0.8829
  908MOL0     H22562   2.174   5.553   8.452 -3.6365  1.9628  0.2212
  908MOL0     H22563   2.338   5.653   8.291 -0.9584 -2.5751  0.8987
  908MOL0     H22564   1.753   5.891   8.030 -0.2465 -3.3090 -2.8127
  908MOL0     H22565   1.931   5.719   7.993  0.0383 -1.1462  1.2358
  908MOL0     H22566   1.949   5.221   8.297 -0.4167 -0.1478  0.5343
  908MOL0     H22567   2.110   5.071   8.394 -0.7461  1.3241  2.6520
  908MOL0     H22568   2.287   4.961   8.475  0.5946  0.0572 -0.2067
  908MOL0     H22569   2.452   4.913   8.432  0.4092 -0.3747 -1.9389
  908MOL0     H22570   2.334   4.732   8.325  0.4529 -0.3053 -1.6755
  908MOL0     H22571   2.307   4.846   8.198 -3.4828 -1.4807 -1.8208
  908MOL0     H22572   2.091   4.887   8.255  0.1808  1.3975  0.3601
  908MOL0     H22573   2.109   4.835   8.429  1.4354 -2.3338  0.9265
  908MOL0     H22574   1.972   4.667   8.309 -0.7445  0.9089  0.3159
  908MOL0     H22575   2.119   4.667   8.192  1.8359  0.4154  0.8608
  908MOL0     H22576   2.214   4.403   8.508 -2.5050 -2.3290 -0.8252
  908MOL0     H22577   2.417   5.237   8.157 -0.6048  2.0257 -1.1081
  908MOL0     H22578   2.379   5.414   8.002  1.1459  2.9128  1.3130
  908MOL0     H22579   2.212   5.474   7.960  0.5052  1.4514 -0.5045
  908MOL0     H22580   2.307   5.533   8.103 -2.7446  1.2478 -1.3190
  909MOL0     O22581   7.645   5.891   6.647  0.4986  0.1245  0.1916
  909MOL0     C22582   7.669   5.880   6.769 -0.2701 -0.3034 -0.5982
  909MOL0     O22583   7.568   5.874   6.866  0.4834 -0.7242  0.4536
  909MOL0     C22584   7.446   5.892   6.816 -0.8764 -0.9832  0.5470
  909MOL0     C22585   7.391   5.783   6.750  1.0150 -0.0721 -0.0307
  909MOL0     C22586   7.272   5.803   6.672 -0.4573  0.4197  0.7364
  909MOL0     C22587   7.199   5.919   6.687  0.7935 -0.3691 -0.0785
  909MOL0     O22588   7.079   5.928   6.617 -0.6928 -0.1597  0.1969
  909MOL0     C22589   7.047   6.057   6.568  0.0635  0.0017  0.0574
  909MOL0     C22590   7.117   6.096   6.438 -0.1225  0.5918 -0.5349
  909MOL0     C22591   7.088   5.997   6.330 -0.6419  0.1635 -0.6487
  909MOL0     C22592   7.171   6.035   6.204 -0.1169 -0.2672  0.0450
  909MOL0     C22593   7.179   5.936   6.090  0.4004  0.1246  0.1127
  909MOL0     C22594   7.043   5.895   6.029 -0.6694 -0.3731 -0.5354
  909MOL0     C22595   7.035   5.793   5.916  0.9063 -0.2375 -0.2089
  909MOL0     C22596   7.112   5.829   5.785  0.1211  0.9426  0.4705
  909MOL0     N22597   7.056   5.771   5.665 -0.3922 -0.0819 -0.6839
  909MOL0     C22598   6.965   5.823   5.583  0.1053  0.2052  0.1957
  909MOL0     C22599   6.936   5.721   5.503 -0.0744 -0.4468  0.0106
  909MOL0     C22600   6.837   5.737   5.392  1.0048  0.3863  0.7778
  909MOL0     C22601   6.707   5.649   5.423  0.2054  0.8727  0.4829
  909MOL0     C22602   6.597   5.701   5.332  1.1643  0.1973  0.4165
  909MOL0     C22603   6.454   5.662   5.374  0.2602  0.6198  0.3352
  909MOL0     O22604   6.429   5.695   5.510 -0.1959  0.1760  0.0295
  909MOL0     C22605   6.306   5.737   5.541  0.2031 -0.1992  0.1003
  909MOL0     C22606   6.287   5.836   5.643  0.6950  0.1381 -0.1460
  909MOL0     C22607   6.154   5.876   5.673 -0.4402  0.5203 -0.3259
  909MOL0     C22608   6.040   5.821   5.609 -0.0029  0.5410 -1.4703
  909MOL0     C22609   5.904   5.869   5.626 -0.0269 -0.1462 -1.0701
  909MOL0     O22610   5.864   5.889   5.752  0.1994 -0.2264 -0.0766
  909MOL0     C22611   5.756   5.968   5.792 -0.2232  0.9898 -0.3225
  909MOL0     C22612   5.718   5.937   5.925  0.9812 -0.4344  0.7068
  909MOL0     C22613   5.602   5.990   5.988  0.4761 -1.0881 -0.2451
  909MOL0     C22614   5.521   6.084   5.920 -0.6952 -0.3371 -0.4249
  909MOL0     O22615   5.414   6.128   5.988 -0.2779 -0.3752  0.0616
  909MOL0     C22616   5.290   6.115   5.921  0.5000 -0.0743  0.0108
  909MOL0     C22617   5.166   6.148   6.018 -0.1818  0.6439 -0.1427
  909MOL0     C22618   5.123   6.023   6.096 -0.4998 -0.7101  0.2234
  909MOL0     C22619   5.213   5.974   6.207 -0.0080 -0.8508  1.2481
  909MOL0     C22620   5.159   5.842   6.276 -1.0204 -0.5694  0.1993
  909MOL0     C22621   5.152   5.712   6.194  1.2716 -0.1171  0.0648
  909MOL0     C22622   5.292   5.658   6.174 -0.4847 -0.1864 -0.5804
  909MOL0     C22623   5.286   5.512   6.105  0.6445 -0.0685  0.6376
  909MOL0    Cl22624   5.260   5.396   6.237  0.2762  0.3507 -0.1907
  909MOL0     C22625   5.558   6.110   5.785  0.5291 -0.8422 -0.1774
  909MOL0     C22626   5.667   6.055   5.725 -0.4195 -0.1151  1.1061
  909MOL0     O22627   5.834   5.898   5.529  0.0264  0.6126 -0.6098
  909MOL0     C22628   6.061   5.726   5.510 -0.2597 -1.2074  0.3120
  909MOL0     C22629   6.193   5.686   5.480  0.4573 -0.1599 -0.1311
  909MOL0     N22630   7.005   5.611   5.531 -0.7253  0.0954 -0.4267
  909MOL0     N22631   7.074   5.639   5.640 -0.4693  0.2183 -0.1428
  909MOL0     C22632   7.240   6.015   6.784  0.1832  0.4522 -0.5318
  909MOL0     C22633   7.372   6.005   6.834 -0.4235 -0.5522 -0.3246
  909MOL0     C22634   7.805   5.865   6.825  0.0181  0.2690  0.3161
  909MOL0     C22635   7.820   5.841   6.965  0.5314 -0.8181  0.3753
  909MOL0     C22636   7.939   5.835   7.037 -0.1141 -0.0908 -0.4277
  909MOL0     C22637   8.059   5.860   6.967  1.0586 -0.4114  0.1226
  909MOL0     O22638   8.177   5.867   7.039  0.1171 -0.4268 -0.0793
  909MOL0     C22639   8.299   5.821   6.980 -0.5396 -0.0752 -0.1774
  909MOL0     C22640   8.421   5.820   7.067  0.2745 -0.1037  0.0200
  909MOL0     C22641   8.455   5.955   7.135 -0.4527  0.2362 -0.8459
  909MOL0     C22642   8.585   5.941   7.216 -0.0077  0.8973  0.1791
  909MOL0     C22643   8.583   6.004   7.348 -0.1074  0.7019 -0.1580
  909MOL0     C22644   8.583   6.054   7.460  0.6941  0.8081 -0.4737
  909MOL0     C22645   8.055   5.895   6.832  0.6452  0.1432 -0.3787
  909MOL0     C22646   7.931   5.894   6.754  0.9076  0.9490 -0.8214
  909MOL0     C22647   7.941   5.912   6.607  0.1212 -1.1930  0.1558
  909MOL0     H22648   7.445   5.689   6.748  0.2298 -0.5246 -0.9246
  909MOL0     H22649   7.234   5.743   6.590  2.4261 -1.2557  0.4949
  909MOL0     H22650   6.940   6.047   6.547 -0.3204  0.4758  1.6290
  909MOL0     H22651   7.050   6.136   6.643 -2.6581 -1.3209  1.7237
  909MOL0     H22652   7.222   6.107   6.466 -0.8586  0.1615  2.7526
  909MOL0     H22653   7.082   6.192   6.397  1.1477  0.4447 -2.0562
  909MOL0     H22654   6.980   6.001   6.316 -1.0415 -2.5587  0.9469
  909MOL0     H22655   7.125   5.898   6.360  2.4994  1.7738  1.4231
  909MOL0     H22656   7.138   6.132   6.164 -0.7340 -0.6773 -0.4683
  909MOL0     H22657   7.270   6.036   6.250 -0.2508  0.7581  0.3437
  909MOL0     H22658   7.231   5.976   6.003 -1.3025  0.2282 -0.9137
  909MOL0     H22659   7.226   5.842   6.121 -2.0182 -0.8561  1.0250
  909MOL0     H22660   6.983   5.840   6.102  1.3602 -0.2141  1.3455
  909MOL0     H22661   6.993   5.986   5.995 -0.4218 -0.6843 -1.8148
  909MOL0     H22662   6.930   5.789   5.887  0.5498  0.1743  0.9766
  909MOL0     H22663   7.071   5.699   5.959  0.0257  0.5463  2.5074
  909MOL0     H22664   7.112   5.938   5.773 -1.9963  1.5725  4.3957
  909MOL0     H22665   7.218   5.804   5.790  0.0686  0.5830 -0.1563
  909MOL0     H22666   6.916   5.920   5.585  1.6419  1.0170  0.6532
  909MOL0     H22667   6.813   5.841   5.370  2.6552  0.3631 -1.5116
  909MOL0     H22668   6.874   5.692   5.299 -1.7101  1.5628 -1.0132
  909MOL0     H22669   6.728   5.542   5.412  0.1499  0.9116 -0.0421
  909MOL0     H22670   6.676   5.670   5.526 -1.4976  2.5520 -0.2974
  909MOL0     H22671   6.603   5.644   5.238 -3.5037  0.8113 -0.5333
  909MOL0     H22672   6.606   5.808   5.312  0.1707 -0.0959 -2.0797
  909MOL0     H22673   6.443   5.553   5.366 -2.7575  0.7314  1.6642
  909MOL0     H22674   6.394   5.712   5.298  1.2803  1.3951  0.0159
  909MOL0     H22675   6.377   5.868   5.694  1.5868 -2.1903 -0.1050
  909MOL0     H22676   6.142   5.961   5.739  2.9823  3.7078 -3.3586
  909MOL0     H22677   5.779   5.873   5.988  1.7685  0.4958  0.9255
  909MOL0     H22678   5.565   5.970   6.088  2.8021  1.2449  1.1949
  909MOL0     H22679   5.292   6.189   5.840 -0.6918  1.0441  0.9641
  909MOL0     H22680   5.287   6.014   5.878 -0.0498  0.2557 -0.7661
  909MOL0     H22681   5.200   6.234   6.076  0.7712  1.3424 -1.6609
  909MOL0     H22682   5.083   6.190   5.959  1.4214  3.5415 -0.5195
  909MOL0     H22683   5.038   6.059   6.154  0.7056  1.4813  0.7177
  909MOL0     H22684   5.089   5.944   6.028 -0.0422  0.3939 -1.3284
  909MOL0     H22685   5.228   6.051   6.283 -3.9562 -0.8819  2.2589
  909MOL0     H22686   5.308   5.953   6.156  0.0041 -2.7722  2.0009
  909MOL0     H22687   5.066   5.839   6.334 -0.3881 -2.6659  1.1957
  909MOL0     H22688   5.238   5.831   6.352 -0.5896  2.1099  0.2405
  909MOL0     H22689   5.092   5.643   6.254 -1.4008  0.5662 -1.6539
  909MOL0     H22690   5.088   5.722   6.106  2.1989  2.2928 -0.4106
  909MOL0     H22691   5.340   5.656   6.272 -0.7721  2.6298 -0.3280
  909MOL0     H22692   5.347   5.728   6.111  0.7452  2.1809  2.8673
  909MOL0     H22693   5.207   5.497   6.031  2.7359 -0.7700 -1.5732
  909MOL0     H22694   5.379   5.491   6.052  0.0665  1.3255 -1.0547
  909MOL0     H22695   5.503   6.176   5.718  1.6665 -0.6684 -0.9561
  909MOL0     H22696   5.678   6.085   5.621 -1.6845 -1.2942  0.5959
  909MOL0     H22697   5.978   5.675   5.462 -1.3665 -0.4958  1.3895
  909MOL0     H22698   6.211   5.606   5.409 -2.1469  2.0950 -3.6493
  909MOL0     H22699   7.176   6.101   6.801 -0.3884  0.1035 -0.8669
  909MOL0     H22700   7.401   6.085   6.901 -5.0528  1.8999 -0.8270
  909MOL0     H22701   7.739   5.817   7.032  0.5435 -0.3916  0.5482
  909MOL0     H22702   7.946   5.818   7.144  2.2106  0.0068 -0.5097
  909MOL0     H22703   8.313   5.879   6.888 -1.5064  0.2703 -0.1150
  909MOL0     H22704   8.284   5.719   6.945  0.6844  0.2332 -1.6935
  909MOL0     H22705   8.500   5.778   7.004 -0.4313 -0.9436 -0.3311
  909MOL0     H22706   8.409   5.741   7.142  0.9674  1.3126  1.6849
  909MOL0     H22707   8.377   5.977   7.209 -0.5986  0.1271 -0.9666
  909MOL0     H22708   8.469   6.030   7.056 -1.5203  1.7625  0.3626
  909MOL0     H22709   8.613   5.836   7.230 -0.6526  0.5216 -1.1487
  909MOL0     H22710   8.660   5.986   7.151 -0.7007  0.3588 -1.0294
  909MOL0     H22711   8.591   6.099   7.557 -1.3460  0.3989 -0.0692
  909MOL0     H22712   8.144   5.920   6.775  0.6330 -3.4589 -2.3174
  909MOL0     H22713   7.925   5.818   6.553  0.6172 -1.6038  0.7155
  909MOL0     H22714   7.869   5.980   6.560 -2.1725 -3.5393  0.0669
  909MOL0     H22715   8.039   5.948   6.575 -0.9823 -0.6815 -3.0006
  910MOL0     O22716   3.812   8.465   4.176  0.3993 -0.3325  0.7093
  910MOL0     C22717   3.771   8.514   4.071  0.4835 -0.2108 -0.2169
  910MOL0     O22718   3.805   8.636   4.003 -0.4970 -0.4744  0.0356
  910MOL0     C22719   3.900   8.733   4.047 -0.6005  0.2936 -0.5500
  910MOL0     C22720   3.911   8.850   3.964  0.4513 -1.2200  0.4501
  910MOL0     C22721   4.002   8.948   4.010 -0.4066 -0.1559 -1.2248
  910MOL0     C22722   4.088   8.935   4.125  1.0792  0.4619  0.3549
  910MOL0     O22723   4.185   9.021   4.170  0.4611  0.4244 -0.0957
  910MOL0     C22724   4.245   9.114   4.076 -0.2630  0.0141  0.2194
  910MOL0     C22725   4.301   9.071   3.941 -0.5082  0.5206 -0.2545
  910MOL0     C22726   4.428   8.978   3.951  1.0942  0.3064  0.8050
  910MOL0     C22727   4.492   8.953   3.808 -0.2226 -0.3847  1.8718
  910MOL0     C22728   4.621   8.870   3.833  0.3232 -0.4241  0.6851
  910MOL0     C22729   4.670   8.803   3.703  0.9240  0.0527 -0.4826
  910MOL0     C22730   4.784   8.705   3.760  0.6893  0.1053 -0.1924
  910MOL0     C22731   4.783   8.601   3.654  0.7318 -0.5980 -0.0942
  910MOL0     N22732   4.874   8.494   3.679 -1.3399 -0.0822 -0.3509
  910MOL0     C22733   4.832   8.359   3.695  0.1159 -0.3587  0.1569
  910MOL0     C22734   4.941   8.286   3.683  0.5890  0.7278  0.0614
  910MOL0     C22735   4.956   8.142   3.698  0.1048  0.4624  0.4742
  910MOL0     C22736   4.832   8.059   3.656  0.0777 -1.0223  0.9016
  910MOL0     C22737   4.843   8.025   3.504 -0.1521 -0.4316  0.0865
  910MOL0     C22738   4.705   7.982   3.438 -0.5451 -0.2530  0.0180
  910MOL0     O22739   4.658   7.857   3.503  0.2849 -0.6777  0.2434
  910MOL0     C22740   4.520   7.825   3.503 -0.4462 -0.1282 -0.2845
  910MOL0     C22741   4.474   7.707   3.562 -0.1081  0.6367 -0.0989
  910MOL0     C22742   4.334   7.690   3.590 -0.0997  0.7072 -0.5619
  910MOL0     C22743   4.241   7.784   3.551  0.2387 -0.1246  0.1131
  910MOL0     C22744   4.104   7.774   3.600 -0.4725 -0.7337  0.0437
  910MOL0     O22745   4.045   7.651   3.633 -0.6164  0.2823  0.3784
  910MOL0     C22746   3.910   7.633   3.677 -0.0111 -0.5598  0.5852
  910MOL0     C22747   3.877   7.499   3.698  0.6296 -0.2370  0.1828
  910MOL0     C22748   3.749   7.460   3.760 -0.0117  0.7803 -0.6235
  910MOL0     C22749   3.650   7.557   3.780  0.5874 -0.2141 -0.1398
  910MOL0     O22750   3.524   7.513   3.817 -0.2035 -0.0912 -0.3499
  910MOL0     C22751   3.448   7.609   3.899  1.2058  0.5577  0.4272
  910MOL0     C22752   3.342   7.529   3.967  0.9109  0.6627 -0.2460
  910MOL0     C22753   3.242   7.621   4.049  0.0529  0.2320 -0.9716
  910MOL0     C22754   3.135   7.543   4.131 -0.8801 -0.3899  0.3435
  910MOL0     C22755   3.193   7.486   4.260  0.2922 -0.2883 -0.1206
  910MOL0     C22756   3.300   7.375   4.251  0.0906 -0.2148 -0.2851
  910MOL0     C22757   3.306   7.304   4.385  0.2794  0.3742 -0.3910
  910MOL0     C22758   3.429   7.214   4.399 -0.4633 -0.0079  0.3078
  910MOL0    Cl22759   3.586   7.313   4.418 -0.4996 -0.4401 -0.1613
  910MOL0     C22760   3.684   7.693   3.742  0.9558  0.1048  0.0485
  910MOL0     C22761   3.806   7.728   3.686 -1.2056 -0.5724 -0.1622
  910MOL0     O22762   4.051   7.884   3.606  0.0685  0.4896  0.4309
  910MOL0     C22763   4.290   7.871   3.456  0.5551  0.0861  0.6578
  910MOL0     C22764   4.421   7.896   3.439  0.8769  0.5097  0.0331
  910MOL0     N22765   5.042   8.373   3.659 -0.3661  0.5316  0.5445
  910MOL0     N22766   5.010   8.498   3.661  0.8845  0.1838  0.7707
  910MOL0     C22767   4.067   8.827   4.203 -0.2938  0.0177  0.2806
  910MOL0     C22768   3.981   8.725   4.164 -0.6698  0.2313  0.0390
  910MOL0     C22769   3.680   8.428   3.994 -0.4658  0.2909 -0.7833
  910MOL0     C22770   3.729   8.316   3.924 -0.6721  0.4939  0.1083
  910MOL0     C22771   3.642   8.227   3.860 -0.0151  0.0084 -0.0647
  910MOL0     C22772   3.502   8.258   3.847  0.2789  0.0978 -0.0090
  910MOL0     O22773   3.435   8.175   3.773 -0.8602  0.3063  0.3516
  910MOL0     C22774   3.296   8.202   3.729  0.0754  0.7547 -0.0227
  910MOL0     C22775   3.201   8.077   3.712  0.3004  0.2076  0.7003
  910MOL0     C22776   3.256   7.978   3.605  0.6449 -0.0063  0.4020
  910MOL0     C22777   3.197   7.991   3.470 -1.5083  0.6806  0.5431
  910MOL0     C22778   3.055   7.966   3.469 -0.2855 -0.4492 -0.0743
  910MOL0     C22779   2.950   7.915   3.482 -0.2523 -0.2032  0.0185
  910MOL0     C22780   3.458   8.373   3.921 -0.3643 -0.2135  0.5237
  910MOL0     C22781   3.542   8.454   3.990 -1.1399 -0.5148 -0.2283
  910MOL0     C22782   3.479   8.571   4.060  0.3906 -0.9118  0.1483
  910MOL0     H22783   3.842   8.872   3.884 -1.0810  0.0433  2.0485
  910MOL0     H22784   4.028   9.035   3.950  1.4468  0.5026  0.4289
  910MOL0     H22785   4.176   9.194   4.046 -0.6314 -0.3081  0.1976
  910MOL0     H22786   4.317   9.170   4.137 -0.8868  0.8611  0.2082
  910MOL0     H22787   4.322   9.163   3.885  1.2338 -0.1027 -0.6716
  910MOL0     H22788   4.216   9.020   3.896 -0.9737 -0.7840  1.9534
  910MOL0     H22789   4.397   8.887   4.003 -4.4746  2.6514  2.2461
  910MOL0     H22790   4.509   9.029   4.004  1.1789 -0.6326  1.6103
  910MOL0     H22791   4.429   8.906   3.733 -0.3117  0.2371  1.5508
  910MOL0     H22792   4.504   9.055   3.771 -1.0044 -0.1537  2.2375
  910MOL0     H22793   4.705   8.934   3.864  0.4047 -0.4783  0.5778
  910MOL0     H22794   4.605   8.802   3.917 -1.8026  2.3413  2.6906
  910MOL0     H22795   4.584   8.752   3.658  0.7645  0.4391 -0.6235
  910MOL0     H22796   4.711   8.883   3.639  2.2024  1.2478  1.7115
  910MOL0     H22797   4.762   8.666   3.859  1.5798  2.3172  0.9358
  910MOL0     H22798   4.880   8.758   3.764  0.3246  1.2838 -3.5055
  910MOL0     H22799   4.680   8.566   3.637 -0.4247  1.7632  1.4031
  910MOL0     H22800   4.809   8.657   3.564 -0.9946 -0.3850 -0.5136
  910MOL0     H22801   4.733   8.325   3.723 -1.7997  2.0444 -2.9763
  910MOL0     H22802   5.046   8.117   3.642 -0.6975  1.0010 -1.1218
  910MOL0     H22803   4.972   8.110   3.801  0.7205  1.4727  0.7029
  910MOL0     H22804   4.840   7.965   3.712  1.0666 -2.8260 -2.0264
  910MOL0     H22805   4.743   8.116   3.683 -0.6469 -0.7402 -1.8738
  910MOL0     H22806   4.926   7.955   3.491  0.0621  0.2843 -3.5895
  910MOL0     H22807   4.867   8.117   3.450 -0.4147 -1.3612 -1.6935
  910MOL0     H22808   4.713   7.967   3.330 -2.3291  1.6371 -0.4427
  910MOL0     H22809   4.637   8.068   3.442  0.3187  0.3778  1.9222
  910MOL0     H22810   4.553   7.642   3.598  1.0802  1.3566 -1.2835
  910MOL0     H22811   4.298   7.598   3.635 -2.3276  1.2772 -1.0186
  910MOL0     H22812   3.961   7.431   3.689  0.9032 -0.0069  0.9189
  910MOL0     H22813   3.735   7.358   3.795  2.5463  0.5792  0.0471
  910MOL0     H22814   3.511   7.655   3.976  0.1847  0.0272  1.6108
  910MOL0     H22815   3.408   7.693   3.841 -1.4177  0.0630  1.4100
  910MOL0     H22816   3.274   7.481   3.896 -0.4826  2.2181 -0.0284
  910MOL0     H22817   3.396   7.455   4.026  1.9418 -1.2826 -3.3948
  910MOL0     H22818   3.301   7.693   4.107  1.1417 -1.7923  0.5690
  910MOL0     H22819   3.191   7.682   3.974  0.9619  1.5099 -0.5884
  910MOL0     H22820   3.077   7.475   4.067 -0.2317 -0.5217 -0.1096
  910MOL0     H22821   3.072   7.629   4.156  1.8769  1.4468  1.5297
  910MOL0     H22822   3.102   7.463   4.315  0.5710  1.7811  1.3038
  910MOL0     H22823   3.242   7.563   4.320  0.5674 -0.0340 -0.6554
  910MOL0     H22824   3.281   7.299   4.175 -0.3424 -2.1513  1.6661
  910MOL0     H22825   3.397   7.423   4.233 -0.0222 -0.3495 -1.2862
  910MOL0     H22826   3.218   7.239   4.396  1.6678 -1.4999  0.2034
  910MOL0     H22827   3.305   7.368   4.474 -1.4271 -0.8617  0.5317
  910MOL0     H22828   3.414   7.152   4.488 -1.3747  2.9003  2.3197
  910MOL0     H22829   3.453   7.154   4.311  0.2547  0.6573  0.0307
  910MOL0     H22830   3.608   7.767   3.765  1.4175 -0.1333  2.6511
  910MOL0     H22831   3.816   7.835   3.668 -3.2168 -0.2659  0.3416
  910MOL0     H22832   4.217   7.936   3.407 -0.7826  0.4969  3.0485
  910MOL0     H22833   4.440   7.976   3.368 -0.0831 -1.1688 -2.2259
  910MOL0     H22834   4.127   8.820   4.293  2.0942 -0.5568 -1.2554
  910MOL0     H22835   3.983   8.632   4.219  3.2289  0.7160  1.0192
  910MOL0     H22836   3.836   8.294   3.923 -0.3875  1.8130 -0.2819
  910MOL0     H22837   3.679   8.134   3.817  0.4897  1.3749 -2.7887
  910MOL0     H22838   3.297   8.251   3.632 -1.9535 -0.3048 -0.6476
  910MOL0     H22839   3.249   8.275   3.795 -1.8678 -0.8224  0.4275
  910MOL0     H22840   3.104   8.113   3.678 -0.3185  0.6886  2.8374
  910MOL0     H22841   3.183   8.038   3.812 -1.7341  0.6003  0.5191
  910MOL0     H22842   3.244   7.875   3.640  1.3631 -0.0631  0.5133
  910MOL0     H22843   3.364   7.992   3.597  0.5740  0.5674  0.4429
  910MOL0     H22844   3.232   8.084   3.423 -1.3102  0.3859  0.1053
  910MOL0     H22845   3.229   7.902   3.416 -2.0717  1.6770 -1.5314
  910MOL0     H22846   2.857   7.863   3.501  0.8743 -2.2777  0.1960
  910MOL0     H22847   3.350   8.387   3.919 -0.5192 -1.4310 -0.9256
  910MOL0     H22848   3.543   8.659   4.066 -0.7054 -0.1757  1.6301
  910MOL0     H22849   3.388   8.612   4.015  1.7760  4.3472  1.5203
  910MOL0     H22850   3.456   8.545   4.163 -1.7002 -0.0571 -0.0625
  911MOL0     O22851   4.102   1.115  11.391  0.1780  0.3210 -0.0058
  911MOL0     C22852   4.060   1.171  11.495 -0.0316  0.0400  0.5913
  911MOL0     O22853   4.037   1.303  11.500  0.4223 -0.2428 -0.3136
  911MOL0     C22854   4.115   1.390  11.431  0.1984  0.5011 -0.3592
  911MOL0     C22855   4.063   1.517  11.413 -0.3237 -0.5732  0.0968
  911MOL0     C22856   4.131   1.615  11.335 -0.2619  0.1575 -0.3933
  911MOL0     C22857   4.256   1.595  11.276  0.8426  0.0107 -0.9644
  911MOL0     O22858   4.306   1.683  11.186  0.0638 -0.1963  0.8348
  911MOL0     C22859   4.448   1.677  11.143  0.4655  0.3235  0.1781
  911MOL0     C22860   4.535   1.690  11.263 -0.5296  0.4156  0.0661
  911MOL0     C22861   4.525   1.823  11.338  0.7164  1.0349 -0.1531
  911MOL0     C22862   4.608   1.821  11.470  1.0061  0.7970 -0.4030
  911MOL0     C22863   4.591   1.924  11.570  0.4347  0.2725  0.5548
  911MOL0     C22864   4.690   1.891  11.684  0.2200  0.1808  0.6412
  911MOL0     C22865   4.679   2.002  11.797 -0.5848  0.1928  0.0297
  911MOL0     C22866   4.773   1.974  11.919 -0.2123 -0.3413 -0.1090
  911MOL0     N22867   4.781   2.101  11.986 -0.2177 -1.1501 -0.7022
  911MOL0     C22868   4.697   2.151  12.081 -0.0326 -0.5601  0.6897
  911MOL0     C22869   4.743   2.273  12.112  0.1285 -0.1769  0.3048
  911MOL0     C22870   4.682   2.359  12.222  0.0244 -0.9685  0.9474
  911MOL0     C22871   4.610   2.479  12.167 -0.2504  0.1010 -0.4102
  911MOL0     C22872   4.476   2.450  12.097  0.9493 -0.8478  0.4477
  911MOL0     C22873   4.411   2.588  12.093 -0.0972 -0.7568 -0.4153
  911MOL0     O22874   4.290   2.572  12.016 -0.0615  0.1750  0.9009
  911MOL0     C22875   4.179   2.646  12.039 -0.4155 -0.1758  0.7087
  911MOL0     C22876   4.105   2.632  12.155  0.5842  1.0681  0.9938
  911MOL0     C22877   3.990   2.705  12.181 -0.0270 -0.2521 -0.2642
  911MOL0     C22878   3.950   2.806  12.095  1.0710  0.1825 -0.7092
  911MOL0     C22879   3.825   2.889  12.127 -0.8214  0.0349  0.5276
  911MOL0     O22880   3.803   2.996  12.048  0.7031 -0.6753  0.3040
  911MOL0     C22881   3.700   3.074  12.080  0.2813 -0.1205 -0.0190
  911MOL0     C22882   3.613   3.100  12.192  0.4947  0.1066  0.7159
  911MOL0     C22883   3.499   3.177  12.183 -0.1188 -0.3253 -0.0126
  911MOL0     C22884   3.475   3.254  12.068  0.4677  0.5259  0.3866
  911MOL0     O22885   3.367   3.340  12.075  0.3812 -0.6087 -0.0579
  911MOL0     C22886   3.343   3.425  11.962 -0.0973  0.1310  1.7774
  911MOL0     C22887   3.453   3.531  11.962  0.3867  1.3088  0.9087
  911MOL0     C22888   3.415   3.657  11.887 -0.2715 -0.2958  0.0143
  911MOL0     C22889   3.398   3.628  11.743  0.4681 -0.0716  0.7775
  911MOL0     C22890   3.419   3.747  11.649  0.2653  0.1561 -0.5821
  911MOL0     C22891   3.397   3.713  11.500 -0.0647  0.5409  0.0231
  911MOL0     C22892   3.396   3.849  11.419 -0.6951 -0.3972 -0.7100
  911MOL0     C22893   3.488   3.840  11.302 -0.2345 -0.2805  0.7540
  911MOL0    Cl22894   3.455   3.707  11.182 -0.2907 -0.1559 -0.1988
  911MOL0     C22895   3.550   3.226  11.959 -0.4773  0.4978 -0.3227
  911MOL0     C22896   3.663   3.144  11.968  0.7754  0.0781  0.9470
  911MOL0     O22897   3.756   2.848  12.223 -0.1684 -1.2244  0.2364
  911MOL0     C22898   4.029   2.830  11.983 -0.5202 -0.3138 -0.3697
  911MOL0     C22899   4.147   2.752  11.958  0.0991  0.3695  0.2274
  911MOL0     N22900   4.855   2.294  12.042  0.4971  0.7979 -0.2925
  911MOL0     N22901   4.873   2.195  11.959 -0.2862 -0.4639  0.3203
  911MOL0     C22902   4.309   1.470  11.297  0.2943  0.3219 -0.3107
  911MOL0     C22903   4.247   1.375  11.375  0.9174 -0.2145 -0.3801
  911MOL0     C22904   4.020   1.089  11.615 -0.5173 -0.5761  0.6933
  911MOL0     C22905   3.950   0.972  11.592  0.0087  0.5242  0.8233
  911MOL0     C22906   3.914   0.885  11.695 -1.1948  0.2187 -0.2313
  911MOL0     C22907   3.946   0.913  11.829 -0.2395 -0.2145  0.3001
  911MOL0     O22908   3.911   0.830  11.940  0.5474 -0.1293  0.3126
  911MOL0     C22909   3.804   0.734  11.937 -0.3678 -0.3749  0.1509
  911MOL0     C22910   3.828   0.635  12.052  0.3496  0.0532 -0.3894
  911MOL0     C22911   3.958   0.562  12.058  0.7235 -0.7848  0.0436
  911MOL0     C22912   3.976   0.484  12.192  0.1142 -0.2036  0.3571
  911MOL0     C22913   4.113   0.417  12.185  0.9357 -1.1697 -0.4108
  911MOL0     C22914   4.227   0.373  12.171  0.5126  0.0432  0.1313
  911MOL0     C22915   4.007   1.039  11.853 -1.0488 -0.3215  0.0507
  911MOL0     C22916   4.044   1.133  11.749  0.2479 -0.1832 -1.1341
  911MOL0     C22917   4.111   1.255  11.796  0.4005  0.3762 -0.6431
  911MOL0     H22918   3.958   1.535  11.437  0.3568  0.2832  2.7563
  911MOL0     H22919   4.073   1.705  11.314 -2.1019 -1.0168 -0.5462
  911MOL0     H22920   4.462   1.590  11.077 -2.0700 -0.7081  0.8419
  911MOL0     H22921   4.469   1.760  11.075  1.7907 -0.7499 -0.7708
  911MOL0     H22922   4.633   1.701  11.216 -0.3779  2.5134  0.7300
  911MOL0     H22923   4.532   1.609  11.337  2.0584  2.5919  2.8496
  911MOL0     H22924   4.424   1.828  11.378  1.1636  0.2133  1.1363
  911MOL0     H22925   4.547   1.905  11.269  4.5809  1.2581  1.0942
  911MOL0     H22926   4.579   1.729  11.521  1.3410  1.0210  0.1986
  911MOL0     H22927   4.712   1.815  11.434  0.2053  2.4308 -3.3197
  911MOL0     H22928   4.606   2.022  11.524  0.2652 -0.5502 -1.3782
  911MOL0     H22929   4.486   1.922  11.603  0.3059  1.0458  0.2251
  911MOL0     H22930   4.680   1.787  11.715 -0.4195  1.1641  4.2979
  911MOL0     H22931   4.786   1.918  11.639 -1.4500  2.0670 -2.1066
  911MOL0     H22932   4.578   2.002  11.838 -0.8846 -1.2974 -0.6638
  911MOL0     H22933   4.701   2.092  11.738  0.2617  0.5708  0.8908
  911MOL0     H22934   4.723   1.893  11.973 -1.5324  0.1121 -0.6086
  911MOL0     H22935   4.873   1.949  11.885  0.7063 -1.9669  3.3442
  911MOL0     H22936   4.608   2.101  12.117  0.0927  0.0483  1.8806
  911MOL0     H22937   4.641   2.295  12.300  0.2626 -4.5972 -1.6263
  911MOL0     H22938   4.771   2.400  12.269  2.8341 -0.0995 -4.2940
  911MOL0     H22939   4.589   2.526  12.264 -0.8542  1.7190 -1.2874
  911MOL0     H22940   4.677   2.539  12.105  2.8539 -2.3944  0.3191
  911MOL0     H22941   4.404   2.381  12.142  0.8192 -1.0717 -0.1002
  911MOL0     H22942   4.510   2.433  11.995 -1.0194 -1.1195 -0.1999
  911MOL0     H22943   4.479   2.662  12.050 -1.5247  0.4900 -0.6377
  911MOL0     H22944   4.403   2.629  12.194  3.2840 -1.1943  0.1471
  911MOL0     H22945   4.133   2.553  12.223  2.0725  0.2008 -0.5366
  911MOL0     H22946   3.940   2.671  12.271 -1.6333 -1.4381 -1.5487
  911MOL0     H22947   3.645   3.050  12.283  1.5633 -2.2555 -0.8197
  911MOL0     H22948   3.434   3.201  12.267  2.1187  1.9650  1.2382
  911MOL0     H22949   3.345   3.367  11.869  0.7945  1.9593  0.5898
  911MOL0     H22950   3.247   3.475  11.975  1.2065  2.6294  2.4247
  911MOL0     H22951   3.468   3.576  12.061 -2.0558  2.6087  0.7720
  911MOL0     H22952   3.545   3.486  11.925 -1.7583 -0.5967 -2.7549
  911MOL0     H22953   3.328   3.705  11.934  0.2532  0.0694  0.6354
  911MOL0     H22954   3.498   3.728  11.900 -0.1272 -0.6521  1.1975
  911MOL0     H22955   3.294   3.594  11.732  0.4536 -0.2757  1.5250
  911MOL0     H22956   3.469   3.549  11.716  0.8905  0.1878  1.1193
  911MOL0     H22957   3.526   3.769  11.651  1.3791 -3.5550 -4.3648
  911MOL0     H22958   3.356   3.833  11.673  3.4337  3.0135 -1.8151
  911MOL0     H22959   3.466   3.635  11.468 -1.9322 -0.5525 -1.5550
  911MOL0     H22960   3.297   3.668  11.496  0.2843 -0.5672  1.9536
  911MOL0     H22961   3.409   3.944  11.472 -0.9371  0.9763 -2.9889
  911MOL0     H22962   3.296   3.849  11.376 -1.2976  0.6717  0.6205
  911MOL0     H22963   3.477   3.929  11.239  1.8387 -1.5466 -1.5718
  911MOL0     H22964   3.591   3.835  11.339  0.2113 -0.2933 -0.4556
  911MOL0     H22965   3.530   3.276  11.865  0.6106 -1.5309 -1.7017
  911MOL0     H22966   3.717   3.130  11.876 -0.5399  0.8537  0.0149
  911MOL0     H22967   3.997   2.905  11.912 -3.9942 -2.5123 -1.3673
  911MOL0     H22968   4.204   2.781  11.870 -0.4302  0.5932 -0.0483
  911MOL0     H22969   4.400   1.451  11.241  0.6624 -1.1593  0.7265
  911MOL0     H22970   4.292   1.278  11.396  0.9800  0.4296  3.0577
  911MOL0     H22971   3.932   0.949  11.487  0.2066 -2.3251  1.3428
  911MOL0     H22972   3.879   0.786  11.669 -0.2895  0.1053 -1.0897
  911MOL0     H22973   3.801   0.685  11.840 -3.1438  0.1877 -0.1189
  911MOL0     H22974   3.706   0.775  11.961  0.0659  0.7578  0.0791
  911MOL0     H22975   3.754   0.554  12.043 -1.1776  1.4539 -0.9113
  911MOL0     H22976   3.818   0.686  12.148  1.8397  0.6262 -0.5058
  911MOL0     H22977   4.031   0.644  12.056 -2.3559  2.2639  1.8852
  911MOL0     H22978   3.966   0.505  11.965 -0.4797 -2.5353  0.9619
  911MOL0     H22979   3.959   0.550  12.277  0.1813  0.0948  0.1386
  911MOL0     H22980   3.891   0.417  12.208 -0.7360  1.0436  1.2166
  911MOL0     H22981   4.324   0.331  12.156  0.7554  0.5135  0.3888
  911MOL0     H22982   4.038   1.071  11.952  3.1673 -0.5226 -1.0028
  911MOL0     H22983   4.125   1.238  11.903 -4.0300 -3.7689 -0.3937
  911MOL0     H22984   4.202   1.263  11.737  0.9491  1.6605  0.3143
  911MOL0     H22985   4.050   1.345  11.783 -0.6610 -0.2871 -0.4364
  912MOL0     O22986  10.362   4.969   5.092 -0.3406 -0.2534  0.5815
  912MOL0     C22987  10.249   4.985   5.035 -0.9146 -0.1330 -0.6931
  912MOL0     O22988  10.180   5.106   5.037 -0.4905 -0.4949 -0.5367
  912MOL0     C22989  10.251   5.217   5.072 -0.3695 -0.4906  0.6901
  912MOL0     C22990  10.300   5.242   5.201  0.1908  1.2989  0.6237
  912MOL0     C22991  10.380   5.352   5.232  0.8456 -0.0286  1.0487
  912MOL0     C22992  10.423   5.441   5.131 -0.1146 -0.6658  0.4340
  912MOL0     O22993  10.499   5.556   5.166  0.4925  0.0169 -0.1154
  912MOL0     C22994  10.480   5.618   5.298  0.0259 -0.4595  0.8141
  912MOL0     C22995  10.556   5.752   5.307 -0.1173 -0.2655  0.5450
  912MOL0     C22996  10.484   5.826   5.410  0.1359 -0.9672  0.6002
  912MOL0     C22997  10.544   5.970   5.442  0.8510 -0.0388 -1.0311
  912MOL0     C22998  10.471   6.046   5.562  0.4332  0.6889 -0.3974
  912MOL0     C22999  10.505   6.196   5.565 -0.2924  0.6435 -0.0988
  912MOL0     C23000  10.652   6.239   5.573  0.0705  1.1423  0.2673
  912MOL0     C23001  10.703   6.201   5.711  0.5545 -0.3867 -0.8164
  912MOL0     N23002  10.846   6.234   5.717  0.3287  0.2950 -0.2214
  912MOL0     C23003  10.921   6.283   5.825 -0.2206 -0.6744  0.8135
  912MOL0     C23004  11.048   6.241   5.809 -1.5756 -0.2429 -0.7955
  912MOL0     C23005  11.172   6.282   5.894  0.6205  0.1963  0.0253
  912MOL0     C23006  11.276   6.175   5.914 -0.7899 -0.1631  0.0736
  912MOL0     C23007  11.402   6.202   5.981 -0.4219 -0.1010  0.8184
  912MOL0     C23008  11.384   6.267   6.117  1.5852  0.7383 -0.0653
  912MOL0     O23009  11.499   6.234   6.194 -0.8866  0.1443 -0.5031
  912MOL0     C23010  11.483   6.224   6.331 -0.1211 -0.3036  0.1573
  912MOL0     C23011  11.424   6.317   6.412  0.1069 -0.0005 -1.0500
  912MOL0     C23012  11.396   6.302   6.551 -0.1047 -0.3642 -0.2604
  912MOL0     C23013  11.431   6.182   6.611 -0.3048  1.1189 -0.4851
  912MOL0     C23014  11.400   6.157   6.758 -0.4901 -0.2382 -0.4644
  912MOL0     O23015  11.359   6.266   6.835  0.1146 -0.5235  0.1843
  912MOL0     C23016  11.330   6.245   6.974 -0.0025  0.3554  0.6091
  912MOL0     C23017  11.414   6.308   7.058 -0.5099 -0.8543  0.2462
  912MOL0     C23018  11.410   6.267   7.191  0.1476 -0.3645 -0.5246
  912MOL0     C23019  11.305   6.192   7.234  1.2824  0.5883  0.0956
  912MOL0     O23020  11.305   6.182   7.376  0.2054  0.2731  0.3909
  912MOL0     C23021  11.177   6.155   7.431 -0.1833  0.1068  0.4547
  912MOL0     C23022  11.174   6.048   7.543 -0.1376 -0.3311  0.1775
  912MOL0     C23023  11.183   5.901   7.483  0.2089 -0.1241 -0.1258
  912MOL0     C23024  11.166   5.797   7.599 -0.3430 -0.6329 -0.3960
  912MOL0     C23025  11.192   5.656   7.555 -1.3043 -0.4640 -0.0217
  912MOL0     C23026  11.143   5.562   7.669  0.7805  0.4502  0.9822
  912MOL0     C23027  11.140   5.412   7.620 -0.1036  0.4119 -0.0761
  912MOL0     C23028  11.059   5.383   7.491 -0.4589  0.0899 -0.0370
  912MOL0    Cl23029  10.902   5.467   7.483  0.8205  0.1030 -0.0367
  912MOL0     C23030  11.210   6.129   7.140 -1.0155 -0.7534 -0.8312
  912MOL0     C23031  11.222   6.162   7.009  0.1702 -0.3509 -0.4069
  912MOL0     O23032  11.421   6.043   6.801  0.1267  0.0942  0.4707
  912MOL0     C23033  11.491   6.087   6.528 -0.8310 -0.0953 -0.3714
  912MOL0     C23034  11.515   6.103   6.388  0.5453 -0.2891  0.0637
  912MOL0     N23035  11.057   6.161   5.700 -0.2769  1.0092  0.0332
  912MOL0     N23036  10.935   6.151   5.647 -0.4066  1.2786 -0.9636
  912MOL0     C23037  10.368   5.417   4.995 -0.1187  0.1597 -0.6106
  912MOL0     C23038  10.284   5.307   4.976 -0.1599  0.2527  0.4472
  912MOL0     C23039  10.191   4.861   4.968 -0.2180 -0.2383 -0.7451
  912MOL0     C23040  10.198   4.737   5.030 -0.5916  1.1486 -0.8500
  912MOL0     C23041  10.152   4.623   4.963 -0.5158  0.1526 -0.1952
  912MOL0     C23042  10.112   4.626   4.831  0.0426 -0.3897 -0.1648
  912MOL0     O23043  10.093   4.513   4.751  0.3743  0.0531  0.1807
  912MOL0     C23044  10.088   4.386   4.812 -0.4093  0.1896 -0.5845
  912MOL0     C23045   9.982   4.303   4.744 -0.3313 -0.3529 -0.2809
  912MOL0     C23046  10.027   4.262   4.606 -0.4423  0.1743 -0.6639
  912MOL0     C23047   9.919   4.181   4.526 -1.3182 -0.2215  0.7931
  912MOL0     C23048   9.956   4.140   4.393  0.4823 -0.4245  0.5287
  912MOL0     C23049   9.987   4.138   4.274  0.4265 -0.0390  0.1067
  912MOL0     C23050  10.097   4.753   4.771  0.1344  0.9851  0.2332
  912MOL0     C23051  10.141   4.866   4.835 -1.1736 -0.5089  0.2563
  912MOL0     C23052  10.153   4.996   4.756 -0.4364 -0.7750  0.0788
  912MOL0     H23053  10.275   5.169   5.278  0.3599  0.2813 -0.2514
  912MOL0     H23054  10.427   5.349   5.329  1.7386 -0.0360  0.6222
  912MOL0     H23055  10.374   5.644   5.301 -0.1561 -1.2424  2.4961
  912MOL0     H23056  10.509   5.549   5.378  1.6911 -2.5684 -1.4709
  912MOL0     H23057  10.557   5.819   5.221 -1.7108 -0.1429  0.5934
  912MOL0     H23058  10.655   5.732   5.350 -0.6310  0.1841  2.0147
  912MOL0     H23059  10.478   5.778   5.508 -3.4139  3.6007  3.0224
  912MOL0     H23060  10.382   5.855   5.382 -0.2510 -2.5152  0.3625
  912MOL0     H23061  10.648   5.943   5.461  0.2166 -2.2556 -0.4055
  912MOL0     H23062  10.533   6.035   5.354  3.9224  0.3733 -1.2009
  912MOL0     H23063  10.363   6.038   5.546  0.1061 -0.9889  2.0376
  912MOL0     H23064  10.498   5.996   5.656  0.1039  2.2055  0.5354
  912MOL0     H23065  10.457   6.237   5.476 -1.0283  1.3700  0.6104
  912MOL0     H23066  10.462   6.246   5.653  0.6006  1.8165 -0.3076
  912MOL0     H23067  10.654   6.347   5.557 -0.8639  0.8042 -2.9082
  912MOL0     H23068  10.719   6.192   5.501  2.2731  3.3475  0.7577
  912MOL0     H23069  10.656   6.269   5.782  0.3367 -0.5303 -0.8203
  912MOL0     H23070  10.685   6.097   5.740  1.3330  0.2384  2.2343
  912MOL0     H23071  10.893   6.358   5.898 -0.6243  3.2377 -2.8991
  912MOL0     H23072  11.214   6.365   5.836 -0.8198 -0.8496 -2.6753
  912MOL0     H23073  11.141   6.329   5.988  1.3261  0.4659  0.1327
  912MOL0     H23074  11.232   6.080   5.947 -0.1627 -0.8707 -1.0338
  912MOL0     H23075  11.303   6.145   5.812 -1.1949 -3.7509  0.8640
  912MOL0     H23076  11.459   6.276   5.925  0.3726 -1.1443  0.1987
  912MOL0     H23077  11.472   6.118   5.983  1.4631  1.2352 -2.2877
  912MOL0     H23078  11.290   6.223   6.152  0.7046  1.9502 -0.8161
  912MOL0     H23079  11.375   6.375   6.105 -1.0014  0.8432  1.8964
  912MOL0     H23080  11.402   6.413   6.368  0.5489  0.2793 -0.6653
  912MOL0     H23081  11.333   6.365   6.613  1.2818  1.3485 -0.5038
  912MOL0     H23082  11.504   6.366   7.037 -0.1203 -0.6241  2.3278
  912MOL0     H23083  11.469   6.315   7.270  0.3837  0.8054 -1.3773
  912MOL0     H23084  11.160   6.249   7.485  0.4605  0.1448  0.6066
  912MOL0     H23085  11.092   6.150   7.363  0.4503  2.5358 -0.6178
  912MOL0     H23086  11.264   6.058   7.604  1.0605 -2.0504 -1.1997
  912MOL0     H23087  11.092   6.072   7.611  1.6940  0.3402  2.2743
  912MOL0     H23088  11.099   5.885   7.414 -1.6925 -1.7925  2.4091
  912MOL0     H23089  11.276   5.884   7.427 -0.1932 -0.1283 -0.8015
  912MOL0     H23090  11.063   5.802   7.635  0.0871 -1.3841  1.0284
  912MOL0     H23091  11.231   5.820   7.684 -0.6356  0.1298 -0.3755
  912MOL0     H23092  11.299   5.637   7.545 -0.6551  2.2313  0.9974
  912MOL0     H23093  11.133   5.637   7.465  3.0609 -5.9858 -2.2798
  912MOL0     H23094  11.202   5.569   7.760  1.5473 -1.6598  0.7072
  912MOL0     H23095  11.045   5.603   7.695  1.8585  3.4142  0.7710
  912MOL0     H23096  11.096   5.357   7.703 -1.6435 -1.5513 -2.0827
  912MOL0     H23097  11.246   5.387   7.606  0.6043  2.6400  0.7649
  912MOL0     H23098  11.107   5.412   7.397 -3.0968 -0.4225 -1.6494
  912MOL0     H23099  11.046   5.275   7.480 -0.1318 -0.0786  1.1175
  912MOL0     H23100  11.125   6.070   7.172 -1.3240  1.0515  2.0532
  912MOL0     H23101  11.151   6.127   6.935 -1.7767  1.8890  0.2742
  912MOL0     H23102  11.515   5.989   6.567 -0.2485  0.1646 -0.0607
  912MOL0     H23103  11.551   6.014   6.337  2.1144 -0.4111  1.3286
  912MOL0     H23104  10.401   5.481   4.914  0.5085 -0.2937 -0.7241
  912MOL0     H23105  10.248   5.283   4.877  3.8203  1.2861 -1.4428
  912MOL0     H23106  10.233   4.729   5.132 -0.3590  0.3862 -0.9871
  912MOL0     H23107  10.155   4.523   5.004  0.5234 -0.3140 -1.3611
  912MOL0     H23108  10.060   4.378   4.918  2.3344  3.0441  0.5219
  912MOL0     H23109  10.184   4.333   4.809 -0.8665 -0.6951 -0.0639
  912MOL0     H23110   9.892   4.363   4.728  1.6073  2.5285 -1.5363
  912MOL0     H23111   9.965   4.223   4.816  1.5331 -0.4760  0.0728
  912MOL0     H23112  10.122   4.209   4.605 -0.1705  0.3954  2.5928
  912MOL0     H23113  10.048   4.352   4.548 -0.5508  0.6563  0.0305
  912MOL0     H23114   9.886   4.089   4.575 -1.5011 -0.3738  0.3878
  912MOL0     H23115   9.826   4.237   4.514 -2.9418 -2.7403  0.8968
  912MOL0     H23116  10.038   4.123   4.181  0.9887 -1.2230  0.5750
  912MOL0     H23117  10.074   4.756   4.665  3.1877  0.0610 -0.5689
  912MOL0     H23118  10.166   4.971   4.650 -3.5916  0.5603 -0.7313
  912MOL0     H23119  10.057   5.045   4.776 -0.0654  0.1517 -0.3439
  912MOL0     H23120  10.241   5.054   4.785 -1.4929  1.5397 -1.0414
  913MOL0     O23121   8.848   7.403   1.133  0.4757 -0.7614  0.1943
  913MOL0     C23122   8.876   7.307   1.210 -0.4223  0.2969  0.2411
  913MOL0     O23123   8.821   7.185   1.199 -0.1422 -0.4227 -0.4912
  913MOL0     C23124   8.728   7.141   1.104  0.1081 -0.0534  0.3388
  913MOL0     C23125   8.690   7.208   0.983  0.5177  0.6943  0.2635
  913MOL0     C23126   8.606   7.143   0.889 -0.6474  0.3240 -0.4268
  913MOL0     C23127   8.570   7.010   0.908  0.4845  0.3778 -0.4856
  913MOL0     O23128   8.523   6.946   0.797  0.3574  0.2942  0.3436
  913MOL0     C23129   8.534   6.805   0.768 -0.0256  0.1897 -0.6841
  913MOL0     C23130   8.472   6.774   0.630 -0.5586  0.0521 -0.0867
  913MOL0     C23131   8.328   6.830   0.607 -1.1492  0.2726  0.2005
  913MOL0     C23132   8.254   6.740   0.507 -0.1241  0.5942  1.6771
  913MOL0     C23133   8.110   6.787   0.469  0.0653 -0.1676 -0.1351
  913MOL0     C23134   8.103   6.804   0.313 -0.1941 -0.1936  0.0910
  913MOL0     C23135   7.959   6.832   0.272  0.3896  0.1088  0.1323
  913MOL0     C23136   7.863   6.725   0.319  0.0543 -0.0750  1.2831
  913MOL0     N23137   7.762   6.726   0.209 -0.2240 -0.5728  0.3696
  913MOL0     C23138   7.636   6.775   0.223  0.5053  0.3707 -0.0534
  913MOL0     C23139   7.575   6.751   0.105  0.8593  0.1476 -0.5632
  913MOL0     C23140   7.434   6.762   0.082 -0.0102 -0.2977  0.2775
  913MOL0     C23141   7.365   6.886   0.140 -0.4131 -0.0667 -0.1343
  913MOL0     C23142   7.216   6.896   0.124 -0.1905 -0.1837 -0.7280
  913MOL0     C23143   7.132   6.799   0.216 -0.3208 -0.0542  0.5812
  913MOL0     O23144   7.130   6.848   0.350  0.6982  0.4661 -0.7257
  913MOL0     C23145   7.019   6.867   0.434 -0.0783 -0.2207 -0.3828
  913MOL0     C23146   7.043   6.882   0.575 -0.6691 -0.0119  0.0359
  913MOL0     C23147   6.933   6.906   0.662 -0.2417 -0.9236  0.9113
  913MOL0     C23148   6.803   6.923   0.612  0.4212 -0.9283 -0.2421
  913MOL0     C23149   6.684   6.948   0.697 -0.1579 -1.1668  0.6548
  913MOL0     O23150   6.590   7.036   0.639  0.2357 -0.1547 -0.0803
  913MOL0     C23151   6.492   7.111   0.707  0.1881  0.8565  0.3505
  913MOL0     C23152   6.483   7.126   0.847 -0.0867  0.2399  0.0830
  913MOL0     C23153   6.373   7.191   0.908 -0.4752  0.5891 -0.0078
  913MOL0     C23154   6.269   7.243   0.834  0.5016  0.4134  0.6730
  913MOL0     O23155   6.176   7.303   0.911 -0.6248  0.0994 -0.1025
  913MOL0     C23156   6.068   7.358   0.838  0.5688  0.5818  0.4268
  913MOL0     C23157   5.942   7.382   0.931  1.1582  0.1480 -0.9823
  913MOL0     C23158   5.882   7.256   1.000  0.0487 -0.0855 -0.0119
  913MOL0     C23159   5.807   7.311   1.117  0.9286 -0.2691 -0.8006
  913MOL0     C23160   5.807   7.193   1.221 -0.0053 -0.2888 -0.5051
  913MOL0     C23161   5.720   7.216   1.341  1.3554  0.6797  0.2088
  913MOL0     C23162   5.758   7.328   1.438  0.1686 -0.4398 -0.7061
  913MOL0     C23163   5.711   7.468   1.396  0.8730 -0.0431 -0.1745
  913MOL0    Cl23164   5.531   7.488   1.410  0.6066  0.0585  0.0188
  913MOL0     C23165   6.285   7.235   0.691  0.4167 -0.2231  0.5563
  913MOL0     C23166   6.388   7.166   0.630 -0.0179  0.3643 -0.7260
  913MOL0     O23167   6.675   6.893   0.802  0.7554 -0.7791  0.4384
  913MOL0     C23168   6.781   6.915   0.471 -0.3948 -0.2655  0.8656
  913MOL0     C23169   6.888   6.881   0.390  0.0931 -0.0019  1.1593
  913MOL0     N23170   7.673   6.701   0.020 -0.6117  0.0129  0.0180
  913MOL0     N23171   7.779   6.689   0.078  0.2963  0.2905 -0.4547
  913MOL0     C23172   8.606   6.948   1.025  0.0792 -0.5621  1.4280
  913MOL0     C23173   8.697   7.002   1.112  0.4985 -0.4241 -0.3647
  913MOL0     C23174   8.971   7.326   1.323 -0.0843  0.3221  0.5609
  913MOL0     C23175   8.992   7.219   1.416  0.4750 -0.0209 -0.0234
  913MOL0     C23176   9.078   7.234   1.522 -0.9664  0.0329  0.1006
  913MOL0     C23177   9.148   7.346   1.545 -0.0037  0.1133 -0.1025
  913MOL0     O23178   9.211   7.370   1.663 -0.6883 -0.4330 -0.5151
  913MOL0     C23179   9.267   7.493   1.712 -0.3887 -0.1299  0.1577
  913MOL0     C23180   9.359   7.460   1.830 -1.0413 -0.3042 -0.2841
  913MOL0     C23181   9.463   7.351   1.803 -0.5072 -0.6761 -0.2574
  913MOL0     C23182   9.551   7.319   1.929  0.4466 -0.2237 -0.1333
  913MOL0     C23183   9.481   7.268   2.049 -0.0304 -0.8380  0.6253
  913MOL0     C23184   9.425   7.240   2.157 -0.2980 -0.2171  0.0207
  913MOL0     C23185   9.143   7.443   1.443 -1.3326  0.4541 -0.7859
  913MOL0     C23186   9.060   7.432   1.338  0.0688  0.0474 -1.0663
  913MOL0     C23187   9.065   7.551   1.244 -0.3576 -0.2684  0.7611
  913MOL0     H23188   8.714   7.311   0.962  0.4429  0.5557 -0.5146
  913MOL0     H23189   8.595   7.188   0.791  2.1743 -3.7155 -2.8935
  913MOL0     H23190   8.640   6.784   0.781  0.1255  1.8308  1.0368
  913MOL0     H23191   8.483   6.754   0.850  1.3875  2.2233  1.5949
  913MOL0     H23192   8.473   6.665   0.617 -0.1163  0.2168 -1.7181
  913MOL0     H23193   8.539   6.828   0.562 -0.6370 -1.8179 -1.7419
  913MOL0     H23194   8.330   6.934   0.573  3.3984  0.0181 -0.9167
  913MOL0     H23195   8.265   6.830   0.696 -0.0774  0.0128  0.9791
  913MOL0     H23196   8.313   6.744   0.415  3.0329  0.6322  3.5269
  913MOL0     H23197   8.256   6.635   0.538 -0.3138 -0.1383 -0.6253
  913MOL0     H23198   8.043   6.716   0.517  0.9359  1.2950  3.6247
  913MOL0     H23199   8.091   6.885   0.513  0.7647 -0.5298  1.0035
  913MOL0     H23200   8.174   6.883   0.287 -0.5200  0.6568  1.6655
  913MOL0     H23201   8.128   6.712   0.258 -1.0327  0.1847 -0.9427
  913MOL0     H23202   7.976   6.826   0.164  2.6692 -2.1337  0.5261
  913MOL0     H23203   7.927   6.935   0.290 -2.3950 -0.6878  0.3213
  913MOL0     H23204   7.925   6.636   0.313  1.0243  0.6650 -0.1916
  913MOL0     H23205   7.829   6.738   0.423  0.4925 -2.5470  1.7853
  913MOL0     H23206   7.585   6.815   0.310  0.2770 -0.8130  0.3726
  913MOL0     H23207   7.415   6.768  -0.025  1.9200  4.3774 -0.0455
  913MOL0     H23208   7.400   6.671   0.132 -2.4407  0.0864 -0.5485
  913MOL0     H23209   7.389   6.901   0.246 -1.1148  4.9711 -0.4332
  913MOL0     H23210   7.419   6.972   0.098  3.8445 -2.1690  0.4709
  913MOL0     H23211   7.183   6.866   0.024 -0.6734 -0.3340 -0.5267
  913MOL0     H23212   7.174   6.997   0.133  0.9293  0.1598  0.9534
  913MOL0     H23213   7.184   6.703   0.208  0.7513  0.6202 -1.5412
  913MOL0     H23214   7.033   6.781   0.172  1.6894 -3.3735 -3.2291
  913MOL0     H23215   7.142   6.873   0.618 -0.5265 -2.4073 -0.6308
  913MOL0     H23216   6.959   6.910   0.768 -2.7675  2.1093  1.5482
  913MOL0     H23217   6.575   7.095   0.896  1.4332  2.3869 -1.2262
  913MOL0     H23218   6.364   7.196   1.016 -2.5199  0.1612 -0.1314
  913MOL0     H23219   6.108   7.445   0.785  2.8556  0.6991  2.1845
  913MOL0     H23220   6.029   7.280   0.773  1.0253 -1.6218  2.6477
  913MOL0     H23221   5.966   7.456   1.009  0.7602 -1.5185  0.7813
  913MOL0     H23222   5.870   7.439   0.872 -0.0884 -0.3508  0.0108
  913MOL0     H23223   5.832   7.194   0.926  1.8519  0.0186 -1.3889
  913MOL0     H23224   5.962   7.192   1.039  0.6109  1.1375  0.9307
  913MOL0     H23225   5.710   7.350   1.086  0.3860 -1.5610 -0.7835
  913MOL0     H23226   5.853   7.389   1.179 -1.3300 -0.8903  1.8732
  913MOL0     H23227   5.907   7.167   1.257 -0.3828 -0.7831  0.2138
  913MOL0     H23228   5.769   7.099   1.178 -1.2794 -0.9760  1.8877
  913MOL0     H23229   5.616   7.228   1.308  0.3831 -4.4923  0.4598
  913MOL0     H23230   5.727   7.125   1.401 -0.8707 -0.0199 -0.4901
  913MOL0     H23231   5.867   7.333   1.425  0.1220 -2.0977 -2.0553
  913MOL0     H23232   5.741   7.303   1.543  0.3781 -0.6139 -0.7135
  913MOL0     H23233   5.747   7.545   1.465 -1.1669  1.2896 -0.4817
  913MOL0     H23234   5.743   7.492   1.294  2.3999 -0.0990  0.2664
  913MOL0     H23235   6.210   7.277   0.625  0.5521  1.1427  1.2488
  913MOL0     H23236   6.394   7.149   0.523 -0.6455  0.5015 -0.7881
  913MOL0     H23237   6.688   6.929   0.417 -0.0466 -0.7906  0.1109
  913MOL0     H23238   6.864   6.860   0.286  0.8187  2.0426  0.5244
  913MOL0     H23239   8.575   6.845   1.040  1.2296 -1.0147  0.8390
  913MOL0     H23240   8.722   6.938   1.195  0.4403  0.1709  0.1191
  913MOL0     H23241   8.931   7.129   1.412 -0.1275  0.1686  3.0488
  913MOL0     H23242   9.091   7.158   1.599  0.6990  2.9915  2.9590
  913MOL0     H23243   9.181   7.555   1.739  1.0047  2.8742 -1.7197
  913MOL0     H23244   9.329   7.533   1.631  0.0637  1.0154  1.0413
  913MOL0     H23245   9.286   7.424   1.903 -2.2079 -3.7196 -2.8233
  913MOL0     H23246   9.413   7.546   1.870 -0.7094 -0.8665  0.4979
  913MOL0     H23247   9.523   7.389   1.719 -1.0453 -0.5360 -0.5838
  913MOL0     H23248   9.407   7.264   1.768  1.0114 -1.0741 -1.8441
  913MOL0     H23249   9.644   7.266   1.907  0.2144 -0.3744 -0.7714
  913MOL0     H23250   9.582   7.419   1.958 -2.9732  0.3041  2.1775
  913MOL0     H23251   9.400   7.215   2.258  0.1333  3.8950  1.3612
  913MOL0     H23252   9.195   7.537   1.460 -1.5342  0.1837  1.5952
  913MOL0     H23253   9.142   7.626   1.262 -1.9743  1.8548 -0.6585
  913MOL0     H23254   9.079   7.512   1.143  1.4331 -1.6713  1.5032
  913MOL0     H23255   8.970   7.605   1.247 -0.9262 -0.9122 -2.3876
  914MOL0     O23256   0.517   1.511   2.466 -0.6682  0.2991  0.4653
  914MOL0     C23257   0.565   1.395   2.471 -0.4734  0.5479  0.8993
  914MOL0     O23258   0.687   1.364   2.428  0.7297  0.0441 -0.9646
  914MOL0     C23259   0.768   1.466   2.377 -0.1221 -0.1847 -0.3101
  914MOL0     C23260   0.835   1.550   2.460 -0.5199 -0.5329 -0.6378
  914MOL0     C23261   0.905   1.662   2.405  0.8424  0.4482  0.2399
  914MOL0     C23262   0.932   1.674   2.269  0.1391  0.5014 -0.3297
  914MOL0     O23263   1.020   1.767   2.236 -0.6343 -0.4553  0.0125
  914MOL0     C23264   0.953   1.887   2.207  0.0796 -0.4960  0.0296
  914MOL0     C23265   1.067   1.979   2.178 -0.3959  1.1283  0.1123
  914MOL0     C23266   1.146   2.019   2.298 -0.1228  0.2321  0.6209
  914MOL0     C23267   1.283   1.935   2.299 -0.5208 -0.0612  0.0806
  914MOL0     C23268   1.388   2.006   2.391 -0.5289 -0.1913  0.8420
  914MOL0     C23269   1.362   2.026   2.541 -0.9251  0.4335 -0.5739
  914MOL0     C23270   1.472   2.124   2.595 -0.9986 -0.6506 -1.0579
  914MOL0     C23271   1.488   2.117   2.756  0.5262  0.1554  0.1067
  914MOL0     N23272   1.362   2.141   2.828 -0.3843 -0.7545  0.2499
  914MOL0     C23273   1.274   2.245   2.811 -0.5324 -0.1348  0.2144
  914MOL0     C23274   1.174   2.219   2.892 -0.2399  0.0223  0.4278
  914MOL0     C23275   1.053   2.309   2.918 -0.2250  0.4475  0.4136
  914MOL0     C23276   0.983   2.302   3.058 -0.6572  0.1055  0.0304
  914MOL0     C23277   1.051   2.380   3.181 -0.2109 -0.2630  0.3104
  914MOL0     C23278   0.981   2.377   3.318  0.3377 -0.1407  0.5684
  914MOL0     O23279   1.035   2.484   3.403  0.7302  0.6483 -0.5109
  914MOL0     C23280   1.123   2.451   3.503  0.2445 -0.3370  0.7120
  914MOL0     C23281   1.158   2.322   3.541  1.1307 -1.3944  0.7818
  914MOL0     C23282   1.251   2.316   3.651 -0.0774  0.3155  0.0423
  914MOL0     C23283   1.315   2.426   3.710  0.5262 -0.2058 -0.0688
  914MOL0     C23284   1.426   2.416   3.808  0.0426  0.9629  0.2942
  914MOL0     O23285   1.482   2.532   3.845 -0.4443 -0.1895  0.0219
  914MOL0     C23286   1.586   2.544   3.942 -0.0599  0.1676 -0.0584
  914MOL0     C23287   1.606   2.459   4.050  0.8895 -0.1134 -1.0004
  914MOL0     C23288   1.712   2.492   4.146  0.3214 -0.0499 -0.0545
  914MOL0     C23289   1.788   2.612   4.133 -0.9434  0.2858  1.3170
  914MOL0     O23290   1.903   2.643   4.203  0.5966  0.4316 -0.7147
  914MOL0     C23291   1.939   2.568   4.319 -0.3590 -1.1262 -0.0311
  914MOL0     C23292   2.055   2.645   4.374 -0.4640 -0.0049 -0.2376
  914MOL0     C23293   2.104   2.586   4.504  0.0176  0.4365  0.2912
  914MOL0     C23294   2.253   2.627   4.534 -0.0420  0.6752 -0.0386
  914MOL0     C23295   2.321   2.571   4.660  0.3817  0.8377 -1.0366
  914MOL0     C23296   2.471   2.603   4.677  0.7773  0.3058 -1.1096
  914MOL0     C23297   2.545   2.519   4.772  0.3237  0.0894  0.1346
  914MOL0     C23298   2.691   2.504   4.734 -0.1974  0.3267  0.5068
  914MOL0    Cl23299   2.765   2.663   4.723 -0.2053 -0.1157 -0.1748
  914MOL0     C23300   1.753   2.705   4.033 -0.2924 -0.1466  0.5465
  914MOL0     C23301   1.660   2.664   3.943 -0.0047 -0.6709  0.1972
  914MOL0     O23302   1.432   2.307   3.877  0.6629 -0.0350 -0.1806
  914MOL0     C23303   1.290   2.549   3.647 -1.0077 -0.5188  0.5075
  914MOL0     C23304   1.193   2.562   3.547 -0.7256  0.1109 -0.1808
  914MOL0     N23305   1.210   2.112   2.969 -0.3705 -0.4424 -0.0293
  914MOL0     N23306   1.322   2.066   2.931  0.3198  0.0686 -0.1540
  914MOL0     C23307   0.858   1.593   2.187  0.5509  1.0691 -0.1097
  914MOL0     C23308   0.771   1.497   2.239  0.9253  0.0929  0.0652
  914MOL0     C23309   0.472   1.287   2.509 -0.0195 -0.5872 -0.6791
  914MOL0     C23310   0.534   1.186   2.579 -0.9104  0.3357 -0.4882
  914MOL0     C23311   0.454   1.082   2.629 -0.6771  1.1139 -0.0017
  914MOL0     C23312   0.317   1.081   2.612  0.3397  0.8285  0.5210
  914MOL0     O23313   0.243   0.969   2.638 -0.4519 -0.1078  0.7175
  914MOL0     C23314   0.240   0.911   2.768 -0.0906  0.6721 -0.4285
  914MOL0     C23315   0.150   0.783   2.775  0.3838  0.4414  0.0469
  914MOL0     C23316   0.004   0.815   2.815  0.4843  0.0480  0.9154
  914MOL0     C23317  -0.083   0.826   2.699  0.2285  0.1612 -0.8726
  914MOL0     C23318  -0.219   0.863   2.748  0.3781  0.2973  0.3219
  914MOL0     C23319  -0.331   0.896   2.779 -0.2606  0.5687 -0.2864
  914MOL0     C23320   0.257   1.181   2.546  0.4404  0.0526  0.0613
  914MOL0     C23321   0.329   1.291   2.499 -0.4669 -0.3379 -1.0228
  914MOL0     C23322   0.258   1.402   2.435  0.2462 -0.3085  0.7556
  914MOL0     H23323   0.826   1.540   2.568  0.0516  3.2606 -0.1021
  914MOL0     H23324   0.966   1.731   2.463  0.5553  1.6006 -0.7720
  914MOL0     H23325   0.879   1.871   2.127 -1.1843  2.6762  0.3904
  914MOL0     H23326   0.900   1.916   2.299  2.0966  1.1952  0.7305
  914MOL0     H23327   1.045   2.082   2.149  1.4510  2.0074  1.5840
  914MOL0     H23328   1.131   1.929   2.104 -1.2961 -0.0182  0.0862
  914MOL0     H23329   1.096   1.994   2.392  1.2636 -1.2375  1.0133
  914MOL0     H23330   1.165   2.126   2.311 -0.9984  0.0726  4.4067
  914MOL0     H23331   1.258   1.838   2.342  0.4424  0.7992  2.8314
  914MOL0     H23332   1.327   1.930   2.199 -2.7033 -1.4250 -0.8771
  914MOL0     H23333   1.485   1.960   2.373  1.2614  2.9505  1.6226
  914MOL0     H23334   1.394   2.104   2.342 -0.4126  0.7447  2.6635
  914MOL0     H23335   1.264   2.064   2.570 -1.2774 -0.1694 -0.9584
  914MOL0     H23336   1.369   1.927   2.586 -0.1272  0.3435 -0.8744
  914MOL0     H23337   1.452   2.226   2.563  0.0659  0.4891  1.5726
  914MOL0     H23338   1.570   2.106   2.550 -0.7109 -0.8629 -0.3684
  914MOL0     H23339   1.516   2.015   2.784 -2.0159 -0.1475  1.8297
  914MOL0     H23340   1.556   2.194   2.795  0.8605 -1.6338  3.4140
  914MOL0     H23341   1.284   2.336   2.752 -1.3874  0.5420  1.0924
  914MOL0     H23342   1.074   2.411   2.885  0.2707  0.0392 -0.5519
  914MOL0     H23343   0.974   2.272   2.851 -0.6112  0.7470  0.6985
  914MOL0     H23344   0.879   2.332   3.042 -0.1735  2.3493  0.7731
  914MOL0     H23345   0.976   2.196   3.085 -0.1394  0.0004 -0.2481
  914MOL0     H23346   1.062   2.487   3.165 -3.9497  0.2648  0.2181
  914MOL0     H23347   1.145   2.327   3.195  0.8110  1.1633 -0.8925
  914MOL0     H23348   0.983   2.283   3.373  0.9941  0.1235  1.0111
  914MOL0     H23349   0.874   2.398   3.308 -0.5381 -0.8495  5.6515
  914MOL0     H23350   1.120   2.229   3.500 -3.1480 -1.2034  3.6437
  914MOL0     H23351   1.287   2.221   3.686 -0.0581  0.7288  1.1652
  914MOL0     H23352   1.554   2.366   4.070 -0.7179  0.9454 -0.0713
  914MOL0     H23353   1.729   2.421   4.226 -3.8710 -4.0412 -2.2153
  914MOL0     H23354   1.863   2.564   4.398 -0.3116  1.8336  0.2918
  914MOL0     H23355   1.970   2.471   4.280 -1.0613 -2.0166  1.5090
  914MOL0     H23356   2.129   2.631   4.295 -0.2617 -2.6433  0.3277
  914MOL0     H23357   2.028   2.750   4.377 -0.1451  0.0819 -0.3352
  914MOL0     H23358   2.027   2.623   4.571 -1.6340  1.5848 -2.1166
  914MOL0     H23359   2.097   2.477   4.497 -1.0571  0.5450 -0.6223
  914MOL0     H23360   2.253   2.736   4.534 -0.1777  0.6757 -0.5515
  914MOL0     H23361   2.318   2.594   4.453 -0.5499  2.6121 -1.3113
  914MOL0     H23362   2.301   2.463   4.669 -1.4946  1.1424 -1.3163
  914MOL0     H23363   2.280   2.621   4.748  3.2121  2.0453 -0.2799
  914MOL0     H23364   2.520   2.587   4.580  2.3287 -1.2589 -0.1253
  914MOL0     H23365   2.483   2.707   4.706 -3.0537  1.1039 -1.8554
  914MOL0     H23366   2.505   2.418   4.785  0.5453  0.2417  2.5044
  914MOL0     H23367   2.539   2.550   4.877  1.6271 -2.2555  0.9771
  914MOL0     H23368   2.749   2.442   4.803  1.2076  0.3846 -0.5833
  914MOL0     H23369   2.710   2.467   4.634 -0.6755  1.0238  0.1463
  914MOL0     H23370   1.819   2.790   4.020 -0.8486 -0.1399 -3.1928
  914MOL0     H23371   1.648   2.726   3.854  1.5288  1.4653  1.3828
  914MOL0     H23372   1.342   2.640   3.678  1.3112 -1.1039 -1.3804
  914MOL0     H23373   1.188   2.653   3.488  1.8864  1.2294  1.1802
  914MOL0     H23374   0.872   1.620   2.083  0.2880  1.0999 -0.1355
  914MOL0     H23375   0.713   1.442   2.165 -1.7569 -1.4378  3.0525
  914MOL0     H23376   0.643   1.184   2.577 -0.8713  0.3703  0.7640
  914MOL0     H23377   0.498   0.994   2.676 -2.2467 -0.3411 -1.1194
  914MOL0     H23378   0.207   0.976   2.849  1.8508  1.4658 -0.2174
  914MOL0     H23379   0.341   0.876   2.790  0.1818  1.7345  0.0328
  914MOL0     H23380   0.190   0.718   2.853  0.9764 -0.3505 -0.8991
  914MOL0     H23381   0.162   0.732   2.680 -0.1640 -2.8698  1.6297
  914MOL0     H23382  -0.005   0.907   2.873 -1.6241  0.5630 -0.1401
  914MOL0     H23383  -0.022   0.726   2.873  0.7022 -1.7409 -1.5938
  914MOL0     H23384  -0.056   0.907   2.630 -0.6949  2.6722  1.5019
  914MOL0     H23385  -0.083   0.728   2.652  2.2111 -0.3470  0.1072
  914MOL0     H23386  -0.421   0.941   2.814 -0.4262  2.3032 -2.6674
  914MOL0     H23387   0.149   1.178   2.543  0.1529  4.5278 -0.9499
  914MOL0     H23388   0.254   1.491   2.498 -2.3775 -0.6989  1.2698
  914MOL0     H23389   0.296   1.423   2.335 -1.1084 -0.5746  0.1693
  914MOL0     H23390   0.153   1.377   2.416  0.0366  1.1795 -0.2241
  915MOL0     O23391   9.506  10.556   6.949  0.4533  0.0938 -0.3500
  915MOL0     C23392   9.499  10.636   7.040 -0.6490  0.3781 -0.1581
  915MOL0     O23393   9.392  10.644   7.126 -0.1810  1.5318 -0.0770
  915MOL0     C23394   9.296  10.541   7.143  0.4579  0.2467 -0.2737
  915MOL0     C23395   9.313  10.412   7.112 -0.5337  0.4011 -0.0180
  915MOL0     C23396   9.208  10.322   7.112 -0.2519 -0.6985  0.5307
  915MOL0     C23397   9.076  10.376   7.126  0.7520 -0.4678  1.0545
  915MOL0     O23398   8.959  10.305   7.107 -0.9114  0.5024 -0.0722
  915MOL0     C23399   8.937  10.251   6.977 -0.0580 -0.7126 -0.1155
  915MOL0     C23400   8.837  10.135   6.981  0.2004 -0.0317 -0.7637
  915MOL0     C23401   8.889  10.027   7.076  0.2621 -0.3664 -0.5610
  915MOL0     C23402   8.815   9.885   7.083 -1.2158 -0.6284  1.3629
  915MOL0     C23403   8.666   9.877   7.125  0.5948 -0.8665  0.2510
  915MOL0     C23404   8.576   9.783   7.048  0.4163  0.1924  0.5706
  915MOL0     C23405   8.635   9.647   7.056  0.5900  0.1103 -0.6273
  915MOL0     C23406   8.532   9.531   7.035 -0.3314 -1.0839  0.4231
  915MOL0     N23407   8.566   9.407   7.101  0.0449 -0.4699  0.3182
  915MOL0     C23408   8.597   9.373   7.234  0.1319 -1.1100  0.2317
  915MOL0     C23409   8.622   9.238   7.222  0.0081  0.6486 -0.0336
  915MOL0     C23410   8.629   9.138   7.347  0.5276  0.3996  0.0543
  915MOL0     C23411   8.765   9.140   7.419 -0.3687 -0.2101 -0.3583
  915MOL0     C23412   8.750   9.072   7.556 -0.6315 -0.0681 -0.2121
  915MOL0     C23413   8.895   9.039   7.599 -0.6350  0.5407 -0.2379
  915MOL0     O23414   8.978   9.153   7.613  0.4443  0.5827  0.4692
  915MOL0     C23415   9.030   9.190   7.730  0.1810  0.5923 -0.1706
  915MOL0     C23416   9.001   9.139   7.860  0.3088 -0.0077 -0.5790
  915MOL0     C23417   9.079   9.172   7.969 -0.3587  0.0488  0.4167
  915MOL0     C23418   9.202   9.249   7.945  0.3056 -0.4219 -0.5611
  915MOL0     C23419   9.306   9.288   8.043  0.2715 -0.2262  0.0782
  915MOL0     O23420   9.315   9.197   8.145 -0.0462 -0.1771 -0.5692
  915MOL0     C23421   9.407   9.216   8.241 -0.1756 -0.3383  0.2244
  915MOL0     C23422   9.481   9.327   8.280 -0.3136  1.0323  0.0126
  915MOL0     C23423   9.555   9.319   8.397  0.7775 -0.1830 -0.9201
  915MOL0     C23424   9.564   9.204   8.479 -0.2468  0.3915 -0.4199
  915MOL0     O23425   9.649   9.198   8.593  1.2774 -0.4208  0.3207
  915MOL0     C23426   9.733   9.085   8.590  0.4912  0.4799 -0.3287
  915MOL0     C23427   9.864   9.125   8.650  0.1339  0.4453 -0.4933
  915MOL0     C23428   9.932   9.243   8.582  0.2102  0.1738 -0.4147
  915MOL0     C23429  10.046   9.299   8.668 -0.3376 -0.7733 -0.5972
  915MOL0     C23430  10.130   9.400   8.578  0.6917 -0.2525  1.1150
  915MOL0     C23431  10.247   9.475   8.662 -0.1088  0.6802  0.2189
  915MOL0     C23432  10.373   9.387   8.650  0.2399  0.4929 -0.0145
  915MOL0     C23433  10.487   9.480   8.679  0.2585 -0.7081  0.0688
  915MOL0    Cl23434  10.637   9.450   8.579  0.2487  0.4703 -0.3827
  915MOL0     C23435   9.481   9.088   8.445 -0.1229 -0.2006 -0.2888
  915MOL0     C23436   9.410   9.110   8.328  0.9742  0.5237  0.6643
  915MOL0     O23437   9.374   9.390   8.020 -0.2182  0.5465  0.3163
  915MOL0     C23438   9.220   9.306   7.824 -0.1143 -0.2836  1.1589
  915MOL0     C23439   9.140   9.279   7.718 -0.1635 -0.3860  0.9969
  915MOL0     N23440   8.607   9.194   7.099 -0.7480  0.6939  0.5471
  915MOL0     N23441   8.575   9.296   7.026  0.0217  0.2475 -0.2328
  915MOL0     C23442   9.056  10.507   7.162 -1.0438 -0.7017 -1.0065
  915MOL0     C23443   9.170  10.585   7.171 -0.3208 -0.3644 -1.6954
  915MOL0     C23444   9.587  10.748   7.038 -0.5749 -0.5411 -0.1495
  915MOL0     C23445   9.551  10.870   7.101  0.4012  1.2263  0.6997
  915MOL0     C23446   9.637  10.977   7.112  0.0978 -0.4000 -0.0606
  915MOL0     C23447   9.753  10.984   7.040  0.9239 -0.1235 -0.4024
  915MOL0     O23448   9.832  11.097   7.046  0.3730 -0.1021 -0.3450
  915MOL0     C23449   9.923  11.114   6.937  0.1509  0.5755 -0.5215
  915MOL0     C23450  10.005  11.233   6.983 -0.0375 -1.2185 -1.3543
  915MOL0     C23451  10.090  11.217   7.109 -0.4168  0.6164  1.0121
  915MOL0     C23452  10.183  11.339   7.132  0.1030  0.6003 -0.1842
  915MOL0     C23453  10.300  11.322   7.047  0.3112  0.6572  0.2311
  915MOL0     C23454  10.404  11.317   6.983  0.0128  0.0847 -0.1040
  915MOL0     C23455   9.792  10.867   6.957 -0.3050  0.1401 -0.2262
  915MOL0     C23456   9.714  10.752   6.970  0.9761  0.6905  0.8936
  915MOL0     C23457   9.769  10.624   6.901 -0.4617 -0.1518  0.3869
  915MOL0     H23458   9.413  10.377   7.090 -1.5073 -2.2066 -0.6785
  915MOL0     H23459   9.226  10.218   7.090  0.2222 -1.0521  2.3880
  915MOL0     H23460   8.898  10.328   6.910  1.3039  1.6829  1.7102
  915MOL0     H23461   9.030  10.212   6.935 -0.3480  0.8253 -2.3986
  915MOL0     H23462   8.833  10.102   6.876 -0.0887  1.0118 -1.0899
  915MOL0     H23463   8.736  10.154   7.021 -1.0321  0.0442 -3.6564
  915MOL0     H23464   8.890  10.064   7.179 -0.5496 -2.7548  0.3756
  915MOL0     H23465   8.992  10.013   7.042 -0.0412 -0.4937 -1.4642
  915MOL0     H23466   8.834   9.833   6.988  0.4952  2.1929  0.0034
  915MOL0     H23467   8.866   9.823   7.157 -0.3672 -1.7458 -0.0942
  915MOL0     H23468   8.654   9.861   7.232 -3.9858 -0.4500  0.0118
  915MOL0     H23469   8.615   9.973   7.110  1.0415 -0.2621  2.3446
  915MOL0     H23470   8.479   9.779   7.098 -0.9633 -0.9013 -2.0396
  915MOL0     H23471   8.568   9.808   6.942  0.7612 -1.9226  0.0080
  915MOL0     H23472   8.671   9.626   7.157  1.4764  1.3364 -0.6665
  915MOL0     H23473   8.719   9.640   6.987  1.6380  1.3714  0.4574
  915MOL0     H23474   8.437   9.561   7.079  0.4166  1.0792  0.6902
  915MOL0     H23475   8.516   9.508   6.930 -0.1957  1.2442 -0.1544
  915MOL0     H23476   8.597   9.435   7.322  2.9577  0.1851 -0.5495
  915MOL0     H23477   8.553   9.159   7.423 -0.0586 -0.4097 -0.2943
  915MOL0     H23478   8.607   9.036   7.314  0.0104 -0.5826  3.1864
  915MOL0     H23479   8.842   9.093   7.358 -0.2863  0.1047 -0.4992
  915MOL0     H23480   8.794   9.242   7.446  1.1267 -1.0326  1.3689
  915MOL0     H23481   8.691   8.980   7.551  0.4809 -0.7727 -0.8458
  915MOL0     H23482   8.700   9.137   7.628  1.5585 -1.4280  2.7066
  915MOL0     H23483   8.938   8.974   7.521 -3.3880 -0.1982 -1.2308
  915MOL0     H23484   8.888   8.983   7.692 -4.4579  2.0726  0.5515
  915MOL0     H23485   8.911   9.086   7.885 -1.3433  2.0078 -1.8843
  915MOL0     H23486   9.064   9.129   8.067 -1.9646  1.6662  0.9432
  915MOL0     H23487   9.461   9.419   8.227 -5.6724 -1.2122 -2.5718
  915MOL0     H23488   9.599   9.413   8.431  1.6990 -1.2022  0.8804
  915MOL0     H23489   9.684   8.997   8.634  1.2442 -1.5812 -3.2256
  915MOL0     H23490   9.768   9.046   8.494  0.7716 -0.4529  0.1441
  915MOL0     H23491   9.861   9.141   8.758 -1.7315  3.5465 -0.8905
  915MOL0     H23492   9.922   9.033   8.643 -3.3893 -2.0536  0.2281
  915MOL0     H23493   9.984   9.200   8.496 -1.0436 -0.4741 -0.8607
  915MOL0     H23494   9.859   9.320   8.558  0.3229  0.9211  1.4585
  915MOL0     H23495  10.106   9.215   8.706 -1.8711 -1.2844  0.8437
  915MOL0     H23496  10.010   9.363   8.749  0.9159  0.0322 -0.6552
  915MOL0     H23497  10.060   9.470   8.531  0.4417 -2.5012 -2.2688
  915MOL0     H23498  10.162   9.352   8.485 -2.8932  2.1205 -1.6229
  915MOL0     H23499  10.262   9.578   8.629  0.1498  0.3653 -0.6897
  915MOL0     H23500  10.223   9.482   8.768  1.4317 -0.9559  0.7273
  915MOL0     H23501  10.381   9.341   8.551  2.0103  1.2843 -0.2773
  915MOL0     H23502  10.359   9.301   8.716 -0.5631  0.2864 -0.4343
  915MOL0     H23503  10.463   9.582   8.648 -2.1277 -1.1777  0.1840
  915MOL0     H23504  10.513   9.489   8.785  0.3334 -0.3070  0.0202
  915MOL0     H23505   9.473   8.989   8.489 -1.9268  0.8368  1.8824
  915MOL0     H23506   9.354   9.021   8.303  0.5392  0.5220  1.6031
  915MOL0     H23507   9.296   9.376   7.791 -1.4737  0.3490 -0.8000
  915MOL0     H23508   9.155   9.316   7.617 -4.6139  1.0892  0.6478
  915MOL0     H23509   8.966  10.566   7.176  1.1204  2.3909  1.5956
  915MOL0     H23510   9.150  10.691   7.183  1.2334 -0.2264  0.1064
  915MOL0     H23511   9.458  10.887   7.154  0.6645  2.1040  0.9020
  915MOL0     H23512   9.631  11.072   7.164 -1.4099  0.6450 -1.9834
  915MOL0     H23513   9.863  11.131   6.847 -1.0826 -1.9124 -0.2605
  915MOL0     H23514   9.987  11.026   6.936  0.5024  0.8221 -0.0361
  915MOL0     H23515   9.929  11.309   7.003 -2.0526 -3.4381 -0.1177
  915MOL0     H23516  10.072  11.254   6.899 -0.3698 -1.0138 -1.5719
  915MOL0     H23517  10.150  11.126   7.102 -1.9746 -0.4083  0.4217
  915MOL0     H23518  10.036  11.199   7.202  1.6593 -1.6760  1.9062
  915MOL0     H23519  10.134  11.433   7.105  1.4959  1.2593 -0.4912
  915MOL0     H23520  10.208  11.353   7.237 -3.3468 -0.2586  0.8726
  915MOL0     H23521  10.499  11.318   6.933 -1.5175 -0.0961 -3.2220
  915MOL0     H23522   9.880  10.861   6.893 -0.1926 -1.3118  0.0421
  915MOL0     H23523   9.749  10.613   6.794  2.2179 -2.7831  0.0137
  915MOL0     H23524   9.876  10.638   6.913 -0.5018 -0.4816  1.2165
  915MOL0     H23525   9.737  10.536   6.958 -5.6383  1.5639  0.6678
  916MOL0     O23526   3.696   5.376   1.752 -0.0852 -0.4825 -0.1422
  916MOL0     C23527   3.778   5.440   1.807  0.5701  1.5708  0.4213
  916MOL0     O23528   3.773   5.470   1.934  0.4068 -0.6612 -0.1778
  916MOL0     C23529   3.663   5.434   2.007  0.5526  0.8477  0.9950
  916MOL0     C23530   3.663   5.315   2.070  0.9680  0.0640 -0.1161
  916MOL0     C23531   3.564   5.273   2.163  0.1474 -0.0660 -0.3286
  916MOL0     C23532   3.465   5.361   2.195  0.3230  0.1059 -0.9250
  916MOL0     O23533   3.365   5.324   2.278 -0.4976 -0.8107 -0.5581
  916MOL0     C23534   3.405   5.287   2.413  0.5400 -0.6499  0.3830
  916MOL0     C23535   3.290   5.312   2.516  0.4725  0.1641  1.0729
  916MOL0     C23536   3.181   5.213   2.504  1.4169  0.7920  1.2457
  916MOL0     C23537   3.058   5.263   2.586 -0.8478 -0.8725  0.1195
  916MOL0     C23538   2.932   5.179   2.599 -0.4217  0.5144  0.6401
  916MOL0     C23539   2.861   5.148   2.471  1.1230 -0.7801 -0.0471
  916MOL0     C23540   2.736   5.240   2.449 -0.4780  1.2549  0.4183
  916MOL0     C23541   2.686   5.182   2.322  0.1731 -0.1859  0.3825
  916MOL0     N23542   2.572   5.258   2.283  0.8293 -0.6807 -0.0719
  916MOL0     C23543   2.475   5.206   2.212 -0.1352  0.4697  0.1994
  916MOL0     C23544   2.401   5.307   2.153  0.3558  0.0949 -0.0196
  916MOL0     C23545   2.269   5.292   2.096  0.3104 -0.3411  0.6983
  916MOL0     C23546   2.241   5.384   1.975 -0.7303 -0.0969 -0.8131
  916MOL0     C23547   2.230   5.540   1.998  0.4458  0.0357  0.3004
  916MOL0     C23548   2.141   5.578   2.110 -0.2850 -0.3516  0.4377
  916MOL0     O23549   2.179   5.710   2.160 -0.9581 -0.2504  0.4906
  916MOL0     C23550   2.086   5.764   2.236  0.1167 -0.4062  0.0428
  916MOL0     C23551   2.041   5.887   2.198 -0.3881 -0.9856 -0.1087
  916MOL0     C23552   1.934   5.944   2.273  0.2165  0.0792  0.8111
  916MOL0     C23553   1.880   5.872   2.386 -0.3699 -0.3807  0.5451
  916MOL0     C23554   1.760   5.918   2.450  0.6020  0.5679 -0.4298
  916MOL0     O23555   1.706   6.034   2.403  0.8099  0.3921  0.0411
  916MOL0     C23556   1.618   6.097   2.489  0.0794 -0.0941  0.4124
  916MOL0     C23557   1.481   6.064   2.477 -0.5144 -0.6082 -0.5713
  916MOL0     C23558   1.384   6.129   2.562  0.3680 -1.0370 -0.4667
  916MOL0     C23559   1.426   6.231   2.660 -0.0891 -0.5257  0.8164
  916MOL0     O23560   1.346   6.317   2.736  0.3137  0.9112  0.2017
  916MOL0     C23561   1.215   6.269   2.772 -0.6209  0.1454 -1.0645
  916MOL0     C23562   1.197   6.313   2.919  0.5397  0.7561 -0.7516
  916MOL0     C23563   1.054   6.261   2.966  0.8543  0.4452 -0.8293
  916MOL0     C23564   0.987   6.373   3.054  0.8047  0.0747 -0.2238
  916MOL0     C23565   0.848   6.331   3.108  1.0942 -0.2808  0.3442
  916MOL0     C23566   0.791   6.435   3.196 -0.3367  0.6486  0.0621
  916MOL0     C23567   0.639   6.417   3.223  0.3227 -0.0061 -0.0175
  916MOL0     C23568   0.602   6.271   3.269  0.3642 -0.6668 -0.6154
  916MOL0    Cl23569   0.425   6.281   3.266 -0.3968 -0.0752  0.4198
  916MOL0     C23570   1.567   6.250   2.667  0.0158 -0.3471 -0.7149
  916MOL0     C23571   1.657   6.190   2.585 -0.5295  0.4682  0.4945
  916MOL0     O23572   1.706   5.854   2.541 -0.4532 -0.1613  0.7335
  916MOL0     C23573   1.946   5.758   2.426  0.9497 -0.2318  0.3601
  916MOL0     C23574   2.051   5.704   2.357  0.5841 -0.2069  0.3127
  916MOL0     N23575   2.476   5.420   2.183 -1.1525  0.5758  0.9947
  916MOL0     N23576   2.582   5.387   2.256  0.5912  0.2289  0.5687
  916MOL0     C23577   3.462   5.481   2.131 -0.4199  0.0602  0.5069
  916MOL0     C23578   3.555   5.527   2.038  0.6402 -0.2099 -0.3894
  916MOL0     C23579   3.904   5.489   1.742  0.2476 -0.5300  0.2351
  916MOL0     C23580   3.965   5.597   1.804  0.0190  0.9033  0.4341
  916MOL0     C23581   4.091   5.640   1.756 -0.1702 -0.3247  0.5655
  916MOL0     C23582   4.166   5.569   1.657 -0.7472  0.1460 -0.5148
  916MOL0     O23583   4.294   5.609   1.621 -0.0398  0.2432 -0.3192
  916MOL0     C23584   4.304   5.741   1.566 -0.4597 -0.4577 -0.6099
  916MOL0     C23585   4.420   5.762   1.463  0.5864 -0.2531 -0.1012
  916MOL0     C23586   4.349   5.758   1.320 -0.1734  0.7497 -0.7593
  916MOL0     C23587   4.427   5.784   1.189 -0.1223  0.4753  0.9935
  916MOL0     C23588   4.542   5.694   1.172  0.4032 -0.0207 -0.2507
  916MOL0     C23589   4.643   5.623   1.152 -0.9105 -0.4761  0.4192
  916MOL0     C23590   4.100   5.457   1.595  1.2907  0.1931  0.7284
  916MOL0     C23591   3.968   5.421   1.630  0.4450 -0.7475 -0.0747
  916MOL0     C23592   3.911   5.305   1.565  0.6343  1.5058 -0.0859
  916MOL0     H23593   3.756   5.264   2.045  1.4402  1.2628 -0.8942
  916MOL0     H23594   3.581   5.182   2.221  0.4883  0.8473  1.0460
  916MOL0     H23595   3.433   5.182   2.409  3.8473  0.1277  0.2257
  916MOL0     H23596   3.490   5.342   2.454 -0.8442 -0.3546  3.0965
  916MOL0     H23597   3.241   5.409   2.502  2.4156  0.8906 -1.3394
  916MOL0     H23598   3.331   5.305   2.618 -0.1139  0.8136  1.3621
  916MOL0     H23599   3.199   5.115   2.550 -3.6904 -1.2259 -0.3640
  916MOL0     H23600   3.162   5.195   2.397  0.3865 -0.8756  1.6725
  916MOL0     H23601   3.101   5.256   2.686  3.3621 -3.7879 -1.5948
  916MOL0     H23602   3.032   5.363   2.551  1.5235 -0.8921 -1.9739
  916MOL0     H23603   2.958   5.090   2.656 -1.0120 -1.5998 -2.1944
  916MOL0     H23604   2.854   5.224   2.661 -2.0778  2.7130 -2.7374
  916MOL0     H23605   2.925   5.137   2.383  0.7298  0.2439 -0.4751
  916MOL0     H23606   2.811   5.051   2.483 -1.2690  0.0104 -2.5108
  916MOL0     H23607   2.763   5.344   2.430 -0.1783  0.6884 -3.0630
  916MOL0     H23608   2.669   5.232   2.535 -0.0751  1.8039  0.7891
  916MOL0     H23609   2.767   5.189   2.248  0.2976  0.5531  0.5850
  916MOL0     H23610   2.647   5.081   2.335  0.8587 -0.2462  2.3302
  916MOL0     H23611   2.450   5.101   2.218  0.2016  0.3101 -1.0889
  916MOL0     H23612   2.256   5.189   2.062  1.0580  0.0208 -0.8066
  916MOL0     H23613   2.197   5.312   2.175  2.5252  1.5987  2.3716
  916MOL0     H23614   2.322   5.375   1.902 -0.2373  3.1310 -0.8060
  916MOL0     H23615   2.150   5.342   1.931 -1.3349 -0.0966  0.3957
  916MOL0     H23616   2.195   5.588   1.905 -2.2693  1.3414  1.8851
  916MOL0     H23617   2.333   5.572   2.014  0.9474 -1.6855  0.7058
  916MOL0     H23618   2.142   5.498   2.185 -3.8317 -2.8115 -1.7976
  916MOL0     H23619   2.040   5.573   2.067 -0.5942 -1.1739  1.2440
  916MOL0     H23620   2.106   5.947   2.135 -1.2755 -1.1645 -1.2268
  916MOL0     H23621   1.892   6.040   2.245 -0.4540  0.1925  2.1219
  916MOL0     H23622   1.445   5.988   2.409  0.5527 -1.2144 -0.4822
  916MOL0     H23623   1.278   6.109   2.555 -0.2822  1.2405  1.6925
  916MOL0     H23624   1.142   6.320   2.709  0.6814  1.7504 -1.3490
  916MOL0     H23625   1.206   6.161   2.762  2.7301 -0.6076  1.8594
  916MOL0     H23626   1.279   6.270   2.978  1.5717  2.3330 -0.9865
  916MOL0     H23627   1.187   6.421   2.934  1.1831  0.7778 -0.4504
  916MOL0     H23628   0.984   6.238   2.885 -0.7587  1.0608  0.3225
  916MOL0     H23629   1.062   6.175   3.033  2.4969 -0.3042 -1.9498
  916MOL0     H23630   0.964   6.465   3.000  1.8568  1.5555  1.7219
  916MOL0     H23631   1.050   6.396   3.140 -1.1064  0.5711  1.1124
  916MOL0     H23632   0.869   6.240   3.164  1.9503 -0.3561 -0.0866
  916MOL0     H23633   0.776   6.311   3.028  2.1534 -0.8423 -0.4997
  916MOL0     H23634   0.841   6.424   3.293 -0.7447 -3.3950 -0.0471
  916MOL0     H23635   0.818   6.536   3.161  1.4379  1.9092  4.3734
  916MOL0     H23636   0.580   6.444   3.135 -0.2493 -0.7287  0.1376
  916MOL0     H23637   0.622   6.469   3.318 -0.5448 -1.4181  0.6336
  916MOL0     H23638   0.650   6.203   3.198 -0.4206  2.1128 -4.0618
  916MOL0     H23639   0.646   6.246   3.367  2.4866  0.6040 -1.1697
  916MOL0     H23640   1.613   6.327   2.729  1.1177 -0.7292 -1.0358
  916MOL0     H23641   1.765   6.200   2.593 -0.2438 -1.8436  0.3709
  916MOL0     H23642   1.907   5.692   2.503  1.1105 -1.3120 -0.4568
  916MOL0     H23643   2.107   5.613   2.373 -0.6340 -1.2298 -0.9558
  916MOL0     H23644   3.372   5.541   2.143  0.0140  1.0974 -1.1734
  916MOL0     H23645   3.567   5.626   1.995  0.7315  0.0951  0.3262
  916MOL0     H23646   3.930   5.649   1.892 -2.9859 -0.1519 -0.0377
  916MOL0     H23647   4.134   5.728   1.803  2.0529 -0.8487 -0.3758
  916MOL0     H23648   4.310   5.814   1.647  0.3564 -3.1052  1.8599
  916MOL0     H23649   4.209   5.757   1.515 -0.9893  2.6146  1.0648
  916MOL0     H23650   4.508   5.697   1.464  1.7302  1.0493 -3.0276
  916MOL0     H23651   4.469   5.859   1.473 -0.0497  0.3917 -2.4971
  916MOL0     H23652   4.280   5.843   1.321 -1.7611 -0.4874 -0.5265
  916MOL0     H23653   4.295   5.664   1.307  1.8914 -0.6632  0.3529
  916MOL0     H23654   4.353   5.764   1.111  0.2249 -2.0780  1.2409
  916MOL0     H23655   4.473   5.882   1.171 -0.4286  0.1705 -1.8328
  916MOL0     H23656   4.739   5.578   1.136 -1.5801 -1.2991 -1.5411
  916MOL0     H23657   4.144   5.404   1.512 -0.5680 -0.0830 -0.1411
  916MOL0     H23658   3.863   5.244   1.642 -2.6293  0.4277 -2.7389
  916MOL0     H23659   3.838   5.334   1.489  2.4639 -2.6726 -3.9450
  916MOL0     H23660   3.980   5.239   1.511  0.5883  0.9911  0.4762
  917MOL0     O23661   1.217   3.271   6.620  0.7821  0.4866 -0.9913
  917MOL0     C23662   1.281   3.289   6.728  0.0096 -0.0450  0.4858
  917MOL0     O23663   1.393   3.227   6.769  0.0447  0.1085  0.8371
  917MOL0     C23664   1.457   3.132   6.694 -0.9310  0.0317  0.1664
  917MOL0     C23665   1.583   3.097   6.752 -0.3320 -0.0624  0.3068
  917MOL0     C23666   1.648   2.983   6.712  0.4345 -0.2333  0.2776
  917MOL0     C23667   1.595   2.891   6.610  0.1892 -0.0133 -0.2813
  917MOL0     O23668   1.662   2.773   6.582  0.3029  0.5050 -0.0914
  917MOL0     C23669   1.713   2.744   6.453  0.6001 -0.1745  0.5411
  917MOL0     C23670   1.856   2.774   6.425  0.0983  0.3255  0.1137
  917MOL0     C23671   1.910   2.723   6.288 -0.1044 -0.2181  0.1477
  917MOL0     C23672   2.028   2.809   6.234  0.2935 -0.5216  0.2134
  917MOL0     C23673   2.127   2.744   6.139 -0.2136 -0.4280 -0.2280
  917MOL0     C23674   2.166   2.605   6.189 -0.5730 -0.1857 -0.1594
  917MOL0     C23675   2.316   2.580   6.168  0.4003 -0.0184  0.1461
  917MOL0     C23676   2.328   2.514   6.030  0.3027 -0.4478 -0.8254
  917MOL0     N23677   2.385   2.583   5.913 -0.5643 -0.2807  0.7797
  917MOL0     C23678   2.367   2.715   5.887 -0.6100  0.3118 -0.1479
  917MOL0     C23679   2.375   2.725   5.750  1.0043  0.1801  0.5835
  917MOL0     C23680   2.381   2.850   5.661  0.7106  0.3946 -0.1519
  917MOL0     C23681   2.327   2.980   5.724  0.6833  0.3680 -0.7389
  917MOL0     C23682   2.177   2.966   5.770  0.2162 -0.2004 -0.0976
  917MOL0     C23683   2.080   2.966   5.652  0.6476  0.8768  0.2965
  917MOL0     O23684   1.941   2.994   5.685 -0.2384 -0.1772  0.4315
  917MOL0     C23685   1.837   2.902   5.651 -1.2681 -0.2022 -0.1992
  917MOL0     C23686   1.716   2.950   5.610 -0.1809 -0.0677  0.1597
  917MOL0     C23687   1.610   2.868   5.556 -0.5493  0.6672  0.0500
  917MOL0     C23688   1.629   2.725   5.557 -0.1242  0.3365  1.1821
  917MOL0     C23689   1.524   2.630   5.516 -0.2832  0.5277  0.3680
  917MOL0     O23690   1.403   2.686   5.526 -0.2296  0.7323 -0.5864
  917MOL0     C23691   1.298   2.603   5.504  0.2703 -0.0668 -0.4170
  917MOL0     C23692   1.214   2.599   5.397  0.4337  0.6037  0.0260
  917MOL0     C23693   1.123   2.489   5.379  0.1259 -0.6199 -0.5887
  917MOL0     C23694   1.088   2.406   5.489  0.7450  0.7315 -0.0283
  917MOL0     O23695   0.996   2.302   5.493 -0.2417  0.1418  0.3415
  917MOL0     C23696   0.940   2.264   5.364 -0.6646  0.0197 -0.5552
  917MOL0     C23697   0.820   2.346   5.317 -1.2142 -0.4503  0.6078
  917MOL0     C23698   0.702   2.340   5.408 -0.1429 -0.5694 -0.5457
  917MOL0     C23699   0.563   2.347   5.343 -0.1474  0.2277  0.4652
  917MOL0     C23700   0.532   2.488   5.304 -0.1545 -0.4939 -0.5817
  917MOL0     C23701   0.385   2.507   5.255  0.0573 -0.0274 -0.1097
  917MOL0     C23702   0.376   2.620   5.145 -0.3553  1.4914 -0.9814
  917MOL0     C23703   0.236   2.662   5.114 -0.6506 -0.6070  0.5298
  917MOL0    Cl23704   0.228   2.788   4.995  0.8549  0.2648  0.5087
  917MOL0     C23705   1.167   2.419   5.607  0.3970 -0.1637  0.7702
  917MOL0     C23706   1.268   2.522   5.617 -0.5798 -0.0950  1.0039
  917MOL0     O23707   1.556   2.512   5.500  1.1205  0.2937 -0.5052
  917MOL0     C23708   1.748   2.680   5.617 -0.7150 -0.8763 -0.5401
  917MOL0     C23709   1.853   2.766   5.660 -0.9341 -0.5184  0.7558
  917MOL0     N23710   2.387   2.599   5.696 -0.7086 -0.1300 -0.5009
  917MOL0     N23711   2.395   2.511   5.791 -0.5610  0.4048 -0.5391
  917MOL0     C23712   1.486   2.938   6.532  0.6198 -0.2001 -0.2329
  917MOL0     C23713   1.416   3.055   6.578 -0.3791 -0.4090  0.2533
  917MOL0     C23714   1.244   3.414   6.800 -0.4458  0.5322  0.2306
  917MOL0     C23715   1.151   3.498   6.737  0.3402 -0.2734 -0.5358
  917MOL0     C23716   1.131   3.634   6.780  0.2824  0.4284 -1.1238
  917MOL0     C23717   1.204   3.676   6.896 -0.0487  0.2277  0.4742
  917MOL0     O23718   1.212   3.796   6.960  1.1731 -0.0337 -0.6074
  917MOL0     C23719   1.116   3.901   6.912  0.0404  0.0727 -0.9117
  917MOL0     C23720   1.107   4.003   7.022 -0.0227 -0.1900  0.1210
  917MOL0     C23721   0.978   4.096   7.039 -0.5991 -0.2950 -0.1767
  917MOL0     C23722   0.926   4.116   6.899 -0.4392  0.3848 -0.2470
  917MOL0     C23723   0.816   4.208   6.893  0.1630  0.5567  0.9204
  917MOL0     C23724   0.712   4.270   6.883  0.1226 -0.3795  0.1909
  917MOL0     C23725   1.284   3.579   6.969  0.3917  0.4608 -0.2051
  917MOL0     C23726   1.302   3.453   6.920  0.0783  0.2208 -0.5386
  917MOL0     C23727   1.392   3.367   7.006  0.0118 -0.0387  0.0978
  917MOL0     H23728   1.627   3.156   6.831  1.5200 -1.0269  0.0438
  917MOL0     H23729   1.743   2.964   6.760  0.0529 -2.1775  0.3704
  917MOL0     H23730   1.691   2.638   6.435 -1.9510  0.8430 -4.1602
  917MOL0     H23731   1.661   2.790   6.368  0.5157 -0.2270  0.5637
  917MOL0     H23732   1.907   2.719   6.504 -1.1526 -1.0565  0.0070
  917MOL0     H23733   1.868   2.882   6.438 -0.8994  0.4637 -0.0638
  917MOL0     H23734   1.831   2.717   6.213 -0.6595 -1.6526  0.8021
  917MOL0     H23735   1.943   2.621   6.312  0.7759 -0.4408 -1.8064
  917MOL0     H23736   1.995   2.905   6.192  1.9439 -0.3059 -0.6693
  917MOL0     H23737   2.087   2.838   6.321  1.1877  1.2426 -0.9190
  917MOL0     H23738   2.091   2.739   6.036 -0.7737  1.3293 -0.1574
  917MOL0     H23739   2.214   2.810   6.128  0.5141 -0.9651  1.9160
  917MOL0     H23740   2.164   2.620   6.297  1.3078  1.2619 -0.2546
  917MOL0     H23741   2.096   2.529   6.155  0.0087 -0.5946 -0.4575
  917MOL0     H23742   2.359   2.510   6.239 -3.1129 -4.6074 -1.7128
  917MOL0     H23743   2.385   2.664   6.163  3.7999 -2.6717 -1.4438
  917MOL0     H23744   2.402   2.434   6.029  1.3343  0.4869 -0.8040
  917MOL0     H23745   2.228   2.480   5.999  0.7724 -0.7222 -2.1208
  917MOL0     H23746   2.347   2.797   5.955 -0.0428 -0.7826  1.4168
  917MOL0     H23747   2.482   2.864   5.621  0.4970  0.3218 -0.7308
  917MOL0     H23748   2.317   2.842   5.573  0.8485  1.8124 -0.4073
  917MOL0     H23749   2.394   3.006   5.807 -1.9048  2.4835  0.8474
  917MOL0     H23750   2.326   3.058   5.647 -0.5449 -1.1419 -2.3289
  917MOL0     H23751   2.165   3.050   5.839  3.9057 -0.1936  0.7635
  917MOL0     H23752   2.164   2.884   5.842 -2.4819 -0.0422 -0.3041
  917MOL0     H23753   2.103   2.866   5.615  2.8647  1.1291  0.8151
  917MOL0     H23754   2.103   3.034   5.569 -1.5395  4.0733  2.0901
  917MOL0     H23755   1.702   3.058   5.612 -0.8436 -0.1307 -0.4107
  917MOL0     H23756   1.510   2.908   5.542  0.0237  2.2445  0.1509
  917MOL0     H23757   1.224   2.659   5.307  1.1534  0.7081  0.1667
  917MOL0     H23758   1.057   2.472   5.295  0.0895  0.0915 -0.7094
  917MOL0     H23759   1.018   2.252   5.288 -0.3728  1.0959 -0.4363
  917MOL0     H23760   0.908   2.161   5.382  0.6350 -0.4769 -0.9609
  917MOL0     H23761   0.845   2.451   5.302 -1.8093  0.1198  3.1233
  917MOL0     H23762   0.786   2.318   5.217 -3.1736  0.7132  0.8831
  917MOL0     H23763   0.720   2.253   5.472 -3.5281 -1.1854 -0.2435
  917MOL0     H23764   0.707   2.428   5.473  0.9193  0.7903 -2.3889
  917MOL0     H23765   0.500   2.311   5.424 -0.1915 -2.4281 -0.6501
  917MOL0     H23766   0.547   2.287   5.252 -0.8316 -0.1003  0.7994
  917MOL0     H23767   0.606   2.518   5.229  0.6100 -1.2264 -0.1395
  917MOL0     H23768   0.553   2.558   5.385  0.6950 -2.6822  1.1791
  917MOL0     H23769   0.341   2.420   5.205  0.1105 -0.3374  0.3767
  917MOL0     H23770   0.325   2.521   5.346  1.4732  1.3259  0.6701
  917MOL0     H23771   0.430   2.583   5.057 -2.3351  0.1521 -1.7115
  917MOL0     H23772   0.424   2.710   5.183 -2.2314  1.7843  0.8676
  917MOL0     H23773   0.164   2.585   5.083 -0.7641 -0.0487 -0.6403
  917MOL0     H23774   0.195   2.695   5.210  0.1717 -0.3845  0.8072
  917MOL0     H23775   1.131   2.346   5.678 -0.3365  0.5692  1.1687
  917MOL0     H23776   1.316   2.528   5.714 -3.0573 -0.6713  2.3365
  917MOL0     H23777   1.767   2.573   5.621 -0.4434 -0.8271 -0.4965
  917MOL0     H23778   1.947   2.716   5.684 -0.0201  1.9414  2.7288
  917MOL0     H23779   1.443   2.878   6.453  1.7384  0.0744 -1.0821
  917MOL0     H23780   1.323   3.085   6.530 -0.7836  0.0868  1.3342
  917MOL0     H23781   1.090   3.470   6.652 -3.7626 -0.8021  2.3064
  917MOL0     H23782   1.060   3.691   6.721 -1.7281  0.1344  0.8864
  917MOL0     H23783   1.019   3.856   6.891  1.6156 -4.3762  0.2431
  917MOL0     H23784   1.152   3.951   6.821 -0.2045  1.2057 -0.4038
  917MOL0     H23785   1.197   4.062   7.004  0.4021 -0.6798  0.6116
  917MOL0     H23786   1.137   3.953   7.115 -0.1650 -0.5328 -0.0183
  917MOL0     H23787   1.008   4.195   7.073 -4.8938  1.5929 -1.2711
  917MOL0     H23788   0.905   4.056   7.110 -1.2993  0.1402 -0.6495
  917MOL0     H23789   1.001   4.162   6.834  1.2165  0.7083  1.8119
  917MOL0     H23790   0.890   4.023   6.854 -0.5100  0.0716  0.4457
  917MOL0     H23791   0.615   4.311   6.860  0.9085  0.6116 -1.5888
  917MOL0     H23792   1.320   3.621   7.062 -0.4865 -2.1171  1.4083
  917MOL0     H23793   1.497   3.381   6.977 -0.4507  0.1042 -1.6202
  917MOL0     H23794   1.395   3.389   7.113  0.7150 -0.1079  0.0998
  917MOL0     H23795   1.364   3.261   6.998 -0.4010  0.1408 -1.2111
  918MOL0     O23796   4.903   2.970   1.526  0.4817 -0.3521 -0.2449
  918MOL0     C23797   4.938   2.947   1.638 -0.9585 -0.1370 -0.0691
  918MOL0     O23798   4.888   2.993   1.749  0.3799 -0.5882 -0.8029
  918MOL0     C23799   4.776   3.080   1.740 -0.4600  0.6443  0.7809
  918MOL0     C23800   4.652   3.064   1.677  0.1625 -0.1620 -0.0250
  918MOL0     C23801   4.549   3.158   1.702  0.5759 -1.0201 -0.4800
  918MOL0     C23802   4.552   3.263   1.783 -0.0077 -0.2922 -0.5555
  918MOL0     O23803   4.447   3.353   1.805  0.5297  0.1627  0.4239
  918MOL0     C23804   4.354   3.375   1.695  0.5475  0.1861 -0.3540
  918MOL0     C23805   4.274   3.498   1.722  0.5309  0.6108  0.7662
  918MOL0     C23806   4.165   3.472   1.826  0.2642  0.4542 -0.1744
  918MOL0     C23807   4.091   3.616   1.849 -0.0438  1.0300  0.0541
  918MOL0     C23808   3.968   3.614   1.930  0.9147  0.9370  0.2885
  918MOL0     C23809   3.919   3.764   1.930  0.1947  0.0348 -0.5083
  918MOL0     C23810   3.805   3.791   2.032  0.1487 -0.1768 -0.3720
  918MOL0     C23811   3.670   3.750   1.978 -0.5332 -0.0368  0.3605
  918MOL0     N23812   3.570   3.754   2.087  0.8511 -0.4679 -0.3245
  918MOL0     C23813   3.474   3.660   2.110 -0.0870  0.3891 -0.1257
  918MOL0     C23814   3.410   3.718   2.222  1.2191 -0.3003  0.1521
  918MOL0     C23815   3.297   3.654   2.297 -0.6104 -0.0223  0.4264
  918MOL0     C23816   3.180   3.633   2.202  1.1405  0.4288  0.8802
  918MOL0     C23817   3.115   3.767   2.163 -0.7780 -0.5964 -0.3107
  918MOL0     C23818   2.971   3.761   2.128  0.8139  0.5222  0.0291
  918MOL0     O23819   2.940   3.892   2.079  0.0867 -0.1021  0.2774
  918MOL0     C23820   2.809   3.937   2.086  0.2461 -0.6315  0.6681
  918MOL0     C23821   2.793   4.078   2.073 -0.5456  0.6470  0.1053
  918MOL0     C23822   2.661   4.132   2.087 -1.1664  0.1938  1.1363
  918MOL0     C23823   2.547   4.047   2.106  0.4608 -0.0927 -0.2611
  918MOL0     C23824   2.408   4.106   2.095  0.5318  0.1270 -0.3712
  918MOL0     O23825   2.402   4.227   2.029  0.6879  0.5426  0.3110
  918MOL0     C23826   2.277   4.280   2.022 -0.1995  0.1575 -0.4699
  918MOL0     C23827   2.248   4.400   2.086 -0.4270  0.0146  0.7380
  918MOL0     C23828   2.125   4.458   2.078  0.4891  0.6324 -0.3473
  918MOL0     C23829   2.019   4.402   2.013 -0.2904  0.4682  0.2337
  918MOL0     O23830   1.898   4.463   2.005 -0.0282  0.4659  0.3087
  918MOL0     C23831   1.794   4.385   2.069 -0.1274 -0.5673  0.9359
  918MOL0     C23832   1.678   4.484   2.090  0.4827  0.6778  0.4823
  918MOL0     C23833   1.541   4.414   2.101  0.1984  0.2247 -0.1045
  918MOL0     C23834   1.421   4.515   2.082 -0.7430  0.4912 -0.3397
  918MOL0     C23835   1.285   4.457   2.115  0.3235 -0.5163  0.4847
  918MOL0     C23836   1.227   4.361   2.026  0.6867  0.6900  0.1505
  918MOL0     C23837   1.120   4.285   2.106  0.2382 -0.7920  0.0207
  918MOL0     C23838   1.184   4.164   2.164  0.8998  0.6991  0.0662
  918MOL0    Cl23839   1.071   4.067   2.272 -0.3523 -0.1462 -0.3357
  918MOL0     C23840   2.049   4.286   1.939  0.2072 -0.3286 -0.1236
  918MOL0     C23841   2.172   4.223   1.950  0.1461  0.9365  0.5667
  918MOL0     O23842   2.318   4.043   2.142  0.5866  0.2698 -0.5884
  918MOL0     C23843   2.572   3.915   2.142 -0.0653  0.4362  0.0359
  918MOL0     C23844   2.703   3.864   2.127  0.0958 -0.4991 -0.3954
  918MOL0     N23845   3.476   3.830   2.265  0.3611  0.1366  0.1309
  918MOL0     N23846   3.566   3.857   2.175  0.4110 -0.5980 -0.7818
  918MOL0     C23847   4.671   3.277   1.850 -0.9258  0.2651 -0.3993
  918MOL0     C23848   4.783   3.191   1.834 -0.4788  0.2683  0.6327
  918MOL0     C23849   5.040   2.841   1.634 -0.4500 -0.5022  0.5519
  918MOL0     C23850   5.170   2.881   1.645  0.5690  0.5527  0.0982
  918MOL0     C23851   5.266   2.781   1.667  0.1964  0.6834 -0.8074
  918MOL0     C23852   5.227   2.643   1.658 -0.3632  1.0013  1.0741
  918MOL0     O23853   5.331   2.554   1.668  0.0059  0.4553  0.7855
  918MOL0     C23854   5.374   2.520   1.801 -1.4083  1.3795 -0.2148
  918MOL0     C23855   5.437   2.378   1.802  0.4451 -0.0302  0.2054
  918MOL0     C23856   5.325   2.271   1.800 -0.1777  0.8142 -0.7418
  918MOL0     C23857   5.376   2.126   1.796  0.1007 -0.5652 -0.2572
  918MOL0     C23858   5.470   2.108   1.686  0.0637 -0.4694 -0.6301
  918MOL0     C23859   5.544   2.087   1.587  0.4258 -0.4307 -0.1249
  918MOL0     C23860   5.096   2.611   1.628  0.5892  0.2133  0.0535
  918MOL0     C23861   5.003   2.707   1.623  0.0755 -0.7575  0.0626
  918MOL0     C23862   4.870   2.650   1.598  0.0794  0.7998 -0.3881
  918MOL0     H23863   4.635   2.988   1.602 -0.4515 -1.3310  1.2551
  918MOL0     H23864   4.462   3.144   1.640  1.6699 -1.1626 -2.0290
  918MOL0     H23865   4.412   3.376   1.602 -0.3990  0.2781 -0.9534
  918MOL0     H23866   4.283   3.292   1.689  0.5519 -0.3716  4.1458
  918MOL0     H23867   4.235   3.543   1.630  3.6321  4.0608  0.9372
  918MOL0     H23868   4.346   3.565   1.769  0.9756  0.8344 -0.2127
  918MOL0     H23869   4.198   3.424   1.918  0.8488  1.1964  0.0181
  918MOL0     H23870   4.095   3.401   1.781  1.4868 -2.0422  1.6456
  918MOL0     H23871   4.165   3.678   1.901  2.1830 -0.1269 -1.5757
  918MOL0     H23872   4.070   3.659   1.751  0.6789 -0.2514 -0.6919
  918MOL0     H23873   3.896   3.551   1.877  2.5998  0.2419 -1.3214
  918MOL0     H23874   3.985   3.576   2.031  0.8813 -4.1592 -1.3289
  918MOL0     H23875   4.001   3.816   1.981 -0.6543 -0.2764  1.2732
  918MOL0     H23876   3.902   3.800   1.828 -0.1685 -0.6241 -0.6879
  918MOL0     H23877   3.809   3.894   2.068  0.7026  0.3358 -1.8324
  918MOL0     H23878   3.830   3.732   2.121  2.2662 -0.7387 -1.2847
  918MOL0     H23879   3.641   3.823   1.902  2.6928  2.8189  1.5824
  918MOL0     H23880   3.683   3.645   1.950  1.6642  0.8620 -2.4433
  918MOL0     H23881   3.460   3.564   2.061  3.8958 -0.7815  0.6678
  918MOL0     H23882   3.331   3.554   2.325  0.9574  0.7540  1.3700
  918MOL0     H23883   3.269   3.720   2.379  0.4608  0.4413  0.4308
  918MOL0     H23884   3.217   3.584   2.111  1.9529  1.6182  0.5476
  918MOL0     H23885   3.105   3.561   2.236 -0.4835  2.0094  0.7925
  918MOL0     H23886   3.166   3.798   2.072 -1.9305 -0.8345 -1.0633
  918MOL0     H23887   3.121   3.841   2.243 -0.7070 -1.5923  0.6273
  918MOL0     H23888   2.911   3.737   2.217  0.2477  0.7021 -0.2969
  918MOL0     H23889   2.964   3.681   2.053  1.8650 -0.2197  0.6861
  918MOL0     H23890   2.877   4.146   2.066  0.5677 -0.2801  2.9824
  918MOL0     H23891   2.656   4.241   2.081  3.6275  0.7029  1.9179
  918MOL0     H23892   2.335   4.448   2.128  0.7363  1.8423 -3.2423
  918MOL0     H23893   2.098   4.549   2.132  2.1629  1.7823 -1.3573
  918MOL0     H23894   1.746   4.313   2.002 -4.1633  2.7200 -0.0707
  918MOL0     H23895   1.820   4.350   2.170  1.3707 -3.5766 -0.3624
  918MOL0     H23896   1.709   4.547   2.174  2.8916 -0.8666  0.8409
  918MOL0     H23897   1.673   4.537   1.994  0.8995 -1.1459 -0.5902
  918MOL0     H23898   1.526   4.332   2.030  1.3675  0.3488 -0.5313
  918MOL0     H23899   1.543   4.364   2.198 -0.3563 -2.0287 -1.1802
  918MOL0     H23900   1.422   4.554   1.979  1.7218  0.2500 -0.4486
  918MOL0     H23901   1.441   4.602   2.145  0.8474  0.7002 -1.0939
  918MOL0     H23902   1.217   4.543   2.121  1.0512 -0.0093  2.4992
  918MOL0     H23903   1.286   4.408   2.213 -2.2738 -1.2821  0.1837
  918MOL0     H23904   1.176   4.406   1.940 -2.0987 -2.0321  0.2033
  918MOL0     H23905   1.306   4.293   1.995  0.2099  0.1615  0.0843
  918MOL0     H23906   1.040   4.247   2.041 -1.7688  2.8250  0.1527
  918MOL0     H23907   1.073   4.349   2.181  3.9700 -0.9559  2.7927
  918MOL0     H23908   1.216   4.093   2.087 -0.5508 -2.4529  2.1295
  918MOL0     H23909   1.268   4.193   2.228  0.5698 -2.9603  2.4723
  918MOL0     H23910   1.960   4.260   1.882 -0.7427  2.5319 -0.1084
  918MOL0     H23911   2.174   4.126   1.901 -1.0249  0.7169  0.9143
  918MOL0     H23912   2.496   3.848   2.180  1.4468 -1.2980  0.1805
  918MOL0     H23913   2.711   3.758   2.149  0.5043 -0.3951 -0.0377
  918MOL0     H23914   4.688   3.356   1.922 -1.2570  1.5955 -1.7257
  918MOL0     H23915   4.874   3.226   1.882  1.3719 -2.0667 -0.9152
  918MOL0     H23916   5.191   2.986   1.658 -0.8450  0.7991  0.5643
  918MOL0     H23917   5.372   2.801   1.674  0.7165 -2.0919  0.6680
  918MOL0     H23918   5.301   2.539   1.880 -2.1542  2.9741 -1.2652
  918MOL0     H23919   5.462   2.581   1.822  0.5732 -1.0532 -0.8490
  918MOL0     H23920   5.491   2.368   1.896 -0.8933 -2.9278  0.8093
  918MOL0     H23921   5.509   2.360   1.722 -1.6862  0.0086 -1.8598
  918MOL0     H23922   5.248   2.289   1.724  0.3611  0.6037 -1.3457
  918MOL0     H23923   5.279   2.288   1.898 -0.7604 -2.0370 -0.4434
  918MOL0     H23924   5.424   2.111   1.894 -1.6771 -1.9986  0.4329
  918MOL0     H23925   5.298   2.050   1.798 -0.5800  0.0267 -1.9431
  918MOL0     H23926   5.600   2.080   1.496  2.8130 -0.7540  1.2776
  918MOL0     H23927   5.062   2.509   1.611  1.7245  0.2468 -3.1503
  918MOL0     H23928   4.794   2.721   1.631  0.5719  1.6492 -1.0666
  918MOL0     H23929   4.846   2.622   1.495 -0.8668 -0.3495  0.1213
  918MOL0     H23930   4.851   2.560   1.657  3.4354  0.8724  1.0432
  919MOL0     O23931   1.222   0.677   9.497 -0.6065  0.0263  0.4513
  919MOL0     C23932   1.134   0.595   9.513  0.6229 -0.4377 -0.7126
  919MOL0     O23933   1.158   0.462   9.525  0.4042 -0.5961 -0.0304
  919MOL0     C23934   1.283   0.408   9.540 -0.3384  0.0399 -0.1877
  919MOL0     C23935   1.411   0.452   9.503 -0.5108  0.2419 -0.3596
  919MOL0     C23936   1.528   0.379   9.536  0.2200  0.4948  0.4111
  919MOL0     C23937   1.516   0.253   9.591  0.0357  0.0302 -0.1565
  919MOL0     O23938   1.634   0.192   9.619  0.5690 -0.8258 -0.0730
  919MOL0     C23939   1.629   0.063   9.674 -1.2725 -0.1480 -0.8257
  919MOL0     C23940   1.778   0.005   9.704  0.2786  0.0299 -0.2652
  919MOL0     C23941   1.840   0.113   9.780 -0.9745 -0.5734  0.6631
  919MOL0     C23942   1.986   0.094   9.778 -1.0315  0.5955 -0.5422
  919MOL0     C23943   2.050   0.207   9.858 -0.7247  0.1672  0.3190
  919MOL0     C23944   2.205   0.206   9.840 -1.2048  0.0129 -0.1728
  919MOL0     C23945   2.273   0.262   9.976 -0.3783  0.8452  0.9642
  919MOL0     C23946   2.417   0.285   9.944 -0.1969  1.0557  0.3164
  919MOL0     N23947   2.500   0.284  10.063 -0.7148  0.2043 -0.2480
  919MOL0     C23948   2.448   0.357  10.168 -0.3310  0.6974  0.5841
  919MOL0     C23949   2.528   0.319  10.270 -0.1171  0.8686 -0.6017
  919MOL0     C23950   2.532   0.372  10.413 -0.3906  0.4233  0.5643
  919MOL0     C23951   2.458   0.268  10.504  0.4995 -1.2928  1.0281
  919MOL0     C23952   2.505   0.284  10.644 -0.5596 -0.6049  0.6033
  919MOL0     C23953   2.427   0.207  10.745 -0.1141  0.8244 -0.8959
  919MOL0     O23954   2.455   0.064  10.731 -0.0535  0.2697  0.2047
  919MOL0     C23955   2.372  -0.036  10.771  0.3776 -0.0418 -0.3414
  919MOL0     C23956   2.236  -0.015  10.793  0.3739  0.2889 -0.2191
  919MOL0     C23957   2.153  -0.120  10.829  0.0616  0.1460 -0.0830
  919MOL0     C23958   2.214  -0.244  10.857 -0.2192  0.1676 -0.2163
  919MOL0     C23959   2.135  -0.359  10.887 -0.2834 -0.1978 -0.2235
  919MOL0     O23960   2.205  -0.475  10.910  0.4406  0.1224  1.2267
  919MOL0     C23961   2.143  -0.598  10.918 -0.2431  0.2045 -0.2297
  919MOL0     C23962   2.183  -0.699  10.831  1.2648 -0.1582 -0.0740
  919MOL0     C23963   2.121  -0.826  10.832  0.3902 -0.5643  0.0442
  919MOL0     C23964   2.018  -0.859  10.924  0.8836 -0.0192 -0.2735
  919MOL0     O23965   1.944  -0.975  10.924 -0.2233  0.1966  0.2172
  919MOL0     C23966   1.854  -0.988  10.814 -0.2707 -0.8394  0.1726
  919MOL0     C23967   1.745  -1.091  10.852 -0.8575 -1.0629 -0.0123
  919MOL0     C23968   1.638  -1.114  10.753  0.5396  0.2923 -0.1671
  919MOL0     C23969   1.507  -1.153  10.830  0.0592  0.1525  1.0222
  919MOL0     C23970   1.527  -1.289  10.897  0.0923  0.5234 -0.1666
  919MOL0     C23971   1.442  -1.291  11.023 -0.6344 -0.1094  0.1941
  919MOL0     C23972   1.489  -1.401  11.121 -0.0192  0.2041 -0.4107
  919MOL0     C23973   1.481  -1.538  11.061  0.8473  0.1135  0.6847
  919MOL0    Cl23974   1.320  -1.568  10.999  0.7332  0.0876 -0.3233
  919MOL0     C23975   1.980  -0.754  11.009  0.0883 -0.2452 -0.6979
  919MOL0     C23976   2.040  -0.631  11.012 -0.8364  0.0752  1.2038
  919MOL0     O23977   2.018  -0.343  10.882  0.4514  0.1230 -0.4016
  919MOL0     C23978   2.352  -0.254  10.858  1.1406  0.7760  0.4032
  919MOL0     C23979   2.429  -0.160  10.787 -0.0255 -0.4258 -1.0220
  919MOL0     N23980   2.619   0.218  10.236 -0.6362 -0.8808  0.5786
  919MOL0     N23981   2.596   0.198  10.103  0.5410 -0.1936  0.0084
  919MOL0     C23982   1.390   0.213   9.635 -0.4444  0.3921  0.1352
  919MOL0     C23983   1.279   0.283   9.606  0.2188 -0.8330  0.4491
  919MOL0     C23984   0.987   0.628   9.490 -0.3386  0.1556 -0.1766
  919MOL0     C23985   0.901   0.532   9.447  0.0156  0.1063  0.0203
  919MOL0     C23986   0.767   0.557   9.422  0.8437  0.0156 -0.2815
  919MOL0     C23987   0.713   0.686   9.435  0.4287 -0.1080  0.4992
  919MOL0     O23988   0.583   0.721   9.415 -0.7927  0.0089  0.3176
  919MOL0     C23989   0.492   0.627   9.360  0.2194 -0.7156  0.9692
  919MOL0     C23990   0.377   0.707   9.302  0.1219  0.0031  0.3756
  919MOL0     C23991   0.254   0.621   9.242 -0.5019  0.5789  0.2328
  919MOL0     C23992   0.135   0.704   9.177  1.2419  0.0956 -0.2427
  919MOL0     C23993   0.087   0.797   9.274  0.1764  0.9088  0.9581
  919MOL0     C23994   0.055   0.853   9.378  0.6666  0.3463 -0.0787
  919MOL0     C23995   0.795   0.786   9.480  0.7107 -0.8076  0.3918
  919MOL0     C23996   0.927   0.756   9.509 -0.9184 -0.3216 -0.3350
  919MOL0     C23997   1.022   0.861   9.560 -0.3151 -0.3355  0.6027
  919MOL0     H23998   1.413   0.549   9.454  0.7704  0.3089 -0.2051
  919MOL0     H23999   1.623   0.424   9.508 -0.9400  1.7792 -1.7242
  919MOL0     H24000   1.570   0.064   9.766 -0.7796 -1.4210 -0.4813
  919MOL0     H24001   1.565  -0.008   9.621 -4.8086  2.1757 -0.0804
  919MOL0     H24002   1.833  -0.009   9.611  2.2250 -0.6487  0.9071
  919MOL0     H24003   1.789  -0.091   9.755  1.1636 -0.9172 -2.1485
  919MOL0     H24004   1.809   0.111   9.885  0.0867 -2.1660  0.9745
  919MOL0     H24005   1.820   0.215   9.746  2.0354 -0.9937 -2.9654
  919MOL0     H24006   2.002  -0.000   9.831 -0.5035  2.2505  2.5329
  919MOL0     H24007   2.013   0.092   9.672 -3.3663 -0.6277 -1.1874
  919MOL0     H24008   2.017   0.304   9.819 -1.1690 -0.9347 -2.2491
  919MOL0     H24009   2.012   0.205   9.961 -1.0263 -1.4618  0.1991
  919MOL0     H24010   2.244   0.105   9.823  0.7106  0.6482  0.1380
  919MOL0     H24011   2.232   0.269   9.754  1.3094  1.3123  1.4276
  919MOL0     H24012   2.273   0.182  10.050 -0.8275 -1.1597 -1.0817
  919MOL0     H24013   2.218   0.347  10.017 -0.1289  0.8966  1.1904
  919MOL0     H24014   2.452   0.214   9.868 -1.4352  1.2611 -0.4677
  919MOL0     H24015   2.433   0.388   9.910  1.6528  0.7981  0.3078
  919MOL0     H24016   2.367   0.428  10.172  0.3374  1.6245 -1.1026
  919MOL0     H24017   2.635   0.379  10.447 -0.5955 -1.2575  1.6700
  919MOL0     H24018   2.490   0.473  10.420 -2.0205 -0.2144  0.6198
  919MOL0     H24019   2.350   0.281  10.498  0.5836 -0.5901  1.0205
  919MOL0     H24020   2.467   0.162  10.476 -1.1216 -1.3902  0.7499
  919MOL0     H24021   2.505   0.389  10.676  4.4526 -0.6810  1.6073
  919MOL0     H24022   2.611   0.256  10.646  0.3663  2.5194  2.5690
  919MOL0     H24023   2.322   0.221  10.720  0.1821  2.1210 -1.4822
  919MOL0     H24024   2.446   0.243  10.847 -1.8940 -0.9515  0.1483
  919MOL0     H24025   2.196   0.084  10.773  0.7711  0.4057 -0.4386
  919MOL0     H24026   2.047  -0.099  10.836 -0.2234 -1.2599 -0.0146
  919MOL0     H24027   2.261  -0.673  10.760 -0.7354  1.1926 -1.9071
  919MOL0     H24028   2.150  -0.898  10.757 -1.6367  0.8694 -2.2644
  919MOL0     H24029   1.815  -0.889  10.789 -1.1527 -1.6443 -1.9031
  919MOL0     H24030   1.890  -1.022  10.716 -3.9326  1.2564 -2.1318
  919MOL0     H24031   1.800  -1.179  10.886  2.3660  0.8179  0.1094
  919MOL0     H24032   1.712  -1.054  10.950 -3.8793  0.1340 -1.3692
  919MOL0     H24033   1.628  -1.026  10.689  0.4191  0.2361 -0.2255
  919MOL0     H24034   1.672  -1.194  10.686 -1.2739 -0.9665  0.3267
  919MOL0     H24035   1.424  -1.157  10.760  0.5393  3.0827  0.1590
  919MOL0     H24036   1.475  -1.082  10.907 -2.0543 -0.4210  0.7490
  919MOL0     H24037   1.627  -1.307  10.937 -0.5177  2.1075  2.3478
  919MOL0     H24038   1.488  -1.368  10.833 -0.2762  2.0372 -1.8918
  919MOL0     H24039   1.446  -1.196  11.077  2.6617 -1.1108  2.0252
  919MOL0     H24040   1.337  -1.309  11.001 -0.2399  1.7426 -4.1492
  919MOL0     H24041   1.423  -1.391  11.208  0.3594 -0.7299  0.0004
  919MOL0     H24042   1.590  -1.387  11.161 -0.2596  1.2168 -0.1228
  919MOL0     H24043   1.545  -1.539  10.972  0.1309  0.1805  0.1625
  919MOL0     H24044   1.515  -1.621  11.125  1.1468 -2.2173 -2.2590
  919MOL0     H24045   1.885  -0.748  11.061 -0.5891  0.6070 -1.9781
  919MOL0     H24046   2.018  -0.542  11.070  2.3783  3.4303 -2.1263
  919MOL0     H24047   2.402  -0.343  10.897  3.5345  1.9663  0.2245
  919MOL0     H24048   2.536  -0.163  10.770  0.1022  4.9994 -3.0518
  919MOL0     H24049   1.370   0.117   9.682 -2.0399  0.1873 -0.8860
  919MOL0     H24050   1.187   0.253   9.656  2.5204 -0.8860  5.1395
  919MOL0     H24051   0.940   0.432   9.430 -0.4199  0.1877 -1.6198
  919MOL0     H24052   0.699   0.475   9.400  0.4515  0.4803 -0.8416
  919MOL0     H24053   0.453   0.573   9.447 -0.1531  0.7490  1.7653
  919MOL0     H24054   0.531   0.566   9.278 -2.0496 -0.2513 -0.5243
  919MOL0     H24055   0.410   0.781   9.228  0.6894 -0.6174 -0.0074
  919MOL0     H24056   0.331   0.774   9.375 -2.2306  0.9379 -1.8319
  919MOL0     H24057   0.216   0.554   9.319  1.0163 -0.6540 -0.0551
  919MOL0     H24058   0.303   0.564   9.162  0.3715 -2.5120  2.7594
  919MOL0     H24059   0.160   0.777   9.100 -1.0766  0.5292 -0.6859
  919MOL0     H24060   0.050   0.640   9.153  1.4354 -1.0426  1.8800
  919MOL0     H24061   0.021   0.907   9.464  0.9504 -0.4879  0.5768
  919MOL0     H24062   0.758   0.887   9.489 -0.7347 -0.9624 -2.7272
  919MOL0     H24063   1.099   0.885   9.485 -0.3603 -0.9232  0.3630
  919MOL0     H24064   0.986   0.960   9.588  1.9210  0.3538  1.3038
  919MOL0     H24065   1.071   0.814   9.646 -0.1856 -2.5414 -0.5884
  920MOL0     O24066   1.288  10.878   3.953 -0.8541 -0.5169  0.6471
  920MOL0     C24067   1.308  10.987   4.003 -0.0470 -0.3724  0.0932
  920MOL0     O24068   1.287  11.013   4.130 -0.0828  0.0929 -1.4186
  920MOL0     C24069   1.303  11.138   4.179  0.9877  0.2166  0.8427
  920MOL0     C24070   1.214  11.241   4.152  0.0278 -0.4764  0.0213
  920MOL0     C24071   1.225  11.367   4.220 -0.4651  0.2413 -0.3134
  920MOL0     C24072   1.333  11.388   4.314  0.6186 -0.8238  0.9557
  920MOL0     O24073   1.338  11.508   4.381  0.2949  0.2087 -0.7291
  920MOL0     C24074   1.238  11.513   4.491 -1.2377 -0.4786  0.5207
  920MOL0     C24075   1.263  11.631   4.584 -0.8116 -1.0398  0.9352
  920MOL0     C24076   1.402  11.653   4.636 -0.7840  0.6426 -0.3652
  920MOL0     C24077   1.424  11.800   4.677 -0.5973 -0.1273  0.1387
  920MOL0     C24078   1.576  11.818   4.712  0.0705 -0.0625  0.3492
  920MOL0     C24079   1.609  11.786   4.856  0.5893 -0.1416  0.0920
  920MOL0     C24080   1.752  11.838   4.890  0.5286  0.3022  0.7592
  920MOL0     C24081   1.806  11.809   5.032 -0.2430 -0.3362  0.2340
  920MOL0     N24082   1.851  11.665   5.062 -0.0054  0.3296  0.3429
  920MOL0     C24083   1.780  11.548   5.073 -0.2711  0.0596  0.3566
  920MOL0     C24084   1.868  11.441   5.067  0.0696  0.8066 -0.6296
  920MOL0     C24085   1.827  11.295   5.053  0.0430  0.3280 -0.3081
  920MOL0     C24086   1.804  11.230   5.192 -0.3419 -0.1046  0.0863
  920MOL0     C24087   1.919  11.239   5.299  0.7717  1.2295  0.4367
  920MOL0     C24088   1.876  11.196   5.439 -0.8047 -0.4634 -0.8556
  920MOL0     O24089   1.991  11.151   5.519  0.0551 -0.5333  0.0630
  920MOL0     C24090   1.984  11.203   5.647 -0.2236 -0.0039 -0.7548
  920MOL0     C24091   1.936  11.122   5.747  0.3226  0.2299 -0.4747
  920MOL0     C24092   1.925  11.188   5.873 -0.3520 -0.3833  0.4712
  920MOL0     C24093   1.967  11.319   5.900  0.7867 -0.0360 -0.7135
  920MOL0     C24094   1.976  11.378   6.037  0.1079  0.3662 -0.0629
  920MOL0     O24095   1.976  11.289   6.135  0.3110 -0.0696 -0.2926
  920MOL0     C24096   1.985  11.339   6.258 -1.1243  1.6824 -0.9962
  920MOL0     C24097   2.094  11.287   6.333  0.4396 -0.2460  0.3442
  920MOL0     C24098   2.101  11.303   6.467  0.2280 -0.8725  0.3899
  920MOL0     C24099   2.017  11.393   6.529  0.4997  0.3137 -0.7921
  920MOL0     O24100   2.043  11.406   6.672 -0.1470 -0.1702  1.1730
  920MOL0     C24101   1.983  11.524   6.724  0.7835 -0.0422  0.3572
  920MOL0     C24102   2.059  11.545   6.853  0.1599  0.0367 -0.8574
  920MOL0     C24103   2.019  11.672   6.936  0.2490  0.5276  1.0708
  920MOL0     C24104   2.106  11.681   7.062  0.1772 -0.4376  0.4090
  920MOL0     C24105   2.111  11.824   7.118  0.6411  0.5258  0.5076
  920MOL0     C24106   2.152  11.834   7.268 -0.1416  0.6307 -0.5711
  920MOL0     C24107   2.102  11.963   7.337  0.1975 -0.5104  1.3962
  920MOL0     C24108   2.106  11.952   7.482  0.7681  0.5705  0.6415
  920MOL0    Cl24109   2.027  12.095   7.547 -0.1894  0.5301  0.0105
  920MOL0     C24110   1.907  11.435   6.459  0.1320  0.0143  0.6058
  920MOL0     C24111   1.890  11.419   6.321  0.2558 -0.4875  0.5024
  920MOL0     O24112   1.956  11.503   6.063 -0.5552  0.1231  0.8044
  920MOL0     C24113   2.022  11.391   5.793  0.9716 -0.6163 -0.9887
  920MOL0     C24114   2.025  11.331   5.667  0.2634  0.5500  0.5911
  920MOL0     N24115   1.993  11.500   5.060  0.5081  0.3527 -0.1196
  920MOL0     N24116   1.976  11.629   5.058  0.0775 -0.2997  0.2240
  920MOL0     C24117   1.413  11.285   4.340  0.5872  0.2262 -1.0700
  920MOL0     C24118   1.401  11.161   4.275  0.0337  0.0919  0.7909
  920MOL0     C24119   1.377  11.083   3.907  0.6607 -0.1730  0.0505
  920MOL0     C24120   1.297  11.168   3.824 -0.1828  1.1091  0.4245
  920MOL0     C24121   1.351  11.237   3.722  0.4855 -0.1085 -0.5096
  920MOL0     C24122   1.491  11.233   3.696  0.2812 -0.2009 -0.6523
  920MOL0     O24123   1.550  11.331   3.612  0.9525  0.1616 -0.0845
  920MOL0     C24124   1.682  11.366   3.632  0.2683 -0.3791  0.3521
  920MOL0     C24125   1.706  11.492   3.548 -0.5774  0.3375  0.0038
  920MOL0     C24126   1.710  11.447   3.401  0.2255 -0.4334 -0.4312
  920MOL0     C24127   1.741  11.560   3.313 -0.3638 -0.4920  0.4245
  920MOL0     C24128   1.884  11.595   3.312  0.0589  0.2564  0.3886
  920MOL0     C24129   2.003  11.608   3.315  0.1674  0.7474 -0.3059
  920MOL0     C24130   1.561  11.135   3.769  0.3957 -0.2664 -0.8317
  920MOL0     C24131   1.506  11.076   3.879 -0.2724 -0.2283 -0.7831
  920MOL0     C24132   1.608  11.012   3.973  0.7297 -0.6117 -0.7650
  920MOL0     H24133   1.138  11.219   4.077 -1.0839  0.6237  0.7921
  920MOL0     H24134   1.140  11.432   4.199 -0.2159  0.3317 -1.0646
  920MOL0     H24135   1.138  11.518   4.448 -0.7633 -4.0630 -1.3747
  920MOL0     H24136   1.243  11.425   4.555  1.7690 -0.0127  1.0971
  920MOL0     H24137   1.190  11.622   4.665  0.4032 -2.1268  1.9427
  920MOL0     H24138   1.249  11.716   4.517 -1.8176 -2.7882 -1.2348
  920MOL0     H24139   1.460  11.635   4.544 -2.2704 -3.5041 -0.6866
  920MOL0     H24140   1.418  11.591   4.724 -0.0111  1.8694  0.3865
  920MOL0     H24141   1.402  11.871   4.597  1.6879 -3.1338 -3.4767
  920MOL0     H24142   1.365  11.822   4.767 -0.4616 -1.5941  0.6065
  920MOL0     H24143   1.643  11.769   4.640 -2.4148 -3.0394 -0.1292
  920MOL0     H24144   1.591  11.926   4.709  2.8544 -0.3319  1.2792
  920MOL0     H24145   1.536  11.832   4.924 -0.2311  0.7317 -1.3220
  920MOL0     H24146   1.602  11.677   4.865  0.6365 -0.0313  1.7010
  920MOL0     H24147   1.763  11.944   4.864 -1.3072  1.2420  3.3920
  920MOL0     H24148   1.815  11.786   4.817 -1.0819  0.0085 -0.4707
  920MOL0     H24149   1.900  11.861   5.054 -1.3246  0.4213  3.7176
  920MOL0     H24150   1.733  11.844   5.105  0.2053  1.0588  0.0403
  920MOL0     H24151   1.672  11.553   5.065 -0.5827 -1.0906  2.7614
  920MOL0     H24152   1.751  11.282   4.976  3.1171  2.5323 -4.0915
  920MOL0     H24153   1.911  11.243   5.006 -0.0027 -0.0469  0.0151
  920MOL0     H24154   1.715  11.276   5.234 -2.0420 -2.0272 -1.2188
  920MOL0     H24155   1.789  11.124   5.171 -0.8318 -0.1659  0.7283
  920MOL0     H24156   1.939  11.345   5.317 -0.9322  1.5054  0.9265
  920MOL0     H24157   1.998  11.170   5.268 -1.2612 -0.7654 -0.6741
  920MOL0     H24158   1.799  11.119   5.431 -1.2232 -0.1345 -0.0513
  920MOL0     H24159   1.822  11.275   5.491  0.9178  0.3754 -0.2629
  920MOL0     H24160   1.909  11.017   5.738  1.9934 -0.0801 -2.7796
  920MOL0     H24161   1.895  11.135   5.963  1.0084 -0.5444  0.8437
  920MOL0     H24162   2.151  11.215   6.275 -3.1182 -1.7412 -1.6067
  920MOL0     H24163   2.177  11.262   6.533 -0.5369  1.5917  2.9646
  920MOL0     H24164   1.979  11.608   6.655  0.4374 -0.8790 -0.6777
  920MOL0     H24165   1.880  11.513   6.760  1.0826  0.3662  1.3905
  920MOL0     H24166   2.049  11.459   6.919  3.1721  0.8344  0.8276
  920MOL0     H24167   2.164  11.551   6.823  0.3401 -0.3981 -0.3355
  920MOL0     H24168   2.030  11.766   6.881 -1.1827  1.7567  2.7866
  920MOL0     H24169   1.913  11.672   6.963  0.7088  2.9557  3.2129
  920MOL0     H24170   2.210  11.654   7.042 -0.1798 -0.6153 -1.3343
  920MOL0     H24171   2.087  11.611   7.144  3.0149  0.2200  1.7542
  920MOL0     H24172   2.012  11.869   7.113  0.3772  0.4622  3.3736
  920MOL0     H24173   2.174  11.891   7.059 -1.1994 -0.0824 -2.3178
  920MOL0     H24174   2.109  11.751   7.325  1.7151  0.4482  0.6542
  920MOL0     H24175   2.261  11.831   7.278 -0.1039 -1.1977 -1.1113
  920MOL0     H24176   2.004  11.989   7.296  0.6174  0.3197  0.8966
  920MOL0     H24177   2.165  12.047   7.309 -0.6876  0.4563  2.2158
  920MOL0     H24178   2.050  11.862   7.508  1.7613 -0.9607 -2.1152
  920MOL0     H24179   2.209  11.944   7.517  1.7199  0.9187 -1.8701
  920MOL0     H24180   1.827  11.477   6.519  0.1315  1.1795 -0.1977
  920MOL0     H24181   1.798  11.454   6.275 -1.6924 -5.5276 -0.0663
  920MOL0     H24182   2.054  11.493   5.811 -2.2916  0.3922 -0.2880
  920MOL0     H24183   2.053  11.408   5.595  0.6363 -0.2966 -0.2029
  920MOL0     H24184   1.490  11.295   4.416 -0.0781 -0.6459 -0.2536
  920MOL0     H24185   1.453  11.079   4.322  0.4145  1.1847  2.3584
  920MOL0     H24186   1.191  11.168   3.847 -0.5236  4.3265 -0.6615
  920MOL0     H24187   1.296  11.303   3.656  1.2720 -0.0752 -1.1423
  920MOL0     H24188   1.738  11.279   3.597  0.5263 -1.0274  2.2817
  920MOL0     H24189   1.695  11.394   3.737  0.6813  1.5135 -0.1615
  920MOL0     H24190   1.800  11.539   3.578  0.2966  1.1151 -3.6001
  920MOL0     H24191   1.629  11.567   3.568 -0.8394  0.8202 -2.5661
  920MOL0     H24192   1.617  11.409   3.358  1.1127 -1.7695 -1.2531
  920MOL0     H24193   1.791  11.373   3.393  3.1463  2.4552  0.1764
  920MOL0     H24194   1.702  11.530   3.216 -0.1816 -2.6978  0.9897
  920MOL0     H24195   1.687  11.650   3.344 -0.9029 -0.4601 -0.5819
  920MOL0     H24196   2.108  11.615   3.295  0.3552  1.3169  0.7932
  920MOL0     H24197   1.668  11.120   3.758  0.3813 -0.4937 -0.6592
  920MOL0     H24198   1.644  10.915   3.939  0.4432 -0.9520 -0.1006
  920MOL0     H24199   1.698  11.075   3.973 -0.5148  1.2625  0.0569
  920MOL0     H24200   1.562  10.992   4.069 -2.7879 -2.0283 -2.5636
  921MOL0     O24201   6.043   3.167   7.126 -0.6148 -0.2246 -0.0982
  921MOL0     C24202   6.056   3.265   7.202  0.2794 -0.0003 -0.0597
  921MOL0     O24203   5.986   3.388   7.186 -0.9531  0.0274 -0.0786
  921MOL0     C24204   5.879   3.394   7.098 -0.6871 -0.0295  0.4821
  921MOL0     C24205   5.746   3.416   7.154  0.2113  0.2139  0.1552
  921MOL0     C24206   5.633   3.417   7.072 -0.1229  0.4476  0.3069
  921MOL0     C24207   5.645   3.424   6.934 -0.5388 -1.0653 -0.2022
  921MOL0     O24208   5.533   3.443   6.848 -0.7346  0.8986 -0.3843
  921MOL0     C24209   5.509   3.330   6.761 -0.0942 -0.3478 -0.8321
  921MOL0     C24210   5.380   3.348   6.691 -0.0751  0.0294 -0.1665
  921MOL0     C24211   5.370   3.256   6.572  0.4743  0.0911 -0.3218
  921MOL0     C24212   5.433   3.304   6.438 -0.5876  0.3733  0.1778
  921MOL0     C24213   5.371   3.240   6.313 -0.8187 -0.8060  0.5282
  921MOL0     C24214   5.466   3.235   6.191  0.1422  0.7383  0.4115
  921MOL0     C24215   5.400   3.170   6.069 -0.4044 -0.2796 -1.0026
  921MOL0     C24216   5.506   3.142   5.959  0.3320  0.7541 -0.0449
  921MOL0     N24217   5.446   3.100   5.834  0.6352  0.6784 -1.0096
  921MOL0     C24218   5.370   3.171   5.749  0.6568  0.5296  0.8389
  921MOL0     C24219   5.339   3.087   5.647  0.7476  0.5347 -1.0741
  921MOL0     C24220   5.249   3.110   5.523 -0.1801  0.0786  0.7030
  921MOL0     C24221   5.104   3.055   5.568 -0.5588 -1.1375  0.2493
  921MOL0     C24222   5.098   2.896   5.571  0.7801 -0.0822 -0.3856
  921MOL0     C24223   4.956   2.848   5.550 -0.6089 -0.2016 -0.2799
  921MOL0     O24224   4.871   2.905   5.654  0.2574 -0.0878  0.3103
  921MOL0     C24225   4.748   2.842   5.674 -0.3282  0.2262 -0.4013
  921MOL0     C24226   4.700   2.718   5.612  0.6646  0.1979 -0.2766
  921MOL0     C24227   4.572   2.666   5.639 -0.4717  0.2899 -0.2497
  921MOL0     C24228   4.477   2.759   5.696 -0.9899 -0.7422  0.0396
  921MOL0     C24229   4.331   2.729   5.705 -0.3905  0.4407 -1.1436
  921MOL0     O24230   4.276   2.613   5.647 -0.1972 -0.8925 -0.2340
  921MOL0     C24231   4.144   2.591   5.641  0.0853 -0.0334  0.2376
  921MOL0     C24232   4.090   2.491   5.719 -0.4039  0.7555  0.2988
  921MOL0     C24233   3.948   2.471   5.718 -0.3513 -0.0012 -0.2469
  921MOL0     C24234   3.864   2.553   5.646  0.0104 -0.0156  1.1034
  921MOL0     O24235   3.725   2.529   5.644 -0.0484 -0.2548 -0.4863
  921MOL0     C24236   3.655   2.561   5.526  0.1466 -0.8532  0.1215
  921MOL0     C24237   3.516   2.513   5.555 -0.4005  0.0337  0.1519
  921MOL0     C24238   3.419   2.535   5.432  0.8525 -0.4979  0.4681
  921MOL0     C24239   3.274   2.530   5.479 -0.4275 -0.5664 -0.6044
  921MOL0     C24240   3.168   2.549   5.374  0.6984 -0.0824 -0.1797
  921MOL0     C24241   3.019   2.564   5.418  0.3046  0.2199 -0.1543
  921MOL0     C24242   2.917   2.541   5.313  0.3532  0.5097  1.2091
  921MOL0     C24243   2.786   2.614   5.360 -0.7258 -0.1608  0.1722
  921MOL0    Cl24244   2.734   2.520   5.510 -0.0939  0.5563 -0.5323
  921MOL0     C24245   3.921   2.644   5.556  0.4176  0.2388 -0.0885
  921MOL0     C24246   4.057   2.672   5.561  0.9680  0.0517  0.0554
  921MOL0     O24247   4.265   2.814   5.758  0.0653 -0.1361 -0.6626
  921MOL0     C24248   4.522   2.880   5.753  0.4179 -0.4194 -0.3823
  921MOL0     C24249   4.655   2.921   5.738 -1.0525 -0.7058 -0.0168
  921MOL0     N24250   5.421   2.976   5.647 -0.0588 -0.4175 -0.2530
  921MOL0     N24251   5.483   2.992   5.769 -0.2028  0.0899  0.2437
  921MOL0     C24252   5.771   3.420   6.882 -0.4081  0.4115  0.2006
  921MOL0     C24253   5.891   3.401   6.960  0.9478 -0.2606  0.0970
  921MOL0     C24254   6.154   3.251   7.304 -0.0385  0.4926  0.0253
  921MOL0     C24255   6.279   3.193   7.266 -0.1285 -0.1663  0.2217
  921MOL0     C24256   6.388   3.199   7.353 -0.8655 -0.0124  0.2284
  921MOL0     C24257   6.368   3.236   7.481 -0.1624  0.4197 -0.0164
  921MOL0     O24258   6.474   3.225   7.562 -0.2466 -0.1230  0.3124
  921MOL0     C24259   6.465   3.192   7.702  0.2587 -0.1621 -0.8981
  921MOL0     C24260   6.612   3.176   7.755 -0.0724 -0.2437  0.1345
  921MOL0     C24261   6.692   3.299   7.723 -0.0346 -0.7009 -0.1256
  921MOL0     C24262   6.849   3.281   7.735 -0.6062  0.2607 -0.1576
  921MOL0     C24263   6.919   3.404   7.735 -0.3422  0.2220  0.0516
  921MOL0     C24264   6.987   3.504   7.733  0.0197  0.1366  0.6336
  921MOL0     C24265   6.241   3.273   7.526 -0.1628  1.1008 -1.0491
  921MOL0     C24266   6.137   3.296   7.439  0.0515  0.4707  0.3509
  921MOL0     C24267   6.021   3.370   7.490 -0.7195 -0.1957  0.0529
  921MOL0     H24268   5.743   3.434   7.261  1.4145  0.7503  0.1164
  921MOL0     H24269   5.530   3.431   7.104 -0.2702 -1.1041  0.5780
  921MOL0     H24270   5.591   3.303   6.694 -0.1886 -3.5736  0.1460
  921MOL0     H24271   5.503   3.243   6.828 -0.9214 -0.7703 -1.4329
  921MOL0     H24272   5.372   3.453   6.662 -1.7385  0.1626  0.7277
  921MOL0     H24273   5.301   3.345   6.766 -0.2000  0.2127 -0.2895
  921MOL0     H24274   5.265   3.259   6.541  1.0885  0.2440 -2.5424
  921MOL0     H24275   5.398   3.153   6.596 -3.4242 -0.9565  0.5097
  921MOL0     H24276   5.432   3.414   6.440 -1.3993  0.3557  1.0027
  921MOL0     H24277   5.539   3.278   6.431 -0.4459  0.8124  0.6230
  921MOL0     H24278   5.347   3.136   6.336  0.5110 -1.2600 -0.0728
  921MOL0     H24279   5.278   3.293   6.290 -0.9581 -0.7438  1.2190
  921MOL0     H24280   5.481   3.342   6.180 -2.4374  1.0259 -0.9889
  921MOL0     H24281   5.563   3.189   6.212 -0.3257 -0.6560 -0.3679
  921MOL0     H24282   5.334   3.246   6.025  1.8769  1.7700 -1.0965
  921MOL0     H24283   5.354   3.075   6.100 -0.1874 -0.3207 -0.8079
  921MOL0     H24284   5.562   3.231   5.932 -2.1878  2.8475  1.1435
  921MOL0     H24285   5.575   3.063   5.988  0.9586  1.9502  1.9364
  921MOL0     H24286   5.333   3.272   5.763  1.0978  1.3965 -3.0620
  921MOL0     H24287   5.252   3.218   5.504 -3.0261  0.6766  2.9323
  921MOL0     H24288   5.289   3.065   5.431 -0.3270  1.2584  0.0347
  921MOL0     H24289   5.091   3.094   5.670 -1.3280 -4.4888  1.5620
  921MOL0     H24290   5.026   3.093   5.502 -0.7397  0.8018  1.4828
  921MOL0     H24291   5.127   2.856   5.668 -2.1817 -2.1343 -0.2079
  921MOL0     H24292   5.167   2.856   5.497  0.5510 -2.8834  0.7917
  921MOL0     H24293   4.953   2.739   5.562 -1.1913 -0.1568  0.0079
  921MOL0     H24294   4.928   2.878   5.448  1.8347  0.2784 -0.8832
  921MOL0     H24295   4.772   2.663   5.551  1.3227  1.1833 -0.4016
  921MOL0     H24296   4.550   2.570   5.593  0.9848  0.9838 -2.5271
  921MOL0     H24297   4.164   2.428   5.767  0.6386  0.9342 -0.9825
  921MOL0     H24298   3.905   2.414   5.800 -0.7627 -1.3626 -1.3578
  921MOL0     H24299   3.656   2.670   5.517  2.4775 -0.7643  0.7655
  921MOL0     H24300   3.701   2.524   5.434  3.3594  3.7571 -0.4715
  921MOL0     H24301   3.525   2.408   5.583  2.4472  0.3610  0.7837
  921MOL0     H24302   3.478   2.576   5.636  1.6499  3.4314 -1.2900
  921MOL0     H24303   3.424   2.636   5.392 -1.2158 -0.1160  1.0403
  921MOL0     H24304   3.432   2.452   5.362 -1.0601 -1.1473  0.8049
  921MOL0     H24305   3.266   2.609   5.555  1.0250  1.9634 -2.8982
  921MOL0     H24306   3.256   2.439   5.537  2.7110 -1.1459 -0.3837
  921MOL0     H24307   3.183   2.462   5.309  1.5941 -0.2577  0.2405
  921MOL0     H24308   3.201   2.636   5.317 -0.0441  0.1325 -0.2827
  921MOL0     H24309   2.999   2.504   5.508 -0.5212  3.5266  2.0360
  921MOL0     H24310   2.997   2.664   5.456 -3.5225  0.3234 -2.1583
  921MOL0     H24311   2.888   2.436   5.305 -0.4474  0.8410 -0.7747
  921MOL0     H24312   2.948   2.567   5.212 -0.6141  1.4278  1.1316
  921MOL0     H24313   2.802   2.720   5.384 -0.2273  0.2343 -1.6894
  921MOL0     H24314   2.712   2.608   5.279 -1.6996 -0.8164  1.0871
  921MOL0     H24315   3.862   2.720   5.505 -0.0065 -0.2964 -0.3971
  921MOL0     H24316   4.085   2.757   5.499 -1.6462  0.6768 -0.3752
  921MOL0     H24317   4.451   2.949   5.797 -0.7433 -1.9901  0.2746
  921MOL0     H24318   4.691   3.007   5.793  1.0292 -2.6375  1.8756
  921MOL0     H24319   5.789   3.432   6.776  1.4259  0.3942  0.4738
  921MOL0     H24320   5.992   3.398   6.920  0.9992 -1.9098  0.2804
  921MOL0     H24321   6.294   3.164   7.162  2.9604 -0.3583  0.6466
  921MOL0     H24322   6.488   3.169   7.321 -0.8189 -0.2225  0.5656
  921MOL0     H24323   6.401   3.105   7.717 -4.0412  2.3729 -2.6216
  921MOL0     H24324   6.415   3.272   7.758  0.6296  0.3554 -1.2884
  921MOL0     H24325   6.656   3.088   7.707 -2.7810 -1.0335 -1.1428
  921MOL0     H24326   6.607   3.161   7.863  0.6324  0.9700  0.3480
  921MOL0     H24327   6.644   3.380   7.779  1.7310 -0.2222  0.7867
  921MOL0     H24328   6.671   3.327   7.620 -1.6396  2.6319  0.9652
  921MOL0     H24329   6.885   3.219   7.818 -1.3043 -4.0176 -2.7259
  921MOL0     H24330   6.888   3.227   7.647  0.4351  2.7678 -1.3349
  921MOL0     H24331   7.054   3.585   7.714  1.8702 -2.1139 -3.7631
  921MOL0     H24332   6.230   3.294   7.632 -1.4232 -0.7385 -0.7655
  921MOL0     H24333   6.007   3.465   7.438 -0.6816 -0.9422 -1.3530
  921MOL0     H24334   5.926   3.320   7.466 -2.0183  2.6249 -1.1342
  921MOL0     H24335   6.035   3.395   7.595  1.5613 -0.1080 -0.2353
  922MOL0     O24336   3.662   2.938   9.362  0.3154 -0.2297 -0.2443
  922MOL0     C24337   3.718   2.952   9.470 -0.1302  0.1815 -0.3612
  922MOL0     O24338   3.724   2.858   9.564  0.2890  0.4928  0.4228
  922MOL0     C24339   3.663   2.736   9.550  0.9059  0.0837 -0.6094
  922MOL0     C24340   3.740   2.622   9.524  0.0570  0.3603 -0.7797
  922MOL0     C24341   3.693   2.499   9.498  0.0616  0.0051  0.7411
  922MOL0     C24342   3.545   2.479   9.481  0.4749 -1.1792 -0.1965
  922MOL0     O24343   3.502   2.358   9.435  0.0198  0.0849 -0.0408
  922MOL0     C24344   3.383   2.308   9.496  0.0246 -0.1502 -0.3123
  922MOL0     C24345   3.335   2.182   9.421 -0.1232 -0.9093 -0.5637
  922MOL0     C24346   3.237   2.105   9.512  0.4337  0.5125  1.0461
  922MOL0     C24347   3.202   1.972   9.453  0.5451  0.3491  0.3073
  922MOL0     C24348   3.079   1.890   9.519 -0.1138 -1.0225  0.3043
  922MOL0     C24349   2.942   1.960   9.485 -0.5290  0.1910  0.5432
  922MOL0     C24350   2.816   1.886   9.543  1.1368 -0.3558  0.2136
  922MOL0     C24351   2.755   1.957   9.674 -0.1530  1.3146  0.2874
  922MOL0     N24352   2.617   1.906   9.692  1.0177  1.0393 -0.3997
  922MOL0     C24353   2.583   1.784   9.748 -0.3889 -0.1848  0.3676
  922MOL0     C24354   2.451   1.762   9.716  0.1990 -0.2595 -0.5243
  922MOL0     C24355   2.385   1.639   9.761 -0.3205  0.1047  0.2524
  922MOL0     C24356   2.341   1.579   9.629 -0.3182 -0.2188  0.6194
  922MOL0     C24357   2.449   1.499   9.556 -0.4833  0.3213 -0.9199
  922MOL0     C24358   2.443   1.505   9.412  0.4605 -1.0187  0.3106
  922MOL0     O24359   2.340   1.428   9.347  0.1263  0.7312 -0.4298
  922MOL0     C24360   2.376   1.314   9.283 -1.4619 -0.3947  0.0247
  922MOL0     C24361   2.291   1.256   9.184 -0.4653  0.1222 -0.2492
  922MOL0     C24362   2.320   1.138   9.112 -1.0172 -0.3196  1.3053
  922MOL0     C24363   2.447   1.078   9.144  0.7060 -0.2958  0.0338
  922MOL0     C24364   2.491   0.948   9.087  0.7500  0.3313  0.7307
  922MOL0     O24365   2.463   0.937   8.955  0.4411 -0.4008  0.1549
  922MOL0     C24366   2.538   0.850   8.885  0.0668  0.3212  0.5701
  922MOL0     C24367   2.482   0.794   8.770  0.4111  0.0497  1.1196
  922MOL0     C24368   2.549   0.702   8.676 -0.6232  0.5433  0.7721
  922MOL0     C24369   2.680   0.652   8.710 -0.0864  0.5324  0.0218
  922MOL0     O24370   2.740   0.571   8.628 -1.0845  0.1498  0.6872
  922MOL0     C24371   2.873   0.526   8.658  0.6324 -0.5772  0.5037
  922MOL0     C24372   2.905   0.428   8.545  0.0107 -0.1908 -0.8612
  922MOL0     C24373   2.892   0.469   8.399  1.1131  0.0607 -0.2298
  922MOL0     C24374   2.984   0.380   8.307 -0.3511  0.5393 -1.0839
  922MOL0     C24375   2.930   0.227   8.300 -0.3541  0.9048 -0.3440
  922MOL0     C24376   3.044   0.137   8.260 -0.1618 -0.0714 -0.6126
  922MOL0     C24377   3.025  -0.012   8.267  0.0500  0.0376 -0.0576
  922MOL0     C24378   3.150  -0.080   8.204  0.1676 -1.3842 -0.7566
  922MOL0    Cl24379   3.166  -0.058   8.037 -0.2726  0.3128  0.0466
  922MOL0     C24380   2.740   0.711   8.822  0.6542  0.7195 -0.0512
  922MOL0     C24381   2.677   0.809   8.898  0.1946  0.0727 -0.1075
  922MOL0     O24382   2.545   0.864   9.153 -0.5975 -0.4673  0.3925
  922MOL0     C24383   2.526   1.133   9.243  0.4170 -0.0474 -0.1616
  922MOL0     C24384   2.490   1.239   9.317 -0.4287 -0.8566 -0.2105
  922MOL0     N24385   2.402   1.878   9.650  0.3819 -0.9196 -0.4279
  922MOL0     N24386   2.504   1.953   9.632 -0.7573 -0.0348  0.1923
  922MOL0     C24387   3.466   2.596   9.488 -0.7226  0.5307  0.9309
  922MOL0     C24388   3.527   2.719   9.534  0.3284 -0.1006  0.3625
  922MOL0     C24389   3.782   3.080   9.512  0.3928 -0.1443 -0.2734
  922MOL0     C24390   3.880   3.071   9.613 -0.4336 -0.5678 -0.1776
  922MOL0     C24391   3.946   3.179   9.667 -0.2786 -0.2141 -0.0109
  922MOL0     C24392   3.909   3.306   9.614 -0.1958  0.2006 -0.7469
  922MOL0     O24393   3.992   3.409   9.642 -0.0085 -0.1975 -0.7287
  922MOL0     C24394   3.943   3.545   9.663 -0.3979 -0.2107  0.2561
  922MOL0     C24395   3.914   3.552   9.813  0.5387  0.0634  0.5347
  922MOL0     C24396   3.930   3.693   9.878  0.3166 -0.0873  0.4842
  922MOL0     C24397   3.799   3.767   9.867 -0.5436  0.1796 -1.9047
  922MOL0     C24398   3.675   3.714   9.933 -0.0092  0.0682  0.1722
  922MOL0     C24399   3.580   3.662   9.983 -0.2574 -0.4592 -0.7389
  922MOL0     C24400   3.812   3.321   9.513  0.0689  0.4008  0.4000
  922MOL0     C24401   3.742   3.210   9.469  1.4383  0.5223  0.2318
  922MOL0     C24402   3.634   3.224   9.358 -0.2671  0.8794 -0.7636
  922MOL0     H24403   3.846   2.639   9.539 -0.2715  1.6505  0.2162
  922MOL0     H24404   3.761   2.415   9.492 -1.4471 -1.1995 -0.5326
  922MOL0     H24405   3.396   2.285   9.602 -5.2792  2.8598  1.3633
  922MOL0     H24406   3.305   2.384   9.501 -0.5682 -0.8345  2.1239
  922MOL0     H24407   3.424   2.118   9.415  0.8787  0.2140  1.4793
  922MOL0     H24408   3.298   2.202   9.320  0.4727 -1.4349 -0.8926
  922MOL0     H24409   3.139   2.151   9.497 -2.2464 -4.8433 -0.2321
  922MOL0     H24410   3.276   2.094   9.614 -0.8412 -0.3876  1.4684
  922MOL0     H24411   3.171   1.980   9.348 -2.2438  0.6186  1.0589
  922MOL0     H24412   3.293   1.912   9.452  2.1685  2.4904  3.1984
  922MOL0     H24413   3.080   1.785   9.487 -0.8055 -1.1923  0.8340
  922MOL0     H24414   3.084   1.882   9.628  3.1924  1.1866  0.4740
  922MOL0     H24415   2.940   2.066   9.512  1.0408  0.9297 -1.9447
  922MOL0     H24416   2.934   1.968   9.376 -0.7611  3.9291  0.7067
  922MOL0     H24417   2.837   1.784   9.577  1.0672  0.5532  3.2823
  922MOL0     H24418   2.745   1.884   9.460  1.4447 -3.0711 -0.0678
  922MOL0     H24419   2.815   1.938   9.763 -0.8393  0.2485  0.5452
  922MOL0     H24420   2.753   2.064   9.650  0.5287  1.1720 -0.4452
  922MOL0     H24421   2.650   1.718   9.803 -1.2423 -2.6691 -1.4140
  922MOL0     H24422   2.446   1.566   9.817  3.5469  3.1114  0.3636
  922MOL0     H24423   2.308   1.683   9.825 -0.9641  2.5218 -2.0351
  922MOL0     H24424   2.258   1.511   9.652 -0.1431 -0.3447  0.8923
  922MOL0     H24425   2.296   1.650   9.559 -1.3398  0.2922  1.7619
  922MOL0     H24426   2.446   1.398   9.597 -1.3144  0.2623 -1.1150
  922MOL0     H24427   2.547   1.542   9.582  0.6585 -0.8685 -2.9702
  922MOL0     H24428   2.538   1.508   9.358 -1.6875  2.1440 -3.9168
  922MOL0     H24429   2.414   1.609   9.392 -2.4553 -1.7972 -0.0212
  922MOL0     H24430   2.193   1.298   9.163  0.6813  3.2469  0.0456
  922MOL0     H24431   2.274   1.092   9.025 -0.3451  0.3998  0.5554
  922MOL0     H24432   2.376   0.814   8.758  0.7252  2.4490  1.7924
  922MOL0     H24433   2.511   0.673   8.579 -1.4462 -4.1910  2.2728
  922MOL0     H24434   2.947   0.607   8.661  1.3649 -1.0996 -1.7046
  922MOL0     H24435   2.869   0.473   8.753 -4.2057 -0.8869  0.3700
  922MOL0     H24436   3.003   0.387   8.569 -0.6015 -0.3130  1.6725
  922MOL0     H24437   2.842   0.340   8.562  2.0266 -1.6209 -0.4483
  922MOL0     H24438   2.787   0.467   8.370  1.5250  0.9204 -1.9734
  922MOL0     H24439   2.926   0.573   8.397 -0.7268  0.7560  1.4653
  922MOL0     H24440   3.082   0.373   8.355 -1.6909  0.0338  1.7986
  922MOL0     H24441   3.008   0.427   8.211  0.9114  4.4651  0.9411
  922MOL0     H24442   2.859   0.202   8.220 -0.0772 -1.0104 -0.0466
  922MOL0     H24443   2.907   0.184   8.398  3.0017  0.9242  0.5843
  922MOL0     H24444   3.075   0.162   8.158 -0.7044  0.0372 -0.7501
  922MOL0     H24445   3.127   0.156   8.329 -0.2633 -1.3240 -0.1213
  922MOL0     H24446   2.939  -0.051   8.211 -0.5985 -0.2027  1.0776
  922MOL0     H24447   3.014  -0.050   8.369  1.1011  2.3156  0.9638
  922MOL0     H24448   3.241  -0.035   8.244 -0.7505 -0.4991  0.4129
  922MOL0     H24449   3.145  -0.190   8.211 -0.1635 -1.5039 -2.5675
  922MOL0     H24450   2.842   0.682   8.847 -0.1583 -3.5010 -0.8494
  922MOL0     H24451   2.721   0.861   8.983  0.5123  0.6909 -0.6419
  922MOL0     H24452   2.617   1.081   9.275 -0.2709  0.0974  2.2405
  922MOL0     H24453   2.555   1.269   9.398  0.5072 -1.0892 -0.8547
  922MOL0     H24454   3.359   2.594   9.474 -0.2905  0.0620 -3.8605
  922MOL0     H24455   3.454   2.798   9.546 -0.0209 -0.4193  0.3566
  922MOL0     H24456   3.901   2.971   9.651 -3.0725  0.0242  3.2737
  922MOL0     H24457   4.026   3.173   9.740  0.3880  1.7106 -0.5380
  922MOL0     H24458   3.855   3.553   9.599  1.0045 -0.8656 -1.8477
  922MOL0     H24459   4.002   3.633   9.638 -3.0753  1.1132 -1.9471
  922MOL0     H24460   3.984   3.499   9.878 -0.9984  0.2112  2.4036
  922MOL0     H24461   3.816   3.512   9.839  0.2318  0.8345  0.5685
  922MOL0     H24462   4.018   3.741   9.833  1.5280 -2.2196  0.4708
  922MOL0     H24463   3.951   3.686   9.985  0.9753  0.6526  0.4147
  922MOL0     H24464   3.820   3.869   9.901 -2.5006  0.0035  0.1081
  922MOL0     H24465   3.774   3.771   9.761 -3.4175 -1.8413 -1.4338
  922MOL0     H24466   3.491   3.613  10.016 -2.6918  2.9203 -1.7771
  922MOL0     H24467   3.794   3.416   9.465 -0.2490  1.3173  2.2444
  922MOL0     H24468   3.676   3.202   9.259  0.8915 -1.0357  0.1120
  922MOL0     H24469   3.562   3.143   9.376 -0.4991  1.1641 -0.4015
  922MOL0     H24470   3.576   3.317   9.361 -2.0131 -0.1959  1.8485
  923MOL0     O24471   3.020   1.061   6.262  0.5124  0.4900 -0.6562
  923MOL0     C24472   2.925   0.976   6.259  0.4262  0.3848  0.7146
  923MOL0     O24473   2.920   0.866   6.180 -0.6440 -0.1358 -0.2116
  923MOL0     C24474   3.033   0.834   6.106 -0.1978  0.1813 -0.3896
  923MOL0     C24475   3.118   0.920   6.025  0.4153 -0.0430  1.0025
  923MOL0     C24476   3.228   0.873   5.963  0.3341 -0.4925 -0.2290
  923MOL0     C24477   3.270   0.738   5.977 -0.8820 -0.3169  0.0556
  923MOL0     O24478   3.382   0.674   5.922 -0.8358  0.4922 -0.0765
  923MOL0     C24479   3.488   0.749   5.869 -0.4789  0.2201 -0.7261
  923MOL0     C24480   3.568   0.657   5.785  0.1681  1.3301  0.6350
  923MOL0     C24481   3.483   0.606   5.666 -0.0662  0.7645 -0.4991
  923MOL0     C24482   3.576   0.563   5.550 -0.4949  0.3177 -0.0368
  923MOL0     C24483   3.537   0.428   5.484  0.0893 -0.1019  0.9384
  923MOL0     C24484   3.600   0.393   5.347 -1.2545  0.3611  0.2624
  923MOL0     C24485   3.746   0.374   5.342 -0.2568 -0.0410  0.7003
  923MOL0     C24486   3.816   0.402   5.210 -0.6400  0.5311 -0.0902
  923MOL0     N24487   3.953   0.350   5.225  0.1183  0.8724 -0.5500
  923MOL0     C24488   4.049   0.414   5.284 -0.6386 -1.1738 -0.4807
  923MOL0     C24489   4.161   0.338   5.257 -0.4310 -0.7322 -0.7512
  923MOL0     C24490   4.292   0.382   5.308 -0.8872  1.0489  0.1409
  923MOL0     C24491   4.327   0.298   5.436  0.4975  0.2586 -0.1403
  923MOL0     C24492   4.378   0.155   5.427 -0.3757  0.2596 -0.0901
  923MOL0     C24493   4.262   0.065   5.384  0.3815 -0.5338 -0.6663
  923MOL0     O24494   4.262  -0.064   5.440  0.3868 -0.1484 -0.0466
  923MOL0     C24495   4.135  -0.107   5.460  0.7357  0.0513 -0.3200
  923MOL0     C24496   4.088  -0.119   5.588 -0.5037 -0.2631  1.1823
  923MOL0     C24497   3.968  -0.193   5.613  0.7645 -1.0018 -0.1201
  923MOL0     C24498   3.884  -0.239   5.502 -0.0767  0.2163  0.8009
  923MOL0     C24499   3.766  -0.317   5.526 -0.0529 -0.2942 -0.5464
  923MOL0     O24500   3.756  -0.379   5.641 -0.5542 -1.3118  0.1186
  923MOL0     C24501   3.667  -0.483   5.658 -0.0627  0.8422  0.4244
  923MOL0     C24502   3.552  -0.460   5.731 -0.4417  0.1974  0.3462
  923MOL0     C24503   3.466  -0.567   5.751 -0.0096  0.4214 -0.4156
  923MOL0     C24504   3.498  -0.705   5.711  0.4146 -0.3482 -0.4699
  923MOL0     O24505   3.432  -0.821   5.740 -0.6191  0.1791  0.8778
  923MOL0     C24506   3.297  -0.833   5.782  0.0554  0.1781 -0.1834
  923MOL0     C24507   3.231  -0.968   5.754 -1.4922  0.2424 -0.0047
  923MOL0     C24508   3.075  -0.965   5.778 -1.1756  0.5284  0.2952
  923MOL0     C24509   3.006  -1.098   5.782 -0.5696 -0.2137  0.3209
  923MOL0     C24510   3.051  -1.174   5.904 -1.2520  0.9505  0.5422
  923MOL0     C24511   2.930  -1.244   5.965 -0.4669 -0.4914  0.9633
  923MOL0     C24512   2.972  -1.344   6.072 -0.9676 -0.0991  0.5208
  923MOL0     C24513   2.857  -1.351   6.170  0.4525  0.4659  0.3768
  923MOL0    Cl24514   2.713  -1.430   6.081 -0.1026  0.0973 -0.0876
  923MOL0     C24515   3.618  -0.721   5.647  0.8029  0.8441 -0.4515
  923MOL0     C24516   3.700  -0.618   5.622 -0.4532 -0.4083  0.2954
  923MOL0     O24517   3.694  -0.334   5.427 -0.0723  0.7642 -0.3789
  923MOL0     C24518   3.942  -0.232   5.376 -0.2530  0.4745  0.9956
  923MOL0     C24519   4.066  -0.164   5.355 -0.0838 -0.3403 -0.0036
  923MOL0     N24520   4.123   0.232   5.179 -0.6307 -0.5268 -0.6270
  923MOL0     N24521   3.997   0.249   5.159  0.5574  0.4244  0.3315
  923MOL0     C24522   3.197   0.654   6.057 -0.5209  0.1612 -0.5823
  923MOL0     C24523   3.085   0.705   6.128 -0.5752 -0.7332  0.0768
  923MOL0     C24524   2.800   1.012   6.329  0.8585 -0.8992 -0.4811
  923MOL0     C24525   2.746   0.930   6.430 -0.5343  0.5000  0.0334
  923MOL0     C24526   2.633   0.966   6.502  1.1929 -0.3649  0.2576
  923MOL0     C24527   2.563   1.080   6.466 -0.1728 -0.1548 -0.2793
  923MOL0     O24528   2.440   1.107   6.533  0.2814 -0.2792 -0.3469
  923MOL0     C24529   2.342   1.193   6.483  0.9654 -0.6004  0.1566
  923MOL0     C24530   2.289   1.128   6.355  1.3976 -0.5999 -0.4833
  923MOL0     C24531   2.243   1.234   6.250  0.1797  0.7421 -0.7522
  923MOL0     C24532   2.189   1.173   6.122 -0.0329 -1.5072 -1.2720
  923MOL0     C24533   2.223   1.266   6.014  0.0373  0.1434  0.3003
  923MOL0     C24534   2.272   1.352   5.936 -0.3163 -0.4160 -0.2416
  923MOL0     C24535   2.617   1.158   6.365 -0.8747  0.8545 -0.1858
  923MOL0     C24536   2.728   1.124   6.291  0.7080 -0.1989 -0.6261
  923MOL0     C24537   2.773   1.227   6.194  0.2042  0.1857 -0.5093
  923MOL0     H24538   3.071   1.013   5.997 -0.9119 -1.7379 -3.1085
  923MOL0     H24539   3.276   0.951   5.904 -2.5181  0.7515 -1.0971
  923MOL0     H24540   3.458   0.833   5.806 -0.2564  1.6020  0.9617
  923MOL0     H24541   3.545   0.792   5.951 -1.6619 -1.7502  1.2214
  923MOL0     H24542   3.600   0.573   5.846  0.3090  0.7701 -0.1902
  923MOL0     H24543   3.655   0.714   5.751  0.1841  0.3765 -1.0185
  923MOL0     H24544   3.422   0.687   5.626  0.1145  0.9080 -0.4837
  923MOL0     H24545   3.414   0.526   5.695  0.4806  0.8762  1.2169
  923MOL0     H24546   3.569   0.644   5.476  1.5906  1.6676  1.1414
  923MOL0     H24547   3.675   0.549   5.594 -1.1171  0.8928  1.6417
  923MOL0     H24548   3.564   0.350   5.556  0.8509 -0.4962  0.2381
  923MOL0     H24549   3.429   0.426   5.465  0.3553  1.0084 -0.8666
  923MOL0     H24550   3.564   0.302   5.300  0.4117  0.4620 -1.3262
  923MOL0     H24551   3.578   0.476   5.279  4.2525  1.7051 -0.3620
  923MOL0     H24552   3.761   0.268   5.366  0.6124  0.1666  1.1321
  923MOL0     H24553   3.788   0.434   5.423  5.1661 -1.2374 -0.8084
  923MOL0     H24554   3.763   0.343   5.135 -1.5362  1.8372 -0.5168
  923MOL0     H24555   3.814   0.506   5.176  2.3937  0.5672 -0.4492
  923MOL0     H24556   4.044   0.505   5.343  2.8373  0.4761 -2.4037
  923MOL0     H24557   4.370   0.367   5.232 -0.2346  2.3358  0.5442
  923MOL0     H24558   4.283   0.484   5.346 -0.4880  0.3510  2.2338
  923MOL0     H24559   4.388   0.364   5.498  0.3404 -0.4685  0.8070
  923MOL0     H24560   4.232   0.286   5.489 -1.4499 -1.4598 -3.6644
  923MOL0     H24561   4.401   0.115   5.527 -1.2544 -0.0183  0.0057
  923MOL0     H24562   4.467   0.140   5.365  0.7867 -1.6450  1.9033
  923MOL0     H24563   4.259   0.059   5.275 -0.8396 -0.4946 -0.6441
  923MOL0     H24564   4.164   0.111   5.396 -0.1844 -1.2206 -2.2895
  923MOL0     H24565   4.168  -0.094   5.656  0.7347  1.5989 -0.8244
  923MOL0     H24566   3.956  -0.225   5.716  5.7900 -1.7799  0.4980
  923MOL0     H24567   3.527  -0.362   5.772 -1.9607 -1.1055  2.7714
  923MOL0     H24568   3.383  -0.562   5.820  0.8488 -0.6578  0.7412
  923MOL0     H24569   3.307  -0.826   5.891  1.7706  1.4742 -0.3834
  923MOL0     H24570   3.238  -0.748   5.747  0.9344  1.2848  0.8832
  923MOL0     H24571   3.266  -1.001   5.656  0.0329 -0.3963  0.7281
  923MOL0     H24572   3.276  -1.041   5.822  1.2220 -1.1186 -3.0370
  923MOL0     H24573   3.065  -0.905   5.869 -1.3191  0.3658  0.3866
  923MOL0     H24574   3.028  -0.901   5.702 -3.4856  2.2726  2.9629
  923MOL0     H24575   3.016  -1.157   5.690  0.2627 -1.7942  1.3760
  923MOL0     H24576   2.900  -1.081   5.802 -1.0261 -1.4857 -0.8499
  923MOL0     H24577   3.104  -1.108   5.974  2.2016 -0.4001 -0.6160
  923MOL0     H24578   3.124  -1.252   5.877 -2.2883 -0.9652  2.8642
  923MOL0     H24579   2.879  -1.155   6.003  0.1557  0.6173 -0.6855
  923MOL0     H24580   2.871  -1.282   5.881 -1.1851 -0.3069  1.3764
  923MOL0     H24581   3.063  -1.307   6.119  0.5273 -2.2154 -0.5786
  923MOL0     H24582   3.005  -1.434   6.019  3.4881  2.4709 -1.6766
  923MOL0     H24583   2.884  -1.417   6.253 -0.7898  3.0655  3.0288
  923MOL0     H24584   2.835  -1.251   6.208 -1.3729  0.2857 -0.0649
  923MOL0     H24585   3.645  -0.820   5.613 -0.4513  0.0966  0.6150
  923MOL0     H24586   3.802  -0.641   5.593  0.2752  1.3316  1.3012
  923MOL0     H24587   3.887  -0.276   5.294  1.8125  2.7995 -1.8411
  923MOL0     H24588   4.119  -0.161   5.260  1.1746 -0.4339  0.6614
  923MOL0     H24589   3.238   0.565   6.104 -0.4671  1.9886  3.1886
  923MOL0     H24590   3.025   0.639   6.191 -0.8280  0.1194  0.7476
  923MOL0     H24591   2.802   0.838   6.442  0.1166  0.6322 -1.6621
  923MOL0     H24592   2.589   0.903   6.579  1.0201 -0.5030  0.0491
  923MOL0     H24593   2.391   1.288   6.461 -0.0409 -0.3019 -0.8724
  923MOL0     H24594   2.256   1.203   6.550  1.0019 -1.1138  0.2821
  923MOL0     H24595   2.202   1.072   6.390  0.7738  0.0971 -0.9046
  923MOL0     H24596   2.352   1.053   6.305  1.8770 -1.7536  1.7142
  923MOL0     H24597   2.330   1.294   6.221  1.5557 -1.9830 -2.6880
  923MOL0     H24598   2.153   1.282   6.291 -1.5298 -3.8603  1.5208
  923MOL0     H24599   2.234   1.075   6.104 -1.8289 -2.3384 -1.5073
  923MOL0     H24600   2.083   1.154   6.145 -0.0296  0.6817  0.8403
  923MOL0     H24601   2.302   1.427   5.865 -1.1478 -0.6563 -0.8540
  923MOL0     H24602   2.569   1.252   6.340 -1.4816  0.3693 -0.8834
  923MOL0     H24603   2.729   1.209   6.095 -1.0455 -0.8159  0.1865
  923MOL0     H24604   2.741   1.328   6.222 -2.2787 -0.5288 -0.4690
  923MOL0     H24605   2.880   1.241   6.178  0.1251  0.3042 -0.9533
  924MOL0     O24606   4.181   4.253  11.227 -1.0112  0.3284 -0.0597
  924MOL0     C24607   4.245   4.359  11.253  0.3944 -0.0224 -0.2100
  924MOL0     O24608   4.372   4.382  11.212 -0.1235 -0.2812 -0.3076
  924MOL0     C24609   4.416   4.358  11.082 -0.4303 -0.5747 -0.3229
  924MOL0     C24610   4.335   4.359  10.965  0.1554 -0.6348  0.4032
  924MOL0     C24611   4.391   4.326  10.841 -0.1867  0.6032 -0.1079
  924MOL0     C24612   4.531   4.325  10.818  1.2621 -0.7327 -0.2325
  924MOL0     O24613   4.572   4.336  10.687 -0.6497  0.3701 -0.5890
  924MOL0     C24614   4.716   4.362  10.679 -0.1359  0.5592  0.7264
  924MOL0     C24615   4.758   4.382  10.532 -0.1780  0.7115  0.1944
  924MOL0     C24616   4.911   4.403  10.536  0.1915 -0.2886  0.0925
  924MOL0     C24617   4.985   4.391  10.398 -0.1992 -0.1219 -0.4474
  924MOL0     C24618   5.131   4.369  10.412 -0.7052 -0.2132  0.1820
  924MOL0     C24619   5.188   4.330  10.274  0.2972 -0.1976 -0.3545
  924MOL0     C24620   5.345   4.328  10.279 -0.4000 -0.5189 -0.6940
  924MOL0     C24621   5.389   4.213  10.365 -0.7261  0.0756  0.6389
  924MOL0     N24622   5.533   4.178  10.344  0.3635 -0.2565 -0.4237
  924MOL0     C24623   5.646   4.253  10.382  0.1841  0.2640 -0.1586
  924MOL0     C24624   5.750   4.176  10.330 -0.5110 -1.2033 -0.1390
  924MOL0     C24625   5.896   4.193  10.346  0.0532  0.6998 -0.6527
  924MOL0     C24626   5.959   4.328  10.330  0.1565 -0.0576 -0.6507
  924MOL0     C24627   6.037   4.346  10.198 -0.5004 -0.4592  0.1771
  924MOL0     C24628   6.100   4.484  10.199  0.8533 -0.4886  0.1140
  924MOL0     O24629   6.200   4.492  10.097 -0.2255 -0.4601 -0.3519
  924MOL0     C24630   6.286   4.598  10.110 -1.0489  0.5739  0.4660
  924MOL0     C24631   6.286   4.694  10.209  0.6681  0.0844  0.1424
  924MOL0     C24632   6.373   4.807  10.216 -0.3148  0.2842 -0.2224
  924MOL0     C24633   6.473   4.811  10.124  0.1276 -0.0018 -0.5828
  924MOL0     C24634   6.568   4.924  10.119  0.6323  0.1863 -0.0102
  924MOL0     O24635   6.499   5.034  10.162 -0.3291  0.0696  0.6915
  924MOL0     C24636   6.561   5.154  10.186 -0.2995  0.2777  0.1744
  924MOL0     C24637   6.511   5.218  10.300 -0.3006  0.0721 -0.1312
  924MOL0     C24638   6.553   5.356  10.324  0.0581  0.8049  0.2751
  924MOL0     C24639   6.651   5.411  10.249 -0.2827 -0.4245  0.5811
  924MOL0     O24640   6.672   5.551  10.268 -0.8912  0.0542 -0.0202
  924MOL0     C24641   6.785   5.605  10.192  0.8711 -0.5554 -1.4289
  924MOL0     C24642   6.801   5.756  10.218  0.7351 -0.0676  0.2804
  924MOL0     C24643   6.817   5.793  10.373 -0.3266  0.9048 -0.1291
  924MOL0     C24644   6.724   5.918  10.395 -0.4667  0.7688  0.3967
  924MOL0     C24645   6.789   6.014  10.505 -0.2886  0.6015  0.0449
  924MOL0     C24646   6.731   6.153  10.513  0.3105  0.4745 -0.2869
  924MOL0     C24647   6.583   6.164  10.544  0.3639  0.0426 -1.4103
  924MOL0     C24648   6.527   6.305  10.568  0.5379 -0.6828  0.3854
  924MOL0    Cl24649   6.604   6.372  10.714 -0.0199  0.8551  0.2789
  924MOL0     C24650   6.704   5.339  10.143 -0.8115  0.8991  0.1324
  924MOL0     C24651   6.666   5.209  10.112  0.1941  0.9472 -0.6524
  924MOL0     O24652   6.683   4.905  10.077  0.4360 -0.5947  0.4860
  924MOL0     C24653   6.484   4.703  10.030 -0.1005 -0.6030  0.4523
  924MOL0     C24654   6.394   4.607  10.021  0.3396  0.4738  0.2049
  924MOL0     N24655   5.701   4.073  10.259  0.3391 -0.4277  0.2708
  924MOL0     N24656   5.568   4.075  10.272  0.5688  0.4882  0.1878
  924MOL0     C24657   4.611   4.309  10.939 -0.5481 -0.8535  0.0504
  924MOL0     C24658   4.551   4.329  11.066 -0.2907 -0.1998  0.2009
  924MOL0     C24659   4.180   4.463  11.334  1.2161  1.2073 -0.8092
  924MOL0     C24660   4.041   4.472  11.326  0.1342 -0.2311  0.5416
  924MOL0     C24661   3.981   4.561  11.410  1.1256 -0.2818  0.1883
  924MOL0     C24662   4.041   4.655  11.492 -1.0282 -0.6592  0.0564
  924MOL0     O24663   3.979   4.762  11.555 -0.3227  1.0568 -0.4868
  924MOL0     C24664   4.027   4.777  11.691  0.4276  0.7218 -0.8428
  924MOL0     C24665   3.946   4.896  11.744  0.8623 -0.6040  1.2199
  924MOL0     C24666   3.993   4.926  11.891  0.1754  0.6858  0.6318
  924MOL0     C24667   3.941   4.834  11.991 -0.1708  0.2410 -0.7908
  924MOL0     C24668   4.010   4.851  12.124 -0.1880  0.2769  1.1711
  924MOL0     C24669   4.083   4.860  12.221 -0.4635 -0.4086  0.4087
  924MOL0     C24670   4.184   4.640  11.505  0.5666 -0.6455  0.4437
  924MOL0     C24671   4.249   4.543  11.424  0.4728 -0.7878 -0.4858
  924MOL0     C24672   4.400   4.548  11.428  0.0658  0.2819  0.1123
  924MOL0     H24673   4.227   4.361  10.970  0.0976  1.2289 -0.4838
  924MOL0     H24674   4.325   4.321  10.755 -0.2774  0.1075 -0.0094
  924MOL0     H24675   4.734   4.440  10.754 -5.8191  2.8727  0.1448
  924MOL0     H24676   4.780   4.275  10.701  0.3427  1.3580  2.6867
  924MOL0     H24677   4.722   4.472  10.482  1.4543  2.7110  2.3527
  924MOL0     H24678   4.726   4.298  10.470 -0.5224  1.1145 -0.1831
  924MOL0     H24679   4.950   4.324  10.601  2.7589  1.8898  1.4317
  924MOL0     H24680   4.948   4.493  10.587  0.8221 -0.5191  0.0609
  924MOL0     H24681   4.937   4.305  10.350 -0.7798 -1.3913  2.2365
  924MOL0     H24682   4.966   4.477  10.332 -1.0455  0.7200  0.8457
  924MOL0     H24683   5.166   4.461  10.460 -1.8561  0.4052 -0.1187
  924MOL0     H24684   5.150   4.286  10.481 -0.9607 -0.5934 -0.1981
  924MOL0     H24685   5.150   4.233  10.242  0.2161 -0.7724  1.3841
  924MOL0     H24686   5.158   4.414  10.210  0.2170  0.4333  0.4944
  924MOL0     H24687   5.382   4.426  10.308  0.3817  0.2619 -3.9403
  924MOL0     H24688   5.374   4.324  10.174  0.8838 -0.3432 -0.3580
  924MOL0     H24689   5.373   4.249  10.467 -0.5104  2.2245 -0.0308
  924MOL0     H24690   5.319   4.129  10.359  0.1481 -0.8218  2.3702
  924MOL0     H24691   5.660   4.355  10.415  0.9025  0.2504 -0.3948
  924MOL0     H24692   5.915   4.151  10.445 -0.2920 -1.3312 -1.4047
  924MOL0     H24693   5.936   4.129  10.266 -0.9866  2.7675 -2.9928
  924MOL0     H24694   5.888   4.410  10.334  0.5760  0.2884  2.6506
  924MOL0     H24695   6.029   4.338  10.414 -1.9767  0.8879  1.1065
  924MOL0     H24696   5.976   4.333  10.108 -3.0183  2.4633  1.2633
  924MOL0     H24697   6.112   4.268  10.187  0.1028  0.2102 -0.4934
  924MOL0     H24698   6.146   4.485  10.298  0.7731 -0.3543  0.1496
  924MOL0     H24699   6.038   4.573  10.184  2.1551  0.0842 -2.4484
  924MOL0     H24700   6.210   4.705  10.286  1.4246  1.9772  0.6599
  924MOL0     H24701   6.356   4.880  10.295 -0.3949 -0.0884  0.1080
  924MOL0     H24702   6.428   5.177  10.357 -1.4754  0.8805 -1.1898
  924MOL0     H24703   6.498   5.412  10.398 -1.7990 -1.7949  1.0365
  924MOL0     H24704   6.879   5.553  10.211  3.1769  3.4934 -0.6253
  924MOL0     H24705   6.750   5.596  10.089  1.1910 -1.6484 -1.4588
  924MOL0     H24706   6.876   5.797  10.151  0.8641 -1.0218 -0.1827
  924MOL0     H24707   6.707   5.803  10.187  0.6228 -1.7086 -2.1478
  924MOL0     H24708   6.782   5.707  10.431 -0.8835  0.5442 -0.9715
  924MOL0     H24709   6.924   5.806  10.391 -0.0557  1.0501 -1.6639
  924MOL0     H24710   6.623   5.894  10.428  0.5498 -2.2280  1.6979
  924MOL0     H24711   6.715   5.978  10.304 -3.5636 -0.3946 -0.1667
  924MOL0     H24712   6.897   6.012  10.488 -0.7151  0.2898 -3.5436
  924MOL0     H24713   6.766   5.961  10.597 -2.3146 -1.2083 -1.3794
  924MOL0     H24714   6.788   6.220  10.577 -1.9678  1.9790  0.2555
  924MOL0     H24715   6.753   6.194  10.414  1.8841 -0.8221 -0.5183
  924MOL0     H24716   6.556   6.101  10.629  3.0639  1.0744  0.3495
  924MOL0     H24717   6.535   6.114  10.459 -0.0009  0.5533 -1.5033
  924MOL0     H24718   6.538   6.369  10.480  0.0028 -1.3382 -0.1667
  924MOL0     H24719   6.420   6.295  10.591  0.9258 -1.6577  1.9371
  924MOL0     H24720   6.776   5.383  10.075  0.2538 -2.4499 -1.1345
  924MOL0     H24721   6.719   5.145  10.042  0.9001 -0.6616  1.2943
  924MOL0     H24722   6.567   4.701   9.960 -0.1727 -2.4767  0.3644
  924MOL0     H24723   6.409   4.535   9.940  0.0262 -0.8324  1.2660
  924MOL0     H24724   4.715   4.286  10.917 -0.3027 -0.1468  0.4520
  924MOL0     H24725   4.606   4.324  11.160 -0.0052  0.3132  0.0620
  924MOL0     H24726   3.985   4.402  11.264 -1.1647  2.5501 -1.6066
  924MOL0     H24727   3.872   4.562  11.411  1.1315 -0.2326  1.5499
  924MOL0     H24728   4.134   4.800  11.694  1.2702 -2.7650  0.2565
  924MOL0     H24729   4.018   4.689  11.754  2.0982  2.2807  1.7803
  924MOL0     H24730   3.841   4.867  11.747  0.2812  1.3664  1.5600
  924MOL0     H24731   3.958   4.987  11.685  0.5934  1.1534  3.6950
  924MOL0     H24732   3.961   5.030  11.902 -1.6898  0.2043  0.1055
  924MOL0     H24733   4.101   4.937  11.898  0.2510  1.2486 -0.9176
  924MOL0     H24734   3.835   4.852  12.010  0.6633  3.5021  1.6503
  924MOL0     H24735   3.948   4.736  11.942 -2.8342  0.5726 -1.9953
  924MOL0     H24736   4.139   4.878  12.311 -1.0103 -0.4615  0.7623
  924MOL0     H24737   4.246   4.700  11.570  1.5718  0.0003 -1.0605
  924MOL0     H24738   4.439   4.594  11.337 -1.9651  3.0232  0.5055
  924MOL0     H24739   4.439   4.608  11.511  1.4109  1.6673 -1.4569
  924MOL0     H24740   4.444   4.448  11.443 -1.4135 -0.3281  0.5810
  925MOL0     O24741   9.815  10.085   6.528  0.3401  0.5074  0.0092
  925MOL0     C24742   9.696  10.072   6.564  0.2633 -0.4241 -0.3713
  925MOL0     O24743   9.601  10.168   6.560  0.3382  0.0020  0.0269
  925MOL0     C24744   9.628  10.277   6.496  0.3215  0.0507  0.3358
  925MOL0     C24745   9.688  10.383   6.557  0.3939 -0.7545 -0.1459
  925MOL0     C24746   9.700  10.507   6.486  0.1554 -0.0619  0.6911
  925MOL0     C24747   9.661  10.517   6.351  0.6707 -0.7525  0.7212
  925MOL0     O24748   9.662  10.624   6.263  0.2327  0.4567 -0.2182
  925MOL0     C24749   9.768  10.713   6.282  0.7091  0.6842  0.4736
  925MOL0     C24750   9.751  10.807   6.163  1.0874 -0.4676 -0.6035
  925MOL0     C24751   9.885  10.832   6.092 -0.4098 -0.2442 -0.3825
  925MOL0     C24752   9.994  10.908   6.170 -0.6867  0.4170 -0.2911
  925MOL0     C24753  10.121  10.942   6.103 -0.4966  0.3414  0.2784
  925MOL0     C24754  10.095  11.013   5.968  0.5071 -0.3008 -0.5404
  925MOL0     C24755  10.221  11.067   5.910 -0.7957  0.9297 -0.6201
  925MOL0     C24756  10.268  11.190   5.987 -0.8510 -0.2001  0.6351
  925MOL0     N24757  10.403  11.225   5.936 -0.6285 -0.3483  0.5135
  925MOL0     C24758  10.451  11.322   5.844 -0.7792  0.1020 -0.7517
  925MOL0     C24759  10.587  11.301   5.842 -0.9800  0.4240 -0.1047
  925MOL0     C24760  10.674  11.391   5.762 -0.1728 -0.1233  0.1493
  925MOL0     C24761  10.726  11.507   5.862 -0.2430  1.7849  0.1678
  925MOL0     C24762  10.664  11.640   5.828 -0.2186 -0.4145 -0.1577
  925MOL0     C24763  10.688  11.756   5.928  1.1020 -0.2876  0.5067
  925MOL0     O24764  10.591  11.860   5.904 -0.0057 -0.2275 -0.7213
  925MOL0     C24765  10.477  11.847   5.979  0.4557 -0.7300 -0.5181
  925MOL0     C24766  10.365  11.929   5.945 -0.7856  0.6196  0.2126
  925MOL0     C24767  10.240  11.908   5.994 -0.4459  0.0951  0.3068
  925MOL0     C24768  10.209  11.798   6.071 -0.7501  0.6991 -0.8083
  925MOL0     C24769  10.071  11.758   6.095  0.5933 -0.6305  0.0924
  925MOL0     O24770  10.053  11.639   6.154  0.0148  0.0570 -0.4261
  925MOL0     C24771   9.938  11.560   6.157 -0.2433  0.3997  0.1569
  925MOL0     C24772   9.840  11.570   6.061  0.2801  0.6383 -0.5914
  925MOL0     C24773   9.727  11.480   6.058 -0.2197 -0.0062 -1.2362
  925MOL0     C24774   9.714  11.387   6.168 -0.4982  0.5019 -0.2096
  925MOL0     O24775   9.606  11.299   6.174 -0.4644 -0.1512 -0.1902
  925MOL0     C24776   9.524  11.316   6.286 -0.0739 -0.3715 -0.6125
  925MOL0     C24777   9.405  11.225   6.294  0.7836 -0.3252  1.0430
  925MOL0     C24778   9.451  11.082   6.312  1.1519  0.0840  0.4157
  925MOL0     C24779   9.323  10.988   6.341  0.2480 -0.3898  0.8642
  925MOL0     C24780   9.352  10.847   6.351 -0.5907  0.0684 -0.4405
  925MOL0     C24781   9.472  10.819   6.449  0.9222  0.6694 -0.3666
  925MOL0     C24782   9.450  10.868   6.591 -1.3211 -0.7863  0.5233
  925MOL0     C24783   9.564  10.832   6.689  0.9354 -0.1402 -0.2937
  925MOL0    Cl24784   9.725  10.879   6.638 -0.3812  0.2108  0.3236
  925MOL0     C24785   9.807  11.379   6.267 -0.4439 -0.2907 -0.0102
  925MOL0     C24786   9.919  11.463   6.255  0.6992  0.2073 -0.2408
  925MOL0     O24787   9.985  11.840   6.073  0.0406 -0.3527  0.6113
  925MOL0     C24788  10.315  11.709   6.112 -0.7613 -0.5749 -0.4325
  925MOL0     C24789  10.450  11.738   6.069 -0.0910 -0.9072 -0.5230
  925MOL0     N24790  10.619  11.204   5.942  0.5083  0.4164  0.0826
  925MOL0     N24791  10.508  11.163   5.999 -0.2027 -0.0035  0.2590
  925MOL0     C24792   9.615  10.406   6.291 -0.3431  0.6776 -0.6016
  925MOL0     C24793   9.602  10.288   6.357 -0.2491 -0.2302 -0.2454
  925MOL0     C24794   9.667   9.939   6.605  0.5354 -0.4785 -0.2390
  925MOL0     C24795   9.769   9.867   6.660  0.6586  0.9857 -0.1331
  925MOL0     C24796   9.752   9.730   6.692 -0.2341  0.2122  0.0337
  925MOL0     C24797   9.624   9.670   6.692 -0.4191  0.5253 -0.2578
  925MOL0     O24798   9.610   9.538   6.731 -0.0505 -0.0088  0.7401
  925MOL0     C24799   9.520   9.506   6.832 -0.1878  1.2352 -0.0611
  925MOL0     C24800   9.472   9.370   6.819 -0.4826 -0.7777  0.0701
  925MOL0     C24801   9.589   9.267   6.853 -0.3106  0.5919  0.4802
  925MOL0     C24802   9.550   9.117   6.844  0.8079 -0.4390  0.1548
  925MOL0     C24803   9.446   9.089   6.737  0.6667  0.2905  0.3816
  925MOL0     C24804   9.360   9.071   6.649  0.3130 -1.5783  0.1762
  925MOL0     C24805   9.515   9.752   6.646  0.2774  0.4688  0.4184
  925MOL0     C24806   9.539   9.878   6.590 -0.1512 -0.7397  0.3867
  925MOL0     C24807   9.430   9.951   6.522  0.0768  0.6567 -0.1017
  925MOL0     H24808   9.712  10.371   6.662  0.1598 -1.8683 -0.2036
  925MOL0     H24809   9.754  10.588   6.533  1.9250 -0.4560 -0.5795
  925MOL0     H24810   9.760  10.765   6.378 -2.0097 -0.5753  1.0280
  925MOL0     H24811   9.863  10.660   6.271  0.2006  0.0589 -1.0459
  925MOL0     H24812   9.711  10.901   6.201  1.5684 -0.0630 -1.0912
  925MOL0     H24813   9.669  10.776   6.099  1.2362  0.0079 -1.0288
  925MOL0     H24814   9.857  10.894   6.006 -2.3692 -2.2996 -1.3220
  925MOL0     H24815   9.930  10.741   6.052  0.5680 -1.0111  2.2526
  925MOL0     H24816   9.937  10.991   6.213 -2.1797 -1.7429  2.1924
  925MOL0     H24817  10.023  10.858   6.263  0.5207  0.2852 -0.7094
  925MOL0     H24818  10.187  11.001   6.168 -0.1464 -0.8438  1.0261
  925MOL0     H24819  10.171  10.849   6.076 -0.9529 -0.1629  1.1323
  925MOL0     H24820  10.064  10.928   5.907  1.7386 -0.8464 -0.4243
  925MOL0     H24821  10.022  11.093   5.983  2.5890  1.2321  2.5242
  925MOL0     H24822  10.203  11.096   5.806  1.0091 -0.6103 -1.4058
  925MOL0     H24823  10.301  10.993   5.910 -1.2893  0.2461  2.4370
  925MOL0     H24824  10.202  11.278   5.990  0.2150  0.6072  1.4496
  925MOL0     H24825  10.280  11.164   6.093 -2.0688 -1.4057  0.5025
  925MOL0     H24826  10.393  11.395   5.789  0.5252 -0.4524 -3.0197
  925MOL0     H24827  10.765  11.335   5.738 -1.6438 -2.3863 -0.4172
  925MOL0     H24828  10.637  11.430   5.667 -1.0232 -2.9267 -0.7686
  925MOL0     H24829  10.695  11.479   5.964  0.3322 -2.5021 -0.6522
  925MOL0     H24830  10.834  11.521   5.856 -0.2698  1.3736 -2.6061
  925MOL0     H24831  10.556  11.628   5.837 -0.3369  0.9166  0.3990
  925MOL0     H24832  10.692  11.670   5.727 -0.2704  1.0373  0.2376
  925MOL0     H24833  10.780  11.804   5.894  1.9195  0.3784  3.3671
  925MOL0     H24834  10.703  11.720   6.030 -1.1417  0.8530  1.2867
  925MOL0     H24835  10.405  12.005   5.879 -1.6805  0.5334 -0.4408
  925MOL0     H24836  10.159  11.973   5.963 -0.1386  0.2438 -0.1829
  925MOL0     H24837   9.853  11.637   5.977  0.8095  1.4235  0.1134
  925MOL0     H24838   9.652  11.489   5.980 -3.6872 -2.3519  1.5210
  925MOL0     H24839   9.574  11.298   6.382 -0.3389  3.9803  0.5555
  925MOL0     H24840   9.496  11.421   6.292 -0.2089 -0.4957  1.9053
  925MOL0     H24841   9.341  11.259   6.376 -1.1776 -1.3320 -0.0230
  925MOL0     H24842   9.344  11.241   6.206  0.7139  0.3219  1.2026
  925MOL0     H24843   9.500  11.043   6.222  0.8868  2.7960 -1.0218
  925MOL0     H24844   9.527  11.073   6.390  2.0786 -2.6151 -0.6968
  925MOL0     H24845   9.247  11.002   6.263 -2.4171  2.0009  3.6565
  925MOL0     H24846   9.269  11.016   6.432 -0.8699 -0.7381  0.3263
  925MOL0     H24847   9.367  10.817   6.247 -3.9375  1.1405 -1.3527
  925MOL0     H24848   9.270  10.784   6.386  0.4835 -1.5595 -0.7645
  925MOL0     H24849   9.492  10.712   6.454  0.3445  0.3346 -3.4918
  925MOL0     H24850   9.562  10.868   6.411  0.4300  0.6457 -1.5974
  925MOL0     H24851   9.365  10.821   6.641 -1.1839 -1.3160  0.2687
  925MOL0     H24852   9.426  10.974   6.602 -0.1010 -0.6766  2.7632
  925MOL0     H24853   9.544  10.885   6.782 -1.9484 -1.2196 -0.1814
  925MOL0     H24854   9.555  10.723   6.698 -3.3474 -0.1413 -2.0128
  925MOL0     H24855   9.815  11.295   6.334  3.2361  0.6462  0.9545
  925MOL0     H24856  10.004  11.462   6.323  0.6632  0.4856 -0.1897
  925MOL0     H24857  10.289  11.615   6.160  2.8622 -0.8454  1.3250
  925MOL0     H24858  10.521  11.662   6.100 -3.9343 -4.4886  0.3513
  925MOL0     H24859   9.586  10.400   6.187 -2.0325 -3.3026 -0.0600
  925MOL0     H24860   9.573  10.201   6.299  3.4623 -1.9567  0.2371
  925MOL0     H24861   9.871   9.904   6.667  1.1123 -0.3845  0.7833
  925MOL0     H24862   9.841   9.675   6.720 -0.6174 -1.0174 -1.0206
  925MOL0     H24863   9.426   9.562   6.818 -1.2532 -0.4582  0.0619
  925MOL0     H24864   9.559   9.531   6.931  3.2185  0.5620 -1.1206
  925MOL0     H24865   9.426   9.366   6.720  0.3264  1.3719 -0.4471
  925MOL0     H24866   9.388   9.347   6.886 -0.6711 -0.7025 -0.1381
  925MOL0     H24867   9.624   9.292   6.953 -2.5062  2.8362  0.7799
  925MOL0     H24868   9.671   9.281   6.781 -1.6825  2.0380 -0.9062
  925MOL0     H24869   9.639   9.058   6.824  1.3777 -0.7657  3.2352
  925MOL0     H24870   9.504   9.086   6.938 -2.0227  0.0664 -0.9457
  925MOL0     H24871   9.284   9.070   6.573 -1.2728 -0.7269  1.6724
  925MOL0     H24872   9.421   9.700   6.631  0.4268 -0.3236  2.0011
  925MOL0     H24873   9.388  10.038   6.572  0.6712  0.5542  0.5792
  925MOL0     H24874   9.478   9.985   6.429  2.3752 -0.3870  0.6263
  925MOL0     H24875   9.345   9.882   6.510  1.1843 -0.5234 -1.6454
  926MOL0     O24876   5.622   5.271   3.161  0.0103  0.4263 -0.4417
  926MOL0     C24877   5.623   5.169   3.231  0.2117  1.1460 -0.4944
  926MOL0     O24878   5.709   5.064   3.218  0.1909 -0.1110  0.0527
  926MOL0     C24879   5.798   5.072   3.108 -0.8145  0.1155 -0.3727
  926MOL0     C24880   5.890   5.172   3.097 -0.7588  1.2769 -0.0960
  926MOL0     C24881   5.971   5.167   2.985 -0.5746 -0.5620  0.5529
  926MOL0     C24882   5.971   5.052   2.904  0.3101 -0.1000  0.6864
  926MOL0     O24883   6.062   5.055   2.793 -0.3191 -0.2528 -0.5471
  926MOL0     C24884   6.064   4.957   2.694 -1.3413  1.1690 -0.2860
  926MOL0     C24885   6.144   4.831   2.737  0.4140  0.4265 -0.1534
  926MOL0     C24886   6.297   4.861   2.743  0.1707 -0.8533 -0.4392
  926MOL0     C24887   6.377   4.728   2.722 -0.6482 -0.1358 -0.0501
  926MOL0     C24888   6.523   4.750   2.765 -0.2503  0.0262  0.6788
  926MOL0     C24889   6.618   4.627   2.743  0.4206  0.3050  0.1750
  926MOL0     C24890   6.621   4.539   2.872 -0.2084  0.1193 -0.2779
  926MOL0     C24891   6.658   4.396   2.840  0.2848 -0.3212  0.7885
  926MOL0     N24892   6.688   4.332   2.970  0.2823 -0.0038  0.2115
  926MOL0     C24893   6.807   4.293   3.017  0.0931  0.3489  0.0938
  926MOL0     C24894   6.772   4.214   3.120  0.3508  0.3153 -0.2450
  926MOL0     C24895   6.859   4.121   3.205  0.4315  0.1531  0.5736
  926MOL0     C24896   6.850   4.159   3.359  0.0349 -1.0013  0.5872
  926MOL0     C24897   6.897   4.038   3.447  0.0486 -1.0481  0.0205
  926MOL0     C24898   6.823   3.902   3.437 -0.1276  0.3898 -0.0227
  926MOL0     O24899   6.919   3.820   3.364 -0.1514 -0.3901 -0.6249
  926MOL0     C24900   6.865   3.716   3.295  0.7172 -0.6384 -0.5221
  926MOL0     C24901   6.841   3.604   3.369 -0.4990  0.3153 -0.6026
  926MOL0     C24902   6.818   3.481   3.302  0.3024 -0.2849  0.0128
  926MOL0     C24903   6.792   3.485   3.158  0.2005  0.2321  0.6963
  926MOL0     C24904   6.779   3.350   3.092  0.4096  0.4930 -0.9877
  926MOL0     O24905   6.747   3.337   2.958  0.1962  0.3753 -0.9840
  926MOL0     C24906   6.745   3.209   2.912  0.7586  1.0446  0.4749
  926MOL0     C24907   6.620   3.153   2.884  0.4897 -0.2002 -0.4321
  926MOL0     C24908   6.611   3.033   2.815  0.2829 -1.1920  0.3993
  926MOL0     C24909   6.727   2.961   2.786  0.0016  0.4318  0.2248
  926MOL0     O24910   6.708   2.834   2.737 -0.0399 -0.5923  0.3859
  926MOL0     C24911   6.779   2.810   2.613  0.7386 -0.0404 -0.1125
  926MOL0     C24912   6.694   2.878   2.502  0.5093  0.5078  0.6990
  926MOL0     C24913   6.723   2.809   2.369 -0.1474  0.1304  0.2529
  926MOL0     C24914   6.659   2.867   2.241  0.0948 -0.3108  0.5362
  926MOL0     C24915   6.503   2.850   2.236 -0.5229  0.4683 -0.7214
  926MOL0     C24916   6.450   2.949   2.131  0.0217  0.6636 -0.6629
  926MOL0     C24917   6.303   2.917   2.092  0.2852 -0.4193 -0.8321
  926MOL0     C24918   6.256   3.014   1.987  0.8228 -0.2076  0.8977
  926MOL0    Cl24919   6.089   2.963   1.924 -0.2278  0.4496 -0.1685
  926MOL0     C24920   6.857   3.012   2.814 -0.6901 -0.1429 -0.5658
  926MOL0     C24921   6.864   3.143   2.870  0.3846 -0.2994  0.6587
  926MOL0     O24922   6.793   3.249   3.169  0.9102  0.4425 -0.5564
  926MOL0     C24923   6.799   3.601   3.089  0.2375 -0.6547 -0.2770
  926MOL0     C24924   6.839   3.722   3.162  0.8176  0.1489 -0.3919
  926MOL0     N24925   6.634   4.215   3.143 -0.6069  0.1934 -0.1599
  926MOL0     N24926   6.579   4.285   3.046 -0.3380  1.0540 -0.5820
  926MOL0     C24927   5.890   4.945   2.925  0.1929  0.6712 -0.7260
  926MOL0     C24928   5.800   4.963   3.026 -0.1909 -0.0290 -0.3027
  926MOL0     C24929   5.551   5.185   3.365 -0.7016  0.8068  0.2946
  926MOL0     C24930   5.516   5.320   3.392  0.0814  0.8525 -0.1078
  926MOL0     C24931   5.451   5.338   3.516  0.0414  0.6487  0.3146
  926MOL0     C24932   5.419   5.233   3.598  0.6308  0.0553 -0.8216
  926MOL0     O24933   5.336   5.255   3.707 -0.4285 -0.1030  0.6478
  926MOL0     C24934   5.219   5.337   3.703  0.4559  0.1331 -0.4003
  926MOL0     C24935   5.120   5.316   3.586 -0.3274  0.1636 -0.3894
  926MOL0     C24936   5.011   5.419   3.596 -0.5909 -0.1839  0.5700
  926MOL0     C24937   5.027   5.555   3.519 -0.1733 -0.2387  0.6324
  926MOL0     C24938   5.134   5.644   3.569 -0.2097  0.0179 -0.1747
  926MOL0     C24939   5.218   5.718   3.618  0.0366  0.0409  0.4651
  926MOL0     C24940   5.455   5.101   3.573 -1.4314  0.3658 -0.7588
  926MOL0     C24941   5.531   5.075   3.458 -0.5609  0.6549 -0.3965
  926MOL0     C24942   5.562   4.933   3.428 -0.1765 -1.1477 -0.0877
  926MOL0     H24943   5.900   5.246   3.175 -1.4156  2.1180 -0.7804
  926MOL0     H24944   6.043   5.245   2.964 -1.2015 -0.9763 -4.2998
  926MOL0     H24945   5.963   4.922   2.670 -1.2390  1.9092 -1.9179
  926MOL0     H24946   6.113   5.006   2.609  2.0402  1.8685  1.8697
  926MOL0     H24947   6.135   4.753   2.661 -1.6616 -1.8552  2.2321
  926MOL0     H24948   6.104   4.795   2.832  2.0332 -0.0356  0.3906
  926MOL0     H24949   6.319   4.900   2.842  0.7740  2.3844 -1.7080
  926MOL0     H24950   6.331   4.939   2.673  1.6039 -2.8512 -2.0934
  926MOL0     H24951   6.331   4.641   2.769 -3.0927 -0.0985 -2.1359
  926MOL0     H24952   6.372   4.695   2.617  0.8113 -0.1719 -0.1306
  926MOL0     H24953   6.565   4.824   2.697  0.2011 -0.3198  0.5734
  926MOL0     H24954   6.520   4.792   2.866 -1.6453 -0.4034  0.8469
  926MOL0     H24955   6.580   4.568   2.659 -0.2359  0.1737  0.5624
  926MOL0     H24956   6.719   4.668   2.730  0.0751  1.4754  1.0192
  926MOL0     H24957   6.531   4.543   2.934  0.9149  1.3577  1.3742
  926MOL0     H24958   6.704   4.576   2.933 -0.0699 -1.0350  0.2805
  926MOL0     H24959   6.573   4.346   2.792  1.1866 -1.1636  0.0344
  926MOL0     H24960   6.743   4.397   2.772 -0.9011 -0.7256 -0.7638
  926MOL0     H24961   6.903   4.297   2.967 -1.0234 -0.6181 -2.3164
  926MOL0     H24962   6.822   4.020   3.182  1.6712  0.0678 -1.2454
  926MOL0     H24963   6.960   4.129   3.165 -0.3384 -0.1162 -1.5585
  926MOL0     H24964   6.906   4.250   3.382  0.8166 -1.9477  2.7411
  926MOL0     H24965   6.744   4.167   3.386  0.2031 -0.7017  1.1711
  926MOL0     H24966   6.894   4.072   3.551  2.5100  0.0759 -0.2140
  926MOL0     H24967   7.004   4.022   3.435 -0.0278 -3.2704  1.6949
  926MOL0     H24968   6.726   3.906   3.387  1.1997 -1.1732 -2.9361
  926MOL0     H24969   6.800   3.842   3.526 -0.0517 -2.4689 -1.8184
  926MOL0     H24970   6.862   3.593   3.475  0.1165 -0.7171 -0.8114
  926MOL0     H24971   6.814   3.388   3.359 -0.1156 -1.6266 -2.0943
  926MOL0     H24972   6.531   3.201   2.922 -0.3361 -3.2007  1.8035
  926MOL0     H24973   6.518   2.991   2.779  1.0366 -1.7529 -0.9720
  926MOL0     H24974   6.884   2.842   2.611  1.0580 -1.0730 -2.3190
  926MOL0     H24975   6.781   2.702   2.596  1.9272  0.2310 -2.0772
  926MOL0     H24976   6.588   2.855   2.517  0.2041 -2.5162 -4.0423
  926MOL0     H24977   6.717   2.983   2.489  1.2395  0.0647 -2.0832
  926MOL0     H24978   6.830   2.791   2.354 -0.9770 -3.0121 -3.5479
  926MOL0     H24979   6.678   2.710   2.384 -0.2932 -0.2162 -2.0924
  926MOL0     H24980   6.704   2.819   2.154 -0.2475 -0.4108  0.4104
  926MOL0     H24981   6.686   2.972   2.236 -0.6191 -0.1611 -0.4835
  926MOL0     H24982   6.446   2.869   2.327  1.9967 -1.3135  1.3478
  926MOL0     H24983   6.487   2.744   2.214  0.5180  0.2444 -0.4469
  926MOL0     H24984   6.452   3.056   2.151 -1.4951  0.9372 -1.8073
  926MOL0     H24985   6.505   2.928   2.038 -3.8995  1.5703 -3.4639
  926MOL0     H24986   6.236   2.921   2.179 -0.4696 -1.4071 -1.3463
  926MOL0     H24987   6.293   2.819   2.044  1.1266 -0.8324 -0.1949
  926MOL0     H24988   6.267   3.117   2.022  1.4246  0.7207 -1.7816
  926MOL0     H24989   6.320   3.006   1.899 -1.2795  2.3246 -1.0329
  926MOL0     H24990   6.945   2.950   2.804  1.0702  2.0219  0.6282
  926MOL0     H24991   6.958   3.197   2.870  0.3548 -0.1667 -1.2268
  926MOL0     H24992   6.778   3.602   2.983 -2.7737 -0.1592  0.2196
  926MOL0     H24993   6.861   3.815   3.109 -3.3796  1.6463  0.1376
  926MOL0     H24994   5.907   4.852   2.871  1.8947 -0.4808  1.5851
  926MOL0     H24995   5.738   4.879   3.056  0.8745  0.1304  2.7400
  926MOL0     H24996   5.545   5.398   3.322  0.8638 -1.7339 -2.9018
  926MOL0     H24997   5.398   5.431   3.530  1.2225  1.4261 -0.2183
  926MOL0     H24998   5.250   5.440   3.719  0.8084 -0.3731  3.0007
  926MOL0     H24999   5.155   5.314   3.789 -0.3239  2.8198 -0.1826
  926MOL0     H25000   5.082   5.216   3.609 -0.4797  0.3752  0.2789
  926MOL0     H25001   5.167   5.315   3.487  2.5970 -1.8632  0.8714
  926MOL0     H25002   5.006   5.454   3.700  0.7907  0.8892  0.3171
  926MOL0     H25003   4.918   5.367   3.573 -0.3403 -0.3732 -0.0349
  926MOL0     H25004   5.038   5.545   3.410  2.6984 -3.1853  1.0602
  926MOL0     H25005   4.934   5.610   3.537  1.8547  3.6835  0.1383
  926MOL0     H25006   5.293   5.774   3.668  0.0671 -1.6499  2.4591
  926MOL0     H25007   5.421   5.012   3.623 -0.4174  1.7367  2.6918
  926MOL0     H25008   5.517   4.915   3.330  5.5280  1.5608 -3.7822
  926MOL0     H25009   5.667   4.912   3.403  0.2529 -0.8861  1.4042
  926MOL0     H25010   5.521   4.859   3.497  0.3892 -1.5836 -0.2065
  927MOL0     O25011   6.420   9.256   8.342 -0.0155  0.1950  0.0098
  927MOL0     C25012   6.458   9.350   8.416  0.0630 -0.2724 -0.0678
  927MOL0     O25013   6.377   9.426   8.498  0.0322 -0.3056 -0.1025
  927MOL0     C25014   6.245   9.395   8.522 -0.3423 -0.0635  0.2275
  927MOL0     C25015   6.196   9.400   8.647  1.0744  0.2982  0.1379
  927MOL0     C25016   6.056   9.372   8.668 -0.0045 -1.0552  0.6723
  927MOL0     C25017   5.967   9.342   8.566 -0.1802  0.5271  0.2890
  927MOL0     O25018   5.836   9.318   8.601  0.2623 -0.8385  0.4219
  927MOL0     C25019   5.791   9.189   8.567  0.3632  0.4352  0.3162
  927MOL0     C25020   5.678   9.136   8.662  0.0436  0.5317 -0.6442
  927MOL0     C25021   5.651   8.993   8.645  0.4235 -0.5928  0.1330
  927MOL0     C25022   5.540   8.946   8.731 -0.2490  0.2895 -0.3110
  927MOL0     C25023   5.498   8.807   8.684 -0.7625 -0.0672 -0.3109
  927MOL0     C25024   5.613   8.703   8.676  0.9417  0.4024  0.4056
  927MOL0     C25025   5.556   8.583   8.590  1.2361  0.3954 -0.5336
  927MOL0     C25026   5.418   8.542   8.636 -0.2286  0.3209  0.8995
  927MOL0     N25027   5.360   8.426   8.574 -0.2479  0.0326  1.0160
  927MOL0     C25028   5.346   8.419   8.437 -0.6280  0.1323  0.1042
  927MOL0     C25029   5.296   8.295   8.427 -0.5669  0.0805  0.0885
  927MOL0     C25030   5.246   8.240   8.296 -0.3105 -0.9640 -0.2742
  927MOL0     C25031   5.337   8.258   8.168 -0.2165 -0.2973 -0.5513
  927MOL0     C25032   5.479   8.225   8.212 -0.4621 -0.5711  0.5400
  927MOL0     C25033   5.542   8.164   8.073 -0.0156 -0.4375 -1.0352
  927MOL0     O25034   5.662   8.090   8.090 -0.5523 -0.2377 -0.1666
  927MOL0     C25035   5.662   7.970   8.163 -0.2012 -0.5099  0.0784
  927MOL0     C25036   5.792   7.917   8.173  0.2165  0.5340  0.2189
  927MOL0     C25037   5.796   7.782   8.225 -0.4485 -1.1107  0.5380
  927MOL0     C25038   5.681   7.708   8.251 -0.6423 -0.1131 -0.2322
  927MOL0     C25039   5.704   7.575   8.307 -0.5622 -0.2720  1.2360
  927MOL0     O25040   5.830   7.535   8.298 -0.0810 -0.0461 -0.0795
  927MOL0     C25041   5.869   7.440   8.386 -0.6824  0.4143  0.8512
  927MOL0     C25042   5.948   7.488   8.487  0.0417 -0.6262  0.4881
  927MOL0     C25043   5.995   7.399   8.593  0.4960 -0.3201 -0.6332
  927MOL0     C25044   5.953   7.266   8.595  0.3622 -0.8654  0.6783
  927MOL0     O25045   5.999   7.175   8.692  0.8314 -0.6172 -0.5904
  927MOL0     C25046   6.137   7.178   8.734  0.1070 -0.1278  0.3774
  927MOL0     C25047   6.197   7.054   8.810  0.5387  0.0260  0.4449
  927MOL0     C25048   6.133   7.027   8.950 -0.1998 -0.8413  0.9220
  927MOL0     C25049   6.171   6.890   9.007  0.6003  0.6997  0.4916
  927MOL0     C25050   6.143   6.887   9.157 -0.3120  0.2850 -0.4765
  927MOL0     C25051   6.006   6.870   9.206 -0.0573 -0.1028  0.2544
  927MOL0     C25052   6.007   6.841   9.355 -0.0381  0.4273  1.3097
  927MOL0     C25053   5.870   6.804   9.404 -0.2882  0.1471 -0.2992
  927MOL0    Cl25054   5.748   6.926   9.366 -0.2927 -0.1800 -0.2001
  927MOL0     C25055   5.873   7.229   8.495 -0.5073 -0.0090  1.1307
  927MOL0     C25056   5.824   7.310   8.389 -1.4883  0.1557  0.4574
  927MOL0     O25057   5.605   7.523   8.367 -0.5719 -0.7607  0.6452
  927MOL0     C25058   5.559   7.767   8.232  0.9088 -0.2063  0.2054
  927MOL0     C25059   5.549   7.895   8.187 -1.3581 -0.5794 -0.6218
  927MOL0     N25060   5.272   8.235   8.550  0.0854  0.1543  0.6892
  927MOL0     N25061   5.318   8.311   8.634  0.2381 -0.7444  0.1822
  927MOL0     C25062   6.025   9.327   8.438 -0.4016 -0.2215  0.5371
  927MOL0     C25063   6.164   9.362   8.414  1.2341  0.7638 -1.2546
  927MOL0     C25064   6.604   9.400   8.417  0.1817  0.8687 -0.4486
  927MOL0     C25065   6.632   9.538   8.437  0.5969  0.2214  0.0736
  927MOL0     C25066   6.755   9.589   8.451 -1.0049  0.9924  0.5831
  927MOL0     C25067   6.868   9.500   8.428  0.5026 -0.3200  0.2370
  927MOL0     O25068   7.000   9.534   8.441 -0.3773  0.2393  0.5417
  927MOL0     C25069   7.038   9.670   8.467  0.2791 -0.8541 -0.6144
  927MOL0     C25070   7.105   9.746   8.356 -0.1080 -0.6321  0.4872
  927MOL0     C25071   7.238   9.694   8.305 -0.4632 -0.3314  0.7623
  927MOL0     C25072   7.293   9.739   8.167  0.1811  0.2992  0.0459
  927MOL0     C25073   7.281   9.882   8.127  0.4289 -0.0679 -0.4460
  927MOL0     C25074   7.293  10.005   8.093  0.7142  0.4217  0.5223
  927MOL0     C25075   6.849   9.365   8.393 -0.2357 -0.3180  0.4038
  927MOL0     C25076   6.718   9.316   8.396 -0.6630  0.0367  0.1225
  927MOL0     C25077   6.705   9.172   8.359 -0.1226  0.4365  0.0932
  927MOL0     H25078   6.265   9.418   8.728  1.7256 -2.3881  0.2694
  927MOL0     H25079   6.009   9.388   8.764 -1.5439  3.1392 -0.5533
  927MOL0     H25080   5.734   9.182   8.473 -1.4769  0.0841  1.4008
  927MOL0     H25081   5.877   9.123   8.556 -0.1342  0.1367 -2.6178
  927MOL0     H25082   5.591   9.201   8.648  1.3207  2.7539  1.1156
  927MOL0     H25083   5.708   9.158   8.765 -0.2387 -0.1715 -0.4057
  927MOL0     H25084   5.741   8.936   8.671 -0.8356 -1.7124  2.3537
  927MOL0     H25085   5.631   8.963   8.542  2.2794 -0.2285 -0.3793
  927MOL0     H25086   5.570   8.931   8.835 -0.0949 -4.0630 -0.7772
  927MOL0     H25087   5.452   9.010   8.721  1.0559  2.3641  0.8106
  927MOL0     H25088   5.410   8.783   8.746  1.3201  0.8365  3.3007
  927MOL0     H25089   5.459   8.820   8.583  1.9433  3.0024 -1.1250
  927MOL0     H25090   5.695   8.745   8.617  1.6364 -0.2805  0.8562
  927MOL0     H25091   5.636   8.663   8.775  0.6846 -1.5091 -0.2623
  927MOL0     H25092   5.623   8.497   8.603  2.0927  1.2659  1.0795
  927MOL0     H25093   5.552   8.603   8.483 -1.5597 -1.8946 -0.9753
  927MOL0     H25094   5.421   8.545   8.745  3.7946  0.0765  0.9386
  927MOL0     H25095   5.355   8.624   8.598  2.6878  1.7872 -1.0993
  927MOL0     H25096   5.361   8.497   8.363 -0.5026 -1.4079 -1.5692
  927MOL0     H25097   5.209   8.137   8.300  1.2273 -1.6090 -1.8375
  927MOL0     H25098   5.152   8.291   8.270 -0.3290 -0.9312 -0.1454
  927MOL0     H25099   5.296   8.187   8.096  1.3858  1.2624 -3.1369
  927MOL0     H25100   5.328   8.357   8.123 -1.0871 -1.3510 -2.8399
  927MOL0     H25101   5.486   8.154   8.295  2.5695  0.4274  1.2857
  927MOL0     H25102   5.528   8.316   8.249  2.2681 -1.7385  0.0224
  927MOL0     H25103   5.557   8.246   8.002 -1.5121  0.6179 -0.2158
  927MOL0     H25104   5.466   8.101   8.026 -1.6436  1.1183 -0.6321
  927MOL0     H25105   5.872   7.982   8.141 -1.1358  1.9518 -0.4507
  927MOL0     H25106   5.897   7.742   8.234 -0.6305 -1.9449 -0.9502
  927MOL0     H25107   5.986   7.590   8.487 -1.6672  0.0480  0.3947
  927MOL0     H25108   6.058   7.434   8.674  0.2749  0.5286 -0.8092
  927MOL0     H25109   6.195   7.212   8.647 -0.0394  1.6709  0.9502
  927MOL0     H25110   6.144   7.257   8.809  0.2966 -0.6524  0.9181
  927MOL0     H25111   6.181   6.962   8.754 -1.7213 -1.2625  3.0073
  927MOL0     H25112   6.301   7.080   8.834 -0.5205  1.8680  3.6038
  927MOL0     H25113   6.172   7.110   9.010  0.7345  0.6897 -1.6229
  927MOL0     H25114   6.024   7.033   8.956 -0.4086 -0.9420 -1.5750
  927MOL0     H25115   6.275   6.866   8.985  0.6685 -0.4264  1.8813
  927MOL0     H25116   6.108   6.817   8.955 -1.7334  2.9184  0.0110
  927MOL0     H25117   6.178   6.984   9.195 -3.0790  0.8146  1.0225
  927MOL0     H25118   6.206   6.808   9.198  1.8845  0.8469 -2.4962
  927MOL0     H25119   5.947   6.960   9.184  0.8433  0.6239  0.7672
  927MOL0     H25120   5.958   6.791   9.147 -0.9340  3.2154 -3.9986
  927MOL0     H25121   6.041   6.923   9.419  0.1169  1.3986  0.0329
  927MOL0     H25122   6.083   6.765   9.375 -0.4327  0.2391  2.1054
  927MOL0     H25123   5.838   6.702   9.382  0.2560  0.0703 -0.7787
  927MOL0     H25124   5.890   6.807   9.512  0.3315  0.7642 -0.4251
  927MOL0     H25125   5.861   7.121   8.500  1.7488 -0.3573  0.2338
  927MOL0     H25126   5.771   7.266   8.305  1.9142 -1.2978 -1.1244
  927MOL0     H25127   5.468   7.709   8.246  1.9582 -2.4440 -1.4987
  927MOL0     H25128   5.459   7.953   8.174  0.9410  3.4391 -0.2774
  927MOL0     H25129   5.961   9.289   8.359  1.4493 -0.7969 -0.7362
  927MOL0     H25130   6.184   9.342   8.310 -0.3275 -0.9181 -1.2795
  927MOL0     H25131   6.543   9.600   8.433  0.5531  0.1162 -1.9345
  927MOL0     H25132   6.758   9.696   8.470  0.9145  1.1230 -0.2795
  927MOL0     H25133   7.094   9.678   8.560 -0.3758 -0.0388 -0.2814
  927MOL0     H25134   6.949   9.728   8.493  0.5001 -1.1532  0.8454
  927MOL0     H25135   7.113   9.844   8.405 -0.7516 -0.1007 -0.4254
  927MOL0     H25136   7.042   9.748   8.266  1.2154 -3.4791 -0.6271
  927MOL0     H25137   7.230   9.586   8.322 -0.0435  0.0201  3.5938
  927MOL0     H25138   7.308   9.731   8.379  1.5644 -0.7686 -0.8554
  927MOL0     H25139   7.395   9.704   8.152 -0.3367 -1.0646 -0.4151
  927MOL0     H25140   7.233   9.687   8.092  1.1761 -0.7183 -0.0590
  927MOL0     H25141   7.305  10.110   8.072  0.9413  0.1907 -0.5340
  927MOL0     H25142   6.936   9.305   8.367 -0.3893 -0.3579 -0.0366
  927MOL0     H25143   6.807   9.136   8.343 -0.0194  1.2912 -1.4210
  927MOL0     H25144   6.651   9.118   8.437 -1.2650  0.3521 -0.7286
  927MOL0     H25145   6.641   9.154   8.272 -0.5470  0.1581  0.4602
  928MOL0     O25146   1.817   3.297  11.148 -0.1005  0.5570  0.6927
  928MOL0     C25147   1.810   3.302  11.031 -0.5058 -0.6867  0.9372
  928MOL0     O25148   1.893   3.376  10.952 -0.3568 -0.2773  0.4853
  928MOL0     C25149   1.946   3.490  11.009  0.5405 -0.1861  0.6835
  928MOL0     C25150   1.882   3.606  10.973 -0.2593 -1.0915  0.3338
  928MOL0     C25151   1.919   3.724  11.032 -0.1104 -0.5948  0.2991
  928MOL0     C25152   2.028   3.725  11.125  1.0733 -0.5674 -0.2611
  928MOL0     O25153   2.072   3.848  11.170 -0.1887 -0.1513  0.0119
  928MOL0     C25154   2.190   3.863  11.251  0.0405 -0.5797  0.1233
  928MOL0     C25155   2.235   4.017  11.248  0.4709  1.0983 -0.2665
  928MOL0     C25156   2.378   4.030  11.293 -0.2953 -0.2344 -0.3620
  928MOL0     C25157   2.440   4.170  11.257  0.2838 -0.7263 -0.5658
  928MOL0     C25158   2.564   4.194  11.343  0.8276 -0.1016 -0.5509
  928MOL0     C25159   2.610   4.347  11.363 -0.7376  0.3863  0.1932
  928MOL0     C25160   2.716   4.350  11.473 -0.3367 -0.4679 -0.6476
  928MOL0     C25161   2.780   4.483  11.503 -0.3650 -0.7250  0.5541
  928MOL0     N25162   2.867   4.540  11.399  0.9326 -0.2612  0.3340
  928MOL0     C25163   2.995   4.506  11.384  0.6820  0.4231  0.2304
  928MOL0     C25164   3.032   4.545  11.260 -0.6823  0.7818 -0.1126
  928MOL0     C25165   3.175   4.526  11.205  0.6370  0.7037 -0.1522
  928MOL0     C25166   3.174   4.502  11.045  0.0289 -0.3750  1.2103
  928MOL0     C25167   3.160   4.347  11.003 -1.0841 -1.3011  0.0245
  928MOL0     C25168   3.071   4.253  11.081  0.2925 -0.4757  0.2965
  928MOL0     O25169   3.145   4.198  11.184  0.0562  0.0341 -0.9923
  928MOL0     C25170   3.081   4.135  11.286 -0.1292  0.1526  0.0674
  928MOL0     C25171   3.174   4.098  11.387 -0.6787  0.1744 -0.7060
  928MOL0     C25172   3.125   4.033  11.507  0.4795  0.4971  0.7591
  928MOL0     C25173   2.990   3.995  11.521 -0.8824  1.0246  0.7110
  928MOL0     C25174   2.937   3.927  11.643 -0.6725  0.0328  0.0946
  928MOL0     O25175   3.026   3.916  11.739 -0.0707  0.1862 -0.1436
  928MOL0     C25176   2.990   3.857  11.858  0.4600 -0.1065  0.4339
  928MOL0     C25177   2.978   3.947  11.968 -0.2966 -0.5361  0.5852
  928MOL0     C25178   2.931   3.913  12.093 -0.0871  0.3341  1.6265
  928MOL0     C25179   2.899   3.777  12.126  0.0356 -0.1019  0.2917
  928MOL0     O25180   2.864   3.755  12.261  0.0271  0.4198 -0.7756
  928MOL0     C25181   2.889   3.611  12.304 -0.1125 -0.8985  0.6008
  928MOL0     C25182   3.043   3.591  12.310  0.0063  0.0837 -0.1990
  928MOL0     C25183   3.085   3.468  12.385  0.1033  0.4417 -0.4385
  928MOL0     C25184   3.104   3.349  12.292  0.5182  0.2300 -0.0847
  928MOL0     C25185   3.121   3.215  12.381 -0.1861  0.1345 -0.9581
  928MOL0     C25186   3.010   3.175  12.469 -0.0507 -0.0517 -0.7319
  928MOL0     C25187   2.899   3.107  12.388 -0.8678  0.2172 -0.3385
  928MOL0     C25188   2.792   3.198  12.334  0.0993  0.4802  0.4254
  928MOL0    Cl25189   2.625   3.172  12.411 -0.5736 -0.2323 -0.6749
  928MOL0     C25190   2.911   3.678  12.021 -0.4543 -0.6192 -0.4664
  928MOL0     C25191   2.941   3.725  11.885 -0.7227  0.4303  0.4790
  928MOL0     O25192   2.823   3.897  11.647  0.5042 -0.2900 -0.0596
  928MOL0     C25193   2.904   4.042  11.424  0.3396 -0.2607 -0.0065
  928MOL0     C25194   2.946   4.109  11.305 -0.2482 -0.3564 -0.2730
  928MOL0     N25195   2.931   4.614  11.215 -0.5040  0.0859 -0.2624
  928MOL0     N25196   2.823   4.602  11.295 -0.1685 -0.2144 -0.5212
  928MOL0     C25197   2.088   3.605  11.163  0.3046 -0.1901 -0.1353
  928MOL0     C25198   2.046   3.486  11.108  0.2413 -0.1103 -0.9926
  928MOL0     C25199   1.716   3.206  10.962 -0.0450  0.0829 -0.8024
  928MOL0     C25200   1.606   3.159  11.044 -0.2313  0.7450  1.1252
  928MOL0     C25201   1.517   3.063  10.997 -0.1749  1.2213  0.9119
  928MOL0     C25202   1.519   3.024  10.866 -0.8357  0.0977  0.5180
  928MOL0     O25203   1.424   2.938  10.818  0.3488 -0.2095  0.5403
  928MOL0     C25204   1.396   2.959  10.679  0.0774 -0.7241 -0.6806
  928MOL0     C25205   1.255   2.896  10.654  0.7930  0.0538 -0.2331
  928MOL0     C25206   1.227   2.887  10.498  0.5758  0.1059 -0.7127
  928MOL0     C25207   1.106   2.800  10.446  0.2564  1.0721 -1.0003
  928MOL0     C25208   0.978   2.823  10.513  0.0731 -0.7007  0.0352
  928MOL0     C25209   0.868   2.850  10.568  0.3406  0.6746 -0.1982
  928MOL0     C25210   1.627   3.074  10.783  0.1692  0.3617 -0.8039
  928MOL0     C25211   1.724   3.167  10.827 -0.3693 -0.0703  0.4744
  928MOL0     C25212   1.837   3.191  10.731 -0.3923  0.4926  0.1602
  928MOL0     H25213   1.804   3.606  10.898  1.9075  1.3480 -2.1214
  928MOL0     H25214   1.877   3.821  11.006  1.7563 -0.2122 -1.6147
  928MOL0     H25215   2.170   3.857  11.359  1.1706  1.1157  0.4912
  928MOL0     H25216   2.275   3.802  11.220  0.4212 -0.6794  1.2987
  928MOL0     H25217   2.167   4.077  11.310  0.0473  0.0107  0.3566
  928MOL0     H25218   2.223   4.052  11.145  2.9599 -1.1886 -1.4224
  928MOL0     H25219   2.433   3.952  11.240 -0.5309 -1.8288  1.6476
  928MOL0     H25220   2.376   4.012  11.401 -2.4636  2.1658  0.1050
  928MOL0     H25221   2.461   4.191  11.152 -1.5646  0.0842 -0.8280
  928MOL0     H25222   2.371   4.250  11.287  2.6573  1.7186 -1.2434
  928MOL0     H25223   2.542   4.153  11.442 -0.2887  1.1106 -0.2791
  928MOL0     H25224   2.653   4.145  11.301  0.3328 -0.6927 -0.9350
  928MOL0     H25225   2.649   4.382  11.267 -0.0248  0.3427  0.4637
  928MOL0     H25226   2.524   4.410  11.387  0.3398  2.6106 -1.4298
  928MOL0     H25227   2.791   4.272  11.453  2.1438  2.0640 -1.8604
  928MOL0     H25228   2.666   4.321  11.566 -0.5745  0.3200 -0.5247
  928MOL0     H25229   2.711   4.559  11.540 -0.2215 -0.6288  0.6258
  928MOL0     H25230   2.852   4.475  11.586  2.6651  2.1413 -1.5152
  928MOL0     H25231   3.059   4.450  11.452  0.7765 -0.5910 -0.6613
  928MOL0     H25232   3.235   4.614  11.230 -0.6262  1.7474 -0.6869
  928MOL0     H25233   3.215   4.435  11.251 -1.2594 -0.9025 -1.5097
  928MOL0     H25234   3.102   4.567  10.994 -0.5876 -0.9258  1.3776
  928MOL0     H25235   3.264   4.551  11.006 -0.8126  1.0803  0.9995
  928MOL0     H25236   3.263   4.310  10.994  1.9780  5.5979  0.0623
  928MOL0     H25237   3.114   4.360  10.905 -0.2901  4.4715  0.0652
  928MOL0     H25238   3.048   4.175  11.008 -0.9894  0.8262 -0.7674
  928MOL0     H25239   2.980   4.304  11.115  0.8528 -0.6128  2.1129
  928MOL0     H25240   3.270   4.147  11.379  0.4534 -1.1558  2.7992
  928MOL0     H25241   3.198   4.018  11.586 -0.5209 -0.2897  1.5631
  928MOL0     H25242   3.024   4.044  11.952  0.1417 -0.9299 -0.6862
  928MOL0     H25243   2.941   3.990  12.169  1.9959  1.1058  0.6421
  928MOL0     H25244   2.844   3.598  12.403 -0.5325 -4.3505  0.0991
  928MOL0     H25245   2.822   3.545  12.248  0.4416 -1.5274  0.6523
  928MOL0     H25246   3.089   3.590  12.211 -3.3513 -0.5003 -1.8799
  928MOL0     H25247   3.090   3.678  12.356 -2.1048  2.0451 -1.5523
  928MOL0     H25248   3.176   3.492  12.441 -0.7794  0.1552  1.1505
  928MOL0     H25249   3.012   3.448  12.463 -0.2686 -0.6944 -1.0667
  928MOL0     H25250   3.195   3.376  12.236 -1.5043 -0.5656 -4.1680
  928MOL0     H25251   3.010   3.345  12.236 -0.7425 -2.9953  1.9687
  928MOL0     H25252   3.212   3.235  12.439 -1.9911 -0.4599  2.3243
  928MOL0     H25253   3.138   3.125  12.321 -0.9818 -1.9673  1.7674
  928MOL0     H25254   3.061   3.114  12.544  1.7061  0.2216 -1.6576
  928MOL0     H25255   2.967   3.265  12.514  0.8316 -0.2732  0.6264
  928MOL0     H25256   2.857   3.028  12.450  3.0110 -1.7147  0.1213
  928MOL0     H25257   2.939   3.052  12.302 -0.3676 -0.6995  0.4686
  928MOL0     H25258   2.811   3.306  12.342 -0.6536  0.5252  2.0899
  928MOL0     H25259   2.772   3.175  12.230  1.3610  2.6841 -0.3786
  928MOL0     H25260   2.895   3.574  12.050  0.4998  0.3955  4.6871
  928MOL0     H25261   2.920   3.661  11.800  1.3617 -0.4224  0.5619
  928MOL0     H25262   2.801   4.012  11.435  0.0910  0.9973  1.4026
  928MOL0     H25263   2.877   4.147  11.230 -0.8815 -0.1577  0.3994
  928MOL0     H25264   2.176   3.607  11.226  1.4919 -2.3269 -1.6276
  928MOL0     H25265   2.104   3.402  11.146  2.5371  1.9863  0.4713
  928MOL0     H25266   1.586   3.183  11.148 -0.8704  0.8104  0.9888
  928MOL0     H25267   1.452   3.013  11.068  1.1115 -0.4976  0.9561
  928MOL0     H25268   1.469   2.903  10.620  1.2200  2.3881 -2.4134
  928MOL0     H25269   1.402   3.064  10.648  1.9783  0.5561  3.3274
  928MOL0     H25270   1.171   2.941  10.708 -0.5385 -0.4489 -1.7864
  928MOL0     H25271   1.268   2.794  10.690 -1.1917 -0.7184 -1.5074
  928MOL0     H25272   1.313   2.867  10.433  0.4569 -0.5284 -0.6750
  928MOL0     H25273   1.204   2.992  10.478 -0.7157  0.2319  1.1744
  928MOL0     H25274   1.103   2.826  10.340 -2.9497  0.1636 -1.2132
  928MOL0     H25275   1.128   2.694  10.462  1.7383  1.6970  1.9232
  928MOL0     H25276   0.786   2.889  10.624  0.6548  0.8609  0.1378
  928MOL0     H25277   1.637   3.025  10.686  3.1676 -4.7140  1.6858
  928MOL0     H25278   1.841   3.297  10.704  0.6516  0.9379  1.9142
  928MOL0     H25279   1.927   3.158  10.784  0.3873 -2.3563 -2.6042
  928MOL0     H25280   1.824   3.127  10.644  1.5487  0.1163  0.0956
  929MOL0     O25281   7.107   0.998   9.013  0.2605 -0.1003 -0.3796
  929MOL0     C25282   7.182   1.031   8.917  0.3516 -0.0940 -1.1782
  929MOL0     O25283   7.131   1.101   8.809  0.7729 -0.7594  1.3884
  929MOL0     C25284   6.997   1.081   8.769 -0.3971 -0.1709  0.0410
  929MOL0     C25285   6.917   1.190   8.736 -0.7545  0.0157 -0.8437
  929MOL0     C25286   6.793   1.160   8.680 -0.0526 -0.9461  0.4655
  929MOL0     C25287   6.755   1.024   8.650  0.3491 -0.2734  0.3597
  929MOL0     O25288   6.642   0.998   8.583  0.8442 -0.8433 -0.1143
  929MOL0     C25289   6.654   1.025   8.440 -0.1606 -0.4939 -0.4936
  929MOL0     C25290   6.720   0.899   8.382  0.6814  0.1302 -0.2000
  929MOL0     C25291   6.730   0.893   8.218 -1.0816 -0.0787  0.3115
  929MOL0     C25292   6.597   0.929   8.145 -0.6380  0.1188  0.1286
  929MOL0     C25293   6.609   0.902   8.003  0.9133 -0.3143 -0.8262
  929MOL0     C25294   6.484   0.964   7.927 -0.5009 -0.2549 -0.2444
  929MOL0     C25295   6.494   1.114   7.900  0.6916 -0.7553  0.0681
  929MOL0     C25296   6.372   1.154   7.812  0.1036 -0.6103 -0.0467
  929MOL0     N25297   6.356   1.093   7.682 -0.1233  1.4022  0.0692
  929MOL0     C25298   6.405   1.127   7.555  0.3142 -1.5353 -0.2321
  929MOL0     C25299   6.325   1.050   7.469 -1.0999 -0.1511  0.2495
  929MOL0     C25300   6.347   1.032   7.320 -0.1124 -0.9188 -0.2042
  929MOL0     C25301   6.232   1.083   7.230  0.3221  1.0102  0.4509
  929MOL0     C25302   6.109   0.984   7.240  0.6372 -0.6287  0.1178
  929MOL0     C25303   6.015   1.008   7.121 -0.3391  0.1517 -0.0963
  929MOL0     O25304   6.092   1.005   7.002 -0.4617 -0.0817 -0.0081
  929MOL0     C25305   6.040   0.995   6.879 -0.1741  0.2368  1.3413
  929MOL0     C25306   5.903   1.011   6.857 -0.3261  1.2208  0.0593
  929MOL0     C25307   5.855   1.018   6.728  0.5049 -1.0358 -0.5048
  929MOL0     C25308   5.941   1.011   6.621 -0.9506 -0.9148 -0.2288
  929MOL0     C25309   5.895   1.015   6.486  0.5967  0.2979  0.7360
  929MOL0     O25310   5.945   1.085   6.386 -0.2236  0.3170  0.0246
  929MOL0     C25311   5.959   1.035   6.257 -0.4730 -0.2470 -0.2078
  929MOL0     C25312   5.887   0.935   6.197 -0.3264  1.1856  0.2456
  929MOL0     C25313   5.913   0.915   6.053 -0.4530  0.1274 -0.3093
  929MOL0     C25314   5.998   0.997   5.984  0.1486 -0.1660 -0.1898
  929MOL0     O25315   6.004   0.969   5.847 -0.6241 -0.2525 -0.3725
  929MOL0     C25316   6.142   0.976   5.790 -0.3971  0.6750  0.7564
  929MOL0     C25317   6.225   0.862   5.846 -0.1754 -0.1717  0.1244
  929MOL0     C25318   6.158   0.723   5.818 -0.4536 -1.7657 -0.1392
  929MOL0     C25319   6.257   0.616   5.869  0.1144  1.0115 -0.4505
  929MOL0     C25320   6.254   0.606   6.022  0.3263  0.5642 -0.0113
  929MOL0     C25321   6.318   0.484   6.096  0.1811  0.2245 -0.2436
  929MOL0     C25322   6.459   0.444   6.035  0.1374 -1.0384 -0.8668
  929MOL0     C25323   6.523   0.317   6.095  0.7354 -0.3934  1.7665
  929MOL0    Cl25324   6.521   0.339   6.275 -0.4424  0.1656  0.2309
  929MOL0     C25325   6.073   1.094   6.052 -0.1341 -0.4787 -0.2823
  929MOL0     C25326   6.044   1.113   6.186 -0.4895 -0.4892  0.4094
  929MOL0     O25327   5.801   0.939   6.472  1.3737 -0.3349  0.5102
  929MOL0     C25328   6.077   1.002   6.639 -0.0967  0.7142  0.1480
  929MOL0     C25329   6.134   0.990   6.768  0.1040 -0.1978 -0.0803
  929MOL0     N25330   6.237   0.979   7.545 -0.0747  0.1893 -1.2674
  929MOL0     N25331   6.251   1.000   7.676  0.5066 -0.6219  0.1730
  929MOL0     C25332   6.830   0.925   8.703 -0.3834 -1.1798 -0.7444
  929MOL0     C25333   6.956   0.944   8.759  1.4721 -0.0839 -0.6454
  929MOL0     C25334   7.324   1.011   8.935 -0.5596  0.9842 -0.4398
  929MOL0     C25335   7.402   1.005   8.813 -0.6640  0.5913 -0.2373
  929MOL0     C25336   7.542   0.987   8.817  0.1838  0.2778  0.6882
  929MOL0     C25337   7.615   0.976   8.934  0.0483 -0.2694 -0.3852
  929MOL0     O25338   7.750   0.981   8.942  0.1111  0.0303 -0.3023
  929MOL0     C25339   7.817   1.097   8.884 -0.3258  0.2108  0.0847
  929MOL0     C25340   7.854   1.068   8.731 -0.3517  0.3651  0.2162
  929MOL0     C25341   7.989   1.140   8.708 -0.4388 -0.9545  0.2359
  929MOL0     C25342   8.036   1.136   8.564 -0.9261  1.2620 -0.0299
  929MOL0     C25343   7.970   1.245   8.490  1.1113 -0.2576  0.4323
  929MOL0     C25344   7.918   1.341   8.428 -1.3250  1.0722  0.1188
  929MOL0     C25345   7.535   0.992   9.052 -0.1606  1.4916 -0.0024
  929MOL0     C25346   7.399   1.001   9.057  0.5922 -0.4743 -0.4217
  929MOL0     C25347   7.331   1.014   9.185  0.1177 -0.2077 -0.5287
  929MOL0     H25348   6.946   1.293   8.751  0.2423 -0.2076 -1.1367
  929MOL0     H25349   6.737   1.241   8.635  0.3880  0.2411  1.9969
  929MOL0     H25350   6.553   1.049   8.405 -1.1672  0.7901  2.9083
  929MOL0     H25351   6.710   1.117   8.419  1.8370 -1.2526  1.2386
  929MOL0     H25352   6.650   0.826   8.423 -0.6370  1.9974  1.0339
  929MOL0     H25353   6.823   0.885   8.416  1.0807 -1.1939 -1.7880
  929MOL0     H25354   6.760   0.791   8.191 -2.5187  0.7148 -5.7572
  929MOL0     H25355   6.812   0.951   8.174 -1.1085 -0.5472 -0.3809
  929MOL0     H25356   6.517   0.878   8.199 -1.8279  0.8737 -0.8613
  929MOL0     H25357   6.587   1.037   8.160 -0.9465  0.1232 -0.1111
  929MOL0     H25358   6.697   0.960   7.974 -0.9796  1.8990 -2.5581
  929MOL0     H25359   6.610   0.794   7.983  1.5027  0.3274 -5.3961
  929MOL0     H25360   6.468   0.911   7.833  0.0857  0.7438 -0.9153
  929MOL0     H25361   6.398   0.938   7.990  0.4599 -1.9446  0.4781
  929MOL0     H25362   6.583   1.137   7.840 -1.3259 -0.4043 -3.0217
  929MOL0     H25363   6.506   1.178   7.988  0.1196 -0.6605  0.0780
  929MOL0     H25364   6.275   1.138   7.860  0.9401 -2.1472  1.2396
  929MOL0     H25365   6.379   1.263   7.799 -2.0352 -0.0864  2.3828
  929MOL0     H25366   6.476   1.203   7.523 -0.6926 -0.8776 -0.9624
  929MOL0     H25367   6.434   1.098   7.313 -2.1150  2.2793  2.0424
  929MOL0     H25368   6.383   0.933   7.290  3.4662  0.3854 -0.7238
  929MOL0     H25369   6.187   1.181   7.251  1.4201  1.8415 -0.9473
  929MOL0     H25370   6.269   1.074   7.128 -0.6469 -1.6640  0.2537
  929MOL0     H25371   6.059   1.005   7.335  0.9585 -2.4941  0.7534
  929MOL0     H25372   6.139   0.878   7.241 -0.2984 -0.9053 -0.2565
  929MOL0     H25373   5.968   1.106   7.131 -1.4575  0.0676 -3.3252
  929MOL0     H25374   5.942   0.927   7.138 -0.0132 -0.4602 -1.4782
  929MOL0     H25375   5.833   1.025   6.938 -0.3091 -2.1295  0.7810
  929MOL0     H25376   5.750   1.031   6.704  0.5958  2.0643  0.3152
  929MOL0     H25377   5.817   0.867   6.244 -2.4449  2.9788 -0.1829
  929MOL0     H25378   5.879   0.829   5.996  1.9302 -0.2907 -1.1727
  929MOL0     H25379   6.139   0.948   5.684  3.4776  0.6646  0.5338
  929MOL0     H25380   6.190   1.074   5.794 -1.4565  1.2628 -0.0095
  929MOL0     H25381   6.317   0.850   5.788 -0.1215 -3.3326  0.6369
  929MOL0     H25382   6.267   0.882   5.945  5.2190  2.4899 -2.2936
  929MOL0     H25383   6.066   0.726   5.877  1.5377  3.6808  3.5781
  929MOL0     H25384   6.138   0.715   5.711  1.0571 -0.7405 -0.5352
  929MOL0     H25385   6.357   0.635   5.829  1.1887  0.9637  2.0366
  929MOL0     H25386   6.223   0.522   5.825  2.5674  0.5996 -1.6130
  929MOL0     H25387   6.152   0.604   6.061 -0.0227 -2.8398 -0.8164
  929MOL0     H25388   6.315   0.686   6.064  0.7323  1.5528 -2.3446
  929MOL0     H25389   6.331   0.519   6.198 -0.8856  3.3830 -1.0718
  929MOL0     H25390   6.249   0.399   6.096 -2.8042  2.4362  1.1489
  929MOL0     H25391   6.520   0.535   6.038 -0.9646 -0.2801  1.4534
  929MOL0     H25392   6.447   0.428   5.927 -0.8774 -0.3173 -0.8860
  929MOL0     H25393   6.464   0.229   6.068  1.9185 -0.7276  0.1463
  929MOL0     H25394   6.623   0.309   6.051 -1.1805  0.2396 -3.3570
  929MOL0     H25395   6.145   1.157   6.002 -0.8255  0.3091 -0.3014
  929MOL0     H25396   6.097   1.192   6.238 -0.5956 -1.8150  2.6759
  929MOL0     H25397   6.139   0.963   6.559 -0.0980  0.9818  0.0151
  929MOL0     H25398   6.241   0.981   6.783  0.3395 -0.9145 -1.9385
  929MOL0     H25399   6.787   0.825   8.703  0.9274 -1.7727  0.0222
  929MOL0     H25400   7.020   0.861   8.787 -0.2869 -0.3806  2.9944
  929MOL0     H25401   7.354   1.008   8.716 -1.4623 -1.9876  0.0047
  929MOL0     H25402   7.588   1.000   8.720 -0.2659  1.4586  0.6217
  929MOL0     H25403   7.908   1.098   8.944 -1.8181 -0.2955  2.5199
  929MOL0     H25404   7.756   1.187   8.895  0.8502  1.2008 -1.2375
  929MOL0     H25405   7.769   1.103   8.673 -2.1715  0.1107  2.5697
  929MOL0     H25406   7.877   0.964   8.708  1.4723  1.2290 -2.3204
  929MOL0     H25407   8.067   1.093   8.769  0.2014 -0.4098 -0.1481
  929MOL0     H25408   7.979   1.242   8.746 -1.9251 -1.4519  1.2374
  929MOL0     H25409   8.145   1.146   8.558 -0.6449 -0.0823  1.7954
  929MOL0     H25410   8.022   1.037   8.520 -0.3267  1.1576  0.0129
  929MOL0     H25411   7.873   1.435   8.403 -2.6948 -0.0988 -2.2392
  929MOL0     H25412   7.597   1.002   9.141 -0.5900 -0.2262  0.5343
  929MOL0     H25413   7.256   1.093   9.175 -0.8789 -1.3139 -2.3404
  929MOL0     H25414   7.296   0.917   9.221 -2.4832  1.5248  2.0627
  929MOL0     H25415   7.393   1.053   9.267 -2.8704 -1.1215  2.3981
  930MOL0     O25416  10.411   0.976   4.548  0.4101  0.6607 -0.4316
  930MOL0     C25417  10.305   0.944   4.499  0.1930 -1.0435 -0.1636
  930MOL0     O25418  10.228   1.032   4.433  0.0499  0.5574  0.0891
  930MOL0     C25419  10.261   1.159   4.383 -0.5656 -0.1636  0.1922
  930MOL0     C25420  10.155   1.232   4.343 -0.3751  1.2509 -0.6832
  930MOL0     C25421  10.171   1.366   4.310 -0.3156  0.4981 -0.6835
  930MOL0     C25422  10.292   1.431   4.318  0.2173  0.2780 -0.2261
  930MOL0     O25423  10.296   1.560   4.273  0.5807 -0.0984  0.5436
  930MOL0     C25424  10.407   1.645   4.281  0.4678 -0.2600 -0.8008
  930MOL0     C25425  10.366   1.792   4.249 -0.3135  0.0061  0.3856
  930MOL0     C25426  10.334   1.805   4.096 -0.0634 -0.3974  0.3103
  930MOL0     C25427  10.326   1.961   4.063  0.0351  0.7484  0.5976
  930MOL0     C25428  10.317   1.968   3.913 -0.2135  0.2358 -0.3491
  930MOL0     C25429  10.240   2.088   3.846  0.0382 -0.0205  0.7671
  930MOL0     C25430  10.276   2.229   3.890  0.4162  0.2559  0.9143
  930MOL0     C25431  10.197   2.326   3.799  0.7460 -0.3770 -0.4384
  930MOL0     N25432  10.225   2.454   3.856 -0.1249  0.0801 -0.1429
  930MOL0     C25433  10.145   2.520   3.952 -0.2141 -0.1514  0.6966
  930MOL0     C25434  10.204   2.640   3.961 -0.2262  0.1457 -1.0366
  930MOL0     C25435  10.151   2.745   4.058 -0.5669  0.8527 -0.3718
  930MOL0     C25436  10.176   2.889   4.020 -0.0593  0.3939  0.9963
  930MOL0     C25437  10.083   2.988   4.098 -0.3663 -0.1853 -0.5243
  930MOL0     C25438  10.124   3.130   4.110 -1.0871 -1.3085 -0.0338
  930MOL0     O25439  10.153   3.172   3.977 -0.7782 -0.1912 -0.1239
  930MOL0     C25440  10.152   3.305   3.935  0.0718 -0.0283 -0.2596
  930MOL0     C25441  10.155   3.412   4.027 -0.2404  0.8633 -1.1886
  930MOL0     C25442  10.159   3.547   3.989 -1.2518 -1.0498 -0.3064
  930MOL0     C25443  10.169   3.584   3.854  0.4523 -0.5071 -0.1303
  930MOL0     C25444  10.179   3.730   3.811 -0.0130 -0.2874 -0.3220
  930MOL0     O25445  10.212   3.766   3.691  0.3134  0.0339 -0.3164
  930MOL0     C25446  10.183   3.896   3.663  0.8926 -0.0798 -0.6680
  930MOL0     C25447  10.065   3.934   3.599  0.0595  0.3730  0.3055
  930MOL0     C25448  10.041   4.072   3.571  0.7232 -0.0684 -0.3277
  930MOL0     C25449  10.145   4.169   3.605 -0.0524 -0.2002 -0.2955
  930MOL0     O25450  10.115   4.296   3.575  0.9038  0.0728  0.4092
  930MOL0     C25451  10.197   4.410   3.605  0.0716  0.0550 -0.1499
  930MOL0     C25452  10.133   4.530   3.527 -0.5627  0.8668 -0.2965
  930MOL0     C25453  10.127   4.504   3.381 -0.1466  1.5487  0.0322
  930MOL0     C25454  10.088   4.629   3.304  0.3692 -0.0830  0.8988
  930MOL0     C25455  10.063   4.602   3.151 -1.0908  0.0433  0.0076
  930MOL0     C25456  10.177   4.546   3.067 -0.4093 -0.3346 -0.4182
  930MOL0     C25457  10.133   4.510   2.931 -0.3188 -0.7258  0.3331
  930MOL0     C25458  10.250   4.538   2.828 -0.2958 -0.2485 -1.2815
  930MOL0    Cl25459  10.396   4.455   2.880  0.3708 -0.2852 -0.0005
  930MOL0     C25460  10.261   4.118   3.666 -0.5071 -1.2483  0.2003
  930MOL0     C25461  10.278   3.986   3.689  0.2207  1.3682 -0.5612
  930MOL0     O25462  10.141   3.814   3.894  0.1975 -0.1682 -0.5402
  930MOL0     C25463  10.170   3.475   3.761  0.1251 -0.1642 -0.0512
  930MOL0     C25464  10.152   3.339   3.803  0.5750 -0.7997 -0.0570
  930MOL0     N25465  10.320   2.631   3.902 -0.2834 -1.3633 -0.1982
  930MOL0     N25466  10.329   2.536   3.822  0.1839 -0.1862  0.1418
  930MOL0     C25467  10.402   1.364   4.375  0.7290  0.6557  0.4670
  930MOL0     C25468  10.385   1.226   4.398  0.4450  0.2583  0.4721
  930MOL0     C25469  10.260   0.805   4.504 -1.2305  0.5405 -0.4776
  930MOL0     C25470  10.135   0.777   4.449  0.0431 -0.1155  0.5338
  930MOL0     C25471  10.082   0.655   4.446 -0.0367 -0.7405  0.0702
  930MOL0     C25472  10.157   0.551   4.501  0.1745 -0.3790  0.4370
  930MOL0     O25473  10.119   0.419   4.511  0.0387 -0.5537  0.1865
  930MOL0     C25474   9.982   0.378   4.480  0.8415 -0.0893  0.9748
  930MOL0     C25475   9.923   0.265   4.551  0.2205  1.0988  0.0520
  930MOL0     C25476  10.017   0.157   4.600 -0.6826  0.1226 -0.2041
  930MOL0     C25477   9.957   0.069   4.718 -0.4635 -0.3601  0.9726
  930MOL0     C25478   9.879  -0.030   4.654 -0.3110  0.4110 -0.8067
  930MOL0     C25479   9.797  -0.100   4.588  0.2553 -0.2771  0.5105
  930MOL0     C25480  10.276   0.577   4.548  0.0384  0.0028  0.6463
  930MOL0     C25481  10.336   0.697   4.560 -0.4550 -0.2879  0.3491
  930MOL0     C25482  10.478   0.706   4.616  0.0460 -0.1950 -0.2830
  930MOL0     H25483  10.065   1.171   4.332 -0.7184  1.9948 -2.1671
  930MOL0     H25484  10.080   1.419   4.282  0.2251  2.2021  0.5520
  930MOL0     H25485  10.432   1.645   4.387 -0.8771  4.1710 -0.2544
  930MOL0     H25486  10.486   1.618   4.210  3.7460  1.9115  1.6993
  930MOL0     H25487  10.450   1.855   4.279  0.9726 -2.6714  2.9049
  930MOL0     H25488  10.276   1.819   4.304 -1.3940  0.1254 -1.3442
  930MOL0     H25489  10.234   1.765   4.078  0.7202 -1.3467 -2.4562
  930MOL0     H25490  10.416   1.757   4.041  1.0157 -0.2706  1.7653
  930MOL0     H25491  10.239   2.002   4.115  1.0691 -1.3376  4.3250
  930MOL0     H25492  10.417   2.008   4.100  1.0602  0.2466 -1.1572
  930MOL0     H25493  10.421   1.959   3.882  0.7360 -2.6790  3.0759
  930MOL0     H25494  10.264   1.880   3.876 -2.7655  2.0230 -1.2860
  930MOL0     H25495  10.268   2.072   3.741 -0.9811 -0.0249  0.4843
  930MOL0     H25496  10.132   2.072   3.855 -0.4685  1.5878 -1.4594
  930MOL0     H25497  10.384   2.248   3.879  1.1056 -3.4626 -0.1989
  930MOL0     H25498  10.245   2.233   3.995  4.7469 -2.7130  2.5835
  930MOL0     H25499  10.227   2.315   3.695 -0.7816 -3.4859 -0.6480
  930MOL0     H25500  10.089   2.307   3.809  0.9955 -2.2345 -1.0403
  930MOL0     H25501  10.047   2.485   3.983  0.5508 -1.6448  1.5204
  930MOL0     H25502  10.043   2.729   4.062 -0.7968  2.0957 -1.0149
  930MOL0     H25503  10.204   2.742   4.154 -1.8789 -1.5773  0.3538
  930MOL0     H25504  10.281   2.916   4.035  0.9514  0.3151 -3.9212
  930MOL0     H25505  10.160   2.911   3.914 -1.4684 -1.7068  0.7096
  930MOL0     H25506  10.065   2.954   4.200  1.4943  0.1668 -0.0397
  930MOL0     H25507   9.988   2.992   4.043 -1.3547  0.3397  1.1600
  930MOL0     H25508  10.221   3.153   4.156 -2.0716  1.2546  0.9475
  930MOL0     H25509  10.052   3.192   4.164  1.9705  1.3705  1.2996
  930MOL0     H25510  10.145   3.393   4.134 -2.2341  0.7401 -1.3736
  930MOL0     H25511  10.157   3.628   4.061 -0.6239  3.7063 -5.0230
  930MOL0     H25512   9.990   3.856   3.589  0.2713  0.0550  1.1329
  930MOL0     H25513   9.940   4.095   3.538  1.0137  2.7705  0.5236
  930MOL0     H25514  10.204   4.428   3.713 -0.9528  0.5405 -0.1561
  930MOL0     H25515  10.302   4.395   3.580  0.5197  2.2635  0.2295
  930MOL0     H25516  10.033   4.550   3.569 -1.2721 -1.0088 -0.9618
  930MOL0     H25517  10.187   4.621   3.554  2.7758 -1.4160  1.3915
  930MOL0     H25518  10.228   4.475   3.351 -0.6652 -0.6544  0.2348
  930MOL0     H25519  10.067   4.416   3.360  0.0145  1.3345  0.4438
  930MOL0     H25520  10.172   4.700   3.306 -0.3847  0.9185 -0.6642
  930MOL0     H25521  10.001   4.670   3.355 -2.5487 -4.0166 -0.4632
  930MOL0     H25522  10.025   4.693   3.103  0.1440 -0.6740 -2.4861
  930MOL0     H25523   9.981   4.530   3.155  0.2915 -1.6441 -0.9540
  930MOL0     H25524  10.258   4.619   3.072  0.6533 -1.2760 -2.4813
  930MOL0     H25525  10.214   4.453   3.110 -1.0236 -1.3077 -1.9105
  930MOL0     H25526  10.048   4.570   2.895  0.5977  0.6181  0.3201
  930MOL0     H25527  10.100   4.406   2.929 -1.7434 -0.3057  0.6097
  930MOL0     H25528  10.227   4.501   2.728  1.3882 -0.5155 -1.6039
  930MOL0     H25529  10.259   4.647   2.834 -2.4028 -0.0794  4.5071
  930MOL0     H25530  10.345   4.182   3.692 -1.2563  0.3700 -1.0980
  930MOL0     H25531  10.372   3.952   3.732  0.0101 -2.4944 -2.6945
  930MOL0     H25532  10.179   3.511   3.659  1.1562  1.4587  0.5666
  930MOL0     H25533  10.153   3.257   3.732 -1.5750 -1.4518  0.5896
  930MOL0     H25534  10.489   1.420   4.408 -0.0779  3.3277 -1.5701
  930MOL0     H25535  10.468   1.180   4.450  1.0846  2.0420  1.0837
  930MOL0     H25536  10.075   0.852   4.398 -0.0303 -0.3564  0.2598
  930MOL0     H25537   9.983   0.650   4.402  0.2386  1.8109 -0.9943
  930MOL0     H25538   9.979   0.352   4.373  3.4970 -2.1614  1.3000
  930MOL0     H25539   9.916   0.460   4.510 -1.9034 -1.5921 -0.5219
  930MOL0     H25540   9.851   0.209   4.491 -1.9757  3.6950  0.0552
  930MOL0     H25541   9.863   0.298   4.637 -0.0756  1.6202 -0.3504
  930MOL0     H25542  10.106   0.208   4.640 -1.1902  1.7257 -1.0292
  930MOL0     H25543  10.059   0.098   4.518 -0.9101  0.6815 -0.7299
  930MOL0     H25544  10.045   0.024   4.766  1.6031  0.4396 -1.8067
  930MOL0     H25545   9.899   0.138   4.780  0.8574  3.3560 -1.5358
  930MOL0     H25546   9.724  -0.160   4.538  0.9072 -0.2650 -0.4882
  930MOL0     H25547  10.334   0.499   4.595  2.0577  1.8347  1.3664
  930MOL0     H25548  10.493   0.769   4.704  2.5414 -2.5962  1.1630
  930MOL0     H25549  10.515   0.607   4.643  1.8604  0.4660 -0.1724
  930MOL0     H25550  10.553   0.737   4.542 -1.6374  0.9383 -1.5909
  931MOL0     O25551   2.254   0.173   4.462 -0.0499  0.4789 -0.3202
  931MOL0     C25552   2.217   0.161   4.581 -0.6360 -0.5106  0.0610
  931MOL0     O25553   2.101   0.206   4.636 -0.7624  0.1048  0.6147
  931MOL0     C25554   2.019   0.271   4.555 -0.3444  0.5454 -0.3253
  931MOL0     C25555   2.005   0.412   4.548 -0.4713 -0.0315  0.0125
  931MOL0     C25556   1.916   0.466   4.455 -0.2806 -0.1562  0.9961
  931MOL0     C25557   1.826   0.389   4.380  0.1190  0.7025 -0.0575
  931MOL0     O25558   1.729   0.449   4.304  0.1951  0.9539  0.3215
  931MOL0     C25559   1.588   0.396   4.318  0.6733 -1.3563  0.0687
  931MOL0     C25560   1.487   0.505   4.264 -0.2844 -0.7342 -0.2784
  931MOL0     C25561   1.449   0.483   4.117 -0.3368 -0.1425  0.6540
  931MOL0     C25562   1.325   0.571   4.068  1.0494 -0.3154  0.4183
  931MOL0     C25563   1.346   0.721   4.096 -0.6538  0.2042  0.4574
  931MOL0     C25564   1.484   0.767   4.040 -1.0154  0.4399  0.6733
  931MOL0     C25565   1.489   0.919   4.046 -0.5525 -0.5434  0.0236
  931MOL0     C25566   1.612   0.990   3.973  0.2901  0.3388  0.1491
  931MOL0     N25567   1.593   0.976   3.829  0.5969 -0.8270 -0.0429
  931MOL0     C25568   1.482   1.019   3.764  0.0555 -1.2841  1.1474
  931MOL0     C25569   1.504   0.990   3.633 -0.4602  0.4570  0.4479
  931MOL0     C25570   1.408   1.037   3.531  0.3620  1.0678 -0.3918
  931MOL0     C25571   1.466   1.054   3.390  0.8283  0.3206  0.6583
  931MOL0     C25572   1.470   0.917   3.319 -0.1626 -0.4272  0.6354
  931MOL0     C25573   1.433   0.941   3.169  0.7959 -0.0475  0.0301
  931MOL0     O25574   1.556   0.995   3.102  1.0148 -0.3216 -0.2879
  931MOL0     C25575   1.531   1.025   2.970  0.8092  0.4880 -0.2229
  931MOL0     C25576   1.406   1.020   2.909  0.3166 -0.5784  0.0170
  931MOL0     C25577   1.389   1.048   2.774 -0.6053  0.6337 -0.1935
  931MOL0     C25578   1.504   1.096   2.701 -0.3665 -0.6028  1.4853
  931MOL0     C25579   1.493   1.142   2.557 -0.5844  0.7393  0.3566
  931MOL0     O25580   1.606   1.149   2.484  0.6708 -0.4037 -0.2329
  931MOL0     C25581   1.612   1.207   2.353 -0.4723 -0.3724 -0.3938
  931MOL0     C25582   1.747   1.240   2.315  0.4862 -0.8408 -0.8294
  931MOL0     C25583   1.765   1.271   2.176 -0.3110 -0.2817  0.4386
  931MOL0     C25584   1.671   1.269   2.082  0.2306 -1.1101  0.5174
  931MOL0     O25585   1.710   1.273   1.957  0.6305 -0.0514  0.3102
  931MOL0     C25586   1.608   1.263   1.857  0.5693 -1.2292 -0.1711
  931MOL0     C25587   1.665   1.292   1.721 -0.4205  1.1434 -0.0252
  931MOL0     C25588   1.577   1.215   1.625 -0.9317 -0.5117  0.9004
  931MOL0     C25589   1.624   1.246   1.476 -0.5136 -0.2231  0.4790
  931MOL0     C25590   1.547   1.155   1.374  0.2170 -1.0186  0.1055
  931MOL0     C25591   1.410   1.224   1.342  0.5165 -1.1597  0.6093
  931MOL0     C25592   1.425   1.362   1.247  0.2987  0.6539 -0.0975
  931MOL0     C25593   1.471   1.329   1.101 -0.4436 -0.1509 -0.6340
  931MOL0    Cl25594   1.511   1.468   1.005 -0.3642  0.0158 -0.2023
  931MOL0     C25595   1.548   1.249   2.122 -0.0227 -0.5011  0.1110
  931MOL0     C25596   1.518   1.219   2.256  0.1229 -0.1211 -0.6298
  931MOL0     O25597   1.381   1.183   2.527  0.8576  0.2181  0.7098
  931MOL0     C25598   1.622   1.105   2.760 -0.3178 -0.1514 -0.6004
  931MOL0     C25599   1.641   1.071   2.895 -0.5396 -0.2372 -0.0157
  931MOL0     N25600   1.619   0.911   3.624 -0.6298 -0.5203 -0.6898
  931MOL0     N25601   1.669   0.900   3.744 -0.5114 -0.7081  0.4185
  931MOL0     C25602   1.843   0.254   4.388 -0.7032 -1.4582 -0.3270
  931MOL0     C25603   1.930   0.192   4.475  0.0022 -0.1997  0.1265
  931MOL0     C25604   2.301   0.089   4.678 -0.3900 -0.0581 -0.8485
  931MOL0     C25605   2.290   0.116   4.821  0.1769 -0.6971  0.1141
  931MOL0     C25606   2.365   0.050   4.918 -0.0499  0.6302 -0.2720
  931MOL0     C25607   2.455  -0.053   4.887 -0.5234 -0.0686  0.5710
  931MOL0     O25608   2.521  -0.128   4.976  1.0155 -0.0532  0.0562
  931MOL0     C25609   2.665  -0.144   4.954  0.6053  0.0664 -0.3268
  931MOL0     C25610   2.719  -0.219   5.064 -0.2008 -0.5419  0.0756
  931MOL0     C25611   2.697  -0.154   5.202 -0.1327 -0.2994 -0.3808
  931MOL0     C25612   2.788  -0.205   5.312  1.5169  0.3679  0.5090
  931MOL0     C25613   2.902  -0.129   5.327  0.3076 -1.2887 -0.1201
  931MOL0     C25614   2.999  -0.050   5.328 -0.4178  0.3124 -0.4232
  931MOL0     C25615   2.461  -0.082   4.749 -0.4263  0.4913 -0.1319
  931MOL0     C25616   2.386  -0.022   4.652 -0.0384  0.0056  1.0158
  931MOL0     C25617   2.421  -0.071   4.507  0.0896  0.1070  0.2487
  931MOL0     H25618   2.076   0.472   4.604 -0.4846  0.5238 -0.5532
  931MOL0     H25619   1.919   0.570   4.426 -0.8270 -0.8733 -1.9361
  931MOL0     H25620   1.568   0.306   4.259  0.6703 -1.7141  0.6118
  931MOL0     H25621   1.558   0.372   4.420 -0.1093  1.2907  0.5302
  931MOL0     H25622   1.530   0.597   4.302  2.0525 -2.6708  2.1948
  931MOL0     H25623   1.388   0.486   4.306  0.1805 -3.0353 -0.0608
  931MOL0     H25624   1.421   0.377   4.110 -0.2798 -0.2213  1.4906
  931MOL0     H25625   1.534   0.499   4.050 -0.7778  0.7021  0.2905
  931MOL0     H25626   1.313   0.550   3.962 -2.5808  0.3562  0.5836
  931MOL0     H25627   1.234   0.544   4.122  0.4847 -1.1027 -0.8956
  931MOL0     H25628   1.259   0.781   4.068  0.4330  0.2835 -3.2459
  931MOL0     H25629   1.371   0.739   4.201  1.5210  0.5579 -0.0728
  931MOL0     H25630   1.563   0.727   4.105 -1.2933 -0.1109  0.6753
  931MOL0     H25631   1.503   0.726   3.941 -0.5150  0.5651  0.7140
  931MOL0     H25632   1.490   0.944   4.152 -3.9253 -1.5063  0.3795
  931MOL0     H25633   1.402   0.957   3.992  0.7276  0.0122 -1.7304
  931MOL0     H25634   1.625   1.092   4.008  1.1547 -0.3150  1.8780
  931MOL0     H25635   1.700   0.940   4.016  1.0398 -2.7356 -4.2194
  931MOL0     H25636   1.408   1.090   3.800  0.6366 -0.2802  0.4193
  931MOL0     H25637   1.329   0.963   3.548  1.1823  0.5031  1.2187
  931MOL0     H25638   1.371   1.133   3.567 -0.5126  0.0015  1.7244
  931MOL0     H25639   1.406   1.121   3.329 -2.1637 -1.1991  1.7106
  931MOL0     H25640   1.569   1.090   3.380  0.6498  0.4873 -0.6615
  931MOL0     H25641   1.401   0.841   3.358  1.3128 -2.1536  0.0131
  931MOL0     H25642   1.572   0.879   3.321  0.1136 -0.0282 -2.2516
  931MOL0     H25643   1.349   1.009   3.158 -0.3060 -0.8203  2.7350
  931MOL0     H25644   1.419   0.840   3.128  3.3043  0.7262 -3.1870
  931MOL0     H25645   1.318   0.990   2.965  0.9178 -0.5410  1.0177
  931MOL0     H25646   1.292   1.056   2.726 -0.2929  1.4219 -0.7199
  931MOL0     H25647   1.836   1.233   2.377 -1.0851 -0.7641  1.5821
  931MOL0     H25648   1.868   1.295   2.149  0.0165 -0.7593  1.2403
  931MOL0     H25649   1.574   1.159   1.856 -2.7520 -0.2668  0.9523
  931MOL0     H25650   1.539   1.346   1.873  2.4673  0.5620 -0.7351
  931MOL0     H25651   1.664   1.395   1.685  0.4451  0.3619 -2.4618
  931MOL0     H25652   1.769   1.260   1.706 -1.2382 -0.1750 -4.4611
  931MOL0     H25653   1.586   1.106   1.633 -2.7345 -0.9049 -1.4342
  931MOL0     H25654   1.471   1.228   1.647 -0.7871 -0.9001  1.8964
  931MOL0     H25655   1.732   1.237   1.458 -1.1787 -3.3395 -3.4404
  931MOL0     H25656   1.596   1.351   1.460 -0.8281 -0.1725  1.3112
  931MOL0     H25657   1.526   1.054   1.409  0.3676 -0.7806  0.9027
  931MOL0     H25658   1.595   1.152   1.276 -1.9253  2.1002 -1.1981
  931MOL0     H25659   1.347   1.151   1.291  0.1277  0.4190 -1.2938
  931MOL0     H25660   1.357   1.261   1.431  0.0258  1.3657 -0.6304
  931MOL0     H25661   1.510   1.419   1.285  2.7252 -0.2785 -3.6764
  931MOL0     H25662   1.329   1.413   1.241  0.7732  1.3913 -2.9456
  931MOL0     H25663   1.553   1.256   1.093 -2.0961 -2.0364 -1.4197
  931MOL0     H25664   1.385   1.275   1.059 -2.8255  2.2053  0.9168
  931MOL0     H25665   1.466   1.251   2.051  1.3191  0.5943 -1.4857
  931MOL0     H25666   1.414   1.198   2.275  0.4960 -1.5517  0.0395
  931MOL0     H25667   1.713   1.127   2.705 -0.0864 -1.7226 -0.8830
  931MOL0     H25668   1.740   1.081   2.937 -0.3525 -1.7663 -0.0481
  931MOL0     H25669   1.774   0.199   4.325 -2.9050 -1.2553  1.7841
  931MOL0     H25670   1.934   0.084   4.479  2.3719 -0.1620  0.2433
  931MOL0     H25671   2.241   0.206   4.858  2.0465 -0.3833  2.0346
  931MOL0     H25672   2.365   0.077   5.023  2.4435  0.0475 -0.0443
  931MOL0     H25673   2.716  -0.048   4.945  0.9479 -0.2537 -2.5600
  931MOL0     H25674   2.693  -0.200   4.864  1.3856 -1.8935  1.0602
  931MOL0     H25675   2.825  -0.229   5.040 -0.4881 -0.3778 -1.3668
  931MOL0     H25676   2.668  -0.316   5.067 -1.6802  0.0898 -1.8362
  931MOL0     H25677   2.596  -0.175   5.239  0.6927 -2.7436  0.7250
  931MOL0     H25678   2.717  -0.047   5.189  1.6702 -0.1699  2.4457
  931MOL0     H25679   2.731  -0.203   5.405  0.3891 -1.5840 -0.0812
  931MOL0     H25680   2.811  -0.311   5.301 -1.0504 -0.2513  0.4723
  931MOL0     H25681   3.089   0.008   5.321 -0.2118  0.1295  0.5247
  931MOL0     H25682   2.526  -0.159   4.708  0.1712  0.6530  0.4955
  931MOL0     H25683   2.332  -0.070   4.443  0.3421  0.4488 -0.1064
  931MOL0     H25684   2.510  -0.024   4.464  0.5376  0.0140  1.0685
  931MOL0     H25685   2.440  -0.178   4.500 -1.5367 -0.1009 -3.1629
  932MOL0     O25686   2.062   4.670   3.126  0.1293  0.2381  0.1367
  932MOL0     C25687   2.059   4.727   3.235 -0.2384  1.5674 -0.8505
  932MOL0     O25688   2.107   4.669   3.358  0.4758  0.6967  0.5380
  932MOL0     C25689   2.145   4.539   3.342 -0.4764 -0.5441  0.8355
  932MOL0     C25690   2.281   4.500   3.331 -0.2444 -0.8591 -0.8876
  932MOL0     C25691   2.311   4.369   3.306 -0.2222 -0.8853  0.1821
  932MOL0     C25692   2.214   4.268   3.332  0.3182 -0.8845  0.3439
  932MOL0     O25693   2.269   4.143   3.328 -0.1451 -0.2766 -0.1096
  932MOL0     C25694   2.180   4.030   3.327  0.0123  0.4787  0.0672
  932MOL0     C25695   2.146   4.008   3.184  0.0572  0.1519 -0.2309
  932MOL0     C25696   2.269   3.963   3.104  0.3671 -1.1853 -0.0384
  932MOL0     C25697   2.253   3.979   2.948 -0.0485  0.6732 -0.0143
  932MOL0     C25698   2.290   4.122   2.907  0.0833  0.3386 -0.2684
  932MOL0     C25699   2.312   4.133   2.754  0.2503 -0.7582  0.0953
  932MOL0     C25700   2.185   4.161   2.680 -0.9045  0.0836  0.6415
  932MOL0     C25701   2.201   4.136   2.522 -0.5871  0.1371 -0.1875
  932MOL0     N25702   2.288   4.236   2.448  0.1643 -0.5231  0.5949
  932MOL0     C25703   2.261   4.370   2.457  0.7758 -0.7398 -0.4572
  932MOL0     C25704   2.378   4.435   2.427  0.2194  1.3962 -0.0907
  932MOL0     C25705   2.392   4.588   2.411  0.4487  0.6202 -0.0758
  932MOL0     C25706   2.480   4.664   2.511 -0.2044 -0.4514  0.8472
  932MOL0     C25707   2.479   4.817   2.493  0.1090  1.0425  0.6249
  932MOL0     C25708   2.355   4.873   2.557 -0.6201  1.0257 -0.4786
  932MOL0     O25709   2.387   5.011   2.534 -0.0789 -0.1150 -0.4384
  932MOL0     C25710   2.297   5.101   2.579  0.2966  0.9220  0.0995
  932MOL0     C25711   2.186   5.071   2.669 -0.7509 -0.2195 -1.1823
  932MOL0     C25712   2.079   5.165   2.683 -0.9206 -0.0583  0.7359
  932MOL0     C25713   2.085   5.301   2.639  0.0235  0.2074 -0.8631
  932MOL0     C25714   1.993   5.407   2.683 -0.4671  0.4345 -0.1560
  932MOL0     O25715   1.907   5.364   2.775 -0.4246 -0.2454 -0.5003
  932MOL0     C25716   1.793   5.433   2.806  0.4739  0.8179 -0.1158
  932MOL0     C25717   1.762   5.437   2.939 -0.0592 -0.1630  0.0278
  932MOL0     C25718   1.651   5.500   3.000 -0.4942  0.5461  0.9390
  932MOL0     C25719   1.573   5.589   2.921  0.5460 -0.5620  0.5459
  932MOL0     O25720   1.473   5.664   2.979  0.6843  0.6567 -0.1126
  932MOL0     C25721   1.398   5.767   2.899  0.0266 -0.3927  0.6507
  932MOL0     C25722   1.304   5.865   2.964 -0.0098 -0.5699  0.1604
  932MOL0     C25723   1.373   5.929   3.088 -0.3954  0.0012  1.1905
  932MOL0     C25724   1.269   5.974   3.193  0.0257  0.2903  0.6593
  932MOL0     C25725   1.338   6.049   3.310 -0.6683 -0.2036  0.7376
  932MOL0     C25726   1.241   6.100   3.414  0.3702  0.9565 -0.3162
  932MOL0     C25727   1.146   6.001   3.486  0.4584  0.7129 -0.4166
  932MOL0     C25728   1.018   6.068   3.543 -0.3646  0.5430  1.1284
  932MOL0    Cl25729   0.908   6.120   3.408  0.1441  0.6239 -0.3521
  932MOL0     C25730   1.609   5.602   2.787 -0.4995 -0.1599  0.1604
  932MOL0     C25731   1.708   5.514   2.729 -0.4417 -0.4056 -0.5022
  932MOL0     O25732   1.999   5.510   2.628  0.5746 -0.9936  0.5034
  932MOL0     C25733   2.202   5.325   2.565 -0.1243  0.7344  0.4269
  932MOL0     C25734   2.297   5.228   2.524 -0.0275  0.0395  0.9002
  932MOL0     N25735   2.480   4.341   2.400 -0.1706 -0.1103  0.2861
  932MOL0     N25736   2.422   4.225   2.406  0.7714  0.5578 -0.5943
  932MOL0     C25737   2.077   4.303   3.348  0.6489 -0.3648  0.6934
  932MOL0     C25738   2.049   4.440   3.348 -0.4121 -0.7039 -0.2414
  932MOL0     C25739   1.988   4.859   3.252  0.2044 -0.1008  0.6491
  932MOL0     C25740   1.930   4.898   3.376 -0.0433 -0.5676 -0.1269
  932MOL0     C25741   1.865   5.022   3.389 -0.3372 -0.0830 -0.1164
  932MOL0     C25742   1.860   5.109   3.276  0.6947 -0.5423 -0.1691
  932MOL0     O25743   1.805   5.232   3.280  0.4737  0.4499  0.1904
  932MOL0     C25744   1.813   5.310   3.402  0.5261 -0.0059 -0.2036
  932MOL0     C25745   1.685   5.292   3.487 -0.6981 -0.4354 -0.0085
  932MOL0     C25746   1.559   5.359   3.430  0.2888  0.6639 -0.2219
  932MOL0     C25747   1.552   5.513   3.420 -0.1074  0.5880 -0.0321
  932MOL0     C25748   1.423   5.578   3.405  0.4836  0.5405  0.6187
  932MOL0     C25749   1.338   5.665   3.399 -0.1921 -0.6611  0.1725
  932MOL0     C25750   1.912   5.071   3.159  0.3388 -0.1808  0.2361
  932MOL0     C25751   1.976   4.948   3.142 -0.3469  0.0619  0.2942
  932MOL0     C25752   2.027   4.918   3.004  0.0637  0.0170  0.3456
  932MOL0     H25753   2.351   4.582   3.322  2.4267 -3.0441 -1.4943
  932MOL0     H25754   2.415   4.350   3.284 -0.0529  1.8484 -1.9501
  932MOL0     H25755   2.233   3.942   3.363 -2.6765 -0.8849  0.9743
  932MOL0     H25756   2.084   4.046   3.376 -0.2225 -1.1177  0.1813
  932MOL0     H25757   2.106   4.100   3.140 -0.1242 -1.6169 -4.2202
  932MOL0     H25758   2.071   3.927   3.178  2.3251 -2.1593  0.7976
  932MOL0     H25759   2.294   3.864   3.142 -0.0565 -2.2349 -2.2960
  932MOL0     H25760   2.350   4.027   3.141  0.8209 -0.6322 -1.8892
  932MOL0     H25761   2.309   3.902   2.894 -1.6983 -0.8563  0.3904
  932MOL0     H25762   2.149   3.956   2.925 -0.1819 -0.4737  1.5644
  932MOL0     H25763   2.212   4.193   2.938  0.5365  1.0992 -0.8356
  932MOL0     H25764   2.384   4.147   2.955 -0.5233  0.2438  1.0067
  932MOL0     H25765   2.367   4.224   2.728 -0.6779 -0.9037 -2.6477
  932MOL0     H25766   2.363   4.045   2.715 -1.6641 -1.4156 -1.0370
  932MOL0     H25767   2.154   4.263   2.703 -0.1305  0.9587 -1.8966
  932MOL0     H25768   2.111   4.086   2.709  1.9460 -3.4292 -0.4466
  932MOL0     H25769   2.239   4.034   2.505 -1.9413 -1.1266  3.4040
  932MOL0     H25770   2.102   4.130   2.476 -0.7505  0.4712  0.1160
  932MOL0     H25771   2.162   4.412   2.472  2.0301  1.9774  1.0337
  932MOL0     H25772   2.437   4.595   2.312 -0.7252 -1.0580 -0.7659
  932MOL0     H25773   2.291   4.628   2.428  0.4389 -0.5314  3.3410
  932MOL0     H25774   2.453   4.636   2.613  0.7787 -1.9191  0.7356
  932MOL0     H25775   2.582   4.626   2.497  0.1727  0.4692  0.9727
  932MOL0     H25776   2.490   4.841   2.387 -2.7034 -2.6216 -0.7086
  932MOL0     H25777   2.565   4.852   2.550  0.8479 -1.5452  1.2575
  932MOL0     H25778   2.353   4.868   2.666  1.0216  4.7839 -0.1460
  932MOL0     H25779   2.260   4.840   2.513 -0.3871 -0.5984  0.1692
  932MOL0     H25780   2.188   4.973   2.715 -0.5641  0.6772  0.8089
  932MOL0     H25781   1.986   5.136   2.732 -1.0791 -1.7217 -0.4767
  932MOL0     H25782   1.821   5.376   3.008 -0.6609 -1.6563 -0.7157
  932MOL0     H25783   1.635   5.481   3.106  0.4804  0.8176  1.1441
  932MOL0     H25784   1.480   5.828   2.860  0.4424 -0.2623  1.7058
  932MOL0     H25785   1.352   5.722   2.810  0.2414  0.2161  0.2215
  932MOL0     H25786   1.283   5.949   2.897  0.2424 -0.4725  0.2041
  932MOL0     H25787   1.208   5.815   2.983 -0.0511 -1.7128 -2.6098
  932MOL0     H25788   1.435   5.855   3.141 -3.2267 -0.5207  4.0584
  932MOL0     H25789   1.428   6.015   3.049  0.6819 -1.7509 -1.4395
  932MOL0     H25790   1.224   5.885   3.238 -2.1395  1.7837  1.5946
  932MOL0     H25791   1.197   6.037   3.140  0.1775 -0.6153 -0.6692
  932MOL0     H25792   1.390   6.135   3.268 -3.2211  1.9034  1.5910
  932MOL0     H25793   1.412   5.992   3.366  0.1014  1.4905  1.5138
  932MOL0     H25794   1.274   6.161   3.499  1.7963 -0.7350  0.4161
  932MOL0     H25795   1.174   6.171   3.365 -1.9650 -1.3198 -0.6522
  932MOL0     H25796   1.204   5.949   3.563  0.4211 -1.5199 -1.8059
  932MOL0     H25797   1.108   5.925   3.418  0.3135 -1.3604  1.8524
  932MOL0     H25798   0.961   6.000   3.608 -1.2570 -0.4196 -0.5876
  932MOL0     H25799   1.056   6.150   3.605  0.1481  0.4529  0.9297
  932MOL0     H25800   1.571   5.674   2.715 -0.2358  2.1838  2.2576
  932MOL0     H25801   1.733   5.526   2.624  3.9902  1.2245  0.5354
  932MOL0     H25802   2.231   5.425   2.535  1.0882 -0.0075 -0.9585
  932MOL0     H25803   2.370   5.254   2.448 -1.0214 -1.6630 -0.7200
  932MOL0     H25804   2.000   4.229   3.365  2.0637 -2.5644 -1.9022
  932MOL0     H25805   1.947   4.478   3.355 -0.5761 -0.5384 -2.6982
  932MOL0     H25806   1.922   4.834   3.463 -0.7553  1.9775  1.8213
  932MOL0     H25807   1.827   5.055   3.485 -0.7103 -1.5613  0.2684
  932MOL0     H25808   1.811   5.415   3.368 -0.3842  0.3441  0.8827
  932MOL0     H25809   1.903   5.298   3.463 -1.6015  2.9864  4.0244
  932MOL0     H25810   1.693   5.348   3.580 -0.8161  0.5501 -0.5763
  932MOL0     H25811   1.669   5.186   3.507  0.4680 -0.9224 -1.4946
  932MOL0     H25812   1.480   5.339   3.503 -1.1572  2.9858 -1.0647
  932MOL0     H25813   1.544   5.313   3.331  1.6423 -1.3912  0.4703
  932MOL0     H25814   1.605   5.557   3.506 -3.6019  1.6103  1.7739
  932MOL0     H25815   1.611   5.542   3.333 -0.1009 -0.9684 -0.5728
  932MOL0     H25816   1.267   5.741   3.372  1.5855  0.6183 -1.1162
  932MOL0     H25817   1.905   5.144   3.080  1.6396  1.6773  1.7146
  932MOL0     H25818   2.002   4.992   2.928 -1.6637 -2.5423 -1.7590
  932MOL0     H25819   2.136   4.902   3.001  0.2627  1.0048  1.4753
  932MOL0     H25820   1.979   4.832   2.958  3.3099  0.2493 -4.0812
  933MOL0     O25821   4.776   9.833   6.969  0.0219  0.2386 -0.1082
  933MOL0     C25822   4.828   9.906   6.881 -0.6872 -0.0934  0.3332
  933MOL0     O25823   4.967   9.925   6.868  0.6034 -0.2138  0.0979
  933MOL0     C25824   5.045   9.862   6.958  0.6216  0.4104  0.0686
  933MOL0     C25825   5.118   9.750   6.923 -0.3282  0.2750  0.9192
  933MOL0     C25826   5.207   9.681   7.013  0.1114 -0.0786  0.1872
  933MOL0     C25827   5.222   9.725   7.141  0.6215 -0.2537  0.3975
  933MOL0     O25828   5.303   9.659   7.230  0.0696  1.2417  0.6570
  933MOL0     C25829   5.238   9.607   7.346  0.4729 -0.6959 -0.0102
  933MOL0     C25830   5.303   9.470   7.375  1.0317 -1.5128 -0.1596
  933MOL0     C25831   5.442   9.496   7.434  1.1147  0.9326  0.7878
  933MOL0     C25832   5.511   9.368   7.484  0.6439 -0.2661 -0.1802
  933MOL0     C25833   5.645   9.391   7.551  0.3684  0.2990 -0.0254
  933MOL0     C25834   5.636   9.486   7.669 -0.4167  0.0665  0.1497
  933MOL0     C25835   5.759   9.484   7.767 -0.2860  0.5465 -1.1395
  933MOL0     C25836   5.897   9.511   7.705 -0.6193 -0.2738 -0.0522
  933MOL0     N25837   5.883   9.629   7.622 -0.2721  0.2267  0.3244
  933MOL0     C25838   5.824   9.750   7.656  0.1345  0.8426  0.5983
  933MOL0     C25839   5.830   9.807   7.530  0.5085 -0.5907  0.5693
  933MOL0     C25840   5.761   9.931   7.499  0.6160 -0.7222 -0.3270
  933MOL0     C25841   5.608   9.939   7.515 -0.5782  0.2353 -0.1234
  933MOL0     C25842   5.554   9.865   7.389  0.3600  0.5492  0.4819
  933MOL0     C25843   5.550   9.946   7.263  0.3158  0.4647  0.3117
  933MOL0     O25844   5.495  10.081   7.287 -0.5464  0.2590 -0.1880
  933MOL0     C25845   5.525  10.171   7.199 -0.0603 -0.4976 -0.9086
  933MOL0     C25846   5.465  10.162   7.076  0.2540 -0.1397  0.9562
  933MOL0     C25847   5.521  10.245   6.965 -0.1499  0.5121  0.0976
  933MOL0     C25848   5.630  10.332   7.003 -0.2658  0.1254 -0.2552
  933MOL0     C25849   5.685  10.416   6.897  0.3562  0.8297  0.5252
  933MOL0     O25850   5.617  10.414   6.776 -0.5396  0.7718 -0.0042
  933MOL0     C25851   5.638  10.499   6.671 -0.8425  0.6005  0.1599
  933MOL0     C25852   5.537  10.565   6.615  0.1627 -0.3542  0.7129
  933MOL0     C25853   5.552  10.651   6.506  1.4776 -0.5574 -0.2772
  933MOL0     C25854   5.676  10.671   6.446 -0.0406 -1.0408 -0.5570
  933MOL0     O25855   5.683  10.758   6.342  0.1252 -1.2087 -0.8794
  933MOL0     C25856   5.806  10.826   6.321 -0.0791 -0.3640 -0.2377
  933MOL0     C25857   5.809  10.936   6.210 -1.0184 -0.1697 -0.5471
  933MOL0     C25858   5.788  10.879   6.079 -0.3124  0.1606  0.4802
  933MOL0     C25859   5.754  10.966   5.957  0.7792  0.4245  0.2475
  933MOL0     C25860   5.630  11.059   5.975 -0.5120  0.7358 -0.7924
  933MOL0     C25861   5.597  11.115   5.836  0.5107  0.4745 -0.1967
  933MOL0     C25862   5.464  11.195   5.847  0.2632  0.8780  0.1175
  933MOL0     C25863   5.471  11.314   5.947  0.7178  0.1711  0.1526
  933MOL0    Cl25864   5.369  11.271   6.097 -0.5321  0.0353 -0.0398
  933MOL0     C25865   5.784  10.609   6.505 -0.2385 -0.9585  0.3566
  933MOL0     C25866   5.768  10.524   6.621  0.6812 -0.7436  0.6653
  933MOL0     O25867   5.778  10.493   6.918 -0.4603  0.0371  0.3340
  933MOL0     C25868   5.674  10.356   7.141 -0.0907  0.3324 -0.0536
  933MOL0     C25869   5.618  10.268   7.240  0.1342 -0.5751 -0.1013
  933MOL0     N25870   5.897   9.736   7.431 -0.7113 -0.5836 -0.5028
  933MOL0     N25871   5.920   9.619   7.490 -0.7846 -1.4418  0.1513
  933MOL0     C25872   5.168   9.850   7.171  0.1495 -0.7241  0.0453
  933MOL0     C25873   5.071   9.916   7.086 -0.1815 -0.7123 -0.2279
  933MOL0     C25874   4.733   9.989   6.813  0.5044  0.2441  0.1616
  933MOL0     C25875   4.724  10.133   6.834  0.0435  0.3246  0.8752
  933MOL0     C25876   4.622  10.201   6.771 -0.7402 -0.3033 -0.2622
  933MOL0     C25877   4.508  10.138   6.708  0.0257 -0.3811 -0.0778
  933MOL0     O25878   4.403  10.217   6.677  0.3304  0.5864  0.3604
  933MOL0     C25879   4.283  10.150   6.610  0.2421  0.1723  0.4587
  933MOL0     C25880   4.199  10.247   6.526  0.1450 -0.0881  0.4984
  933MOL0     C25881   4.257  10.349   6.428 -0.1258  0.6735  0.1995
  933MOL0     C25882   4.139  10.410   6.350  0.0054  0.1710  0.1559
  933MOL0     C25883   4.043  10.488   6.439 -0.0880  1.1129  0.3644
  933MOL0     C25884   3.970  10.565   6.493  0.3868 -0.3653  0.6832
  933MOL0     C25885   4.512   9.999   6.706  0.1773 -0.5614 -0.4110
  933MOL0     C25886   4.620   9.921   6.747  0.0075  0.2556  0.2891
  933MOL0     C25887   4.625   9.776   6.709 -0.0966 -0.5348 -0.4011
  933MOL0     H25888   5.092   9.699   6.831  1.0396 -0.0025  0.6695
  933MOL0     H25889   5.269   9.595   6.991  0.1187  0.2660 -1.1892
  933MOL0     H25890   5.249   9.660   7.442  0.6506 -2.3078  0.9065
  933MOL0     H25891   5.130   9.598   7.335 -0.0247  3.5219 -0.1227
  933MOL0     H25892   5.318   9.412   7.284  3.0374 -0.2107 -0.7400
  933MOL0     H25893   5.248   9.406   7.444  1.9314  1.0518  3.2498
  933MOL0     H25894   5.425   9.560   7.522  0.9683 -1.0482  2.2763
  933MOL0     H25895   5.506   9.547   7.362  1.5542  0.6987  1.0092
  933MOL0     H25896   5.443   9.307   7.545  0.7873 -2.2503 -1.8569
  933MOL0     H25897   5.526   9.307   7.394 -0.9136  1.1652 -1.4855
  933MOL0     H25898   5.695   9.298   7.580 -2.6653 -1.0272  1.3524
  933MOL0     H25899   5.707   9.438   7.474 -0.3177 -0.1494 -0.8765
  933MOL0     H25900   5.618   9.587   7.631  0.6066  0.1369 -0.1923
  933MOL0     H25901   5.547   9.464   7.728 -0.4241 -0.2941  0.0053
  933MOL0     H25902   5.771   9.390   7.823  2.4458  2.0771  1.0993
  933MOL0     H25903   5.736   9.552   7.850 -1.4097  2.4025 -2.8879
  933MOL0     H25904   5.964   9.535   7.788  0.7422  0.0823 -1.2005
  933MOL0     H25905   5.939   9.434   7.639 -1.1571  1.0084 -1.9714
  933MOL0     H25906   5.793   9.790   7.752  2.2788  2.1269  0.8191
  933MOL0     H25907   5.805  10.010   7.561 -0.6158 -1.3827  1.4402
  933MOL0     H25908   5.780   9.964   7.396 -0.1282  3.0199  0.5578
  933MOL0     H25909   5.572   9.890   7.606  0.6816  0.8651  0.7416
  933MOL0     H25910   5.565  10.040   7.516 -1.0557  0.0333  0.3960
  933MOL0     H25911   5.454   9.826   7.409  0.1641 -0.0467 -1.4737
  933MOL0     H25912   5.609   9.774   7.363  1.9675  0.7137  2.9550
  933MOL0     H25913   5.490   9.888   7.191  2.0928  0.1797 -1.0028
  933MOL0     H25914   5.654   9.962   7.235 -0.1083 -0.5857 -2.1577
  933MOL0     H25915   5.381  10.097   7.057 -0.6097  0.8849  1.1732
  933MOL0     H25916   5.480  10.229   6.866 -2.2141  1.5852  0.7198
  933MOL0     H25917   5.450  10.563   6.681  0.0063  0.9329  0.5729
  933MOL0     H25918   5.462  10.698   6.468  0.5143 -1.9512  0.1880
  933MOL0     H25919   5.832  10.873   6.416  1.6388 -0.8289 -0.4404
  933MOL0     H25920   5.878  10.748   6.294 -0.8918 -1.4709  0.7120
  933MOL0     H25921   5.735  11.014   6.228  0.3534  1.4502 -1.6772
  933MOL0     H25922   5.905  10.987   6.208 -2.2597  2.4468  1.0224
  933MOL0     H25923   5.871  10.812   6.057  2.3938  2.6472  2.4677
  933MOL0     H25924   5.692  10.829   6.096 -1.1544  0.8863 -1.7412
  933MOL0     H25925   5.722  10.902   5.875 -1.8960  1.5372  0.3368
  933MOL0     H25926   5.840  11.029   5.933 -0.5228  2.7970  1.4608
  933MOL0     H25927   5.655  11.143   6.041 -1.3547  0.0971  0.3664
  933MOL0     H25928   5.553  10.996   6.020  1.4198 -0.3164  1.2878
  933MOL0     H25929   5.678  11.181   5.802  1.5575 -2.1674 -3.4366
  933MOL0     H25930   5.582  11.040   5.758 -0.4076  1.0539 -0.5877
  933MOL0     H25931   5.377  11.131   5.862  0.8519 -0.2728 -1.1513
  933MOL0     H25932   5.455  11.228   5.743  1.2506 -1.6877 -0.8670
  933MOL0     H25933   5.577  11.334   5.969  0.8777 -1.1386  0.6853
  933MOL0     H25934   5.411  11.396   5.908  1.5099 -0.0150 -1.5490
  933MOL0     H25935   5.884  10.613   6.465 -0.0997 -0.5949  0.7389
  933MOL0     H25936   5.858  10.485   6.668  0.2008 -0.0617  2.1966
  933MOL0     H25937   5.759  10.422   7.157  1.3235 -1.1454 -1.1465
  933MOL0     H25938   5.637  10.292   7.344  1.1405 -0.1375 -0.3811
  933MOL0     H25939   5.184   9.908   7.262 -1.1021 -4.4343  2.9235
  933MOL0     H25940   5.017  10.008   7.105 -0.5464 -0.6250 -1.5601
  933MOL0     H25941   4.793  10.197   6.888  0.9832  1.2163 -1.2858
  933MOL0     H25942   4.623  10.307   6.795  0.2243  0.0997 -1.8759
  933MOL0     H25943   4.224  10.118   6.696 -1.8712  0.3082 -0.8868
  933MOL0     H25944   4.304  10.057   6.557 -1.1095  0.9587 -1.5554
  933MOL0     H25945   4.134  10.302   6.595 -1.7883  0.7803 -1.8487
  933MOL0     H25946   4.136  10.186   6.460  1.5569  2.3151 -3.3998
  933MOL0     H25947   4.321  10.291   6.361  0.1696  0.8283  0.3483
  933MOL0     H25948   4.309  10.428   6.483 -0.6945  0.8105  0.5505
  933MOL0     H25949   4.174  10.468   6.264 -0.0144  1.3952  0.9436
  933MOL0     H25950   4.080  10.331   6.303 -1.4223  0.3090  1.6319
  933MOL0     H25951   3.902  10.635   6.539 -0.3253 -0.2498 -0.4977
  933MOL0     H25952   4.438   9.929   6.669  1.2193 -2.2811  0.6022
  933MOL0     H25953   4.726   9.735   6.717 -0.7420 -2.0812  0.1541
  933MOL0     H25954   4.564   9.714   6.776  1.6185 -3.0829 -1.0732
  933MOL0     H25955   4.590   9.763   6.606  2.6533  0.2736 -1.5302
  934MOL0     O25956   1.351   0.534   3.322  0.2635  0.7849 -0.3858
  934MOL0     C25957   1.340   0.417   3.357  0.2374 -0.5633  0.1249
  934MOL0     O25958   1.297   0.316   3.283 -0.5560 -0.0630  0.1340
  934MOL0     C25959   1.305   0.318   3.143  0.0607  1.0101  0.6611
  934MOL0     C25960   1.362   0.418   3.063  0.1725 -0.3977  0.3617
  934MOL0     C25961   1.352   0.407   2.926 -0.6200  0.0596  0.1631
  934MOL0     C25962   1.290   0.295   2.860  0.4598  0.4958  0.4209
  934MOL0     O25963   1.257   0.292   2.725  0.5135 -0.3860 -0.2531
  934MOL0     C25964   1.350   0.367   2.637 -0.0471  0.2508 -1.6053
  934MOL0     C25965   1.332   0.332   2.493 -0.2506 -0.7176 -1.0656
  934MOL0     C25966   1.423   0.412   2.398 -0.8635  0.2736 -0.5501
  934MOL0     C25967   1.368   0.414   2.261  0.2885 -0.0516 -0.1048
  934MOL0     C25968   1.459   0.471   2.158 -0.9675  0.2038  0.6377
  934MOL0     C25969   1.394   0.459   2.024  0.5324 -0.2121  0.3259
  934MOL0     C25970   1.499   0.509   1.916  0.2728  0.3657 -0.4203
  934MOL0     C25971   1.470   0.487   1.771  0.5837 -0.3932  0.9763
  934MOL0     N25972   1.350   0.549   1.720  0.7550  0.3568 -0.2071
  934MOL0     C25973   1.221   0.492   1.720  0.1102  0.3320  0.3575
  934MOL0     C25974   1.127   0.581   1.738  0.3230 -0.1581 -1.1520
  934MOL0     C25975   0.973   0.555   1.738  0.1915  0.0686  0.1752
  934MOL0     C25976   0.922   0.456   1.854  1.0803  0.4445 -0.9385
  934MOL0     C25977   0.962   0.518   1.986 -0.6260  1.3091 -0.2650
  934MOL0     C25978   0.919   0.431   2.098  0.8579 -0.1662 -0.0100
  934MOL0     O25979   0.941   0.496   2.221 -0.9103 -0.3181 -1.1725
  934MOL0     C25980   0.910   0.427   2.335 -0.2689  0.0490 -0.0052
  934MOL0     C25981   0.898   0.286   2.354 -0.3175 -0.8657  0.7252
  934MOL0     C25982   0.869   0.242   2.482 -0.0803  1.1686  0.5175
  934MOL0     C25983   0.862   0.327   2.593 -0.0342  1.1027  0.0870
  934MOL0     C25984   0.845   0.278   2.732 -0.1471 -0.6044  0.2838
  934MOL0     O25985   0.772   0.360   2.812 -0.2257 -0.0327  0.6137
  934MOL0     C25986   0.797   0.353   2.942 -0.0284  0.4178 -0.3012
  934MOL0     C25987   0.685   0.322   3.022 -0.1340 -0.8338 -0.7497
  934MOL0     C25988   0.705   0.333   3.164 -0.8221 -0.1798 -0.1317
  934MOL0     C25989   0.826   0.374   3.221  0.1356 -0.2543  0.5799
  934MOL0     O25990   0.836   0.363   3.355  0.3436 -0.2388 -0.4031
  934MOL0     C25991   0.947   0.442   3.406 -0.7753 -0.5804  0.3535
  934MOL0     C25992   0.895   0.487   3.548 -0.7018 -0.5404 -0.4694
  934MOL0     C25993   0.987   0.591   3.616  0.4583 -0.2566 -0.2190
  934MOL0     C25994   0.939   0.629   3.758 -0.4986 -0.3071 -0.6536
  934MOL0     C25995   1.004   0.752   3.817 -1.3181 -0.8237  1.1866
  934MOL0     C25996   0.990   0.775   3.971 -0.3560 -0.5218 -0.5883
  934MOL0     C25997   0.990   0.934   4.006 -0.9626  0.1613 -0.0807
  934MOL0     C25998   0.937   0.956   4.148 -0.2243  0.6032 -0.1363
  934MOL0    Cl25999   0.919   1.127   4.183 -0.7013 -0.0006  0.0732
  934MOL0     C26000   0.933   0.401   3.134 -1.0885  0.2152  0.0343
  934MOL0     C26001   0.914   0.396   2.992 -0.3401 -0.0434 -1.1843
  934MOL0     O26002   0.913   0.180   2.762  0.3530  0.0781 -0.0209
  934MOL0     C26003   0.880   0.457   2.564  0.2684  0.0662 -0.2669
  934MOL0     C26004   0.899   0.512   2.439 -0.4511 -0.5176  1.0974
  934MOL0     N26005   1.191   0.702   1.735  0.7473  0.5109  0.6912
  934MOL0     N26006   1.324   0.686   1.735  0.5867 -1.0997  1.2262
  934MOL0     C26007   1.238   0.190   2.935 -0.1814  0.3942 -0.5751
  934MOL0     C26008   1.246   0.205   3.069  0.6501  0.1813 -0.1851
  934MOL0     C26009   1.371   0.373   3.499  0.4837 -0.5220  0.7696
  934MOL0     C26010   1.365   0.231   3.529 -0.0186  0.4061 -0.3655
  934MOL0     C26011   1.396   0.171   3.658  0.8021 -0.3148 -0.1949
  934MOL0     C26012   1.434   0.263   3.756  0.3004  0.3038 -0.0430
  934MOL0     O26013   1.463   0.214   3.883  0.2820  0.0009 -0.2079
  934MOL0     C26014   1.530   0.101   3.903  0.4405  0.2834  0.6334
  934MOL0     C26015   1.571   0.078   4.044 -0.2347 -0.2104 -0.4963
  934MOL0     C26016   1.620  -0.063   4.073 -0.0879 -0.5845  0.0424
  934MOL0     C26017   1.737  -0.057   4.165 -0.7844  0.3467  0.8177
  934MOL0     C26018   1.765  -0.186   4.212  0.1192  1.3747  0.5059
  934MOL0     C26019   1.797  -0.293   4.270  0.5976 -0.7473  0.2260
  934MOL0     C26020   1.435   0.395   3.731  0.2108 -0.6627 -0.5218
  934MOL0     C26021   1.408   0.460   3.606  0.0983 -0.0596  0.9951
  934MOL0     C26022   1.417   0.610   3.598  0.1950 -0.3174 -0.5140
  934MOL0     H26023   1.422   0.503   3.096  1.3607 -0.6906 -0.9861
  934MOL0     H26024   1.385   0.486   2.859 -3.3116  2.2468  1.2034
  934MOL0     H26025   1.328   0.474   2.639  2.0935  0.7958 -3.3265
  934MOL0     H26026   1.449   0.352   2.683 -0.1252  2.5770 -0.5411
  934MOL0     H26027   1.224   0.335   2.474 -0.3251 -0.7761 -0.6686
  934MOL0     H26028   1.364   0.228   2.486  5.3532  0.5521  0.7641
  934MOL0     H26029   1.526   0.381   2.378 -0.8374  2.2248 -4.2369
  934MOL0     H26030   1.442   0.508   2.448 -1.4203  0.3771 -0.5364
  934MOL0     H26031   1.353   0.312   2.224  4.1251 -1.3653  1.5515
  934MOL0     H26032   1.281   0.480   2.262 -2.0104 -2.8639 -0.1629
  934MOL0     H26033   1.464   0.578   2.181  0.6849 -0.0419  1.6138
  934MOL0     H26034   1.560   0.430   2.164  0.6895  4.0272  3.8880
  934MOL0     H26035   1.380   0.354   1.993  0.7459 -0.0836 -0.2325
  934MOL0     H26036   1.304   0.520   2.020  0.8570  0.2094 -1.0338
  934MOL0     H26037   1.598   0.464   1.927 -0.4380 -1.4385 -0.9607
  934MOL0     H26038   1.508   0.616   1.936 -0.5665  0.2824  0.4411
  934MOL0     H26039   1.559   0.524   1.719 -0.3778 -0.7819 -1.0174
  934MOL0     H26040   1.467   0.379   1.753  1.4971  0.0653 -2.7846
  934MOL0     H26041   1.214   0.384   1.723  1.0804  0.2138 -0.8692
  934MOL0     H26042   0.921   0.650   1.756  1.3873 -0.0299  5.7480
  934MOL0     H26043   0.961   0.516   1.636  1.4222 -0.8443  0.3609
  934MOL0     H26044   0.816   0.428   1.850  1.4119 -1.3476  1.0399
  934MOL0     H26045   0.970   0.358   1.852 -1.6150 -1.0313  0.2857
  934MOL0     H26046   0.905   0.611   1.993  0.8094  2.1084  2.3784
  934MOL0     H26047   1.071   0.528   1.989 -0.2966 -0.8791 -2.2339
  934MOL0     H26048   0.965   0.332   2.100 -0.7827 -0.9470  0.0034
  934MOL0     H26049   0.814   0.410   2.076  1.0784  0.2950 -1.6494
  934MOL0     H26050   0.921   0.212   2.279  1.8093 -1.5921  2.0002
  934MOL0     H26051   0.867   0.133   2.483  1.2289  1.1349  1.2508
  934MOL0     H26052   0.595   0.276   2.983 -1.8361 -1.3405  3.2469
  934MOL0     H26053   0.627   0.295   3.230 -0.1405 -2.0235 -0.3295
  934MOL0     H26054   1.037   0.381   3.420  0.4444  0.6920 -1.4291
  934MOL0     H26055   0.975   0.535   3.354 -1.0472 -2.2716 -3.0932
  934MOL0     H26056   0.794   0.528   3.538 -0.9352 -1.6303 -3.7414
  934MOL0     H26057   0.896   0.398   3.612 -0.2878  1.3270  2.2825
  934MOL0     H26058   1.090   0.555   3.627  1.2740  1.5221 -1.4542
  934MOL0     H26059   0.991   0.678   3.550 -3.0772 -0.2673 -0.6088
  934MOL0     H26060   0.960   0.544   3.824 -0.8200  0.2616  0.1967
  934MOL0     H26061   0.831   0.642   3.757 -0.8206 -2.4791  0.3561
  934MOL0     H26062   0.960   0.842   3.774  1.9115  0.6921  0.7107
  934MOL0     H26063   1.112   0.743   3.797 -1.7399 -2.8642 -0.5044
  934MOL0     H26064   0.901   0.727   4.013  0.1590 -1.4837 -0.5619
  934MOL0     H26065   1.069   0.709   4.008 -0.9730 -0.3241  1.2334
  934MOL0     H26066   0.916   0.985   3.943  1.9645 -0.1401 -4.1684
  934MOL0     H26067   1.087   0.981   3.992 -0.6290 -0.1902  0.9432
  934MOL0     H26068   0.841   0.905   4.158  1.9029 -3.8774  0.1478
  934MOL0     H26069   1.011   0.910   4.214  2.4172  2.1847 -1.8085
  934MOL0     H26070   1.036   0.418   3.165 -1.5064  2.2710  0.4350
  934MOL0     H26071   0.996   0.416   2.925 -0.8196 -0.5986 -1.9504
  934MOL0     H26072   0.889   0.534   2.640 -0.4643  0.2905 -0.4014
  934MOL0     H26073   0.912   0.618   2.422  0.4096 -0.7563  0.1244
  934MOL0     H26074   1.194   0.103   2.888 -2.0944 -0.8386  3.0751
  934MOL0     H26075   1.185   0.136   3.127  1.1425  2.2659  3.0882
  934MOL0     H26076   1.344   0.161   3.449  0.2288  0.7511 -0.7375
  934MOL0     H26077   1.375   0.066   3.672 -1.0670  0.0992  0.3644
  934MOL0     H26078   1.610   0.094   3.829  1.2740  1.6809  1.3552
  934MOL0     H26079   1.461   0.019   3.880  1.0698 -0.1301  0.1962
  934MOL0     H26080   1.485   0.094   4.109  1.6798  0.0481  2.1513
  934MOL0     H26081   1.642   0.154   4.079  0.8104  0.3624 -3.5349
  934MOL0     H26082   1.656  -0.112   3.982 -1.0688 -0.2374 -0.5414
  934MOL0     H26083   1.546  -0.132   4.113 -0.1367 -0.6962 -0.2391
  934MOL0     H26084   1.827  -0.021   4.114 -0.0487 -1.6340  0.6432
  934MOL0     H26085   1.710   0.006   4.251 -0.6648 -1.0905  1.9366
  934MOL0     H26086   1.838  -0.381   4.315  2.9753  0.0877 -0.1412
  934MOL0     H26087   1.479   0.458   3.808 -2.6370 -0.6663  1.2544
  934MOL0     H26088   1.319   0.654   3.580  0.1877 -0.1303 -0.0340
  934MOL0     H26089   1.456   0.653   3.691 -1.0419  0.7275 -0.4519
  934MOL0     H26090   1.482   0.645   3.517 -1.8192  0.1788 -1.9791
  935MOL0     O26091   9.848   2.321   8.388  0.5648 -0.5849 -0.8660
  935MOL0     C26092   9.938   2.238   8.417 -0.9648  0.2047 -0.8582
  935MOL0     O26093   9.926   2.100   8.412  0.0666  0.1564 -0.7938
  935MOL0     C26094   9.799   2.062   8.379  0.2426  0.5074 -0.6915
  935MOL0     C26095   9.706   2.013   8.477  0.2029 -0.0295  0.7042
  935MOL0     C26096   9.581   1.966   8.446 -0.4973 -0.0416  0.0421
  935MOL0     C26097   9.550   1.949   8.305  0.4626  0.1920 -0.3316
  935MOL0     O26098   9.438   1.883   8.256  0.7446 -0.9635  0.0347
  935MOL0     C26099   9.387   1.781   8.350  0.0088  0.2540 -0.3705
  935MOL0     C26100   9.321   1.657   8.274 -0.0964  1.1317 -0.5962
  935MOL0     C26101   9.284   1.534   8.362  0.1134 -0.1848  0.2849
  935MOL0     C26102   9.152   1.475   8.317 -0.5977 -0.3509  0.4153
  935MOL0     C26103   9.110   1.375   8.429 -0.6696  0.2570  0.2940
  935MOL0     C26104   9.001   1.287   8.372 -0.4057 -0.2613  0.1028
  935MOL0     C26105   8.907   1.208   8.476 -0.1879  0.5949  0.6601
  935MOL0     C26106   9.002   1.106   8.558  0.2019 -0.1303 -0.6447
  935MOL0     N26107   8.933   1.066   8.682 -0.0914 -0.0796 -0.1372
  935MOL0     C26108   8.986   1.083   8.805 -0.0164 -1.1157  0.2685
  935MOL0     C26109   8.897   1.028   8.888 -0.0625 -0.1201 -0.6081
  935MOL0     C26110   8.940   0.991   9.023 -0.7081 -0.3315  0.1461
  935MOL0     C26111   8.836   0.902   9.082  0.3594  0.3896  0.7857
  935MOL0     C26112   8.856   0.864   9.229  0.3802  0.4259 -0.6190
  935MOL0     C26113   8.991   0.782   9.257 -0.0727 -1.4086  0.1041
  935MOL0     O26114   8.987   0.699   9.380 -0.0507  1.0102 -0.3156
  935MOL0     C26115   8.945   0.568   9.364 -0.3194 -0.2300  0.1468
  935MOL0     C26116   8.816   0.526   9.398 -0.3661  0.7840  0.6351
  935MOL0     C26117   8.786   0.389   9.406  0.5176  0.7654 -0.3597
  935MOL0     C26118   8.880   0.292   9.364  0.5527  0.2384  0.0126
  935MOL0     C26119   8.858   0.147   9.362 -0.0349  1.5329 -0.1224
  935MOL0     O26120   8.951   0.072   9.307  0.1062  0.4496  0.0198
  935MOL0     C26121   8.931  -0.064   9.293  0.1370  0.2113  0.1314
  935MOL0     C26122   9.024  -0.151   9.362  1.2402 -0.4134  0.2252
  935MOL0     C26123   9.009  -0.286   9.345  0.6822  0.1471 -0.8467
  935MOL0     C26124   8.906  -0.338   9.270  0.6905 -0.5864  0.3717
  935MOL0     O26125   8.910  -0.472   9.248  0.0172 -0.8248 -0.1718
  935MOL0     C26126   8.805  -0.545   9.197  0.0937 -0.2747  0.8568
  935MOL0     C26127   8.674  -0.557   9.282 -0.0008 -0.0593  0.3249
  935MOL0     C26128   8.568  -0.644   9.212  0.3667  0.1294 -0.0112
  935MOL0     C26129   8.447  -0.659   9.309 -0.0425  0.1029 -0.2599
  935MOL0     C26130   8.327  -0.731   9.243 -0.1842 -0.9038 -0.3508
  935MOL0     C26131   8.337  -0.880   9.264  0.4631  0.0820  0.8677
  935MOL0     C26132   8.226  -0.940   9.181  0.4346  0.6873  0.9626
  935MOL0     C26133   8.206  -1.093   9.206 -0.6035 -0.2180  0.8675
  935MOL0    Cl26134   8.135  -1.132   9.364 -0.0948  0.2706 -0.0050
  935MOL0     C26135   8.808  -0.253   9.212  1.1737  1.1058 -1.2523
  935MOL0     C26136   8.830  -0.112   9.209 -0.2404  0.2829 -0.3730
  935MOL0     O26137   8.761   0.102   9.434 -1.0173 -0.3634  0.5280
  935MOL0     C26138   9.004   0.346   9.314 -0.3043 -0.3879  0.3678
  935MOL0     C26139   9.045   0.478   9.333  0.7552 -0.1583 -0.1045
  935MOL0     N26140   8.794   0.992   8.814  0.4018 -0.2445 -0.0689
  935MOL0     N26141   8.806   1.007   8.691 -0.5117 -0.4654  0.4739
  935MOL0     C26142   9.644   1.995   8.212  1.2379 -0.1164  0.4027
  935MOL0     C26143   9.766   2.052   8.249  0.3236  0.7631 -0.1368
  935MOL0     C26144  10.076   2.292   8.429 -1.1765  0.4227 -1.6865
  935MOL0     C26145  10.169   2.228   8.349 -0.5424  0.3834  0.4350
  935MOL0     C26146  10.300   2.272   8.330 -0.7178  0.0973 -0.9152
  935MOL0     C26147  10.345   2.377   8.408  0.4908 -0.4505 -0.2777
  935MOL0     O26148  10.475   2.418   8.382  0.2154  0.3093 -0.3843
  935MOL0     C26149  10.539   2.494   8.486  0.4440 -0.0772 -0.1498
  935MOL0     C26150  10.690   2.480   8.470 -0.4087 -0.4521 -0.0579
  935MOL0     C26151  10.763   2.589   8.552 -0.0672 -0.7212  0.3108
  935MOL0     C26152  10.910   2.581   8.530  0.3780 -0.1046 -0.4432
  935MOL0     C26153  10.983   2.631   8.649  1.0582 -0.5584 -0.0626
  935MOL0     C26154  11.018   2.675   8.756 -0.0184  1.1368 -0.2319
  935MOL0     C26155  10.256   2.440   8.500 -0.1849 -0.2956  0.0092
  935MOL0     C26156  10.120   2.403   8.509 -0.5443  1.0207  0.2288
  935MOL0     C26157  10.033   2.475   8.613  0.1565  0.0686  0.9419
  935MOL0     H26158   9.732   2.013   8.583 -0.0848 -1.9508  0.8123
  935MOL0     H26159   9.519   1.934   8.528 -0.7967 -0.6585 -0.4162
  935MOL0     H26160   9.465   1.736   8.412 -0.0711  1.3415  0.5446
  935MOL0     H26161   9.322   1.836   8.419 -0.9140  0.8817 -1.6890
  935MOL0     H26162   9.397   1.613   8.208  1.8549  2.9390  0.3537
  935MOL0     H26163   9.233   1.698   8.225 -1.7787  3.4591  3.8400
  935MOL0     H26164   9.273   1.561   8.467 -0.3452  0.0444  0.1784
  935MOL0     H26165   9.372   1.472   8.338  0.3408  0.7358 -1.4449
  935MOL0     H26166   9.088   1.563   8.301 -0.3430 -0.1935  0.2543
  935MOL0     H26167   9.144   1.426   8.220 -2.5993  1.2844 -0.3216
  935MOL0     H26168   9.191   1.309   8.462 -1.3760 -1.8902 -1.9830
  935MOL0     H26169   9.076   1.431   8.517  0.6393  0.4044  0.7368
  935MOL0     H26170   8.937   1.356   8.317 -2.1885 -0.8676  1.3655
  935MOL0     H26171   9.044   1.217   8.300 -1.2444 -0.9448  0.2574
  935MOL0     H26172   8.828   1.149   8.430 -0.0681  1.8600 -1.2962
  935MOL0     H26173   8.867   1.288   8.540  2.2512  0.8033  2.0576
  935MOL0     H26174   9.011   1.019   8.492  1.6190  1.9826 -3.4357
  935MOL0     H26175   9.105   1.140   8.573  0.1145 -0.4048  0.6974
  935MOL0     H26176   9.083   1.119   8.838  0.0052 -1.3879  0.5027
  935MOL0     H26177   9.045   0.958   9.018 -0.5651 -0.2113  1.7503
  935MOL0     H26178   8.944   1.084   9.079  4.2575 -1.1565  1.6627
  935MOL0     H26179   8.738   0.951   9.083 -0.5537 -1.3657  2.0737
  935MOL0     H26180   8.821   0.809   9.026  2.1959 -0.6536  1.9284
  935MOL0     H26181   8.764   0.823   9.273 -1.0011  4.1259  0.3170
  935MOL0     H26182   8.870   0.960   9.280 -1.2517  1.1973 -1.5285
  935MOL0     H26183   9.063   0.865   9.263 -2.0861  0.4198  0.4039
  935MOL0     H26184   9.030   0.732   9.168 -2.0044  1.7717 -2.7917
  935MOL0     H26185   8.751   0.610   9.421 -1.6702 -0.1918  0.7013
  935MOL0     H26186   8.687   0.360   9.439  0.6571 -0.2326 -0.8013
  935MOL0     H26187   9.101  -0.106   9.423  0.9912 -1.4710  1.3682
  935MOL0     H26188   9.077  -0.349   9.401  0.6409  2.8677  2.5859
  935MOL0     H26189   8.771  -0.503   9.102  0.7900 -0.0734  0.6900
  935MOL0     H26190   8.849  -0.643   9.178 -1.2432 -0.3792 -2.4017
  935MOL0     H26191   8.699  -0.605   9.377 -0.0168 -0.6585  0.0304
  935MOL0     H26192   8.636  -0.458   9.309  1.4216 -0.1031  2.8085
  935MOL0     H26193   8.530  -0.594   9.122 -0.1807  0.1652  0.2315
  935MOL0     H26194   8.615  -0.742   9.196  0.7222 -0.9085  5.3279
  935MOL0     H26195   8.415  -0.560   9.342 -0.1672  0.7838 -2.3051
  935MOL0     H26196   8.471  -0.728   9.391 -1.6119  0.3979  0.4869
  935MOL0     H26197   8.334  -0.704   9.137 -2.7183  3.0716  0.2636
  935MOL0     H26198   8.233  -0.688   9.279  1.1608 -1.0574  3.8360
  935MOL0     H26199   8.433  -0.920   9.230 -0.2902 -0.1617 -1.0770
  935MOL0     H26200   8.326  -0.900   9.371  0.3214 -0.7901  0.6993
  935MOL0     H26201   8.247  -0.931   9.074 -1.9182  3.5749  0.6362
  935MOL0     H26202   8.128  -0.892   9.187 -0.1967 -0.2954 -0.7358
  935MOL0     H26203   8.161  -1.144   9.120 -0.2603  2.5724 -1.1275
  935MOL0     H26204   8.309  -1.131   9.205  0.3969  2.2960  0.8468
  935MOL0     H26205   8.727  -0.289   9.151  1.0459  2.5122 -1.9714
  935MOL0     H26206   8.790  -0.034   9.146  2.4993  1.2392 -1.0700
  935MOL0     H26207   9.084   0.283   9.276  0.8183  0.8771  0.5600
  935MOL0     H26208   9.143   0.517   9.309  0.6106  1.1324  1.2743
  935MOL0     H26209   9.618   1.972   8.110 -1.2607  2.2609  0.3745
  935MOL0     H26210   9.845   2.064   8.175  2.4737 -0.9678  1.6990
  935MOL0     H26211  10.132   2.152   8.282 -0.4627  1.4899 -0.9098
  935MOL0     H26212  10.364   2.219   8.260  2.3158 -0.9154  2.3519
  935MOL0     H26213  10.502   2.466   8.585 -2.2215  1.9476 -0.4588
  935MOL0     H26214  10.506   2.598   8.475  0.2568 -0.2212 -1.0339
  935MOL0     H26215  10.705   2.487   8.362  1.2891  2.5242  0.2347
  935MOL0     H26216  10.719   2.379   8.499  0.9990 -0.2480 -0.6482
  935MOL0     H26217  10.743   2.577   8.659  0.0277 -2.4024  0.1790
  935MOL0     H26218  10.732   2.687   8.515 -0.0765 -0.8061  0.0890
  935MOL0     H26219  10.938   2.476   8.521 -1.9802 -0.9590  1.4726
  935MOL0     H26220  10.946   2.630   8.438 -0.9666  2.5513  0.3472
  935MOL0     H26221  11.073   2.713   8.839  1.3705 -0.1415 -0.5211
  935MOL0     H26222  10.292   2.514   8.571  1.9033 -0.7230 -0.5284
  935MOL0     H26223   9.989   2.408   8.688 -2.4595  1.9393  1.2332
  935MOL0     H26224  10.077   2.551   8.679  0.3317 -0.1446  1.0744
  935MOL0     H26225   9.940   2.510   8.567 -0.4784 -1.5936  0.8918
  936MOL0     O26226   6.993   6.703   4.979 -0.1892  0.3130  0.0865
  936MOL0     C26227   6.885   6.750   5.007  0.4345  0.0295 -0.4381
  936MOL0     O26228   6.780   6.684   5.045  0.7177  1.3963 -0.5817
  936MOL0     C26229   6.777   6.544   5.073 -0.3433 -0.5009  0.9325
  936MOL0     C26230   6.889   6.458   5.083 -0.5071 -0.3680  1.0317
  936MOL0     C26231   6.877   6.312   5.106  0.1796 -0.2193  1.0206
  936MOL0     C26232   6.754   6.249   5.112  0.4102  0.1460 -0.4219
  936MOL0     O26233   6.738   6.116   5.124 -0.5002  0.2821  0.3835
  936MOL0     C26234   6.782   6.033   5.011  0.5055  0.0261 -0.4590
  936MOL0     C26235   6.724   5.899   5.015  0.5379  0.4124 -0.3360
  936MOL0     C26236   6.577   5.879   5.032 -0.2121  0.1252  0.5017
  936MOL0     C26237   6.506   5.967   4.926 -0.2103 -0.6385 -0.2289
  936MOL0     C26238   6.355   5.967   4.932 -0.0238 -1.0509 -0.1142
  936MOL0     C26239   6.308   6.080   4.837  0.2187 -1.2669  0.9667
  936MOL0     C26240   6.147   6.100   4.852 -1.1481 -0.3526  0.6094
  936MOL0     C26241   6.104   6.212   4.746 -0.0191  0.5799  0.0939
  936MOL0     N26242   5.971   6.252   4.747  0.8851  0.2462 -0.5671
  936MOL0     C26243   5.904   6.269   4.867 -0.4450 -0.3625 -0.1504
  936MOL0     C26244   5.795   6.327   4.824  0.1078 -0.6082 -0.9469
  936MOL0     C26245   5.665   6.369   4.901  0.3768  0.3011  0.3586
  936MOL0     C26246   5.609   6.504   4.866 -0.1205 -0.4502  0.3318
  936MOL0     C26247   5.481   6.525   4.930  1.0934 -0.2290 -0.1850
  936MOL0     C26248   5.408   6.666   4.898 -0.3582  0.0384  0.0782
  936MOL0     O26249   5.462   6.772   4.974 -0.5685  0.7574 -0.2363
  936MOL0     C26250   5.389   6.885   4.983  0.3434 -0.4893  0.9558
  936MOL0     C26251   5.308   6.933   4.873  0.5591  0.1730 -0.2307
  936MOL0     C26252   5.208   7.021   4.913 -0.3203 -0.8403 -0.2746
  936MOL0     C26253   5.203   7.080   5.035  1.1746  0.0041  0.1243
  936MOL0     C26254   5.104   7.192   5.057 -0.9794  0.4703  0.4561
  936MOL0     O26255   5.034   7.230   4.948  0.6048 -0.1775  1.2010
  936MOL0     C26256   4.947   7.333   4.958 -0.3076 -0.2800 -0.1448
  936MOL0     C26257   4.984   7.453   5.008 -0.1659  0.8877  0.3192
  936MOL0     C26258   4.898   7.567   5.021  0.5840  0.3532 -0.0266
  936MOL0     C26259   4.781   7.562   4.949  0.5115 -0.0729  0.0805
  936MOL0     O26260   4.698   7.668   4.961  0.2171 -1.3458  0.3361
  936MOL0     C26261   4.555   7.648   4.938 -0.1312  0.4032  0.4312
  936MOL0     C26262   4.482   7.782   4.969 -0.3753  0.3350 -0.6857
  936MOL0     C26263   4.330   7.762   4.976  0.4037 -0.7066  0.0284
  936MOL0     C26264   4.249   7.871   5.063  0.4249 -0.0157  0.5407
  936MOL0     C26265   4.262   8.013   5.000  0.1795  0.2900  0.5199
  936MOL0     C26266   4.209   8.117   5.097  0.9732  0.3063 -0.9851
  936MOL0     C26267   4.175   8.250   5.027  0.3542  0.0632 -0.0541
  936MOL0     C26268   4.137   8.365   5.139  0.0458 -0.1087  0.5222
  936MOL0    Cl26269   3.980   8.327   5.206 -0.5061 -0.3910 -0.7697
  936MOL0     C26270   4.747   7.440   4.875 -0.1385  0.4719  1.1030
  936MOL0     C26271   4.830   7.333   4.878  0.2034  0.5813  0.1700
  936MOL0     O26272   5.090   7.238   5.176  1.2825  0.7954 -0.3398
  936MOL0     C26273   5.296   7.043   5.132 -0.1215  0.4355  1.0142
  936MOL0     C26274   5.392   6.950   5.104  0.7085 -0.1118  0.9508
  936MOL0     N26275   5.799   6.354   4.688  0.3428 -0.9445  0.7529
  936MOL0     N26276   5.910   6.299   4.640  0.2476  0.0496  0.4904
  936MOL0     C26277   6.643   6.338   5.104  0.3069  0.1065 -0.7228
  936MOL0     C26278   6.650   6.484   5.092  0.1603  0.6057  0.2728
  936MOL0     C26279   6.867   6.903   5.018  0.9870  0.9757  0.9526
  936MOL0     C26280   6.736   6.958   5.029  0.3679 -0.0322  0.0797
  936MOL0     C26281   6.715   7.096   5.036 -0.3072 -0.6623 -0.0844
  936MOL0     C26282   6.824   7.182   5.041  0.2097 -0.4331  0.3438
  936MOL0     O26283   6.815   7.319   5.054  0.1809 -0.2069 -1.0423
  936MOL0     C26284   6.703   7.379   4.985 -0.4054 -1.1640  0.5497
  936MOL0     C26285   6.717   7.379   4.839  0.3612 -0.4269  0.1465
  936MOL0     C26286   6.711   7.250   4.746 -0.2302 -0.1653 -0.7095
  936MOL0     C26287   6.707   7.291   4.601 -1.0328  0.0834  0.0796
  936MOL0     C26288   6.714   7.164   4.528 -0.2907  0.0162  0.2171
  936MOL0     C26289   6.701   7.055   4.478  0.6547 -0.0537 -0.5478
  936MOL0     C26290   6.953   7.127   5.043 -0.5433 -0.6053  0.9611
  936MOL0     C26291   6.976   6.997   5.022  0.2340 -0.0280  0.0015
  936MOL0     C26292   7.115   6.950   5.017  0.2573 -0.0108  0.7635
  936MOL0     H26293   6.988   6.502   5.077  0.0856 -1.7764  0.0659
  936MOL0     H26294   6.969   6.257   5.093 -0.2697 -0.6050 -0.6986
  936MOL0     H26295   6.753   6.082   4.918  0.7513  2.2321  0.5466
  936MOL0     H26296   6.890   6.011   5.011  0.5505  0.2239 -1.2443
  936MOL0     H26297   6.769   5.851   5.102  1.4719  1.2521 -0.3409
  936MOL0     H26298   6.750   5.843   4.925 -1.1750  0.3165 -0.8014
  936MOL0     H26299   6.548   5.915   5.131 -0.1786  0.0044  0.5556
  936MOL0     H26300   6.549   5.774   5.024 -1.3246  0.3663  1.0457
  936MOL0     H26301   6.538   6.072   4.933 -0.8734 -0.4456 -0.0965
  936MOL0     H26302   6.543   5.933   4.829 -0.4936  1.2691 -1.0638
  936MOL0     H26303   6.320   5.876   4.883  0.0536 -0.7911 -0.6611
  936MOL0     H26304   6.321   5.982   5.035 -0.0532  2.5765 -0.5289
  936MOL0     H26305   6.345   6.181   4.857 -1.7012  0.1666 -1.9420
  936MOL0     H26306   6.342   6.065   4.734  0.0061  2.4245  0.2016
  936MOL0     H26307   6.119   6.122   4.956 -1.8728  1.1089  0.1338
  936MOL0     H26308   6.097   6.007   4.827  0.4854 -1.0022 -0.3726
  936MOL0     H26309   6.158   6.305   4.767 -0.4636  0.9306 -0.2983
  936MOL0     H26310   6.136   6.186   4.644 -1.0055  1.2407 -0.3984
  936MOL0     H26311   5.924   6.227   4.965  0.8117  3.3853  1.3577
  936MOL0     H26312   5.586   6.295   4.883  2.5770 -2.0286 -0.1959
  936MOL0     H26313   5.671   6.357   5.010 -0.9771 -1.9943  0.2655
  936MOL0     H26314   5.680   6.584   4.889 -1.2902  0.5191  0.6956
  936MOL0     H26315   5.593   6.504   4.758  0.7073 -2.4195  0.1769
  936MOL0     H26316   5.498   6.512   5.038 -2.5896  1.2886  0.7215
  936MOL0     H26317   5.410   6.448   4.902 -2.8768  1.4414  4.0439
  936MOL0     H26318   5.301   6.652   4.913 -0.4536 -1.6266 -1.7809
  936MOL0     H26319   5.423   6.684   4.791  1.3696  2.2862  0.6088
  936MOL0     H26320   5.314   6.882   4.777  1.9319  0.6861 -0.4409
  936MOL0     H26321   5.126   7.041   4.844 -0.5277 -1.4712 -0.2145
  936MOL0     H26322   5.086   7.457   5.047  0.4629 -1.3359 -0.8772
  936MOL0     H26323   4.913   7.651   5.088  0.9669 -0.4013  0.8470
  936MOL0     H26324   4.528   7.606   4.840  1.7989  2.1391 -0.9364
  936MOL0     H26325   4.519   7.570   5.005 -0.3273 -0.7616 -0.9778
  936MOL0     H26326   4.509   7.834   5.061 -3.5157  1.0464 -0.0464
  936MOL0     H26327   4.511   7.848   4.887 -0.6434 -0.3956 -1.3980
  936MOL0     H26328   4.291   7.751   4.875  0.6631 -0.8807 -0.0521
  936MOL0     H26329   4.311   7.668   5.029  1.6142  0.6703  3.1469
  936MOL0     H26330   4.293   7.878   5.163 -1.0997  0.3569  1.2101
  936MOL0     H26331   4.147   7.832   5.062  0.0730  0.8575  1.2605
  936MOL0     H26332   4.208   8.009   4.904 -0.9148  1.0246  1.0820
  936MOL0     H26333   4.371   8.024   4.993  0.8293 -4.3095  0.2560
  936MOL0     H26334   4.116   8.078   5.142  0.3296  2.7670 -0.0244
  936MOL0     H26335   4.269   8.137   5.186  1.5615  2.0305 -1.7355
  936MOL0     H26336   4.090   8.231   4.961 -0.3852  3.4792 -0.2751
  936MOL0     H26337   4.266   8.284   4.978  0.0106  2.8571  1.0530
  936MOL0     H26338   4.215   8.375   5.214  0.7165  1.3668 -0.3260
  936MOL0     H26339   4.117   8.462   5.092 -1.8279 -0.1545  1.1242
  936MOL0     H26340   4.668   7.423   4.802  1.7679 -3.6737 -0.3414
  936MOL0     H26341   4.799   7.245   4.822 -0.5518 -0.3425  1.9809
  936MOL0     H26342   5.295   7.085   5.232 -0.0973  0.5877  0.9511
  936MOL0     H26343   5.468   6.926   5.177  0.8631 -1.4036  0.3808
  936MOL0     H26344   6.544   6.294   5.108  0.2763  0.0769 -1.5916
  936MOL0     H26345   6.553   6.532   5.080  1.2728  2.8662 -0.0146
  936MOL0     H26346   6.650   6.893   5.044  3.6235 -5.0119 -0.3330
  936MOL0     H26347   6.615   7.131   5.058  0.5489  2.4106 -0.5193
  936MOL0     H26348   6.701   7.486   5.006 -0.0752 -0.4375 -2.6274
  936MOL0     H26349   6.606   7.337   5.013 -1.8366  1.1181 -0.6337
  936MOL0     H26350   6.813   7.427   4.818 -0.1402 -0.5969 -3.2068
  936MOL0     H26351   6.640   7.438   4.787  1.9168  2.0350  0.4641
  936MOL0     H26352   6.631   7.181   4.777 -1.1837 -0.3389 -3.3619
  936MOL0     H26353   6.808   7.200   4.757  0.3529  1.2157  0.8034
  936MOL0     H26354   6.610   7.337   4.580  0.9021  3.9229 -1.4231
  936MOL0     H26355   6.782   7.368   4.583 -0.8164 -0.2544 -0.4642
  936MOL0     H26356   6.682   6.963   4.425 -1.3137 -0.6892  1.1000
  936MOL0     H26357   7.032   7.201   5.052 -1.0313  0.1053 -0.4162
  936MOL0     H26358   7.115   6.874   5.096 -2.1975 -1.6074 -0.6295
  936MOL0     H26359   7.143   6.901   4.923 -1.2168 -1.1670  0.8936
  936MOL0     H26360   7.179   7.037   5.030 -2.1957  2.1332 -0.6151
  937MOL0     O26361   7.542  11.253   2.246  0.8274 -0.3334 -0.1874
  937MOL0     C26362   7.606  11.151   2.271 -0.0729  0.8710  1.4168
  937MOL0     O26363   7.706  11.108   2.184  0.4786  0.3455  0.6925
  937MOL0     C26364   7.701  11.159   2.058 -0.9049  0.2980  0.8395
  937MOL0     C26365   7.759  11.282   2.016  0.2898 -0.5700 -0.6558
  937MOL0     C26366   7.750  11.331   1.883  0.6389 -0.0834 -0.4471
  937MOL0     C26367   7.682  11.254   1.786  0.2652 -0.5456 -0.0295
  937MOL0     O26368   7.680  11.285   1.650  0.6604 -0.1485 -0.5996
  937MOL0     C26369   7.645  11.414   1.619  0.2676  0.0113 -0.8306
  937MOL0     C26370   7.618  11.404   1.472  0.5076  0.4622  0.6131
  937MOL0     C26371   7.536  11.528   1.435  0.2439  0.9043  0.2429
  937MOL0     C26372   7.544  11.559   1.283 -0.3866  0.1988  0.5231
  937MOL0     C26373   7.467  11.680   1.260 -0.4626  0.5164  0.2317
  937MOL0     C26374   7.522  11.809   1.316  0.9992 -0.6557  0.5313
  937MOL0     C26375   7.429  11.922   1.268  0.3623 -0.2734 -1.2387
  937MOL0     C26376   7.477  12.059   1.308  0.0607  0.9729 -0.4117
  937MOL0     N26377   7.498  12.071   1.457 -0.1319 -0.0591  0.2331
  937MOL0     C26378   7.407  12.096   1.546  0.7018  0.8821 -0.1233
  937MOL0     C26379   7.460  12.096   1.666 -0.9429  0.3195  0.9605
  937MOL0     C26380   7.393  12.099   1.803  0.8231 -0.6507 -0.4529
  937MOL0     C26381   7.331  12.238   1.844  0.2044  0.2305  0.0407
  937MOL0     C26382   7.198  12.262   1.763 -0.4100 -0.0055  0.6139
  937MOL0     C26383   7.093  12.163   1.803  0.0667  0.3512 -0.4653
  937MOL0     O26384   7.073  12.057   1.707 -0.4731  0.2622 -0.0960
  937MOL0     C26385   7.022  12.085   1.581 -0.3646 -0.6654 -0.1999
  937MOL0     C26386   7.049  11.991   1.485  0.1805 -0.2263  1.1185
  937MOL0     C26387   7.006  12.011   1.352 -0.6517 -0.0424  0.7361
  937MOL0     C26388   6.927  12.128   1.312  0.2291  0.1077 -0.3480
  937MOL0     C26389   6.894  12.148   1.169 -0.2037  0.0387  0.6641
  937MOL0     O26390   6.937  12.056   1.079  0.0737  0.2275 -0.3000
  937MOL0     C26391   6.854  12.052   0.972  0.6730 -0.2317 -0.2130
  937MOL0     C26392   6.721  12.013   0.985 -0.4594  0.9351 -0.2081
  937MOL0     C26393   6.622  12.010   0.882 -0.9928  0.0228  0.6561
  937MOL0     C26394   6.664  12.050   0.756 -0.5666 -1.1005  0.5465
  937MOL0     O26395   6.565  12.068   0.660 -0.0627 -1.0765  0.0564
  937MOL0     C26396   6.577  12.021   0.529 -0.1284 -0.5918  1.3779
  937MOL0     C26397   6.541  12.126   0.425 -0.8403 -1.0058 -0.3766
  937MOL0     C26398   6.645  12.230   0.423 -0.2482  0.0979  0.4608
  937MOL0     C26399   6.766  12.175   0.347  0.2543 -0.1334 -0.5442
  937MOL0     C26400   6.871  12.294   0.328 -0.6303  0.1522  0.0762
  937MOL0     C26401   6.867  12.384   0.208 -0.1982 -0.4383 -0.1242
  937MOL0     C26402   6.886  12.329   0.069 -0.7983  0.7086  0.0636
  937MOL0     C26403   6.866  12.440  -0.036  0.2672 -0.1282 -0.2714
  937MOL0    Cl26404   6.963  12.584  -0.033 -0.2881  0.0330 -0.1207
  937MOL0     C26405   6.799  12.096   0.738 -0.3128  0.0449 -0.0330
  937MOL0     C26406   6.893  12.100   0.843 -0.1435  0.3857  0.4665
  937MOL0     O26407   6.823  12.247   1.148 -0.1636  0.5564  0.3732
  937MOL0     C26408   6.911  12.224   1.408 -0.1113 -0.3604 -0.2098
  937MOL0     C26409   6.957  12.204   1.541  0.0833 -0.1546  0.1017
  937MOL0     N26410   7.592  12.067   1.640  0.1460 -0.4110  0.3027
  937MOL0     N26411   7.619  12.052   1.516  0.0608 -0.0991 -0.1038
  937MOL0     C26412   7.645  11.128   1.824  0.4620 -0.1543  0.6857
  937MOL0     C26413   7.648  11.081   1.953  0.2792 -0.7116  0.5637
  937MOL0     C26414   7.604  11.090   2.402  0.4339 -0.1437  0.1123
  937MOL0     C26415   7.660  10.964   2.407 -0.3649  0.4788 -0.2152
  937MOL0     C26416   7.651  10.887   2.523 -0.3541 -0.9734 -1.4403
  937MOL0     C26417   7.603  10.947   2.640  0.3009  0.1319  0.1271
  937MOL0     O26418   7.610  10.869   2.751 -0.2151 -0.4198  0.7853
  937MOL0     C26419   7.631  10.941   2.872  0.2654  0.5688 -0.1956
  937MOL0     C26420   7.670  10.825   2.976 -0.6993 -0.0472  0.6525
  937MOL0     C26421   7.699  10.887   3.110 -0.1940  0.0017 -0.5409
  937MOL0     C26422   7.672  10.788   3.222 -0.4947  0.0361  0.0443
  937MOL0     C26423   7.759  10.675   3.235  0.0877  0.1422 -0.3713
  937MOL0     C26424   7.847  10.594   3.260 -0.0044  0.8045  0.2246
  937MOL0     C26425   7.549  11.076   2.635 -0.0247  0.2907 -0.3948
  937MOL0     C26426   7.542  11.147   2.517 -0.0359  1.0711  0.3985
  937MOL0     C26427   7.457  11.277   2.524  0.0200  0.3582 -0.2030
  937MOL0     H26428   7.813  11.346   2.085 -1.2486  0.1231 -0.0288
  937MOL0     H26429   7.805  11.421   1.856 -1.1076  1.2394  0.1953
  937MOL0     H26430   7.554  11.432   1.678 -0.4279 -3.2788 -0.7066
  937MOL0     H26431   7.725  11.485   1.643  0.4149 -0.4884  0.1969
  937MOL0     H26432   7.564  11.313   1.447  0.0391  0.9292 -0.1407
  937MOL0     H26433   7.716  11.401   1.423  1.1378  0.3725  1.8338
  937MOL0     H26434   7.561  11.614   1.499  2.1291  1.8862 -1.6822
  937MOL0     H26435   7.434  11.502   1.466  0.9342 -0.7237  1.2743
  937MOL0     H26436   7.645  11.559   1.241 -1.2889  0.1505 -1.8217
  937MOL0     H26437   7.491  11.477   1.233  1.2592 -0.9079  0.5039
  937MOL0     H26438   7.455  11.701   1.153 -2.9789  3.9433  0.9992
  937MOL0     H26439   7.369  11.670   1.309 -1.5890  3.6707 -1.0800
  937MOL0     H26440   7.543  11.798   1.422 -2.6742 -3.6044  1.1877
  937MOL0     H26441   7.619  11.820   1.267 -0.0703 -0.4963 -1.6886
  937MOL0     H26442   7.327  11.922   1.307  1.4506  3.9604  2.3740
  937MOL0     H26443   7.423  11.933   1.159 -3.5089  2.2881 -0.9550
  937MOL0     H26444   7.567  12.085   1.251  0.4314  1.8365  0.5430
  937MOL0     H26445   7.405  12.138   1.284 -0.2544  1.2025  1.1760
  937MOL0     H26446   7.300  12.092   1.527  0.4978 -0.3976  1.1185
  937MOL0     H26447   7.309  12.030   1.785 -1.1590  2.4270 -4.8395
  937MOL0     H26448   7.473  12.069   1.872  1.6587  2.4102  0.0420
  937MOL0     H26449   7.310  12.245   1.951  0.8695 -0.0767  0.1974
  937MOL0     H26450   7.405  12.314   1.816 -0.3015  0.5892 -0.3324
  937MOL0     H26451   7.204  12.267   1.654 -0.2409 -0.5602  0.5951
  937MOL0     H26452   7.169  12.363   1.793  0.0550  0.9067 -1.7799
  937MOL0     H26453   6.997  12.216   1.813 -1.0002 -1.0732 -2.3452
  937MOL0     H26454   7.103  12.122   1.903  0.4989 -0.5809 -0.8775
  937MOL0     H26455   7.094  11.898   1.518 -1.0919 -2.7108 -3.4171
  937MOL0     H26456   7.029  11.932   1.282  0.2289 -0.1263  1.1142
  937MOL0     H26457   6.677  11.977   1.077  0.8662  0.2895  0.1935
  937MOL0     H26458   6.517  11.991   0.902 -1.7777  2.9050 -0.1866
  937MOL0     H26459   6.676  11.981   0.507  1.0950  0.8116  3.8873
  937MOL0     H26460   6.509  11.935   0.524  0.1336 -0.7614  0.5663
  937MOL0     H26461   6.533  12.078   0.327  1.4770 -3.4350  0.4817
  937MOL0     H26462   6.444  12.166   0.456 -0.6985 -2.5683  2.4159
  937MOL0     H26463   6.606  12.318   0.370  0.1675 -0.3097 -0.5393
  937MOL0     H26464   6.670  12.268   0.523  1.0591  2.7642 -0.7786
  937MOL0     H26465   6.741  12.131   0.249 -0.3464 -1.9520  0.3821
  937MOL0     H26466   6.813  12.096   0.406 -2.4124 -0.7752  0.8867
  937MOL0     H26467   6.968  12.247   0.344 -0.9750 -0.5534  0.1797
  937MOL0     H26468   6.869  12.358   0.416  4.3628 -0.7188  1.1112
  937MOL0     H26469   6.774  12.441   0.206  0.1668  0.1942  0.2703
  937MOL0     H26470   6.942  12.462   0.227 -1.8051  1.2625 -0.4496
  937MOL0     H26471   6.824  12.244   0.039  0.0498  0.4929 -1.1741
  937MOL0     H26472   6.980  12.273   0.071 -1.5619 -0.6244 -0.1648
  937MOL0     H26473   6.883  12.395  -0.135 -0.0193 -0.8694  0.0030
  937MOL0     H26474   6.762  12.474  -0.035 -0.0199 -0.7715 -2.3644
  937MOL0     H26475   6.829  12.126   0.638 -1.3042 -2.5473 -1.2209
  937MOL0     H26476   6.997  12.110   0.816 -0.8783  0.5277 -2.6551
  937MOL0     H26477   6.863  12.317   1.378  1.4657 -0.3816 -3.2046
  937MOL0     H26478   6.929  12.282   1.611 -2.2063 -1.2777  0.5252
  937MOL0     H26479   7.610  11.070   1.740 -0.8963  1.0020  0.4229
  937MOL0     H26480   7.625  10.980   1.984  0.0415 -0.8689 -0.1180
  937MOL0     H26481   7.706  10.911   2.325 -2.6999 -3.3440  0.6416
  937MOL0     H26482   7.688  10.785   2.523  3.4912  0.2447 -0.7316
  937MOL0     H26483   7.529  10.974   2.893 -0.9514 -2.1632 -1.1973
  937MOL0     H26484   7.706  11.020   2.872  2.2595 -1.2404 -0.3698
  937MOL0     H26485   7.753  10.764   2.940 -0.3960  0.3515  0.6787
  937MOL0     H26486   7.586  10.755   2.989 -1.0746  0.4851  1.1380
  937MOL0     H26487   7.633  10.973   3.114  2.7354  2.3496  0.9591
  937MOL0     H26488   7.805  10.914   3.102  0.3335 -1.7823  0.0118
  937MOL0     H26489   7.674  10.843   3.317 -0.4329  0.9372 -0.4707
  937MOL0     H26490   7.579  10.732   3.212  1.4852 -3.4122 -0.9959
  937MOL0     H26491   7.931  10.530   3.276 -1.3867 -2.1936 -3.1092
  937MOL0     H26492   7.513  11.118   2.728  2.5044  0.9232  0.3700
  937MOL0     H26493   7.351  11.249   2.518  0.1620 -0.7613  1.7896
  937MOL0     H26494   7.469  11.323   2.622 -0.9949  0.1056  0.0527
  937MOL0     H26495   7.478  11.344   2.440 -1.4595  0.9368 -0.1430
  938MOL0     O26496   2.491   4.085   5.273  0.7718 -0.6641  0.3973
  938MOL0     C26497   2.581   4.157   5.307  0.0310 -0.7761 -0.1841
  938MOL0     O26498   2.588   4.292   5.312 -0.2384 -0.1459  0.3676
  938MOL0     C26499   2.534   4.379   5.220 -0.1441 -0.2369  0.0240
  938MOL0     C26500   2.573   4.517   5.222 -0.5392  0.4526 -0.4214
  938MOL0     C26501   2.530   4.611   5.136 -0.5034  0.7297  0.6471
  938MOL0     C26502   2.453   4.572   5.022  0.8567  0.0510 -0.5363
  938MOL0     O26503   2.404   4.660   4.930 -0.6483  0.0274  0.0210
  938MOL0     C26504   2.478   4.779   4.899  0.8670  0.3458  0.8138
  938MOL0     C26505   2.388   4.870   4.800  0.3233 -0.2498 -0.2830
  938MOL0     C26506   2.391   4.815   4.654 -0.1340  0.0229 -0.8527
  938MOL0     C26507   2.310   4.888   4.555 -0.0350  0.7090 -0.0195
  938MOL0     C26508   2.283   4.805   4.425  0.5642  0.1202  0.2893
  938MOL0     C26509   2.239   4.922   4.318 -1.0008 -0.8526 -0.8333
  938MOL0     C26510   2.221   4.845   4.188  0.0597 -0.8220  0.2701
  938MOL0     C26511   2.192   4.950   4.083  1.1026  0.4032  0.5794
  938MOL0     N26512   2.312   5.030   4.046 -0.3461 -0.5227  1.0571
  938MOL0     C26513   2.426   4.979   3.981  0.2517  0.4642  1.2423
  938MOL0     C26514   2.498   5.069   3.929  0.0136 -0.6287 -0.0892
  938MOL0     C26515   2.636   5.067   3.848  0.8609  0.0589 -0.1543
  938MOL0     C26516   2.732   4.982   3.927  0.8229 -0.0181 -0.0535
  938MOL0     C26517   2.879   5.023   3.878 -0.3300  0.1122  0.3272
  938MOL0     C26518   2.987   4.937   3.952  0.0714  1.2478  0.7353
  938MOL0     O26519   3.117   4.981   3.914  0.2088  0.3754 -0.3217
  938MOL0     C26520   3.187   4.927   3.801 -0.6402  0.9061 -0.0793
  938MOL0     C26521   3.325   4.937   3.784  0.0647  0.3394  1.1813
  938MOL0     C26522   3.393   4.861   3.690 -0.1166  0.6806 -1.0095
  938MOL0     C26523   3.329   4.778   3.605  0.3967  0.3874  0.4557
  938MOL0     C26524   3.390   4.696   3.490 -0.0013 -0.2155 -0.1754
  938MOL0     O26525   3.523   4.701   3.478  0.3845 -0.7763 -0.5698
  938MOL0     C26526   3.593   4.616   3.398  1.2526  0.5407 -0.0535
  938MOL0     C26527   3.687   4.548   3.473 -0.0930  0.1083 -1.1309
  938MOL0     C26528   3.760   4.443   3.423  0.0418  0.3390 -0.5954
  938MOL0     C26529   3.729   4.393   3.294 -0.8228 -0.4796 -0.2215
  938MOL0     O26530   3.789   4.278   3.255  0.7536  0.1458 -0.0754
  938MOL0     C26531   3.821   4.284   3.113 -0.2424 -0.3130  0.1983
  938MOL0     C26532   3.913   4.159   3.087  0.6038  0.1993 -0.3370
  938MOL0     C26533   3.943   4.123   2.937 -0.2653 -0.5559  0.2111
  938MOL0     C26534   4.027   4.234   2.867 -0.2628 -0.0388  1.3454
  938MOL0     C26535   4.177   4.232   2.895  1.2604 -0.7207 -0.0027
  938MOL0     C26536   4.255   4.340   2.838 -1.2848 -0.4696 -0.4792
  938MOL0     C26537   4.297   4.309   2.691  0.5791 -0.6859 -0.4329
  938MOL0     C26538   4.358   4.440   2.637  0.1748  0.0032 -0.0317
  938MOL0    Cl26539   4.511   4.482   2.727  0.0355 -0.1869  0.3549
  938MOL0     C26540   3.626   4.459   3.217 -0.2152 -0.5169  0.2682
  938MOL0     C26541   3.565   4.573   3.265 -0.4447  0.8540 -1.1247
  938MOL0     O26542   3.326   4.615   3.421  0.2020  0.6295 -0.4182
  938MOL0     C26543   3.186   4.761   3.610 -0.8062  0.0100  0.1525
  938MOL0     C26544   3.117   4.831   3.713 -0.4664  0.6922  0.2353
  938MOL0     N26545   2.438   5.191   3.961  0.3102 -0.0398 -0.2434
  938MOL0     N26546   2.330   5.166   4.029  0.4658  0.2934 -0.2579
  938MOL0     C26547   2.421   4.432   5.010  0.1287  0.4760  0.1889
  938MOL0     C26548   2.456   4.338   5.107  0.8868  0.6188  0.7455
  938MOL0     C26549   2.701   4.090   5.374  0.6985  0.3786  0.2527
  938MOL0     C26550   2.704   4.076   5.514  0.6157  0.4740 -0.1964
  938MOL0     C26551   2.811   4.020   5.590  1.0164 -0.1094  0.0677
  938MOL0     C26552   2.925   3.986   5.524 -1.0818 -0.4656  0.5139
  938MOL0     O26553   3.032   3.955   5.608  0.4252  0.2967  0.6486
  938MOL0     C26554   3.168   3.975   5.562  0.7956 -0.3588  0.2567
  938MOL0     C26555   3.196   4.125   5.557  1.4445 -0.4142  0.5184
  938MOL0     C26556   3.320   4.154   5.468 -0.9793 -1.2562 -0.0007
  938MOL0     C26557   3.366   4.296   5.500  0.2849 -0.5749 -0.7949
  938MOL0     C26558   3.279   4.396   5.458 -0.2836  0.1306 -0.1519
  938MOL0     C26559   3.221   4.490   5.413  0.8202 -0.4412  0.3756
  938MOL0     C26560   2.938   4.007   5.385  0.4812  1.0879  0.2238
  938MOL0     C26561   2.820   4.046   5.315  0.3683 -0.0052  0.0596
  938MOL0     C26562   2.823   4.044   5.162 -0.1563 -0.9179 -0.4868
  938MOL0     H26563   2.640   4.564   5.294  2.2276 -1.0875 -1.8017
  938MOL0     H26564   2.555   4.714   5.156  1.0907  0.0660  2.3088
  938MOL0     H26565   2.491   4.842   4.988 -2.1839 -0.6509  2.1043
  938MOL0     H26566   2.577   4.763   4.854 -1.1586 -0.9592 -3.6832
  938MOL0     H26567   2.429   4.971   4.815  0.9072 -0.7484  1.8026
  938MOL0     H26568   2.284   4.873   4.835  0.0014  1.9304 -1.2229
  938MOL0     H26569   2.367   4.708   4.658 -0.5556  0.1442  0.6467
  938MOL0     H26570   2.496   4.822   4.625  0.1029  0.7643  0.1313
  938MOL0     H26571   2.210   4.921   4.581 -1.0653 -1.3412 -1.0910
  938MOL0     H26572   2.363   4.976   4.518 -0.5532  0.9776 -0.1285
  938MOL0     H26573   2.375   4.754   4.396 -0.2125 -1.0101 -0.2761
  938MOL0     H26574   2.197   4.737   4.425  1.9418 -1.7117  1.8623
  938MOL0     H26575   2.156   4.987   4.349 -0.4804  0.7075 -2.5406
  938MOL0     H26576   2.323   4.991   4.315  1.0105 -2.9989  1.2847
  938MOL0     H26577   2.151   4.762   4.197 -0.6892  0.0098  3.2985
  938MOL0     H26578   2.323   4.808   4.170 -0.1481 -1.2317 -0.0800
  938MOL0     H26579   2.160   4.902   3.990 -0.5273  2.1174  0.1889
  938MOL0     H26580   2.115   5.022   4.113 -0.7062 -1.2354  0.1347
  938MOL0     H26581   2.452   4.874   3.969  0.2391  0.6047 -0.3409
  938MOL0     H26582   2.605   5.023   3.753 -1.0481 -1.7206  1.1807
  938MOL0     H26583   2.675   5.169   3.837 -0.2236  0.5486  0.3686
  938MOL0     H26584   2.730   5.010   4.033  1.4956 -0.4937  0.0945
  938MOL0     H26585   2.718   4.875   3.910  4.0225 -0.7003  0.8547
  938MOL0     H26586   2.904   5.127   3.902  2.1045 -0.0930 -0.9870
  938MOL0     H26587   2.892   5.017   3.770  1.9109  1.8324  0.4121
  938MOL0     H26588   2.977   4.830   3.935  1.2638  0.6325  3.3022
  938MOL0     H26589   2.987   4.965   4.058  0.5207  0.7432  0.8709
  938MOL0     H26590   3.372   5.001   3.859  1.9545 -0.1670  0.4784
  938MOL0     H26591   3.499   4.871   3.675  0.0164  2.6806  0.8686
  938MOL0     H26592   3.706   4.582   3.574 -1.6786 -2.3206  0.1115
  938MOL0     H26593   3.825   4.387   3.490 -0.8031  0.8982  0.7347
  938MOL0     H26594   3.737   4.276   3.043 -0.4390 -0.1998  0.4234
  938MOL0     H26595   3.879   4.374   3.092 -0.4728  0.2722  1.9713
  938MOL0     H26596   4.001   4.167   3.153  0.1827 -0.4608  0.3171
  938MOL0     H26597   3.852   4.073   3.115 -2.4437  1.6094 -2.2101
  938MOL0     H26598   4.010   4.037   2.927  2.7737  1.6527  0.3273
  938MOL0     H26599   3.848   4.115   2.883  0.2258  0.9878 -0.9607
  938MOL0     H26600   3.980   4.331   2.889 -2.5094 -1.0388  1.2324
  938MOL0     H26601   4.016   4.209   2.761 -0.2400  0.5640  1.1980
  938MOL0     H26602   4.206   4.133   2.858 -1.9090 -1.4696 -0.7791
  938MOL0     H26603   4.195   4.229   3.003 -1.5038  0.6064  0.5902
  938MOL0     H26604   4.209   4.438   2.847 -1.1946 -0.3108 -1.5785
  938MOL0     H26605   4.350   4.340   2.893 -1.7761  3.5652  0.6740
  938MOL0     H26606   4.204   4.284   2.639 -0.5236 -1.9678  1.9920
  938MOL0     H26607   4.365   4.225   2.675 -2.1629 -2.6959 -2.3400
  938MOL0     H26608   4.394   4.413   2.538 -0.9191  1.2543 -0.7998
  938MOL0     H26609   4.290   4.525   2.646  1.8301  1.1513  3.3222
  938MOL0     H26610   3.591   4.421   3.121  0.7868  0.4775 -0.5251
  938MOL0     H26611   3.484   4.616   3.208 -3.6795 -1.8717  1.0527
  938MOL0     H26612   3.130   4.690   3.551  0.1599 -2.0891  1.6293
  938MOL0     H26613   3.011   4.815   3.732 -0.4964  1.2855  0.6044
  938MOL0     H26614   2.351   4.403   4.933 -0.0402 -3.6905  1.6718
  938MOL0     H26615   2.435   4.235   5.079 -1.4991  0.9322  1.2262
  938MOL0     H26616   2.614   4.116   5.561  0.9188 -0.1645  0.9588
  938MOL0     H26617   2.807   4.015   5.698  3.0477  0.3049  0.2024
  938MOL0     H26618   3.188   3.933   5.463  0.2726 -2.0028  0.8207
  938MOL0     H26619   3.238   3.939   5.638  1.2197  6.0935  3.5599
  938MOL0     H26620   3.218   4.159   5.659  1.8202 -2.8058  1.3225
  938MOL0     H26621   3.111   4.184   5.525 -1.4229 -3.1292  2.5260
  938MOL0     H26622   3.295   4.155   5.362 -1.0838  2.5107 -0.0750
  938MOL0     H26623   3.401   4.083   5.489 -0.8598 -0.6498  1.8356
  938MOL0     H26624   3.404   4.315   5.601 -1.4819  0.9008 -0.3484
  938MOL0     H26625   3.455   4.302   5.438  0.6483 -1.6675 -0.3999
  938MOL0     H26626   3.177   4.570   5.357  2.2710 -0.3717 -0.7278
  938MOL0     H26627   3.027   3.982   5.328 -1.2477 -3.3536 -0.9342
  938MOL0     H26628   2.784   3.946   5.133 -1.6643 -0.7381  0.8236
  938MOL0     H26629   2.767   4.126   5.118  5.5657  2.8622 -1.8358
  938MOL0     H26630   2.920   4.065   5.115 -0.2970 -0.3298 -0.5186
  939MOL0     O26631   1.448   5.666   3.866 -0.1819  0.4582 -0.0931
  939MOL0     C26632   1.339   5.682   3.801 -0.1636 -0.6279  1.1120
  939MOL0     O26633   1.301   5.806   3.757 -0.0676 -1.2852  1.6317
  939MOL0     C26634   1.388   5.914   3.746  0.3824 -0.6222  0.2957
  939MOL0     C26635   1.356   6.051   3.779  0.0503  0.3265  0.7280
  939MOL0     C26636   1.447   6.154   3.748  0.4288 -0.2756  0.0645
  939MOL0     C26637   1.568   6.126   3.691  0.2518  0.2118 -0.0459
  939MOL0     O26638   1.664   6.227   3.682  0.4088 -0.1378  0.4827
  939MOL0     C26639   1.806   6.196   3.670  0.1171 -0.1723 -0.0216
  939MOL0     C26640   1.880   6.334   3.664 -0.3824 -1.1594 -0.9214
  939MOL0     C26641   2.030   6.300   3.632  0.1187 -0.3307 -0.5520
  939MOL0     C26642   2.067   6.339   3.490  0.3551  0.4631  0.0206
  939MOL0     C26643   2.034   6.223   3.398  0.2516  0.4367 -0.6039
  939MOL0     C26644   2.116   6.096   3.428  0.5271  0.4828 -0.0782
  939MOL0     C26645   2.128   6.003   3.303 -0.4251  0.3617  0.7680
  939MOL0     C26646   2.198   6.074   3.182  0.5193 -0.4128  0.1338
  939MOL0     N26647   2.339   6.048   3.185  0.3559  0.0188 -0.2307
  939MOL0     C26648   2.386   5.923   3.169  0.4464  0.1540  0.2546
  939MOL0     C26649   2.518   5.937   3.168  0.3263 -0.3700 -0.4500
  939MOL0     C26650   2.604   5.815   3.157 -0.0140 -0.5115  0.4040
  939MOL0     C26651   2.607   5.731   3.279  0.8659 -0.3874  0.1138
  939MOL0     C26652   2.694   5.607   3.246  0.9496 -0.2178  0.1212
  939MOL0     C26653   2.675   5.504   3.355 -0.0063 -0.0033  0.0073
  939MOL0     O26654   2.686   5.544   3.500  0.0880 -0.7497 -0.0137
  939MOL0     C26655   2.811   5.561   3.555 -0.2786  0.0466 -0.5616
  939MOL0     C26656   2.935   5.552   3.492  0.1721  0.1577  0.4593
  939MOL0     C26657   3.058   5.544   3.559 -0.2049  0.7233 -0.0633
  939MOL0     C26658   3.048   5.530   3.693 -0.5533 -0.3825  0.1562
  939MOL0     C26659   3.177   5.547   3.773  0.1247  0.7444  0.3772
  939MOL0     O26660   3.286   5.562   3.699  0.2819  0.3836  0.4800
  939MOL0     C26661   3.403   5.568   3.768  0.2333 -0.5945 -0.2300
  939MOL0     C26662   3.456   5.695   3.796  0.9059  0.0752 -0.4268
  939MOL0     C26663   3.575   5.703   3.863  0.3882  0.0164 -0.7173
  939MOL0     C26664   3.641   5.587   3.904 -0.0176  0.7689  0.0125
  939MOL0     O26665   3.758   5.596   3.979  1.0361  0.4185  0.5406
  939MOL0     C26666   3.833   5.484   4.018 -0.6054 -0.6136  0.1138
  939MOL0     C26667   3.946   5.556   4.101 -0.2314  0.2654 -0.2727
  939MOL0     C26668   4.073   5.475   4.091 -0.6351 -0.2668 -0.9890
  939MOL0     C26669   4.178   5.538   4.181  0.2190  0.2467 -0.7087
  939MOL0     C26670   4.296   5.438   4.191  0.5151  0.4451  0.2251
  939MOL0     C26671   4.397   5.484   4.283 -0.7125 -0.8071 -0.8079
  939MOL0     C26672   4.477   5.602   4.216 -0.6014  0.5231 -0.1867
  939MOL0     C26673   4.515   5.713   4.317 -0.1723  0.4565 -0.5031
  939MOL0    Cl26674   4.366   5.791   4.378 -0.0170  0.1541 -0.1218
  939MOL0     C26675   3.586   5.464   3.880  0.6714 -0.5385 -0.1690
  939MOL0     C26676   3.468   5.453   3.811 -0.1724 -0.0196 -0.4155
  939MOL0     O26677   3.177   5.516   3.896  0.1494  0.5285  0.1414
  939MOL0     C26678   2.932   5.525   3.768 -0.2346 -0.0580 -0.8121
  939MOL0     C26679   2.816   5.540   3.693 -0.8039 -0.6902  0.0653
  939MOL0     N26680   2.544   6.065   3.201 -0.6466 -0.0981 -0.0294
  939MOL0     N26681   2.438   6.136   3.213 -0.6969  0.0530  0.1511
  939MOL0     C26682   1.586   5.996   3.641 -0.1285  0.0181  0.0480
  939MOL0     C26683   1.502   5.892   3.668  0.4002  0.3078 -0.6988
  939MOL0     C26684   1.256   5.559   3.787 -0.4698 -0.6650  0.3743
  939MOL0     C26685   1.113   5.575   3.779  0.5843  0.2719 -0.0757
  939MOL0     C26686   1.033   5.460   3.788 -0.2066 -0.9137  1.0410
  939MOL0     C26687   1.085   5.336   3.786  0.1304 -0.2717  0.4233
  939MOL0     O26688   1.007   5.226   3.777  0.2551 -0.5878 -0.2880
  939MOL0     C26689   0.983   5.189   3.913 -0.1905 -0.1163 -0.4842
  939MOL0     C26690   0.912   5.052   3.926  0.7002  0.8228  0.5040
  939MOL0     C26691   0.818   5.015   3.804 -0.1205  0.2718  0.2790
  939MOL0     C26692   0.753   4.871   3.801  1.0628 -0.1261  0.3057
  939MOL0     C26693   0.738   4.825   3.663 -0.3300 -0.0504  0.3219
  939MOL0     C26694   0.695   4.798   3.551  0.0123  0.2318 -0.0406
  939MOL0     C26695   1.222   5.323   3.795 -0.1563  0.2147  0.7946
  939MOL0     C26696   1.310   5.430   3.798 -0.4662 -0.9228  0.8852
  939MOL0     C26697   1.453   5.399   3.786  0.5096 -0.0942  0.1412
  939MOL0     H26698   1.258   6.067   3.823 -1.0284 -1.1108 -0.9890
  939MOL0     H26699   1.414   6.252   3.782  1.1874 -0.2082  0.6397
  939MOL0     H26700   1.848   6.133   3.750  2.0160 -0.3504 -1.0957
  939MOL0     H26701   1.832   6.138   3.581  1.9555 -0.9701  0.9784
  939MOL0     H26702   1.866   6.376   3.764 -1.7831 -0.6150 -1.3202
  939MOL0     H26703   1.843   6.398   3.584  0.2606 -2.0909 -1.9849
  939MOL0     H26704   2.059   6.200   3.666 -1.2007 -0.2942  0.8072
  939MOL0     H26705   2.085   6.357   3.707 -0.8782 -1.5109  1.1478
  939MOL0     H26706   2.020   6.434   3.462 -2.5494 -0.8815 -0.0408
  939MOL0     H26707   2.176   6.352   3.488  0.3253  0.6082 -0.8079
  939MOL0     H26708   1.932   6.192   3.422 -0.0353  1.7398 -0.0217
  939MOL0     H26709   2.027   6.262   3.296  0.1863  1.2001 -0.3156
  939MOL0     H26710   2.220   6.110   3.460  1.2214 -0.2335 -1.8148
  939MOL0     H26711   2.074   6.054   3.519 -2.9503  2.7336 -0.4554
  939MOL0     H26712   2.027   5.984   3.267 -0.2180 -0.9057  0.8227
  939MOL0     H26713   2.179   5.909   3.323 -2.9518 -2.0741 -2.9975
  939MOL0     H26714   2.152   6.032   3.092 -0.3403  0.8272 -0.0432
  939MOL0     H26715   2.181   6.182   3.178  1.2053 -0.2793  0.7541
  939MOL0     H26716   2.327   5.833   3.159  0.6695 -0.0515  0.7918
  939MOL0     H26717   2.569   5.755   3.072 -0.1961 -0.3220  0.3419
  939MOL0     H26718   2.701   5.859   3.135 -1.2078  2.1527  0.0306
  939MOL0     H26719   2.643   5.789   3.365  0.0874 -2.2353  1.7667
  939MOL0     H26720   2.509   5.692   3.308  0.8505  0.5791  1.4941
  939MOL0     H26721   2.798   5.632   3.223  0.8625 -0.6452 -0.7787
  939MOL0     H26722   2.663   5.574   3.146  1.1311  0.9935 -0.3588
  939MOL0     H26723   2.748   5.426   3.335 -2.4729 -2.8769  1.4420
  939MOL0     H26724   2.576   5.459   3.344 -1.2803  1.5005  3.6961
  939MOL0     H26725   2.936   5.569   3.385  0.9081 -1.3099  0.2201
  939MOL0     H26726   3.152   5.574   3.515 -0.0665  1.0485  0.4443
  939MOL0     H26727   3.407   5.787   3.763 -0.0547  0.2637  1.3740
  939MOL0     H26728   3.620   5.796   3.895  0.9399 -0.0523 -1.2951
  939MOL0     H26729   3.772   5.411   4.072 -3.1948  1.2069 -0.1710
  939MOL0     H26730   3.884   5.445   3.929  1.7270  1.9263  0.2255
  939MOL0     H26731   3.954   5.661   4.070  0.6715  0.7145  1.3656
  939MOL0     H26732   3.912   5.564   4.204 -2.1592  0.9808 -0.9086
  939MOL0     H26733   4.044   5.375   4.123 -3.3078  1.0821  1.2362
  939MOL0     H26734   4.122   5.480   3.994  1.0271 -0.8120 -0.2160
  939MOL0     H26735   4.131   5.556   4.278  0.6502  0.1773 -0.4838
  939MOL0     H26736   4.210   5.634   4.139  1.7742 -0.3994 -1.0713
  939MOL0     H26737   4.347   5.432   4.094  0.8253  1.6586  0.3020
  939MOL0     H26738   4.242   5.348   4.221 -2.3225  1.6711 -0.8706
  939MOL0     H26739   4.356   5.522   4.377 -0.0933  1.2360 -1.3085
  939MOL0     H26740   4.472   5.407   4.301  1.1349  1.4610  1.9304
  939MOL0     H26741   4.428   5.648   4.129 -0.1094  1.4538  0.0263
  939MOL0     H26742   4.566   5.557   4.172  0.4570  0.3256  2.0496
  939MOL0     H26743   4.564   5.670   4.405  0.4576  2.0248 -0.0536
  939MOL0     H26744   4.585   5.778   4.263  0.4556  0.0058 -0.2399
  939MOL0     H26745   3.634   5.375   3.920  3.5623  1.1941  0.4670
  939MOL0     H26746   3.432   5.353   3.793 -0.9751  0.6174 -2.7388
  939MOL0     H26747   2.929   5.527   3.876 -2.3299  5.2726 -0.6981
  939MOL0     H26748   2.719   5.543   3.740 -0.8664 -2.1607  0.0914
  939MOL0     H26749   1.677   5.985   3.582 -0.3382  4.6281 -1.5854
  939MOL0     H26750   1.528   5.791   3.636 -3.6477 -1.1805  0.1215
  939MOL0     H26751   1.066   5.673   3.768  1.8133  0.8271 -0.5893
  939MOL0     H26752   0.925   5.470   3.786 -0.4566 -3.0960  0.1696
  939MOL0     H26753   0.934   5.270   3.967  2.1239  0.4660  0.8425
  939MOL0     H26754   1.075   5.192   3.971 -0.3134  3.1869 -0.2967
  939MOL0     H26755   0.852   5.059   4.017  2.0563  2.7664  1.3224
  939MOL0     H26756   0.987   4.972   3.930  0.3825  0.3981 -1.2571
  939MOL0     H26757   0.891   5.020   3.723 -0.4928  0.6008 -0.0456
  939MOL0     H26758   0.747   5.097   3.791  0.1571  0.7584  1.6024
  939MOL0     H26759   0.796   4.798   3.871  0.9223  0.0193  0.5482
  939MOL0     H26760   0.648   4.880   3.831  0.7103  0.4472 -1.0496
  939MOL0     H26761   0.648   4.757   3.464 -1.3368  1.9594 -0.1972
  939MOL0     H26762   1.257   5.221   3.784  0.6034  0.6403 -1.1056
  939MOL0     H26763   1.493   5.482   3.726 -2.1784  4.0179  3.4286
  939MOL0     H26764   1.496   5.398   3.887  1.6911 -0.6538 -0.3579
  939MOL0     H26765   1.468   5.299   3.745 -3.4986 -0.4204 -0.9407
  940MOL0     O26766   3.133   2.880   9.451 -0.3372  0.2383  0.3066
  940MOL0     C26767   3.182   2.838   9.558  0.5018  0.0699 -0.3199
  940MOL0     O26768   3.157   2.708   9.617  0.0922  0.5361 -0.1957
  940MOL0     C26769   3.071   2.615   9.572  0.0451  1.0777  0.6030
  940MOL0     C26770   3.015   2.538   9.673 -0.4510 -0.1307 -0.3419
  940MOL0     C26771   2.921   2.432   9.648 -0.7356  0.4032  0.2463
  940MOL0     C26772   2.893   2.395   9.517  0.6604  0.3216 -0.5109
  940MOL0     O26773   2.799   2.298   9.487 -0.3809 -0.6725 -0.6369
  940MOL0     C26774   2.705   2.340   9.384  0.2501 -0.4033  0.5632
  940MOL0     C26775   2.606   2.221   9.367  0.3006 -0.1784  0.4576
  940MOL0     C26776   2.509   2.259   9.258 -0.2988  0.0440  0.5288
  940MOL0     C26777   2.440   2.129   9.193 -0.2585 -0.5960 -0.0110
  940MOL0     C26778   2.316   2.074   9.277 -0.0144  0.1307 -0.8390
  940MOL0     C26779   2.202   2.167   9.282  0.3803 -0.7784 -0.1662
  940MOL0     C26780   2.066   2.110   9.332  0.6641  0.0767  0.8635
  940MOL0     C26781   2.066   2.103   9.482  0.5268 -0.0401 -0.4709
  940MOL0     N26782   1.987   1.992   9.536 -0.1452 -0.3703 -0.0470
  940MOL0     C26783   2.034   1.897   9.624 -0.5783 -0.0541  0.2990
  940MOL0     C26784   1.924   1.820   9.654  0.2936  0.7553 -0.2154
  940MOL0     C26785   1.929   1.694   9.748 -0.3586  0.8951  0.2878
  940MOL0     C26786   1.793   1.631   9.762  1.1240 -0.2898  1.2469
  940MOL0     C26787   1.777   1.503   9.666 -0.0572 -0.3085 -0.6803
  940MOL0     C26788   1.641   1.436   9.675  0.0214  0.6409  0.2824
  940MOL0     O26789   1.644   1.371   9.803  0.4498  0.1404 -0.3255
  940MOL0     C26790   1.557   1.261   9.815  1.2119 -0.1047  0.8958
  940MOL0     C26791   1.451   1.232   9.728 -0.5829 -0.0062  0.2543
  940MOL0     C26792   1.361   1.121   9.752 -0.0149 -0.6268 -0.2133
  940MOL0     C26793   1.371   1.047   9.874 -0.9191  0.0592  1.1439
  940MOL0     C26794   1.269   0.945   9.908  0.6978 -0.2249 -0.3061
  940MOL0     O26795   1.311   0.840   9.969 -0.0328  0.2658  0.8633
  940MOL0     C26796   1.214   0.738   9.969 -0.2017  0.2721  0.5960
  940MOL0     C26797   1.190   0.658   9.856  0.4904 -0.5274 -0.2270
  940MOL0     C26798   1.094   0.550   9.866  0.0324 -0.3708  0.2384
  940MOL0     C26799   1.025   0.526   9.984  0.1058 -1.3034 -0.2994
  940MOL0     O26800   0.922   0.435   9.999 -0.2317 -0.2216 -0.7936
  940MOL0     C26801   0.928   0.311   9.930 -0.0300  0.3178 -0.2980
  940MOL0     C26802   0.812   0.294   9.838 -0.6096 -0.3723 -0.1572
  940MOL0     C26803   0.803   0.154   9.776  0.7950  0.5182 -0.0502
  940MOL0     C26804   0.920   0.113   9.686 -0.5086  0.6673  0.0931
  940MOL0     C26805   1.028   0.016   9.746 -0.3941 -0.9043  0.8435
  940MOL0     C26806   0.993  -0.140   9.784  0.2963  0.5279 -0.1531
  940MOL0     C26807   0.880  -0.195   9.683 -0.4515  0.2583 -0.6779
  940MOL0     C26808   0.854  -0.341   9.704  0.0305  0.3435 -0.8642
  940MOL0    Cl26809   0.708  -0.410   9.619 -0.0094 -0.4822 -0.3470
  940MOL0     C26810   1.048   0.616  10.088 -0.8744 -0.4296 -0.4091
  940MOL0     C26811   1.138   0.717  10.087 -0.3548  0.0351  0.6010
  940MOL0     O26812   1.153   0.964   9.868  0.2062  0.1499  0.2169
  940MOL0     C26813   1.467   1.086   9.963  0.4161 -0.2865  0.3165
  940MOL0     C26814   1.562   1.181   9.929 -0.7999  1.1213 -0.5121
  940MOL0     N26815   1.816   1.865   9.588 -0.3656 -0.2350 -0.8954
  940MOL0     N26816   1.858   1.977   9.537 -0.5035 -0.0000  0.6347
  940MOL0     C26817   2.947   2.478   9.412  0.1583  0.2350 -0.6873
  940MOL0     C26818   3.031   2.588   9.438  0.8774 -0.2809  0.3358
  940MOL0     C26819   3.269   2.926   9.635  1.3818  0.2221  0.1891
  940MOL0     C26820   3.291   3.051   9.577  0.0328 -0.4534  0.7997
  940MOL0     C26821   3.368   3.143   9.650 -0.0362  0.1269 -0.3993
  940MOL0     C26822   3.405   3.128   9.782 -0.2028 -0.9041 -0.1750
  940MOL0     O26823   3.464   3.237   9.844  0.4207 -0.4230 -0.1809
  940MOL0     C26824   3.593   3.215   9.912  0.1045 -0.4549 -0.1157
  940MOL0     C26825   3.604   3.129  10.041 -0.3715  0.3693 -0.0475
  940MOL0     C26826   3.730   3.133  10.120  0.1869 -0.4821 -0.5357
  940MOL0     C26827   3.852   3.083  10.042 -0.4042 -0.2492  0.5388
  940MOL0     C26828   3.842   2.962   9.961  0.6388 -0.0529  0.0929
  940MOL0     C26829   3.825   2.861   9.905  0.2155  0.6970  0.0629
  940MOL0     C26830   3.376   3.013   9.843  0.4697  0.3815 -0.2088
  940MOL0     C26831   3.317   2.907   9.769 -0.2538  0.4945 -0.0471
  940MOL0     C26832   3.314   2.775   9.844  0.4075  0.1123  0.2144
  940MOL0     H26833   3.043   2.549   9.777 -6.7627 -1.9642  2.0263
  940MOL0     H26834   2.859   2.372   9.714 -1.1372  1.3441  0.7438
  940MOL0     H26835   2.646   2.428   9.409 -1.1455 -1.7847  2.5065
  940MOL0     H26836   2.769   2.346   9.296 -0.3855  0.4692  0.1474
  940MOL0     H26837   2.555   2.202   9.462 -0.4273  0.2477  0.1571
  940MOL0     H26838   2.657   2.133   9.326 -1.7081 -0.7455 -0.9753
  940MOL0     H26839   2.563   2.317   9.183 -1.4748  1.1398  0.4968
  940MOL0     H26840   2.446   2.325   9.319  0.1580  1.1258 -0.1431
  940MOL0     H26841   2.421   2.161   9.090  0.8290 -1.5232 -0.5243
  940MOL0     H26842   2.518   2.053   9.196 -0.2425 -0.5476  1.2955
  940MOL0     H26843   2.289   1.988   9.216  1.1566 -0.5438 -0.4473
  940MOL0     H26844   2.343   2.033   9.375  0.3533 -0.4920 -1.2001
  940MOL0     H26845   2.239   2.249   9.344  1.1579  0.1829 -1.8402
  940MOL0     H26846   2.182   2.201   9.180  5.2833 -1.1098 -1.4887
  940MOL0     H26847   2.039   2.011   9.292  0.1850  0.1864  0.9048
  940MOL0     H26848   1.987   2.184   9.316 -2.1938 -2.0600  3.8610
  940MOL0     H26849   2.164   2.079   9.525 -0.7335 -3.2184  0.9301
  940MOL0     H26850   2.035   2.204   9.511 -0.9188 -0.4810 -0.4383
  940MOL0     H26851   2.137   1.891   9.658 -0.5304 -0.6712  0.0460
  940MOL0     H26852   1.993   1.618   9.703  1.8890  3.1235 -0.5365
  940MOL0     H26853   1.968   1.722   9.847 -1.3707  1.7123  0.4782
  940MOL0     H26854   1.788   1.588   9.863  1.5380 -5.2200 -0.5703
  940MOL0     H26855   1.715   1.708   9.754  1.3188  0.2911  3.9229
  940MOL0     H26856   1.847   1.422   9.687 -0.9876 -0.6291  1.4157
  940MOL0     H26857   1.803   1.535   9.564  1.9271  0.2927 -0.0332
  940MOL0     H26858   1.627   1.368   9.591 -2.5717  2.6868 -1.0841
  940MOL0     H26859   1.553   1.501   9.683 -1.3555 -1.4036  3.6460
  940MOL0     H26860   1.426   1.306   9.653 -0.0960 -0.5604 -0.4642
  940MOL0     H26861   1.275   1.098   9.691 -1.1414 -3.5559  2.1958
  940MOL0     H26862   1.251   0.675   9.768  1.3474 -0.3013  0.3933
  940MOL0     H26863   1.069   0.494   9.776  1.3554 -0.4031 -0.1302
  940MOL0     H26864   1.019   0.299   9.870  0.2676  0.6109  0.0886
  940MOL0     H26865   0.924   0.228  10.001  3.1809  0.4081  0.1309
  940MOL0     H26866   0.715   0.319   9.881 -1.3907 -0.6898 -1.6746
  940MOL0     H26867   0.823   0.368   9.758  0.5456  4.8849  4.2830
  940MOL0     H26868   0.773   0.081   9.851 -3.8366  2.2919  0.1371
  940MOL0     H26869   0.723   0.143   9.702  0.3930 -2.7172  0.7101
  940MOL0     H26870   0.980   0.203   9.670 -1.8070  1.8232  1.4410
  940MOL0     H26871   0.891   0.071   9.589  0.8281  0.5722 -0.2891
  940MOL0     H26872   1.068   0.059   9.839  0.7801 -1.1208  0.4524
  940MOL0     H26873   1.117   0.024   9.683  1.7706 -1.4207  3.6295
  940MOL0     H26874   1.073  -0.213   9.801 -1.3593 -1.4180 -0.3982
  940MOL0     H26875   0.945  -0.130   9.882  1.1442 -0.7335  0.4069
  940MOL0     H26876   0.915  -0.191   9.580 -1.6145  1.1127 -1.0635
  940MOL0     H26877   0.791  -0.133   9.696  0.2365  0.7380  2.8372
  940MOL0     H26878   0.941  -0.403   9.682 -0.5802 -1.1167  0.6259
  940MOL0     H26879   0.832  -0.354   9.810  1.2934  1.8763 -0.3879
  940MOL0     H26880   0.979   0.600  10.170 -2.1376  0.8382 -1.1802
  940MOL0     H26881   1.146   0.784  10.172  1.3119 -0.5254  0.9125
  940MOL0     H26882   1.456   1.051  10.065 -0.5943  2.6363  1.2917
  940MOL0     H26883   1.637   1.204  10.003  0.4709 -0.3612 -1.2805
  940MOL0     H26884   2.915   2.467   9.309  0.5038 -3.4422 -0.5056
  940MOL0     H26885   3.070   2.649   9.358 -1.5179  0.4000 -0.3715
  940MOL0     H26886   3.273   3.067   9.472 -0.5804 -1.5441  0.7294
  940MOL0     H26887   3.411   3.229   9.599 -0.6024  0.1505 -0.8438
  940MOL0     H26888   3.625   3.317   9.934 -0.6165 -0.7224  2.5230
  940MOL0     H26889   3.663   3.174   9.838 -0.7984 -0.3010 -1.0742
  940MOL0     H26890   3.586   3.021  10.031  2.4081 -0.1050 -0.8518
  940MOL0     H26891   3.519   3.176  10.091 -0.3746  1.9205 -1.4318
  940MOL0     H26892   3.714   3.082  10.216 -0.8288  1.5194  0.4060
  940MOL0     H26893   3.751   3.233  10.158 -1.7637 -0.6184  1.0378
  940MOL0     H26894   3.883   3.168   9.980 -2.9054 -0.6634 -1.4287
  940MOL0     H26895   3.925   3.060  10.120  0.1065  0.1598  0.1879
  940MOL0     H26896   3.810   2.763   9.864 -3.2944  1.0160  0.3022
  940MOL0     H26897   3.395   3.007   9.950  0.0593  0.0965 -0.1462
  940MOL0     H26898   3.333   2.688   9.781 -2.0859 -1.2535  1.2216
  940MOL0     H26899   3.388   2.779   9.925  0.9092  0.8673 -0.2705
  940MOL0     H26900   3.220   2.744   9.891  2.9271 -3.1808  3.7552
  941MOL0     O26901   7.661   9.422  11.466 -0.5502  0.1244 -0.1618
  941MOL0     C26902   7.557   9.461  11.520 -0.8038 -0.1499  0.8609
  941MOL0     O26903   7.511   9.426  11.642  0.4161 -0.5782  0.0887
  941MOL0     C26904   7.588   9.371  11.738 -0.0657  0.2453 -0.3189
  941MOL0     C26905   7.530   9.266  11.802 -0.1539  0.2916  0.2493
  941MOL0     C26906   7.593   9.197  11.904 -0.0502 -0.6509 -0.2105
  941MOL0     C26907   7.727   9.237  11.943  0.5117 -0.7658  0.0934
  941MOL0     O26908   7.798   9.177  12.042  0.5679  0.0471 -0.4040
  941MOL0     C26909   7.746   9.055  12.096 -0.9853  0.6998  0.2239
  941MOL0     C26910   7.831   8.973  12.201 -0.0563 -0.6424  0.1455
  941MOL0     C26911   7.766   8.843  12.244 -0.2820  0.2719  0.2504
  941MOL0     C26912   7.875   8.747  12.299  0.5253  0.2553 -0.0131
  941MOL0     C26913   7.841   8.702  12.437  0.3404 -0.0710  0.5382
  941MOL0     C26914   7.947   8.614  12.489 -0.0442  0.6304  0.1758
  941MOL0     C26915   7.895   8.545  12.618  0.0858 -0.4995 -0.6980
  941MOL0     C26916   7.975   8.418  12.660 -0.4737 -0.1115 -0.1474
  941MOL0     N26917   7.953   8.315  12.560  0.0828  0.3332  0.4596
  941MOL0     C26918   7.840   8.248  12.504 -0.1729 -0.6530  0.4214
  941MOL0     C26919   7.885   8.157  12.418 -0.0879 -0.0533 -0.5244
  941MOL0     C26920   7.806   8.044  12.349  0.1814  0.6339 -0.1552
  941MOL0     C26921   7.842   8.026  12.197 -0.0038 -0.0175 -0.2663
  941MOL0     C26922   7.819   8.163  12.125 -0.2797 -0.7697  0.3032
  941MOL0     C26923   7.809   8.156  11.975 -0.2403  0.5055  0.3466
  941MOL0     O26924   7.731   8.042  11.939  0.8195 -0.2632 -1.0353
  941MOL0     C26925   7.760   7.953  11.833  0.2140 -0.4788 -0.2111
  941MOL0     C26926   7.881   7.947  11.769  0.0611 -0.0840  0.3857
  941MOL0     C26927   7.884   7.873  11.644  0.4151  0.4570  0.1615
  941MOL0     C26928   7.779   7.789  11.591 -0.2258 -0.4745 -1.3062
  941MOL0     C26929   7.801   7.713  11.466 -0.8053 -0.7037  0.1567
  941MOL0     O26930   7.924   7.673  11.428 -0.2538  0.2656  0.5862
  941MOL0     C26931   7.961   7.608  11.313  0.8147 -0.8178 -0.7757
  941MOL0     C26932   8.053   7.508  11.326  0.5335  0.6438  0.3796
  941MOL0     C26933   8.106   7.448  11.213 -0.8777 -0.0574  0.3973
  941MOL0     C26934   8.056   7.484  11.083  0.0818 -0.3011 -0.3172
  941MOL0     O26935   8.108   7.432  10.964  0.5844 -0.3984 -0.0579
  941MOL0     C26936   8.202   7.319  10.960 -0.5748  0.0993  0.3899
  941MOL0     C26937   8.231   7.295  10.811 -0.6894  0.8005 -0.5580
  941MOL0     C26938   8.347   7.189  10.797  0.1868  0.0289 -0.4125
  941MOL0     C26939   8.402   7.203  10.652  0.1730  0.2700 -1.2319
  941MOL0     C26940   8.474   7.075  10.614 -0.9801 -0.2320  0.1035
  941MOL0     C26941   8.628   7.080  10.646  0.3891 -0.7813 -0.2016
  941MOL0     C26942   8.684   6.943  10.605  0.1196  0.5091  1.3232
  941MOL0     C26943   8.810   6.920  10.688 -0.4151 -0.1512 -0.0581
  941MOL0    Cl26944   8.779   6.884  10.862  0.3179 -0.2972 -0.2143
  941MOL0     C26945   7.947   7.572  11.084 -0.2212 -0.5230 -0.3898
  941MOL0     C26946   7.896   7.642  11.194 -1.2021 -0.6106  0.4290
  941MOL0     O26947   7.701   7.696  11.402 -0.6508 -0.7479 -0.1012
  941MOL0     C26948   7.664   7.790  11.675 -0.1241 -0.1944  0.1392
  941MOL0     C26949   7.655   7.876  11.786 -0.5099  0.0318 -0.2074
  941MOL0     N26950   8.026   8.166  12.414 -0.1747  0.2114  0.2431
  941MOL0     N26951   8.063   8.265  12.497 -0.1608 -1.3865  0.4276
  941MOL0     C26952   7.786   9.337  11.867 -0.5198 -0.4314 -0.3243
  941MOL0     C26953   7.718   9.409  11.766 -0.4934  0.8379 -0.5533
  941MOL0     C26954   7.479   9.548  11.436 -0.2513 -0.6615 -0.2466
  941MOL0     C26955   7.411   9.653  11.495 -0.3006 -0.5281 -0.3560
  941MOL0     C26956   7.334   9.751  11.427  0.2079 -0.3462  0.5092
  941MOL0     C26957   7.319   9.743  11.291  0.5871  0.2664  0.3132
  941MOL0     O26958   7.251   9.832  11.217 -0.2372  0.5580 -0.2807
  941MOL0     C26959   7.275   9.968  11.237  1.0759 -0.0994 -0.0652
  941MOL0     C26960   7.145  10.036  11.191 -0.0960  0.1257 -0.5218
  941MOL0     C26961   7.147  10.185  11.201  0.2637  0.1279 -0.7915
  941MOL0     C26962   7.080  10.262  11.090 -1.1529 -0.2795  0.1477
  941MOL0     C26963   7.154  10.235  10.966  0.9063 -0.0037  0.5585
  941MOL0     C26964   7.225  10.209  10.871  0.1783  0.6888 -0.0657
  941MOL0     C26965   7.394   9.647  11.224  0.0534  0.5226  0.1061
  941MOL0     C26966   7.471   9.550  11.290 -0.2262 -0.7987 -0.1637
  941MOL0     C26967   7.516   9.435  11.200  0.4301 -0.7300 -1.1059
  941MOL0     H26968   7.432   9.228  11.774  0.8587 -0.8070 -2.1096
  941MOL0     H26969   7.534   9.128  11.963 -1.9215  1.7044  0.8200
  941MOL0     H26970   7.662   9.081  12.161  3.0718  0.0846  6.5559
  941MOL0     H26971   7.734   9.003  12.000 -0.8586  0.6621  0.2292
  941MOL0     H26972   7.831   9.037  12.290  0.6329  1.9157 -1.5701
  941MOL0     H26973   7.931   8.959  12.158  1.2348  0.5282  2.5374
  941MOL0     H26974   7.717   8.786  12.165  1.8569 -0.8056 -0.3791
  941MOL0     H26975   7.691   8.868  12.319 -1.5746 -2.1451 -0.1358
  941MOL0     H26976   7.894   8.662  12.234 -3.7213 -2.3516  1.7317
  941MOL0     H26977   7.963   8.812  12.299  0.3966  0.4291 -0.3196
  941MOL0     H26978   7.844   8.800  12.484  1.6167  0.3038 -0.2821
  941MOL0     H26979   7.734   8.677  12.438  0.9084 -2.8744 -0.0218
  941MOL0     H26980   7.972   8.552  12.403 -0.4602  3.2718 -1.9869
  941MOL0     H26981   8.037   8.668  12.518  1.5557 -0.5654 -2.2606
  941MOL0     H26982   7.792   8.513  12.599 -0.6838  2.0397 -1.2077
  941MOL0     H26983   7.882   8.622  12.695  1.4058  1.0353 -1.9400
  941MOL0     H26984   8.081   8.445  12.654 -0.5469 -0.1753 -2.5894
  941MOL0     H26985   7.957   8.384  12.763 -1.2641  2.7214  0.7698
  941MOL0     H26986   7.739   8.264  12.540  0.6281  0.3902  2.3306
  941MOL0     H26987   7.823   7.945  12.391  0.2080  0.9365  0.5614
  941MOL0     H26988   7.700   8.071  12.355  0.3472  0.9507  2.6067
  941MOL0     H26989   7.945   7.990  12.196 -0.4842 -1.8631  3.0311
  941MOL0     H26990   7.766   7.959  12.157  1.5150 -0.4976 -2.5300
  941MOL0     H26991   7.889   8.241  12.158 -2.7163  1.1784  1.1565
  941MOL0     H26992   7.726   8.211  12.157  0.4219 -0.2872  1.7362
  941MOL0     H26993   7.911   8.156  11.934 -0.0788  2.1425  0.6807
  941MOL0     H26994   7.762   8.248  11.940  2.2449  2.1891  1.1334
  941MOL0     H26995   7.964   8.000  11.816  1.3888 -2.0827  0.4181
  941MOL0     H26996   7.974   7.862  11.584 -0.4880  3.7054 -2.0772
  941MOL0     H26997   8.115   7.490  11.413  2.6380 -2.3094 -1.5428
  941MOL0     H26998   8.185   7.379  11.239  1.4617  0.6593 -3.9014
  941MOL0     H26999   8.300   7.330  11.007 -1.0023  0.1022  1.3200
  941MOL0     H27000   8.160   7.229  11.005 -1.3060  0.8342  1.2177
  941MOL0     H27001   8.135   7.263  10.771 -1.1156  0.4875  0.6643
  941MOL0     H27002   8.268   7.387  10.763  0.2345 -0.7406 -2.9529
  941MOL0     H27003   8.432   7.213  10.861 -0.1202 -0.0160  0.0116
  941MOL0     H27004   8.324   7.085  10.820  0.4731  0.1855  0.6417
  941MOL0     H27005   8.462   7.293  10.637 -0.0557  0.9176  1.2346
  941MOL0     H27006   8.315   7.218  10.586 -0.7369 -1.0828 -0.3811
  941MOL0     H27007   8.467   7.053  10.507 -0.8693  1.2241 -0.2315
  941MOL0     H27008   8.435   6.985  10.661 -1.3699 -1.2726 -2.0869
  941MOL0     H27009   8.682   7.152  10.584  0.7370 -1.5562 -0.8183
  941MOL0     H27010   8.658   7.095  10.750 -1.4700 -1.7839  0.5285
  941MOL0     H27011   8.705   6.953  10.498 -6.7577 -0.2096 -0.5672
  941MOL0     H27012   8.611   6.865  10.628 -2.3370  1.4473 -2.2750
  941MOL0     H27013   8.871   6.840  10.645  0.6100 -1.5528  3.5851
  941MOL0     H27014   8.872   7.009  10.684  3.1991 -2.4846 -0.8466
  941MOL0     H27015   7.905   7.597  10.987 -2.3914 -2.0177  0.0802
  941MOL0     H27016   7.811   7.703  11.167 -0.6946 -0.6397 -1.3786
  941MOL0     H27017   7.577   7.734  11.643  1.4710 -1.5572 -2.0451
  941MOL0     H27018   7.555   7.896  11.825 -1.1654 -1.8821 -0.7644
  941MOL0     H27019   7.883   9.369  11.904 -0.9074  0.4323 -0.0313
  941MOL0     H27020   7.757   9.485  11.699 -0.2458  0.6963 -0.5746
  941MOL0     H27021   7.409   9.656  11.604 -1.1384 -0.4056 -0.3654
  941MOL0     H27022   7.272   9.825  11.477  0.7318  0.1039  0.4950
  941MOL0     H27023   7.357  10.003  11.173  2.1384  2.0374  2.2948
  941MOL0     H27024   7.307   9.989  11.339  3.2991  0.5843 -0.8425
  941MOL0     H27025   7.072  10.000  11.264 -0.2230  1.4716  0.0544
  941MOL0     H27026   7.142   9.998  11.089  0.7729 -1.2158 -0.0754
  941MOL0     H27027   7.249  10.221  11.189  0.1834  1.0860  1.1353
  941MOL0     H27028   7.108  10.211  11.299 -0.8816  0.3945 -1.2929
  941MOL0     H27029   6.981  10.220  11.072 -1.3392  0.9404 -2.0286
  941MOL0     H27030   7.069  10.369  11.108  0.5250  0.0272 -0.4227
  941MOL0     H27031   7.295  10.210  10.790 -1.0544  2.0276 -1.1775
  941MOL0     H27032   7.380   9.643  11.116 -1.5407  0.6429  0.2771
  941MOL0     H27033   7.519   9.361  11.280 -0.1004  2.0939  1.7799
  941MOL0     H27034   7.453   9.407  11.116 -0.2146  2.4753 -1.8182
  941MOL0     H27035   7.613   9.473  11.167 -0.3048  4.7384  1.7045
  942MOL0     O27036   5.559   7.310   0.417 -0.4728  0.1946 -0.3626
  942MOL0     C27037   5.457   7.257   0.375 -0.3922 -0.4070 -0.2787
  942MOL0     O27038   5.415   7.273   0.243  0.3092  0.2877 -0.2749
  942MOL0     C27039   5.507   7.316   0.155  0.0732 -0.4424  0.4747
  942MOL0     C27040   5.615   7.232   0.127  0.1358  0.0068  0.7442
  942MOL0     C27041   5.710   7.286   0.035 -0.9239  0.4238 -0.0975
  942MOL0     C27042   5.695   7.412  -0.024 -0.4848 -0.1071  0.8594
  942MOL0     O27043   5.787   7.449  -0.119 -0.8589 -0.3977  0.0088
  942MOL0     C27044   5.802   7.581  -0.165 -0.8984  0.1928  0.2682
  942MOL0     C27045   5.957   7.594  -0.192 -0.0295 -0.5224  0.2572
  942MOL0     C27046   6.049   7.561  -0.068  0.5331 -0.0645 -0.1306
  942MOL0     C27047   6.185   7.625  -0.080 -0.5368 -0.3667  0.0571
  942MOL0     C27048   6.275   7.565  -0.184 -0.3033 -0.0027 -0.2349
  942MOL0     C27049   6.312   7.423  -0.151 -0.6315  1.1685 -0.6573
  942MOL0     C27050   6.425   7.355  -0.229  0.3992  0.4319 -0.3338
  942MOL0     C27051   6.564   7.423  -0.216 -0.4347  0.5423  0.6199
  942MOL0     N27052   6.650   7.395  -0.335  0.1419 -0.5455  0.2653
  942MOL0     C27053   6.736   7.471  -0.408  0.3138  0.4862  0.6029
  942MOL0     C27054   6.787   7.380  -0.496  0.0454 -1.2038 -0.2078
  942MOL0     C27055   6.902   7.409  -0.604 -0.4308 -0.4968 -0.4044
  942MOL0     C27056   6.846   7.399  -0.749  0.1941 -0.3661  0.4163
  942MOL0     C27057   6.772   7.527  -0.798  0.1516  0.1504  0.3733
  942MOL0     C27058   6.694   7.508  -0.921  0.4923  0.0746 -0.6024
  942MOL0     O27059   6.588   7.409  -0.914  0.0548 -0.5141 -0.5498
  942MOL0     C27060   6.496   7.417  -0.809 -0.0357 -0.2460 -0.4334
  942MOL0     C27061   6.486   7.307  -0.714 -0.2913  0.0533 -0.4270
  942MOL0     C27062   6.377   7.315  -0.623 -0.0280  0.6015 -0.3622
  942MOL0     C27063   6.275   7.412  -0.629  0.0680  0.2205  0.2894
  942MOL0     C27064   6.155   7.401  -0.554  1.6118 -0.9824 -0.1787
  942MOL0     O27065   6.130   7.286  -0.481 -0.3930  0.4420 -0.4804
  942MOL0     C27066   6.007   7.249  -0.451 -0.0795  1.9255 -0.3068
  942MOL0     C27067   5.982   7.178  -0.329 -0.2175 -0.0066  0.1632
  942MOL0     C27068   5.853   7.120  -0.307 -0.1817 -0.5851 -0.5856
  942MOL0     C27069   5.750   7.120  -0.400 -0.5260 -1.2964  0.5194
  942MOL0     O27070   5.622   7.087  -0.379 -0.2837 -0.1469  0.6632
  942MOL0     C27071   5.584   7.030  -0.256  0.7338 -0.8091  0.1107
  942MOL0     C27072   5.433   6.999  -0.277 -0.0145 -0.4140  0.1135
  942MOL0     C27073   5.398   6.865  -0.342 -0.9764 -0.3850  0.3924
  942MOL0     C27074   5.434   6.751  -0.241  1.3834 -0.2345 -0.5265
  942MOL0     C27075   5.357   6.627  -0.290  0.3624 -0.6245 -0.2972
  942MOL0     C27076   5.392   6.504  -0.208  0.2242  0.1906  0.1760
  942MOL0     C27077   5.319   6.374  -0.250  0.1297  0.5365 -0.5086
  942MOL0     C27078   5.367   6.249  -0.173  0.2781  0.4481 -0.0850
  942MOL0    Cl27079   5.503   6.191  -0.251 -0.2831  0.6191  0.5168
  942MOL0     C27080   5.773   7.192  -0.517 -0.2566  0.4095  0.2864
  942MOL0     C27081   5.898   7.258  -0.542 -0.9926  0.1739 -0.3633
  942MOL0     O27082   6.078   7.502  -0.557 -0.3580  0.1806 -0.7662
  942MOL0     C27083   6.298   7.523  -0.720 -0.4420 -0.1996 -0.1306
  942MOL0     C27084   6.409   7.528  -0.805 -0.1043 -0.5306 -0.3937
  942MOL0     N27085   6.733   7.258  -0.473 -0.3599  0.8977  0.3995
  942MOL0     N27086   6.639   7.271  -0.390  0.3974  0.4067 -0.9544
  942MOL0     C27087   5.576   7.492   0.008  0.0190  0.0016 -0.2633
  942MOL0     C27088   5.483   7.443   0.097 -0.0531 -0.6572 -0.0403
  942MOL0     C27089   5.381   7.161   0.471  1.2668 -0.0931 -0.8431
  942MOL0     C27090   5.272   7.083   0.410 -0.5200  0.2293  0.1180
  942MOL0     C27091   5.190   6.997   0.491 -0.2147  0.4804  0.2722
  942MOL0     C27092   5.218   6.976   0.621  0.2319  0.2606 -0.3963
  942MOL0     O27093   5.150   6.879   0.688 -0.2467 -0.1144 -0.2070
  942MOL0     C27094   5.162   6.869   0.830 -0.8391  0.3703  0.4839
  942MOL0     C27095   5.102   6.735   0.882  0.0792  0.3920 -0.1885
  942MOL0     C27096   5.134   6.609   0.791  0.6130  0.6616  0.7897
  942MOL0     C27097   5.056   6.476   0.827 -0.2706 -0.4679 -0.4108
  942MOL0     C27098   5.080   6.435   0.966  0.0412  0.4829 -0.7686
  942MOL0     C27099   5.084   6.402   1.083  0.1205 -0.3069 -0.2051
  942MOL0     C27100   5.315   7.062   0.685  0.4443 -0.9963  0.0746
  942MOL0     C27101   5.391   7.151   0.608 -0.4140 -0.1477  0.1121
  942MOL0     C27102   5.486   7.236   0.698  0.6177 -0.1518  0.1119
  942MOL0     H27103   5.633   7.134   0.169  0.3548 -2.1065 -3.7166
  942MOL0     H27104   5.793   7.225   0.000 -2.8055 -1.1600 -2.1394
  942MOL0     H27105   5.744   7.610  -0.253 -2.0240  0.5793  1.1173
  942MOL0     H27106   5.774   7.657  -0.092  1.1708  0.3653  0.9525
  942MOL0     H27107   5.971   7.696  -0.232 -3.2238 -0.2699 -0.4747
  942MOL0     H27108   5.986   7.524  -0.270  1.5908 -0.7675  1.0387
  942MOL0     H27109   6.048   7.454  -0.046  0.8892 -0.1458 -0.4942
  942MOL0     H27110   6.000   7.612   0.016  2.2112 -1.1723  1.6031
  942MOL0     H27111   6.171   7.729  -0.111  1.5752 -0.4391 -1.3504
  942MOL0     H27112   6.241   7.626   0.014  1.0182  2.0173 -0.8198
  942MOL0     H27113   6.226   7.577  -0.281 -1.9545  4.0321  0.8921
  942MOL0     H27114   6.360   7.633  -0.181 -0.0409 -0.3600  0.5132
  942MOL0     H27115   6.337   7.439  -0.046 -0.7559 -0.8458 -0.2816
  942MOL0     H27116   6.218   7.372  -0.175 -0.1518  1.0103 -2.3428
  942MOL0     H27117   6.394   7.379  -0.332  0.2208  2.4151  0.1357
  942MOL0     H27118   6.422   7.249  -0.203 -4.1285  1.1377  3.3204
  942MOL0     H27119   6.557   7.532  -0.210  2.2599  0.8539 -0.5306
  942MOL0     H27120   6.616   7.388  -0.125 -0.7955 -3.1271 -0.4211
  942MOL0     H27121   6.762   7.575  -0.391 -0.0949  0.4422  1.5242
  942MOL0     H27122   6.960   7.501  -0.598  1.3678 -1.4106 -2.4502
  942MOL0     H27123   6.973   7.326  -0.596  0.9111  0.7658  1.5911
  942MOL0     H27124   6.925   7.387  -0.824 -2.0046 -0.9735 -1.9674
  942MOL0     H27125   6.780   7.313  -0.762 -1.0122  0.5608  0.2202
  942MOL0     H27126   6.849   7.600  -0.826  3.6419 -1.2956  4.9427
  942MOL0     H27127   6.697   7.577  -0.735 -0.0483  1.6881 -1.0004
  942MOL0     H27128   6.761   7.463  -0.995 -0.1104 -1.0420 -0.4944
  942MOL0     H27129   6.656   7.601  -0.963  2.4829 -0.1736 -3.1968
  942MOL0     H27130   6.558   7.226  -0.724 -1.4994 -0.8651 -2.2206
  942MOL0     H27131   6.372   7.220  -0.571  3.7603 -0.1275 -1.0461
  942MOL0     H27132   6.058   7.181  -0.252  0.9062 -0.2947 -0.9106
  942MOL0     H27133   5.843   7.066  -0.213 -0.2568  1.8871  0.9301
  942MOL0     H27134   5.638   6.937  -0.236 -0.8122 -1.8628 -0.3463
  942MOL0     H27135   5.598   7.093  -0.168 -1.2607 -2.1560  1.4964
  942MOL0     H27136   5.384   7.007  -0.179  0.4220 -0.0653  0.3011
  942MOL0     H27137   5.381   7.080  -0.329 -0.9196  0.0440  1.6574
  942MOL0     H27138   5.293   6.882  -0.369 -0.5908  3.0974  0.7103
  942MOL0     H27139   5.459   6.842  -0.430 -0.4508 -0.6651  0.8240
  942MOL0     H27140   5.384   6.770  -0.145 -1.7243  0.4130 -2.1513
  942MOL0     H27141   5.541   6.738  -0.227  1.6098  2.5420  0.9743
  942MOL0     H27142   5.388   6.610  -0.393 -0.8802 -0.6971 -0.6779
  942MOL0     H27143   5.248   6.634  -0.293  0.2645 -0.8293  1.5302
  942MOL0     H27144   5.500   6.485  -0.212  0.5221  1.7130  0.2312
  942MOL0     H27145   5.374   6.519  -0.101 -2.4825  0.2844 -0.2284
  942MOL0     H27146   5.344   6.362  -0.356  1.7811 -1.5836  0.0531
  942MOL0     H27147   5.212   6.393  -0.236  0.4431  2.1984 -0.1517
  942MOL0     H27148   5.384   6.284  -0.070 -0.7238  3.2798 -0.8131
  942MOL0     H27149   5.290   6.172  -0.178 -0.0660  0.8360 -0.8247
  942MOL0     H27150   5.692   7.211  -0.586 -2.1793 -0.4031  2.2259
  942MOL0     H27151   5.913   7.305  -0.638  0.3933 -4.2638 -2.5996
  942MOL0     H27152   6.223   7.602  -0.719 -2.8930 -2.3823 -0.6769
  942MOL0     H27153   6.426   7.614  -0.869  1.3606  1.4609  2.4689
  942MOL0     H27154   5.563   7.585  -0.045  1.6254 -0.1928 -1.0898
  942MOL0     H27155   5.392   7.502   0.102  0.3202 -0.1470  1.9206
  942MOL0     H27156   5.249   7.090   0.305  2.2884  2.3656 -0.4838
  942MOL0     H27157   5.107   6.940   0.450  0.3340 -1.9298  2.2532
  942MOL0     H27158   5.106   6.957   0.864 -1.5886  0.3238 -0.5785
  942MOL0     H27159   5.267   6.870   0.861  0.4686 -3.1561 -3.0169
  942MOL0     H27160   4.993   6.736   0.891  0.1275 -1.2897  1.1903
  942MOL0     H27161   5.133   6.715   0.985 -2.5324 -4.2831 -0.0138
  942MOL0     H27162   5.240   6.586   0.806  0.2634 -1.8565 -0.1159
  942MOL0     H27163   5.111   6.628   0.686 -3.0571 -1.7838  0.9706
  942MOL0     H27164   4.949   6.492   0.810 -0.0429  0.6031 -0.9617
  942MOL0     H27165   5.091   6.396   0.763  2.0917 -0.1807  0.4103
  942MOL0     H27166   5.076   6.387   1.189 -0.3813 -2.5449 -0.5119
  942MOL0     H27167   5.322   7.060   0.794  1.9218  2.4874  0.1778
  942MOL0     H27168   5.478   7.205   0.802 -1.8225 -1.6668 -0.4360
  942MOL0     H27169   5.591   7.221   0.674  1.3752 -1.2279  3.5989
  942MOL0     H27170   5.456   7.341   0.686  2.9597  0.6223  0.5986
  943MOL0     O27171   9.881   1.836   1.057  0.5778 -0.1877  0.7943
  943MOL0     C27172   9.756   1.827   1.060 -0.1107 -0.4616 -0.1255
  943MOL0     O27173   9.681   1.726   1.001 -0.7242  0.0085  0.0069
  943MOL0     C27174   9.738   1.619   0.934 -0.1375  0.9108  0.3856
  943MOL0     C27175   9.655   1.557   0.835 -0.5718  0.5289 -0.5577
  943MOL0     C27176   9.700   1.446   0.765 -0.5061  0.9570 -0.0151
  943MOL0     C27177   9.826   1.385   0.794 -0.1095  0.5499 -0.7183
  943MOL0     O27178   9.862   1.279   0.721  0.0394  0.0076 -0.7467
  943MOL0     C27179   9.840   1.155   0.784 -0.8264 -0.6145  0.5541
  943MOL0     C27180   9.953   1.060   0.742 -0.1967  0.5649 -1.0857
  943MOL0     C27181  10.095   1.118   0.770 -0.1478  0.5748 -0.3921
  943MOL0     C27182  10.199   1.031   0.701  0.0139  0.5165 -0.5747
  943MOL0     C27183  10.329   1.050   0.778 -0.4283  0.3266  0.1717
  943MOL0     C27184  10.456   1.018   0.695  0.2266  1.0790  0.6501
  943MOL0     C27185  10.574   1.052   0.778  0.4334  0.0455 -0.0328
  943MOL0     C27186  10.700   1.007   0.708 -0.0570  0.3524 -0.2009
  943MOL0     N27187  10.812   1.007   0.809 -0.4452  0.6544  0.6721
  943MOL0     C27188  10.854   1.111   0.894  0.6355  0.6367 -0.0920
  943MOL0     C27189  10.950   1.052   0.971  0.3935 -0.2834 -0.3253
  943MOL0     C27190  11.031   1.116   1.085  0.5234  0.1645  0.3274
  943MOL0     C27191  11.016   1.051   1.218  1.0954  0.5027 -0.3811
  943MOL0     C27192  11.147   0.965   1.242 -0.1326 -0.8269 -0.5884
  943MOL0     C27193  11.167   0.937   1.392  0.4122  0.1424  0.0073
  943MOL0     O27194  11.249   0.813   1.391 -0.9166 -0.5819  0.2559
  943MOL0     C27195  11.286   0.763   1.513 -0.2805 -0.7202 -0.1022
  943MOL0     C27196  11.213   0.783   1.635 -0.3943 -0.1479  1.0263
  943MOL0     C27197  11.257   0.717   1.753  0.1731  0.2804 -0.7883
  943MOL0     C27198  11.377   0.651   1.763 -0.0146 -0.2754 -0.3901
  943MOL0     C27199  11.428   0.586   1.887 -0.2337  0.6100  0.3798
  943MOL0     O27200  11.533   0.496   1.865 -0.0993 -0.5801 -0.0060
  943MOL0     C27201  11.560   0.404   1.969  0.3318 -0.3819 -0.2423
  943MOL0     C27202  11.680   0.345   1.953 -0.0112  0.2039 -0.5097
  943MOL0     C27203  11.721   0.242   2.044 -0.3058  0.1563 -0.3846
  943MOL0     C27204  11.642   0.201   2.149  1.1758 -0.4759  0.0218
  943MOL0     O27205  11.672   0.096   2.232  1.0547 -1.2380  0.0434
  943MOL0     C27206  11.756  -0.011   2.178 -0.6120  0.0638 -0.3878
  943MOL0     C27207  11.704  -0.142   2.234 -0.5880 -0.2972 -1.0482
  943MOL0     C27208  11.753  -0.147   2.377 -0.3516  0.0131 -0.8904
  943MOL0     C27209  11.744  -0.288   2.440 -0.1290  0.2576  0.1674
  943MOL0     C27210  11.874  -0.358   2.456  0.1628  0.1040 -0.7135
  943MOL0     C27211  11.841  -0.511   2.490 -0.0676  0.0336  1.0027
  943MOL0     C27212  11.775  -0.603   2.385  0.6265  0.1316  0.6432
  943MOL0     C27213  11.758  -0.752   2.426  0.8099 -0.3127 -0.8087
  943MOL0    Cl27214  11.918  -0.821   2.485 -0.4983 -0.4970 -0.1189
  943MOL0     C27215  11.513   0.262   2.163 -0.3664 -0.0374 -0.0971
  943MOL0     C27216  11.471   0.358   2.077  0.1692 -0.7626  0.2224
  943MOL0     O27217  11.373   0.612   1.992  0.4988  0.4045 -0.3740
  943MOL0     C27218  11.447   0.636   1.644 -1.0669 -0.1202  0.4576
  943MOL0     C27219  11.404   0.690   1.520  0.0773 -0.5821 -1.7045
  943MOL0     N27220  10.957   0.915   0.940 -0.7991 -0.3561 -0.3628
  943MOL0     N27221  10.873   0.883   0.857  0.0577 -0.6471  0.4335
  943MOL0     C27222   9.906   1.438   0.901  0.0823  0.3920 -0.1274
  943MOL0     C27223   9.856   1.553   0.973 -0.0508  0.1803  0.0085
  943MOL0     C27224   9.674   1.914   1.151  0.3739  0.0601  0.7644
  943MOL0     C27225   9.532   1.905   1.151  0.4902  0.2048  0.2022
  943MOL0     C27226   9.448   1.977   1.234 -0.4056 -1.1192 -1.2389
  943MOL0     C27227   9.491   2.081   1.321  0.9419 -0.2505  0.5695
  943MOL0     O27228   9.396   2.158   1.377 -0.7394 -0.3278  0.1868
  943MOL0     C27229   9.425   2.298   1.408  0.2248  0.5553 -0.3708
  943MOL0     C27230   9.279   2.353   1.437  0.3858 -1.0247 -0.9703
  943MOL0     C27231   9.282   2.501   1.453  0.4397  0.5578 -0.0611
  943MOL0     C27232   9.292   2.555   1.599  0.3044  0.0219 -0.4311
  943MOL0     C27233   9.412   2.623   1.637  1.1213 -0.5509 -0.1533
  943MOL0     C27234   9.516   2.684   1.669  0.6415 -0.0708  0.6889
  943MOL0     C27235   9.630   2.105   1.307  0.4915 -0.7141  0.1795
  943MOL0     C27236   9.716   2.024   1.230  0.8947 -0.6467 -0.1262
  943MOL0     C27237   9.869   2.051   1.245 -0.9795 -0.0163  0.4727
  943MOL0     H27238   9.555   1.597   0.817 -1.1532 -1.3625 -1.7675
  943MOL0     H27239   9.629   1.384   0.711  0.6636 -1.0340  0.6309
  943MOL0     H27240   9.821   1.153   0.891 -1.5210  0.3670  0.4570
  943MOL0     H27241   9.750   1.120   0.731  0.6088 -0.3739 -2.2657
  943MOL0     H27242   9.955   1.030   0.637  2.3256 -1.5113 -0.5422
  943MOL0     H27243   9.937   0.985   0.820 -1.3252  2.5845  0.7338
  943MOL0     H27244  10.101   1.128   0.879 -2.3571  0.6656 -0.2261
  943MOL0     H27245  10.113   1.217   0.727  0.2367  0.0453 -1.4892
  943MOL0     H27246  10.181   0.924   0.694  0.2585  0.2226  2.1593
  943MOL0     H27247  10.220   1.066   0.599  3.1760 -0.8994 -0.5067
  943MOL0     H27248  10.340   1.156   0.801  0.6987  0.2336  0.1280
  943MOL0     H27249  10.321   0.992   0.871 -2.4884 -1.5729 -1.0790
  943MOL0     H27250  10.451   0.919   0.650 -2.2687  2.4016 -2.3847
  943MOL0     H27251  10.452   1.079   0.604 -1.5038 -1.8888 -1.4518
  943MOL0     H27252  10.568   0.994   0.870  1.1904 -1.5837 -0.9640
  943MOL0     H27253  10.574   1.161   0.793  3.6852  0.0716  0.6081
  943MOL0     H27254  10.688   0.912   0.656  1.8014 -0.3658  0.5976
  943MOL0     H27255  10.725   1.083   0.632  3.7577 -2.4202 -2.0259
  943MOL0     H27256  10.823   1.214   0.905 -0.2171  0.2732  1.2416
  943MOL0     H27257  11.138   1.112   1.065  0.1206  0.4291 -2.1770
  943MOL0     H27258  11.003   1.222   1.091 -1.2096 -0.3207  1.5665
  943MOL0     H27259  11.029   1.131   1.291  1.3003  3.3532 -3.3349
  943MOL0     H27260  10.928   0.990   1.244  1.8905 -0.1253  0.9401
  943MOL0     H27261  11.234   1.025   1.215  1.2251  0.2632  5.0775
  943MOL0     H27262  11.137   0.875   1.180 -1.4311  0.6419 -2.6774
  943MOL0     H27263  11.069   0.928   1.441  1.0406  2.7417  1.9732
  943MOL0     H27264  11.221   1.015   1.446 -0.7824  2.0662 -1.4649
  943MOL0     H27265  11.122   0.843   1.636 -1.2189 -1.3864  1.7949
  943MOL0     H27266  11.204   0.731   1.847 -0.5203 -1.4365 -0.8677
  943MOL0     H27267  11.757   0.370   1.880 -0.5330 -2.6218 -2.1687
  943MOL0     H27268  11.817   0.193   2.036  0.5170  1.7521 -0.8888
  943MOL0     H27269  11.753  -0.015   2.069  2.0090  1.4350 -0.5938
  943MOL0     H27270  11.864   0.002   2.196 -0.0400  1.0034 -3.7494
  943MOL0     H27271  11.595  -0.144   2.227 -0.6576 -0.6803 -0.0642
  943MOL0     H27272  11.752  -0.225   2.181 -0.3226  0.3851 -1.9021
  943MOL0     H27273  11.846  -0.093   2.397 -0.3361 -0.4253  0.2764
  943MOL0     H27274  11.685  -0.086   2.436  1.5162 -0.7759  2.3379
  943MOL0     H27275  11.680  -0.358   2.386  1.7108 -1.7318  0.4301
  943MOL0     H27276  11.714  -0.272   2.544  1.2263  1.7432  0.3709
  943MOL0     H27277  11.929  -0.313   2.538  1.1723  0.2495 -1.4534
  943MOL0     H27278  11.945  -0.359   2.373 -0.1103  1.1550 -0.9653
  943MOL0     H27279  11.942  -0.546   2.514 -0.0281 -2.4788 -2.2633
  943MOL0     H27280  11.789  -0.516   2.587  2.7051  0.4383  2.6355
  943MOL0     H27281  11.822  -0.606   2.286 -1.5364  0.6822 -0.4660
  943MOL0     H27282  11.673  -0.570   2.359 -0.1581 -3.3364 -1.3921
  943MOL0     H27283  11.689  -0.760   2.510  1.3016  0.9349 -0.2604
  943MOL0     H27284  11.707  -0.808   2.347 -0.9674 -1.3347  0.9680
  943MOL0     H27285  11.451   0.227   2.245 -0.2085  1.5438  0.7298
  943MOL0     H27286  11.371   0.394   2.095  0.0936 -1.1622  0.6252
  943MOL0     H27287  11.542   0.584   1.634  1.2445  3.1651  3.0632
  943MOL0     H27288  11.452   0.669   1.425  1.5698 -3.1897 -0.4914
  943MOL0     H27289   9.999   1.383   0.904 -1.3795 -2.3654  4.5742
  943MOL0     H27290   9.925   1.603   1.041 -0.2135 -0.3950  0.6039
  943MOL0     H27291   9.484   1.835   1.084 -1.4010  1.3352  0.3259
  943MOL0     H27292   9.342   1.974   1.211 -0.6681  5.8551 -2.9605
  943MOL0     H27293   9.466   2.350   1.321  0.8844  0.3254 -0.2027
  943MOL0     H27294   9.487   2.314   1.497  2.6254 -2.8984 -1.2352
  943MOL0     H27295   9.245   2.305   1.529  1.6973  1.9644  1.2634
  943MOL0     H27296   9.220   2.329   1.348  0.2489 -6.1675  0.1832
  943MOL0     H27297   9.186   2.541   1.418  1.2629  1.5515 -1.3029
  943MOL0     H27298   9.367   2.537   1.393 -0.0360  0.0795 -1.0543
  943MOL0     H27299   9.219   2.636   1.603 -0.3700 -0.5450 -0.9794
  943MOL0     H27300   9.255   2.481   1.671  1.6180 -3.0623 -2.7346
  943MOL0     H27301   9.605   2.738   1.691 -0.4946  1.2242  2.4644
  943MOL0     H27302   9.671   2.193   1.355 -1.1882  0.2473 -0.0336
  943MOL0     H27303   9.916   2.067   1.148  1.1380  0.9920  1.5887
  943MOL0     H27304   9.893   2.144   1.298 -0.2126  0.5095 -0.7581
  943MOL0     H27305   9.910   1.965   1.300 -2.4992 -1.2608 -0.2651
  944MOL0     O27306   9.861   7.595   4.824  0.6228  0.0364  0.1155
  944MOL0     C27307   9.760   7.648   4.786  0.1972  0.0608  0.4971
  944MOL0     O27308   9.636   7.587   4.791 -0.4926  0.0913 -0.1094
  944MOL0     C27309   9.613   7.467   4.852  0.1697 -0.7352  0.0371
  944MOL0     C27310   9.478   7.410   4.841 -0.4333 -0.4596 -0.2512
  944MOL0     C27311   9.441   7.286   4.911  0.0581 -0.1185 -0.7204
  944MOL0     C27312   9.539   7.219   4.988 -0.5688 -0.1547 -0.3864
  944MOL0     O27313   9.506   7.104   5.045 -0.3904  0.3196 -0.1250
  944MOL0     C27314   9.592   7.015   5.132  0.0616  0.7697  1.0819
  944MOL0     C27315   9.536   6.871   5.129 -0.3361  1.1481 -0.0441
  944MOL0     C27316   9.407   6.850   5.203 -0.1372 -0.1822 -0.3180
  944MOL0     C27317   9.369   6.697   5.213 -0.5666 -1.3463 -0.2118
  944MOL0     C27318   9.223   6.686   5.248  0.3976  0.8799  0.1103
  944MOL0     C27319   9.176   6.540   5.244  0.6329 -0.4307  1.0078
  944MOL0     C27320   9.022   6.535   5.242  0.7189 -0.2458  0.1735
  944MOL0     C27321   8.946   6.629   5.341  0.6894  0.5253  1.1469
  944MOL0     N27322   8.970   6.585   5.476  0.0617  0.6257  0.5808
  944MOL0     C27323   8.953   6.458   5.526  0.1158  0.7271 -0.4775
  944MOL0     C27324   8.981   6.471   5.661 -0.2089 -0.0069  0.8839
  944MOL0     C27325   8.966   6.365   5.762 -0.3323  0.9572 -1.0336
  944MOL0     C27326   8.814   6.354   5.785  0.3449 -0.4070 -0.7849
  944MOL0     C27327   8.790   6.250   5.902 -0.1338 -0.7807 -0.2619
  944MOL0     C27328   8.641   6.230   5.908  0.5164 -0.5190 -0.0100
  944MOL0     O27329   8.614   6.140   6.018  0.7270 -0.6777 -0.4925
  944MOL0     C27330   8.516   6.178   6.103  0.6394 -0.0596 -0.1926
  944MOL0     C27331   8.395   6.108   6.094 -0.5237 -0.5876  0.1293
  944MOL0     C27332   8.294   6.116   6.194 -0.8388 -1.0681 -0.5315
  944MOL0     C27333   8.310   6.216   6.299 -0.1814 -0.0461  0.3208
  944MOL0     C27334   8.195   6.248   6.395  0.3571  0.2198  0.2969
  944MOL0     O27335   8.214   6.346   6.485  0.4005  0.1514 -0.3614
  944MOL0     C27336   8.140   6.349   6.594  0.2783 -0.0481  0.4975
  944MOL0     C27337   8.167   6.253   6.687 -0.6707  0.8331  0.0885
  944MOL0     C27338   8.079   6.245   6.806  0.3721 -0.1984  0.1132
  944MOL0     C27339   7.967   6.331   6.821 -0.3019  0.1131  0.0015
  944MOL0     O27340   7.880   6.332   6.926  0.6845 -0.0697 -0.0256
  944MOL0     C27341   7.838   6.211   6.983 -0.3936 -0.8104  0.3468
  944MOL0     C27342   7.710   6.219   7.065  0.7806  0.1238 -0.5433
  944MOL0     C27343   7.718   6.291   7.206  0.1414 -0.0577 -0.1128
  944MOL0     C27344   7.585   6.285   7.286 -1.0716  1.7393  0.8769
  944MOL0     C27345   7.587   6.340   7.425 -0.3476 -0.1634  0.2057
  944MOL0     C27346   7.536   6.483   7.437  0.1350 -0.0324  0.0317
  944MOL0     C27347   7.379   6.466   7.435  0.5897 -0.1158 -0.1215
  944MOL0     C27348   7.310   6.596   7.434 -0.0989 -0.5979 -0.3186
  944MOL0    Cl27349   7.357   6.685   7.288 -0.3505 -0.0808 -0.1476
  944MOL0     C27350   7.934   6.421   6.722 -0.6726  0.1212 -0.7258
  944MOL0     C27351   8.017   6.434   6.605  0.5586  1.1552  0.7374
  944MOL0     O27352   8.090   6.184   6.389  0.4843  0.0914  0.4165
  944MOL0     C27353   8.431   6.294   6.297 -0.0418 -0.2589 -0.7028
  944MOL0     C27354   8.525   6.275   6.199 -0.3086 -0.5115 -0.1448
  944MOL0     N27355   8.997   6.599   5.699  0.8878  0.5504 -0.4424
  944MOL0     N27356   8.989   6.671   5.578 -0.3173 -0.3662  0.2068
  944MOL0     C27357   9.667   7.280   5.006 -0.1546 -0.4886 -0.6400
  944MOL0     C27358   9.699   7.397   4.943 -0.7731  0.4439 -0.2508
  944MOL0     C27359   9.766   7.790   4.729  0.3902 -0.3885 -0.4833
  944MOL0     C27360   9.653   7.835   4.647 -0.3320  0.2915  0.1223
  944MOL0     C27361   9.635   7.967   4.597  0.1244 -0.1967  0.5288
  944MOL0     C27362   9.740   8.060   4.609 -0.2897 -0.3792 -0.6583
  944MOL0     O27363   9.732   8.188   4.555  0.6463 -0.9810 -0.3342
  944MOL0     C27364   9.630   8.218   4.463 -0.4786 -0.5546  0.0150
  944MOL0     C27365   9.654   8.168   4.314  0.7527  0.5886 -0.0294
  944MOL0     C27366   9.621   8.285   4.214  0.3248 -0.5556  0.6729
  944MOL0     C27367   9.474   8.306   4.178 -0.9879 -0.3099  1.0716
  944MOL0     C27368   9.448   8.348   4.042 -0.9537  0.6375  0.7406
  944MOL0     C27369   9.419   8.382   3.932  0.2010 -0.0487  1.4888
  944MOL0     C27370   9.854   8.016   4.677 -0.2825 -0.6531 -0.5706
  944MOL0     C27371   9.872   7.892   4.733 -0.0727 -0.2800 -0.5830
  944MOL0     C27372   9.997   7.871   4.811 -0.4040 -0.2843 -1.3894
  944MOL0     H27373   9.416   7.476   4.781  1.5595  1.1904 -0.6080
  944MOL0     H27374   9.344   7.239   4.899  0.3014 -1.9831  3.0325
  944MOL0     H27375   9.690   7.021   5.083 -0.5123  1.5413 -0.0362
  944MOL0     H27376   9.598   7.061   5.231  0.3188 -1.9082  2.3867
  944MOL0     H27377   9.607   6.808   5.183 -0.3659  1.3226  0.2027
  944MOL0     H27378   9.535   6.833   5.027 -2.3448 -3.0366  1.2928
  944MOL0     H27379   9.336   6.898   5.136 -1.1523 -1.0413  0.1116
  944MOL0     H27380   9.405   6.891   5.305  1.3180 -1.9682  0.4876
  944MOL0     H27381   9.387   6.640   5.122  0.8802  3.0159 -2.9939
  944MOL0     H27382   9.430   6.648   5.290  1.3900  1.2210  0.0490
  944MOL0     H27383   9.206   6.731   5.346  2.4013 -0.1566  0.9991
  944MOL0     H27384   9.161   6.731   5.170 -0.7603 -0.1858  0.3869
  944MOL0     H27385   9.213   6.489   5.154  0.1720  3.7019 -1.8304
  944MOL0     H27386   9.201   6.488   5.336 -0.3028 -0.3186  1.3350
  944MOL0     H27387   8.984   6.433   5.246  2.3913 -0.8783  0.7527
  944MOL0     H27388   9.000   6.569   5.140 -0.1043  2.0214  1.0413
  944MOL0     H27389   8.988   6.726   5.314  1.6786 -0.1936  0.0189
  944MOL0     H27390   8.839   6.620   5.320  0.8207 -2.0362  1.1731
  944MOL0     H27391   8.933   6.365   5.474  0.8859  0.2306  0.1020
  944MOL0     H27392   9.007   6.267   5.733 -1.1475  0.4700 -0.5791
  944MOL0     H27393   9.012   6.418   5.846 -2.5877  2.4048 -0.6405
  944MOL0     H27394   8.776   6.453   5.813 -0.9105 -0.7390 -1.2370
  944MOL0     H27395   8.768   6.315   5.693 -1.6171 -0.2026  0.0603
  944MOL0     H27396   8.818   6.301   5.994 -2.6986 -0.0488  0.1643
  944MOL0     H27397   8.837   6.151   5.889  0.9844 -0.2399 -0.4976
  944MOL0     H27398   8.610   6.175   5.819  1.0634 -1.7611  0.5350
  944MOL0     H27399   8.594   6.328   5.915 -1.9991 -1.4905 -1.6573
  944MOL0     H27400   8.389   6.036   6.014 -1.5024 -0.9184  0.4923
  944MOL0     H27401   8.196   6.071   6.201 -2.1935  1.5065 -1.5037
  944MOL0     H27402   8.247   6.182   6.670 -0.5028  0.9843  0.2367
  944MOL0     H27403   8.106   6.178   6.887  0.5909  0.8182  0.9023
  944MOL0     H27404   7.827   6.137   6.903  2.0341  1.0040 -1.8468
  944MOL0     H27405   7.922   6.183   7.047  1.6799  2.8634 -0.5088
  944MOL0     H27406   7.631   6.267   7.008 -0.7736  0.6557  1.9459
  944MOL0     H27407   7.688   6.114   7.087  1.5949  0.3584  1.6952
  944MOL0     H27408   7.796   6.237   7.260  0.2240 -0.3449 -0.5089
  944MOL0     H27409   7.744   6.396   7.191  1.9972 -0.6857 -1.7446
  944MOL0     H27410   7.563   6.178   7.291  1.6406  1.1575  1.8512
  944MOL0     H27411   7.510   6.332   7.222  0.0421  1.4886 -0.6587
  944MOL0     H27412   7.691   6.345   7.457  0.0530  1.0304 -1.2107
  944MOL0     H27413   7.536   6.275   7.497 -1.9954  2.0428  1.1652
  944MOL0     H27414   7.570   6.531   7.529 -1.3004  4.0009 -1.3456
  944MOL0     H27415   7.569   6.536   7.348  2.2878  0.2760  0.9517
  944MOL0     H27416   7.333   6.410   7.517  0.8227  1.0027  0.7984
  944MOL0     H27417   7.359   6.410   7.344 -0.7644  1.5775 -0.9264
  944MOL0     H27418   7.202   6.585   7.449 -0.1439 -0.1503 -0.2844
  944MOL0     H27419   7.340   6.659   7.518  0.5351 -0.0830 -0.9162
  944MOL0     H27420   7.850   6.486   6.743 -1.4101 -1.2058  0.6037
  944MOL0     H27421   8.003   6.493   6.516 -1.2900 -1.0664 -0.5562
  944MOL0     H27422   8.457   6.363   6.377 -2.2083 -1.6142  1.3058
  944MOL0     H27423   8.614   6.337   6.199 -0.6716  0.0542  1.3222
  944MOL0     H27424   9.745   7.233   5.066  0.5443 -0.4020 -1.4657
  944MOL0     H27425   9.798   7.424   4.980 -1.0792  0.5978  0.4740
  944MOL0     H27426   9.567   7.768   4.642 -0.8683  0.9826 -0.1749
  944MOL0     H27427   9.541   7.990   4.547 -0.0958 -1.7972  0.1277
  944MOL0     H27428   9.628   8.327   4.467  1.9806 -0.4811  1.9468
  944MOL0     H27429   9.529   8.191   4.496 -0.1975 -3.3188 -1.1381
  944MOL0     H27430   9.577   8.091   4.301  0.1157  1.2812 -0.4146
  944MOL0     H27431   9.750   8.117   4.301  2.2106  3.3694 -1.0780
  944MOL0     H27432   9.681   8.263   4.125  0.8959 -0.8262  1.1202
  944MOL0     H27433   9.657   8.378   4.259  1.4553 -0.2023 -0.8657
  944MOL0     H27434   9.416   8.213   4.186 -1.4045 -0.1064  0.4569
  944MOL0     H27435   9.433   8.377   4.250  1.8707  1.9049  0.6839
  944MOL0     H27436   9.380   8.409   3.836  2.8837 -2.0762 -0.3117
  944MOL0     H27437   9.926   8.098   4.680 -0.5935 -0.2909 -2.1081
  944MOL0     H27438  10.017   7.777   4.863  2.2896  1.1326  0.4226
  944MOL0     H27439  10.080   7.904   4.748 -2.7520  2.5941 -3.3030
  944MOL0     H27440  10.005   7.943   4.894 -1.0035 -2.0832  0.3144
  945MOL0     O27441  10.062  10.394   7.154  0.1558 -0.3550  0.4193
  945MOL0     C27442  10.006  10.474   7.222  0.6234 -0.1265  0.4390
  945MOL0     O27443  10.033  10.602   7.225 -0.1802 -0.6800 -0.2379
  945MOL0     C27444  10.158  10.638   7.169  0.2465  0.5994 -0.1700
  945MOL0     C27445  10.283  10.596   7.203  0.1680 -0.2037  0.6283
  945MOL0     C27446  10.398  10.647   7.139  0.5511 -0.1609 -0.0895
  945MOL0     C27447  10.390  10.745   7.047 -0.8846 -0.4658 -0.3327
  945MOL0     O27448  10.499  10.783   6.976 -0.6843  0.1062  0.5889
  945MOL0     C27449  10.602  10.851   7.058 -0.9256 -0.4020  0.1531
  945MOL0     C27450  10.733  10.870   6.974 -0.3810 -0.4934  0.7645
  945MOL0     C27451  10.774  10.737   6.896  0.8325  0.9994 -0.2792
  945MOL0     C27452  10.864  10.638   6.976 -0.6328 -0.1770  0.3359
  945MOL0     C27453  10.865  10.495   6.928 -0.5966  0.3671 -0.4672
  945MOL0     C27454  10.735  10.419   6.938  1.3254 -0.3541 -0.1443
  945MOL0     C27455  10.708  10.379   7.082  0.3474  0.7507  0.0666
  945MOL0     C27456  10.764  10.239   7.130  0.2178  0.6351  0.0754
  945MOL0     N27457  10.694  10.212   7.259  0.1914 -0.0868  0.4590
  945MOL0     C27458  10.561  10.179   7.275 -0.0607  0.0969  0.6779
  945MOL0     C27459  10.548  10.125   7.395  0.7352 -0.0619 -0.4074
  945MOL0     C27460  10.425  10.071   7.447 -1.3311 -0.2241  0.1519
  945MOL0     C27461  10.340  10.176   7.516 -0.0732 -0.1017  0.1283
  945MOL0     C27462  10.212  10.125   7.580 -0.5180  0.3294  0.0103
  945MOL0     C27463  10.137  10.230   7.653  0.0115 -0.1753 -0.5412
  945MOL0     O27464  10.022  10.159   7.702  0.4589  0.5928 -0.0190
  945MOL0     C27465   9.911  10.224   7.733  1.0324 -0.7452  0.0387
  945MOL0     C27466   9.909  10.359   7.767 -0.8472  0.2525 -0.1276
  945MOL0     C27467   9.791  10.429   7.804  0.2755  0.6979 -0.7812
  945MOL0     C27468   9.671  10.361   7.832 -0.7100 -0.2381  0.0894
  945MOL0     C27469   9.553  10.413   7.897 -0.7060 -0.7709 -0.0654
  945MOL0     O27470   9.574  10.525   7.967 -0.2229 -0.9660 -0.1684
  945MOL0     C27471   9.478  10.561   8.055  0.6982 -0.4470  0.2145
  945MOL0     C27472   9.501  10.541   8.193  0.6258 -0.4763  1.1143
  945MOL0     C27473   9.402  10.585   8.278  0.3694 -0.2050  0.2533
  945MOL0     C27474   9.284  10.648   8.234 -0.1951 -0.1143  0.1182
  945MOL0     O27475   9.190  10.700   8.319  0.3312  0.8584  0.5890
  945MOL0     C27476   9.209  10.724   8.454 -0.4946  0.0011  0.9014
  945MOL0     C27477   9.313  10.834   8.464  0.0090  0.8067  0.1246
  945MOL0     C27478   9.295  10.901   8.593 -0.7257 -1.3383 -0.1728
  945MOL0     C27479   9.397  11.017   8.621  0.7718  0.6664  0.1318
  945MOL0     C27480   9.367  11.079   8.765  0.1921  0.4919  0.1034
  945MOL0     C27481   9.388  10.980   8.883 -0.2645 -0.4711  0.1844
  945MOL0     C27482   9.354  11.067   9.011  0.1096  0.7165  0.4346
  945MOL0     C27483   9.340  10.979   9.134  0.5000 -1.1887  0.5343
  945MOL0    Cl27484   9.498  10.921   9.148 -0.0180  0.2508 -0.1821
  945MOL0     C27485   9.262  10.671   8.101 -1.3448  0.2438 -0.1152
  945MOL0     C27486   9.357  10.620   8.013 -0.6270 -0.3859  0.5883
  945MOL0     O27487   9.450  10.353   7.884  0.4276  0.3745  0.8336
  945MOL0     C27488   9.666  10.219   7.792 -0.8772  0.1692 -0.1753
  945MOL0     C27489   9.787  10.161   7.744  0.2112  1.1510 -0.0368
  945MOL0     N27490  10.678  10.107   7.440  0.1429 -0.1082  0.0251
  945MOL0     N27491  10.765  10.167   7.367 -0.0128  0.1267  0.6682
  945MOL0     C27492  10.263  10.796   7.017 -0.6206  0.1396  0.3251
  945MOL0     C27493  10.148  10.738   7.080 -1.2410  0.5754  0.4982
  945MOL0     C27494   9.872  10.441   7.281 -0.1460 -0.5224 -0.1596
  945MOL0     C27495   9.775  10.546   7.298 -0.0116  0.2754  0.6310
  945MOL0     C27496   9.650  10.521   7.346  0.9568  0.6190  0.4686
  945MOL0     C27497   9.612  10.391   7.396 -0.6502 -0.4137  0.1855
  945MOL0     O27498   9.486  10.354   7.430 -0.2961 -0.2956  0.5233
  945MOL0     C27499   9.406  10.457   7.494 -0.3819  0.7231  0.7062
  945MOL0     C27500   9.299  10.387   7.575 -0.5619 -0.8072 -0.3467
  945MOL0     C27501   9.184  10.345   7.495  0.0634  0.1024 -0.2043
  945MOL0     C27502   9.073  10.293   7.588 -0.0564 -0.2402  0.1582
  945MOL0     C27503   8.953  10.250   7.521  0.4260 -0.0873 -0.7936
  945MOL0     C27504   8.861  10.211   7.452  0.8962  0.4170  0.7383
  945MOL0     C27505   9.709  10.284   7.386 -0.4131  0.0604 -0.1768
  945MOL0     C27506   9.836  10.306   7.325 -0.0440  0.8831 -0.8818
  945MOL0     C27507   9.937  10.192   7.320  0.8743  0.3512  0.7465
  945MOL0     H27508  10.294  10.522   7.282 -2.0263 -1.3682 -0.0711
  945MOL0     H27509  10.493  10.609   7.173  0.6086  1.5798  1.9144
  945MOL0     H27510  10.566  10.943   7.105 -0.9556 -1.3773  2.1604
  945MOL0     H27511  10.637  10.782   7.135  1.0448  0.3665  0.0152
  945MOL0     H27512  10.812  10.902   7.044  0.3313  2.0214 -1.0506
  945MOL0     H27513  10.720  10.952   6.903 -1.6733 -0.9663  0.4367
  945MOL0     H27514  10.826  10.771   6.805  1.1441  1.3707  0.0367
  945MOL0     H27515  10.681  10.689   6.864  1.0213 -0.5124  1.3283
  945MOL0     H27516  10.966  10.676   6.973 -1.3467  2.0730  1.7735
  945MOL0     H27517  10.829  10.640   7.079  1.6764 -0.1152  1.1613
  945MOL0     H27518  10.911  10.482   6.830  1.3546 -1.8461  0.6465
  945MOL0     H27519  10.933  10.430   6.983 -3.2811 -1.3619  1.0222
  945MOL0     H27520  10.648  10.481   6.910  0.9092 -0.3780  1.0466
  945MOL0     H27521  10.719  10.337   6.867 -0.2703 -1.7829  1.7565
  945MOL0     H27522  10.601  10.398   7.099 -0.0162 -0.3821 -0.7644
  945MOL0     H27523  10.749  10.454   7.150  1.7958 -0.8223  0.9994
  945MOL0     H27524  10.745  10.161   7.056 -1.7848  0.6691  0.4966
  945MOL0     H27525  10.871  10.242   7.149  0.5468 -2.4456 -0.6646
  945MOL0     H27526  10.474  10.206   7.217  0.8778  3.0632  0.4813
  945MOL0     H27527  10.367  10.027   7.366 -2.6361  0.4544  0.6839
  945MOL0     H27528  10.445   9.995   7.522 -1.2678 -0.9767 -0.6168
  945MOL0     H27529  10.406  10.228   7.586 -1.5569  1.3538  0.5323
  945MOL0     H27530  10.318  10.245   7.434  0.7548 -0.7345 -0.6419
  945MOL0     H27531  10.240  10.049   7.654  1.2560  1.8115  0.9259
  945MOL0     H27532  10.146  10.071   7.510 -1.8205  0.2283  1.2765
  945MOL0     H27533  10.122  10.311   7.581 -3.4979 -2.5004 -2.7686
  945MOL0     H27534  10.185  10.277   7.739  0.9819  2.2980 -2.3312
  945MOL0     H27535   9.999  10.416   7.751 -1.9068  1.9812 -0.2474
  945MOL0     H27536   9.792  10.537   7.812  0.5255  0.6644 -0.3110
  945MOL0     H27537   9.584  10.485   8.235 -1.1802 -3.5281  0.9756
  945MOL0     H27538   9.412  10.575   8.385 -0.8719  2.3249  0.6707
  945MOL0     H27539   9.112  10.763   8.487 -1.1078  0.5363 -1.3588
  945MOL0     H27540   9.231  10.638   8.518  2.5285 -0.4223 -0.5576
  945MOL0     H27541   9.417  10.801   8.459 -0.2641 -0.4855  1.9248
  945MOL0     H27542   9.303  10.911   8.386 -0.0205 -0.3702 -1.0692
  945MOL0     H27543   9.193  10.935   8.610  0.0464  0.8500  0.4722
  945MOL0     H27544   9.320  10.828   8.671 -0.8278 -1.6928 -0.4675
  945MOL0     H27545   9.391  11.098   8.547 -0.5920 -1.5313 -2.3532
  945MOL0     H27546   9.495  10.969   8.620 -0.6915 -2.6817  1.3226
  945MOL0     H27547   9.263  11.111   8.775  0.1258  0.3678 -0.2043
  945MOL0     H27548   9.429  11.169   8.761 -2.7379  2.6194 -1.5211
  945MOL0     H27549   9.321  10.894   8.880 -0.7932 -0.3071  3.2325
  945MOL0     H27550   9.491  10.944   8.886 -1.1559 -3.1044  1.6998
  945MOL0     H27551   9.259  11.120   9.004 -2.0785 -2.8115  1.2652
  945MOL0     H27552   9.435  11.140   9.027  0.9799  0.3147 -1.7919
  945MOL0     H27553   9.325  11.041   9.223  0.5852 -3.2312  2.0359
  945MOL0     H27554   9.252  10.914   9.130 -0.4349 -0.0481  1.5556
  945MOL0     H27555   9.164  10.709   8.075 -1.8661 -0.3439  0.9420
  945MOL0     H27556   9.329  10.619   7.908  2.9485  1.6322 -0.5509
  945MOL0     H27557   9.572  10.166   7.801 -0.7268  0.0118  0.5222
  945MOL0     H27558   9.783  10.054   7.728  0.2013  1.2063 -0.4297
  945MOL0     H27559  10.243  10.869   6.940  2.0837  0.6021 -0.0031
  945MOL0     H27560  10.048  10.764   7.048 -0.2051  0.8418 -2.8871
  945MOL0     H27561   9.803  10.649   7.280 -3.1571  1.0150 -0.6434
  945MOL0     H27562   9.585  10.609   7.349 -0.0572 -0.1289  2.0161
  945MOL0     H27563   9.355  10.523   7.423  0.0883  0.2885 -0.0376
  945MOL0     H27564   9.467  10.515   7.564  0.3225 -0.8642  1.4543
  945MOL0     H27565   9.274  10.459   7.653  1.7868  0.3947 -0.6353
  945MOL0     H27566   9.339  10.303   7.633  0.6830 -1.2036 -1.7363
  945MOL0     H27567   9.212  10.267   7.424 -0.9294  0.5806 -1.1492
  945MOL0     H27568   9.145  10.429   7.437 -0.5626 -0.3568 -0.4673
  945MOL0     H27569   9.118  10.204   7.633  2.8519 -0.2172 -2.3608
  945MOL0     H27570   9.050  10.372   7.660  4.3527  0.4310  1.1066
  945MOL0     H27571   8.792  10.158   7.391  1.2096  2.4383 -1.5502
  945MOL0     H27572   9.675  10.191   7.430  1.4764 -1.0452 -0.9428
  945MOL0     H27573  10.023  10.237   7.371 -0.2511  3.9751 -0.2440
  945MOL0     H27574   9.901  10.105   7.377 -1.5081  0.5837 -0.2593
  945MOL0     H27575   9.952  10.164   7.216 -1.5318 -1.0429  0.7039
  946MOL0     O27576   8.253   0.868   8.473  0.8621 -0.0362  0.5150
  946MOL0     C27577   8.282   0.745   8.482 -0.2595 -1.1001 -0.3589
  946MOL0     O27578   8.335   0.661   8.383 -0.8189 -0.0978 -0.5136
  946MOL0     C27579   8.359   0.716   8.263  0.8697  0.0163 -0.5760
  946MOL0     C27580   8.297   0.666   8.154 -0.1991 -0.0093 -0.4326
  946MOL0     C27581   8.320   0.719   8.029 -0.2354  0.5071 -1.0498
  946MOL0     C27582   8.405   0.830   8.009 -0.5740  1.2173  0.9046
  946MOL0     O27583   8.437   0.865   7.885 -0.7162 -0.1960  0.2857
  946MOL0     C27584   8.520   0.780   7.794  0.2954 -0.2745 -0.5924
  946MOL0     C27585   8.635   0.708   7.859  0.3180  0.7172 -0.0132
  946MOL0     C27586   8.746   0.799   7.901 -0.9951 -1.2950  0.2300
  946MOL0     C27587   8.829   0.858   7.780  0.9086  0.4516  0.0082
  946MOL0     C27588   8.938   0.953   7.840  0.8951  1.4607 -0.1826
  946MOL0     C27589   9.048   0.993   7.737  0.4390  0.8522  0.4747
  946MOL0     C27590   9.142   1.102   7.787 -0.6882  0.4889 -0.1172
  946MOL0     C27591   9.204   1.188   7.668  0.1948 -0.2715  0.0879
  946MOL0     N27592   9.269   1.306   7.718  0.4844  0.0200 -0.4935
  946MOL0     C27593   9.404   1.321   7.753 -0.3371  0.6389  0.6405
  946MOL0     C27594   9.409   1.447   7.795 -0.0367 -0.0362  0.4338
  946MOL0     C27595   9.526   1.529   7.829 -0.6317  0.0733  0.4884
  946MOL0     C27596   9.655   1.463   7.874 -0.9243 -0.6273  0.0111
  946MOL0     C27597   9.648   1.383   8.002  0.2529 -0.2777 -0.6614
  946MOL0     C27598   9.766   1.380   8.094  0.5035 -0.9164 -0.1956
  946MOL0     O27599   9.784   1.263   8.175  0.3264  0.5697 -0.5556
  946MOL0     C27600   9.706   1.234   8.285  0.0706 -0.0140 -1.1296
  946MOL0     C27601   9.633   1.322   8.364 -0.3610 -0.6204  0.1030
  946MOL0     C27602   9.551   1.279   8.465  0.3174 -0.8563 -0.5596
  946MOL0     C27603   9.538   1.138   8.492  0.1174  0.4168  0.9343
  946MOL0     C27604   9.450   1.087   8.598  1.0461  0.3003  0.4801
  946MOL0     O27605   9.459   0.953   8.624 -0.8432 -0.4164 -0.6148
  946MOL0     C27606   9.360   0.887   8.688  0.2074  0.3708 -0.3616
  946MOL0     C27607   9.363   0.876   8.821  1.0843  0.5577 -0.0869
  946MOL0     C27608   9.263   0.800   8.873  0.0192 -0.1604 -0.6974
  946MOL0     C27609   9.148   0.758   8.812 -0.3564 -0.3494  0.0949
  946MOL0     O27610   9.059   0.696   8.894 -0.1486  0.8616  0.1091
  946MOL0     C27611   8.960   0.614   8.828  0.8123  0.8965 -0.0241
  946MOL0     C27612   8.916   0.524   8.943 -0.3723 -0.0673  0.0262
  946MOL0     C27613   8.817   0.423   8.879 -0.0090  0.5487  0.1647
  946MOL0     C27614   8.800   0.299   8.972 -0.6390 -0.2767  0.1551
  946MOL0     C27615   8.730   0.192   8.879 -0.4800 -0.5236 -0.0435
  946MOL0     C27616   8.573   0.196   8.899  0.9586 -0.1527  0.7381
  946MOL0     C27617   8.505   0.078   8.814 -0.4309  0.1956  1.1270
  946MOL0     C27618   8.358   0.106   8.783  0.3224 -0.1808 -0.3036
  946MOL0    Cl27619   8.274   0.151   8.935 -0.0570  0.0454  0.0260
  946MOL0     C27620   9.143   0.765   8.669  0.2408 -0.0912 -0.8493
  946MOL0     C27621   9.257   0.821   8.605 -0.4537 -0.1044  0.3577
  946MOL0     O27622   9.367   1.163   8.652 -1.0581 -0.5150 -0.1437
  946MOL0     C27623   9.602   1.043   8.407  1.2110  0.0337  0.5314
  946MOL0     C27624   9.685   1.086   8.303  0.3920 -0.7211  0.0859
  946MOL0     N27625   9.288   1.510   7.774 -0.1834  1.0660  0.1056
  946MOL0     N27626   9.204   1.429   7.724  0.1424  0.9375  0.2137
  946MOL0     C27627   8.470   0.882   8.120 -0.1402  0.1326  0.0575
  946MOL0     C27628   8.444   0.827   8.248  0.1536  0.1600 -0.3117
  946MOL0     C27629   8.233   0.685   8.611 -1.7548  0.2818 -0.3936
  946MOL0     C27630   8.134   0.763   8.680  0.2255 -0.1743 -0.0727
  946MOL0     C27631   8.069   0.704   8.796  0.1785  0.2653 -0.4524
  946MOL0     C27632   8.119   0.590   8.854 -0.4014 -0.3036  0.7405
  946MOL0     O27633   8.065   0.564   8.975 -0.4071 -0.2120 -0.7133
  946MOL0     C27634   7.950   0.480   8.967 -0.9261 -0.3967  1.0925
  946MOL0     C27635   7.883   0.481   9.104  0.4428  0.3721 -1.2265
  946MOL0     C27636   7.809   0.615   9.148  0.2798  0.7086  0.0167
  946MOL0     C27637   7.797   0.602   9.304 -0.2346  0.8488  0.9963
  946MOL0     C27638   7.766   0.733   9.367  0.2395  0.4447 -0.3911
  946MOL0     C27639   7.739   0.843   9.410 -0.1752  0.2066  0.2267
  946MOL0     C27640   8.224   0.523   8.793  0.1959 -0.1647 -0.2741
  946MOL0     C27641   8.273   0.558   8.666 -0.1496  0.2854 -0.2861
  946MOL0     C27642   8.390   0.469   8.619  0.6014  0.3458 -0.4344
  946MOL0     H27643   8.231   0.582   8.176  0.4714 -1.1807 -2.5814
  946MOL0     H27644   8.286   0.665   7.942  1.7137 -3.6324  0.5090
  946MOL0     H27645   8.456   0.696   7.766  0.8819 -2.7896  4.4242
  946MOL0     H27646   8.539   0.831   7.699 -2.0271 -1.8263 -1.9981
  946MOL0     H27647   8.670   0.632   7.788 -2.7801 -1.0715  0.2309
  946MOL0     H27648   8.591   0.663   7.948 -0.6588  0.9845 -0.3554
  946MOL0     H27649   8.818   0.747   7.965 -0.0717  0.5264  0.7343
  946MOL0     H27650   8.706   0.879   7.963  1.5868 -0.8058  1.3739
  946MOL0     H27651   8.868   0.781   7.713  0.7940 -1.0641  1.6082
  946MOL0     H27652   8.754   0.920   7.730  2.6528  3.1588  0.5755
  946MOL0     H27653   8.893   1.044   7.881 -0.1758  0.2248  1.5308
  946MOL0     H27654   8.984   0.891   7.918  0.7684 -0.4198 -1.5250
  946MOL0     H27655   9.103   0.905   7.700  0.4834  1.5468 -1.2279
  946MOL0     H27656   8.998   1.034   7.648 -0.0729 -0.8415 -0.0699
  946MOL0     H27657   9.215   1.054   7.853  0.2747  0.4843 -1.1497
  946MOL0     H27658   9.091   1.176   7.848  1.6506  3.6316 -1.7005
  946MOL0     H27659   9.273   1.135   7.603 -0.4212 -3.1039  1.5570
  946MOL0     H27660   9.123   1.224   7.604 -1.2310  0.2732  2.0875
  946MOL0     H27661   9.484   1.248   7.741 -0.9254  0.2160 -1.0405
  946MOL0     H27662   9.531   1.586   7.736 -2.7365  2.3152  1.6496
  946MOL0     H27663   9.504   1.608   7.901  2.2187  0.4156  1.1216
  946MOL0     H27664   9.686   1.395   7.794 -1.1404  0.8561 -1.3721
  946MOL0     H27665   9.729   1.543   7.886 -2.0535  0.9815 -2.8898
  946MOL0     H27666   9.617   1.283   7.971 -1.3251 -0.2317  0.5944
  946MOL0     H27667   9.560   1.423   8.053 -1.5580  3.5705 -5.9443
  946MOL0     H27668   9.759   1.471   8.154 -2.1479  0.1223 -1.8984
  946MOL0     H27669   9.852   1.396   8.028 -1.2294  3.3011 -1.7291
  946MOL0     H27670   9.638   1.430   8.356 -1.2833 -0.0064  4.7682
  946MOL0     H27671   9.500   1.351   8.528  0.9747 -1.5221  0.7510
  946MOL0     H27672   9.453   0.909   8.873  2.2729 -1.5610 -0.6655
  946MOL0     H27673   9.275   0.783   8.980 -0.1155 -0.5598 -0.7418
  946MOL0     H27674   8.875   0.669   8.789  0.2209 -1.0553 -1.6461
  946MOL0     H27675   9.000   0.543   8.754 -1.9076 -2.8993  1.8127
  946MOL0     H27676   8.999   0.469   8.986  0.4553  1.6077  0.6737
  946MOL0     H27677   8.880   0.588   9.024  2.0313  3.6487 -1.5666
  946MOL0     H27678   8.719   0.469   8.866 -1.1669 -2.0973 -1.3370
  946MOL0     H27679   8.844   0.390   8.779 -1.0715  0.7291 -0.1987
  946MOL0     H27680   8.740   0.326   9.059 -0.1732 -0.8233  0.6577
  946MOL0     H27681   8.896   0.261   9.010  0.7387  3.6338  1.1377
  946MOL0     H27682   8.747   0.093   8.922  0.9799  0.2400  1.2393
  946MOL0     H27683   8.753   0.199   8.773  0.8240  1.6505  0.3375
  946MOL0     H27684   8.554   0.171   9.004 -1.2725 -2.0986 -0.0312
  946MOL0     H27685   8.535   0.295   8.873  2.0087 -0.2296 -1.3539
  946MOL0     H27686   8.532  -0.019   8.857  0.5545 -1.4063 -2.7301
  946MOL0     H27687   8.542   0.071   8.711 -3.1794 -0.1002  0.0708
  946MOL0     H27688   8.344   0.187   8.711  2.4076  0.3106 -0.2119
  946MOL0     H27689   8.297   0.023   8.745 -1.5113  0.9733 -0.0110
  946MOL0     H27690   9.051   0.734   8.620 -2.1229  0.8058  2.6511
  946MOL0     H27691   9.271   0.839   8.499  3.4285  1.3489  0.9714
  946MOL0     H27692   9.587   0.936   8.419  2.9006 -0.1112  1.6799
  946MOL0     H27693   9.731   1.014   8.236  0.7172  0.2391 -0.7671
  946MOL0     H27694   8.524   0.976   8.121  1.4219 -0.7053 -0.6803
  946MOL0     H27695   8.495   0.862   8.337 -2.1664 -2.9460  2.4652
  946MOL0     H27696   8.080   0.848   8.639 -1.2420 -0.6839  0.7260
  946MOL0     H27697   7.983   0.757   8.837  0.1130  1.4539 -2.0325
  946MOL0     H27698   7.978   0.379   8.937  0.2462  0.2412 -0.0773
  946MOL0     H27699   7.889   0.518   8.884  2.9243  0.1159 -1.7656
  946MOL0     H27700   7.963   0.454   9.173  0.3890 -1.4442 -1.8302
  946MOL0     H27701   7.804   0.406   9.105 -1.0318  1.8564 -1.8214
  946MOL0     H27702   7.705   0.619   9.113  0.5831 -0.3194 -1.0300
  946MOL0     H27703   7.863   0.705   9.117 -1.3293  1.2720 -1.3501
  946MOL0     H27704   7.741   0.514   9.335  0.5387 -0.2853 -0.6616
  946MOL0     H27705   7.891   0.587   9.359  0.4446  0.5756 -0.2087
  946MOL0     H27706   7.731   0.947   9.431  0.6585  0.2556  0.3342
  946MOL0     H27707   8.273   0.439   8.843  2.3406  0.5461 -1.0367
  946MOL0     H27708   8.353   0.373   8.582  2.5330 -1.3476  1.6818
  946MOL0     H27709   8.450   0.516   8.540 -0.4984  0.7553 -1.0467
  946MOL0     H27710   8.459   0.452   8.702 -1.4862  0.5908  1.4402
  947MOL0     O27711   7.242   9.495   2.836 -0.1302 -0.6748 -0.0187
  947MOL0     C27712   7.270   9.614   2.817 -0.6146 -1.0239 -0.2224
  947MOL0     O27713   7.190   9.723   2.834 -0.3791  0.2660  0.0910
  947MOL0     C27714   7.059   9.706   2.875  0.2540  0.3393 -0.8471
  947MOL0     C27715   7.021   9.707   3.011 -0.6864 -1.2571 -0.4396
  947MOL0     C27716   6.892   9.669   3.042 -0.6220 -0.4306  0.3414
  947MOL0     C27717   6.791   9.635   2.949  0.2162 -0.3268  0.6067
  947MOL0     O27718   6.673   9.601   3.002  0.8224  0.1058  0.2355
  947MOL0     C27719   6.567   9.675   2.942 -0.1060 -0.6372 -0.1811
  947MOL0     C27720   6.455   9.689   3.041  0.5266 -0.9232 -0.1248
  947MOL0     C27721   6.331   9.775   2.975 -0.3380  0.0851  0.6639
  947MOL0     C27722   6.238   9.689   2.882 -1.5475 -0.2340  0.2177
  947MOL0     C27723   6.098   9.738   2.884  0.9017  0.2335  0.3452
  947MOL0     C27724   6.072   9.880   2.834 -0.2928 -0.2737 -1.1536
  947MOL0     C27725   6.066   9.888   2.674  0.7960 -0.0054 -0.3276
  947MOL0     C27726   5.925   9.851   2.612 -0.3515 -1.0262 -0.2692
  947MOL0     N27727   5.823   9.954   2.624  0.2275 -0.1460  0.1811
  947MOL0     C27728   5.832  10.086   2.588 -0.1968 -0.0298  0.1854
  947MOL0     C27729   5.705  10.139   2.592  0.1917 -0.0550  0.2904
  947MOL0     C27730   5.667  10.277   2.549 -0.5256  0.0548  0.5517
  947MOL0     C27731   5.529  10.331   2.600  0.4970  0.2175 -1.5655
  947MOL0     C27732   5.427  10.333   2.486 -0.1206 -0.4464 -0.5041
  947MOL0     C27733   5.370  10.201   2.444  0.2205  0.4364 -0.8328
  947MOL0     O27734   5.286  10.149   2.548 -0.2986 -0.2319 -0.8009
  947MOL0     C27735   5.153  10.121   2.525  1.0481 -0.0518  0.2347
  947MOL0     C27736   5.102  10.033   2.619  0.3558  0.4599  0.6357
  947MOL0     C27737   4.969   9.981   2.608 -0.4860 -0.6058  0.3298
  947MOL0     C27738   4.895  10.010   2.492  0.9155 -0.0880  0.0922
  947MOL0     C27739   4.754   9.968   2.474 -0.4321 -0.6732  0.3089
  947MOL0     O27740   4.694   9.934   2.585  0.3723  0.3549 -0.0102
  947MOL0     C27741   4.550   9.904   2.579  0.4771 -0.9885 -0.2487
  947MOL0     C27742   4.505   9.803   2.660  0.3782  0.8489  0.3464
  947MOL0     C27743   4.368   9.755   2.651  0.3307  0.2497 -0.8163
  947MOL0     C27744   4.282   9.804   2.551  0.6488 -0.9825 -0.6960
  947MOL0     O27745   4.158   9.746   2.532  0.4189 -0.6770 -0.4065
  947MOL0     C27746   4.059   9.830   2.469 -0.0238  0.1547  0.4530
  947MOL0     C27747   3.917   9.772   2.504 -0.4359  0.9347  0.8639
  947MOL0     C27748   3.888   9.631   2.455 -0.4433 -0.1891 -0.8115
  947MOL0     C27749   3.762   9.580   2.513  0.7027  0.3426  0.3930
  947MOL0     C27750   3.771   9.424   2.511 -1.0143 -0.1469  0.6450
  947MOL0     C27751   3.641   9.347   2.541 -0.0740  0.1855 -0.2675
  947MOL0     C27752   3.669   9.197   2.562  0.8204  0.1450  0.1431
  947MOL0     C27753   3.586   9.156   2.681  0.1754 -0.8873  0.9135
  947MOL0    Cl27754   3.650   9.192   2.848 -0.7492  0.1207 -0.1631
  947MOL0     C27755   4.319   9.923   2.479 -0.4036  0.2768  0.3440
  947MOL0     C27756   4.449   9.966   2.496 -1.1664 -0.5029  0.2556
  947MOL0     O27757   4.704   9.967   2.363 -0.2826 -0.6805  0.3285
  947MOL0     C27758   4.939  10.110   2.407  0.6106 -0.4405 -0.0980
  947MOL0     C27759   5.067  10.164   2.413  0.1724 -0.2430 -0.9519
  947MOL0     N27760   5.619  10.037   2.641 -0.3102 -0.1422 -0.6952
  947MOL0     N27761   5.690   9.933   2.658 -0.4185  0.0033  0.0618
  947MOL0     C27762   6.824   9.640   2.814 -0.1517  0.5301 -0.2353
  947MOL0     C27763   6.957   9.678   2.781 -0.0062 -0.4200 -1.3891
  947MOL0     C27764   7.408   9.644   2.772 -0.8754  0.1586  0.1006
  947MOL0     C27765   7.454   9.774   2.796 -0.3567 -0.6103 -0.1790
  947MOL0     C27766   7.593   9.816   2.778  0.6132 -0.7055  0.9731
  947MOL0     C27767   7.687   9.725   2.728 -0.7600 -0.5292 -0.2412
  947MOL0     O27768   7.818   9.748   2.706  0.0905  0.0989  0.0888
  947MOL0     C27769   7.863   9.708   2.571  0.1193 -0.0769  0.3156
  947MOL0     C27770   7.854   9.821   2.465 -1.4779 -0.2587  0.1978
  947MOL0     C27771   7.957   9.935   2.487 -0.4338 -0.1382  0.3151
  947MOL0     C27772   7.960   9.998   2.635 -0.2180 -0.2687 -0.1875
  947MOL0     C27773   8.055   9.914   2.720 -0.1089  0.9643  0.8063
  947MOL0     C27774   8.136   9.846   2.787 -0.3495  0.7601  0.1480
  947MOL0     C27775   7.645   9.583   2.705 -0.6981  0.2632 -0.5670
  947MOL0     C27776   7.512   9.548   2.726 -0.5996  0.0850 -0.3779
  947MOL0     C27777   7.479   9.407   2.691  1.2106 -1.6373  0.5957
  947MOL0     H27778   7.090   9.736   3.090 -0.7332 -1.7057 -0.2347
  947MOL0     H27779   6.864   9.653   3.146  1.0054 -1.0722  0.6993
  947MOL0     H27780   6.604   9.775   2.916 -0.5587 -1.0079 -2.3927
  947MOL0     H27781   6.523   9.623   2.857 -2.5042 -1.0632  1.2381
  947MOL0     H27782   6.488   9.739   3.132 -0.2323 -1.3125  0.3701
  947MOL0     H27783   6.421   9.589   3.066  0.8203 -0.8808  0.4377
  947MOL0     H27784   6.361   9.855   2.907 -0.2833 -0.1826  0.3697
  947MOL0     H27785   6.268   9.815   3.055  0.7668 -0.3056  1.7553
  947MOL0     H27786   6.284   9.697   2.783 -1.6132  1.1064  0.2742
  947MOL0     H27787   6.252   9.584   2.908 -1.2927  0.3453  2.7581
  947MOL0     H27788   6.031   9.663   2.842 -0.4460  2.8749 -2.6796
  947MOL0     H27789   6.061   9.740   2.987 -1.2194 -0.8694 -0.3382
  947MOL0     H27790   5.974   9.911   2.872 -1.1171 -1.5943 -2.0890
  947MOL0     H27791   6.149   9.955   2.852  0.4682 -1.0581 -1.0728
  947MOL0     H27792   6.145   9.830   2.626  0.4945  0.1594 -1.0453
  947MOL0     H27793   6.089   9.992   2.650 -3.1143  1.3199  0.8106
  947MOL0     H27794   5.935   9.829   2.505 -1.5749  1.3434 -0.9337
  947MOL0     H27795   5.882   9.761   2.657  1.6351 -1.3977  1.0465
  947MOL0     H27796   5.928  10.129   2.562  0.8869 -0.1081  3.6558
  947MOL0     H27797   5.749  10.341   2.583 -0.8549  0.2592  0.9774
  947MOL0     H27798   5.679  10.263   2.442 -0.6459 -1.2592  0.6950
  947MOL0     H27799   5.493  10.272   2.685  3.0878  0.7142 -0.0255
  947MOL0     H27800   5.556  10.431   2.636  1.7635  0.1150 -2.2002
  947MOL0     H27801   5.470  10.384   2.399  0.7447 -1.8465 -0.9273
  947MOL0     H27802   5.342  10.393   2.519 -0.6675 -0.7509 -1.3263
  947MOL0     H27803   5.452  10.129   2.435 -1.5990 -1.8240 -0.3227
  947MOL0     H27804   5.325  10.210   2.344  0.9826 -0.8130 -1.3065
  947MOL0     H27805   5.169   9.994   2.694  0.0515 -2.0962 -0.3163
  947MOL0     H27806   4.940   9.913   2.687 -0.6925 -3.8051 -2.2733
  947MOL0     H27807   4.567   9.757   2.736 -1.9550  1.9789  3.1220
  947MOL0     H27808   4.342   9.678   2.723  1.1080  1.9678  1.4412
  947MOL0     H27809   4.050   9.931   2.511 -0.6395  0.3897 -0.2198
  947MOL0     H27810   4.072   9.841   2.361 -0.7346 -1.0581  0.2247
  947MOL0     H27811   3.910   9.778   2.613  1.5565 -4.0103  1.5002
  947MOL0     H27812   3.853   9.844   2.453 -0.4780 -1.4814 -2.8310
  947MOL0     H27813   3.909   9.614   2.349  1.9735  2.2102 -0.8445
  947MOL0     H27814   3.963   9.569   2.506 -3.3109  0.2257  4.6135
  947MOL0     H27815   3.670   9.603   2.457  0.4087 -1.5200  0.0559
  947MOL0     H27816   3.749   9.597   2.620  3.6168  0.7049  0.7682
  947MOL0     H27817   3.859   9.389   2.566  0.6760  0.6665 -1.3846
  947MOL0     H27818   3.800   9.401   2.408 -2.2545  2.0948 -0.2792
  947MOL0     H27819   3.606   9.389   2.636  0.8227 -1.5470  0.8831
  947MOL0     H27820   3.560   9.366   2.469  0.5768 -0.9114 -1.3288
  947MOL0     H27821   3.775   9.176   2.581  1.1843  1.6189 -0.1234
  947MOL0     H27822   3.654   9.142   2.469  1.9199  1.3801 -0.8019
  947MOL0     H27823   3.483   9.190   2.665  0.3978 -1.1663 -1.5156
  947MOL0     H27824   3.567   9.048   2.685  2.7981 -1.3528  2.6940
  947MOL0     H27825   4.246   9.965   2.411  0.1040 -1.0428 -1.0799
  947MOL0     H27826   4.486  10.056   2.447  3.2329 -2.4051 -0.4119
  947MOL0     H27827   4.874  10.154   2.332  3.4572 -0.5275 -2.8138
  947MOL0     H27828   5.095  10.249   2.352 -1.4578  0.5995 -0.5998
  947MOL0     H27829   6.750   9.616   2.740  0.5814  0.2090 -0.8776
  947MOL0     H27830   6.991   9.673   2.678  2.3063  2.1837 -0.8698
  947MOL0     H27831   7.385   9.845   2.841 -0.8330 -2.0719  1.5259
  947MOL0     H27832   7.621   9.917   2.807 -0.0476  0.1784 -1.2347
  947MOL0     H27833   7.806   9.625   2.528  1.9602 -0.4126 -1.6904
  947MOL0     H27834   7.964   9.670   2.585 -0.1259 -0.3875  1.3043
  947MOL0     H27835   7.755   9.866   2.465 -0.4331  2.4776 -3.1781
  947MOL0     H27836   7.894   9.777   2.373  0.9281 -1.7866  1.8366
  947MOL0     H27837   7.926  10.022   2.429 -0.1306 -1.0833 -1.3175
  947MOL0     H27838   8.059   9.908   2.457 -0.5667 -0.6717  0.3404
  947MOL0     H27839   7.987  10.102   2.618 -0.9204 -0.0451  0.0042
  947MOL0     H27840   7.863   9.997   2.687 -1.6233 -0.4559 -2.6594
  947MOL0     H27841   8.196   9.781   2.849  1.9787  1.5710 -1.1304
  947MOL0     H27842   7.711   9.510   2.660 -2.4130 -0.5616 -1.8363
  947MOL0     H27843   7.549   9.345   2.634  1.7477 -1.3813  0.9747
  947MOL0     H27844   7.461   9.351   2.784 -2.8695 -2.2544 -0.3609
  947MOL0     H27845   7.382   9.401   2.641  0.8299  0.2289  1.0494
  948MOL0     O27846   3.922   2.809   0.214 -0.1124 -0.0554 -0.5138
  948MOL0     C27847   3.918   2.849   0.094  0.3486  0.1898 -1.0633
  948MOL0     O27848   4.024   2.887   0.018  1.0910 -0.3241 -0.4921
  948MOL0     C27849   4.142   2.818   0.041  0.1452 -0.5841 -0.8494
  948MOL0     C27850   4.266   2.881   0.021 -1.0189 -0.4508 -0.2415
  948MOL0     C27851   4.390   2.802   0.031  0.8915 -0.3222  0.4865
  948MOL0     C27852   4.386   2.679   0.091  0.2376  0.5854 -0.6468
  948MOL0     O27853   4.494   2.601   0.089 -0.4921 -0.2323 -0.0678
  948MOL0     C27854   4.518   2.490   0.183 -0.0893 -0.1617  0.3810
  948MOL0     C27855   4.663   2.493   0.217  0.9438 -0.1853  0.6431
  948MOL0     C27856   4.701   2.598   0.324  0.7186  0.0437  0.4531
  948MOL0     C27857   4.752   2.727   0.262 -0.4055 -0.1450  0.5301
  948MOL0     C27858   4.901   2.737   0.266 -0.2059  0.1910 -0.0386
  948MOL0     C27859   4.931   2.869   0.193  0.0238  0.2784  0.4530
  948MOL0     C27860   5.080   2.869   0.159 -0.6487 -0.1384 -0.5290
  948MOL0     C27861   5.183   2.929   0.256  0.5421 -0.2903  0.8155
  948MOL0     N27862   5.151   2.909   0.394 -1.2631 -0.1569  0.3063
  948MOL0     C27863   5.185   2.804   0.466 -0.3403  0.0631  0.1160
  948MOL0     C27864   5.122   2.822   0.585  0.3159  0.2909 -0.5173
  948MOL0     C27865   5.125   2.734   0.702 -0.4462 -0.3577 -1.0344
  948MOL0     C27866   5.208   2.797   0.822 -0.5192  0.8776  0.9620
  948MOL0     C27867   5.338   2.865   0.781 -0.7298  0.4692  0.5131
  948MOL0     C27868   5.435   2.766   0.713 -0.3593  0.6204  0.3051
  948MOL0     O27869   5.483   2.683   0.821 -0.6664  0.2495 -0.3851
  948MOL0     C27870   5.576   2.591   0.801 -0.3431  0.5176  0.5736
  948MOL0     C27871   5.629   2.562   0.675 -0.5876 -0.4350  0.1640
  948MOL0     C27872   5.750   2.487   0.669 -0.2027 -0.7214 -0.8673
  948MOL0     C27873   5.811   2.423   0.780  0.0886  0.4628 -0.6260
  948MOL0     C27874   5.930   2.332   0.778 -0.6795  0.5608 -0.8656
  948MOL0     O27875   5.978   2.278   0.893  0.3899  0.6506  0.6122
  948MOL0     C27876   6.085   2.187   0.887 -0.2305  0.2616  0.1906
  948MOL0     C27877   6.092   2.107   1.001  0.1105 -1.1042 -0.0162
  948MOL0     C27878   6.195   2.009   1.024  0.4041 -0.8437 -0.1689
  948MOL0     C27879   6.298   1.999   0.928  0.5453 -0.0863 -0.2927
  948MOL0     O27880   6.402   1.909   0.931 -0.0105  0.2867 -0.5106
  948MOL0     C27881   6.404   1.801   1.031  0.6649 -0.0884 -0.3135
  948MOL0     C27882   6.540   1.729   1.012 -0.1613 -0.4749 -0.4003
  948MOL0     C27883   6.649   1.820   1.070 -0.6189 -0.2203  0.4205
  948MOL0     C27884   6.777   1.748   1.065 -0.5012 -0.6536 -0.3913
  948MOL0     C27885   6.893   1.831   1.121 -0.1859 -0.5108  0.3506
  948MOL0     C27886   6.962   1.897   1.014 -1.7994 -0.0986  0.2459
  948MOL0     C27887   7.098   1.970   1.041 -0.8164  0.6386 -0.5315
  948MOL0     C27888   7.205   1.882   1.099 -0.0081 -0.2855  0.5674
  948MOL0    Cl27889   7.236   1.724   1.008  0.3544 -0.1825 -0.3032
  948MOL0     C27890   6.301   2.081   0.813  0.4657  0.2754  0.6318
  948MOL0     C27891   6.186   2.178   0.788  0.1601  0.0069  0.6254
  948MOL0     O27892   5.967   2.305   0.667  0.0893 -0.1359 -0.4016
  948MOL0     C27893   5.757   2.448   0.903 -0.3480 -1.2559 -0.7193
  948MOL0     C27894   5.646   2.536   0.911 -0.9403  0.3077 -0.3373
  948MOL0     N27895   5.079   2.949   0.586  0.6315 -1.5534  0.0070
  948MOL0     N27896   5.103   3.008   0.473  0.8354 -0.1676  0.2302
  948MOL0     C27897   4.263   2.623   0.122 -0.4682 -1.0082  0.2361
  948MOL0     C27898   4.146   2.690   0.097  1.0503  0.4141  0.5652
  948MOL0     C27899   3.786   2.846   0.031  0.5348 -0.4005  0.2344
  948MOL0     C27900   3.777   2.805  -0.103  0.7633 -0.0192  0.6340
  948MOL0     C27901   3.655   2.801  -0.166 -0.4579 -0.5259  0.6883
  948MOL0     C27902   3.532   2.837  -0.099  0.2295 -0.2540 -0.2082
  948MOL0     O27903   3.411   2.830  -0.163  0.2451  0.4703  0.5230
  948MOL0     C27904   3.365   2.953  -0.207  0.3040 -0.3319 -0.3128
  948MOL0     C27905   3.224   2.973  -0.150  0.9664  0.1567  0.6554
  948MOL0     C27906   3.137   3.084  -0.217  0.0007  0.5617 -0.4105
  948MOL0     C27907   3.062   3.043  -0.333  0.2743  0.1336  0.0848
  948MOL0     C27908   2.959   3.142  -0.376 -1.3574 -0.6330 -0.4078
  948MOL0     C27909   2.894   3.222  -0.424  0.5881  0.4693 -0.2392
  948MOL0     C27910   3.536   2.861   0.031 -0.6201 -0.7826 -0.2464
  948MOL0     C27911   3.661   2.871   0.100  0.1942  0.6847  0.1939
  948MOL0     C27912   3.659   2.923   0.237 -1.1946 -0.6596 -0.5365
  948MOL0     H27913   4.265   2.977  -0.031 -0.6340 -1.6727 -2.6319
  948MOL0     H27914   4.482   2.850  -0.001 -0.4110  0.9734 -1.5832
  948MOL0     H27915   4.474   2.493   0.283  1.9989  0.7668  1.3489
  948MOL0     H27916   4.494   2.394   0.137 -2.1723  0.4561  0.0652
  948MOL0     H27917   4.718   2.524   0.128  0.7101 -0.7788  0.2877
  948MOL0     H27918   4.688   2.390   0.241 -0.3095 -0.9172 -0.9369
  948MOL0     H27919   4.782   2.544   0.375  1.3229  0.9717  0.4867
  948MOL0     H27920   4.613   2.612   0.387 -0.7852 -0.8668 -1.3668
  948MOL0     H27921   4.699   2.747   0.168  0.7827  0.6038  0.0036
  948MOL0     H27922   4.707   2.810   0.317 -2.5247 -0.1107 -1.1210
  948MOL0     H27923   4.932   2.726   0.370 -1.8856 -3.0754  0.2550
  948MOL0     H27924   4.948   2.652   0.216 -0.0429 -0.1247  0.6402
  948MOL0     H27925   4.880   2.860   0.096 -1.1082  0.0916  1.0506
  948MOL0     H27926   4.912   2.958   0.254  0.7415  1.1919 -0.6117
  948MOL0     H27927   5.086   2.923   0.064 -2.7444 -0.5100 -0.9141
  948MOL0     H27928   5.109   2.771   0.122 -1.8058 -0.1653 -1.4195
  948MOL0     H27929   5.279   2.883   0.229 -0.1726 -0.2754 -2.0493
  948MOL0     H27930   5.191   3.038   0.252  0.4179 -0.0980  3.5554
  948MOL0     H27931   5.241   2.717   0.431 -1.8686 -0.8338 -0.1795
  948MOL0     H27932   5.026   2.705   0.737  0.9120 -1.1416  2.5635
  948MOL0     H27933   5.179   2.644   0.670  0.8783 -0.9195  2.3381
  948MOL0     H27934   5.152   2.875   0.875  0.4301  1.1363  1.6058
  948MOL0     H27935   5.228   2.721   0.898  3.2199  0.0131 -0.6806
  948MOL0     H27936   5.383   2.901   0.874  1.2589 -2.7483  0.9682
  948MOL0     H27937   5.310   2.938   0.705 -3.4154 -2.3303 -1.3988
  948MOL0     H27938   5.525   2.812   0.671  0.6933  2.0312  3.7274
  948MOL0     H27939   5.399   2.703   0.632  2.9405  1.1871 -1.7850
  948MOL0     H27940   5.580   2.615   0.594  0.2467  1.8787  1.0878
  948MOL0     H27941   5.804   2.468   0.577 -2.2064  0.1134 -2.2940
  948MOL0     H27942   6.015   2.121   1.076  0.4859  1.9917 -0.0841
  948MOL0     H27943   6.189   1.946   1.112  0.1148 -1.6166 -0.7297
  948MOL0     H27944   6.382   1.846   1.129  1.3957  1.8926 -0.9975
  948MOL0     H27945   6.329   1.725   1.010 -0.4365  0.3424  1.7729
  948MOL0     H27946   6.556   1.643   1.079  3.5780 -0.8174 -1.4584
  948MOL0     H27947   6.593   1.720   0.917  0.8670  2.0496 -0.1327
  948MOL0     H27948   6.644   1.917   1.019 -3.5193 -0.0461  0.8915
  948MOL0     H27949   6.624   1.855   1.170 -2.5849  1.3489 -0.5452
  948MOL0     H27950   6.807   1.730   0.961  2.8959 -0.7442  0.5171
  948MOL0     H27951   6.766   1.666   1.136  1.8409  0.7370  1.7403
  948MOL0     H27952   6.961   1.765   1.177  1.3287  0.7624  0.0824
  948MOL0     H27953   6.864   1.902   1.199  1.5648 -0.1686  0.7352
  948MOL0     H27954   6.990   1.831   0.931 -3.1974  0.6626 -0.8780
  948MOL0     H27955   6.901   1.970   0.959 -0.2612  0.4292 -0.8594
  948MOL0     H27956   7.082   2.047   1.117 -0.6112  0.5753 -0.4215
  948MOL0     H27957   7.131   2.017   0.948 -0.4931  0.8289 -0.3213
  948MOL0     H27958   7.291   1.947   1.115 -1.0655  2.6044 -3.7591
  948MOL0     H27959   7.182   1.850   1.201 -1.8839 -1.0651 -0.0469
  948MOL0     H27960   6.385   2.078   0.745  0.0557  3.5772 -0.2178
  948MOL0     H27961   6.199   2.241   0.700 -0.2020 -1.8015 -0.7856
  948MOL0     H27962   5.792   2.405   0.996  2.3338 -0.1445 -1.1575
  948MOL0     H27963   5.608   2.568   1.008  1.1983 -0.6407  0.9003
  948MOL0     H27964   4.261   2.525   0.168 -0.7169 -0.8145  0.6439
  948MOL0     H27965   4.056   2.631   0.112 -0.3015  2.6709  2.0061
  948MOL0     H27966   3.864   2.790  -0.166 -0.7662  2.6486 -2.4117
  948MOL0     H27967   3.648   2.769  -0.269  0.3661 -6.2462  2.0598
  948MOL0     H27968   3.360   2.939  -0.316 -1.8124  0.4229 -0.3648
  948MOL0     H27969   3.427   3.039  -0.179  1.8355 -2.2316  2.4907
  948MOL0     H27970   3.220   2.999  -0.044 -2.1930  2.8790  0.0359
  948MOL0     H27971   3.180   2.874  -0.165  1.9406 -0.2370  0.2754
  948MOL0     H27972   3.193   3.174  -0.241  1.7752 -0.7939 -1.6721
  948MOL0     H27973   3.062   3.113  -0.142  1.8090  0.3598  1.5679
  948MOL0     H27974   3.123   3.018  -0.420 -0.6845 -3.2809  0.2232
  948MOL0     H27975   3.014   2.947  -0.307  0.4039 -0.0513 -0.3591
  948MOL0     H27976   2.825   3.283  -0.479 -2.2622 -2.6320 -0.3686
  948MOL0     H27977   3.443   2.888   0.080  0.0757  0.1469  0.6190
  948MOL0     H27978   3.665   2.843   0.312 -0.2857  1.3894  1.6970
  948MOL0     H27979   3.747   2.987   0.249 -2.0030  0.2713  0.4584
  948MOL0     H27980   3.572   2.987   0.249 -0.8755 -0.0766 -1.1990
  949MOL0     O27981   9.867   8.496  10.219 -0.6403 -0.1463 -0.6610
  949MOL0     C27982   9.892   8.373  10.235  0.2422 -0.8648 -0.6136
  949MOL0     O27983  10.009   8.310  10.226 -0.3312 -0.6225  0.8256
  949MOL0     C27984  10.110   8.383  10.172 -0.6816 -0.2208  1.0603
  949MOL0     C27985  10.112   8.441  10.045 -1.2459 -0.6305 -0.5311
  949MOL0     C27986  10.228   8.504  10.005 -0.2545 -0.9106  0.0213
  949MOL0     C27987  10.350   8.497  10.070 -0.5204  0.7389 -0.2463
  949MOL0     O27988  10.458   8.562  10.002  0.5520 -0.7152 -0.4770
  949MOL0     C27989  10.574   8.573  10.083 -0.0403  0.1466 -1.1762
  949MOL0     C27990  10.669   8.461  10.042 -0.1000  0.6093 -0.0190
  949MOL0     C27991  10.806   8.487  10.109 -0.2758 -0.1456 -0.5441
  949MOL0     C27992  10.919   8.392  10.075 -0.3721  0.6259  0.0187
  949MOL0     C27993  11.054   8.422  10.140  0.0110 -0.1418 -0.1012
  949MOL0     C27994  11.045   8.433  10.296  0.2303  0.2927 -0.5532
  949MOL0     C27995  11.183   8.440  10.369  1.1147  0.4240 -0.6988
  949MOL0     C27996  11.162   8.528  10.488 -0.3866  0.9956  0.3193
  949MOL0     N27997  11.293   8.521  10.558  0.5416  0.1841  0.2775
  949MOL0     C27998  11.338   8.431  10.655 -0.6925  0.4546 -0.3556
  949MOL0     C27999  11.465   8.475  10.690  1.5816  0.0150  0.0394
  949MOL0     C28000  11.563   8.419  10.790  0.1756 -0.6335  0.0324
  949MOL0     C28001  11.685   8.346  10.729  0.2617  0.3362  0.1610
  949MOL0     C28002  11.626   8.232  10.636 -0.0963  0.0946 -0.0353
  949MOL0     C28003  11.740   8.177  10.563 -0.1645 -0.7424  1.0990
  949MOL0     O28004  11.826   8.097  10.647 -0.0058 -0.3231  0.0813
  949MOL0     C28005  11.933   8.042  10.590  0.1788  0.5068  0.2139
  949MOL0     C28006  11.967   8.044  10.450  0.0261  0.5781 -0.3297
  949MOL0     C28007  12.092   7.996  10.405  0.3175  0.1397 -0.8075
  949MOL0     C28008  12.195   7.954  10.500  0.6527  0.1888  0.2312
  949MOL0     C28009  12.328   7.921  10.448  0.7109  1.1767 -0.4277
  949MOL0     O28010  12.333   7.906  10.312 -0.1314 -0.0461  0.0177
  949MOL0     C28011  12.457   7.915  10.255 -0.4321  0.3086  0.4155
  949MOL0     C28012  12.509   7.814  10.180  0.6940  1.4511  0.2684
  949MOL0     C28013  12.624   7.837  10.101  0.0948  0.0906  0.9223
  949MOL0     C28014  12.682   7.959  10.090  1.0426 -0.9085  0.1272
  949MOL0     O28015  12.797   7.980  10.022  0.4604 -0.7928  0.5360
  949MOL0     C28016  12.872   8.098  10.039 -0.0744 -0.9576 -0.0907
  949MOL0     C28017  13.022   8.109   9.982  0.6006  0.3517  0.3328
  949MOL0     C28018  13.046   8.036   9.850  0.7235 -0.2166 -0.1382
  949MOL0     C28019  12.972   8.110   9.726  0.2845 -0.4819  0.1217
  949MOL0     C28020  12.992   8.041   9.595 -0.0172 -0.5410  0.3394
  949MOL0     C28021  13.125   8.038   9.526 -0.2761  0.3922 -0.8220
  949MOL0     C28022  13.101   7.947   9.404  0.4927 -0.5927 -1.1492
  949MOL0     C28023  13.216   7.953   9.304  0.1055 -0.4162  0.0618
  949MOL0    Cl28024  13.375   7.895   9.360  0.1031  0.0431 -0.0903
  949MOL0     C28025  12.624   8.070  10.163  0.0326  0.1716  0.1934
  949MOL0     C28026  12.515   8.048  10.241  0.3016  0.3476 -0.6055
  949MOL0     O28027  12.421   7.928  10.530 -0.5543  0.0157  0.3245
  949MOL0     C28028  12.159   7.940  10.638 -0.2995  0.8112  0.0832
  949MOL0     C28029  12.026   7.983  10.683 -0.6219  1.2214 -0.2020
  949MOL0     N28030  11.486   8.597  10.619  0.7218 -0.2049  0.3357
  949MOL0     N28031  11.387   8.615  10.530 -0.2652  0.6476 -0.2755
  949MOL0     C28032  10.354   8.436  10.198 -0.1136 -0.1506  0.0823
  949MOL0     C28033  10.229   8.380  10.249 -0.0610  0.0870  0.1540
  949MOL0     C28034   9.780   8.280  10.261  0.3227  0.5461  0.1780
  949MOL0     C28035   9.760   8.181  10.163 -0.1843 -0.0257 -0.2313
  949MOL0     C28036   9.661   8.086  10.177  0.1584  1.0327  0.2797
  949MOL0     C28037   9.585   8.068  10.289  0.6117 -1.0303 -0.4589
  949MOL0     O28038   9.483   7.979  10.309  0.1730 -0.2220  0.0393
  949MOL0     C28039   9.439   7.885  10.208 -0.5685  0.6009 -0.7240
  949MOL0     C28040   9.363   7.961  10.103  0.0240 -0.0563 -1.1259
  949MOL0     C28041   9.238   7.873  10.066 -0.5723  0.6624 -0.5341
  949MOL0     C28042   9.142   7.944   9.963  0.2091  0.3566 -0.2111
  949MOL0     C28043   9.073   8.066  10.007 -1.3014 -0.3946  0.1345
  949MOL0     C28044   9.000   8.147  10.060  0.0838  0.6135  0.0314
  949MOL0     C28045   9.602   8.173  10.382  1.1745  1.0645  1.3640
  949MOL0     C28046   9.697   8.270  10.375 -0.6415 -0.0433  0.4246
  949MOL0     C28047   9.694   8.367  10.484  0.0254  0.1342 -0.1006
  949MOL0     H28048  10.024   8.443   9.982  0.1332 -0.8685 -2.5520
  949MOL0     H28049  10.225   8.552   9.908  1.6632 -1.3942 -0.3348
  949MOL0     H28050  10.617   8.670  10.056 -0.8364  0.1870 -2.3759
  949MOL0     H28051  10.564   8.593  10.190  1.9614 -0.8583 -0.7572
  949MOL0     H28052  10.682   8.480   9.935  2.2619 -0.4098  0.0250
  949MOL0     H28053  10.634   8.360  10.063 -1.3653  1.4114  2.0920
  949MOL0     H28054  10.793   8.475  10.217  0.9214  0.5549 -0.3115
  949MOL0     H28055  10.845   8.583  10.076  2.2832  0.1054  2.6725
  949MOL0     H28056  10.887   8.296  10.117  1.1258  0.4879  0.9521
  949MOL0     H28057  10.931   8.373   9.968  1.2490  0.2674  0.2327
  949MOL0     H28058  11.111   8.336  10.103 -1.1970  0.1257 -2.8137
  949MOL0     H28059  11.098   8.510  10.093  3.5757 -3.0232 -2.7457
  949MOL0     H28060  10.987   8.525  10.311 -0.0796  0.0057  0.0657
  949MOL0     H28061  10.985   8.356  10.346  1.0608  0.1766  0.3045
  949MOL0     H28062  11.255   8.485  10.301  1.0355  1.6484 -0.0129
  949MOL0     H28063  11.235   8.351  10.407  1.7319  0.8120 -0.6277
  949MOL0     H28064  11.142   8.628  10.448 -0.8635 -0.3485 -3.1561
  949MOL0     H28065  11.077   8.490  10.545  0.4132 -3.9627 -1.3632
  949MOL0     H28066  11.295   8.341  10.696  2.9222 -0.6976  1.3211
  949MOL0     H28067  11.589   8.512  10.841 -1.2808 -0.6539  0.8555
  949MOL0     H28068  11.519   8.363  10.873  1.1423  0.5729  1.4178
  949MOL0     H28069  11.741   8.420  10.672  2.0102 -1.3150 -0.3809
  949MOL0     H28070  11.745   8.312  10.814 -1.4667  1.8669  2.0953
  949MOL0     H28071  11.553   8.280  10.569  0.5651 -2.4970 -2.8055
  949MOL0     H28072  11.580   8.152  10.694  1.2771 -0.1352  0.7750
  949MOL0     H28073  11.802   8.250  10.509  1.2960  0.3204  3.9852
  949MOL0     H28074  11.696   8.112  10.488 -1.3495  0.6521  0.5359
  949MOL0     H28075  11.910   8.102  10.378  0.2324  0.1270 -0.8675
  949MOL0     H28076  12.125   8.007  10.302  2.6003 -2.4400 -0.4709
  949MOL0     H28077  12.465   7.715  10.188 -0.1690  1.8751  0.8683
  949MOL0     H28078  12.667   7.744  10.064 -1.4611 -0.3353  0.0599
  949MOL0     H28079  12.821   8.184   9.995 -4.1059 -2.7115  0.6896
  949MOL0     H28080  12.879   8.124  10.145  0.3972  1.6489 -0.6923
  949MOL0     H28081  13.063   8.210   9.972  1.3492  0.0210  0.0042
  949MOL0     H28082  13.093   8.060  10.048  1.3516  1.1608  0.1493
  949MOL0     H28083  13.155   8.034   9.844  0.7424  1.5963 -0.9533
  949MOL0     H28084  12.999   7.937   9.857 -0.3900  0.2858 -0.4126
  949MOL0     H28085  13.014   8.210   9.717 -1.2658  0.2046  0.3324
  949MOL0     H28086  12.867   8.129   9.750 -0.1353 -1.0994 -1.0884
  949MOL0     H28087  12.928   8.099   9.528  2.1773  1.2847 -0.2732
  949MOL0     H28088  12.950   7.940   9.594 -0.7455 -0.2597 -2.0975
  949MOL0     H28089  13.158   8.141   9.511  0.9275  0.0458 -0.6683
  949MOL0     H28090  13.208   7.995   9.582 -0.3215 -0.4663 -1.3915
  949MOL0     H28091  13.012   7.976   9.348 -1.3759 -3.0513  0.3359
  949MOL0     H28092  13.079   7.845   9.438  1.1546 -1.5402 -3.4105
  949MOL0     H28093  13.180   7.911   9.210  0.8857  2.4490 -1.6423
  949MOL0     H28094  13.233   8.057   9.276 -3.2424 -0.2617 -1.9370
  949MOL0     H28095  12.662   8.171  10.155  4.0285 -0.9581  2.2376
  949MOL0     H28096  12.465   8.129  10.295  0.9539  0.4719 -0.1635
  949MOL0     H28097  12.231   7.898  10.708  0.5183 -0.2480 -1.3545
  949MOL0     H28098  12.005   7.989  10.789 -2.0440 -3.7866  0.0209
  949MOL0     H28099  10.448   8.425  10.251 -0.9174 -1.8907  1.2397
  949MOL0     H28100  10.225   8.350  10.353  1.2051  1.5473  0.6601
  949MOL0     H28101   9.827   8.174  10.078 -0.0558 -0.6804 -0.0830
  949MOL0     H28102   9.649   8.008  10.102  2.4162  2.2141 -1.4372
  949MOL0     H28103   9.371   7.814  10.256  1.4556 -0.1734  1.1389
  949MOL0     H28104   9.516   7.821  10.165 -0.2567 -0.1130  0.8253
  949MOL0     H28105   9.419   7.988  10.014 -1.1847 -0.2073 -1.9581
  949MOL0     H28106   9.332   8.058  10.141 -2.9633 -0.8469 -1.2784
  949MOL0     H28107   9.185   7.848  10.158  1.8166 -0.1066  0.7338
  949MOL0     H28108   9.264   7.775  10.025  0.4138  0.2940  0.8953
  949MOL0     H28109   9.203   7.980   9.880  1.5847 -0.4867  0.4047
  949MOL0     H28110   9.076   7.870   9.916  2.4928 -2.2158  0.3521
  949MOL0     H28111   8.933   8.213  10.111 -1.3824 -0.6379 -0.1890
  949MOL0     H28112   9.532   8.158  10.464 -1.3513  2.1195 -0.4787
  949MOL0     H28113   9.795   8.401  10.509  0.3874 -0.8125 -0.2248
  949MOL0     H28114   9.634   8.452  10.451  1.1078  1.3385  0.9279
  949MOL0     H28115   9.639   8.326  10.570  1.1565 -1.8804 -0.2653
  950MOL0     O28116   6.686   6.615   2.088  0.0539  0.1531  0.1099
  950MOL0     C28117   6.619   6.511   2.077  0.5916 -0.4080 -0.2679
  950MOL0     O28118   6.542   6.460   2.173 -0.0331 -0.3636  0.3405
  950MOL0     C28119   6.525   6.529   2.288  0.1917 -0.4078 -0.1905
  950MOL0     C28120   6.611   6.523   2.396 -0.0726 -0.2340 -0.6945
  950MOL0     C28121   6.583   6.583   2.515 -0.7008  0.3887 -0.1589
  950MOL0     C28122   6.464   6.651   2.540 -0.9790 -0.1477  0.3937
  950MOL0     O28123   6.438   6.700   2.668 -0.0157 -0.5029  0.1271
  950MOL0     C28124   6.320   6.769   2.708  0.7153 -0.7827  0.0636
  950MOL0     C28125   6.326   6.917   2.670 -0.4927 -0.0731  0.3133
  950MOL0     C28126   6.454   6.964   2.745  0.8081 -0.1129  1.0252
  950MOL0     C28127   6.430   7.109   2.786 -0.2295 -0.0521 -0.8994
  950MOL0     C28128   6.562   7.178   2.831 -0.1961  0.1376  0.3015
  950MOL0     C28129   6.613   7.129   2.958  0.3818 -0.0315  0.5872
  950MOL0     C28130   6.669   7.239   3.048  0.2100  0.5065 -1.3006
  950MOL0     C28131   6.561   7.333   3.100  0.3806  0.3811 -0.6541
  950MOL0     N28132   6.574   7.383   3.242 -0.9968 -0.3111 -0.3280
  950MOL0     C28133   6.660   7.484   3.290 -1.1272  1.0608  0.6734
  950MOL0     C28134   6.612   7.523   3.406  0.4178  0.1754  1.4377
  950MOL0     C28135   6.663   7.639   3.487  0.2113 -0.8526 -0.2217
  950MOL0     C28136   6.616   7.771   3.419  0.1916  0.3533  0.8298
  950MOL0     C28137   6.711   7.803   3.301 -0.8726  0.4977  0.0423
  950MOL0     C28138   6.697   7.950   3.266 -0.2029 -0.3100  0.8473
  950MOL0     O28139   6.699   8.035   3.390  0.3680  0.7201  0.3551
  950MOL0     C28140   6.695   8.168   3.371 -0.0328  0.1561  0.0521
  950MOL0     C28141   6.595   8.222   3.284 -0.4092 -0.5873  0.1267
  950MOL0     C28142   6.577   8.357   3.270  0.3397  0.8107  0.2313
  950MOL0     C28143   6.643   8.446   3.356 -0.1162 -0.2867  0.4675
  950MOL0     C28144   6.616   8.592   3.341  0.8633 -0.6758  0.5940
  950MOL0     O28145   6.670   8.675   3.438 -0.4861  0.5250  1.0441
  950MOL0     C28146   6.655   8.809   3.427 -0.4192  0.1496 -0.4133
  950MOL0     C28147   6.539   8.882   3.401  0.1934  0.9992 -0.7875
  950MOL0     C28148   6.536   9.025   3.404 -0.0515 -0.3647  0.2781
  950MOL0     C28149   6.651   9.098   3.427 -0.2817 -0.2630  0.5023
  950MOL0     O28150   6.650   9.230   3.452 -0.0025  0.3399  0.2417
  950MOL0     C28151   6.609   9.315   3.336 -0.7410 -0.3203 -0.5485
  950MOL0     C28152   6.713   9.426   3.303 -0.0441 -0.3566 -0.1925
  950MOL0     C28153   6.853   9.376   3.256 -0.5176 -0.0563  0.2981
  950MOL0     C28154   6.853   9.312   3.113 -0.2348 -0.5887  0.3069
  950MOL0     C28155   6.939   9.192   3.093 -0.5044 -0.5996 -0.6014
  950MOL0     C28156   7.076   9.214   3.097 -0.2779  0.1110 -0.0641
  950MOL0     C28157   7.153   9.073   3.082  0.1556 -0.3014 -0.2963
  950MOL0     C28158   7.274   9.080   3.174  0.7935 -0.2247  0.6618
  950MOL0    Cl28159   7.352   8.920   3.181 -0.5694 -0.0625 -0.1824
  950MOL0     C28160   6.766   9.028   3.447 -0.1613 -0.0388 -0.2346
  950MOL0     C28161   6.777   8.887   3.444  0.1214  0.0337  0.6644
  950MOL0     O28162   6.555   8.630   3.239 -0.9330  0.4737 -0.3041
  950MOL0     C28163   6.748   8.392   3.433  0.8282 -0.5574 -0.8070
  950MOL0     C28164   6.768   8.255   3.447 -0.2948 -0.4365 -0.3360
  950MOL0     N28165   6.501   7.445   3.432  0.2280  0.1626  0.2758
  950MOL0     N28166   6.468   7.374   3.330 -0.6091  0.5993  0.1721
  950MOL0     C28167   6.376   6.657   2.430 -0.2323  0.2297  0.1923
  950MOL0     C28168   6.404   6.605   2.307 -0.3279  0.4821  0.6728
  950MOL0     C28169   6.633   6.416   1.965 -1.2505  0.2621 -0.4373
  950MOL0     C28170   6.629   6.277   2.000  0.7245 -0.4055  1.0418
  950MOL0     C28171   6.679   6.183   1.915 -0.1313  0.7941 -0.7818
  950MOL0     C28172   6.736   6.215   1.800  0.3704 -1.1067  0.0966
  950MOL0     O28173   6.781   6.118   1.719 -0.0524  0.0339 -0.2286
  950MOL0     C28174   6.908   6.074   1.756 -0.2668  1.3637  0.5404
  950MOL0     C28175   7.015   6.160   1.699  0.1827 -0.0233  0.8669
  950MOL0     C28176   6.998   6.153   1.542 -0.1491  0.3129 -0.3109
  950MOL0     C28177   7.082   6.270   1.476  0.4142  0.1628  0.0476
  950MOL0     C28178   7.021   6.400   1.505 -0.3230  0.2054  0.0334
  950MOL0     C28179   6.966   6.504   1.525  0.5394  0.2068  0.6112
  950MOL0     C28180   6.741   6.349   1.762 -0.8528  0.1731 -0.5454
  950MOL0     C28181   6.679   6.452   1.838 -0.8611  0.0067 -0.2924
  950MOL0     C28182   6.702   6.596   1.784  0.0198 -0.3674 -0.1002
  950MOL0     H28183   6.714   6.492   2.382  0.2613  0.6980 -0.3765
  950MOL0     H28184   6.666   6.586   2.585 -1.4190 -1.6298  0.8748
  950MOL0     H28185   6.237   6.721   2.656 -0.6180  1.9024 -0.4767
  950MOL0     H28186   6.309   6.755   2.816 -1.8209  3.4651  0.6064
  950MOL0     H28187   6.244   6.975   2.712  0.1692  1.5156 -0.4919
  950MOL0     H28188   6.331   6.924   2.561 -2.2778 -3.6361 -0.1572
  950MOL0     H28189   6.540   6.959   2.677  0.5059 -0.8177  0.6822
  950MOL0     H28190   6.471   6.902   2.833  1.0652  1.5758  2.2197
  950MOL0     H28191   6.391   7.178   2.710 -0.7119  1.2066  0.4524
  950MOL0     H28192   6.356   7.110   2.867  1.0138  1.3751  0.2829
  950MOL0     H28193   6.632   7.153   2.751 -2.1221  1.7283 -2.0553
  950MOL0     H28194   6.537   7.285   2.834 -1.3868 -0.1466  1.4093
  950MOL0     H28195   6.537   7.075   3.015  2.4206 -3.4475  0.3410
  950MOL0     H28196   6.688   7.050   2.953 -1.1514 -1.5594  1.0832
  950MOL0     H28197   6.749   7.294   2.998  2.7329 -0.1969  1.6753
  950MOL0     H28198   6.720   7.191   3.133  1.5897 -1.2464 -3.0082
  950MOL0     H28199   6.551   7.425   3.042 -1.3767  2.0685  2.0907
  950MOL0     H28200   6.466   7.284   3.078  0.8833 -0.1523 -1.6792
  950MOL0     H28201   6.752   7.520   3.244 -0.8590 -1.8180 -1.2951
  950MOL0     H28202   6.629   7.617   3.589  1.7330 -1.1004  0.2612
  950MOL0     H28203   6.772   7.627   3.489  0.4087  0.8217  0.9507
  950MOL0     H28204   6.519   7.758   3.370  0.4820 -1.2388  0.6447
  950MOL0     H28205   6.593   7.848   3.494 -0.7231  2.6292 -1.6030
  950MOL0     H28206   6.684   7.740   3.216  1.9349  0.1565 -0.6915
  950MOL0     H28207   6.819   7.790   3.307 -0.9166  0.6489  2.1205
  950MOL0     H28208   6.598   7.958   3.220  0.8195 -0.3088 -1.4777
  950MOL0     H28209   6.776   7.978   3.196 -1.5569  1.5148 -0.0232
  950MOL0     H28210   6.533   8.167   3.214 -0.5031  0.6572 -0.7994
  950MOL0     H28211   6.493   8.388   3.208  1.0225  0.6519 -0.7989
  950MOL0     H28212   6.452   8.819   3.408 -0.8533  2.1896 -2.4052
  950MOL0     H28213   6.440   9.076   3.401 -0.0880 -0.4194  0.5043
  950MOL0     H28214   6.600   9.250   3.249 -0.7251 -0.7670 -0.2202
  950MOL0     H28215   6.514   9.363   3.363  0.8399  4.5119 -2.5716
  950MOL0     H28216   6.664   9.489   3.228 -0.2523  2.8602  2.4322
  950MOL0     H28217   6.733   9.492   3.388 -0.3508 -0.8733  0.2798
  950MOL0     H28218   6.932   9.452   3.249  1.1743 -1.8666 -1.4270
  950MOL0     H28219   6.895   9.316   3.336  3.3733  1.9188 -0.0373
  950MOL0     H28220   6.905   9.382   3.046  1.3658 -1.9564  0.0519
  950MOL0     H28221   6.751   9.291   3.081 -0.6056  0.2751  0.9006
  950MOL0     H28222   6.908   9.152   2.996 -1.8574 -1.5754  0.1984
  950MOL0     H28223   6.908   9.117   3.166  1.7593 -0.6660  0.3681
  950MOL0     H28224   7.102   9.282   3.015  0.6276 -0.9232 -0.6617
  950MOL0     H28225   7.109   9.255   3.193  1.6304  0.6296 -0.8847
  950MOL0     H28226   7.188   9.048   2.982 -0.5974 -0.5027 -0.5184
  950MOL0     H28227   7.089   8.992   3.118  2.9151 -1.8775  1.4707
  950MOL0     H28228   7.342   9.149   3.124  0.1746  0.1975  0.3956
  950MOL0     H28229   7.247   9.117   3.273 -1.1286 -1.4336  0.6499
  950MOL0     H28230   6.866   9.069   3.460  1.8472 -4.1047 -1.0662
  950MOL0     H28231   6.870   8.831   3.441  0.7054  1.0145 -1.3992
  950MOL0     H28232   6.799   8.465   3.496 -0.8120 -0.0009 -0.0708
  950MOL0     H28233   6.842   8.220   3.519  2.4483  1.3575 -2.0795
  950MOL0     H28234   6.277   6.702   2.438 -2.0457 -3.3830  0.3331
  950MOL0     H28235   6.325   6.607   2.231  0.7461 -2.3603 -0.6888
  950MOL0     H28236   6.607   6.244   2.101 -0.9470  0.1281  0.8790
  950MOL0     H28237   6.661   6.081   1.946  0.8660  0.6917 -0.5049
  950MOL0     H28238   6.927   5.980   1.704 -2.5666  0.6695  0.8410
  950MOL0     H28239   6.920   6.066   1.865 -2.6752  0.8750  0.8362
  950MOL0     H28240   7.111   6.116   1.728 -0.9916 -1.6711  2.5073
  950MOL0     H28241   7.005   6.259   1.743  0.6173 -0.0789  1.0904
  950MOL0     H28242   6.893   6.158   1.512  0.1066 -0.4455 -1.3924
  950MOL0     H28243   7.031   6.054   1.507 -0.2674  0.9552 -2.3746
  950MOL0     H28244   7.184   6.270   1.514  1.5623  0.8249 -2.7649
  950MOL0     H28245   7.068   6.259   1.368  2.4272 -0.5835 -0.1869
  950MOL0     H28246   6.902   6.589   1.534  3.0376  2.5535 -1.8799
  950MOL0     H28247   6.793   6.364   1.668  0.2121 -1.9797 -0.3616
  950MOL0     H28248   6.606   6.647   1.798 -1.0498 -2.0492 -0.9383
  950MOL0     H28249   6.783   6.657   1.823  0.4207 -1.2333  0.4504
  950MOL0     H28250   6.710   6.593   1.675 -1.9973  0.6218 -0.3279
  951MOL0     O28251   3.495   2.111   1.598  0.6021  0.1281 -0.4401
  951MOL0     C28252   3.447   2.078   1.710 -0.4320  0.2870  0.1950
  951MOL0     O28253   3.476   1.962   1.780 -0.7332  0.6173 -0.3351
  951MOL0     C28254   3.511   1.853   1.707 -0.4245  0.1897  0.0415
  951MOL0     C28255   3.411   1.750   1.693 -0.1727  0.1134 -1.1518
  951MOL0     C28256   3.450   1.621   1.633 -0.5891  0.1447  0.5301
  951MOL0     C28257   3.587   1.617   1.585  0.2022  0.3427  0.8341
  951MOL0     O28258   3.629   1.516   1.502  0.0654  0.4291 -0.4912
  951MOL0     C28259   3.575   1.382   1.512  0.1113 -0.9910 -0.1346
  951MOL0     C28260   3.685   1.291   1.460  0.6593  0.3101 -0.0436
  951MOL0     C28261   3.642   1.150   1.483 -0.2637 -0.7933 -0.2132
  951MOL0     C28262   3.713   1.043   1.395 -0.3867  0.7144 -0.1341
  951MOL0     C28263   3.659   0.906   1.442 -0.8733  0.3508  0.1634
  951MOL0     C28264   3.762   0.786   1.471  0.1567 -0.6315 -0.3819
  951MOL0     C28265   3.697   0.660   1.536 -0.3266  0.2225 -0.2432
  951MOL0     C28266   3.658   0.682   1.688 -0.8081  0.3398  0.4081
  951MOL0     N28267   3.762   0.739   1.778 -0.1154 -0.2351  0.1031
  951MOL0     C28268   3.781   0.869   1.794  0.0956  0.4362 -0.0633
  951MOL0     C28269   3.879   0.880   1.887  0.2677 -0.0465  0.1191
  951MOL0     C28270   3.912   1.016   1.939  0.8381 -0.0569 -0.4213
  951MOL0     C28271   3.945   1.119   1.825 -0.7418  0.4917  0.6863
  951MOL0     C28272   3.953   1.258   1.888 -0.6426 -0.4156 -0.7203
  951MOL0     C28273   3.820   1.330   1.901 -0.1200 -1.1202 -0.6360
  951MOL0     O28274   3.718   1.247   1.951  0.3343  0.7897  0.5880
  951MOL0     C28275   3.595   1.284   1.910  0.0408  0.0503  0.0045
  951MOL0     C28276   3.547   1.414   1.913  0.0435 -0.6229 -0.1405
  951MOL0     C28277   3.413   1.431   1.900  0.0148 -0.4583 -0.2225
  951MOL0     C28278   3.328   1.332   1.855  0.3506 -0.3951 -0.1070
  951MOL0     C28279   3.189   1.366   1.829  0.7886  0.7548  1.0188
  951MOL0     O28280   3.157   1.497   1.821 -0.5810  1.1703  0.4357
  951MOL0     C28281   3.025   1.539   1.801 -0.7191  0.0399  0.1149
  951MOL0     C28282   3.009   1.642   1.708  0.2967 -0.0065 -0.8017
  951MOL0     C28283   2.885   1.694   1.694 -0.0166 -0.6272  0.8536
  951MOL0     C28284   2.782   1.659   1.772  0.9921 -0.2365  0.1271
  951MOL0     O28285   2.671   1.739   1.768  0.2503 -0.1794 -0.3945
  951MOL0     C28286   2.545   1.674   1.787  0.0722 -0.6569 -0.3770
  951MOL0     C28287   2.428   1.748   1.725 -0.0450  0.3621  0.2944
  951MOL0     C28288   2.433   1.744   1.563 -0.8570  0.1368  0.0237
  951MOL0     C28289   2.304   1.805   1.503  0.8456  0.0165  0.9014
  951MOL0     C28290   2.276   1.785   1.358  0.3505  0.5915  0.2784
  951MOL0     C28291   2.192   1.901   1.301  0.0355  1.1149  1.0912
  951MOL0     C28292   2.161   1.852   1.161  0.3587 -0.5466  1.1206
  951MOL0     C28293   2.052   1.947   1.091 -1.2996  0.4180 -0.7205
  951MOL0    Cl28294   2.112   2.118   1.092 -0.3651 -0.1873 -0.5893
  951MOL0     C28295   2.792   1.545   1.853  0.0003 -0.5887  0.1703
  951MOL0     C28296   2.915   1.485   1.861 -0.3175  0.4412 -0.0049
  951MOL0     O28297   3.108   1.267   1.815  0.3119 -0.1135 -0.0012
  951MOL0     C28298   3.383   1.205   1.833  0.9461  0.5949 -0.6373
  951MOL0     C28299   3.505   1.180   1.868 -0.2650  0.6395 -0.3549
  951MOL0     N28300   3.918   0.754   1.933 -0.0136 -0.6287  0.8998
  951MOL0     N28301   3.846   0.672   1.859 -0.0820 -0.0035  0.3003
  951MOL0     C28302   3.673   1.727   1.602  0.1544  0.9833 -0.3583
  951MOL0     C28303   3.644   1.843   1.665  0.1538  0.6016 -0.1314
  951MOL0     C28304   3.375   2.183   1.791 -0.1904  1.1103  0.3138
  951MOL0     C28305   3.363   2.159   1.930 -0.0390  0.1495  0.8104
  951MOL0     C28306   3.313   2.260   2.006  0.5994  0.0722  0.3196
  951MOL0     C28307   3.249   2.369   1.950  0.4359 -0.3669  0.2110
  951MOL0     O28308   3.181   2.465   2.016  0.5018 -0.0856  0.1584
  951MOL0     C28309   3.193   2.470   2.159  0.1611  0.1706  0.7387
  951MOL0     C28310   3.097   2.573   2.233  0.3038 -0.7003  0.6713
  951MOL0     C28311   3.120   2.590   2.379  0.2648 -0.0351  0.1939
  951MOL0     C28312   3.012   2.677   2.450 -0.3524 -0.3423 -0.9343
  951MOL0     C28313   3.057   2.702   2.589 -1.0852 -0.7084 -0.6773
  951MOL0     C28314   3.109   2.730   2.699  0.3356 -0.9111 -0.2655
  951MOL0     C28315   3.258   2.387   1.818  0.0920  0.2547 -0.2209
  951MOL0     C28316   3.321   2.301   1.734  0.1634 -0.3058 -0.1294
  951MOL0     C28317   3.312   2.321   1.591  0.4809 -0.0087  0.3154
  951MOL0     H28318   3.307   1.772   1.716 -0.6272 -0.1740 -2.8176
  951MOL0     H28319   3.381   1.537   1.624  0.6895 -0.9248  0.4068
  951MOL0     H28320   3.542   1.357   1.614 -0.9753  0.3124 -0.1425
  951MOL0     H28321   3.485   1.377   1.450 -0.5828  0.6482  0.6775
  951MOL0     H28322   3.782   1.324   1.496  0.4126 -1.9076  3.0580
  951MOL0     H28323   3.700   1.306   1.352  1.6112 -1.0281 -0.1171
  951MOL0     H28324   3.536   1.144   1.457  0.1466 -2.2125 -1.7710
  951MOL0     H28325   3.652   1.133   1.591 -1.6280  1.4695  0.3439
  951MOL0     H28326   3.676   1.044   1.293  1.4472 -1.2494 -0.9024
  951MOL0     H28327   3.821   1.058   1.400 -0.6211  2.2825  0.9750
  951MOL0     H28328   3.603   0.922   1.535  0.4721 -0.9314  1.2444
  951MOL0     H28329   3.589   0.869   1.366  0.0966 -2.0603  0.3673
  951MOL0     H28330   3.802   0.751   1.375  2.5046 -1.7428  0.8903
  951MOL0     H28331   3.844   0.834   1.524 -0.7161 -0.8411  1.1951
  951MOL0     H28332   3.763   0.573   1.537  0.9845  1.1709 -1.1688
  951MOL0     H28333   3.611   0.636   1.473 -0.2423 -2.2214  0.4747
  951MOL0     H28334   3.565   0.740   1.684 -1.5196 -0.7800  0.0730
  951MOL0     H28335   3.637   0.579   1.718 -0.4280  0.4165  0.9520
  951MOL0     H28336   3.732   0.949   1.741 -0.5654 -0.4655 -0.8472
  951MOL0     H28337   3.825   1.048   1.996  2.1270  0.0820  1.5440
  951MOL0     H28338   4.002   1.008   2.001 -0.3301  0.4029  1.3940
  951MOL0     H28339   4.040   1.101   1.775  0.9265  0.5106  3.6140
  951MOL0     H28340   3.873   1.120   1.743 -0.6189  3.7147  0.5085
  951MOL0     H28341   4.014   1.325   1.826  1.8923 -5.5808 -4.5483
  951MOL0     H28342   4.005   1.257   1.984 -0.8660 -1.4064 -0.5996
  951MOL0     H28343   3.781   1.363   1.804 -3.1458  0.0923  0.8279
  951MOL0     H28344   3.830   1.409   1.976 -2.7244 -1.7704  0.5325
  951MOL0     H28345   3.608   1.498   1.943  1.4999 -1.7291  0.0606
  951MOL0     H28346   3.370   1.525   1.932 -2.2979 -2.6306  3.8893
  951MOL0     H28347   3.095   1.684   1.656  0.4309  0.2354 -0.3890
  951MOL0     H28348   2.873   1.774   1.622 -2.6619 -0.2579  1.6157
  951MOL0     H28349   2.547   1.572   1.747 -3.2996 -2.1022  2.6306
  951MOL0     H28350   2.518   1.676   1.893 -1.2257  0.2835 -0.6958
  951MOL0     H28351   2.340   1.699   1.767  0.9273  0.1202  2.1513
  951MOL0     H28352   2.432   1.853   1.754  2.1461  0.4492 -0.1776
  951MOL0     H28353   2.521   1.805   1.541  2.5118 -4.0737  0.5305
  951MOL0     H28354   2.451   1.645   1.521 -0.6920  0.4052 -0.5510
  951MOL0     H28355   2.327   1.910   1.520  1.7914  0.0415 -0.3723
  951MOL0     H28356   2.214   1.781   1.558 -0.5020 -0.4749 -1.3748
  951MOL0     H28357   2.215   1.694   1.349  1.7790 -0.3370 -0.4999
  951MOL0     H28358   2.371   1.775   1.303  0.4488  1.0555  0.3608
  951MOL0     H28359   2.103   1.924   1.359 -0.7587  4.8168 -1.2714
  951MOL0     H28360   2.247   1.995   1.289 -1.2023  1.4835 -2.7160
  951MOL0     H28361   2.104   1.759   1.160 -2.9611  1.3479  0.0276
  951MOL0     H28362   2.252   1.834   1.103 -1.4600 -3.5231 -1.1099
  951MOL0     H28363   2.046   1.920   0.985  1.4766  1.0711 -1.1395
  951MOL0     H28364   1.954   1.933   1.137 -0.2707 -0.8609  1.1946
  951MOL0     H28365   2.714   1.493   1.908 -0.0953 -1.6974 -0.9629
  951MOL0     H28366   2.931   1.401   1.929 -2.5759  1.0194  1.3479
  951MOL0     H28367   3.315   1.123   1.811 -0.6179  0.0552  4.9137
  951MOL0     H28368   3.544   1.079   1.864 -3.9614 -0.9352 -0.6449
  951MOL0     H28369   3.775   1.712   1.568  0.1709  1.8523 -0.7123
  951MOL0     H28370   3.713   1.922   1.692  0.8291 -0.0267  0.0239
  951MOL0     H28371   3.387   2.064   1.977  4.4033 -0.3135 -1.8510
  951MOL0     H28372   3.311   2.251   2.114 -1.5603 -0.4113  0.2964
  951MOL0     H28373   3.296   2.464   2.196 -0.1629 -3.0029  1.4176
  951MOL0     H28374   3.147   2.377   2.195 -3.3173  0.8656 -1.4276
  951MOL0     H28375   2.997   2.533   2.216  1.3340 -2.7434 -0.9090
  951MOL0     H28376   3.112   2.668   2.180 -2.5088 -0.9550 -0.7765
  951MOL0     H28377   3.215   2.637   2.404 -0.0095  2.4290 -2.7979
  951MOL0     H28378   3.114   2.494   2.432  3.5759 -0.0134  0.8321
  951MOL0     H28379   2.990   2.768   2.393  0.5488 -1.8452 -3.9503
  951MOL0     H28380   2.912   2.631   2.446 -1.9516  2.6901  0.6132
  951MOL0     H28381   3.166   2.743   2.789 -2.1004 -0.9112  1.3946
  951MOL0     H28382   3.199   2.471   1.781  0.4518 -0.0756 -1.5930
  951MOL0     H28383   3.234   2.393   1.565 -0.8921 -0.9835  1.5615
  951MOL0     H28384   3.413   2.353   1.561  1.2280 -0.4878  2.1629
  951MOL0     H28385   3.289   2.226   1.541  2.8523 -1.2918  1.4707
  952MOL0     O28386   8.397   0.596   5.207 -0.4337  0.6835  0.1324
  952MOL0     C28387   8.364   0.597   5.328  0.4497 -0.1427  0.3400
  952MOL0     O28388   8.403   0.687   5.425 -0.1061 -0.0048 -1.0400
  952MOL0     C28389   8.485   0.787   5.391 -0.1635  0.3949  0.1750
  952MOL0     C28390   8.440   0.893   5.317 -0.3644 -0.8864  0.7245
  952MOL0     C28391   8.537   0.989   5.282  0.2395 -0.0396  0.2426
  952MOL0     C28392   8.670   0.966   5.314 -0.3045  0.0023  0.0842
  952MOL0     O28393   8.772   1.046   5.277 -0.3483 -0.2505  0.3667
  952MOL0     C28394   8.738   1.176   5.233  0.3821 -1.1564  0.7443
  952MOL0     C28395   8.854   1.276   5.224  0.2668  0.4164  0.0178
  952MOL0     C28396   8.918   1.265   5.091 -0.0731  0.6826  0.0132
  952MOL0     C28397   9.058   1.334   5.082  0.0534  0.3286  0.2108
  952MOL0     C28398   9.053   1.490   5.086  0.1051  0.9246 -0.0173
  952MOL0     C28399   9.186   1.536   5.131  0.1897 -1.1924 -0.0975
  952MOL0     C28400   9.309   1.502   5.033 -0.0814 -0.3193  0.3641
  952MOL0     C28401   9.435   1.578   5.078  0.1873  0.2717 -0.6687
  952MOL0     N28402   9.430   1.720   5.047 -0.0175  0.1176 -0.4262
  952MOL0     C28403   9.442   1.824   5.138 -0.5155 -0.0372 -0.4073
  952MOL0     C28404   9.430   1.934   5.069  0.3755 -0.5491 -0.7730
  952MOL0     C28405   9.455   2.075   5.115 -0.0340  0.6630  0.4429
  952MOL0     C28406   9.330   2.152   5.174  1.1519  0.1173 -0.5273
  952MOL0     C28407   9.295   2.094   5.324 -0.3551 -0.3424  1.1893
  952MOL0     C28408   9.385   2.153   5.432  0.2478  0.1217 -0.3348
  952MOL0     O28409   9.348   2.094   5.562 -0.9347 -0.0551  0.4504
  952MOL0     C28410   9.376   2.177   5.672  0.2094  0.6879 -0.2192
  952MOL0     C28411   9.487   2.257   5.684 -0.0936 -0.6991  0.2370
  952MOL0     C28412   9.492   2.353   5.789  0.3289  0.1629  0.7533
  952MOL0     C28413   9.392   2.358   5.891  0.3331 -1.3773  0.1705
  952MOL0     C28414   9.416   2.453   6.001 -0.6249 -0.6018  0.2204
  952MOL0     O28415   9.521   2.546   5.981 -0.3939  0.1012  0.0772
  952MOL0     C28416   9.533   2.657   6.064  0.9064  1.6976  0.2574
  952MOL0     C28417   9.640   2.669   6.153  0.7177  0.3813  0.2789
  952MOL0     C28418   9.652   2.788   6.225 -0.3668  0.4252  0.0569
  952MOL0     C28419   9.575   2.902   6.192  0.0148 -0.0937  0.1469
  952MOL0     O28420   9.581   3.017   6.273  0.1492 -0.2115 -0.9389
  952MOL0     C28421   9.500   3.011   6.394 -0.1321 -0.1131 -0.2401
  952MOL0     C28422   9.519   3.129   6.488 -0.3359  0.7216  0.2795
  952MOL0     C28423   9.455   3.254   6.417  0.1952 -0.3423  0.9035
  952MOL0     C28424   9.526   3.316   6.296 -0.7115 -0.8620 -0.0446
  952MOL0     C28425   9.423   3.370   6.186  0.4540  0.0906 -1.1892
  952MOL0     C28426   9.486   3.391   6.047 -0.0274  0.3531 -0.2825
  952MOL0     C28427   9.392   3.449   5.949  0.7545  0.3754  0.1724
  952MOL0     C28428   9.455   3.542   5.845 -0.1509 -0.6796  0.9114
  952MOL0    Cl28429   9.311   3.592   5.737 -0.2126  0.0317 -0.2287
  952MOL0     C28430   9.475   2.890   6.100  0.2834  0.0709  0.0768
  952MOL0     C28431   9.444   2.767   6.039  0.2157 -0.6464  0.2386
  952MOL0     O28432   9.334   2.458   6.097  0.0151  0.0562 -0.9998
  952MOL0     C28433   9.287   2.265   5.883  0.2163 -1.0552 -1.5036
  952MOL0     C28434   9.276   2.179   5.780  0.0904 -0.5780  0.7249
  952MOL0     N28435   9.394   1.905   4.937  0.0842  1.1937 -0.7402
  952MOL0     N28436   9.415   1.776   4.922  0.2839  0.3328 -0.3955
  952MOL0     C28437   8.711   0.851   5.390 -0.5401 -0.2166  0.3059
  952MOL0     C28438   8.620   0.765   5.423  0.1345 -0.8213  0.6083
  952MOL0     C28439   8.286   0.479   5.363 -0.4834  0.2836 -0.0127
  952MOL0     C28440   8.356   0.359   5.389  0.7241  0.0101  0.3427
  952MOL0     C28441   8.280   0.244   5.412  0.6249 -0.4167  0.0468
  952MOL0     C28442   8.136   0.247   5.407  0.2816 -0.5268 -0.7589
  952MOL0     O28443   8.054   0.139   5.443  0.5858  0.3244  0.1802
  952MOL0     C28444   7.990   0.083   5.326  0.8075  1.9223 -0.8700
  952MOL0     C28445   7.891  -0.021   5.391  0.4516 -0.4739 -0.6651
  952MOL0     C28446   7.769   0.032   5.484 -0.2012 -0.0916  0.9911
  952MOL0     C28447   7.814   0.060   5.625  0.3507 -0.0573 -0.3760
  952MOL0     C28448   7.697   0.084   5.706  0.4722 -0.6141  0.0684
  952MOL0     C28449   7.594   0.109   5.770 -0.3031 -0.3480  0.1262
  952MOL0     C28450   8.076   0.365   5.383  1.1081 -0.9546  0.4702
  952MOL0     C28451   8.149   0.482   5.350  0.7926 -0.8520  0.5057
  952MOL0     C28452   8.068   0.608   5.326  0.0662  0.3972 -1.4275
  952MOL0     H28453   8.334   0.914   5.311 -0.4786 -1.2907  1.2042
  952MOL0     H28454   8.498   1.083   5.243 -2.5391 -0.8634  0.8006
  952MOL0     H28455   8.685   1.175   5.138  1.3284  4.0989 -0.1395
  952MOL0     H28456   8.673   1.221   5.309 -0.5406 -0.9601 -0.1353
  952MOL0     H28457   8.914   1.257   5.314  1.2980 -0.6551 -0.8694
  952MOL0     H28458   8.815   1.376   5.242  2.4275  0.7892  3.7543
  952MOL0     H28459   8.857   1.315   5.015  0.2349  1.2241  0.1176
  952MOL0     H28460   8.926   1.158   5.068  0.4812  0.6429  0.3789
  952MOL0     H28461   9.120   1.304   5.168 -0.7322  1.6659  1.2886
  952MOL0     H28462   9.104   1.302   4.988 -1.7297  0.1871 -0.6524
  952MOL0     H28463   9.029   1.518   4.983 -2.3751 -0.6690  0.0633
  952MOL0     H28464   8.976   1.532   5.151  0.2624 -0.0724  0.8335
  952MOL0     H28465   9.181   1.645   5.138  0.1281 -1.2736  1.4409
  952MOL0     H28466   9.201   1.513   5.237 -1.4252  4.7335  1.7597
  952MOL0     H28467   9.285   1.537   4.932 -2.0432 -1.3925  0.4139
  952MOL0     H28468   9.322   1.394   5.026  0.1115 -0.2172 -1.0737
  952MOL0     H28469   9.445   1.560   5.186 -3.4788 -1.6306 -0.4810
  952MOL0     H28470   9.524   1.542   5.026  0.0536 -0.3302 -0.4940
  952MOL0     H28471   9.474   1.810   5.241 -0.1266 -3.2284 -0.8730
  952MOL0     H28472   9.526   2.062   5.197  1.9278 -3.8066 -1.6039
  952MOL0     H28473   9.494   2.132   5.031 -0.1748 -0.2650 -0.2626
  952MOL0     H28474   9.345   2.260   5.180  0.5495  0.1249  2.4265
  952MOL0     H28475   9.244   2.132   5.108  2.1977 -0.1747 -1.8302
  952MOL0     H28476   9.311   1.986   5.314  1.3058 -0.2081  2.0943
  952MOL0     H28477   9.189   2.112   5.345  0.3679 -0.1594  5.4725
  952MOL0     H28478   9.388   2.263   5.432  2.2232  0.1180  0.0136
  952MOL0     H28479   9.488   2.117   5.426  0.8616  1.4355  1.4329
  952MOL0     H28480   9.551   2.278   5.599 -2.0146  1.8479 -0.7222
  952MOL0     H28481   9.567   2.430   5.776 -0.4592  0.6068 -1.5628
  952MOL0     H28482   9.712   2.593   6.182 -0.1212 -1.1263 -1.3739
  952MOL0     H28483   9.717   2.778   6.310 -3.0385 -2.1184  2.0014
  952MOL0     H28484   9.397   2.992   6.364  0.0910  2.1161 -2.7697
  952MOL0     H28485   9.538   2.920   6.443  1.2982  0.1003 -0.9090
  952MOL0     H28486   9.454   3.118   6.575 -2.6279  2.8733 -1.0298
  952MOL0     H28487   9.625   3.139   6.516 -0.4960 -1.2886  1.8095
  952MOL0     H28488   9.355   3.220   6.386 -0.4001  0.9462  1.3119
  952MOL0     H28489   9.432   3.339   6.482  4.1014  2.6108 -1.1462
  952MOL0     H28490   9.587   3.235   6.255 -0.9532 -1.3472  0.5408
  952MOL0     H28491   9.590   3.398   6.330  0.3883 -2.0742  0.9166
  952MOL0     H28492   9.382   3.463   6.228  1.2862 -2.1725  5.9386
  952MOL0     H28493   9.334   3.310   6.165 -1.2217  2.7895 -2.4597
  952MOL0     H28494   9.573   3.457   6.057 -0.6052  1.0257  0.4053
  952MOL0     H28495   9.518   3.292   6.013  1.4917  0.8946 -0.5353
  952MOL0     H28496   9.314   3.501   6.004  2.3374  1.7074  1.2288
  952MOL0     H28497   9.343   3.370   5.891  1.7256  1.6612 -2.6072
  952MOL0     H28498   9.491   3.638   5.885  0.3809 -0.7122  0.5341
  952MOL0     H28499   9.537   3.490   5.793  1.1417  0.0646  2.1313
  952MOL0     H28500   9.416   2.980   6.086  1.2721  0.4073 -2.5068
  952MOL0     H28501   9.352   2.770   5.983 -2.1801  3.3743  3.7651
  952MOL0     H28502   9.210   2.256   5.959  0.2748  0.2312 -1.2671
  952MOL0     H28503   9.186   2.119   5.776 -1.1934  1.2037  1.2322
  952MOL0     H28504   8.816   0.829   5.408 -0.3694 -0.5138 -0.9592
  952MOL0     H28505   8.661   0.674   5.466  1.0832  0.4037  2.4467
  952MOL0     H28506   8.463   0.359   5.409  0.5421 -0.1652  1.3833
  952MOL0     H28507   8.338   0.156   5.440  1.9620  0.4952  0.2472
  952MOL0     H28508   8.062   0.037   5.258 -0.4487  1.1071 -1.6777
  952MOL0     H28509   7.936   0.157   5.267  0.3121  1.0600 -1.5292
  952MOL0     H28510   7.949  -0.097   5.444  1.8019 -0.0763 -1.5418
  952MOL0     H28511   7.851  -0.087   5.313  1.1220 -2.9589  0.9637
  952MOL0     H28512   7.695  -0.049   5.483 -0.7746  0.2934 -2.6610
  952MOL0     H28513   7.731   0.125   5.442  1.0086  0.1403  0.3767
  952MOL0     H28514   7.866  -0.028   5.666 -2.4592 -0.9917  1.4809
  952MOL0     H28515   7.881   0.146   5.622  0.1981  0.0449 -2.6749
  952MOL0     H28516   7.512   0.121   5.837 -3.5496 -2.8508 -3.0069
  952MOL0     H28517   7.967   0.371   5.382  1.1811  2.1817 -1.7644
  952MOL0     H28518   8.109   0.708   5.345 -1.8964  1.4478 -2.3903
  952MOL0     H28519   8.017   0.612   5.229 -2.3442 -3.8523 -0.5852
  952MOL0     H28520   7.986   0.603   5.398 -0.0992 -0.1905 -1.6566
  953MOL0     O28521   1.730   7.364   3.132 -1.0994 -0.3153  0.0413
  953MOL0     C28522   1.769   7.418   3.027 -0.4376  0.1049  0.2592
  953MOL0     O28523   1.721   7.383   2.910 -0.2900 -0.3632 -0.2379
  953MOL0     C28524   1.615   7.281   2.914 -0.7746 -0.3278  0.7213
  953MOL0     C28525   1.649   7.149   2.877  0.9230 -0.2139  0.3590
  953MOL0     C28526   1.550   7.051   2.884  0.1308 -0.3464  0.6153
  953MOL0     C28527   1.418   7.083   2.902  0.1400  0.0419 -1.0989
  953MOL0     O28528   1.309   6.995   2.910 -0.2177  0.4735 -0.4555
  953MOL0     C28529   1.362   6.857   2.911 -0.6213  0.7772 -0.9116
  953MOL0     C28530   1.237   6.771   2.946  0.8207 -0.9969  0.1804
  953MOL0     C28531   1.138   6.778   2.827 -0.0137  0.0389  0.0990
  953MOL0     C28532   1.009   6.863   2.860  0.3246 -0.2880 -0.3081
  953MOL0     C28533   0.898   6.860   2.761  0.1473 -0.1026  1.3237
  953MOL0     C28534   0.917   6.959   2.651  0.2321 -0.0562 -0.0463
  953MOL0     C28535   0.809   6.935   2.555 -1.1036 -0.2312  0.2459
  953MOL0     C28536   0.813   7.024   2.423 -0.9580  0.0835 -0.5459
  953MOL0     N28537   0.705   6.997   2.331  0.3514 -0.0970  0.3645
  953MOL0     C28538   0.700   6.896   2.238  0.2645  0.6422 -0.0628
  953MOL0     C28539   0.570   6.889   2.218 -0.5715 -0.6043  1.8040
  953MOL0     C28540   0.493   6.792   2.130 -0.0994  0.3964 -0.3855
  953MOL0     C28541   0.559   6.689   2.038 -1.4571  0.6072 -0.0304
  953MOL0     C28542   0.449   6.586   2.004 -0.5587  0.0791 -0.0689
  953MOL0     C28543   0.513   6.467   1.929 -0.2130  0.4252  0.4034
  953MOL0     O28544   0.588   6.397   2.015 -0.0430  0.6690 -0.1667
  953MOL0     C28545   0.633   6.268   1.978 -0.7349 -0.5984  0.5788
  953MOL0     C28546   0.626   6.203   1.856  0.4408  0.8664 -0.0386
  953MOL0     C28547   0.660   6.064   1.835  0.6618  0.1649  0.2555
  953MOL0     C28548   0.709   5.986   1.940 -0.6527  0.4211  0.0222
  953MOL0     C28549   0.744   5.847   1.929 -0.4807 -0.0286  0.8004
  953MOL0     O28550   0.831   5.794   2.017 -0.4413 -0.1985 -0.2493
  953MOL0     C28551   0.881   5.665   2.018 -0.0677 -1.1779 -0.0171
  953MOL0     C28552   0.920   5.600   2.135 -1.3074 -0.0869 -0.1179
  953MOL0     C28553   0.969   5.465   2.141  0.4642  0.6917  0.3105
  953MOL0     C28554   0.974   5.392   2.019 -0.5265  0.2601 -0.3648
  953MOL0     O28555   1.016   5.257   2.016 -0.1328 -0.1274 -0.0060
  953MOL0     C28556   1.123   5.230   1.927 -0.1525 -0.9705  0.2659
  953MOL0     C28557   1.183   5.088   1.958  0.9960  0.0736  0.1855
  953MOL0     C28558   1.264   5.109   2.083 -0.3705 -0.0550 -0.1055
  953MOL0     C28559   1.315   4.977   2.138 -0.1520 -0.4387 -0.6209
  953MOL0     C28560   1.395   5.003   2.265 -0.1119 -0.6447 -0.1961
  953MOL0     C28561   1.343   5.027   2.400 -0.3312  0.4110 -0.0588
  953MOL0     C28562   1.450   5.077   2.498 -0.1751 -0.1564 -1.4418
  953MOL0     C28563   1.585   4.996   2.511  0.7716  0.5344 -0.0126
  953MOL0    Cl28564   1.648   5.004   2.677  0.5840  0.0833 -0.4742
  953MOL0     C28565   0.947   5.459   1.898  0.4602  0.0585  0.4072
  953MOL0     C28566   0.906   5.590   1.900 -0.1645  0.3559  0.3811
  953MOL0     O28567   0.694   5.790   1.835  0.0619  0.6704  0.7818
  953MOL0     C28568   0.721   6.057   2.063 -0.2354 -0.1627  0.1326
  953MOL0     C28569   0.690   6.190   2.085  0.2239 -1.3102  0.0910
  953MOL0     N28570   0.501   6.989   2.274  0.2085  0.3901 -0.4248
  953MOL0     N28571   0.581   7.053   2.356 -0.0353 -0.1443 -0.8114
  953MOL0     C28572   1.387   7.218   2.927 -0.3480  0.3476  0.8649
  953MOL0     C28573   1.483   7.314   2.938  0.1521  0.0456  0.3266
  953MOL0     C28574   1.871   7.530   3.042  0.5384  0.9161  0.1689
  953MOL0     C28575   1.879   7.616   2.927  0.4314  0.0027 -0.0305
  953MOL0     C28576   1.971   7.727   2.922  0.5517  0.4950  0.1188
  953MOL0     C28577   2.045   7.764   3.029 -0.0067  0.5796 -0.4720
  953MOL0     O28578   2.130   7.867   3.050 -0.2735 -0.3426  0.0080
  953MOL0     C28579   2.132   7.960   2.937 -0.0335 -0.2949  0.1883
  953MOL0     C28580   2.221   7.905   2.820 -0.1648 -0.0783 -1.3459
  953MOL0     C28581   2.188   7.988   2.693 -0.0166 -0.3258  0.1835
  953MOL0     C28582   2.265   7.929   2.575 -0.4760  0.6753  0.1093
  953MOL0     C28583   2.208   7.791   2.557  0.5430  0.8234 -0.3457
  953MOL0     C28584   2.171   7.679   2.570 -0.5890  0.2268  0.3281
  953MOL0     C28585   2.030   7.687   3.147 -0.4121 -0.9107  0.1479
  953MOL0     C28586   1.947   7.573   3.159  0.7638  0.2825  0.5023
  953MOL0     C28587   1.962   7.491   3.285  0.9544 -0.4317 -0.1128
  953MOL0     H28588   1.750   7.111   2.868  0.8246 -1.3189  2.8914
  953MOL0     H28589   1.581   6.948   2.873 -2.0623 -0.8464 -2.1064
  953MOL0     H28590   1.407   6.820   2.819 -0.1125 -1.7531  0.2764
  953MOL0     H28591   1.431   6.840   2.994 -1.1078 -1.7792 -0.9585
  953MOL0     H28592   1.196   6.794   3.044  1.5709 -0.0877  0.2917
  953MOL0     H28593   1.265   6.665   2.948  0.5053 -1.1365 -1.4795
  953MOL0     H28594   1.103   6.675   2.811  2.2625 -0.7633 -0.1313
  953MOL0     H28595   1.191   6.810   2.738  1.0853 -0.8577  0.4091
  953MOL0     H28596   0.968   6.815   2.950 -0.9751 -1.2553 -1.3783
  953MOL0     H28597   1.045   6.965   2.874 -0.6206  0.0260 -0.0872
  953MOL0     H28598   0.897   6.763   2.711 -1.2254 -0.3765  1.8339
  953MOL0     H28599   0.802   6.865   2.814 -1.5615 -5.5792 -0.5443
  953MOL0     H28600   0.908   7.060   2.692  0.5916 -0.9572  2.4753
  953MOL0     H28601   1.009   6.953   2.593 -2.2423  0.6544 -4.5446
  953MOL0     H28602   0.717   6.965   2.606 -2.1264 -0.1656 -1.5549
  953MOL0     H28603   0.815   6.830   2.523  2.3453 -0.6159  1.6599
  953MOL0     H28604   0.815   7.130   2.450 -2.7105 -0.6446  3.0373
  953MOL0     H28605   0.906   7.005   2.368  0.2756  0.7146  1.1935
  953MOL0     H28606   0.772   6.821   2.205 -0.1260 -0.0282  0.5794
  953MOL0     H28607   0.450   6.726   2.207  0.2996  0.4835 -0.0887
  953MOL0     H28608   0.416   6.855   2.083 -0.0285 -0.3425 -1.5239
  953MOL0     H28609   0.603   6.745   1.955 -0.3299 -0.4696 -0.1935
  953MOL0     H28610   0.643   6.632   2.078  0.2033  3.7123  1.2876
  953MOL0     H28611   0.372   6.636   1.944 -1.8436 -1.0841  0.5513
  953MOL0     H28612   0.385   6.561   2.090  2.2502 -0.6661  1.9612
  953MOL0     H28613   0.574   6.490   1.841  2.6906 -0.7188  1.9693
  953MOL0     H28614   0.426   6.404   1.907 -0.4047  0.5114  0.9014
  953MOL0     H28615   0.587   6.258   1.771  0.5685  0.9686 -0.0315
  953MOL0     H28616   0.632   6.005   1.748 -0.6433 -0.3293  0.9831
  953MOL0     H28617   0.894   5.655   2.225 -1.5648  4.3773 -2.6345
  953MOL0     H28618   0.986   5.404   2.229  0.7473  0.0155 -0.2011
  953MOL0     H28619   1.097   5.217   1.821  4.2122 -2.5406 -0.8304
  953MOL0     H28620   1.201   5.306   1.929  0.3990 -1.5340  0.7986
  953MOL0     H28621   1.107   5.012   1.976  2.0394 -0.6756  1.6425
  953MOL0     H28622   1.242   5.063   1.869  1.7608  2.9608 -0.2305
  953MOL0     H28623   1.354   5.165   2.055  1.0909 -1.9255  0.6610
  953MOL0     H28624   1.203   5.158   2.159  0.3369  0.2026  0.3031
  953MOL0     H28625   1.367   4.917   2.063  1.4744  0.9417 -0.6632
  953MOL0     H28626   1.230   4.919   2.174  0.1747 -0.8368 -0.4828
  953MOL0     H28627   1.458   5.090   2.244  1.4870 -1.8340 -0.5279
  953MOL0     H28628   1.463   4.917   2.270  0.4898 -0.2367 -1.0278
  953MOL0     H28629   1.257   5.095   2.399  1.4398  2.8002 -0.1637
  953MOL0     H28630   1.311   4.931   2.442 -0.5249 -0.0991 -1.3199
  953MOL0     H28631   1.403   5.062   2.595 -0.3570  2.1886 -1.1109
  953MOL0     H28632   1.464   5.185   2.488  0.8536  0.0526  1.4833
  953MOL0     H28633   1.565   4.893   2.481 -1.7215  1.2487 -1.1356
  953MOL0     H28634   1.654   5.043   2.440  1.5573  0.4960  0.7139
  953MOL0     H28635   0.957   5.418   1.798 -0.0235  0.8924  0.0083
  953MOL0     H28636   0.888   5.636   1.803 -0.9786  0.5710  0.6301
  953MOL0     H28637   0.757   6.009   2.154 -0.8520  1.2622  1.1598
  953MOL0     H28638   0.716   6.228   2.184  0.1036 -0.7875 -0.0735
  953MOL0     H28639   1.283   7.243   2.944 -0.7760 -1.0603  0.4703
  953MOL0     H28640   1.452   7.418   2.947  2.0991  0.4952  3.2693
  953MOL0     H28641   1.827   7.603   2.833 -1.4032  1.2290  0.7624
  953MOL0     H28642   1.971   7.780   2.827  2.2465 -0.6374 -0.5680
  953MOL0     H28643   2.163   8.062   2.964 -1.0527  0.1970 -0.4589
  953MOL0     H28644   2.030   7.967   2.899  0.9168 -0.4156 -2.6143
  953MOL0     H28645   2.180   7.808   2.792 -1.1195  0.3188 -1.3797
  953MOL0     H28646   2.328   7.908   2.839 -0.5331  2.1101  0.9095
  953MOL0     H28647   2.213   8.094   2.705 -0.2321 -0.2125 -0.3439
  953MOL0     H28648   2.082   8.000   2.667  0.2703 -0.5648 -1.1758
  953MOL0     H28649   2.256   7.993   2.486  0.7065 -1.8365 -1.9224
  953MOL0     H28650   2.367   7.921   2.613 -1.5652 -1.1310  2.9203
  953MOL0     H28651   2.131   7.583   2.597 -4.1730  1.3226 -0.5646
  953MOL0     H28652   2.095   7.712   3.230  3.2676 -0.7925 -2.5532
  953MOL0     H28653   1.915   7.549   3.366  5.3973  3.7311 -0.0318
  953MOL0     H28654   1.916   7.392   3.276 -3.5159  1.5075 -1.8860
  953MOL0     H28655   2.067   7.485   3.314  0.8199  2.2752  1.3124
  954MOL0     O28656   5.073   1.107   3.458  0.5562 -0.4186 -0.6266
  954MOL0     C28657   5.070   1.053   3.565 -0.4183  0.4179 -0.0363
  954MOL0     O28658   4.973   0.973   3.620  0.0577 -0.5997  0.2196
  954MOL0     C28659   4.876   0.939   3.527  0.1555  0.7927 -0.4053
  954MOL0     C28660   4.903   0.835   3.441  0.4928 -0.6428  0.2693
  954MOL0     C28661   4.799   0.783   3.348  0.3404  0.3761  0.5709
  954MOL0     C28662   4.679   0.856   3.332  0.2505 -0.0165 -0.5108
  954MOL0     O28663   4.581   0.844   3.240 -0.2251  0.4433 -0.1296
  954MOL0     C28664   4.611   0.782   3.114 -0.2055 -0.7762  0.8608
  954MOL0     C28665   4.513   0.834   3.000 -0.3808  0.2764 -0.0159
  954MOL0     C28666   4.562   0.962   2.949  0.5718  0.2868 -1.0454
  954MOL0     C28667   4.437   1.032   2.890 -0.0563 -0.2337  0.4919
  954MOL0     C28668   4.482   1.160   2.821 -0.0133  0.1912 -0.3496
  954MOL0     C28669   4.364   1.250   2.810 -0.9809 -1.1427  0.4276
  954MOL0     C28670   4.400   1.363   2.707  0.2636  0.9249 -1.0930
  954MOL0     C28671   4.379   1.502   2.756  0.0726 -0.6681  0.6395
  954MOL0     N28672   4.242   1.521   2.802  0.6157  0.4593 -0.0563
  954MOL0     C28673   4.192   1.522   2.931  0.3418  0.7497  1.5329
  954MOL0     C28674   4.063   1.542   2.912  0.7984  0.0959 -0.8899
  954MOL0     C28675   3.965   1.541   3.022 -0.2147 -0.3894 -0.0029
  954MOL0     C28676   3.988   1.453   3.142  0.5205  0.8446  0.2922
  954MOL0     C28677   4.002   1.300   3.114  0.1807  0.2787 -0.0936
  954MOL0     C28678   4.042   1.224   3.239  0.4907  0.3362  0.2117
  954MOL0     O28679   4.050   1.085   3.199  0.3946  0.3019  0.3440
  954MOL0     C28680   4.122   0.996   3.279 -1.6234  0.9759  0.3380
  954MOL0     C28681   4.184   0.889   3.217 -0.1797  0.0928  0.9091
  954MOL0     C28682   4.251   0.792   3.291 -0.6231  0.6956  0.6296
  954MOL0     C28683   4.265   0.817   3.431  0.2890 -0.0513 -1.1249
  954MOL0     C28684   4.340   0.714   3.513  0.0986  0.4699  1.0723
  954MOL0     O28685   4.366   0.592   3.453  0.4557  0.4396 -0.8247
  954MOL0     C28686   4.452   0.515   3.518  0.5713  0.1360  0.6680
  954MOL0     C28687   4.588   0.543   3.527 -1.0123 -0.3268  0.7724
  954MOL0     C28688   4.675   0.466   3.602 -0.6934  1.2418 -1.4255
  954MOL0     C28689   4.641   0.339   3.655 -0.0842  0.2444 -0.4048
  954MOL0     O28690   4.729   0.245   3.695  0.6554 -0.2438 -2.0432
  954MOL0     C28691   4.820   0.278   3.793 -0.6666  0.1080 -0.1286
  954MOL0     C28692   4.926   0.173   3.783  0.8566 -0.3419 -0.5203
  954MOL0     C28693   5.028   0.189   3.894  0.0925 -0.1022 -0.4035
  954MOL0     C28694   5.154   0.118   3.853 -0.1387  0.3495 -0.1751
  954MOL0     C28695   5.274   0.154   3.942  0.5993  0.5172 -1.3004
  954MOL0     C28696   5.296   0.300   3.962  1.1945  0.3797 -0.2733
  954MOL0     C28697   5.436   0.334   4.029 -0.1669  0.0091 -0.6402
  954MOL0     C28698   5.556   0.294   3.947  0.1221  0.8426 -0.9335
  954MOL0    Cl28699   5.688   0.373   4.030  0.2311  0.0919 -0.1233
  954MOL0     C28700   4.504   0.312   3.641 -0.0755 -0.9439 -0.2362
  954MOL0     C28701   4.410   0.401   3.576 -0.1411  0.3181  0.6136
  954MOL0     O28702   4.360   0.742   3.630 -0.2266  1.0102  0.7559
  954MOL0     C28703   4.205   0.932   3.491  0.7985 -0.2772 -0.4397
  954MOL0     C28704   4.143   1.024   3.411  0.1850 -0.1088 -0.9014
  954MOL0     N28705   4.028   1.532   2.781  0.3098 -0.1424 -0.4119
  954MOL0     N28706   4.136   1.520   2.714  0.1957  0.2440 -0.5525
  954MOL0     C28707   4.663   0.965   3.421  0.2078  0.6184  0.2923
  954MOL0     C28708   4.762   1.015   3.511  0.4646 -0.2956  0.8165
  954MOL0     C28709   5.186   1.076   3.657 -0.5239 -0.6578  0.5903
  954MOL0     C28710   5.249   0.965   3.709  0.3522  0.0918 -0.1084
  954MOL0     C28711   5.342   0.981   3.811  1.0108 -0.3869  0.0110
  954MOL0     C28712   5.390   1.109   3.840 -0.2234 -1.2565  0.1887
  954MOL0     O28713   5.489   1.100   3.937  0.0784 -0.0047  0.0959
  954MOL0     C28714   5.597   1.187   3.920 -0.0145  0.2228 -0.5760
  954MOL0     C28715   5.710   1.084   3.922  0.3620 -0.1986  0.6251
  954MOL0     C28716   5.842   1.164   3.919  0.1782 -0.4022 -0.3771
  954MOL0     C28717   5.852   1.269   3.808 -0.1642 -0.1675  0.5033
  954MOL0     C28718   5.989   1.330   3.821  0.8725  0.2212  0.3144
  954MOL0     C28719   6.095   1.403   3.829  0.1285 -0.0171  0.6703
  954MOL0     C28720   5.324   1.228   3.789 -0.8826  0.0505 -0.3562
  954MOL0     C28721   5.231   1.205   3.697 -0.0569 -1.3082  0.4992
  954MOL0     C28722   5.163   1.322   3.638 -0.0706 -1.2635  0.8458
  954MOL0     H28723   4.999   0.790   3.462  1.4184  2.0082  2.2769
  954MOL0     H28724   4.815   0.697   3.284 -2.3762  2.0222 -2.6105
  954MOL0     H28725   4.711   0.823   3.095 -2.0057  4.1646  0.7118
  954MOL0     H28726   4.587   0.676   3.128  0.0237 -1.1472 -1.2655
  954MOL0     H28727   4.416   0.843   3.050 -1.0650 -0.1284 -1.2332
  954MOL0     H28728   4.511   0.764   2.916  0.0851  0.3031 -0.0524
  954MOL0     H28729   4.645   0.949   2.879  1.2137 -1.1662 -0.0641
  954MOL0     H28730   4.607   1.016   3.033  1.3729  0.7469 -1.7475
  954MOL0     H28731   4.398   0.963   2.815 -0.1794  0.2602  0.0940
  954MOL0     H28732   4.363   1.058   2.965 -2.5353  0.8225 -2.1323
  954MOL0     H28733   4.560   1.213   2.876 -1.0077  2.0754 -0.6990
  954MOL0     H28734   4.528   1.127   2.727 -0.1650  2.5261 -1.2992
  954MOL0     H28735   4.277   1.199   2.769 -3.0977  2.1068  0.5439
  954MOL0     H28736   4.339   1.280   2.912 -0.7805 -1.1195  0.4701
  954MOL0     H28737   4.329   1.348   2.624 -1.0418 -4.7585  0.5517
  954MOL0     H28738   4.506   1.358   2.683  0.4580  1.8628 -0.4619
  954MOL0     H28739   4.444   1.518   2.842 -1.3218  0.6179  1.5004
  954MOL0     H28740   4.411   1.571   2.677 -0.8399  1.3575  1.9668
  954MOL0     H28741   4.239   1.520   3.029 -0.1920 -3.1440  1.8624
  954MOL0     H28742   3.959   1.642   3.063 -3.3412 -0.8217  0.9041
  954MOL0     H28743   3.866   1.525   2.977  0.6536 -1.2267 -1.7459
  954MOL0     H28744   4.074   1.490   3.197 -0.6183  0.7707  2.2337
  954MOL0     H28745   3.903   1.468   3.209 -0.1352  2.3242 -0.8156
  954MOL0     H28746   4.083   1.279   3.043  0.4667 -2.6821  0.9650
  954MOL0     H28747   3.907   1.260   3.076 -0.1476 -2.8448  3.4606
  954MOL0     H28748   3.965   1.221   3.317  0.2134  1.3780 -0.0082
  954MOL0     H28749   4.133   1.260   3.288 -1.9041  3.6054  2.7711
  954MOL0     H28750   4.185   0.883   3.109 -1.0409 -1.0034  0.9457
  954MOL0     H28751   4.297   0.703   3.250  1.2996  0.7981  2.3865
  954MOL0     H28752   4.624   0.641   3.499 -0.4062 -0.4744  1.0125
  954MOL0     H28753   4.776   0.505   3.614  1.0587 -3.3217  1.1961
  954MOL0     H28754   4.864   0.378   3.794  0.9105 -0.5495 -0.5652
  954MOL0     H28755   4.771   0.266   3.891 -1.0867 -0.7156 -0.4330
  954MOL0     H28756   4.885   0.071   3.780 -0.8641  0.2516  0.9831
  954MOL0     H28757   4.971   0.195   3.686 -2.5838  1.6988 -1.8615
  954MOL0     H28758   5.035   0.293   3.927 -2.1838 -0.1851  0.5479
  954MOL0     H28759   4.991   0.142   3.986 -1.0038 -0.5606 -1.0563
  954MOL0     H28760   5.176   0.131   3.747  2.4890 -2.3742 -0.0739
  954MOL0     H28761   5.123   0.013   3.854 -1.9609  0.8511 -0.4060
  954MOL0     H28762   5.366   0.120   3.894  1.9508 -1.9159  2.5462
  954MOL0     H28763   5.267   0.105   4.040 -0.5435  1.8839 -0.6552
  954MOL0     H28764   5.280   0.363   3.874  2.7614 -0.6601 -1.3605
  954MOL0     H28765   5.222   0.344   4.030 -1.3933 -2.6781 -0.8669
  954MOL0     H28766   5.446   0.299   4.133 -3.3933 -0.6432 -0.4431
  954MOL0     H28767   5.425   0.443   4.028 -1.9928 -0.0922  1.2348
  954MOL0     H28768   5.571   0.186   3.956 -1.0197  0.7192 -0.2661
  954MOL0     H28769   5.540   0.334   3.847 -0.6863  2.3904 -0.2224
  954MOL0     H28770   4.470   0.220   3.686 -0.9114 -2.6081 -3.9055
  954MOL0     H28771   4.308   0.367   3.561  1.0571 -5.4559  2.7092
  954MOL0     H28772   4.201   0.948   3.598 -2.3995  1.0761 -0.6401
  954MOL0     H28773   4.111   1.108   3.471  1.2455 -2.1546  2.8366
  954MOL0     H28774   4.572   1.024   3.421 -0.8723 -0.9204  2.5998
  954MOL0     H28775   4.742   1.107   3.564  0.9133  0.1015  0.3078
  954MOL0     H28776   5.217   0.869   3.671 -3.0280  1.3335 -0.7545
  954MOL0     H28777   5.380   0.899   3.871 -0.7532  0.1979  2.0521
  954MOL0     H28778   5.611   1.266   3.994  1.6778 -0.2809 -0.3124
  954MOL0     H28779   5.592   1.235   3.821 -1.4281  1.4869  0.0608
  954MOL0     H28780   5.713   1.024   3.831  3.1619 -1.4660  1.4237
  954MOL0     H28781   5.716   1.020   4.011 -1.7080 -2.2933 -0.6413
  954MOL0     H28782   5.920   1.087   3.917 -3.7364 -5.1193  3.3204
  954MOL0     H28783   5.852   1.217   4.015 -0.4796  1.4665 -1.2965
  954MOL0     H28784   5.831   1.231   3.707  1.6422  0.6282 -0.2140
  954MOL0     H28785   5.768   1.339   3.814 -0.4671 -0.4932  0.1744
  954MOL0     H28786   6.191   1.452   3.837  0.4600  0.0635 -2.6162
  954MOL0     H28787   5.346   1.331   3.818  0.3937 -0.4173  0.4164
  954MOL0     H28788   5.057   1.334   3.661 -0.3883  1.6402 -1.4763
  954MOL0     H28789   5.205   1.417   3.671 -0.4170  0.0390 -2.1321
  954MOL0     H28790   5.175   1.326   3.530 -3.2550  0.8148  0.4316
  955MOL0     O28791   1.211   6.105  10.997 -0.1396  0.1502 -1.2064
  955MOL0     C28792   1.128   6.016  10.983  0.3916 -0.0397  0.6492
  955MOL0     O28793   1.159   5.882  10.996  0.0828  0.1212  0.2937
  955MOL0     C28794   1.286   5.838  11.017 -1.0350  0.3119 -0.4297
  955MOL0     C28795   1.399   5.902  10.975 -0.5271  0.3763  0.9317
  955MOL0     C28796   1.525   5.873  11.016 -0.4956  0.1901 -0.0045
  955MOL0     C28797   1.547   5.766  11.104 -0.9153 -0.0837 -0.8305
  955MOL0     O28798   1.673   5.722  11.136  0.1148  0.7464  0.3583
  955MOL0     C28799   1.779   5.815  11.159 -0.0764 -0.1112 -0.0899
  955MOL0     C28800   1.859   5.767  11.265  0.0113 -0.9852 -0.0186
  955MOL0     C28801   1.922   5.870  11.364  0.0612 -0.7226 -0.6670
  955MOL0     C28802   2.022   5.976  11.314  0.8163  0.0323 -0.1008
  955MOL0     C28803   2.154   5.910  11.279  0.0753  0.2807 -0.4146
  955MOL0     C28804   2.245   6.020  11.205 -0.2786  0.3196  0.5010
  955MOL0     C28805   2.377   5.963  11.159 -0.6725 -0.1695 -0.9198
  955MOL0     C28806   2.429   6.039  11.036  0.2004 -0.1171 -0.8426
  955MOL0     N28807   2.367   6.002  10.907  0.4102 -0.0934  0.4817
  955MOL0     C28808   2.250   5.925  10.884  0.1734  0.0041 -0.0629
  955MOL0     C28809   2.252   5.888  10.754 -0.1850  0.0639  0.3993
  955MOL0     C28810   2.143   5.819  10.678  0.0166  0.4810 -0.9627
  955MOL0     C28811   2.186   5.732  10.563 -0.9975 -0.1907  0.2688
  955MOL0     C28812   2.302   5.635  10.586  0.5923 -0.8779 -0.4291
  955MOL0     C28813   2.321   5.541  10.468  0.5784  0.3981  0.2675
  955MOL0     O28814   2.220   5.443  10.477 -0.1590  0.6679 -0.4941
  955MOL0     C28815   2.206   5.362  10.375 -0.5535  0.5911  0.3960
  955MOL0     C28816   2.095   5.277  10.378 -0.3044  0.3048 -0.2408
  955MOL0     C28817   2.068   5.183  10.278 -0.7753  0.7355 -0.5148
  955MOL0     C28818   2.156   5.163  10.167  0.2231  0.2083 -0.1927
  955MOL0     C28819   2.120   5.065  10.066  0.2578  0.7127  0.4995
  955MOL0     O28820   2.212   5.051   9.960  1.3879  0.4101  0.9670
  955MOL0     C28821   2.204   4.937   9.880  1.1639 -0.9338 -0.4761
  955MOL0     C28822   2.086   4.886   9.813 -0.6879 -0.3995 -0.1214
  955MOL0     C28823   2.099   4.784   9.723 -0.4865  1.2295  0.5447
  955MOL0     C28824   2.221   4.723   9.694 -0.0583  0.2719 -0.3722
  955MOL0     O28825   2.228   4.634   9.588  0.5613  0.3697 -0.4209
  955MOL0     C28826   2.324   4.538   9.580  0.7405  1.0838 -0.3231
  955MOL0     C28827   2.267   4.429   9.668  0.1674 -0.3343 -0.2662
  955MOL0     C28828   2.285   4.294   9.608 -0.6946 -0.1788  0.8143
  955MOL0     C28829   2.236   4.171   9.693  0.6315 -0.6638  0.1987
  955MOL0     C28830   2.305   4.038   9.649  1.0788  0.0840 -0.8126
  955MOL0     C28831   2.211   3.922   9.676  1.0590  0.2841  0.0040
  955MOL0     C28832   2.113   3.891   9.557  0.2042  0.2885  0.7527
  955MOL0     C28833   2.025   3.765   9.601 -0.0435  0.5260  0.0570
  955MOL0    Cl28834   1.960   3.770   9.762  0.1420  0.6479 -0.3988
  955MOL0     C28835   2.338   4.769   9.757  0.2587  0.5464  0.1594
  955MOL0     C28836   2.327   4.869   9.850  0.3586  0.4361 -1.2060
  955MOL0     O28837   2.017   5.000  10.070  0.1123  0.2652 -0.3537
  955MOL0     C28838   2.268   5.246  10.171  0.5344  0.7128  0.5339
  955MOL0     C28839   2.290   5.339  10.269 -0.0456 -0.8755 -0.8717
  955MOL0     N28840   2.363   5.951  10.692 -0.5607  0.2342 -0.2474
  955MOL0     N28841   2.433   6.007  10.788  0.6818 -0.7035 -0.3999
  955MOL0     C28842   1.437   5.694  11.143 -0.7984 -0.5972  0.9603
  955MOL0     C28843   1.309   5.727  11.093 -0.4112  0.8542 -0.1185
  955MOL0     C28844   0.988   6.053  10.943 -0.0522 -0.4369  0.1955
  955MOL0     C28845   0.904   5.950  10.905  0.6064 -0.3596  0.5392
  955MOL0     C28846   0.780   5.978  10.849 -0.0688  0.2315 -0.1495
  955MOL0     C28847   0.729   6.107  10.829  0.3555 -0.0636 -0.6038
  955MOL0     O28848   0.614   6.151  10.765 -0.1303  0.0707 -0.3694
  955MOL0     C28849   0.527   6.057  10.692 -0.8937 -0.3037 -0.2176
  955MOL0     C28850   0.435   5.978  10.790 -0.2729 -0.4191 -0.0953
  955MOL0     C28851   0.301   5.928  10.740 -0.0680 -0.3468 -0.1847
  955MOL0     C28852   0.311   5.778  10.699 -0.3677  0.7739  0.1476
  955MOL0     C28853   0.359   5.761  10.558  0.4914 -0.7102  0.4074
  955MOL0     C28854   0.404   5.746  10.446  0.1775 -1.0205  0.2327
  955MOL0     C28855   0.808   6.210  10.877  0.5430  0.5486  0.0204
  955MOL0     C28856   0.929   6.189  10.932 -0.7437  0.2913 -0.2043
  955MOL0     C28857   1.008   6.317  10.972  0.9739  0.1919  1.1305
  955MOL0     H28858   1.393   5.987  10.909  0.0376 -1.1855 -1.2307
  955MOL0     H28859   1.603   5.935  10.974  0.9376  0.4836  2.8622
  955MOL0     H28860   1.845   5.830  11.073  1.4457 -2.0361  0.6649
  955MOL0     H28861   1.733   5.910  11.190 -0.1959 -0.2084  0.0299
  955MOL0     H28862   1.936   5.698  11.230 -0.4141 -1.3047 -0.3384
  955MOL0     H28863   1.802   5.695  11.325  3.3935 -1.5791  2.8183
  955MOL0     H28864   1.971   5.812  11.443  1.0422  0.6034 -0.2648
  955MOL0     H28865   1.839   5.927  11.407  1.7903  3.4376 -2.2678
  955MOL0     H28866   1.979   6.017  11.223  1.1404 -0.3393 -0.4226
  955MOL0     H28867   2.029   6.046  11.398  1.3056 -2.0688  1.7238
  955MOL0     H28868   2.201   5.873  11.371  0.7989  2.1644  0.0173
  955MOL0     H28869   2.143   5.828  11.208  3.4783  0.2366 -1.0532
  955MOL0     H28870   2.184   6.056  11.122 -2.1205  2.4755  2.6165
  955MOL0     H28871   2.256   6.109  11.268  3.1383  0.1115  0.3618
  955MOL0     H28872   2.351   5.859  11.140  0.0848 -0.5295 -0.0484
  955MOL0     H28873   2.456   5.964  11.234 -0.3914 -2.5326 -1.1272
  955MOL0     H28874   2.429   6.148  11.046  0.3570 -0.3129  1.9379
  955MOL0     H28875   2.534   6.008  11.023  0.5229  0.7783 -0.4336
  955MOL0     H28876   2.158   5.918  10.941 -0.1121  1.5099 -0.3072
  955MOL0     H28877   2.103   5.750  10.753  1.9883  0.2469 -0.0472
  955MOL0     H28878   2.065   5.893  10.659  1.5101  2.6430  0.8246
  955MOL0     H28879   2.104   5.673  10.522  2.6587 -3.2265 -3.6286
  955MOL0     H28880   2.216   5.806  10.488  3.9909 -1.1807  0.9376
  955MOL0     H28881   2.283   5.579  10.678 -2.7179 -0.2192 -0.5891
  955MOL0     H28882   2.390   5.698  10.601  1.3217 -2.0019  0.1124
  955MOL0     H28883   2.421   5.495  10.466  0.2477 -0.3192 -1.0960
  955MOL0     H28884   2.313   5.600  10.376  1.2502  0.3327  0.1622
  955MOL0     H28885   2.025   5.281  10.460  0.0119 -0.9819  0.1209
  955MOL0     H28886   1.972   5.133  10.272  0.0626 -1.5380  2.4782
  955MOL0     H28887   1.990   4.935   9.822 -0.3874  0.2345 -0.2887
  955MOL0     H28888   2.022   4.746   9.657  1.8539  0.0454 -1.6909
  955MOL0     H28889   2.332   4.508   9.475  1.3042  1.2306 -0.3252
  955MOL0     H28890   2.422   4.573   9.616  0.1479  0.1884  2.4278
  955MOL0     H28891   2.314   4.431   9.766 -1.9047  0.5505  0.7736
  955MOL0     H28892   2.161   4.448   9.687  0.7384  2.4029  0.6559
  955MOL0     H28893   2.240   4.281   9.508  1.0480 -2.1989  0.2240
  955MOL0     H28894   2.393   4.281   9.596 -0.9452 -2.2051  0.3584
  955MOL0     H28895   2.126   4.166   9.688  0.5907 -0.5915  0.9690
  955MOL0     H28896   2.263   4.188   9.797 -0.0536 -1.6715  0.5660
  955MOL0     H28897   2.397   4.029   9.707  0.8379  1.4921 -0.1641
  955MOL0     H28898   2.320   4.035   9.540  1.2234 -0.6880 -0.7729
  955MOL0     H28899   2.275   3.835   9.693 -3.2575 -2.5955  3.8735
  955MOL0     H28900   2.152   3.951   9.763 -0.8843  2.9729 -2.0369
  955MOL0     H28901   2.179   3.848   9.481  2.1583 -0.5260  2.7799
  955MOL0     H28902   2.062   3.982   9.522  1.6797  0.9707  0.2808
  955MOL0     H28903   1.944   3.769   9.527  1.4700 -2.2381 -1.9320
  955MOL0     H28904   2.081   3.672   9.588 -1.0073 -0.5031  2.7238
  955MOL0     H28905   2.440   4.743   9.731 -0.4415 -0.6410 -1.5256
  955MOL0     H28906   2.414   4.910   9.900 -0.1003 -2.4101  2.3167
  955MOL0     H28907   2.338   5.238  10.088  1.1826  0.2454  1.1151
  955MOL0     H28908   2.385   5.391  10.267  2.0073 -4.2952  0.1989
  955MOL0     H28909   1.447   5.614  11.216 -2.3056 -3.0548 -1.3525
  955MOL0     H28910   1.237   5.663  11.142  2.7090 -1.8506  1.2875
  955MOL0     H28911   0.916   5.845  10.930 -0.9081 -0.3024  1.6654
  955MOL0     H28912   0.717   5.893  10.825 -3.1366  2.1921  0.3621
  955MOL0     H28913   0.583   5.976  10.644 -2.7213 -0.3626 -2.4134
  955MOL0     H28914   0.479   6.117  10.615 -1.2771 -0.6363 -0.2447
  955MOL0     H28915   0.403   6.056  10.860  1.8964 -0.2747  0.8165
  955MOL0     H28916   0.489   5.900  10.844  0.8523  0.7696  0.5518
  955MOL0     H28917   0.248   5.998  10.675  0.7820  2.6123  2.0929
  955MOL0     H28918   0.233   5.932  10.825 -1.1853 -3.3857 -0.8124
  955MOL0     H28919   0.393   5.729  10.751 -1.3340 -3.8479 -2.1339
  955MOL0     H28920   0.221   5.717  10.711  0.5188 -1.0478 -1.8114
  955MOL0     H28921   0.454   5.734  10.352 -0.1298  0.0519 -0.0879
  955MOL0     H28922   0.772   6.309  10.849  0.4949 -0.8882 -6.8061
  955MOL0     H28923   1.103   6.320  10.917  1.4556  0.6450  1.9719
  955MOL0     H28924   0.946   6.407  10.973  2.9358  1.6257  0.1855
  955MOL0     H28925   1.038   6.308  11.076 -1.6501 -2.3508  1.8168
  956MOL0     O28926   8.864   2.049   4.670 -0.1887  0.0572  0.5041
  956MOL0     C28927   8.950   2.037   4.583 -0.9325 -0.5844 -0.0771
  956MOL0     O28928   8.989   2.137   4.496 -0.5972  0.4386 -0.1279
  956MOL0     C28929   8.939   2.262   4.529  0.3594 -0.1961  0.5752
  956MOL0     C28930   8.860   2.328   4.427  0.8511 -0.4971 -0.1377
  956MOL0     C28931   8.810   2.454   4.442 -0.2192  0.3407  0.0422
  956MOL0     C28932   8.844   2.535   4.555 -0.0795  1.0165 -0.6397
  956MOL0     O28933   8.804   2.659   4.592 -0.3525  0.6688 -0.8079
  956MOL0     C28934   8.704   2.719   4.518  0.8731 -0.7586 -0.2740
  956MOL0     C28935   8.646   2.831   4.599  0.1100 -0.4566 -0.4847
  956MOL0     C28936   8.752   2.939   4.650 -0.2411 -0.3132  0.2842
  956MOL0     C28937   8.687   3.037   4.757  1.2047 -0.5146 -0.3609
  956MOL0     C28938   8.740   3.171   4.759  0.0353 -0.1180  0.3085
  956MOL0     C28939   8.675   3.269   4.857  0.6807  0.4932  0.6954
  956MOL0     C28940   8.713   3.232   4.999 -0.1342  0.4471  0.5700
  956MOL0     C28941   8.712   3.347   5.099  0.4311  0.7353  0.6108
  956MOL0     N28942   8.745   3.288   5.229  0.0427 -0.6459  0.1093
  956MOL0     C28943   8.650   3.237   5.321  0.6486 -0.9897 -0.1095
  956MOL0     C28944   8.722   3.206   5.442 -0.1517  0.7109  0.2257
  956MOL0     C28945   8.652   3.180   5.573  0.8915  0.0989  0.5905
  956MOL0     C28946   8.741   3.112   5.674 -0.0306 -0.2471 -0.5849
  956MOL0     C28947   8.673   3.127   5.817  1.0598  0.3760  1.4260
  956MOL0     C28948   8.530   3.087   5.837 -0.4545 -0.1087  0.8215
  956MOL0     O28949   8.525   2.943   5.806  0.5274 -0.7287 -0.6598
  956MOL0     C28950   8.402   2.898   5.764 -0.8236  0.0157  0.1726
  956MOL0     C28951   8.286   2.945   5.824  0.7263 -0.1217  1.2141
  956MOL0     C28952   8.165   2.931   5.758 -0.2330  0.0860  1.2825
  956MOL0     C28953   8.150   2.858   5.629 -1.0759 -0.5256 -0.6349
  956MOL0     C28954   8.017   2.841   5.572 -0.9888  0.1494 -0.1449
  956MOL0     O28955   7.919   2.808   5.661 -0.1219 -0.2304  0.6750
  956MOL0     C28956   7.792   2.789   5.605 -0.0763 -0.6604 -0.0594
  956MOL0     C28957   7.714   2.683   5.637 -0.0262 -1.3783  0.4337
  956MOL0     C28958   7.588   2.677   5.578  0.4135 -0.2911 -0.2868
  956MOL0     C28959   7.537   2.778   5.493 -0.6099 -1.1455  0.4715
  956MOL0     O28960   7.406   2.785   5.444 -0.1457 -0.3290 -0.1566
  956MOL0     C28961   7.321   2.679   5.471 -0.2741  0.2894  0.2857
  956MOL0     C28962   7.181   2.704   5.413 -0.2676  1.2259  0.1506
  956MOL0     C28963   7.181   2.708   5.263  0.5113  0.6449 -0.5541
  956MOL0     C28964   7.048   2.757   5.214 -1.0206 -0.4880  1.5309
  956MOL0     C28965   7.038   2.703   5.067 -0.0193  0.8779 -0.2223
  956MOL0     C28966   6.896   2.716   5.015 -0.0390  0.3293 -0.2005
  956MOL0     C28967   6.885   2.615   4.899  0.3573  0.1126 -0.2429
  956MOL0     C28968   6.762   2.637   4.808 -0.1978  0.1974 -0.4236
  956MOL0    Cl28969   6.762   2.796   4.745 -0.4404 -0.2145  0.1286
  956MOL0     C28970   7.617   2.891   5.465  0.2235 -0.0731 -0.9062
  956MOL0     C28971   7.738   2.895   5.517 -0.6553 -0.0665  0.5271
  956MOL0     O28972   8.010   2.834   5.453 -0.2869  0.1058 -1.1841
  956MOL0     C28973   8.274   2.811   5.577 -0.1283 -0.2336  1.0300
  956MOL0     C28974   8.393   2.827   5.640 -0.2968 -0.0412  0.3555
  956MOL0     N28975   8.859   3.234   5.419 -0.6939  0.0338  0.0307
  956MOL0     N28976   8.872   3.273   5.295  0.9555  0.3375  0.4022
  956MOL0     C28977   8.929   2.477   4.652  0.0799 -0.4838  0.1723
  956MOL0     C28978   8.980   2.350   4.632 -0.2921 -0.0236  0.3556
  956MOL0     C28979   8.988   1.890   4.551  0.2804 -0.1267 -0.5166
  956MOL0     C28980   9.006   1.874   4.413 -0.8882 -0.4399 -0.8411
  956MOL0     C28981   9.047   1.751   4.359 -0.3581 -0.3023  0.6782
  956MOL0     C28982   9.049   1.642   4.442 -1.4673  0.4845  0.7853
  956MOL0     O28983   9.075   1.510   4.397  0.2922  0.1460  0.0170
  956MOL0     C28984   9.067   1.483   4.255 -0.1598  0.5169  0.0092
  956MOL0     C28985   9.207   1.483   4.181  0.1387  0.5800  0.2880
  956MOL0     C28986   9.275   1.360   4.226 -0.5106 -0.6077 -0.1785
  956MOL0     C28987   9.415   1.350   4.174  0.5582 -0.2276  0.5241
  956MOL0     C28988   9.414   1.325   4.031  0.6867 -0.4608  0.2161
  956MOL0     C28989   9.434   1.322   3.912  1.0565  0.0110 -1.3394
  956MOL0     C28990   9.046   1.659   4.587 -0.3142 -0.1038  0.7834
  956MOL0     C28991   9.012   1.781   4.640  0.7714 -1.6086  0.0133
  956MOL0     C28992   8.998   1.801   4.791  0.0080  0.4345  0.7829
  956MOL0     H28993   8.824   2.277   4.338  1.3425  1.8181 -1.7363
  956MOL0     H28994   8.743   2.499   4.370 -1.6670  1.1646  1.8278
  956MOL0     H28995   8.734   2.773   4.428 -2.6116  2.8357  0.4768
  956MOL0     H28996   8.630   2.642   4.494 -0.2265  0.5683 -1.2680
  956MOL0     H28997   8.602   2.782   4.686  0.2498 -0.0256 -0.1696
  956MOL0     H28998   8.571   2.882   4.537  1.5987 -0.5149 -2.4237
  956MOL0     H28999   8.792   2.993   4.564  1.2920 -2.3859 -0.4012
  956MOL0     H29000   8.840   2.897   4.700 -1.1322 -0.8492  1.4751
  956MOL0     H29001   8.581   3.049   4.737  0.2636 -1.1055  3.5073
  956MOL0     H29002   8.700   2.991   4.855  2.7981 -0.7298 -0.6304
  956MOL0     H29003   8.848   3.164   4.777  0.0126  0.2677  0.5984
  956MOL0     H29004   8.733   3.209   4.657 -0.1623 -0.4055  0.2117
  956MOL0     H29005   8.707   3.371   4.836  0.2329  0.5310  0.1886
  956MOL0     H29006   8.565   3.274   4.853  0.6039  0.0423  1.8521
  956MOL0     H29007   8.813   3.187   5.007 -1.5289 -2.7802  1.4736
  956MOL0     H29008   8.633   3.166   5.033 -0.3417  1.7728  2.8624
  956MOL0     H29009   8.795   3.414   5.075  0.9429 -0.7156 -2.1873
  956MOL0     H29010   8.616   3.398   5.111 -0.6681 -1.0578 -0.0982
  956MOL0     H29011   8.542   3.229   5.314  0.4646 -1.9900  2.6242
  956MOL0     H29012   8.630   3.280   5.613 -0.8739  0.0883 -0.2667
  956MOL0     H29013   8.556   3.128   5.565  0.4206  0.6750  2.1780
  956MOL0     H29014   8.757   3.008   5.644  2.7877  0.4671 -1.9153
  956MOL0     H29015   8.837   3.165   5.673 -0.2799  0.3026  1.0749
  956MOL0     H29016   8.677   3.233   5.843 -0.1020  1.0001 -0.6800
  956MOL0     H29017   8.738   3.081   5.892  1.6990  1.4138  1.5216
  956MOL0     H29018   8.470   3.151   5.772 -2.0026 -0.6540  1.6674
  956MOL0     H29019   8.507   3.120   5.939  2.4369 -0.0449  1.5385
  956MOL0     H29020   8.293   2.988   5.924  0.5030 -0.2561  1.2895
  956MOL0     H29021   8.079   2.977   5.805  0.0023  0.2442  1.5651
  956MOL0     H29022   7.744   2.603   5.704  1.9398 -0.8974  0.1773
  956MOL0     H29023   7.527   2.588   5.588 -0.0457  0.0594  0.0921
  956MOL0     H29024   7.355   2.585   5.427 -1.9001 -0.2230  0.0525
  956MOL0     H29025   7.301   2.653   5.576  1.2316 -1.9691  0.1062
  956MOL0     H29026   7.129   2.609   5.431  1.3678 -0.2102 -2.1940
  956MOL0     H29027   7.116   2.783   5.452 -1.5416  0.5623 -0.5627
  956MOL0     H29028   7.245   2.793   5.238 -0.7001  2.3263  1.7104
  956MOL0     H29029   7.204   2.611   5.219 -2.3874 -0.7922  0.8063
  956MOL0     H29030   7.045   2.866   5.224 -1.5299 -0.6714  4.1553
  956MOL0     H29031   6.965   2.711   5.268 -2.3338  0.8008  0.6883
  956MOL0     H29032   7.060   2.596   5.068  0.3381  0.9373 -1.0908
  956MOL0     H29033   7.116   2.754   5.009  1.2554  1.8450  2.1599
  956MOL0     H29034   6.824   2.689   5.092 -3.5636  2.6321 -2.4297
  956MOL0     H29035   6.881   2.823   4.997  1.8484  0.7090  0.1745
  956MOL0     H29036   6.900   2.511   4.929 -3.0122  0.0020  1.6050
  956MOL0     H29037   6.963   2.633   4.824  0.3418  1.1084 -0.0376
  956MOL0     H29038   6.764   2.562   4.728  0.1392 -1.2390  0.8713
  956MOL0     H29039   6.671   2.627   4.867 -0.9499  5.0045 -0.3872
  956MOL0     H29040   7.574   2.979   5.420 -2.9462 -1.9627 -1.8757
  956MOL0     H29041   7.796   2.986   5.506 -1.1357 -0.0323 -2.5633
  956MOL0     H29042   8.267   2.776   5.474 -4.7858  2.8592 -0.0437
  956MOL0     H29043   8.472   2.785   5.578 -0.3410 -2.5247  1.8667
  956MOL0     H29044   8.943   2.530   4.746  1.7720  0.3042 -0.4819
  956MOL0     H29045   9.035   2.309   4.717  0.8366  3.2370  1.3406
  956MOL0     H29046   9.013   1.955   4.342 -1.0444  0.2916 -0.0452
  956MOL0     H29047   9.088   1.750   4.259  4.4386  3.8861  2.1574
  956MOL0     H29048   8.998   1.553   4.207  1.2342  1.6349 -0.4538
  956MOL0     H29049   9.023   1.384   4.243 -1.6590  1.3952 -2.4821
  956MOL0     H29050   9.259   1.575   4.209 -3.9126  4.2953 -2.9662
  956MOL0     H29051   9.193   1.480   4.073  1.5774  0.9616  0.0697
  956MOL0     H29052   9.212   1.275   4.199 -6.0668  2.7819  0.5059
  956MOL0     H29053   9.283   1.360   4.335  1.7690  3.9997 -0.0795
  956MOL0     H29054   9.467   1.446   4.174  0.0967  0.0313  1.1010
  956MOL0     H29055   9.470   1.265   4.216 -1.0639 -2.4907 -1.6242
  956MOL0     H29056   9.448   1.312   3.806  0.9500  0.0986 -1.3618
  956MOL0     H29057   9.080   1.580   4.652 -2.1008 -0.8549  0.8552
  956MOL0     H29058   9.013   1.906   4.816 -0.9573  1.4408 -2.3595
  956MOL0     H29059   8.902   1.766   4.828  0.1573 -0.9947 -0.1176
  956MOL0     H29060   9.072   1.739   4.843 -0.7134 -0.4303  0.7925
  957MOL0     O29061   6.352   1.135   9.458  0.1070  0.6484  0.7144
  957MOL0     C29062   6.322   1.084   9.563  0.5675 -0.1789 -0.9359
  957MOL0     O29063   6.335   1.149   9.689  0.5769  0.9530  0.1656
  957MOL0     C29064   6.393   1.275   9.699 -0.5949  1.5201 -0.4216
  957MOL0     C29065   6.313   1.388   9.710 -0.2334 -0.5052  0.8327
  957MOL0     C29066   6.374   1.511   9.736 -0.6141  0.2279  0.1213
  957MOL0     C29067   6.515   1.516   9.780  0.5501  0.3898  0.4924
  957MOL0     O29068   6.572   1.628   9.832  0.3930  0.5936  0.3809
  957MOL0     C29069   6.593   1.733   9.729  0.6093  0.8416  0.3812
  957MOL0     C29070   6.517   1.856   9.781  0.2573  0.1672 -0.3872
  957MOL0     C29071   6.600   1.944   9.885  0.2548  0.1172 -0.5041
  957MOL0     C29072   6.509   2.066   9.919 -0.5345  1.1518 -0.8273
  957MOL0     C29073   6.511   2.175   9.817 -0.4375 -0.0946 -1.0885
  957MOL0     C29074   6.411   2.287   9.825  0.0978  0.2801  0.1065
  957MOL0     C29075   6.355   2.330   9.684 -0.0715  0.0709  0.1179
  957MOL0     C29076   6.458   2.338   9.570  0.3502  0.2131  0.2272
  957MOL0     N29077   6.391   2.418   9.460  0.2912  0.5233  0.3421
  957MOL0     C29078   6.279   2.372   9.397  0.0147 -0.2410  0.3669
  957MOL0     C29079   6.250   2.467   9.309  0.5318  0.1226  0.3175
  957MOL0     C29080   6.127   2.470   9.222 -0.2735 -0.8422  0.4381
  957MOL0     C29081   5.997   2.480   9.300 -0.2016  0.0762 -0.2304
  957MOL0     C29082   5.872   2.515   9.206 -0.8447  0.8487  0.1495
  957MOL0     C29083   5.837   2.384   9.126  0.2189  0.8062 -0.6843
  957MOL0     O29084   5.714   2.409   9.050 -0.1196 -1.3517  0.2646
  957MOL0     C29085   5.661   2.303   8.977  0.2907 -0.2167 -0.7910
  957MOL0     C29086   5.696   2.172   8.997  0.6684 -0.7082 -0.3550
  957MOL0     C29087   5.627   2.077   8.923  0.7316  0.1076 -0.5261
  957MOL0     C29088   5.513   2.111   8.842 -0.3159  0.2224  0.4992
  957MOL0     C29089   5.424   2.007   8.780 -0.6341  0.6504  0.5782
  957MOL0     O29090   5.319   2.058   8.715 -0.4533  0.0489 -0.3884
  957MOL0     C29091   5.239   1.971   8.638 -0.9336  0.6761 -0.1488
  957MOL0     C29092   5.103   1.985   8.636 -0.1423  0.3844 -0.3548
  957MOL0     C29093   5.022   1.920   8.539  0.2812 -0.8679 -0.0756
  957MOL0     C29094   5.085   1.846   8.443 -0.3033 -0.5806 -0.2618
  957MOL0     O29095   5.000   1.786   8.354  0.1028  0.4189  0.8728
  957MOL0     C29096   5.062   1.719   8.240  0.4135  0.8347 -0.9483
  957MOL0     C29097   4.968   1.706   8.128  0.1917  0.2096 -0.1630
  957MOL0     C29098   5.031   1.617   8.024  0.2765  0.7442 -0.2595
  957MOL0     C29099   4.942   1.494   8.007  0.2810 -0.8713 -0.4609
  957MOL0     C29100   4.952   1.389   8.120 -0.1119  0.0366 -0.5270
  957MOL0     C29101   5.073   1.291   8.073 -0.0337 -0.2128 -0.3927
  957MOL0     C29102   5.090   1.162   8.155  1.0529 -0.1113 -0.1037
  957MOL0     C29103   5.083   1.183   8.304 -1.3287  0.3236 -0.6161
  957MOL0    Cl29104   5.219   1.274   8.381 -0.4522 -0.6910 -0.3005
  957MOL0     C29105   5.226   1.821   8.448 -0.0485  0.3619  0.1821
  957MOL0     C29106   5.298   1.892   8.541 -0.1367 -0.7963  0.4718
  957MOL0     O29107   5.449   1.893   8.808  0.0171  0.1353 -0.2653
  957MOL0     C29108   5.485   2.254   8.818  0.0934  0.5346  0.6456
  957MOL0     C29109   5.558   2.340   8.889  0.6448  0.9593  0.1254
  957MOL0     N29110   6.338   2.570   9.309 -0.3673  0.4187  0.0612
  957MOL0     N29111   6.425   2.534   9.407 -0.3408  0.1570 -0.1305
  957MOL0     C29112   6.587   1.399   9.768 -0.0746 -0.4664  0.9360
  957MOL0     C29113   6.527   1.282   9.731 -0.1179  1.1407  0.0106
  957MOL0     C29114   6.270   0.951   9.557 -0.0610 -0.1017  0.2246
  957MOL0     C29115   6.337   0.847   9.624 -0.0261 -0.2626  0.4756
  957MOL0     C29116   6.310   0.712   9.599 -0.1706 -0.0171 -1.3608
  957MOL0     C29117   6.210   0.681   9.510  0.6871  0.4951 -0.8469
  957MOL0     O29118   6.195   0.540   9.495  0.3402 -0.9561  0.0295
  957MOL0     C29119   6.077   0.490   9.433  0.1940  0.3248  0.0337
  957MOL0     C29120   6.118   0.447   9.296 -0.0142  0.3579  0.6608
  957MOL0     C29121   6.246   0.353   9.323 -0.0799 -0.9014  0.5325
  957MOL0     C29122   6.297   0.266   9.208 -0.3643  0.0025 -0.0662
  957MOL0     C29123   6.298   0.332   9.077  0.3852 -0.7193 -1.1741
  957MOL0     C29124   6.305   0.379   8.965 -0.7667  0.6248 -0.3579
  957MOL0     C29125   6.134   0.781   9.454  0.0597  0.3376  0.8649
  957MOL0     C29126   6.163   0.918   9.475 -0.1847  0.5703 -0.0275
  957MOL0     C29127   6.076   1.022   9.405 -1.0947 -0.0144 -0.8256
  957MOL0     H29128   6.208   1.382   9.683  0.1992 -2.9736 -0.6493
  957MOL0     H29129   6.316   1.602   9.745 -3.4360 -1.4987  0.8286
  957MOL0     H29130   6.702   1.738   9.731  0.8727 -2.5772  0.5617
  957MOL0     H29131   6.561   1.704   9.629  2.8483 -1.3212  0.1881
  957MOL0     H29132   6.415   1.842   9.819  1.3097  1.7104  3.4173
  957MOL0     H29133   6.498   1.913   9.689 -1.6143  0.4011  0.0889
  957MOL0     H29134   6.684   1.990   9.833  0.5419 -0.1737 -0.3038
  957MOL0     H29135   6.630   1.885   9.972 -0.3847 -1.0341 -1.0395
  957MOL0     H29136   6.410   2.023   9.940  1.2299 -2.4857  0.9849
  957MOL0     H29137   6.543   2.116  10.010  2.1724  2.2467 -2.3347
  957MOL0     H29138   6.613   2.215   9.810 -0.2853 -0.4120 -0.7534
  957MOL0     H29139   6.500   2.128   9.719  0.1325  0.6419 -1.5151
  957MOL0     H29140   6.328   2.272   9.895 -1.4418  0.1282 -1.6884
  957MOL0     H29141   6.462   2.371   9.873  0.3702 -0.0297  0.3636
  957MOL0     H29142   6.317   2.433   9.687  3.1335  1.3481  0.7456
  957MOL0     H29143   6.270   2.266   9.659 -0.1401  0.0151  0.4880
  957MOL0     H29144   6.544   2.395   9.608 -0.3051  3.6801 -2.9827
  957MOL0     H29145   6.487   2.238   9.536 -1.0655 -0.1079 -0.0854
  957MOL0     H29146   6.207   2.297   9.426 -0.9023 -0.2045 -1.6125
  957MOL0     H29147   6.136   2.540   9.139 -1.5235 -0.9932  0.1596
  957MOL0     H29148   6.121   2.373   9.172 -0.8701  0.3145 -1.8674
  957MOL0     H29149   5.979   2.392   9.361  2.0891  0.8833  1.7451
  957MOL0     H29150   5.993   2.572   9.360 -0.9295 -1.6306  2.4999
  957MOL0     H29151   5.900   2.598   9.140  1.4924 -0.0153 -0.0310
  957MOL0     H29152   5.782   2.539   9.263  0.9113  0.6745  3.1838
  957MOL0     H29153   5.812   2.303   9.195 -4.1257  1.0379 -1.6325
  957MOL0     H29154   5.922   2.360   9.062  2.7446  2.9955  1.6210
  957MOL0     H29155   5.773   2.141   9.066 -0.3794 -3.1019 -0.1765
  957MOL0     H29156   5.664   1.976   8.935  0.5953  0.2658  1.6688
  957MOL0     H29157   5.050   2.060   8.693  0.8827  0.4578  0.5288
  957MOL0     H29158   4.915   1.935   8.553  0.6548  0.9194  1.2164
  957MOL0     H29159   5.148   1.774   8.201  2.6755 -1.1057  0.9950
  957MOL0     H29160   5.102   1.621   8.267  0.1118  1.0907  0.5161
  957MOL0     H29161   4.879   1.667   8.178 -0.1223  0.0962 -0.8008
  957MOL0     H29162   4.937   1.806   8.095  0.3103 -0.3091 -1.9428
  957MOL0     H29163   5.033   1.677   7.933 -0.2440  2.2268  0.6766
  957MOL0     H29164   5.135   1.595   8.051 -0.1388 -3.1567 -1.2182
  957MOL0     H29165   4.965   1.447   7.911 -0.0054 -1.7887 -0.0959
  957MOL0     H29166   4.841   1.536   8.007  0.0291 -1.4383  0.5379
  957MOL0     H29167   4.860   1.333   8.136  0.0080 -0.2214 -0.7314
  957MOL0     H29168   4.988   1.432   8.214 -2.6787  1.0000  0.0939
  957MOL0     H29169   5.048   1.262   7.970 -0.4200  1.3999 -0.7716
  957MOL0     H29170   5.168   1.341   8.051 -1.3983  2.7285 -0.0354
  957MOL0     H29171   5.182   1.112   8.124  1.3268  1.1536 -1.4693
  957MOL0     H29172   5.003   1.099   8.133 -1.1109  0.4813  5.3414
  957MOL0     H29173   4.989   1.232   8.333 -1.6120  1.4046 -3.0870
  957MOL0     H29174   5.077   1.083   8.347  1.6938  0.1137 -0.5071
  957MOL0     H29175   5.280   1.751   8.385 -1.3380 -0.1559 -0.3619
  957MOL0     H29176   5.407   1.891   8.540 -0.0767  1.4530 -0.6361
  957MOL0     H29177   5.398   2.291   8.764 -2.4156 -0.1899  3.8630
  957MOL0     H29178   5.548   2.448   8.885  1.5343  1.0949  1.0920
  957MOL0     H29179   6.693   1.395   9.793  0.3681  2.9489  0.0994
  957MOL0     H29180   6.585   1.191   9.737  0.0825  1.3269  1.2570
  957MOL0     H29181   6.425   0.875   9.680 -0.4508  0.2284  0.9098
  957MOL0     H29182   6.368   0.628   9.635 -2.5458 -0.9864  0.4374
  957MOL0     H29183   5.998   0.563   9.414 -0.4790 -0.3332  0.2614
  957MOL0     H29184   6.032   0.403   9.482 -0.1676  2.0521  3.0022
  957MOL0     H29185   6.147   0.533   9.237  1.3302 -0.5375 -0.0400
  957MOL0     H29186   6.043   0.383   9.249  0.8514 -1.5447  1.7480
  957MOL0     H29187   6.226   0.289   9.409  4.4204 -3.2045  0.1659
  957MOL0     H29188   6.327   0.414   9.363 -3.5595  2.4282  3.3058
  957MOL0     H29189   6.397   0.241   9.246 -0.4326  0.6563  0.5533
  957MOL0     H29190   6.244   0.171   9.194 -1.6166  0.9456 -2.2726
  957MOL0     H29191   6.321   0.433   8.874  3.0544  2.2489  1.0487
  957MOL0     H29192   6.046   0.762   9.394 -0.2052  1.0500  1.0246
  957MOL0     H29193   5.971   0.994   9.408 -1.3411  0.6677  3.5081
  957MOL0     H29194   6.091   1.113   9.464  1.0730  0.1688 -1.5342
  957MOL0     H29195   6.116   1.051   9.306  0.6946 -1.2245 -0.5061
  958MOL0     O29196   1.046   4.079   9.151 -0.5576 -1.4286 -0.5003
  958MOL0     C29197   1.033   3.963   9.182 -0.9296 -0.0874 -0.3319
  958MOL0     O29198   1.007   3.909   9.307 -0.0892 -0.1490 -0.3020
  958MOL0     C29199   1.027   3.986   9.421  0.6389 -0.1292 -1.1383
  958MOL0     C29200   0.946   3.959   9.534 -0.5095  0.9393 -0.6668
  958MOL0     C29201   0.989   3.992   9.663 -0.0828 -0.2985  0.0585
  958MOL0     C29202   1.094   4.072   9.682 -0.8400  0.0263  0.5329
  958MOL0     O29203   1.125   4.123   9.803 -0.3315  0.0334  0.2373
  958MOL0     C29204   1.255   4.107   9.852 -0.1587  0.7926  0.2272
  958MOL0     C29205   1.264   4.155  10.005 -0.4849  0.4687  0.1442
  958MOL0     C29206   1.172   4.088  10.101  0.3653  0.5435  0.0052
  958MOL0     C29207   1.022   4.136  10.107 -0.5763 -0.6906  1.0660
  958MOL0     C29208   0.944   4.015  10.074  0.6513 -0.1181 -0.0659
  958MOL0     C29209   0.797   4.052  10.044 -0.4407  0.4747 -0.2431
  958MOL0     C29210   0.709   3.936  10.101 -0.2487 -0.4214  0.0971
  958MOL0     C29211   0.708   3.909  10.257  0.6118  0.2703  0.0847
  958MOL0     N29212   0.710   4.035  10.330 -1.1577 -0.0280 -0.3726
  958MOL0     C29213   0.636   4.150  10.315  0.1523  0.0711 -0.1253
  958MOL0     C29214   0.662   4.230  10.416  0.4243 -0.4659 -0.2823
  958MOL0     C29215   0.594   4.361  10.441 -0.0325 -0.5001  0.4142
  958MOL0     C29216   0.641   4.480  10.360  0.3667 -0.2541  0.7107
  958MOL0     C29217   0.793   4.499  10.380  0.2641  0.1347 -0.2019
  958MOL0     C29218   0.861   4.631  10.316  0.0943  0.6232  0.2672
  958MOL0     O29219   0.792   4.650  10.192 -0.3149  0.2741 -0.0078
  958MOL0     C29220   0.875   4.632  10.078  0.6158 -0.4764  0.1716
  958MOL0     C29221   0.883   4.745   9.992  0.2147  0.2508 -0.6066
  958MOL0     C29222   0.952   4.729   9.871  0.0095  0.1216  0.0575
  958MOL0     C29223   1.007   4.601   9.828 -0.5208 -0.1320  0.0817
  958MOL0     C29224   1.082   4.598   9.696  0.4966 -0.9393 -0.0731
  958MOL0     O29225   1.111   4.721   9.647 -0.5511  0.4511  0.0617
  958MOL0     C29226   1.170   4.737   9.519  1.0159 -0.5022  1.1043
  958MOL0     C29227   1.098   4.777   9.401  0.6135 -0.7690 -0.4527
  958MOL0     C29228   1.165   4.802   9.278 -0.1728  0.6384 -0.0794
  958MOL0     C29229   1.302   4.792   9.275  0.5765  1.5343 -0.5819
  958MOL0     O29230   1.362   4.805   9.158  0.4015  0.6931  0.2251
  958MOL0     C29231   1.399   4.941   9.126  0.0859 -0.0529  1.7842
  958MOL0     C29232   1.544   4.939   9.071  0.1069  0.2277  0.4769
  958MOL0     C29233   1.647   4.897   9.177 -0.8216 -1.1763  0.7422
  958MOL0     C29234   1.791   4.904   9.117  0.3770 -0.4145  0.0746
  958MOL0     C29235   1.875   4.841   9.229  0.1809  0.1390  0.3931
  958MOL0     C29236   2.022   4.827   9.180  0.1790  0.2383  0.1674
  958MOL0     C29237   2.104   4.774   9.303 -0.6329 -0.0040 -0.1481
  958MOL0     C29238   2.254   4.804   9.290 -0.2436  0.1388 -0.7131
  958MOL0    Cl29239   2.268   4.978   9.259  0.0196 -0.0763  0.3215
  958MOL0     C29240   1.373   4.772   9.392 -0.8377  0.8172 -0.0852
  958MOL0     C29241   1.306   4.740   9.507 -0.5312 -0.7019  0.0255
  958MOL0     O29242   1.091   4.494   9.640 -0.2011 -0.5218 -0.2708
  958MOL0     C29243   0.981   4.490   9.918 -0.4850  0.1367 -0.1682
  958MOL0     C29244   0.912   4.506  10.034  0.1417  0.0308 -1.1574
  958MOL0     N29245   0.751   4.171  10.494  0.2270 -0.6841 -0.7321
  958MOL0     N29246   0.772   4.049  10.449 -0.0927  0.4289  0.4544
  958MOL0     C29247   1.172   4.108   9.572 -0.3578 -0.7176 -0.7293
  958MOL0     C29248   1.144   4.064   9.439  0.4529  0.4013  0.7360
  958MOL0     C29249   1.054   3.870   9.074  0.4646 -0.0830  1.6922
  958MOL0     C29250   1.144   3.910   8.965 -0.5124 -0.4135 -0.3976
  958MOL0     C29251   1.180   3.807   8.868 -0.1695 -0.2976 -0.7482
  958MOL0     C29252   1.113   3.690   8.863  1.2796  0.4466 -0.1827
  958MOL0     O29253   1.148   3.603   8.768  0.3109  0.0650  0.0761
  958MOL0     C29254   1.144   3.457   8.792  0.2004  0.6857 -0.5938
  958MOL0     C29255   1.231   3.423   8.917  0.0915  0.3457 -0.2154
  958MOL0     C29256   1.302   3.293   8.888  0.2523 -0.0526 -0.4272
  958MOL0     C29257   1.213   3.167   8.880  1.2062 -0.5085  1.3901
  958MOL0     C29258   1.289   3.048   8.835 -0.2954  0.6627 -0.4673
  958MOL0     C29259   1.360   2.954   8.803 -0.2595 -0.2336 -0.2500
  958MOL0     C29260   1.012   3.669   8.953 -0.2828  1.5448  0.5091
  958MOL0     C29261   0.977   3.753   9.056  0.4589 -0.8892  0.0499
  958MOL0     C29262   0.854   3.726   9.140 -0.1334  0.7013 -0.4971
  958MOL0     H29263   0.868   3.883   9.526  1.2776 -0.8518 -2.3620
  958MOL0     H29264   0.934   3.955   9.749  0.3620  1.0517  0.9539
  958MOL0     H29265   1.273   3.999   9.847 -3.9937 -0.0773  1.8778
  958MOL0     H29266   1.335   4.160   9.799 -0.4791  0.1562 -0.9252
  958MOL0     H29267   1.255   4.264  10.007  0.6867  0.7003 -2.4275
  958MOL0     H29268   1.363   4.126  10.042 -0.6413 -0.4988 -0.1657
  958MOL0     H29269   1.201   4.096  10.207 -1.0144  2.9957  0.2852
  958MOL0     H29270   1.190   3.984  10.075 -1.1422  0.3804 -0.5095
  958MOL0     H29271   1.004   4.173  10.209  0.4590 -0.7461  1.2796
  958MOL0     H29272   1.022   4.219  10.036  2.1610  0.7577  2.5489
  958MOL0     H29273   0.966   3.962   9.981 -1.1869 -1.4496  0.1829
  958MOL0     H29274   0.947   3.934  10.148 -0.5645 -2.4685 -2.4181
  958MOL0     H29275   0.758   4.146  10.084  0.6978  0.5589  0.7256
  958MOL0     H29276   0.774   4.066   9.938  0.4601  1.2647 -0.3520
  958MOL0     H29277   0.730   3.838  10.057 -0.7520 -0.0315 -1.0601
  958MOL0     H29278   0.605   3.957  10.076 -0.2396  0.5457  0.8054
  958MOL0     H29279   0.619   3.864  10.302  1.4778  1.6226  3.3888
  958MOL0     H29280   0.788   3.840  10.284 -2.1171 -2.5010  1.8018
  958MOL0     H29281   0.556   4.159  10.241 -3.0724  0.5374  3.1090
  958MOL0     H29282   0.487   4.353  10.418  0.2349 -2.7480 -0.3482
  958MOL0     H29283   0.597   4.386  10.547  0.1517  0.0140  0.2926
  958MOL0     H29284   0.609   4.469  10.256 -4.2909 -1.8403  2.0746
  958MOL0     H29285   0.585   4.567  10.397 -0.7951  0.1370 -1.7643
  958MOL0     H29286   0.836   4.412  10.330 -0.5732  0.9531 -2.4657
  958MOL0     H29287   0.799   4.502  10.489  1.4213  0.4132 -0.2574
  958MOL0     H29288   0.970   4.640  10.316  0.3403 -1.7340  0.2824
  958MOL0     H29289   0.832   4.725  10.363  0.6415  1.0999 -0.3441
  958MOL0     H29290   0.854   4.844  10.023  3.1167  1.1224 -0.3863
  958MOL0     H29291   0.976   4.819   9.815  0.4741 -1.4019 -2.3546
  958MOL0     H29292   0.992   4.802   9.400  0.6084 -0.4265  2.3199
  958MOL0     H29293   1.105   4.830   9.191 -0.3377  2.4044  0.5563
  958MOL0     H29294   1.344   4.971   9.036  2.9306  3.7445  1.0562
  958MOL0     H29295   1.388   5.019   9.202  1.2293  0.5544  1.3510
  958MOL0     H29296   1.539   4.876   8.982  1.6535  0.1512  0.4052
  958MOL0     H29297   1.567   5.043   9.048  0.6436  0.9638  3.7845
  958MOL0     H29298   1.637   4.967   9.261 -0.9125 -0.6331  0.2814
  958MOL0     H29299   1.616   4.799   9.214 -2.5573  0.1595  3.0881
  958MOL0     H29300   1.819   5.003   9.079 -0.3447 -0.2043  0.0799
  958MOL0     H29301   1.807   4.835   9.034  3.7942  0.8157 -0.4513
  958MOL0     H29302   1.840   4.738   9.241  1.1156  0.0519  2.9467
  958MOL0     H29303   1.871   4.890   9.326  3.2101  2.1466 -0.3302
  958MOL0     H29304   2.010   4.760   9.094  1.5180 -0.4781  0.5148
  958MOL0     H29305   2.058   4.925   9.147  1.2907 -0.0948  0.3725
  958MOL0     H29306   2.096   4.668   9.328  0.4130  0.3634  1.9106
  958MOL0     H29307   2.084   4.829   9.395 -0.0402  0.7548 -0.4644
  958MOL0     H29308   2.293   4.791   9.391 -2.1041  1.8493  0.3094
  958MOL0     H29309   2.304   4.747   9.211  4.7599  0.6351  1.7196
  958MOL0     H29310   1.481   4.775   9.378 -1.1470 -0.9959 -4.3865
  958MOL0     H29311   1.369   4.737   9.596  0.9223 -0.7127 -0.9816
  958MOL0     H29312   1.015   4.391   9.890  3.5963  1.9978 -2.7734
  958MOL0     H29313   0.897   4.422  10.102 -0.8529  0.7459 -0.4624
  958MOL0     H29314   1.251   4.182   9.581 -1.3851  0.2359  1.1947
  958MOL0     H29315   1.224   4.079   9.367  1.6502 -1.2092  1.6580
  958MOL0     H29316   1.193   4.007   8.975 -1.5187  0.3683 -2.4526
  958MOL0     H29317   1.257   3.825   8.793  0.6280  0.8901  0.3196
  958MOL0     H29318   1.177   3.405   8.701  3.7859 -1.1695  1.5714
  958MOL0     H29319   1.044   3.426   8.824  0.7281 -1.1746 -0.6212
  958MOL0     H29320   1.179   3.432   9.012 -1.7675 -1.4666 -0.9660
  958MOL0     H29321   1.307   3.501   8.908 -0.4080  0.8565 -0.0519
  958MOL0     H29322   1.378   3.264   8.962  1.4587 -1.1018 -1.9973
  958MOL0     H29323   1.359   3.298   8.795 -0.0166 -1.1061 -0.6550
  958MOL0     H29324   1.158   3.135   8.968 -0.6229  0.6258  0.7205
  958MOL0     H29325   1.136   3.187   8.805 -0.7907 -2.0118  2.9425
  958MOL0     H29326   1.410   2.864   8.772 -2.0522 -0.5661 -2.3936
  958MOL0     H29327   0.965   3.572   8.940  1.2443  0.8780 -0.2391
  958MOL0     H29328   0.811   3.826   9.155  1.3227  1.2393  0.2780
  958MOL0     H29329   0.785   3.656   9.092 -1.1524  0.8383  0.6954
  958MOL0     H29330   0.886   3.679   9.234  0.5779 -0.9732 -1.5303
  959MOL0     O29331   0.032   3.837   9.681 -0.9104 -0.6525 -0.1287
  959MOL0     C29332   0.144   3.786   9.672  0.0609  0.1765  0.0239
  959MOL0     O29333   0.172   3.644   9.681 -0.3982 -1.1811  0.2615
  959MOL0     C29334   0.075   3.546   9.685 -0.5345 -1.1623 -0.4830
  959MOL0     C29335   0.099   3.437   9.764 -0.2457  0.0961  0.3809
  959MOL0     C29336   0.010   3.330   9.771  0.0896  0.7199 -0.5575
  959MOL0     C29337  -0.103   3.329   9.698 -0.2470 -1.1641  0.2359
  959MOL0     O29338  -0.187   3.215   9.707 -0.0149 -1.0109 -0.0959
  959MOL0     C29339  -0.297   3.204   9.612 -0.2765 -1.2215 -0.7478
  959MOL0     C29340  -0.349   3.064   9.588 -0.2410 -0.5805 -0.3841
  959MOL0     C29341  -0.414   3.004   9.711  1.0653  0.1734 -0.0523
  959MOL0     C29342  -0.482   2.874   9.662 -0.0830 -0.6875  0.0345
  959MOL0     C29343  -0.580   2.817   9.762  0.3902  0.5869 -0.2114
  959MOL0     C29344  -0.700   2.909   9.765 -0.8917  0.0158 -0.0369
  959MOL0     C29345  -0.833   2.854   9.818 -0.5592 -0.6186 -0.9138
  959MOL0     C29346  -0.903   2.743   9.737 -0.0273  0.5405  0.2894
  959MOL0     N29347  -1.037   2.725   9.786 -0.3376 -0.6576 -1.5918
  959MOL0     C29348  -1.145   2.797   9.728  1.2230 -0.3875  0.4735
  959MOL0     C29349  -1.253   2.763   9.810 -0.7497  0.2645 -0.1731
  959MOL0     C29350  -1.398   2.822   9.800  0.4849  0.0933 -0.1166
  959MOL0     C29351  -1.500   2.741   9.885 -0.2256 -0.2817  0.1722
  959MOL0     C29352  -1.646   2.772   9.876  0.0404  0.0832 -0.3147
  959MOL0     C29353  -1.708   2.657   9.945 -0.0949 -0.2307 -0.3551
  959MOL0     O29354  -1.727   2.543   9.866 -1.1856  0.6614  0.4805
  959MOL0     C29355  -1.781   2.434   9.929 -0.2118 -0.1157  0.2945
  959MOL0     C29356  -1.903   2.448   9.998  0.0439  0.2900 -0.1396
  959MOL0     C29357  -1.964   2.336  10.052 -0.1106  0.1647  0.1022
  959MOL0     C29358  -1.912   2.208  10.037 -0.9636 -0.0788  0.4508
  959MOL0     C29359  -1.989   2.097  10.093 -0.3563  0.4672  0.6370
  959MOL0     O29360  -1.989   1.975  10.030 -0.5888 -0.8918 -0.1775
  959MOL0     C29361  -2.042   1.865  10.090  0.0981 -0.8721  0.4354
  959MOL0     C29362  -2.007   1.739  10.030  0.5785  0.3899  1.9326
  959MOL0     C29363  -2.056   1.619  10.082 -0.2544 -0.6034  0.3432
  959MOL0     C29364  -2.153   1.616  10.183  0.3506  0.0617 -0.8567
  959MOL0     O29365  -2.188   1.495  10.231 -0.8793  0.7800 -0.3987
  959MOL0     C29366  -2.269   1.488  10.342  0.6068  0.1976 -0.4638
  959MOL0     C29367  -2.315   1.346  10.364  0.3571 -0.0407  0.1708
  959MOL0     C29368  -2.422   1.349  10.472 -0.4491 -0.8263  0.0057
  959MOL0     C29369  -2.357   1.357  10.612 -0.6975 -0.4417 -0.3507
  959MOL0     C29370  -2.424   1.299  10.734  0.8075  0.1457 -0.4557
  959MOL0     C29371  -2.541   1.392  10.757  0.6242 -0.6839  0.1794
  959MOL0     C29372  -2.605   1.355  10.895 -0.5853 -0.5359  0.3172
  959MOL0     C29373  -2.713   1.455  10.942 -0.2833  0.3552  0.6090
  959MOL0    Cl29374  -2.633   1.611  10.968 -0.2661 -0.2095 -0.0701
  959MOL0     C29375  -2.196   1.735  10.238  0.0410  0.2697 -0.5112
  959MOL0     C29376  -2.151   1.860  10.189  0.6793  0.2266 -0.3790
  959MOL0     O29377  -2.047   2.120  10.203 -0.0570  0.3010 -0.3863
  959MOL0     C29378  -1.780   2.204   9.988  0.9732  0.1502  0.3754
  959MOL0     C29379  -1.725   2.314   9.918  0.1211  1.0615 -0.1217
  959MOL0     N29380  -1.201   2.674   9.905 -0.1208  1.0020 -0.2345
  959MOL0     N29381  -1.080   2.651   9.888 -0.1165 -0.4199 -0.3561
  959MOL0     C29382  -0.143   3.446   9.624  0.4239 -0.2246  0.1298
  959MOL0     C29383  -0.051   3.551   9.620  0.5528  0.7906 -0.2886
  959MOL0     C29384   0.261   3.880   9.672 -0.5358  0.6096  0.1196
  959MOL0     C29385   0.389   3.819   9.668  0.1375  0.7733  0.0345
  959MOL0     C29386   0.501   3.901   9.661 -0.0195  0.5095 -0.2009
  959MOL0     C29387   0.496   4.038   9.655  0.7204 -1.1272 -0.0320
  959MOL0     O29388   0.612   4.102   9.641  0.0173 -0.0226  0.3860
  959MOL0     C29389   0.630   4.239   9.693  0.5214  0.3772 -0.5661
  959MOL0     C29390   0.694   4.316   9.569 -0.6242  0.6938  0.0545
  959MOL0     C29391   0.749   4.455   9.622 -0.6232  1.0094  0.3354
  959MOL0     C29392   0.646   4.560   9.596  0.0117 -0.3891  0.3153
  959MOL0     C29393   0.702   4.688   9.637  0.3155 -0.1461 -0.4528
  959MOL0     C29394   0.739   4.801   9.661 -0.0443  0.6664 -0.4847
  959MOL0     C29395   0.377   4.106   9.658 -0.3514 -0.5508  0.7340
  959MOL0     C29396   0.258   4.024   9.669 -0.7536  0.4438  0.1421
  959MOL0     C29397   0.128   4.090   9.678 -0.4352 -0.5261 -0.0019
  959MOL0     H29398   0.188   3.441   9.826  0.1152  1.4024 -0.1942
  959MOL0     H29399   0.022   3.247   9.839  1.0860  0.2547 -1.2646
  959MOL0     H29400  -0.374   3.267   9.658  0.1025  0.7092 -2.5752
  959MOL0     H29401  -0.261   3.248   9.518  0.6362  0.6730  0.4104
  959MOL0     H29402  -0.273   2.989   9.564  2.1719  1.4571  0.3768
  959MOL0     H29403  -0.409   3.071   9.497 -3.8011 -0.2354  1.7990
  959MOL0     H29404  -0.484   3.084   9.736  1.0779 -0.0573  0.7489
  959MOL0     H29405  -0.348   2.993   9.798  1.4694 -1.4472 -0.5434
  959MOL0     H29406  -0.526   2.897   9.565  1.0356 -1.6212 -0.7221
  959MOL0     H29407  -0.413   2.791   9.643 -3.4057 -4.2002  1.8434
  959MOL0     H29408  -0.602   2.717   9.723  0.3389  0.4811  0.0795
  959MOL0     H29409  -0.540   2.810   9.864  1.3592 -1.6367 -0.6815
  959MOL0     H29410  -0.681   2.999   9.824 -1.9279 -0.3697  0.9328
  959MOL0     H29411  -0.720   2.947   9.665 -1.5374  1.5239  0.6225
  959MOL0     H29412  -0.912   2.927   9.837 -1.7664 -1.8392 -1.1483
  959MOL0     H29413  -0.811   2.813   9.918  0.3322  0.1249 -0.7907
  959MOL0     H29414  -0.923   2.769   9.632 -1.9492 -2.3325 -0.1683
  959MOL0     H29415  -0.842   2.652   9.734 -2.8252 -1.4935  1.1724
  959MOL0     H29416  -1.159   2.856   9.638  1.9838 -0.7391  0.1143
  959MOL0     H29417  -1.392   2.919   9.851 -0.2729  0.2329 -0.2713
  959MOL0     H29418  -1.432   2.825   9.696 -1.0104 -0.3688  0.3361
  959MOL0     H29419  -1.471   2.636   9.870  2.9524  0.0903  2.6936
  959MOL0     H29420  -1.484   2.759   9.991 -2.5068 -2.7248  1.0460
  959MOL0     H29421  -1.681   2.771   9.772 -1.9152 -1.4387  0.2911
  959MOL0     H29422  -1.681   2.863   9.925 -1.0715  0.1397 -1.1617
  959MOL0     H29423  -1.811   2.688   9.963  0.0102 -0.0102 -0.1349
  959MOL0     H29424  -1.673   2.634  10.046  3.7723  0.6375 -1.3369
  959MOL0     H29425  -1.952   2.544   9.992 -0.0524  0.1496 -3.1501
  959MOL0     H29426  -2.062   2.337  10.099  0.8179 -1.5138  2.3023
  959MOL0     H29427  -1.932   1.721   9.953  1.5580  2.8474  2.2099
  959MOL0     H29428  -2.013   1.522  10.058 -2.9723 -2.0945  1.1293
  959MOL0     H29429  -2.229   1.525  10.436 -2.4538 -1.5495  1.7194
  959MOL0     H29430  -2.361   1.542  10.316  1.8250  2.3374 -0.5700
  959MOL0     H29431  -2.368   1.311  10.274 -1.0184 -2.1310  1.6877
  959MOL0     H29432  -2.232   1.276  10.375  2.7015  2.2965 -1.4762
  959MOL0     H29433  -2.478   1.442  10.460 -0.7243 -1.0861 -0.7628
  959MOL0     H29434  -2.495   1.268  10.463 -5.3743  3.2591 -1.5143
  959MOL0     H29435  -2.334   1.463  10.626  0.5943 -0.9208  1.6114
  959MOL0     H29436  -2.262   1.303  10.608  0.3533  1.2554  0.5613
  959MOL0     H29437  -2.360   1.291  10.823 -0.5672 -3.1617  0.3774
  959MOL0     H29438  -2.458   1.197  10.715  0.5879  0.1201  0.0552
  959MOL0     H29439  -2.512   1.497  10.744 -0.6119 -0.2299  0.8776
  959MOL0     H29440  -2.612   1.375  10.675 -1.4684  2.5119  1.0919
  959MOL0     H29441  -2.530   1.335  10.972 -1.6071 -3.5146  0.6748
  959MOL0     H29442  -2.658   1.259  10.895 -1.6765  0.0076 -1.7057
  959MOL0     H29443  -2.802   1.457  10.879  0.8984  1.4669 -1.0901
  959MOL0     H29444  -2.750   1.418  11.038  0.5859 -2.4303 -0.0349
  959MOL0     H29445  -2.270   1.756  10.315 -0.4516  4.2711 -1.8205
  959MOL0     H29446  -2.206   1.949  10.218  2.0355  1.7015 -2.1232
  959MOL0     H29447  -1.724   2.113   9.974  0.6249 -0.1059  0.6452
  959MOL0     H29448  -1.638   2.292   9.856  2.0813  0.5129  2.6134
  959MOL0     H29449  -0.237   3.451   9.570  0.2450  1.4014  0.5430
  959MOL0     H29450  -0.081   3.642   9.570  0.6602  1.1791  0.3347
  959MOL0     H29451   0.406   3.713   9.686  0.0641  0.1448 -2.9803
  959MOL0     H29452   0.602   3.860   9.659  0.2008  1.0778 -1.4213
  959MOL0     H29453   0.686   4.241   9.787 -2.1154  1.4821  1.1129
  959MOL0     H29454   0.540   4.296   9.721 -0.9285 -2.9342  2.3117
  959MOL0     H29455   0.618   4.333   9.492  0.2836  1.0493 -0.7752
  959MOL0     H29456   0.777   4.260   9.525 -0.1622  0.8127  0.7598
  959MOL0     H29457   0.842   4.471   9.567 -1.6481  0.2191 -1.7425
  959MOL0     H29458   0.774   4.454   9.729  0.3587  1.1123  0.1181
  959MOL0     H29459   0.624   4.562   9.489  0.2967 -2.3318  0.1813
  959MOL0     H29460   0.551   4.537   9.645  0.7859 -0.1368  1.9858
  959MOL0     H29461   0.761   4.904   9.682  1.0601 -0.0907  2.4918
  959MOL0     H29462   0.368   4.214   9.649  0.6109 -0.5269 -0.0599
  959MOL0     H29463   0.078   4.058   9.586  0.3626 -1.1255 -0.2369
  959MOL0     H29464   0.074   4.062   9.769  1.9820 -1.5888  1.1680
  959MOL0     H29465   0.144   4.198   9.667  1.7247 -0.8236 -0.1140
  960MOL0     O29466   8.573   2.683   8.027 -0.0020 -0.1665 -0.0647
  960MOL0     C29467   8.472   2.693   7.949  0.0698  0.2233 -0.5867
  960MOL0     O29468   8.479   2.691   7.817 -0.0600 -0.4896 -0.1247
  960MOL0     C29469   8.595   2.690   7.745 -0.2834 -0.2250  0.2028
  960MOL0     C29470   8.669   2.574   7.728 -0.1126 -0.5545 -0.1960
  960MOL0     C29471   8.775   2.569   7.642 -0.7739  0.1902  0.7115
  960MOL0     C29472   8.818   2.674   7.564  0.1673 -1.1437  0.8179
  960MOL0     O29473   8.907   2.647   7.464 -0.3051  0.1926  0.0670
  960MOL0     C29474   8.971   2.754   7.391  0.2034 -0.1611  0.9136
  960MOL0     C29475   9.111   2.760   7.440 -0.9324  0.8866  0.2042
  960MOL0     C29476   9.181   2.625   7.443  0.5784  0.1041  0.4616
  960MOL0     C29477   9.324   2.637   7.488  0.1286  0.4577 -0.1995
  960MOL0     C29478   9.425   2.678   7.378  0.1044  0.0368 -0.3024
  960MOL0     C29479   9.568   2.723   7.427  0.1844 -0.5877  0.3932
  960MOL0     C29480   9.664   2.734   7.313 -0.0164  0.2424  0.5369
  960MOL0     C29481   9.793   2.778   7.374 -0.8314  1.1617  0.6276
  960MOL0     N29482   9.897   2.796   7.273 -0.3436  0.2573  0.0702
  960MOL0     C29483   9.957   2.694   7.199 -0.7595  0.7936  0.0358
  960MOL0     C29484  10.028   2.766   7.112 -0.1887  0.6706  0.2411
  960MOL0     C29485  10.138   2.709   7.019 -0.1376 -0.3375  0.6019
  960MOL0     C29486  10.269   2.774   7.051  1.0169 -0.3912 -0.5290
  960MOL0     C29487  10.343   2.729   7.188 -0.7274 -0.8805 -0.6464
  960MOL0     C29488  10.431   2.605   7.162 -0.4694 -0.2821  0.1633
  960MOL0     O29489  10.548   2.633   7.077  0.7338 -0.8948  0.0974
  960MOL0     C29490  10.651   2.704   7.129 -0.4493  0.3345 -0.2957
  960MOL0     C29491  10.682   2.713   7.266 -0.8049 -0.5683  0.6412
  960MOL0     C29492  10.797   2.786   7.307  0.0545  0.0800  0.1842
  960MOL0     C29493  10.884   2.856   7.213 -0.1510  0.1965  0.1642
  960MOL0     C29494  11.014   2.916   7.258  0.2094 -1.1313  0.4256
  960MOL0     O29495  11.123   2.900   7.167 -0.3261  0.4847 -0.1011
  960MOL0     C29496  11.253   2.921   7.202 -0.6289 -0.9987 -0.3020
  960MOL0     C29497  11.334   3.013   7.138 -0.0204 -1.0888 -0.1459
  960MOL0     C29498  11.464   3.042   7.181 -0.5958 -0.0874  0.7342
  960MOL0     C29499  11.527   2.979   7.288 -0.7285 -0.1021  0.5162
  960MOL0     O29500  11.658   2.998   7.299 -0.3498  0.0270 -0.1017
  960MOL0     C29501  11.737   2.916   7.395  0.2227 -0.7878  0.5027
  960MOL0     C29502  11.878   2.950   7.402 -0.6037  1.0600  0.5334
  960MOL0     C29503  11.948   2.862   7.510 -0.3126  0.2180 -0.2436
  960MOL0     C29504  12.100   2.831   7.501  0.4824  0.0580 -0.5206
  960MOL0     C29505  12.146   2.738   7.614 -0.7910  0.6311  0.8254
  960MOL0     C29506  12.303   2.720   7.617  0.8259 -0.1433 -0.2050
  960MOL0     C29507  12.360   2.842   7.695  0.2101 -0.0503 -0.7985
  960MOL0     C29508  12.509   2.804   7.705  1.0332 -0.5334 -0.2855
  960MOL0    Cl29509  12.612   2.943   7.744 -0.0121  0.0151  0.5327
  960MOL0     C29510  11.435   2.892   7.360 -0.9427 -0.6541 -0.7084
  960MOL0     C29511  11.309   2.859   7.313 -0.0093  0.3058  1.8102
  960MOL0     O29512  11.020   2.959   7.367 -0.0015 -0.0193 -0.2423
  960MOL0     C29513  10.844   2.849   7.073 -0.5648  0.5783  0.3025
  960MOL0     C29514  10.732   2.773   7.038 -0.9410 -0.2217  0.4656
  960MOL0     N29515  10.001   2.901   7.133 -0.5543  0.1897  0.1866
  960MOL0     N29516   9.929   2.923   7.237 -0.0854  0.1068 -0.2194
  960MOL0     C29517   8.760   2.798   7.596 -1.2807 -0.5436 -0.7032
  960MOL0     C29518   8.650   2.806   7.687 -0.2335 -0.0057  0.0837
  960MOL0     C29519   8.336   2.688   8.019 -0.4945  0.3632  0.5732
  960MOL0     C29520   8.224   2.649   7.940  0.5309  0.0076  0.0408
  960MOL0     C29521   8.093   2.657   7.992 -0.2246 -0.3891 -0.0128
  960MOL0     C29522   8.072   2.711   8.122  0.2235 -0.0418  0.1475
  960MOL0     O29523   7.943   2.715   8.160  0.0111  0.5280  0.6493
  960MOL0     C29524   7.907   2.789   8.279  0.6775 -0.4413  0.0848
  960MOL0     C29525   7.768   2.855   8.266  0.2711 -0.1228 -0.0432
  960MOL0     C29526   7.643   2.764   8.295  0.1962 -1.0117 -0.2143
  960MOL0     C29527   7.513   2.832   8.259 -0.8915  0.9712 -0.0714
  960MOL0     C29528   7.470   2.936   8.361 -0.2089 -0.1815 -0.7562
  960MOL0     C29529   7.422   3.013   8.438  0.0206 -0.5317 -1.1079
  960MOL0     C29530   8.184   2.740   8.202 -0.2134  0.1922  1.0352
  960MOL0     C29531   8.317   2.731   8.149  0.2888 -0.6934 -0.3349
  960MOL0     C29532   8.421   2.790   8.245 -0.1561  0.0885  0.2913
  960MOL0     H29533   8.632   2.487   7.780 -1.8699  0.1009 -0.2750
  960MOL0     H29534   8.818   2.471   7.627 -1.0708 -0.3733  3.1303
  960MOL0     H29535   8.986   2.736   7.284  3.5811  1.1349  1.0398
  960MOL0     H29536   8.927   2.851   7.414  0.9296  0.4176 -0.0986
  960MOL0     H29537   9.106   2.797   7.543  1.4075 -0.8982  1.0716
  960MOL0     H29538   9.166   2.837   7.385 -0.5484  2.5024  2.6852
  960MOL0     H29539   9.180   2.578   7.344 -1.9427  0.1781  0.3941
  960MOL0     H29540   9.132   2.560   7.517  0.5501 -2.3122 -1.5463
  960MOL0     H29541   9.311   2.692   7.582  0.5464 -2.4305  1.6869
  960MOL0     H29542   9.357   2.536   7.516  1.8533  0.3464 -2.4154
  960MOL0     H29543   9.431   2.593   7.309  0.4919  0.6121 -0.9916
  960MOL0     H29544   9.378   2.749   7.308 -1.7212 -1.0367 -0.2203
  960MOL0     H29545   9.563   2.811   7.492 -2.3175 -2.8108  3.5255
  960MOL0     H29546   9.588   2.639   7.493  0.0005 -0.8523  0.1147
  960MOL0     H29547   9.625   2.822   7.261 -1.0078  0.1352  1.0668
  960MOL0     H29548   9.677   2.645   7.251  2.7184 -0.6402  2.1705
  960MOL0     H29549   9.773   2.879   7.411  1.1085  2.3867 -1.4111
  960MOL0     H29550   9.825   2.709   7.452 -1.0449 -0.5703 -0.7554
  960MOL0     H29551   9.952   2.586   7.207 -1.7427  0.6546 -1.8657
  960MOL0     H29552  10.141   2.600   7.029 -0.0560 -0.4355 -0.3985
  960MOL0     H29553  10.109   2.731   6.916  1.6959 -1.1851 -0.1516
  960MOL0     H29554  10.332   2.752   6.964  0.3829 -4.4914 -0.1426
  960MOL0     H29555  10.253   2.882   7.055 -0.7040 -0.6643  1.7849
  960MOL0     H29556  10.277   2.699   7.270  1.6093 -0.9506  1.3044
  960MOL0     H29557  10.405   2.809   7.229 -1.5247 -1.4543  1.8235
  960MOL0     H29558  10.380   2.526   7.106  0.0149 -0.4069 -0.1054
  960MOL0     H29559  10.466   2.563   7.257 -1.4654 -0.8101  0.3098
  960MOL0     H29560  10.616   2.670   7.340 -3.2834  2.0890  0.1898
  960MOL0     H29561  10.816   2.785   7.414 -3.2834  3.8167  1.0431
  960MOL0     H29562  11.294   3.066   7.052 -0.5608 -1.4330 -0.1108
  960MOL0     H29563  11.527   3.109   7.124  0.3785 -1.5694  0.0169
  960MOL0     H29564  11.700   2.917   7.498  1.7712 -1.2601  1.0955
  960MOL0     H29565  11.736   2.811   7.365  1.0656 -0.8296  0.6081
  960MOL0     H29566  11.933   2.928   7.311  0.7166  0.7368  1.3759
  960MOL0     H29567  11.894   3.052   7.439  3.3798  0.5057  0.7924
  960MOL0     H29568  11.926   2.905   7.608 -0.4688 -1.6116  0.5798
  960MOL0     H29569  11.889   2.770   7.515 -1.0671  0.7826  1.9806
  960MOL0     H29570  12.167   2.916   7.514  4.2593 -2.7233  0.1743
  960MOL0     H29571  12.109   2.788   7.401  0.3400 -1.8635  0.2422
  960MOL0     H29572  12.110   2.636   7.600 -0.6731  0.6956 -0.0125
  960MOL0     H29573  12.110   2.767   7.714 -0.6244 -2.4806  1.9026
  960MOL0     H29574  12.331   2.625   7.662  1.0359 -0.0657 -0.1682
  960MOL0     H29575  12.351   2.703   7.520  0.0360 -3.2658 -0.1405
  960MOL0     H29576  12.307   2.858   7.789  3.2535  0.8665  0.8912
  960MOL0     H29577  12.359   2.931   7.631  4.2431  2.5233  2.1878
  960MOL0     H29578  12.515   2.727   7.782 -2.0082  1.7951  2.6118
  960MOL0     H29579  12.543   2.767   7.608  0.2065 -0.7828 -0.4911
  960MOL0     H29580  11.483   2.836   7.440  2.2018  1.8760 -0.5809
  960MOL0     H29581  11.244   2.786   7.359  1.6054 -1.3005  1.6801
  960MOL0     H29582  10.909   2.895   6.999 -0.2583  3.9971  2.4953
  960MOL0     H29583  10.717   2.784   6.931  1.5851  0.8463  0.1606
  960MOL0     H29584   8.792   2.890   7.548  0.1432 -0.2647  0.7323
  960MOL0     H29585   8.611   2.904   7.716 -2.3140 -1.2731  1.8946
  960MOL0     H29586   8.230   2.620   7.836 -0.2336  0.7413 -0.2240
  960MOL0     H29587   8.006   2.622   7.937 -0.8155 -0.1147  0.7214
  960MOL0     H29588   7.966   2.880   8.294 -0.8905  1.3420 -3.4226
  960MOL0     H29589   7.915   2.721   8.365  2.1623 -0.0568  0.2876
  960MOL0     H29590   7.753   2.893   8.165  1.5165  1.5146  0.3334
  960MOL0     H29591   7.766   2.940   8.336  0.6471  1.1028 -1.4695
  960MOL0     H29592   7.642   2.738   8.401  1.8259 -0.0728  0.0711
  960MOL0     H29593   7.663   2.669   8.245  0.6886 -0.8373 -0.3561
  960MOL0     H29594   7.510   2.877   8.159  2.5987  0.3908 -0.5780
  960MOL0     H29595   7.444   2.748   8.269 -0.4342  0.5205 -0.6066
  960MOL0     H29596   7.363   3.078   8.498 -1.0049  0.7220 -3.3331
  960MOL0     H29597   8.168   2.768   8.306 -2.1256  0.9096  0.5853
  960MOL0     H29598   8.503   2.725   8.274 -1.6888 -1.0874  2.2416
  960MOL0     H29599   8.472   2.877   8.201  1.9417 -1.6627 -0.9303
  960MOL0     H29600   8.373   2.825   8.337 -1.8265  0.3652 -0.6353
  961MOL0     O29601   4.984   3.707   5.904 -0.0114  0.0294 -0.3562
  961MOL0     C29602   4.938   3.671   6.013 -0.6757  0.2288 -0.2274
  961MOL0     O29603   4.934   3.738   6.130  0.5645 -0.3654  0.1347
  961MOL0     C29604   4.957   3.874   6.151 -0.0046  0.0958  0.2754
  961MOL0     C29605   4.968   3.976   6.054 -0.7738  0.0430  0.8271
  961MOL0     C29606   5.000   4.104   6.082 -0.5261 -0.2873  0.2631
  961MOL0     C29607   5.020   4.139   6.209  0.2374 -1.0076  1.1486
  961MOL0     O29608   5.086   4.258   6.228  0.2488 -0.0876  0.3772
  961MOL0     C29609   5.002   4.367   6.263 -0.1917  1.0766 -0.8324
  961MOL0     C29610   5.024   4.493   6.185 -0.1715  0.5541  0.9593
  961MOL0     C29611   4.899   4.565   6.139  0.7661  0.3409 -0.1125
  961MOL0     C29612   4.845   4.636   6.255  0.0713 -0.1743  0.0838
  961MOL0     C29613   4.702   4.675   6.246 -0.1082 -0.0653  0.5307
  961MOL0     C29614   4.677   4.819   6.287  0.5817 -0.6944 -0.9141
  961MOL0     C29615   4.729   4.920   6.182  0.8552 -0.1429  0.3424
  961MOL0     C29616   4.716   5.068   6.218  0.3917 -0.2086  0.0310
  961MOL0     N29617   4.757   5.159   6.105 -0.2053 -0.4726 -0.3929
  961MOL0     C29618   4.735   5.132   5.977 -0.9684  0.2239 -0.1899
  961MOL0     C29619   4.777   5.241   5.913  0.1109  0.4704  0.2365
  961MOL0     C29620   4.769   5.253   5.759 -0.4824 -0.7014 -0.7826
  961MOL0     C29621   4.903   5.269   5.684  0.2434 -0.1821 -0.1947
  961MOL0     C29622   5.002   5.359   5.755  0.0859 -0.1249 -0.3006
  961MOL0     C29623   5.130   5.365   5.682  0.8459 -0.2198 -0.4354
  961MOL0     O29624   5.220   5.453   5.755  0.3854 -0.1587  0.2540
  961MOL0     C29625   5.354   5.447   5.716  0.2377 -0.1496  0.8023
  961MOL0     C29626   5.446   5.547   5.756 -0.3098  0.7562  0.3558
  961MOL0     C29627   5.575   5.538   5.724 -0.4500 -0.0254  0.0201
  961MOL0     C29628   5.636   5.427   5.666 -0.4835  0.2937  0.8139
  961MOL0     C29629   5.784   5.410   5.653  0.1167  0.2798  0.1638
  961MOL0     O29630   5.850   5.465   5.753 -0.2946  0.2575 -0.0163
  961MOL0     C29631   5.986   5.456   5.773  0.4469  0.1327 -0.3459
  961MOL0     C29632   6.061   5.571   5.821  0.1160 -0.0682 -0.4902
  961MOL0     C29633   6.203   5.569   5.826  0.1291 -0.9323 -0.0865
  961MOL0     C29634   6.271   5.454   5.802  0.3113  0.2923  0.8229
  961MOL0     O29635   6.410   5.447   5.806 -0.0544 -0.8609 -0.4163
  961MOL0     C29636   6.487   5.570   5.831 -1.6039 -0.1468  0.3731
  961MOL0     C29637   6.635   5.526   5.806 -0.3903  1.0127 -0.6014
  961MOL0     C29638   6.687   5.402   5.883 -0.5736 -0.6071  0.0616
  961MOL0     C29639   6.833   5.360   5.831  0.9207  0.0803 -0.4941
  961MOL0     C29640   6.840   5.211   5.833  0.6509 -0.4245  0.6104
  961MOL0     C29641   6.942   5.164   5.733  0.7434 -0.1226 -0.7734
  961MOL0     C29642   6.928   5.011   5.713  0.1043  0.0473  0.3503
  961MOL0     C29643   7.049   4.943   5.633  0.1102  0.2299 -0.3770
  961MOL0    Cl29644   7.025   4.994   5.462  0.1167 -0.4633  0.1117
  961MOL0     C29645   6.195   5.330   5.772  0.0996 -0.6729  1.2813
  961MOL0     C29646   6.053   5.336   5.752 -0.0865  0.4590  0.8288
  961MOL0     O29647   5.832   5.346   5.563 -0.3047 -0.0897  0.1575
  961MOL0     C29648   5.551   5.329   5.622  0.5929 -0.1587 -0.7545
  961MOL0     C29649   5.412   5.345   5.639 -0.1780  0.4547  0.5328
  961MOL0     N29650   4.835   5.323   6.004  0.3824  0.4927  0.5344
  961MOL0     N29651   4.830   5.271   6.121  0.0853  0.7799 -0.3496
  961MOL0     C29652   4.973   4.060   6.312 -0.9217  0.1877 -0.0903
  961MOL0     C29653   4.949   3.928   6.279 -0.1087 -0.2462  0.3771
  961MOL0     C29654   4.876   3.540   6.014 -0.0730  0.0552 -0.2616
  961MOL0     C29655   4.749   3.537   6.074  0.1152 -0.7022 -0.2541
  961MOL0     C29656   4.684   3.424   6.098  0.9938  0.4307  0.1105
  961MOL0     C29657   4.737   3.297   6.062  0.2107 -0.0500 -0.2796
  961MOL0     O29658   4.675   3.175   6.097 -0.5072 -0.4662  0.0202
  961MOL0     C29659   4.596   3.184   6.216  0.2593  0.5672  0.2170
  961MOL0     C29660   4.447   3.165   6.180  0.7773 -0.0079 -0.0838
  961MOL0     C29661   4.430   3.060   6.068 -0.0059 -0.2682  0.1893
  961MOL0     C29662   4.300   2.982   6.070 -0.3586 -0.1170  0.4424
  961MOL0     C29663   4.300   2.862   6.155  0.6098 -0.3831  0.0677
  961MOL0     C29664   4.290   2.769   6.234 -0.2412  0.1856  0.0578
  961MOL0     C29665   4.851   3.301   5.981 -1.0377 -0.2549 -0.5076
  961MOL0     C29666   4.927   3.418   5.961 -0.0896  0.5208  0.3292
  961MOL0     C29667   5.062   3.402   5.887 -0.5544 -0.6546  0.5939
  961MOL0     H29668   4.964   3.964   5.946  0.6483 -1.8886  0.9222
  961MOL0     H29669   5.034   4.161   5.995  2.5564 -2.6725 -0.2597
  961MOL0     H29670   4.894   4.347   6.253 -0.4634  1.4738  0.8931
  961MOL0     H29671   5.015   4.367   6.372  1.0426 -3.1209 -0.8053
  961MOL0     H29672   5.080   4.477   6.092  0.1024  2.3499  0.7799
  961MOL0     H29673   5.076   4.554   6.260  0.1113 -0.0934  1.2977
  961MOL0     H29674   4.829   4.490   6.101  0.7772  0.7824 -1.0172
  961MOL0     H29675   4.931   4.638   6.065  0.5491  1.1583  0.5853
  961MOL0     H29676   4.858   4.569   6.340 -0.9748 -3.1016 -1.9115
  961MOL0     H29677   4.914   4.721   6.262 -0.3421  0.0706  1.2604
  961MOL0     H29678   4.671   4.663   6.142 -0.1010 -1.2394  0.6499
  961MOL0     H29679   4.643   4.607   6.308  0.3497 -0.7226  0.2618
  961MOL0     H29680   4.570   4.840   6.297  1.0432  0.7607  3.0139
  961MOL0     H29681   4.726   4.831   6.384  1.0824 -2.3940 -0.9221
  961MOL0     H29682   4.669   4.905   6.091 -1.4910 -1.8340  2.0574
  961MOL0     H29683   4.835   4.911   6.156  0.9974 -0.3645  0.9880
  961MOL0     H29684   4.612   5.087   6.245  0.3146  0.6461 -0.8310
  961MOL0     H29685   4.762   5.088   6.315 -0.5991  2.0994  0.0823
  961MOL0     H29686   4.695   5.044   5.927  1.9985 -1.5738  0.3702
  961MOL0     H29687   4.719   5.161   5.728  1.0057 -2.4288  1.6209
  961MOL0     H29688   4.693   5.331   5.745 -1.8890 -1.6054  1.3472
  961MOL0     H29689   4.947   5.169   5.682 -0.6584 -0.5906 -0.4876
  961MOL0     H29690   4.874   5.303   5.584 -0.7448 -1.2597 -0.2981
  961MOL0     H29691   5.035   5.308   5.846 -2.2366 -2.5944 -0.7052
  961MOL0     H29692   4.962   5.458   5.779 -2.0262 -1.2078  0.8902
  961MOL0     H29693   5.090   5.411   5.591 -3.8023  1.3821  2.0557
  961MOL0     H29694   5.173   5.265   5.670 -1.1021 -1.2499  0.6531
  961MOL0     H29695   5.399   5.634   5.800  1.0713  1.4848  0.4609
  961MOL0     H29696   5.638   5.626   5.738 -1.7694  0.9143  0.2405
  961MOL0     H29697   5.999   5.654   5.854 -0.2564 -0.5942  0.1704
  961MOL0     H29698   6.255   5.661   5.850 -1.9757 -0.3593  2.7829
  961MOL0     H29699   6.458   5.654   5.767 -2.5458  0.4475  1.5502
  961MOL0     H29700   6.481   5.610   5.932  1.3073  2.0297 -0.1926
  961MOL0     H29701   6.638   5.505   5.698  0.4547  4.9852 -1.5148
  961MOL0     H29702   6.700   5.613   5.818 -1.4084  1.6958  0.1702
  961MOL0     H29703   6.690   5.429   5.989  5.8073  1.0064 -0.1253
  961MOL0     H29704   6.617   5.322   5.856 -0.0472 -0.0820 -3.4411
  961MOL0     H29705   6.907   5.404   5.899 -1.4398  2.9008  0.4631
  961MOL0     H29706   6.836   5.412   5.735 -3.1070  3.5271  0.9259
  961MOL0     H29707   6.742   5.171   5.806 -0.5731  2.6487  0.0292
  961MOL0     H29708   6.874   5.175   5.931  1.0940 -2.6555 -0.2932
  961MOL0     H29709   6.927   5.221   5.642 -1.6895  0.5577 -0.0108
  961MOL0     H29710   7.040   5.195   5.772  0.3776  1.4312 -1.0230
  961MOL0     H29711   6.824   4.997   5.684 -0.3487  1.3486  1.2692
  961MOL0     H29712   6.929   4.965   5.813  0.4246  1.5976  1.0955
  961MOL0     H29713   7.140   4.981   5.678 -1.8304  2.1452  2.2334
  961MOL0     H29714   7.045   4.834   5.641  0.4670  0.3432  2.4946
  961MOL0     H29715   6.238   5.234   5.748 -0.0905 -0.0788 -1.8330
  961MOL0     H29716   6.007   5.242   5.724  2.8186 -0.6734 -0.5792
  961MOL0     H29717   5.579   5.236   5.574  3.5495 -1.1798  2.5534
  961MOL0     H29718   5.351   5.276   5.582  0.9751  1.8548 -2.6269
  961MOL0     H29719   4.977   4.096   6.414 -0.1683  0.3908 -0.1853
  961MOL0     H29720   4.925   3.863   6.363  0.7153  1.5188  2.0366
  961MOL0     H29721   4.717   3.625   6.127  3.2716  0.2754  0.2347
  961MOL0     H29722   4.603   3.450   6.165  1.9561  1.2271  1.0001
  961MOL0     H29723   4.616   3.264   6.288 -0.4537 -1.8561  3.3230
  961MOL0     H29724   4.632   3.101   6.277  0.0084  0.9728  0.9280
  961MOL0     H29725   4.404   3.259   6.144 -2.3903 -1.9510 -1.7471
  961MOL0     H29726   4.381   3.141   6.264  0.0466 -0.5620 -0.8024
  961MOL0     H29727   4.508   2.984   6.072 -2.1632 -2.7261 -1.0871
  961MOL0     H29728   4.436   3.113   5.972  1.9886 -0.0472  0.4005
  961MOL0     H29729   4.232   3.057   6.113  3.1600  4.8512 -1.6228
  961MOL0     H29730   4.276   2.958   5.967 -0.2128  0.9093  0.1568
  961MOL0     H29731   4.318   2.686   6.295  3.3983 -0.2360 -1.8780
  961MOL0     H29732   4.897   3.208   5.949  1.7184  0.3712  1.2754
  961MOL0     H29733   5.130   3.355   5.959 -0.0712  1.3955  1.5774
  961MOL0     H29734   5.050   3.345   5.795  0.5857  0.8086 -0.5164
  961MOL0     H29735   5.109   3.497   5.861 -0.2365 -0.8559  0.4267
  962MOL0     O29736   4.883   2.679   3.814  0.7258 -0.7580  0.0233
  962MOL0     C29737   4.845   2.789   3.758  0.8821  0.7758 -0.0256
  962MOL0     O29738   4.837   2.809   3.622 -0.2184  0.2935  0.6558
  962MOL0     C29739   4.931   2.740   3.543  0.1883  1.3919  0.4205
  962MOL0     C29740   4.917   2.610   3.492 -0.3428  0.1145  0.8122
  962MOL0     C29741   5.006   2.558   3.401 -0.5381  0.2016  0.0652
  962MOL0     C29742   5.110   2.629   3.341  0.0210  0.2817 -0.0131
  962MOL0     O29743   5.174   2.561   3.252 -0.3500  0.9995  0.0187
  962MOL0     C29744   5.288   2.626   3.191 -0.2268 -0.0232 -0.6851
  962MOL0     C29745   5.255   2.741   3.089  0.3543  0.8943 -1.1754
  962MOL0     C29746   5.367   2.845   3.063 -0.5665 -0.6602  1.2611
  962MOL0     C29747   5.323   2.928   2.938 -0.4502  1.1159  0.5858
  962MOL0     C29748   5.449   3.013   2.879 -0.5494 -0.0889  0.6872
  962MOL0     C29749   5.404   3.069   2.750  0.0940  0.3729  0.3598
  962MOL0     C29750   5.376   2.966   2.636 -1.0163  0.1594 -0.9556
  962MOL0     C29751   5.404   3.032   2.502 -0.8197 -0.6574  0.2217
  962MOL0     N29752   5.304   3.146   2.472 -0.0623  0.3282  0.6817
  962MOL0     C29753   5.195   3.128   2.389 -0.6199  0.4291  0.1993
  962MOL0     C29754   5.152   3.250   2.363  1.3232  0.4191 -0.4913
  962MOL0     C29755   5.026   3.269   2.280  0.8958 -0.0179 -0.1265
  962MOL0     C29756   5.051   3.358   2.150 -0.1167  0.3126 -0.3081
  962MOL0     C29757   5.184   3.337   2.074 -0.3645  0.9750  0.8993
  962MOL0     C29758   5.178   3.253   1.952  0.2861 -1.0593 -0.6185
  962MOL0     O29759   5.093   3.136   1.971 -0.5567 -0.2748  0.0393
  962MOL0     C29760   5.146   3.014   2.034 -0.2600 -0.9813  0.8693
  962MOL0     C29761   5.057   2.906   2.007  0.2366  0.3154  0.6145
  962MOL0     C29762   5.102   2.777   2.038  0.2885 -0.0170  0.6027
  962MOL0     C29763   5.222   2.754   2.115 -0.6066 -0.4623 -0.0483
  962MOL0     C29764   5.264   2.626   2.174  0.2448  0.2942  0.1187
  962MOL0     O29765   5.161   2.553   2.214  0.0069  0.0054  1.3206
  962MOL0     C29766   5.178   2.414   2.235  0.3455  0.3223  0.3834
  962MOL0     C29767   5.280   2.326   2.182  1.0435 -0.2377  0.5138
  962MOL0     C29768   5.284   2.192   2.221  0.9233 -0.4214 -0.4694
  962MOL0     C29769   5.184   2.134   2.300 -0.2568 -0.6258 -0.9129
  962MOL0     O29770   5.193   2.001   2.337  0.0840  0.5185  0.7957
  962MOL0     C29771   5.217   1.904   2.230  0.1407 -0.8780 -0.2888
  962MOL0     C29772   5.333   1.824   2.262 -0.3871  0.3167  0.0133
  962MOL0     C29773   5.337   1.687   2.187  0.7115  0.2052 -0.3128
  962MOL0     C29774   5.487   1.635   2.198  0.2594  0.2404  0.0847
  962MOL0     C29775   5.507   1.493   2.121  0.2852 -0.7762  0.2073
  962MOL0     C29776   5.653   1.456   2.109 -0.0264  0.4308 -0.2720
  962MOL0     C29777   5.685   1.312   2.052  0.1123  0.8837 -0.2627
  962MOL0     C29778   5.612   1.199   2.128 -0.5910  0.2044 -0.0157
  962MOL0    Cl29779   5.670   1.169   2.296  0.0493 -0.4525 -0.2184
  962MOL0     C29780   5.087   2.214   2.355  1.1003 -0.0017  0.2205
  962MOL0     C29781   5.078   2.354   2.328  0.4416  0.6270 -0.0415
  962MOL0     O29782   5.382   2.594   2.192  1.2443  0.0602 -0.3425
  962MOL0     C29783   5.308   2.866   2.134 -0.6819 -0.4007 -0.0354
  962MOL0     C29784   5.277   3.001   2.097  0.3151 -0.1981  0.7150
  962MOL0     N29785   5.220   3.342   2.441  0.7881  0.8306  0.0595
  962MOL0     N29786   5.301   3.273   2.517 -0.2204 -0.7450 -0.5496
  962MOL0     C29787   5.129   2.761   3.386  0.1055 -0.6082  0.3276
  962MOL0     C29788   5.040   2.812   3.498  0.3561  0.3512  0.4160
  962MOL0     C29789   4.761   2.890   3.836 -0.1478 -0.2888 -0.3867
  962MOL0     C29790   4.634   2.915   3.798 -0.2124  0.1568  0.7184
  962MOL0     C29791   4.540   2.979   3.874 -0.3372 -0.3929  0.1318
  962MOL0     C29792   4.578   3.045   3.982 -0.8756  0.5754  0.4388
  962MOL0     O29793   4.505   3.126   4.058  0.4600 -0.1762 -0.1420
  962MOL0     C29794   4.402   3.192   3.988 -0.4748  0.5693 -1.0958
  962MOL0     C29795   4.272   3.136   4.033 -0.1636 -0.9072 -0.0191
  962MOL0     C29796   4.249   3.184   4.178 -0.7666  0.1335 -0.4823
  962MOL0     C29797   4.105   3.205   4.192  0.0157  0.1897 -1.3147
  962MOL0     C29798   4.086   3.177   4.337  0.4935  1.0812 -0.0510
  962MOL0     C29799   4.077   3.130   4.453 -0.0465  0.3880 -0.2690
  962MOL0     C29800   4.704   3.018   4.038 -0.4207 -0.2194  1.3853
  962MOL0     C29801   4.797   2.945   3.960 -0.3233 -0.7447 -0.0308
  962MOL0     C29802   4.942   2.928   4.014 -0.3017  0.0190 -0.3631
  962MOL0     H29803   4.833   2.546   3.518 -1.1300  0.9128  0.2952
  962MOL0     H29804   4.977   2.457   3.373 -0.0457  0.8681 -3.2669
  962MOL0     H29805   5.351   2.679   3.263 -0.2254  0.4927 -1.0646
  962MOL0     H29806   5.355   2.552   3.147 -1.4536 -1.4661 -0.2294
  962MOL0     H29807   5.175   2.792   3.144  2.1468  1.0411  1.5151
  962MOL0     H29808   5.205   2.700   3.001  0.5766  0.5838 -1.1617
  962MOL0     H29809   5.461   2.794   3.041  0.1050  1.1313 -0.3256
  962MOL0     H29810   5.383   2.913   3.146 -0.2072 -0.3968  0.9787
  962MOL0     H29811   5.296   2.857   2.859  2.0122  0.6047  0.0990
  962MOL0     H29812   5.242   2.999   2.957 -0.7499  1.7203 -2.4139
  962MOL0     H29813   5.479   3.094   2.947  3.1023  0.2756 -1.1180
  962MOL0     H29814   5.530   2.943   2.859 -0.3145 -0.0970  1.6135
  962MOL0     H29815   5.314   3.130   2.756  0.7392  1.3856 -0.0228
  962MOL0     H29816   5.469   3.154   2.729 -0.9541  2.2578  3.8734
  962MOL0     H29817   5.276   2.928   2.658 -0.2318  0.9771  6.2264
  962MOL0     H29818   5.448   2.886   2.656 -0.0076  1.7438  2.3114
  962MOL0     H29819   5.500   3.083   2.501 -1.2797  0.2453 -0.7610
  962MOL0     H29820   5.388   2.969   2.414 -2.3491  1.3104 -1.0145
  962MOL0     H29821   5.152   3.042   2.340 -1.1989 -0.7303  2.5930
  962MOL0     H29822   4.973   3.174   2.270 -1.9133  1.4314 -0.0727
  962MOL0     H29823   4.956   3.319   2.347 -3.3785 -0.5518 -3.7098
  962MOL0     H29824   4.969   3.342   2.079 -1.4134  1.2815  0.9152
  962MOL0     H29825   5.046   3.458   2.196  0.3822 -0.8132  2.4027
  962MOL0     H29826   5.255   3.286   2.140 -0.8507  0.8789  1.3595
  962MOL0     H29827   5.236   3.432   2.057  2.0813 -0.3253  0.6506
  962MOL0     H29828   5.275   3.231   1.906  1.0555  1.1727 -0.1886
  962MOL0     H29829   5.121   3.305   1.875  1.5190 -0.2197 -0.9993
  962MOL0     H29830   4.968   2.932   1.950  1.8502  2.0266 -1.3250
  962MOL0     H29831   5.035   2.699   2.005  1.6755 -0.4482 -1.3572
  962MOL0     H29832   5.346   2.374   2.110  1.2142 -0.2495  0.6643
  962MOL0     H29833   5.367   2.130   2.188 -1.1746 -2.0307 -2.9946
  962MOL0     H29834   5.135   1.832   2.224  0.5354 -1.3288 -0.2815
  962MOL0     H29835   5.211   1.965   2.139  1.6818  1.6101  1.1728
  962MOL0     H29836   5.417   1.882   2.223 -1.2610  1.9016  0.4039
  962MOL0     H29837   5.344   1.812   2.370  1.3749 -1.4529 -0.2958
  962MOL0     H29838   5.264   1.615   2.224  1.0167 -0.5064 -1.0655
  962MOL0     H29839   5.314   1.713   2.083 -0.3935  0.9832  0.1077
  962MOL0     H29840   5.519   1.637   2.303 -2.2521  2.9813  0.9590
  962MOL0     H29841   5.557   1.708   2.157  0.9092  0.1110  0.9253
  962MOL0     H29842   5.489   1.506   2.013 -0.8137 -3.4741  0.0082
  962MOL0     H29843   5.440   1.412   2.151 -0.9096 -1.5618 -3.9031
  962MOL0     H29844   5.711   1.535   2.061 -1.5179  0.1836 -2.6174
  962MOL0     H29845   5.687   1.452   2.213 -3.1170 -0.7883  0.7858
  962MOL0     H29846   5.794   1.305   2.045  0.0898 -0.0544  0.0621
  962MOL0     H29847   5.652   1.304   1.948  1.3578  1.4058 -0.7155
  962MOL0     H29848   5.507   1.223   2.145 -0.4825  3.4977 -2.9164
  962MOL0     H29849   5.628   1.110   2.067  4.6337  1.6117 -1.1563
  962MOL0     H29850   5.013   2.168   2.419 -0.1374  1.7298  0.1129
  962MOL0     H29851   4.995   2.417   2.359  0.8977  0.8027  0.8465
  962MOL0     H29852   5.402   2.853   2.188  1.1179  2.2395 -2.2330
  962MOL0     H29853   5.346   3.081   2.121  2.3393 -2.1582  1.8032
  962MOL0     H29854   5.200   2.832   3.346 -2.9210  2.6948  0.2807
  962MOL0     H29855   5.043   2.916   3.526 -0.3598  1.3661 -2.8887
  962MOL0     H29856   4.597   2.862   3.711  2.2095 -0.1308 -0.1892
  962MOL0     H29857   4.441   2.989   3.831 -0.0635 -2.1488 -1.0568
  962MOL0     H29858   4.423   3.210   3.883  0.6407  1.6375 -0.7087
  962MOL0     H29859   4.404   3.297   4.019 -0.8288  0.0786  0.7498
  962MOL0     H29860   4.259   3.028   4.022 -2.3176 -0.5223 -1.9651
  962MOL0     H29861   4.194   3.181   3.970 -0.4824 -0.1374  0.8961
  962MOL0     H29862   4.309   3.274   4.196  1.1575 -1.0726 -0.5462
  962MOL0     H29863   4.296   3.116   4.250  2.0654  0.5045 -1.8254
  962MOL0     H29864   4.071   3.307   4.173 -1.8717 -0.1274  0.0685
  962MOL0     H29865   4.045   3.125   4.148  1.3559 -1.4071 -0.3495
  962MOL0     H29866   4.076   3.089   4.552  3.7726  0.6749  0.0281
  962MOL0     H29867   4.737   3.066   4.129  2.9034  2.2341 -0.8854
  962MOL0     H29868   4.940   2.884   4.114 -1.9795 -1.0444 -0.8117
  962MOL0     H29869   5.004   2.868   3.948  0.6519 -3.7333  3.5171
  962MOL0     H29870   4.983   3.028   4.027  0.8639 -0.3865 -0.8212
  963MOL0     O29871  11.109   4.391   4.927 -0.0188 -0.0416  0.2425
  963MOL0     C29872  10.995   4.423   4.903 -0.0691 -0.1575  0.4263
  963MOL0     O29873  10.910   4.355   4.816 -0.1805  0.4174  0.7417
  963MOL0     C29874  10.975   4.284   4.718 -0.3401 -0.7545 -0.2604
  963MOL0     C29875  11.035   4.155   4.736 -0.3885 -1.5471 -0.7248
  963MOL0     C29876  11.116   4.104   4.630 -0.2796 -0.3466  0.3964
  963MOL0     C29877  11.114   4.161   4.502 -0.2358 -0.6564 -0.2491
  963MOL0     O29878  11.203   4.099   4.415 -0.4046 -0.3607  0.8716
  963MOL0     C29879  11.168   4.106   4.275  0.1387 -0.2380 -0.8529
  963MOL0     C29880  11.286   4.054   4.198 -0.5219 -0.7074 -0.1307
  963MOL0     C29881  11.258   4.087   4.052 -0.3655  0.7621  0.0116
  963MOL0     C29882  11.358   4.030   3.956 -0.5803  1.1056  0.4763
  963MOL0     C29883  11.322   4.063   3.809 -0.2662  0.5546 -0.5715
  963MOL0     C29884  11.386   3.960   3.714 -0.3415 -0.0792  1.1806
  963MOL0     C29885  11.362   4.013   3.569  0.2360  0.6389  0.3383
  963MOL0     C29886  11.464   4.121   3.526  0.7177  0.1811 -0.0607
  963MOL0     N29887  11.608   4.088   3.536 -0.0696  0.5405  0.3713
  963MOL0     C29888  11.667   3.977   3.470  0.5312  0.1761  0.5102
  963MOL0     C29889  11.798   3.974   3.505 -0.0413  0.0633 -0.0179
  963MOL0     C29890  11.896   3.873   3.458  0.5673 -0.3357 -0.5348
  963MOL0     C29891  11.888   3.742   3.535  0.2031 -0.4516  0.1594
  963MOL0     C29892  11.995   3.656   3.498 -0.4050  0.4152  0.5300
  963MOL0     C29893  12.041   3.547   3.590  0.6930  0.3461 -0.7136
  963MOL0     O29894  11.941   3.468   3.659  0.1678  0.0427 -0.0934
  963MOL0     C29895  11.896   3.344   3.616 -0.0389 -0.5207  0.2555
  963MOL0     C29896  11.906   3.297   3.481  0.5010  0.3788  0.0415
  963MOL0     C29897  11.838   3.179   3.438  0.8547 -0.6910 -0.1900
  963MOL0     C29898  11.764   3.110   3.537  0.1479  0.2267  1.1712
  963MOL0     C29899  11.681   2.989   3.485 -0.6558 -0.5574 -0.1543
  963MOL0     O29900  11.681   2.973   3.350  0.1230  0.6807  0.5147
  963MOL0     C29901  11.572   2.925   3.273 -0.9034 -0.0167 -0.4967
  963MOL0     C29902  11.451   2.877   3.328  0.8555 -1.0104  0.2224
  963MOL0     C29903  11.357   2.820   3.245 -0.5464  1.0581 -0.8666
  963MOL0     C29904  11.379   2.812   3.108 -0.3203  0.6147 -0.5689
  963MOL0     O29905  11.293   2.744   3.029  0.3371  0.4831 -0.5850
  963MOL0     C29906  11.261   2.607   3.070 -0.8402 -0.5931 -0.6777
  963MOL0     C29907  11.120   2.566   3.019 -0.1098 -0.2719  0.5959
  963MOL0     C29908  11.103   2.519   2.869  0.3605  0.8672  0.4611
  963MOL0     C29909  11.117   2.642   2.774 -0.8130  0.6329 -0.6206
  963MOL0     C29910  11.149   2.596   2.639  0.7058 -0.1135  0.2672
  963MOL0     C29911  11.206   2.701   2.551  0.0985 -0.2299  0.5975
  963MOL0     C29912  11.241   2.617   2.419 -0.0680  0.0132  0.4080
  963MOL0     C29913  11.254   2.704   2.295 -0.1479 -0.7523  1.6210
  963MOL0    Cl29914  11.090   2.783   2.275 -0.2904 -0.0684 -0.2206
  963MOL0     C29915  11.496   2.856   3.055 -1.2259  0.5534 -0.1435
  963MOL0     C29916  11.594   2.911   3.137 -0.9926 -0.4001 -0.3367
  963MOL0     O29917  11.630   2.913   3.565 -1.2987 -0.2569 -1.1664
  963MOL0     C29918  11.755   3.156   3.667  0.2322  0.7160  0.5659
  963MOL0     C29919  11.817   3.274   3.703 -1.4066  0.5125 -0.6102
  963MOL0     N29920  11.819   4.067   3.605  0.1687  0.4715 -0.1764
  963MOL0     N29921  11.705   4.132   3.621  0.8789 -0.1031 -0.2459
  963MOL0     C29922  11.030   4.268   4.475  0.7257 -0.9130 -0.2714
  963MOL0     C29923  10.970   4.340   4.583 -0.7038  0.2802 -0.3427
  963MOL0     C29924  10.947   4.539   4.977 -0.6949 -0.3944 -0.3415
  963MOL0     C29925  10.978   4.674   4.951  0.1629 -0.2770  0.6134
  963MOL0     C29926  10.934   4.778   5.029 -0.3347 -0.2971 -0.0714
  963MOL0     C29927  10.842   4.749   5.131 -0.3456 -0.4967  0.8082
  963MOL0     O29928  10.803   4.861   5.208 -0.4888  0.8475 -0.3036
  963MOL0     C29929  10.692   4.930   5.182  0.0720 -0.0399  0.4874
  963MOL0     C29930  10.699   5.079   5.217 -0.1126  0.2491  0.1855
  963MOL0     C29931  10.767   5.112   5.350 -0.2385  0.1798  0.8753
  963MOL0     C29932  10.757   5.260   5.392  0.3171 -0.5650  0.1443
  963MOL0     C29933  10.821   5.346   5.291 -0.0959 -0.2245  0.6892
  963MOL0     C29934  10.861   5.412   5.194 -0.7233  0.2279 -0.6405
  963MOL0     C29935  10.816   4.618   5.170  0.0339  0.5565 -0.9269
  963MOL0     C29936  10.884   4.516   5.100 -0.7721 -0.2316 -0.2182
  963MOL0     C29937  10.873   4.373   5.150  0.3171 -0.5151  0.1370
  963MOL0     H29938  11.041   4.111   4.835 -0.8953 -0.5133 -0.2270
  963MOL0     H29939  11.170   4.011   4.644  0.9354  0.2057 -0.4710
  963MOL0     H29940  11.089   4.037   4.242  0.4048 -0.5747 -0.7978
  963MOL0     H29941  11.140   4.206   4.242 -2.1951  0.3189  2.2848
  963MOL0     H29942  11.288   3.946   4.216  0.1612 -0.5358  0.9784
  963MOL0     H29943  11.385   4.093   4.224 -0.5889 -0.6103 -0.0198
  963MOL0     H29944  11.253   4.195   4.036  2.2217  1.4034  2.6059
  963MOL0     H29945  11.168   4.035   4.018 -0.1892  0.7931 -0.5099
  963MOL0     H29946  11.459   4.058   3.987  0.2680 -2.9114  1.8899
  963MOL0     H29947  11.365   3.923   3.974 -1.0369  1.4664  3.1077
  963MOL0     H29948  11.217   4.043   3.786  0.5220 -3.9073 -1.2716
  963MOL0     H29949  11.349   4.167   3.786 -1.4033  1.0155  0.1138
  963MOL0     H29950  11.494   3.965   3.730 -0.5412  3.6123  2.4759
  963MOL0     H29951  11.345   3.860   3.730 -2.4095  0.2886 -1.0894
  963MOL0     H29952  11.256   4.038   3.563 -0.1137 -0.9273 -1.0044
  963MOL0     H29953  11.375   3.936   3.492 -1.9514  2.9258 -2.5095
  963MOL0     H29954  11.444   4.132   3.419 -1.5558 -1.7521  0.0889
  963MOL0     H29955  11.439   4.212   3.581 -1.2355 -1.2857  1.6877
  963MOL0     H29956  11.618   3.898   3.415 -3.3608  0.4539  3.2007
  963MOL0     H29957  11.885   3.863   3.350  1.1569 -0.1670 -0.6170
  963MOL0     H29958  11.991   3.925   3.479  0.8549  0.8807 -4.2315
  963MOL0     H29959  11.908   3.763   3.640  0.1017 -2.0824  0.5268
  963MOL0     H29960  11.790   3.695   3.524  1.0816 -2.4311  0.3477
  963MOL0     H29961  12.087   3.709   3.471 -1.4346  0.9625 -2.2542
  963MOL0     H29962  11.966   3.621   3.398  1.0111  0.5743  0.0341
  963MOL0     H29963  12.107   3.599   3.661  0.0666 -1.3134  1.1887
  963MOL0     H29964  12.112   3.484   3.535  1.1949  0.5628 -0.3249
  963MOL0     H29965  11.969   3.353   3.412 -1.6208  1.8443 -0.8322
  963MOL0     H29966  11.833   3.152   3.333 -3.8838  0.7824 -0.5655
  963MOL0     H29967  11.425   2.873   3.433 -3.3564 -0.1934 -0.6291
  963MOL0     H29968  11.260   2.783   3.276  0.6533 -2.7982 -1.1098
  963MOL0     H29969  11.338   2.540   3.030  1.9831  1.1861  1.4437
  963MOL0     H29970  11.259   2.588   3.177  0.5129 -0.4799 -0.6197
  963MOL0     H29971  11.086   2.485   3.084 -1.2611  0.8044  1.4081
  963MOL0     H29972  11.048   2.645   3.043  0.5100  0.4353  0.1755
  963MOL0     H29973  11.177   2.443   2.845  2.4613  3.0270 -0.2812
  963MOL0     H29974  11.000   2.482   2.857 -0.2474  1.8183  2.2966
  963MOL0     H29975  11.197   2.714   2.795 -1.1234  1.0802 -0.9495
  963MOL0     H29976  11.028   2.706   2.772 -0.9533  0.4691  0.0993
  963MOL0     H29977  11.056   2.553   2.601  0.2817  0.3830  0.7241
  963MOL0     H29978  11.219   2.514   2.655 -1.7949 -2.1245  1.7504
  963MOL0     H29979  11.126   2.773   2.534 -0.0642 -0.3721  0.7599
  963MOL0     H29980  11.299   2.741   2.593  0.6863 -1.5108  0.5393
  963MOL0     H29981  11.165   2.542   2.398  0.8596 -1.6647  2.6309
  963MOL0     H29982  11.330   2.556   2.438  0.3246  1.2935  3.2267
  963MOL0     H29983  11.331   2.781   2.293  0.8438 -1.6121 -2.2558
  963MOL0     H29984  11.271   2.645   2.204 -1.4434 -0.1732  0.9775
  963MOL0     H29985  11.525   2.852   2.950  0.7046 -0.4909  0.3821
  963MOL0     H29986  11.688   2.941   3.091 -1.9936  0.0394 -2.1763
  963MOL0     H29987  11.721   3.099   3.753  0.8407 -0.3958  0.0977
  963MOL0     H29988  11.806   3.320   3.801 -2.3974 -2.3124  0.7286
  963MOL0     H29989  11.020   4.315   4.377 -1.3136  0.3705  0.4807
  963MOL0     H29990  10.920   4.435   4.567 -0.6978  0.4116  0.3590
  963MOL0     H29991  11.048   4.692   4.870  1.0245 -0.2370  1.3546
  963MOL0     H29992  10.955   4.875   4.986  0.4279 -1.2544 -1.9923
  963MOL0     H29993  10.609   4.896   5.245 -0.4834  1.2834  0.4816
  963MOL0     H29994  10.661   4.921   5.077  0.8517  1.9621  0.0632
  963MOL0     H29995  10.594   5.108   5.227 -0.2809 -0.5370  0.7716
  963MOL0     H29996  10.739   5.135   5.133  1.0813 -0.1214  0.4874
  963MOL0     H29997  10.876   5.104   5.346 -0.2591 -0.3957  1.3231
  963MOL0     H29998  10.728   5.049   5.431  0.0470  1.9343  2.4485
  963MOL0     H29999  10.654   5.296   5.402  0.6617  0.3876  0.3422
  963MOL0     H30000  10.813   5.273   5.485  0.7672  0.3852 -0.2456
  963MOL0     H30001  10.882   5.469   5.105  0.0403 -0.8072 -1.1447
  963MOL0     H30002  10.762   4.589   5.259  0.2502  1.5118 -0.4676
  963MOL0     H30003  10.764   4.365   5.164  0.3523 -0.0039  0.7077
  963MOL0     H30004  10.903   4.290   5.086 -0.4999 -0.1600 -0.7267
  963MOL0     H30005  10.914   4.367   5.251 -1.2443  0.7763  0.8933
  964MOL0     O30006   3.987   3.153   8.071 -0.0889 -0.4984  0.6848
  964MOL0     C30007   4.046   3.051   8.031 -0.1448 -0.4686  0.2778
  964MOL0     O30008   4.016   2.930   8.067 -0.9643 -0.3880 -0.7519
  964MOL0     C30009   3.907   2.898   8.147  0.1544  0.1980  0.3846
  964MOL0     C30010   3.793   2.852   8.086 -0.3541 -0.4860 -0.0036
  964MOL0     C30011   3.691   2.803   8.163  0.4038  0.1008  0.2734
  964MOL0     C30012   3.687   2.802   8.298 -0.1802 -0.1834 -0.0035
  964MOL0     O30013   3.578   2.745   8.352 -0.2871  0.0183  0.3415
  964MOL0     C30014   3.566   2.767   8.500 -0.1753 -0.1723  0.0902
  964MOL0     C30015   3.446   2.682   8.562  1.0704 -0.1383 -0.6669
  964MOL0     C30016   3.428   2.697   8.713 -1.0253 -0.2843 -0.0998
  964MOL0     C30017   3.547   2.634   8.789  0.1075  0.6768  0.4119
  964MOL0     C30018   3.500   2.580   8.933  1.2636 -0.2965  0.1565
  964MOL0     C30019   3.416   2.688   9.011 -0.4318  0.8438 -0.1463
  964MOL0     C30020   3.381   2.654   9.155 -0.3748 -0.2095  0.2154
  964MOL0     C30021   3.269   2.538   9.156 -0.0154  0.1609 -0.6858
  964MOL0     N30022   3.137   2.566   9.091 -0.2984 -1.5952 -0.0777
  964MOL0     C30023   3.050   2.680   9.100 -0.4425  0.1426  0.2513
  964MOL0     C30024   2.926   2.635   9.074  0.0485 -0.4009  0.0078
  964MOL0     C30025   2.802   2.708   9.045 -0.9288  0.2469 -0.9595
  964MOL0     C30026   2.717   2.728   9.181 -1.4863 -0.0933  0.5558
  964MOL0     C30027   2.785   2.832   9.269 -0.5456  0.6237 -0.3157
  964MOL0     C30028   2.762   2.803   9.416  0.5821  0.2194  0.1015
  964MOL0     O30029   2.620   2.806   9.449  0.0496  0.2320 -0.1633
  964MOL0     C30030   2.572   2.726   9.546  0.1964 -0.0939  0.5657
  964MOL0     C30031   2.648   2.663   9.640  0.6360 -0.2241 -0.8204
  964MOL0     C30032   2.578   2.584   9.738  0.3975 -1.2891 -0.9965
  964MOL0     C30033   2.435   2.590   9.744  0.8026  0.6397 -0.0672
  964MOL0     C30034   2.363   2.506   9.836  0.9696  0.1185  0.3439
  964MOL0     O30035   2.243   2.461   9.787  0.2051 -0.3731  0.5528
  964MOL0     C30036   2.185   2.360   9.854 -0.2998 -0.2575 -0.1796
  964MOL0     C30037   2.219   2.229   9.827  0.0818 -0.2384 -0.6908
  964MOL0     C30038   2.165   2.117   9.890  0.3769  0.1015 -0.4392
  964MOL0     C30039   2.055   2.136   9.969  0.2775  1.0338 -0.4180
  964MOL0     O30040   1.999   2.015  10.011  0.1388 -0.0756 -0.2069
  964MOL0     C30041   1.877   2.029  10.096  0.3514 -0.1163  0.6484
  964MOL0     C30042   1.796   1.901  10.085  0.0583  0.5435 -0.8309
  964MOL0     C30043   1.838   1.802  10.187  0.3542  0.2341 -0.1780
  964MOL0     C30044   1.746   1.676  10.194 -0.5362  0.3268  0.4548
  964MOL0     C30045   1.771   1.599  10.322  0.9488  0.0416  0.7872
  964MOL0     C30046   1.686   1.476  10.348  0.2279 -0.1729 -0.3816
  964MOL0     C30047   1.535   1.511  10.369  0.6665 -0.1261  0.1133
  964MOL0     C30048   1.463   1.396  10.414  0.5729  1.2040 -0.0847
  964MOL0    Cl30049   1.298   1.446  10.433  0.4095  0.2227 -0.4980
  964MOL0     C30050   2.011   2.260  10.008  0.8174  0.1258  0.9338
  964MOL0     C30051   2.076   2.377   9.941  0.1982 -0.8280 -0.0162
  964MOL0     O30052   2.418   2.471   9.936 -0.1541 -0.1883 -0.1744
  964MOL0     C30053   2.366   2.656   9.643  0.0040 -0.5427  0.2752
  964MOL0     C30054   2.435   2.734   9.550  0.7750  0.5973 -0.1161
  964MOL0     N30055   2.942   2.497   9.053 -0.4039 -0.8998  0.5113
  964MOL0     N30056   3.065   2.458   9.055  0.2368  1.3730 -0.2630
  964MOL0     C30057   3.796   2.858   8.363  0.1752 -0.2831  0.3289
  964MOL0     C30058   3.906   2.903   8.281 -0.3730 -0.4052  0.5116
  964MOL0     C30059   4.176   3.072   7.974  0.4649  0.4274  0.8988
  964MOL0     C30060   4.170   3.144   7.851 -0.8238  0.3107 -1.0748
  964MOL0     C30061   4.284   3.174   7.782 -0.6457 -0.2773  1.0465
  964MOL0     C30062   4.412   3.126   7.831  0.4370  0.5413  1.2652
  964MOL0     O30063   4.526   3.169   7.778  0.4455  0.8506 -0.2429
  964MOL0     C30064   4.607   3.238   7.873 -0.4483  1.3653  0.7675
  964MOL0     C30065   4.559   3.358   7.939 -0.3549 -0.0136  0.0230
  964MOL0     C30066   4.624   3.369   8.079 -0.2600 -1.0936  0.0506
  964MOL0     C30067   4.605   3.514   8.134 -0.7563 -0.7552  0.2740
  964MOL0     C30068   4.685   3.517   8.257 -1.3281  0.0908 -0.3535
  964MOL0     C30069   4.768   3.526   8.350 -0.3155 -0.1211  0.1406
  964MOL0     C30070   4.416   3.034   7.936  1.1763  0.5499  0.0825
  964MOL0     C30071   4.296   3.009   8.009 -0.4028 -0.2523 -0.0195
  964MOL0     C30072   4.297   2.935   8.146 -0.5827 -0.1001  0.1503
  964MOL0     H30073   3.800   2.851   7.978  1.3984  0.9550  0.0483
  964MOL0     H30074   3.610   2.747   8.118 -0.2088 -0.1276  1.6227
  964MOL0     H30075   3.658   2.731   8.547  0.0105 -0.6071 -0.5934
  964MOL0     H30076   3.550   2.875   8.506 -0.9948 -0.2807  0.0378
  964MOL0     H30077   3.443   2.575   8.540  0.5983 -0.1318 -0.6303
  964MOL0     H30078   3.363   2.726   8.506  0.4956 -2.2102 -1.5314
  964MOL0     H30079   3.341   2.637   8.742 -0.0207 -1.7138  0.0473
  964MOL0     H30080   3.417   2.804   8.733  0.1947  0.2759 -2.1891
  964MOL0     H30081   3.583   2.544   8.739 -1.1004  0.5835 -0.3339
  964MOL0     H30082   3.626   2.703   8.821  1.0050 -1.1285  2.3403
  964MOL0     H30083   3.439   2.492   8.911  1.1400  0.4160 -2.7182
  964MOL0     H30084   3.590   2.561   8.992  0.2444 -0.2467  1.8096
  964MOL0     H30085   3.477   2.778   8.997  0.7427  0.1921  0.5855
  964MOL0     H30086   3.326   2.713   8.953 -0.9279 -0.9691 -0.2085
  964MOL0     H30087   3.344   2.744   9.205 -3.7669  1.7080 -4.9265
  964MOL0     H30088   3.472   2.619   9.205 -0.3587  1.1437  1.1959
  964MOL0     H30089   3.321   2.456   9.105  1.9730  1.1716 -0.3736
  964MOL0     H30090   3.244   2.529   9.262  0.3496 -0.3871 -0.6490
  964MOL0     H30091   3.078   2.783   9.119  0.0241  0.0678 -0.0303
  964MOL0     H30092   2.833   2.808   9.015 -2.2047  0.8470 -0.3708
  964MOL0     H30093   2.744   2.665   8.963  1.0230 -2.0144 -1.2349
  964MOL0     H30094   2.617   2.761   9.153 -3.7115 -4.5277  2.2546
  964MOL0     H30095   2.700   2.635   9.237 -0.7948 -0.1248  0.7259
  964MOL0     H30096   2.747   2.933   9.254 -1.4493  0.4116  0.4071
  964MOL0     H30097   2.891   2.828   9.243  0.0605 -1.0174  2.0106
  964MOL0     H30098   2.823   2.862   9.484 -0.3474 -1.8627  2.9426
  964MOL0     H30099   2.803   2.703   9.424 -1.2771 -0.6329 -0.3770
  964MOL0     H30100   2.756   2.664   9.644  0.6277  0.1941  2.7015
  964MOL0     H30101   2.628   2.533   9.820 -2.2736 -0.4241  1.3785
  964MOL0     H30102   2.307   2.217   9.764  3.2835  1.0315  3.1214
  964MOL0     H30103   2.196   2.017   9.862  1.5899 -0.6286  2.9981
  964MOL0     H30104   1.912   2.030  10.200  0.5648 -1.0916  0.6003
  964MOL0     H30105   1.807   2.104  10.060  1.8760  1.2750  0.4961
  964MOL0     H30106   1.689   1.920  10.098  0.3491  1.2951  0.6449
  964MOL0     H30107   1.812   1.855   9.987 -3.6352 -1.3950 -0.7049
  964MOL0     H30108   1.941   1.775  10.163  1.3176  2.2184  1.4232
  964MOL0     H30109   1.840   1.837  10.291  0.7138 -0.1296 -0.0593
  964MOL0     H30110   1.770   1.606  10.114  2.2113 -1.1121  2.3591
  964MOL0     H30111   1.643   1.711  10.188 -0.7407 -0.1044  1.1857
  964MOL0     H30112   1.758   1.661  10.411  1.0800  1.8982 -0.4269
  964MOL0     H30113   1.875   1.567  10.312 -0.0626 -3.6369  0.3400
  964MOL0     H30114   1.719   1.396  10.281  0.3461 -1.9995  1.7318
  964MOL0     H30115   1.719   1.447  10.448 -3.1251  0.9117  1.1933
  964MOL0     H30116   1.490   1.560  10.282 -0.1822  1.9886  1.6543
  964MOL0     H30117   1.513   1.591  10.440 -0.3058 -1.0204  0.8690
  964MOL0     H30118   1.453   1.313  10.343  3.3683  0.0448  0.7033
  964MOL0     H30119   1.519   1.361  10.502  3.6621 -1.3245 -2.8108
  964MOL0     H30120   1.921   2.272  10.066  0.0274 -0.6805 -0.0795
  964MOL0     H30121   2.033   2.476   9.954  2.3210  0.2981 -1.1304
  964MOL0     H30122   2.258   2.660   9.639  0.0587  0.9201 -0.4961
  964MOL0     H30123   2.391   2.773   9.459  3.0339  0.9520 -1.1380
  964MOL0     H30124   3.800   2.867   8.471 -0.4108 -0.7162  0.3884
  964MOL0     H30125   3.994   2.951   8.324  0.1587 -1.2074  0.3505
  964MOL0     H30126   4.070   3.163   7.812 -1.5496 -2.8863 -1.0198
  964MOL0     H30127   4.284   3.224   7.685  0.4722  0.0574  1.2155
  964MOL0     H30128   4.695   3.275   7.821 -0.2861  2.2204  1.6116
  964MOL0     H30129   4.663   3.173   7.940  1.6430  1.0422 -1.1967
  964MOL0     H30130   4.451   3.350   7.957 -0.7089 -2.1297 -2.5806
  964MOL0     H30131   4.577   3.447   7.878 -0.5266 -0.1155 -0.1782
  964MOL0     H30132   4.728   3.337   8.066 -0.5566 -1.0766 -3.1426
  964MOL0     H30133   4.571   3.300   8.146 -1.5124  0.6504  0.9589
  964MOL0     H30134   4.647   3.587   8.064  0.0324 -0.1314  1.3563
  964MOL0     H30135   4.498   3.534   8.148 -0.4936 -0.6130  2.5252
  964MOL0     H30136   4.825   3.534   8.440 -1.2507  0.1662  0.7207
  964MOL0     H30137   4.507   2.987   7.970 -0.1773 -1.2428  1.4137
  964MOL0     H30138   4.222   2.857   8.162  1.8250 -2.8558 -0.9553
  964MOL0     H30139   4.397   2.890   8.154 -0.8630 -0.4632  2.1449
  964MOL0     H30140   4.297   3.005   8.230  1.4970 -0.6666  0.6870
  965MOL0     O30141   1.062   3.224   8.555 -0.2196 -0.0127 -0.9876
  965MOL0     C30142   1.049   3.236   8.435  0.4990  0.0089 -0.0594
  965MOL0     O30143   0.961   3.320   8.375 -0.5262  0.8755 -0.6770
  965MOL0     C30144   0.876   3.382   8.460 -0.0281 -0.1016  0.6236
  965MOL0     C30145   0.754   3.318   8.501  0.3087  0.0159  1.0005
  965MOL0     C30146   0.674   3.384   8.595  0.4914 -0.6918  0.7738
  965MOL0     C30147   0.703   3.519   8.633  0.1746  0.3743  0.5696
  965MOL0     O30148   0.605   3.579   8.710  0.1764 -0.0851 -0.4936
  965MOL0     C30149   0.624   3.709   8.749 -0.0729 -0.4599 -0.6059
  965MOL0     C30150   0.508   3.745   8.832  0.4398  0.0906  0.3037
  965MOL0     C30151   0.524   3.879   8.900  0.0107 -0.3438 -0.2333
  965MOL0     C30152   0.543   3.995   8.807  0.3862  0.2409 -0.3084
  965MOL0     C30153   0.410   4.028   8.729 -0.3967 -0.2566 -0.1008
  965MOL0     C30154   0.312   4.106   8.820  0.3480  0.4384  0.4643
  965MOL0     C30155   0.204   4.175   8.735  0.2340  0.2515  0.7205
  965MOL0     C30156   0.254   4.305   8.673 -0.4888  1.0193  0.9041
  965MOL0     N30157   0.260   4.416   8.756 -0.4004  0.1034 -0.7162
  965MOL0     C30158   0.185   4.425   8.876 -0.3075  0.4272 -0.4350
  965MOL0     C30159   0.242   4.533   8.934 -0.0256 -0.3799 -0.4089
  965MOL0     C30160   0.197   4.595   9.058  0.2443 -0.7440 -1.1371
  965MOL0     C30161   0.046   4.615   9.050 -0.6015  0.0047 -0.6500
  965MOL0     C30162   0.011   4.739   8.956  0.2240  0.4110 -0.6045
  965MOL0     C30163  -0.139   4.764   8.961 -0.4110  0.2734 -0.2297
  965MOL0     O30164  -0.164   4.903   8.936 -0.0593  0.1593  0.5923
  965MOL0     C30165  -0.277   4.959   8.983  0.4568  0.0308 -0.9448
  965MOL0     C30166  -0.283   5.099   9.010 -0.2943 -0.0845  0.1993
  965MOL0     C30167  -0.400   5.152   9.069  0.1801 -0.2121  0.2854
  965MOL0     C30168  -0.507   5.064   9.111 -0.7168  0.5301  0.1226
  965MOL0     C30169  -0.632   5.117   9.176  0.0977 -0.1515  0.3211
  965MOL0     O30170  -0.646   5.241   9.197  0.7105  0.3656 -0.3331
  965MOL0     C30171  -0.736   5.280   9.292 -0.0064 -0.5793  0.2433
  965MOL0     C30172  -0.852   5.349   9.247 -0.2440  0.3729  0.7527
  965MOL0     C30173  -0.939   5.412   9.332  0.3005  1.0742 -0.0055
  965MOL0     C30174  -0.915   5.407   9.468  0.0410  0.6898  0.2400
  965MOL0     O30175  -1.003   5.474   9.551 -0.2187  1.0778  0.3321
  965MOL0     C30176  -0.976   5.605   9.585 -0.0109  0.0668  0.4666
  965MOL0     C30177  -1.054   5.721   9.520  0.0050  0.1520  0.7687
  965MOL0     C30178  -1.207   5.688   9.503  0.2800  0.3881  0.6504
  965MOL0     C30179  -1.272   5.767   9.384 -0.4814  0.2038 -0.4518
  965MOL0     C30180  -1.423   5.742   9.374 -0.6582 -0.3328  0.3415
  965MOL0     C30181  -1.514   5.864   9.407  0.4094 -0.3676  0.2933
  965MOL0     C30182  -1.665   5.826   9.389 -0.5820 -0.1487  1.2905
  965MOL0     C30183  -1.748   5.872   9.504 -1.0282 -0.6676 -0.4384
  965MOL0    Cl30184  -1.913   5.809   9.478  0.3068  0.0326 -0.4891
  965MOL0     C30185  -0.814   5.328   9.515 -0.8086  0.2392  0.1570
  965MOL0     C30186  -0.710   5.276   9.428  0.9606  0.0955  0.1994
  965MOL0     O30187  -0.703   5.028   9.220  1.5325  0.0618  0.5587
  965MOL0     C30188  -0.501   4.938   9.055  0.4147 -0.8798  0.0952
  965MOL0     C30189  -0.390   4.885   9.002  0.7416 -0.1510  0.0432
  965MOL0     N30190   0.339   4.592   8.861 -0.1471 -0.8688 -0.5031
  965MOL0     N30191   0.353   4.519   8.759 -0.0432  0.6961  0.1846
  965MOL0     C30192   0.816   3.584   8.574 -0.5920 -0.2339  0.5094
  965MOL0     C30193   0.902   3.515   8.492  0.2292  0.3230  0.1314
  965MOL0     C30194   1.133   3.153   8.339  0.2156  0.9823 -0.1845
  965MOL0     C30195   1.058   3.091   8.241  0.3459  0.3717 -0.0784
  965MOL0     C30196   1.118   3.000   8.150  0.1455  0.0731 -0.7628
  965MOL0     C30197   1.250   2.970   8.165 -1.1368 -0.6675 -1.4694
  965MOL0     O30198   1.307   2.873   8.086  0.2187  0.0312 -0.6409
  965MOL0     C30199   1.393   2.918   7.983  1.8539  0.1836  0.0705
  965MOL0     C30200   1.530   2.837   7.983  0.2395  0.0590 -0.2807
  965MOL0     C30201   1.629   2.872   8.099  0.6042  0.7038 -0.3041
  965MOL0     C30202   1.754   2.786   8.094 -0.0354 -0.5345 -0.2223
  965MOL0     C30203   1.822   2.770   7.962  0.7720 -0.1704 -0.4447
  965MOL0     C30204   1.857   2.768   7.842  0.7509  0.2828 -0.1044
  965MOL0     C30205   1.328   3.040   8.253 -0.2006  0.5223  1.0514
  965MOL0     C30206   1.270   3.130   8.344 -0.5114 -0.6622 -0.7883
  965MOL0     C30207   1.367   3.196   8.447  0.4332  1.2680  0.0069
  965MOL0     H30208   0.735   3.217   8.467  4.2002 -0.7763  0.7019
  965MOL0     H30209   0.583   3.337   8.634  0.7562 -1.1295  0.8756
  965MOL0     H30210   0.715   3.705   8.810  0.9543  1.5473 -1.8921
  965MOL0     H30211   0.645   3.773   8.663 -0.5513  0.2838 -0.1829
  965MOL0     H30212   0.510   3.669   8.911  2.2654  2.1619  2.4010
  965MOL0     H30213   0.415   3.730   8.777  1.5894  1.2784 -2.1149
  965MOL0     H30214   0.609   3.862   8.966 -1.6116 -0.8391  1.8576
  965MOL0     H30215   0.440   3.889   8.969  1.0264 -2.9336  1.5328
  965MOL0     H30216   0.571   4.083   8.865 -0.5491  0.4615 -0.1777
  965MOL0     H30217   0.627   3.980   8.738 -0.1203 -1.5407 -0.5833
  965MOL0     H30218   0.433   4.086   8.639  2.2113  1.0425  1.2772
  965MOL0     H30219   0.374   3.937   8.679  1.6796 -1.1827 -0.0164
  965MOL0     H30220   0.250   4.034   8.875 -2.1170  1.4386 -0.8400
  965MOL0     H30221   0.369   4.174   8.884  0.4159  1.3837 -0.5803
  965MOL0     H30222   0.111   4.178   8.791  0.1602 -0.7247  0.6784
  965MOL0     H30223   0.158   4.130   8.647 -1.3598  2.6640  0.2399
  965MOL0     H30224   0.354   4.282   8.637 -1.5723 -1.9253 -0.5309
  965MOL0     H30225   0.203   4.329   8.579  1.1634  0.4960 -0.1609
  965MOL0     H30226   0.104   4.366   8.917  0.0725 -1.0021 -1.6846
  965MOL0     H30227   0.222   4.529   9.142 -0.5025  1.0196  0.5689
  965MOL0     H30228   0.252   4.687   9.078 -4.7115  2.3398  0.3209
  965MOL0     H30229  -0.002   4.527   9.008  0.1252 -2.5310  3.3209
  965MOL0     H30230  -0.007   4.618   9.146 -1.3181 -1.4026 -0.9770
  965MOL0     H30231   0.035   4.712   8.852  1.8006 -1.3715  0.1786
  965MOL0     H30232   0.061   4.830   8.990 -0.9481  1.8402 -2.4408
  965MOL0     H30233  -0.174   4.725   9.057  1.2944  0.1004  0.3479
  965MOL0     H30234  -0.193   4.706   8.886 -1.1927 -1.8422  1.8434
  965MOL0     H30235  -0.200   5.165   8.985 -0.1929 -0.2125  0.1964
  965MOL0     H30236  -0.403   5.259   9.082  1.7371  0.7825 -5.1723
  965MOL0     H30237  -0.869   5.374   9.142  2.1429  0.0270  0.2377
  965MOL0     H30238  -1.031   5.467   9.314  1.2896  3.2883  1.2115
  965MOL0     H30239  -0.999   5.610   9.692  0.1589 -2.5974  0.6821
  965MOL0     H30240  -0.871   5.636   9.578 -0.3657  0.9939 -1.5767
  965MOL0     H30241  -1.053   5.819   9.568 -6.3263  1.6823 -1.2833
  965MOL0     H30242  -1.007   5.743   9.424  0.7763 -0.5994  0.9592
  965MOL0     H30243  -1.204   5.580   9.482  0.1472  0.1720  1.6980
  965MOL0     H30244  -1.267   5.704   9.592 -0.5811 -2.0829  0.6093
  965MOL0     H30245  -1.210   5.750   9.296  1.3523 -1.9680  1.1277
  965MOL0     H30246  -1.251   5.872   9.408 -0.3393  0.0683  0.0367
  965MOL0     H30247  -1.451   5.663   9.445 -0.1997 -2.2452 -1.5123
  965MOL0     H30248  -1.452   5.710   9.274 -0.6980 -1.4255  0.6888
  965MOL0     H30249  -1.505   5.901   9.510  0.5126  3.8487 -1.0530
  965MOL0     H30250  -1.493   5.950   9.342 -1.9700  0.2163  0.2007
  965MOL0     H30251  -1.671   5.717   9.385  0.5980 -0.2041 -0.8791
  965MOL0     H30252  -1.697   5.858   9.290  1.3479  2.5847  1.4404
  965MOL0     H30253  -1.709   5.829   9.597  3.0425  1.2923 -1.0129
  965MOL0     H30254  -1.763   5.980   9.508 -1.3336 -0.7393  0.5550
  965MOL0     H30255  -0.805   5.330   9.623  0.9742  2.1928  0.0501
  965MOL0     H30256  -0.620   5.228   9.465 -0.3977  0.0211  3.7422
  965MOL0     H30257  -0.588   4.873   9.065  0.6190 -1.2095 -0.2488
  965MOL0     H30258  -0.389   4.779   8.980 -0.7784 -0.8593  2.9658
  965MOL0     H30259   0.838   3.687   8.597  1.0061 -0.0005 -1.7058
  965MOL0     H30260   0.991   3.563   8.452  1.5048  0.0947  2.5199
  965MOL0     H30261   0.951   3.109   8.234  0.5274  1.1603 -1.1307
  965MOL0     H30262   1.069   2.946   8.070 -1.3464  0.3019 -0.0271
  965MOL0     H30263   1.408   3.026   7.989  0.8123  1.1529 -6.5636
  965MOL0     H30264   1.349   2.891   7.886  0.9949 -1.2702  0.8338
  965MOL0     H30265   1.570   2.879   7.890 -0.1470  1.5097  0.1678
  965MOL0     H30266   1.513   2.730   7.972 -0.2917 -0.0743  1.5403
  965MOL0     H30267   1.585   2.871   8.199  0.9687  0.3359 -0.1396
  965MOL0     H30268   1.666   2.972   8.077  3.1495 -0.3809 -1.3809
  965MOL0     H30269   1.828   2.839   8.155  2.4784 -1.7988 -1.9981
  965MOL0     H30270   1.733   2.693   8.148  0.3201  1.1435  3.0679
  965MOL0     H30271   1.889   2.745   7.743 -0.4108 -4.8271  0.4493
  965MOL0     H30272   1.432   3.010   8.256 -0.3407 -0.9451 -2.9414
  965MOL0     H30273   1.329   3.294   8.476 -1.3271  1.3755 -2.2923
  965MOL0     H30274   1.386   3.134   8.535 -1.7184  1.8848  0.9811
  965MOL0     H30275   1.458   3.205   8.387  0.3318 -1.7340 -0.7864
  966MOL0     O30276   8.839   7.822   6.430  0.3482 -1.4847 -0.1082
  966MOL0     C30277   8.910   7.921   6.429  0.5269  0.0889  0.4449
  966MOL0     O30278   8.889   8.035   6.355 -0.1530  0.2890  0.1608
  966MOL0     C30279   8.766   8.055   6.282  0.2512  0.3291 -0.5422
  966MOL0     C30280   8.740   7.974   6.174  0.2978  0.4068 -0.2902
  966MOL0     C30281   8.611   7.978   6.111 -0.6745  0.7996 -0.2020
  966MOL0     C30282   8.527   8.076   6.154 -0.1776 -0.0318 -0.2180
  966MOL0     O30283   8.399   8.078   6.097 -0.3475 -0.3860  0.6040
  966MOL0     C30284   8.287   8.113   6.180  0.4718 -0.7899 -1.2954
  966MOL0     C30285   8.152   8.093   6.113 -0.3538  0.0857 -0.7621
  966MOL0     C30286   8.092   7.964   6.161  0.0366  0.6826 -0.0344
  966MOL0     C30287   8.028   7.974   6.302  1.0465 -0.2702  0.1355
  966MOL0     C30288   7.937   7.858   6.341 -0.1491  0.4814 -0.6310
  966MOL0     C30289   7.801   7.852   6.279  0.5602  1.3020 -0.3950
  966MOL0     C30290   7.698   7.957   6.326  0.4731  0.1460 -0.2611
  966MOL0     C30291   7.561   7.957   6.240 -0.8631 -1.0191 -0.3818
  966MOL0     N30292   7.477   8.063   6.298 -0.1636  0.4485  0.1000
  966MOL0     C30293   7.400   8.061   6.407  0.5207  0.2795  0.1783
  966MOL0     C30294   7.324   8.179   6.403 -0.1834 -1.1086 -0.3066
  966MOL0     C30295   7.214   8.211   6.504  0.5395 -0.6571 -0.4909
  966MOL0     C30296   7.170   8.365   6.488 -0.4349  0.3527  0.8340
  966MOL0     C30297   7.021   8.381   6.519 -0.1917 -0.3040  0.7010
  966MOL0     C30298   6.955   8.513   6.474  0.5557 -0.6203  0.0623
  966MOL0     O30299   6.962   8.533   6.326 -0.7264  0.0018  0.1086
  966MOL0     C30300   6.844   8.524   6.260 -0.0015  0.0861 -0.2321
  966MOL0     C30301   6.794   8.406   6.215 -0.3947  0.0977  0.1937
  966MOL0     C30302   6.677   8.407   6.135  0.4267 -0.0817  0.3033
  966MOL0     C30303   6.599   8.517   6.099 -1.2189 -0.0263  0.2925
  966MOL0     C30304   6.472   8.506   6.032 -0.9277 -0.4662 -0.4460
  966MOL0     O30305   6.415   8.382   6.043  0.9334  0.7561  0.1082
  966MOL0     C30306   6.291   8.361   5.993  0.2894 -0.8770 -0.7657
  966MOL0     C30307   6.183   8.445   6.022  0.1166 -0.8793 -1.1766
  966MOL0     C30308   6.051   8.398   5.981 -0.8363 -0.2498 -0.9788
  966MOL0     C30309   6.034   8.283   5.898 -0.2394  0.4793  0.2102
  966MOL0     O30310   5.910   8.237   5.874  0.1532  0.7164  0.3839
  966MOL0     C30311   5.793   8.300   5.932 -0.5527 -0.0770 -0.2042
  966MOL0     C30312   5.678   8.201   5.899 -0.0478  0.0459  0.0213
  966MOL0     C30313   5.689   8.075   5.986  0.4795 -0.1368  0.2685
  966MOL0     C30314   5.563   8.000   5.975  1.2482  0.2196  0.5959
  966MOL0     C30315   5.579   7.867   6.041  0.4134  0.1405  0.5691
  966MOL0     C30316   5.477   7.768   5.984 -0.0533 -0.2149  0.3801
  966MOL0     C30317   5.498   7.629   6.032  0.0596 -0.6341  0.2294
  966MOL0     C30318   5.400   7.525   5.977 -0.6113  0.3918 -1.2959
  966MOL0    Cl30319   5.236   7.505   6.066 -0.1308 -0.6323 -0.6636
  966MOL0     C30320   6.151   8.205   5.875 -0.1997  0.1192  0.7129
  966MOL0     C30321   6.275   8.244   5.916  0.1719  0.1971 -0.2990
  966MOL0     O30322   6.423   8.607   5.987  0.6245  0.3946  0.2987
  966MOL0     C30323   6.647   8.636   6.159  0.4143 -0.1897  0.0575
  966MOL0     C30324   6.770   8.642   6.236  0.3057 -0.4591  0.9542
  966MOL0     N30325   7.371   8.251   6.290 -0.4648  0.0010 -0.6409
  966MOL0     N30326   7.459   8.179   6.226 -0.8982  0.3791 -0.8673
  966MOL0     C30327   8.560   8.175   6.256 -0.4413 -0.1378  0.6556
  966MOL0     C30328   8.681   8.162   6.311  0.1999 -0.2973  0.3242
  966MOL0     C30329   9.032   7.906   6.509 -0.8386 -0.3497  0.8029
  966MOL0     C30330   9.080   7.772   6.540 -0.3557 -1.2858  0.4366
  966MOL0     C30331   9.210   7.766   6.594 -0.4496  0.4502  0.0485
  966MOL0     C30332   9.296   7.880   6.613 -0.5799 -0.2162 -0.0897
  966MOL0     O30333   9.425   7.864   6.661  0.5146  0.1409  1.0441
  966MOL0     C30334   9.510   7.975   6.655 -0.6189 -0.6124 -0.0647
  966MOL0     C30335   9.638   7.936   6.730  0.1324 -0.6349 -0.4237
  966MOL0     C30336   9.721   7.828   6.659 -0.7036  0.7204 -0.6028
  966MOL0     C30337   9.856   7.788   6.729  0.6459 -0.0312 -0.6157
  966MOL0     C30338   9.920   7.672   6.662  0.4661 -0.1503 -0.2855
  966MOL0     C30339   9.966   7.583   6.600 -0.2632 -0.4416  0.8511
  966MOL0     C30340   9.233   8.000   6.597 -0.7975 -0.0220  1.2533
  966MOL0     C30341   9.106   8.020   6.546 -0.0567 -0.1182  0.7900
  966MOL0     C30342   9.065   8.163   6.538  0.3681 -0.0438  0.1526
  966MOL0     H30343   8.814   7.898   6.149 -0.1233  0.0045 -0.3204
  966MOL0     H30344   8.587   7.908   6.032  0.6609 -2.9978  2.4208
  966MOL0     H30345   8.290   8.057   6.274 -1.6702 -1.4072 -1.5559
  966MOL0     H30346   8.287   8.219   6.208 -3.9682 -0.4377 -1.9737
  966MOL0     H30347   8.141   8.103   6.005 -1.6836  0.9364 -0.5743
  966MOL0     H30348   8.094   8.172   6.162  0.9264 -1.7120  4.2965
  966MOL0     H30349   8.168   7.886   6.155  0.0153  0.6971 -5.1298
  966MOL0     H30350   8.015   7.935   6.088 -0.4720 -1.1470  1.1470
  966MOL0     H30351   8.117   7.977   6.365  1.9122 -1.5095 -0.9533
  966MOL0     H30352   7.969   8.065   6.312 -2.0395 -2.2136  0.9975
  966MOL0     H30353   7.986   7.768   6.302 -2.9092 -1.1888 -0.4714
  966MOL0     H30354   7.926   7.847   6.449  1.4764  0.3275 -0.4464
  966MOL0     H30355   7.804   7.838   6.171  1.8061 -0.2394 -0.2057
  966MOL0     H30356   7.763   7.758   6.322  0.5177  2.5382  2.5209
  966MOL0     H30357   7.739   8.059   6.317 -0.1543  0.4423  0.1928
  966MOL0     H30358   7.682   7.942   6.433  0.4972  1.0967 -0.1126
  966MOL0     H30359   7.577   7.978   6.134 -0.9101 -0.4431 -0.2781
  966MOL0     H30360   7.506   7.862   6.235 -0.0938 -1.3984 -2.9423
  966MOL0     H30361   7.384   7.984   6.482 -1.5979 -1.1125 -1.5699
  966MOL0     H30362   7.134   8.138   6.515  0.5102 -0.7855 -1.4456
  966MOL0     H30363   7.270   8.196   6.597 -1.0485 -0.0435  0.5923
  966MOL0     H30364   7.221   8.437   6.553  1.9490 -0.1900 -0.3249
  966MOL0     H30365   7.189   8.400   6.386 -0.9925 -1.7340 -0.0380
  966MOL0     H30366   7.010   8.366   6.627  0.6816 -0.3262  0.7938
  966MOL0     H30367   6.974   8.305   6.457 -2.3702 -0.4312  2.3978
  966MOL0     H30368   7.001   8.593   6.532 -0.6555 -1.6688  2.5934
  966MOL0     H30369   6.855   8.536   6.511  1.3864  2.1316  0.8640
  966MOL0     H30370   6.830   8.305   6.234  1.1774  0.2980 -1.4526
  966MOL0     H30371   6.652   8.309   6.094  0.4257  0.1276 -0.2104
  966MOL0     H30372   6.193   8.532   6.086 -1.6337 -2.4820  1.4970
  966MOL0     H30373   5.969   8.457   6.022  0.9858  1.5852  0.2741
  966MOL0     H30374   5.813   8.310   6.039  1.9977 -0.7777 -0.5470
  966MOL0     H30375   5.777   8.392   5.875  1.4071 -0.2015 -1.0520
  966MOL0     H30376   5.582   8.252   5.916 -2.1018 -3.6102  0.3954
  966MOL0     H30377   5.691   8.174   5.794  2.0019 -0.0845  0.2705
  966MOL0     H30378   5.765   8.017   5.933  0.6739  0.9567 -0.6752
  966MOL0     H30379   5.723   8.085   6.090  0.3315  0.0354  0.3017
  966MOL0     H30380   5.545   7.987   5.868 -0.0618 -1.3283  0.9635
  966MOL0     H30381   5.480   8.050   6.026  0.6343 -1.6163  1.4790
  966MOL0     H30382   5.563   7.863   6.149 -0.2949  1.5815  0.5398
  966MOL0     H30383   5.681   7.831   6.023  2.0402  1.8785  5.0932
  966MOL0     H30384   5.377   7.803   6.010  0.1871  0.4874  0.3777
  966MOL0     H30385   5.484   7.760   5.876  2.3371 -2.6841  0.5861
  966MOL0     H30386   5.506   7.617   6.141  0.7346 -0.1011  0.2438
  966MOL0     H30387   5.599   7.603   6.000 -0.7205 -2.9793 -0.4973
  966MOL0     H30388   5.385   7.544   5.870  1.3620 -0.2997 -1.7239
  966MOL0     H30389   5.467   7.440   5.990  0.6032  1.6155  1.2947
  966MOL0     H30390   6.130   8.116   5.817 -3.8972  2.4892 -2.0284
  966MOL0     H30391   6.361   8.181   5.895  0.7624  0.6685  0.6085
  966MOL0     H30392   6.586   8.726   6.163  3.5392  2.0958  0.1770
  966MOL0     H30393   6.806   8.734   6.282  0.4239  0.0935 -0.2216
  966MOL0     H30394   8.497   8.262   6.272 -3.7891 -2.0119 -1.3014
  966MOL0     H30395   8.712   8.233   6.387  0.4659 -0.1827  0.1109
  966MOL0     H30396   9.012   7.692   6.511 -2.5859 -0.5026  3.0403
  966MOL0     H30397   9.257   7.671   6.615 -0.2052  0.1821 -1.5402
  966MOL0     H30398   9.478   8.073   6.693  0.2889 -0.5250  0.4849
  966MOL0     H30399   9.537   7.999   6.552  0.0530  0.2261  0.3004
  966MOL0     H30400   9.615   7.888   6.826 -0.2298 -0.0216 -0.1968
  966MOL0     H30401   9.686   8.031   6.752 -2.7305  0.3012  2.6285
  966MOL0     H30402   9.750   7.854   6.557  4.1506 -2.3573 -0.3103
  966MOL0     H30403   9.656   7.740   6.665  1.7688 -1.3476 -2.1518
  966MOL0     H30404   9.926   7.870   6.742  2.5312 -1.2723 -2.2588
  966MOL0     H30405   9.825   7.746   6.825  0.1440 -3.5759 -2.1626
  966MOL0     H30406  10.016   7.508   6.542 -0.9849  0.4730 -1.0362
  966MOL0     H30407   9.279   8.087   6.642  1.1924 -0.4387  0.1314
  966MOL0     H30408   9.094   8.237   6.612 -3.3915  1.1981  0.5604
  966MOL0     H30409   9.090   8.199   6.437  0.4429  0.2903  0.2896
  966MOL0     H30410   8.957   8.168   6.551  0.5601  0.7319  1.6776
  967MOL0     O30411   1.271   6.162   7.229  0.3104 -0.1674  0.6097
  967MOL0     C30412   1.241   6.070   7.293  0.3015  0.2307 -0.1630
  967MOL0     O30413   1.254   5.940   7.256 -0.3731 -0.2826  0.0565
  967MOL0     C30414   1.262   5.913   7.126 -0.7882  0.4689  1.0176
  967MOL0     C30415   1.387   5.878   7.071  0.7052 -0.1027  0.2413
  967MOL0     C30416   1.392   5.857   6.938  0.9994  1.3588  0.2980
  967MOL0     C30417   1.280   5.859   6.850 -0.2578 -0.0864 -0.7214
  967MOL0     O30418   1.285   5.843   6.714  0.7012 -0.0189  0.0458
  967MOL0     C30419   1.394   5.773   6.660  0.3676 -0.8985  0.2615
  967MOL0     C30420   1.360   5.768   6.506 -0.3429 -0.0984 -0.4082
  967MOL0     C30421   1.241   5.681   6.465  0.4400 -0.5252 -0.0390
  967MOL0     C30422   1.226   5.693   6.311  0.7557 -0.2571 -0.6123
  967MOL0     C30423   1.322   5.609   6.226  0.5709  0.2529  0.3127
  967MOL0     C30424   1.287   5.625   6.076  0.5344 -0.4613  0.5015
  967MOL0     C30425   1.157   5.558   6.035  0.7106  0.5939  0.0658
  967MOL0     C30426   1.143   5.404   6.069 -1.0706 -0.6660  0.3923
  967MOL0     N30427   1.219   5.319   5.981  0.0556  0.7728 -0.1512
  967MOL0     C30428   1.207   5.306   5.847 -0.0803  0.5415 -0.8792
  967MOL0     C30429   1.325   5.255   5.809 -0.2000  0.3085  0.1133
  967MOL0     C30430   1.362   5.205   5.672  0.4300  0.2164  0.3542
  967MOL0     C30431   1.251   5.107   5.622 -0.0968 -0.3813 -0.3261
  967MOL0     C30432   1.284   5.069   5.474 -0.5820  0.0682  0.1759
  967MOL0     C30433   1.172   4.980   5.414  0.1966  0.4141 -1.0145
  967MOL0     O30434   1.219   4.934   5.287 -0.0271 -0.1952  0.0801
  967MOL0     C30435   1.200   5.027   5.191 -0.2527 -1.2266  0.1180
  967MOL0     C30436   1.303   5.105   5.159 -0.0395 -1.3111 -0.3919
  967MOL0     C30437   1.297   5.183   5.046 -1.0157 -0.5103 -0.5084
  967MOL0     C30438   1.182   5.181   4.965 -0.5485  0.3975 -0.4182
  967MOL0     C30439   1.175   5.268   4.846 -0.2030 -0.3808 -0.1218
  967MOL0     O30440   1.278   5.355   4.826  0.4861  0.2411 -0.2484
  967MOL0     C30441   1.274   5.432   4.708  0.3633  0.4499 -1.0825
  967MOL0     C30442   1.225   5.560   4.722  0.3634  0.5553 -0.0868
  967MOL0     C30443   1.217   5.656   4.615  0.5770  0.5193  0.4382
  967MOL0     C30444   1.246   5.606   4.480 -0.2207 -0.0931 -0.4261
  967MOL0     O30445   1.238   5.698   4.389 -0.5638  0.0183  0.7661
  967MOL0     C30446   1.340   5.676   4.280  0.1587  0.5329 -0.9625
  967MOL0     C30447   1.360   5.797   4.198  0.8856  0.0196  0.5701
  967MOL0     C30448   1.414   5.911   4.272 -0.2927  0.5339 -0.5855
  967MOL0     C30449   1.413   6.046   4.187  0.6057  1.5436  0.8884
  967MOL0     C30450   1.510   6.046   4.067 -0.5203  0.1367 -0.4343
  967MOL0     C30451   1.664   6.064   4.111  0.5664  0.4475 -0.0247
  967MOL0     C30452   1.754   5.980   4.022 -0.1463  0.2021 -0.0725
  967MOL0     C30453   1.900   6.025   4.027  0.8755 -0.8359 -0.8969
  967MOL0    Cl30454   2.006   5.921   3.937  0.0270  0.0556 -0.5114
  967MOL0     C30455   1.284   5.474   4.464  0.3711 -0.3790  0.4824
  967MOL0     C30456   1.305   5.396   4.581 -0.6477 -0.1207 -0.4804
  967MOL0     O30457   1.083   5.242   4.771 -0.4519 -0.7776 -0.2702
  967MOL0     C30458   1.065   5.104   5.008 -1.5973 -0.1748  0.2157
  967MOL0     C30459   1.078   5.031   5.122 -0.6184 -0.6850 -0.9839
  967MOL0     N30460   1.403   5.235   5.918  0.7257  0.2987 -0.7128
  967MOL0     N30461   1.341   5.273   6.021  0.4263  0.0864 -0.5477
  967MOL0     C30462   1.158   5.900   6.907  0.3065  0.0278 -0.1149
  967MOL0     C30463   1.154   5.932   7.045 -0.1496 -0.0925  0.8824
  967MOL0     C30464   1.190   6.104   7.430  1.0547  0.5953  0.1046
  967MOL0     C30465   1.132   5.993   7.503 -0.2493 -0.3980 -0.2763
  967MOL0     C30466   1.073   6.007   7.635 -0.3924  1.2215 -0.6046
  967MOL0     C30467   1.067   6.130   7.697 -0.3117 -0.0522 -0.0062
  967MOL0     O30468   0.996   6.140   7.808 -0.2053 -0.1986 -0.3080
  967MOL0     C30469   1.061   6.189   7.928 -0.6057  0.9650  0.4185
  967MOL0     C30470   0.957   6.179   8.046  0.4374 -0.2592 -0.2178
  967MOL0     C30471   0.841   6.271   8.032 -1.2415 -0.0441  0.2682
  967MOL0     C30472   0.854   6.408   8.097 -0.8604 -0.4097  0.3638
  967MOL0     C30473   0.764   6.511   8.056  0.2297  0.0896 -0.6996
  967MOL0     C30474   0.687   6.600   8.039 -0.8345 -0.7562  1.2056
  967MOL0     C30475   1.121   6.241   7.629 -0.1192  1.1475 -0.1291
  967MOL0     C30476   1.178   6.229   7.495 -0.1298 -0.3983  0.4279
  967MOL0     C30477   1.233   6.350   7.439  0.1480 -0.4575  0.6496
  967MOL0     H30478   1.469   5.868   7.142 -1.3823 -0.1719  2.7929
  967MOL0     H30479   1.487   5.825   6.895 -0.7760  0.4279 -3.3905
  967MOL0     H30480   1.481   5.837   6.674 -1.1272  1.7798 -1.7738
  967MOL0     H30481   1.398   5.671   6.699  2.6193  0.1438  3.1331
  967MOL0     H30482   1.443   5.719   6.455 -0.1142 -0.7124  0.5167
  967MOL0     H30483   1.344   5.871   6.474  0.4339  1.3871  3.4105
  967MOL0     H30484   1.141   5.718   6.494  0.9675 -0.8312  2.4239
  967MOL0     H30485   1.244   5.578   6.501 -0.0163 -0.4800  0.1391
  967MOL0     H30486   1.121   5.666   6.297  0.3897  1.1024 -0.6421
  967MOL0     H30487   1.235   5.797   6.279  0.2644  0.2560  0.8251
  967MOL0     H30488   1.426   5.645   6.227  0.2030  1.3639  1.8587
  967MOL0     H30489   1.322   5.502   6.248  3.1309  0.3058  0.8634
  967MOL0     H30490   1.279   5.733   6.057 -2.4996 -0.5702  0.5937
  967MOL0     H30491   1.364   5.572   6.019  0.6299 -1.2438  1.3430
  967MOL0     H30492   1.138   5.571   5.928  1.4853  1.1736 -0.0071
  967MOL0     H30493   1.073   5.606   6.087 -4.1033 -1.0343 -5.1421
  967MOL0     H30494   1.165   5.390   6.175 -0.4555 -1.6782  0.1447
  967MOL0     H30495   1.036   5.385   6.058 -1.5037  0.7317  1.8606
  967MOL0     H30496   1.118   5.331   5.790  0.5275 -0.7208 -2.4566
  967MOL0     H30497   1.377   5.287   5.602 -1.4206  0.2480 -0.0692
  967MOL0     H30498   1.465   5.170   5.683  0.9390  2.2673  3.1389
  967MOL0     H30499   1.258   5.012   5.675  0.6480 -0.0919  0.1128
  967MOL0     H30500   1.153   5.156   5.624  0.6109  1.0821 -0.1884
  967MOL0     H30501   1.384   5.024   5.480 -0.2594  0.8076  0.5199
  967MOL0     H30502   1.286   5.162   5.416  0.2940 -0.3088 -0.4291
  967MOL0     H30503   1.075   5.028   5.398 -0.8378 -1.0127  0.6635
  967MOL0     H30504   1.154   4.903   5.489 -0.2791  3.9281  2.9071
  967MOL0     H30505   1.384   5.099   5.231 -2.1198 -0.3144  2.1826
  967MOL0     H30506   1.384   5.244   5.025 -1.2205  0.1926  0.5843
  967MOL0     H30507   1.193   5.587   4.822 -0.5198 -1.1471  0.1209
  967MOL0     H30508   1.169   5.751   4.632 -0.9817  0.4254 -2.5899
  967MOL0     H30509   1.436   5.652   4.327  0.2039 -0.9584 -1.7719
  967MOL0     H30510   1.297   5.597   4.217  0.1896 -1.6285  1.5325
  967MOL0     H30511   1.430   5.772   4.117 -0.3521 -0.5819 -0.3596
  967MOL0     H30512   1.257   5.805   4.161  0.3880 -3.4443  0.8891
  967MOL0     H30513   1.367   5.923   4.370 -0.6420  0.5620 -0.7528
  967MOL0     H30514   1.519   5.883   4.282 -0.5006 -0.4627 -1.1054
  967MOL0     H30515   1.420   6.141   4.239 -1.4810  1.4538  1.4283
  967MOL0     H30516   1.310   6.054   4.151  0.1914  1.3583  1.9882
  967MOL0     H30517   1.480   6.132   4.006 -0.5319  2.1889  2.2715
  967MOL0     H30518   1.498   5.950   4.016  2.3083 -0.7921  0.4890
  967MOL0     H30519   1.684   6.172   4.105 -1.5303  0.9093  0.5147
  967MOL0     H30520   1.677   6.037   4.216 -0.1411 -0.2235 -0.1036
  967MOL0     H30521   1.726   5.984   3.916 -1.7384 -0.2247  0.3091
  967MOL0     H30522   1.759   5.875   4.050 -0.4217  0.0867 -0.4459
  967MOL0     H30523   1.918   6.128   3.995  0.1944 -1.0903 -2.1466
  967MOL0     H30524   1.923   6.022   4.134 -1.9726  2.9889  0.0380
  967MOL0     H30525   1.314   5.427   4.370  0.9362 -2.9251  1.8458
  967MOL0     H30526   1.356   5.300   4.574 -2.6140 -1.2468 -0.1394
  967MOL0     H30527   0.979   5.105   4.942  2.6504 -1.5981 -6.2821
  967MOL0     H30528   1.000   4.972   5.169 -1.5850  0.0571 -1.6095
  967MOL0     H30529   1.065   5.911   6.851  1.4194 -3.4460 -3.0821
  967MOL0     H30530   1.075   5.991   7.092 -3.1027 -0.7752 -2.7528
  967MOL0     H30531   1.118   5.895   7.458  2.1531 -1.9957  2.1527
  967MOL0     H30532   1.037   5.920   7.688  1.1366 -1.2779 -3.3642
  967MOL0     H30533   1.082   6.294   7.905  3.1445  0.2215 -0.2104
  967MOL0     H30534   1.154   6.135   7.952 -2.6367 -1.5888  3.2723
  967MOL0     H30535   1.011   6.210   8.136  1.3229  0.4015 -0.9666
  967MOL0     H30536   0.922   6.076   8.056 -0.8436 -0.1238 -2.6725
  967MOL0     H30537   0.746   6.226   8.063 -2.1993  1.4542 -0.3902
  967MOL0     H30538   0.826   6.297   7.927 -0.5536  0.4542  0.2898
  967MOL0     H30539   0.846   6.389   8.204  1.2915  3.7451  1.4824
  967MOL0     H30540   0.952   6.451   8.077 -1.1270  0.4613  0.8782
  967MOL0     H30541   0.625   6.686   8.024 -0.1032 -0.5781 -1.2058
  967MOL0     H30542   1.098   6.332   7.684  0.4348 -1.5746  5.2477
  967MOL0     H30543   1.253   6.431   7.510 -1.1768  0.1857  0.3248
  967MOL0     H30544   1.328   6.330   7.390 -0.4510 -0.0888 -0.6890
  967MOL0     H30545   1.168   6.381   7.357 -2.0852 -3.2023  1.2161
  968MOL0     O30546   3.024   1.082   8.009 -0.2730 -0.6212  0.0890
  968MOL0     C30547   3.104   0.995   8.029 -0.5463  0.6543 -0.4430
  968MOL0     O30548   3.114   0.928   8.149 -0.0575  0.7052 -1.1916
  968MOL0     C30549   3.043   0.983   8.258  0.5699  1.4018 -0.6060
  968MOL0     C30550   3.042   1.122   8.287 -0.3092  0.1282 -0.2753
  968MOL0     C30551   2.971   1.170   8.390  0.1081  0.4719 -0.9069
  968MOL0     C30552   2.896   1.080   8.470  0.1135 -0.5901 -0.8877
  968MOL0     O30553   2.821   1.147   8.573 -0.0819 -0.3047  0.5439
  968MOL0     C30554   2.683   1.130   8.550 -0.4248 -0.0843 -0.4030
  968MOL0     C30555   2.602   1.238   8.624  0.5138  0.6353 -1.0502
  968MOL0     C30556   2.608   1.217   8.780 -0.6494 -0.7076 -0.4199
  968MOL0     C30557   2.690   1.337   8.833  0.2683 -0.1669 -0.5032
  968MOL0     C30558   2.696   1.322   8.986 -0.7790 -0.6334  0.2471
  968MOL0     C30559   2.801   1.419   9.054  0.6431  1.4504  0.3643
  968MOL0     C30560   2.810   1.417   9.216  0.2537 -0.1209  0.5503
  968MOL0     C30561   2.910   1.520   9.270 -0.8020  0.2984 -0.0536
  968MOL0     N30562   2.913   1.522   9.420 -0.1794 -0.4798  0.1011
  968MOL0     C30563   3.016   1.482   9.502 -0.4751  0.6430 -0.0644
  968MOL0     C30564   2.963   1.475   9.625 -0.4948 -0.4174  0.3131
  968MOL0     C30565   3.029   1.437   9.749  0.0475  0.3191 -0.0546
  968MOL0     C30566   3.014   1.537   9.865 -0.5652 -0.1050  0.3433
  968MOL0     C30567   3.040   1.680   9.821 -0.0396 -0.1279  0.5683
  968MOL0     C30568   3.062   1.790   9.921 -0.5618  0.5024 -0.6777
  968MOL0     O30569   3.014   1.914   9.867  0.4331 -0.8875  0.8396
  968MOL0     C30570   3.035   2.031   9.934 -0.3701 -0.0827 -0.7274
  968MOL0     C30571   3.036   2.154   9.870  0.1644 -0.6702 -0.3815
  968MOL0     C30572   3.059   2.274   9.925  1.0313 -0.0476  0.3751
  968MOL0     C30573   3.083   2.287  10.061 -0.2824  0.7059 -1.0034
  968MOL0     C30574   3.131   2.409  10.120  0.1415 -0.4441 -0.4120
  968MOL0     O30575   3.143   2.419  10.248  0.4354 -0.7442  0.0738
  968MOL0     C30576   3.187   2.526  10.322  1.0156  0.1854  0.7661
  968MOL0     C30577   3.200   2.490  10.452  0.1772 -0.5067 -0.4211
  968MOL0     C30578   3.238   2.584  10.543  0.1602  0.2022 -0.1046
  968MOL0     C30579   3.258   2.716  10.508 -1.0461  0.4625  0.2757
  968MOL0     O30580   3.298   2.802  10.606  0.2058  0.1153 -0.0849
  968MOL0     C30581   3.265   2.943  10.590 -0.4219 -0.4254 -0.5944
  968MOL0     C30582   3.287   3.010  10.728 -0.0419 -0.2630 -0.8344
  968MOL0     C30583   3.235   3.149  10.718 -0.4113  1.0647 -0.2920
  968MOL0     C30584   3.260   3.226  10.846  0.5042 -0.5837  0.4679
  968MOL0     C30585   3.220   3.366  10.818 -1.0134  0.6833  0.8835
  968MOL0     C30586   3.235   3.457  10.937 -0.7845  0.1102  0.7328
  968MOL0     C30587   3.210   3.601  10.896  0.4017 -0.3250 -0.7229
  968MOL0     C30588   3.092   3.617  10.799 -0.1819 -0.2579  0.2885
  968MOL0    Cl30589   2.931   3.565  10.868 -0.1444  0.2050 -0.1491
  968MOL0     C30590   3.248   2.748  10.368 -0.1705  0.5388  0.5881
  968MOL0     C30591   3.211   2.655  10.274 -0.2123 -0.3909 -0.0541
  968MOL0     O30592   3.141   2.504  10.043 -0.1345 -0.0004  0.1056
  968MOL0     C30593   3.091   2.164  10.133  1.2376 -1.1825 -0.3562
  968MOL0     C30594   3.077   2.041  10.070 -0.7913 -0.4124 -0.7038
  968MOL0     N30595   2.831   1.506   9.614 -0.4931 -0.5946 -0.5751
  968MOL0     N30596   2.800   1.539   9.494 -0.2733 -0.2488 -0.7605
  968MOL0     C30597   2.889   0.939   8.440 -0.6580 -1.2935 -0.5484
  968MOL0     C30598   2.975   0.886   8.340  0.1441  0.1856  0.2092
  968MOL0     C30599   3.174   0.920   7.910  0.0116 -0.5778 -1.2073
  968MOL0     C30600   3.238   0.797   7.942 -0.5316 -0.2254  0.4685
  968MOL0     C30601   3.314   0.734   7.836  0.1525  1.2255  0.0061
  968MOL0     C30602   3.342   0.807   7.724  0.3693 -0.2957  0.1590
  968MOL0     O30603   3.415   0.747   7.627 -0.0652 -0.2961  0.5360
  968MOL0     C30604   3.365   0.721   7.497 -0.6191  0.4502 -1.0532
  968MOL0     C30605   3.460   0.623   7.423  0.0111  0.2389  0.9439
  968MOL0     C30606   3.413   0.600   7.282 -0.0221 -0.3324  0.0466
  968MOL0     C30607   3.530   0.562   7.193  0.0571  0.4909 -0.2448
  968MOL0     C30608   3.475   0.555   7.053 -0.8281 -0.4020 -0.4266
  968MOL0     C30609   3.433   0.551   6.941 -0.7286 -0.2566  0.7920
  968MOL0     C30610   3.293   0.933   7.703 -0.0147  0.6786  0.1200
  968MOL0     C30611   3.196   0.986   7.787  0.4545  0.7481  1.1365
  968MOL0     C30612   3.145   1.130   7.753 -0.1000  0.5392  0.3652
  968MOL0     H30613   3.096   1.184   8.216  1.5785  0.4004  1.3283
  968MOL0     H30614   2.972   1.278   8.398 -1.1914  0.4146  0.5565
  968MOL0     H30615   2.665   1.133   8.442 -0.7201  0.5918 -0.3390
  968MOL0     H30616   2.661   1.030   8.590 -2.5362  0.6400  0.3690
  968MOL0     H30617   2.494   1.229   8.607 -0.6602  0.1249  4.7036
  968MOL0     H30618   2.633   1.339   8.596 -0.2761  1.3714  0.6059
  968MOL0     H30619   2.648   1.117   8.799  0.4951 -0.0696  0.6567
  968MOL0     H30620   2.505   1.225   8.817 -0.5292  2.4304 -0.4585
  968MOL0     H30621   2.789   1.330   8.786  1.6486  0.3740  2.1678
  968MOL0     H30622   2.634   1.430   8.820 -1.7525 -1.1217  0.8367
  968MOL0     H30623   2.601   1.337   9.039 -1.3116  0.7095 -1.0141
  968MOL0     H30624   2.743   1.228   9.013 -3.4168 -1.2814  3.2174
  968MOL0     H30625   2.892   1.390   9.000 -0.6761 -0.3685 -1.0111
  968MOL0     H30626   2.790   1.525   9.030  2.1905  1.2859 -1.3031
  968MOL0     H30627   2.821   1.314   9.252 -0.4471 -0.9358 -1.3916
  968MOL0     H30628   2.718   1.459   9.258  0.3266  1.4860 -0.8050
  968MOL0     H30629   3.008   1.484   9.235 -2.2667 -1.6237 -2.5679
  968MOL0     H30630   2.881   1.619   9.236 -0.4494 -0.3026 -2.3088
  968MOL0     H30631   3.118   1.455   9.478 -0.5503  0.1444  0.1573
  968MOL0     H30632   2.993   1.339   9.781  0.7951  0.8710  2.7942
  968MOL0     H30633   3.131   1.424   9.712  0.3546 -2.6092  1.4486
  968MOL0     H30634   2.920   1.516   9.917  0.8401 -2.5850  2.1562
  968MOL0     H30635   3.090   1.514   9.941 -1.6642 -1.9415  0.9489
  968MOL0     H30636   2.965   1.714   9.748 -0.2987 -3.3882 -0.8413
  968MOL0     H30637   3.130   1.671   9.760 -1.2302 -2.6109 -1.0021
  968MOL0     H30638   3.169   1.801   9.945 -0.7719 -0.4088  0.7703
  968MOL0     H30639   3.003   1.776  10.011 -0.7004  0.7373 -0.7313
  968MOL0     H30640   3.021   2.155   9.762 -0.0718  1.1766 -0.3569
  968MOL0     H30641   3.056   2.357   9.855  0.6849 -1.6264 -1.5833
  968MOL0     H30642   3.179   2.390  10.488 -2.1085  0.3794  0.9818
  968MOL0     H30643   3.259   2.548  10.644  0.9042 -1.1255 -0.7002
  968MOL0     H30644   3.321   2.991  10.509  0.7251 -1.8410 -0.6942
  968MOL0     H30645   3.158   2.956  10.570 -0.7817 -1.2225  0.6581
  968MOL0     H30646   3.250   2.966  10.821 -1.8848  1.0572 -0.8634
  968MOL0     H30647   3.390   3.032  10.756 -0.6214 -0.8335  2.1089
  968MOL0     H30648   3.295   3.195  10.639  0.6601 -0.2663 -0.2944
  968MOL0     H30649   3.129   3.149  10.690 -0.9442 -4.2552  0.6068
  968MOL0     H30650   3.361   3.217  10.886 -0.4665 -1.5650  2.9419
  968MOL0     H30651   3.197   3.178  10.922  1.3234 -0.9125  0.9527
  968MOL0     H30652   3.115   3.369  10.788 -0.4424 -0.5859 -1.5014
  968MOL0     H30653   3.271   3.397  10.726  2.0035  2.1784  2.9247
  968MOL0     H30654   3.179   3.428  11.027  1.2856 -2.7104  1.2793
  968MOL0     H30655   3.337   3.457  10.977 -0.3897  1.3203 -0.2288
  968MOL0     H30656   3.292   3.655  10.847 -0.3799  0.2417 -1.4261
  968MOL0     H30657   3.173   3.653  10.985 -3.3941 -1.0651 -1.7205
  968MOL0     H30658   3.084   3.723  10.773  2.0250 -0.0232  0.3733
  968MOL0     H30659   3.117   3.575  10.701  0.2601  3.0620 -1.1798
  968MOL0     H30660   3.261   2.850  10.333  1.7078 -0.1393 -0.8789
  968MOL0     H30661   3.189   2.697  10.177  1.2817  1.1981  0.2480
  968MOL0     H30662   3.102   2.175  10.240  2.2399  1.5995 -0.6422
  968MOL0     H30663   3.099   1.951  10.126  4.3760 -0.2936 -2.0027
  968MOL0     H30664   2.820   0.876   8.495 -0.5698 -2.2542 -1.5001
  968MOL0     H30665   2.973   0.778   8.339  0.7417  0.0348  3.5787
  968MOL0     H30666   3.226   0.751   8.039 -3.0634  2.5659  1.6350
  968MOL0     H30667   3.344   0.629   7.839  0.3213  1.2787  0.2251
  968MOL0     H30668   3.350   0.823   7.459  3.2261  2.2348  1.6044
  968MOL0     H30669   3.267   0.672   7.498 -1.4074  1.6750 -4.2155
  968MOL0     H30670   3.461   0.528   7.477 -1.3965  0.1649  0.8840
  968MOL0     H30671   3.563   0.661   7.426  0.4962 -1.0805  2.2136
  968MOL0     H30672   3.378   0.699   7.252  1.5058  0.0524 -0.5825
  968MOL0     H30673   3.340   0.518   7.286  0.8520 -1.2740 -1.8294
  968MOL0     H30674   3.623   0.618   7.198  0.6700 -0.5438  0.4109
  968MOL0     H30675   3.565   0.464   7.226  3.8406  2.1516  1.2010
  968MOL0     H30676   3.403   0.569   6.840 -1.6363 -0.8122  0.9506
  968MOL0     H30677   3.294   0.976   7.603 -0.5523  0.0699 -0.1582
  968MOL0     H30678   3.196   1.201   7.820  0.6953  1.3552 -1.0581
  968MOL0     H30679   3.166   1.162   7.651 -2.1018 -4.1768 -1.8258
  968MOL0     H30680   3.037   1.134   7.771  0.1472  0.6499  1.9419
  969MOL0     O30681   9.895   4.218  11.125  0.0338  0.2990  0.2869
  969MOL0     C30682   9.807   4.179  11.201  1.1053  0.3628  0.5949
  969MOL0     O30683   9.731   4.267  11.278  0.3002 -0.0228 -0.4788
  969MOL0     C30684   9.736   4.401  11.261  0.3864  0.4665  0.2377
  969MOL0     C30685   9.865   4.460  11.273  0.9872  0.0283  0.4910
  969MOL0     C30686   9.887   4.603  11.253 -0.5495  0.2486 -0.2198
  969MOL0     C30687   9.774   4.686  11.236 -0.6531  0.3263 -0.8362
  969MOL0     O30688   9.775   4.825  11.237  0.2713  0.6005 -0.0834
  969MOL0     C30689   9.882   4.916  11.228  0.1783 -0.0432 -0.4143
  969MOL0     C30690   9.836   5.035  11.308 -0.2042 -0.0629  0.0626
  969MOL0     C30691   9.800   5.011  11.460  0.0538  0.5682  0.6667
  969MOL0     C30692   9.911   4.971  11.558  0.3177 -0.1626  0.0698
  969MOL0     C30693  10.003   5.095  11.575 -0.4760 -0.1545 -0.3264
  969MOL0     C30694  10.118   5.065  11.675  0.6077  0.4919 -0.0001
  969MOL0     C30695  10.070   5.028  11.809  0.1524 -0.4400  0.7341
  969MOL0     C30696  10.179   5.032  11.914 -0.3762  0.4194 -0.1088
  969MOL0     N30697  10.295   4.948  11.899 -0.2926  0.1219  0.6367
  969MOL0     C30698  10.302   4.829  11.967  0.0675 -0.8525 -0.0718
  969MOL0     C30699  10.430   4.788  11.937 -0.3715 -0.3802 -0.5264
  969MOL0     C30700  10.505   4.667  11.983  0.1376  0.0793  0.4749
  969MOL0     C30701  10.605   4.713  12.104 -0.1071  0.4364  0.4112
  969MOL0     C30702  10.732   4.627  12.095 -0.7162 -0.3561 -0.0084
  969MOL0     C30703  10.846   4.667  12.204 -0.0966 -0.9872  0.9256
  969MOL0     O30704  10.928   4.548  12.233 -0.0562 -0.1849  0.4401
  969MOL0     C30705  11.054   4.559  12.290 -0.4111  0.8725 -0.2393
  969MOL0     C30706  11.142   4.457  12.305 -0.0653  0.3538 -0.7070
  969MOL0     C30707  11.258   4.468  12.376 -0.8001  0.2168 -0.4629
  969MOL0     C30708  11.308   4.592  12.424  0.4323  0.0817 -0.9827
  969MOL0     C30709  11.438   4.608  12.480 -0.5479 -0.0182  0.0266
  969MOL0     O30710  11.493   4.493  12.516  0.2128  0.1890  0.3903
  969MOL0     C30711  11.619   4.488  12.578  0.0552 -0.5378  0.1120
  969MOL0     C30712  11.620   4.388  12.673 -0.6280 -0.1618 -0.1166
  969MOL0     C30713  11.736   4.353  12.741 -0.5680  0.3732 -0.5422
  969MOL0     C30714  11.848   4.440  12.714 -0.3921  0.2315 -0.5510
  969MOL0     O30715  11.964   4.421  12.787  0.2274  0.2052  0.4300
  969MOL0     C30716  12.003   4.542  12.854 -0.1662 -0.2910 -0.2330
  969MOL0     C30717  12.100   4.523  12.966 -0.1584 -0.5552 -0.9591
  969MOL0     C30718  12.247   4.529  12.920 -0.1689  0.8628  0.5321
  969MOL0     C30719  12.345   4.443  13.017 -0.1355 -0.1293  0.5075
  969MOL0     C30720  12.471   4.383  12.932 -0.7704  0.2484  0.7459
  969MOL0     C30721  12.592   4.331  13.017 -0.0990  0.4263 -0.4276
  969MOL0     C30722  12.551   4.270  13.153  0.0090 -0.1556  0.0442
  969MOL0     C30723  12.462   4.145  13.129 -0.8505 -0.1429  0.3645
  969MOL0    Cl30724  12.538   4.019  13.040 -0.3134 -0.0925  0.0589
  969MOL0     C30725  11.851   4.537  12.617  0.1326 -0.8414  0.2687
  969MOL0     C30726  11.730   4.564  12.545  0.3549 -0.7521  0.1258
  969MOL0     O30727  11.486   4.722  12.493 -0.4383 -0.3858 -0.3426
  969MOL0     C30728  11.219   4.696  12.404 -0.2212 -0.1950 -0.1690
  969MOL0     C30729  11.090   4.678  12.352 -0.9398 -1.1381 -0.1936
  969MOL0     N30730  10.495   4.881  11.848  0.0513  0.4381 -0.6185
  969MOL0     N30731  10.413   4.983  11.836 -0.3035  0.0204 -0.5637
  969MOL0     C30732   9.653   4.622  11.239  0.0750 -0.1000 -0.0954
  969MOL0     C30733   9.628   4.486  11.248  0.3069 -1.6327 -0.8365
  969MOL0     C30734   9.776   4.032  11.206 -0.9400  0.2943 -0.2581
  969MOL0     C30735   9.859   3.946  11.135 -0.4468 -0.3389  1.4843
  969MOL0     C30736   9.850   3.807  11.154  0.5476 -0.5330 -0.5257
  969MOL0     C30737   9.739   3.755  11.219  0.4932 -0.1262 -0.0134
  969MOL0     O30738   9.720   3.619  11.216  0.4448  0.1758 -0.1964
  969MOL0     C30739   9.748   3.536  11.331 -0.2603  0.2485 -0.1467
  969MOL0     C30740   9.899   3.542  11.366  0.9707  0.6020  0.6591
  969MOL0     C30741   9.945   3.466  11.491  0.4142 -0.4161 -0.5891
  969MOL0     C30742  10.095   3.504  11.527 -0.5320  0.9094  0.2642
  969MOL0     C30743  10.125   3.420  11.642 -0.5186  0.0786 -0.6791
  969MOL0     C30744  10.157   3.356  11.736 -0.2100  1.0644  0.2633
  969MOL0     C30745   9.659   3.838  11.296 -0.9073  0.1727  0.1194
  969MOL0     C30746   9.677   3.976  11.295 -1.3163  0.5712 -0.0436
  969MOL0     C30747   9.600   4.044  11.397 -0.0293 -0.1066  0.0254
  969MOL0     H30748   9.954   4.399  11.267 -0.5037 -2.2418  0.1113
  969MOL0     H30749   9.980   4.656  11.238 -1.5813  2.0322 -0.5708
  969MOL0     H30750   9.972   4.882  11.280 -0.8813 -0.4165  1.2691
  969MOL0     H30751   9.898   4.941  11.123  0.6216  1.2588 -0.0489
  969MOL0     H30752   9.748   5.072  11.254  1.0138 -1.0336 -2.7360
  969MOL0     H30753   9.918   5.107  11.314  0.0109 -0.3638  0.9154
  969MOL0     H30754   9.733   4.924  11.465 -1.1528  1.4844  1.1003
  969MOL0     H30755   9.738   5.095  11.492 -2.8622 -0.8680 -0.7777
  969MOL0     H30756   9.862   4.942  11.652 -2.4475  1.4990 -0.7294
  969MOL0     H30757   9.961   4.888  11.508  0.2182 -0.4534  0.4437
  969MOL0     H30758  10.055   5.127  11.484 -0.4768  4.0195  0.9263
  969MOL0     H30759   9.950   5.185  11.608 -0.4692  0.0348 -0.8221
  969MOL0     H30760  10.190   4.992  11.637 -1.0186 -1.9420  1.3126
  969MOL0     H30761  10.177   5.156  11.686 -0.5835  1.3495 -0.5450
  969MOL0     H30762  10.046   4.921  11.813  1.7226 -0.8603  0.0101
  969MOL0     H30763   9.977   5.084  11.824 -0.6525 -0.7516 -2.4035
  969MOL0     H30764  10.209   5.133  11.940  0.1341 -0.3662  2.7067
  969MOL0     H30765  10.138   5.007  12.012  0.3550 -1.0487 -0.1345
  969MOL0     H30766  10.224   4.778  12.022 -0.1916 -0.8374 -0.4238
  969MOL0     H30767  10.431   4.595  12.019 -0.6883  0.8004  0.2613
  969MOL0     H30768  10.549   4.628  11.891  0.1177  1.1955 -0.0153
  969MOL0     H30769  10.646   4.814  12.099  1.0202  0.0175  0.7710
  969MOL0     H30770  10.556   4.726  12.200  2.4676  2.8912  1.5445
  969MOL0     H30771  10.790   4.646  12.005  0.7361 -2.0550  0.5140
  969MOL0     H30772  10.710   4.520  12.102  2.1892 -1.1451 -1.6033
  969MOL0     H30773  10.798   4.688  12.300  1.3604 -0.4671  1.5750
  969MOL0     H30774  10.901   4.758  12.180  1.7675 -2.6221 -1.5340
  969MOL0     H30775  11.127   4.361  12.255  1.3771  0.0306 -0.5676
  969MOL0     H30776  11.324   4.382  12.379  0.5060  1.1076 -1.9320
  969MOL0     H30777  11.535   4.322  12.687 -1.3146  0.6131 -0.4923
  969MOL0     H30778  11.736   4.272  12.813  1.1065 -0.7902 -1.7583
  969MOL0     H30779  12.054   4.613  12.788  0.9143  0.7404  1.6019
  969MOL0     H30780  11.909   4.583  12.891 -0.8613 -0.0520 -2.1354
  969MOL0     H30781  12.089   4.596  13.047 -3.6004 -0.7240 -1.1428
  969MOL0     H30782  12.073   4.427  13.009 -0.1443 -0.9277 -1.7723
  969MOL0     H30783  12.256   4.476  12.825  1.5827  1.3543  0.3872
  969MOL0     H30784  12.278   4.634  12.913  1.2158  0.5524  1.5440
  969MOL0     H30785  12.285   4.368  13.068  2.5675 -4.1572 -1.6960
  969MOL0     H30786  12.383   4.523  13.081 -0.6214  2.4118 -2.1247
  969MOL0     H30787  12.505   4.443  12.846  2.4359  0.3296  1.9324
  969MOL0     H30788  12.435   4.294  12.880  2.5836 -0.8019 -0.0294
  969MOL0     H30789  12.636   4.255  12.951 -2.0993 -1.9391  0.7704
  969MOL0     H30790  12.668   4.407  13.036  0.1219 -0.0746  0.7857
  969MOL0     H30791  12.503   4.349  13.211  1.2340  2.6645 -2.4891
  969MOL0     H30792  12.631   4.239  13.221 -2.0970 -1.3672  2.1160
  969MOL0     H30793  12.429   4.105  13.226  0.3582 -0.5950  0.6081
  969MOL0     H30794  12.371   4.171  13.074 -0.4256  3.7900  1.2216
  969MOL0     H30795  11.940   4.595  12.591  1.4379 -2.6323  0.5641
  969MOL0     H30796  11.734   4.641  12.468 -0.1126  0.0130  0.8447
  969MOL0     H30797  11.260   4.786  12.447  0.1577 -0.6310  0.3899
  969MOL0     H30798  11.027   4.765  12.343 -2.8845 -2.6730 -2.4883
  969MOL0     H30799   9.566   4.687  11.244  0.8377  0.8720  0.9301
  969MOL0     H30800   9.530   4.439  11.241  0.2795 -1.7485  0.1583
  969MOL0     H30801   9.934   3.972  11.061 -1.2234 -2.8392 -0.3393
  969MOL0     H30802   9.922   3.741  11.105  2.5799  1.3185 -0.2123
  969MOL0     H30803   9.721   3.431  11.316 -1.1166  0.4438 -0.0653
  969MOL0     H30804   9.689   3.581  11.411 -0.3141  1.4614 -0.8429
  969MOL0     H30805   9.925   3.647  11.385 -0.4465  0.8484  1.3838
  969MOL0     H30806   9.963   3.506  11.285  1.7758 -2.1303  2.3800
  969MOL0     H30807   9.921   3.359  11.491 -2.3010  0.0828  0.6478
  969MOL0     H30808   9.889   3.501  11.578 -0.8163 -1.2732 -1.0032
  969MOL0     H30809  10.167   3.479  11.448  0.1407  0.2447  1.0713
  969MOL0     H30810  10.122   3.602  11.569 -1.0157 -0.5547  4.4777
  969MOL0     H30811  10.193   3.292  11.814 -0.3586  1.0732  0.3393
  969MOL0     H30812   9.583   3.795  11.361 -0.2821 -1.1143  0.0226
  969MOL0     H30813   9.673   4.105  11.452  1.5586 -1.5355 -0.4127
  969MOL0     H30814   9.533   4.117  11.350 -1.4746 -0.5701  1.2919
  969MOL0     H30815   9.547   3.975  11.464 -1.8915  1.0227 -0.2149
  970MOL0     O30816   7.898   6.714   7.584 -0.2219 -1.0541  0.2250
  970MOL0     C30817   7.814   6.798   7.558  1.0104  0.2172 -0.6582
  970MOL0     O30818   7.824   6.881   7.452  0.3356 -0.1603  0.0429
  970MOL0     C30819   7.940   6.872   7.385 -0.9066 -0.5717  0.9397
  970MOL0     C30820   8.004   6.990   7.348  0.4764  0.1049 -0.6197
  970MOL0     C30821   8.124   6.989   7.277 -0.0430  0.3171  0.1066
  970MOL0     C30822   8.182   6.861   7.230  0.5324  0.9641 -0.7995
  970MOL0     O30823   8.309   6.853   7.182 -0.4815 -0.2218  0.6492
  970MOL0     C30824   8.409   6.954   7.213 -0.0797 -0.7510 -0.9227
  970MOL0     C30825   8.432   7.042   7.097  0.0358  0.6338  0.5868
  970MOL0     C30826   8.490   7.174   7.161  0.4762 -0.1895 -0.0178
  970MOL0     C30827   8.374   7.279   7.168 -0.7825  1.0113 -0.0265
  970MOL0     C30828   8.439   7.422   7.206 -0.2251 -0.1368 -0.2205
  970MOL0     C30829   8.329   7.520   7.241  1.3387 -0.2079 -0.6094
  970MOL0     C30830   8.377   7.663   7.271  0.6973  0.3629 -0.1732
  970MOL0     C30831   8.437   7.719   7.146 -0.2434 -0.0392 -0.8956
  970MOL0     N30832   8.498   7.853   7.155 -0.5993  0.6863 -0.0120
  970MOL0     C30833   8.581   7.897   7.256 -1.0404 -0.0652 -0.2816
  970MOL0     C30834   8.618   8.022   7.223 -0.4830  0.3374 -0.3372
  970MOL0     C30835   8.698   8.133   7.289 -1.0313 -0.3165  0.2576
  970MOL0     C30836   8.702   8.136   7.441  0.5964 -0.5138  0.0940
  970MOL0     C30837   8.819   8.225   7.491  1.1238  0.1305 -0.3650
  970MOL0     C30838   8.956   8.156   7.483  0.0991  0.1741 -1.2270
  970MOL0     O30839   9.047   8.263   7.474 -1.2617 -0.5693 -0.2511
  970MOL0     C30840   9.178   8.240   7.463 -0.5936  0.2639  0.2492
  970MOL0     C30841   9.257   8.349   7.445  0.3456 -0.1975 -0.2167
  970MOL0     C30842   9.395   8.339   7.421 -0.2583  0.1204  1.0669
  970MOL0     C30843   9.467   8.222   7.415 -0.7430 -0.0433 -0.3186
  970MOL0     C30844   9.609   8.214   7.357 -0.6861  0.3033  0.2112
  970MOL0     O30845   9.637   8.312   7.257 -0.0020  0.0424  0.1804
  970MOL0     C30846   9.711   8.276   7.145 -0.3917 -0.1797  0.6224
  970MOL0     C30847   9.746   8.378   7.062 -0.0194  0.0267  0.6712
  970MOL0     C30848   9.824   8.361   6.944 -0.1368 -0.1677 -0.2183
  970MOL0     C30849   9.868   8.231   6.913 -0.4952  0.0768  0.3321
  970MOL0     O30850   9.954   8.201   6.814 -0.0075 -0.2696  0.5447
  970MOL0     C30851   9.963   8.288   6.698 -0.7207  0.1889  0.8479
  970MOL0     C30852   9.827   8.286   6.612 -0.2560 -0.6940 -0.1377
  970MOL0     C30853   9.851   8.379   6.492 -0.3469 -0.4786 -0.2398
  970MOL0     C30854   9.755   8.374   6.377  0.3602  0.1773 -0.8034
  970MOL0     C30855   9.610   8.373   6.440 -0.4677 -0.9288  0.1770
  970MOL0     C30856   9.512   8.410   6.334  0.2112  0.8857  0.8692
  970MOL0     C30857   9.376   8.438   6.396  0.2768  0.1079 -0.0290
  970MOL0     C30858   9.251   8.436   6.302 -0.4391 -0.4519  0.1915
  970MOL0    Cl30859   9.115   8.483   6.405 -0.4354  0.0717  0.3156
  970MOL0     C30860   9.823   8.121   6.992 -0.5478  0.8368 -0.5106
  970MOL0     C30861   9.743   8.147   7.102 -0.5240 -0.6210  0.5659
  970MOL0     O30862   9.678   8.120   7.388  0.1138 -0.6732 -0.2778
  970MOL0     C30863   9.387   8.104   7.441  0.5128 -0.8642 -0.2944
  970MOL0     C30864   9.245   8.116   7.472  0.3261 -0.3745  0.3711
  970MOL0     N30865   8.560   8.050   7.098 -0.3129 -1.5972  0.4850
  970MOL0     N30866   8.488   7.944   7.069 -0.3072 -0.8896 -0.2962
  970MOL0     C30867   8.110   6.751   7.252  0.2453 -0.5487  1.3424
  970MOL0     C30868   7.983   6.753   7.318 -0.4631 -0.1847  0.3479
  970MOL0     C30869   7.696   6.807   7.657 -0.1302  0.3887  0.5944
  970MOL0     C30870   7.704   6.742   7.790 -0.0554 -0.0836 -0.4534
  970MOL0     C30871   7.602   6.742   7.879 -0.7415  0.3428  0.5482
  970MOL0     C30872   7.483   6.804   7.843 -0.1081 -0.6595 -0.2963
  970MOL0     O30873   7.373   6.796   7.923 -0.2352  0.3746 -0.1556
  970MOL0     C30874   7.394   6.821   8.062  0.5859  0.6873  0.3246
  970MOL0     C30875   7.250   6.847   8.109 -0.4131 -0.0396  0.2779
  970MOL0     C30876   7.161   6.716   8.113  0.2446 -0.6712 -0.3081
  970MOL0     C30877   7.028   6.722   8.184 -0.3282 -0.3008 -0.7005
  970MOL0     C30878   7.034   6.720   8.330  0.1465  0.2207  0.1222
  970MOL0     C30879   7.059   6.717   8.449 -0.0344 -0.6786  0.8289
  970MOL0     C30880   7.472   6.864   7.713  0.0219  0.0026 -0.9128
  970MOL0     C30881   7.571   6.868   7.618 -0.3608 -0.1036 -0.0289
  970MOL0     C30882   7.549   6.931   7.488  0.0936 -1.1065  0.1427
  970MOL0     H30883   7.971   7.089   7.378  0.4684  0.2226 -1.0148
  970MOL0     H30884   8.165   7.089   7.266  1.9283 -0.3728  0.7387
  970MOL0     H30885   8.381   7.026   7.290  4.0129  1.9986 -1.7041
  970MOL0     H30886   8.496   6.896   7.246 -1.0156 -1.8125 -0.2362
  970MOL0     H30887   8.337   7.051   7.044 -1.4142 -3.8368  1.9144
  970MOL0     H30888   8.503   6.997   7.026 -2.2729  0.3309 -1.6622
  970MOL0     H30889   8.577   7.194   7.098 -0.2225 -3.9981 -2.5570
  970MOL0     H30890   8.532   7.181   7.262 -4.4319  0.6844  2.2217
  970MOL0     H30891   8.341   7.284   7.064  1.9173 -1.9319 -1.2014
  970MOL0     H30892   8.301   7.242   7.240  0.6053 -1.7641  0.0996
  970MOL0     H30893   8.505   7.401   7.291 -2.4014  2.1275  2.2205
  970MOL0     H30894   8.517   7.453   7.136  0.5698  3.7787  2.1017
  970MOL0     H30895   8.256   7.520   7.159 -1.2423 -1.0415  1.5250
  970MOL0     H30896   8.266   7.474   7.318 -0.8978 -1.6764 -3.0952
  970MOL0     H30897   8.453   7.645   7.348  0.7847  1.8369  0.1127
  970MOL0     H30898   8.282   7.713   7.290 -1.8561 -2.4870 -3.9432
  970MOL0     H30899   8.511   7.660   7.092  1.8847  1.9161 -0.2683
  970MOL0     H30900   8.349   7.737   7.082 -1.1750  0.7626  0.5493
  970MOL0     H30901   8.607   7.848   7.349  1.7167 -1.0585 -1.4765
  970MOL0     H30902   8.801   8.129   7.252 -1.2485 -1.2248 -0.2884
  970MOL0     H30903   8.658   8.228   7.252  2.3809  0.8552 -0.8165
  970MOL0     H30904   8.607   8.182   7.470 -0.8866 -3.2083 -0.1776
  970MOL0     H30905   8.705   8.033   7.477 -3.9438 -1.7793 -2.4138
  970MOL0     H30906   8.802   8.252   7.595  1.8955 -0.0082 -0.2033
  970MOL0     H30907   8.818   8.319   7.435 -1.1145 -0.4118 -1.3600
  970MOL0     H30908   8.955   8.100   7.389 -1.0516 -3.6802  0.8631
  970MOL0     H30909   8.953   8.090   7.571  1.0812  0.4827 -0.9514
  970MOL0     H30910   9.215   8.446   7.417  0.9189 -0.2994 -1.4860
  970MOL0     H30911   9.446   8.429   7.391 -2.2839  1.0045  0.1433
  970MOL0     H30912   9.707   8.478   7.078  0.0130 -0.3317  3.5396
  970MOL0     H30913   9.836   8.447   6.879 -0.4628  0.9189  1.0971
  970MOL0     H30914   9.984   8.391   6.727 -0.2357 -0.4932  3.1115
  970MOL0     H30915  10.044   8.251   6.634 -1.3405  0.0551  0.1156
  970MOL0     H30916   9.786   8.186   6.596  0.7169 -0.9463 -1.1773
  970MOL0     H30917   9.756   8.319   6.689  3.1298 -1.4919  3.7262
  970MOL0     H30918   9.852   8.482   6.530 -0.7643 -0.1818 -1.0114
  970MOL0     H30919   9.949   8.348   6.454  0.4464 -1.8272  2.6338
  970MOL0     H30920   9.782   8.280   6.329 -0.2809 -1.3544  1.6175
  970MOL0     H30921   9.761   8.460   6.310 -2.4382  0.6856 -0.5430
  970MOL0     H30922   9.599   8.450   6.517  0.0379  1.1267 -1.7254
  970MOL0     H30923   9.571   8.278   6.478 -2.0754 -0.1732  0.4943
  970MOL0     H30924   9.543   8.498   6.277 -1.0813  0.4067 -0.6624
  970MOL0     H30925   9.503   8.329   6.261  2.8301  1.6664 -0.4503
  970MOL0     H30926   9.386   8.537   6.441  0.2268 -1.0910  2.8402
  970MOL0     H30927   9.351   8.361   6.470 -1.2759  0.9550  0.3703
  970MOL0     H30928   9.261   8.510   6.222  1.3326 -1.1019 -0.2353
  970MOL0     H30929   9.244   8.335   6.260 -2.1419  0.2511 -1.3432
  970MOL0     H30930   9.850   8.018   6.970 -0.8788  0.9224 -1.3580
  970MOL0     H30931   9.702   8.063   7.158  2.3974 -0.8310  2.5909
  970MOL0     H30932   9.447   8.013   7.445 -0.2586 -1.3889 -0.4705
  970MOL0     H30933   9.208   8.015   7.487 -1.2127 -0.0597 -0.9250
  970MOL0     H30934   8.144   6.649   7.234 -1.4469 -1.1102  1.1326
  970MOL0     H30935   7.926   6.661   7.330 -0.5528 -0.3413 -1.0841
  970MOL0     H30936   7.787   6.682   7.827 -0.0464 -0.5183 -1.1530
  970MOL0     H30937   7.612   6.697   7.977  2.4756 -0.3659 -0.0039
  970MOL0     H30938   7.462   6.902   8.092  2.9795 -0.4997 -1.5604
  970MOL0     H30939   7.422   6.727   8.112 -1.4538  0.4303  1.0806
  970MOL0     H30940   7.209   6.930   8.051 -0.8982  0.4104  1.2461
  970MOL0     H30941   7.248   6.866   8.217  1.9391 -2.2484  0.8357
  970MOL0     H30942   7.216   6.631   8.153  1.0417 -1.1408 -2.2405
  970MOL0     H30943   7.138   6.686   8.010 -1.7365 -0.3741  0.0202
  970MOL0     H30944   6.986   6.820   8.160 -2.4637  0.1070  3.6470
  970MOL0     H30945   6.959   6.646   8.145 -0.6958 -1.6261  2.2631
  970MOL0     H30946   7.079   6.723   8.554  0.6008 -1.3288  0.7545
  970MOL0     H30947   7.374   6.904   7.687 -0.9210 -1.1959  0.5664
  970MOL0     H30948   7.449   6.972   7.473  1.0409  1.0586 -0.7399
  970MOL0     H30949   7.613   7.017   7.468  0.1443 -0.8901  1.1535
  970MOL0     H30950   7.560   6.860   7.406 -1.8251  3.5025 -4.6250
  971MOL0     O30951   7.141   5.039   4.332 -0.3686  0.0713  0.3848
  971MOL0     C30952   7.111   5.142   4.390 -0.9650 -0.7445  0.7978
  971MOL0     O30953   7.051   5.158   4.509 -0.3934 -0.3001  0.5203
  971MOL0     C30954   7.022   5.052   4.586 -0.2739  0.5904 -0.1517
  971MOL0     C30955   6.893   5.039   4.612 -0.4976 -0.3384  0.2271
  971MOL0     C30956   6.844   4.943   4.697 -0.2597  0.0402 -0.1306
  971MOL0     C30957   6.924   4.852   4.770  0.8458 -0.1289 -0.2725
  971MOL0     O30958   6.877   4.752   4.857  0.0429  0.1536  0.2195
  971MOL0     C30959   6.751   4.755   4.914 -0.0851 -0.4516  0.1479
  971MOL0     C30960   6.734   4.708   5.052  0.1946  0.4073  0.0182
  971MOL0     C30961   6.595   4.751   5.101 -0.7450  0.1921  0.0182
  971MOL0     C30962   6.578   4.730   5.251  0.0749 -0.3037 -0.9010
  971MOL0     C30963   6.437   4.758   5.302 -0.1539  0.2548 -0.1959
  971MOL0     C30964   6.395   4.905   5.295 -0.1255 -0.1838  0.0371
  971MOL0     C30965   6.238   4.904   5.276 -0.5598 -0.4168  0.1383
  971MOL0     C30966   6.173   4.825   5.392 -0.8803 -0.1755 -0.7233
  971MOL0     N30967   6.182   4.857   5.532  0.1955  0.1104  0.0026
  971MOL0     C30968   6.088   4.820   5.622 -1.0085  0.6275 -0.3340
  971MOL0     C30969   6.129   4.885   5.735  0.2383 -0.3224  0.3784
  971MOL0     C30970   6.064   4.860   5.866  0.2542 -0.7570 -0.1969
  971MOL0     C30971   5.917   4.907   5.861  0.2344  0.2304 -0.0703
  971MOL0     C30972   5.866   4.937   6.003  0.7200 -0.3937  1.0688
  971MOL0     C30973   5.718   4.965   5.984 -0.3142  0.1987  0.5620
  971MOL0     O30974   5.664   5.020   6.102 -0.2409 -0.4085 -0.3268
  971MOL0     C30975   5.655   5.157   6.121 -0.4465  0.0890  0.0446
  971MOL0     C30976   5.677   5.256   6.021 -0.4353  0.2816 -0.4476
  971MOL0     C30977   5.679   5.394   6.049  0.4152 -0.9043 -0.6713
  971MOL0     C30978   5.649   5.441   6.178  0.5073 -0.7429  0.4742
  971MOL0     C30979   5.659   5.586   6.217  0.4343 -0.1267 -0.4820
  971MOL0     O30980   5.636   5.615   6.354  0.3003  0.5786  0.4695
  971MOL0     C30981   5.613   5.743   6.390 -0.4071 -0.1919  0.8103
  971MOL0     C30982   5.705   5.848   6.354  0.2795  0.0277  0.1294
  971MOL0     C30983   5.668   5.983   6.385  0.3701  0.1219  0.3692
  971MOL0     C30984   5.552   6.018   6.450  0.1765 -0.7171 -0.0914
  971MOL0     O30985   5.515   6.147   6.470 -0.6639  0.2019 -0.8048
  971MOL0     C30986   5.526   6.245   6.368 -0.5076  0.4268 -0.0729
  971MOL0     C30987   5.412   6.345   6.388  0.3620  0.4968  0.2402
  971MOL0     C30988   5.433   6.417   6.523  0.8235 -0.0166  0.6457
  971MOL0     C30989   5.366   6.555   6.513  0.7593 -0.0886 -0.0803
  971MOL0     C30990   5.389   6.645   6.635 -0.0088 -0.1729 -0.2158
  971MOL0     C30991   5.329   6.792   6.628 -0.5555  0.7349 -0.0063
  971MOL0     C30992   5.352   6.872   6.757 -0.4154  0.5954  0.3497
  971MOL0     C30993   5.252   6.838   6.863 -0.4531  0.5240 -0.6110
  971MOL0    Cl30994   5.082   6.866   6.817 -0.2764  0.4501 -0.1803
  971MOL0     C30995   5.474   5.912   6.506 -0.8186 -0.0510 -0.1072
  971MOL0     C30996   5.510   5.776   6.475  0.2215 -0.0041 -0.2316
  971MOL0     O30997   5.680   5.665   6.123 -0.0707 -0.3023 -0.2233
  971MOL0     C30998   5.635   5.335   6.281  0.6541 -1.1248  0.5058
  971MOL0     C30999   5.620   5.200   6.252 -0.7895 -0.7797 -0.6292
  971MOL0     N31000   6.235   4.969   5.706  0.9711 -0.0194 -0.6452
  971MOL0     N31001   6.265   4.949   5.583 -0.0597 -0.7509  0.0418
  971MOL0     C31002   7.066   4.862   4.745  0.0799  0.7782 -0.4849
  971MOL0     C31003   7.114   4.962   4.654 -0.4064 -0.7633 -0.1095
  971MOL0     C31004   7.157   5.267   4.314 -0.6543  0.4005 -0.2680
  971MOL0     C31005   7.286   5.271   4.257  1.4148  0.1543 -0.4724
  971MOL0     C31006   7.328   5.394   4.191  0.3062  0.7284  0.4881
  971MOL0     C31007   7.248   5.509   4.179  0.1928  0.0469  0.2755
  971MOL0     O31008   7.292   5.606   4.094 -0.2970 -0.1276 -0.5652
  971MOL0     C31009   7.253   5.747   4.124 -0.5229 -0.0541 -0.5238
  971MOL0     C31010   7.223   5.824   4.000  0.2600 -0.4039  0.5787
  971MOL0     C31011   7.349   5.842   3.918 -0.7039  0.9962  0.0955
  971MOL0     C31012   7.341   5.946   3.812 -0.0858 -0.7341  0.2877
  971MOL0     C31013   7.239   5.913   3.703  0.6746  0.0980  0.0040
  971MOL0     C31014   7.148   5.900   3.620 -0.4627 -0.3286 -1.0869
  971MOL0     C31015   7.113   5.498   4.226  0.4297  0.3709 -0.0663
  971MOL0     C31016   7.071   5.380   4.293  0.3677 -0.3046 -0.7824
  971MOL0     C31017   6.928   5.378   4.339  0.1699 -0.3095  0.5795
  971MOL0     H31018   6.830   5.109   4.559  1.1537  2.7604  2.0598
  971MOL0     H31019   6.737   4.947   4.716  0.0466  1.8236  1.6265
  971MOL0     H31020   6.702   4.853   4.909 -1.8718 -0.9377  4.4847
  971MOL0     H31021   6.689   4.684   4.858  0.0955 -3.4620  3.4386
  971MOL0     H31022   6.813   4.744   5.118  2.0462 -1.2791 -1.1838
  971MOL0     H31023   6.743   4.599   5.054 -1.3802  0.2434 -0.0717
  971MOL0     H31024   6.511   4.710   5.043 -0.1486  0.7139 -1.2596
  971MOL0     H31025   6.595   4.860   5.086  0.2714  0.1234 -0.5422
  971MOL0     H31026   6.599   4.626   5.277 -2.5592 -0.4636  1.0391
  971MOL0     H31027   6.643   4.793   5.313 -1.5296 -0.6074  1.2288
  971MOL0     H31028   6.371   4.695   5.241 -1.1289  1.4478 -0.4145
  971MOL0     H31029   6.429   4.720   5.404  1.0796  1.3297  0.3164
  971MOL0     H31030   6.428   4.967   5.379  0.4172  1.8848 -1.6376
  971MOL0     H31031   6.428   4.956   5.205 -1.2702  0.5505  0.0064
  971MOL0     H31032   6.211   4.851   5.184 -2.0203 -2.2243  1.5252
  971MOL0     H31033   6.194   5.004   5.269  2.5429  1.1324  1.0966
  971MOL0     H31034   6.064   4.824   5.382 -1.1655 -2.7862  1.2872
  971MOL0     H31035   6.196   4.718   5.382  1.3901  0.1386  0.5093
  971MOL0     H31036   6.010   4.745   5.615 -1.0874  0.5921  0.7483
  971MOL0     H31037   6.077   4.763   5.916  0.5228  0.6396  2.6937
  971MOL0     H31038   6.112   4.937   5.927 -0.6483  1.8856 -2.6013
  971MOL0     H31039   5.900   4.993   5.795 -1.7576  0.4115  0.6019
  971MOL0     H31040   5.851   4.830   5.820  1.8569 -1.0767 -0.3188
  971MOL0     H31041   5.914   5.023   6.050  0.9613 -0.9239  1.8258
  971MOL0     H31042   5.880   4.851   6.070  0.5960  1.1198  3.1354
  971MOL0     H31043   5.667   4.870   5.967 -0.9748  0.6613 -0.1052
  971MOL0     H31044   5.692   5.031   5.901 -2.8017 -0.0551  1.0560
  971MOL0     H31045   5.709   5.221   5.924  1.1126  0.5489 -0.0498
  971MOL0     H31046   5.718   5.460   5.971  0.8811  0.1178  0.3897
  971MOL0     H31047   5.794   5.826   6.296  1.6634  0.8655  1.8598
  971MOL0     H31048   5.734   6.059   6.343 -1.9462  0.5588 -2.9134
  971MOL0     H31049   5.624   6.292   6.358  0.2426 -1.4635 -2.8820
  971MOL0     H31050   5.512   6.196   6.272 -0.9150  0.6792 -0.1406
  971MOL0     H31051   5.420   6.417   6.305  5.0189  0.2729  0.2274
  971MOL0     H31052   5.318   6.290   6.380  0.8574 -0.4443  0.7548
  971MOL0     H31053   5.390   6.356   6.603 -0.3330 -0.2059 -0.0900
  971MOL0     H31054   5.539   6.422   6.549  0.6251 -1.9235  2.0251
  971MOL0     H31055   5.257   6.545   6.507  0.6955  0.0486  0.8210
  971MOL0     H31056   5.401   6.603   6.421  0.5297 -1.5962 -0.9913
  971MOL0     H31057   5.495   6.658   6.658 -0.6289  0.8484  2.3550
  971MOL0     H31058   5.340   6.600   6.721  3.5106 -0.0090  2.0962
  971MOL0     H31059   5.374   6.850   6.547  1.1061 -2.8311 -1.8802
  971MOL0     H31060   5.226   6.773   6.598  0.2562 -3.5936 -0.8020
  971MOL0     H31061   5.335   6.977   6.729 -2.9126 -0.2534 -1.6928
  971MOL0     H31062   5.457   6.866   6.788 -0.3255 -0.8200 -0.1656
  971MOL0     H31063   5.264   6.734   6.895 -1.9616 -0.0149 -1.6995
  971MOL0     H31064   5.270   6.908   6.945 -1.6779  0.1580 -0.0080
  971MOL0     H31065   5.383   5.948   6.553 -2.2905 -1.0872 -2.0009
  971MOL0     H31066   5.445   5.702   6.519 -0.6083  1.7810  1.7399
  971MOL0     H31067   5.622   5.371   6.382  1.3293 -0.4191  0.3483
  971MOL0     H31068   5.610   5.135   6.339  2.0772  1.4802  1.6341
  971MOL0     H31069   7.138   4.801   4.797 -2.2586  1.0161  3.4121
  971MOL0     H31070   7.219   4.964   4.626 -0.7638 -2.0647 -1.7055
  971MOL0     H31071   7.354   5.187   4.255  0.5854 -1.0472  5.1693
  971MOL0     H31072   7.422   5.385   4.137  0.3189  0.9195  0.4783
  971MOL0     H31073   7.337   5.790   4.179 -0.8823 -0.8549  0.6967
  971MOL0     H31074   7.161   5.757   4.183 -1.2769  0.4030 -1.7461
  971MOL0     H31075   7.183   5.924   4.021  3.0232  0.4154  2.5246
  971MOL0     H31076   7.146   5.774   3.941 -0.2456 -0.9178  1.6427
  971MOL0     H31077   7.384   5.747   3.876  1.8496  0.8472  2.2593
  971MOL0     H31078   7.424   5.868   3.994  1.2291 -1.3965 -0.8718
  971MOL0     H31079   7.319   6.040   3.864  2.1469 -0.2299  0.4286
  971MOL0     H31080   7.440   5.966   3.772 -0.2173  0.3022  0.4468
  971MOL0     H31081   7.061   5.906   3.556 -0.5271  0.2704 -0.9498
  971MOL0     H31082   7.031   5.567   4.208  0.4599  0.5947  0.6223
  971MOL0     H31083   6.899   5.482   4.357  1.1084 -0.1190  1.0454
  971MOL0     H31084   6.876   5.328   4.257  0.4426 -3.1309  2.0194
  971MOL0     H31085   6.896   5.315   4.422 -0.2264 -0.7871  0.0660
  972MOL0     O31086   3.635   6.306   1.806 -0.1497  0.3995 -0.0554
  972MOL0     C31087   3.654   6.381   1.710 -0.2889 -0.3284  1.2225
  972MOL0     O31088   3.663   6.515   1.718 -0.1867 -0.2184  0.3894
  972MOL0     C31089   3.683   6.563   1.848  0.6867 -0.1207 -0.4841
  972MOL0     C31090   3.582   6.628   1.920 -0.3769  0.7079 -0.3802
  972MOL0     C31091   3.612   6.693   2.036  0.4342 -1.4025 -0.3312
  972MOL0     C31092   3.733   6.703   2.091  0.1039 -0.0442  0.3351
  972MOL0     O31093   3.732   6.781   2.202  0.0982  0.9063  0.2018
  972MOL0     C31094   3.767   6.711   2.324  1.0445  0.6514 -0.5671
  972MOL0     C31095   3.751   6.805   2.451 -0.5473  0.6106  1.3254
  972MOL0     C31096   3.720   6.723   2.580 -0.0445 -0.0942 -0.1014
  972MOL0     C31097   3.776   6.805   2.699 -0.7055  1.0528  1.0067
  972MOL0     C31098   3.934   6.791   2.721  0.8683  0.4901  0.2223
  972MOL0     C31099   3.989   6.870   2.841 -0.1665  0.4764  0.1458
  972MOL0     C31100   3.976   7.021   2.840 -0.0090  0.3614 -0.5678
  972MOL0     C31101   4.011   7.107   2.960  0.9251  0.2855  0.1189
  972MOL0     N31102   4.146   7.153   2.958 -0.1801 -0.5453  0.0042
  972MOL0     C31103   4.276   7.105   2.935 -0.5284 -0.1924 -0.0972
  972MOL0     C31104   4.364   7.198   2.974 -0.0089 -0.0917 -0.9208
  972MOL0     C31105   4.509   7.186   2.985  0.0174  0.5109  0.5574
  972MOL0     C31106   4.584   7.287   2.898  0.0592 -0.0052 -0.6973
  972MOL0     C31107   4.724   7.242   2.877  0.1853 -0.3141  0.3620
  972MOL0     C31108   4.833   7.353   2.904  0.1119  0.4849 -0.7675
  972MOL0     O31109   4.784   7.484   2.856  0.4205 -0.2130  0.1697
  972MOL0     C31110   4.783   7.525   2.726 -0.0318  0.0348 -0.4626
  972MOL0     C31111   4.709   7.638   2.695  0.5557 -0.1222 -0.5339
  972MOL0     C31112   4.677   7.670   2.562 -0.5498  0.0420 -0.0459
  972MOL0     C31113   4.738   7.596   2.462  0.0796  1.4559 -0.5145
  972MOL0     C31114   4.711   7.629   2.324  0.9679 -0.7204 -0.2964
  972MOL0     O31115   4.650   7.754   2.296  0.3425 -0.5853 -0.4553
  972MOL0     C31116   4.603   7.776   2.174  0.6341 -0.4660 -0.2950
  972MOL0     C31117   4.655   7.894   2.118  0.2896  1.2421  0.7947
  972MOL0     C31118   4.613   7.941   1.989 -0.4979  0.1698  0.9110
  972MOL0     C31119   4.522   7.859   1.920  0.4982 -0.1597  0.4146
  972MOL0     O31120   4.464   7.916   1.807 -0.5806  0.7490 -0.1822
  972MOL0     C31121   4.460   7.840   1.685 -0.2898  0.8001 -0.1607
  972MOL0     C31122   4.376   7.904   1.573 -0.2175  0.1570  0.2750
  972MOL0     C31123   4.225   7.918   1.617 -0.5660  0.4245  0.0609
  972MOL0     C31124   4.171   7.792   1.685  0.4132  0.1747 -0.1427
  972MOL0     C31125   4.030   7.781   1.723  0.5755  0.3794 -0.4252
  972MOL0     C31126   4.006   7.871   1.855 -0.2249 -0.3544  0.0585
  972MOL0     C31127   3.856   7.862   1.901  0.5596  0.7493 -0.2650
  972MOL0     C31128   3.819   7.960   2.009 -0.6362 -0.2558  0.1893
  972MOL0    Cl31129   3.831   8.125   1.945 -0.1861  0.0194 -0.0078
  972MOL0     C31130   4.472   7.739   1.972  0.8949  0.0038  0.2102
  972MOL0     C31131   4.506   7.704   2.104 -0.0397  0.9023  0.2077
  972MOL0     O31132   4.757   7.553   2.241 -0.2961  0.9151  0.3067
  972MOL0     C31133   4.828   7.488   2.494  0.3544  0.5917  0.0811
  972MOL0     C31134   4.852   7.450   2.624  0.8037 -0.3621 -0.5999
  972MOL0     N31135   4.295   7.307   3.018 -0.9721  0.3657  0.1691
  972MOL0     N31136   4.165   7.281   3.004 -0.0436  0.1948  0.6943
  972MOL0     C31137   3.840   6.628   2.033  0.3266 -0.5915  0.8729
  972MOL0     C31138   3.811   6.571   1.912 -0.8727 -0.5314  0.9889
  972MOL0     C31139   3.677   6.319   1.575 -0.7464 -0.0351  0.1953
  972MOL0     C31140   3.781   6.371   1.503 -0.0674 -0.4469  1.0910
  972MOL0     C31141   3.812   6.317   1.377 -0.8619  0.1742 -0.0601
  972MOL0     C31142   3.743   6.225   1.314 -0.0880 -0.3913  1.3409
  972MOL0     O31143   3.771   6.162   1.196  0.1165  0.0696 -0.4246
  972MOL0     C31144   3.802   6.246   1.089 -0.1000 -0.7332 -0.1119
  972MOL0     C31145   3.757   6.174   0.961  0.3581 -0.1634  0.1814
  972MOL0     C31146   3.819   6.250   0.842  0.4976  0.3327 -0.0553
  972MOL0     C31147   3.771   6.186   0.713  0.4082 -0.1695 -0.2668
  972MOL0     C31148   3.866   6.213   0.608  1.0773 -0.4753  0.4712
  972MOL0     C31149   3.933   6.230   0.507 -0.1465 -0.1949  0.2289
  972MOL0     C31150   3.630   6.179   1.384 -0.5151 -0.6229  0.5430
  972MOL0     C31151   3.596   6.211   1.521  0.7177 -0.6427 -0.5971
  972MOL0     C31152   3.459   6.164   1.588 -0.9343  0.3141  0.3289
  972MOL0     H31153   3.483   6.602   1.885 -1.4662  3.1740  0.6853
  972MOL0     H31154   3.529   6.739   2.088  0.0120 -3.6440  1.1102
  972MOL0     H31155   3.709   6.619   2.328  2.4652 -0.3894 -2.5227
  972MOL0     H31156   3.868   6.674   2.307  0.5038 -1.0420 -0.2638
  972MOL0     H31157   3.687   6.889   2.422  1.1764  2.0525  1.5375
  972MOL0     H31158   3.851   6.848   2.461  0.0678 -0.0388 -1.1454
  972MOL0     H31159   3.758   6.622   2.561  1.7700  0.2466  1.5042
  972MOL0     H31160   3.611   6.725   2.587 -0.0943 -0.4874 -0.6733
  972MOL0     H31161   3.755   6.910   2.680 -1.8387  0.3804 -2.3403
  972MOL0     H31162   3.721   6.775   2.789 -2.3458 -0.0756 -0.2958
  972MOL0     H31163   3.965   6.691   2.752 -1.9426 -0.5607 -0.1012
  972MOL0     H31164   3.997   6.815   2.634 -1.8027 -1.2076 -2.3626
  972MOL0     H31165   3.944   6.832   2.933  1.8828  1.5270  1.6746
  972MOL0     H31166   4.094   6.840   2.850 -0.2089 -0.1812 -1.2320
  972MOL0     H31167   3.872   7.047   2.815 -0.2397 -0.5139 -0.5746
  972MOL0     H31168   4.042   7.054   2.759  0.2276  3.5321  0.7792
  972MOL0     H31169   3.927   7.177   2.966 -3.1431 -4.0082 -1.1346
  972MOL0     H31170   3.996   7.040   3.045 -2.1654 -1.6076 -1.7378
  972MOL0     H31171   4.296   7.011   2.884  2.6249  2.3436 -4.0792
  972MOL0     H31172   4.532   7.194   3.092 -1.1562  4.2156  0.6687
  972MOL0     H31173   4.528   7.085   2.950  1.1315  0.9916 -0.2850
  972MOL0     H31174   4.545   7.308   2.798  1.0491  0.6374 -0.9641
  972MOL0     H31175   4.580   7.382   2.952 -3.5503  1.4186 -3.1064
  972MOL0     H31176   4.747   7.228   2.771  3.2643 -0.9401  1.0195
  972MOL0     H31177   4.751   7.148   2.926 -2.3149 -0.9378  0.7210
  972MOL0     H31178   4.921   7.313   2.852  0.8248  0.6644  0.2657
  972MOL0     H31179   4.857   7.356   3.011 -1.4576 -0.7327 -0.3369
  972MOL0     H31180   4.690   7.702   2.780  1.6786  2.6102 -2.1922
  972MOL0     H31181   4.611   7.755   2.552  1.6997  2.0490  1.3000
  972MOL0     H31182   4.718   7.953   2.183 -0.7727 -0.7141  3.7609
  972MOL0     H31183   4.631   8.036   1.939 -2.1565 -0.4847 -1.0555
  972MOL0     H31184   4.563   7.851   1.652 -0.3870  1.6380 -0.2235
  972MOL0     H31185   4.434   7.735   1.698  2.9069 -0.0963 -0.2303
  972MOL0     H31186   4.423   8.000   1.552 -2.9168  1.4633 -0.2670
  972MOL0     H31187   4.384   7.850   1.478  2.9908  0.4464  0.2964
  972MOL0     H31188   4.222   8.001   1.688  0.8631  0.5885 -0.0265
  972MOL0     H31189   4.163   7.953   1.534  2.0306  1.3970 -1.6014
  972MOL0     H31190   4.228   7.782   1.778 -0.9678  0.5780  0.7775
  972MOL0     H31191   4.206   7.717   1.614 -0.8900 -0.3229 -0.2734
  972MOL0     H31192   3.993   7.679   1.736  0.7689 -0.0229 -2.6743
  972MOL0     H31193   3.978   7.826   1.638  1.3338  2.0880 -0.0148
  972MOL0     H31194   4.067   7.836   1.939 -2.0387  0.5962  1.8627
  972MOL0     H31195   4.036   7.976   1.849 -0.9711 -0.0601  1.0794
  972MOL0     H31196   3.830   7.766   1.947 -0.4732  1.7676  1.3705
  972MOL0     H31197   3.789   7.876   1.816 -0.4459  2.7394  0.7934
  972MOL0     H31198   3.717   7.949   2.047  0.5653  1.5149  4.5217
  972MOL0     H31199   3.893   7.946   2.088  2.1599 -2.6290 -2.5969
  972MOL0     H31200   4.389   7.694   1.918 -1.9703  3.4952  1.3771
  972MOL0     H31201   4.462   7.623   2.162  1.8908 -2.1543 -2.3140
  972MOL0     H31202   4.891   7.437   2.422 -1.1418  0.8970 -1.5280
  972MOL0     H31203   4.921   7.369   2.649  0.4139 -0.8821 -1.1875
  972MOL0     H31204   3.940   6.632   2.077  0.0626 -0.1310  1.4452
  972MOL0     H31205   3.893   6.531   1.855 -0.5114  2.4192 -0.7874
  972MOL0     H31206   3.842   6.451   1.543  0.0925  0.1443 -0.2876
  972MOL0     H31207   3.899   6.351   1.323  1.8841 -0.9384  3.2740
  972MOL0     H31208   3.910   6.261   1.079 -0.1361 -0.6783 -0.4254
  972MOL0     H31209   3.748   6.340   1.098 -1.0497 -1.4174  2.1251
  972MOL0     H31210   3.647   6.173   0.958  0.3771 -1.1114 -1.8483
  972MOL0     H31211   3.791   6.071   0.953 -1.1542 -0.6701 -0.1748
  972MOL0     H31212   3.927   6.234   0.837  0.3977 -0.0956 -1.1937
  972MOL0     H31213   3.790   6.355   0.850  1.1217  0.4305  1.0975
  972MOL0     H31214   3.748   6.079   0.711 -0.5817 -0.0134 -3.5516
  972MOL0     H31215   3.669   6.222   0.695 -0.3680 -1.1110  1.8984
  972MOL0     H31216   4.004   6.240   0.427 -1.2054  2.1523 -0.5012
  972MOL0     H31217   3.570   6.121   1.315  0.6575 -0.7468 -0.4062
  972MOL0     H31218   3.392   6.102   1.528 -1.2231  1.3658 -0.4682
  972MOL0     H31219   3.468   6.110   1.683 -0.7898  2.5718  1.6642
  972MOL0     H31220   3.396   6.253   1.598 -0.2689  0.9210 -0.6773
  973MOL0     O31221   9.875   2.610   8.926  0.4146  0.1543 -0.6522
  973MOL0     C31222   9.785   2.603   8.838 -1.3184 -0.3105  0.0596
  973MOL0     O31223   9.741   2.714   8.752  0.1597 -0.1787 -0.2976
  973MOL0     C31224   9.793   2.836   8.788  0.1290  0.8505  0.8975
  973MOL0     C31225   9.736   2.911   8.885 -0.1722 -0.6481  0.2442
  973MOL0     C31226   9.797   3.030   8.928  0.5948  0.1979  0.9566
  973MOL0     C31227   9.913   3.081   8.864  0.1593 -1.0684 -0.4444
  973MOL0     O31228   9.961   3.205   8.911  0.0602  0.9271 -0.2605
  973MOL0     C31229  10.059   3.274   8.834  0.5406  0.8393 -0.5476
  973MOL0     C31230  10.095   3.416   8.887  0.2372 -0.4301 -0.1320
  973MOL0     C31231   9.974   3.505   8.888  0.5961 -0.0696 -0.0428
  973MOL0     C31232  10.006   3.642   8.947  1.1271 -1.0032 -0.5892
  973MOL0     C31233   9.907   3.753   8.900 -0.0435  0.2881  1.2486
  973MOL0     C31234   9.764   3.759   8.957  0.3944  0.0062 -0.5617
  973MOL0     C31235   9.675   3.889   8.915 -0.8657 -0.2375 -0.2027
  973MOL0     C31236   9.533   3.879   8.954  0.0394 -0.2604  0.1167
  973MOL0     N31237   9.457   3.994   8.910  0.2596 -0.4228 -0.9127
  973MOL0     C31238   9.373   3.981   8.806 -0.2865  0.4778  0.1918
  973MOL0     C31239   9.315   4.101   8.801 -0.3618 -0.4065  0.4171
  973MOL0     C31240   9.209   4.146   8.706  0.4617 -0.2019 -0.3691
  973MOL0     C31241   9.266   4.260   8.622 -0.1073  0.3779  0.6243
  973MOL0     C31242   9.166   4.358   8.555 -0.0012 -0.3183 -0.5169
  973MOL0     C31243   9.059   4.305   8.456  0.6819  0.0665  0.1597
  973MOL0     O31244   9.116   4.228   8.349  0.0237 -0.3966 -0.5171
  973MOL0     C31245   9.090   4.254   8.214  0.3720  0.2213  0.2810
  973MOL0     C31246   8.965   4.298   8.169 -0.0313  0.0663  0.9314
  973MOL0     C31247   8.933   4.286   8.028 -0.7840 -0.2373 -0.2964
  973MOL0     C31248   9.013   4.227   7.929  0.3406 -0.0955 -0.2654
  973MOL0     C31249   8.978   4.209   7.792  0.7480 -0.6136  0.6224
  973MOL0     O31250   8.864   4.265   7.749  0.0756 -0.3335 -0.4033
  973MOL0     C31251   8.846   4.275   7.615  1.0130  0.6202 -0.0006
  973MOL0     C31252   8.769   4.181   7.550  0.2051  0.1159 -0.6410
  973MOL0     C31253   8.764   4.177   7.414 -0.1587  0.1056  0.1017
  973MOL0     C31254   8.840   4.272   7.333 -0.1531 -0.1764 -0.3851
  973MOL0     O31255   8.853   4.286   7.196 -0.0019  0.1284  0.5120
  973MOL0     C31256   8.779   4.209   7.102 -0.2759  0.8578 -0.1812
  973MOL0     C31257   8.782   4.275   6.962 -0.4015  0.4607 -0.0423
  973MOL0     C31258   8.704   4.408   6.960 -0.4001 -0.5581  0.8375
  973MOL0     C31259   8.765   4.504   6.848  0.4833  0.3099  0.0269
  973MOL0     C31260   8.672   4.618   6.820  0.0308  0.5721  0.8583
  973MOL0     C31261   8.720   4.741   6.888 -0.0892 -0.2480 -0.1574
  973MOL0     C31262   8.634   4.867   6.864 -0.8625  0.7191 -0.3962
  973MOL0     C31263   8.486   4.837   6.891  0.1469  0.0606  0.6452
  973MOL0    Cl31264   8.392   4.995   6.881 -0.5227 -0.2112  0.0385
  973MOL0     C31265   8.892   4.377   7.406  0.3248  0.1711 -0.5961
  973MOL0     C31266   8.897   4.379   7.541  0.0786  0.8445 -0.5107
  973MOL0     O31267   9.050   4.125   7.727 -0.2333 -0.4935 -0.3583
  973MOL0     C31268   9.137   4.196   7.986 -0.1021  0.1775  0.1718
  973MOL0     C31269   9.168   4.199   8.116 -0.4483 -1.7372 -0.5757
  973MOL0     N31270   9.356   4.181   8.907 -0.0703  0.0322 -1.1634
  973MOL0     N31271   9.427   4.105   8.982 -0.7896 -0.5383  0.2217
  973MOL0     C31272   9.972   3.002   8.765  0.2446 -0.5014  0.7398
  973MOL0     C31273   9.909   2.885   8.725  1.3645  0.3288 -0.4228
  973MOL0     C31274   9.708   2.481   8.820 -1.0134  0.2103 -0.2619
  973MOL0     C31275   9.698   2.431   8.692  0.3404  0.5899  0.5960
  973MOL0     C31276   9.634   2.315   8.666  0.2305  0.1685  0.3247
  973MOL0     C31277   9.561   2.245   8.762  1.0243  0.0013 -0.0796
  973MOL0     O31278   9.504   2.130   8.719  0.1245  0.1094  0.1287
  973MOL0     C31279   9.373   2.104   8.769 -0.0719  0.7678  0.6315
  973MOL0     C31280   9.309   1.973   8.711 -0.3005 -0.1951 -0.6180
  973MOL0     C31281   9.388   1.852   8.768 -0.1048  0.6219  0.3417
  973MOL0     C31282   9.330   1.721   8.711 -0.1735  0.1906  0.0304
  973MOL0     C31283   9.436   1.619   8.731  0.5340  0.1235  0.2770
  973MOL0     C31284   9.517   1.544   8.763 -0.8693  0.4692 -0.1944
  973MOL0     C31285   9.565   2.290   8.889  0.5587 -0.3199 -0.1480
  973MOL0     C31286   9.636   2.415   8.919 -0.0402  0.8812  0.0752
  973MOL0     C31287   9.636   2.437   9.060  0.6787 -0.6357  0.6713
  973MOL0     H31288   9.643   2.886   8.935  0.6819  1.1423  2.9618
  973MOL0     H31289   9.745   3.092   8.999  0.2584 -0.9581  1.7504
  973MOL0     H31290  10.156   3.226   8.844  0.7256  1.1463 -0.8619
  973MOL0     H31291  10.024   3.286   8.731  1.3245  2.9710 -0.6112
  973MOL0     H31292  10.175   3.463   8.829 -0.1658 -1.2258 -1.3775
  973MOL0     H31293  10.118   3.398   8.992  2.8769 -0.8414 -0.7129
  973MOL0     H31294   9.900   3.448   8.945  2.3711  0.3826  2.8587
  973MOL0     H31295   9.939   3.515   8.784 -1.8326  0.0359  0.7229
  973MOL0     H31296  10.000   3.622   9.054 -1.9339  0.8988 -0.2976
  973MOL0     H31297  10.103   3.679   8.912 -0.7126  2.0938 -2.9049
  973MOL0     H31298   9.946   3.850   8.934  0.6347  0.6434 -0.4079
  973MOL0     H31299   9.899   3.745   8.791 -0.2308 -1.3805  1.3720
  973MOL0     H31300   9.699   3.676   8.925 -0.0451 -0.8889  2.3810
  973MOL0     H31301   9.766   3.764   9.066  3.8424 -1.6023 -0.4176
  973MOL0     H31302   9.684   3.897   8.806  1.9134  1.2358  0.0400
  973MOL0     H31303   9.715   3.986   8.945  0.8085 -0.4303 -1.6197
  973MOL0     H31304   9.493   3.790   8.904  4.3444 -1.8392 -0.9142
  973MOL0     H31305   9.535   3.877   9.063 -1.8238 -0.6574  0.1798
  973MOL0     H31306   9.361   3.889   8.749  1.5272 -2.0857  3.6033
  973MOL0     H31307   9.181   4.070   8.633 -0.4214  0.0360 -0.2877
  973MOL0     H31308   9.121   4.179   8.761  1.7423  1.5359  0.7385
  973MOL0     H31309   9.324   4.328   8.685  0.9899  0.7633 -0.7239
  973MOL0     H31310   9.330   4.232   8.537  0.0334  2.1157  0.1085
  973MOL0     H31311   9.220   4.441   8.509  0.7504 -0.8492 -0.6059
  973MOL0     H31312   9.097   4.414   8.619 -1.7723 -0.3006 -2.3173
  973MOL0     H31313   8.991   4.386   8.429 -1.9256 -2.2322 -0.6298
  973MOL0     H31314   8.998   4.228   8.504  2.2056 -1.7126 -0.5956
  973MOL0     H31315   8.883   4.329   8.233 -0.1871  1.1193  0.2538
  973MOL0     H31316   8.833   4.311   7.994 -0.8350 -1.0071 -0.7303
  973MOL0     H31317   8.711   4.114   7.612 -1.4731  1.1518 -0.9974
  973MOL0     H31318   8.713   4.098   7.359  0.9011 -0.2369 -0.4149
  973MOL0     H31319   8.814   4.105   7.101 -0.3390  0.8420 -0.9226
  973MOL0     H31320   8.676   4.188   7.133  0.7046 -1.7587  1.7188
  973MOL0     H31321   8.889   4.275   6.939 -0.5403  0.6631 -0.7129
  973MOL0     H31322   8.747   4.215   6.877  0.4841  0.4409 -0.3993
  973MOL0     H31323   8.605   4.369   6.933  0.3108 -3.0534  1.5988
  973MOL0     H31324   8.695   4.459   7.057 -2.6291 -1.2997  1.0751
  973MOL0     H31325   8.789   4.442   6.761  1.6985 -0.1490  0.6642
  973MOL0     H31326   8.862   4.545   6.876  0.0830  1.2623  0.0378
  973MOL0     H31327   8.576   4.601   6.870  0.1095  1.0848  1.1886
  973MOL0     H31328   8.657   4.637   6.713  0.9212 -1.6569  0.2722
  973MOL0     H31329   8.715   4.726   6.997 -1.7817 -1.2405 -0.3267
  973MOL0     H31330   8.825   4.748   6.860  0.7997  3.2799  3.1479
  973MOL0     H31331   8.658   4.913   6.768  2.6679 -0.8477 -0.4068
  973MOL0     H31332   8.679   4.935   6.937  0.7208  1.0948 -1.6554
  973MOL0     H31333   8.452   4.765   6.815 -4.1721  1.1969  1.2037
  973MOL0     H31334   8.471   4.784   6.986 -3.9056 -0.1206  0.0988
  973MOL0     H31335   8.923   4.467   7.353  0.9270 -0.5665 -1.5203
  973MOL0     H31336   8.960   4.455   7.584  0.4311  2.2035 -3.2017
  973MOL0     H31337   9.203   4.179   7.902  0.3997  1.0671  0.3746
  973MOL0     H31338   9.261   4.149   8.142  2.2969  1.2383 -3.6083
  973MOL0     H31339  10.059   3.028   8.704  0.9535  1.1710  2.3784
  973MOL0     H31340   9.967   2.839   8.645  2.1731  0.6852 -0.0508
  973MOL0     H31341   9.733   2.483   8.604 -4.4275 -0.4550 -2.3228
  973MOL0     H31342   9.634   2.271   8.567 -2.9204 -1.8312  1.0453
  973MOL0     H31343   9.314   2.189   8.733 -2.1360 -1.8993 -2.8949
  973MOL0     H31344   9.376   2.088   8.878 -0.6131  0.1643  0.5644
  973MOL0     H31345   9.313   1.978   8.602  2.2043  0.2346 -0.5696
  973MOL0     H31346   9.206   1.963   8.745  0.0205  0.6131  0.6985
  973MOL0     H31347   9.384   1.831   8.875 -2.8933 -4.3429 -0.4068
  973MOL0     H31348   9.494   1.865   8.747 -0.4496  0.9998 -1.3367
  973MOL0     H31349   9.236   1.701   8.764 -1.4226 -2.2797 -2.8735
  973MOL0     H31350   9.315   1.734   8.604  4.3862  1.4572 -0.6475
  973MOL0     H31351   9.595   1.471   8.764 -0.3293  0.9398  3.3035
  973MOL0     H31352   9.507   2.238   8.964 -1.1616 -1.3193 -2.0758
  973MOL0     H31353   9.719   2.382   9.105  2.0876  1.7279  1.1326
  973MOL0     H31354   9.647   2.541   9.093  1.1783 -1.1104  2.0631
  973MOL0     H31355   9.535   2.409   9.092 -2.2863  5.0226 -2.2066
  974MOL0     O31356   0.778   0.140  11.272  0.4160  0.1975  0.2152
  974MOL0     C31357   0.836   0.232  11.211  0.5238 -0.3693  0.1148
  974MOL0     O31358   0.778   0.302  11.113 -0.3001  0.9690  0.1707
  974MOL0     C31359   0.651   0.269  11.088  0.0230  1.0131  0.4137
  974MOL0     C31360   0.629   0.191  10.973  1.2875 -0.3426  0.2730
  974MOL0     C31361   0.498   0.173  10.929  0.0710 -0.4762  0.7287
  974MOL0     C31362   0.391   0.222  11.000 -0.2759 -0.1654  0.4942
  974MOL0     O31363   0.260   0.188  10.964 -0.2529 -0.3575  0.2396
  974MOL0     C31364   0.157   0.269  11.021  0.0854 -0.1002 -0.4699
  974MOL0     C31365   0.043   0.234  10.927  0.3246  0.3871 -0.1115
  974MOL0     C31366  -0.085   0.322  10.966  0.3006 -0.2979  0.4484
  974MOL0     C31367  -0.198   0.290  10.870 -0.7579  0.0655 -0.6421
  974MOL0     C31368  -0.299   0.404  10.865 -0.3579  0.1264 -0.2107
  974MOL0     C31369  -0.384   0.424  10.987 -0.1840  0.3734  0.7408
  974MOL0     C31370  -0.485   0.542  10.975 -0.7569 -0.1754  0.4671
  974MOL0     C31371  -0.544   0.573  11.106 -0.8246  0.4388  0.0013
  974MOL0     N31372  -0.618   0.696  11.117  0.1359 -0.3417  0.4653
  974MOL0     C31373  -0.705   0.726  11.221  0.0821  0.2317 -0.1593
  974MOL0     C31374  -0.744   0.854  11.204  0.2556 -0.8550  0.2209
  974MOL0     C31375  -0.837   0.944  11.294 -0.1887 -0.2390 -0.8421
  974MOL0     C31376  -0.986   0.919  11.249  1.0464  0.2451  0.0343
  974MOL0     C31377  -1.091   1.002  11.335 -0.1113  0.3572 -0.1352
  974MOL0     C31378  -1.090   1.149  11.312  0.0061 -0.0364 -0.6596
  974MOL0     O31379  -1.160   1.223  11.414 -0.4342 -0.5453  0.2286
  974MOL0     C31380  -1.168   1.358  11.392  0.0200 -0.9399  0.2140
  974MOL0     C31381  -1.172   1.424  11.265  0.1088  1.2638  0.0567
  974MOL0     C31382  -1.180   1.562  11.244  1.2531  0.2773 -0.0274
  974MOL0     C31383  -1.182   1.645  11.363  1.0859  0.9140 -0.3829
  974MOL0     C31384  -1.189   1.803  11.358 -1.2071  0.3975  0.0908
  974MOL0     O31385  -1.125   1.869  11.462 -0.9379  0.5393  0.4689
  974MOL0     C31386  -1.130   1.999  11.483 -0.0995 -0.8182 -0.5936
  974MOL0     C31387  -1.134   2.086  11.372  0.7838  0.0149  0.4931
  974MOL0     C31388  -1.155   2.222  11.385  0.4389 -0.9095 -0.2073
  974MOL0     C31389  -1.160   2.281  11.516 -0.0637  0.2509  0.8491
  974MOL0     O31390  -1.190   2.412  11.543 -0.7397 -0.2934 -0.6698
  974MOL0     C31391  -1.201   2.496  11.429  0.1487  0.1024  0.9710
  974MOL0     C31392  -1.240   2.643  11.466 -0.2984  0.6451  0.1431
  974MOL0     C31393  -1.392   2.659  11.480 -0.4974  0.4295 -1.1565
  974MOL0     C31394  -1.416   2.783  11.576 -0.0406  0.0210  0.3750
  974MOL0     C31395  -1.562   2.820  11.602  0.4356  0.2223  0.2622
  974MOL0     C31396  -1.570   2.952  11.670 -0.1404 -0.2782 -1.1553
  974MOL0     C31397  -1.686   2.955  11.772 -0.3048 -0.3246  0.4727
  974MOL0     C31398  -1.824   2.987  11.711  0.5090 -0.5529  1.1984
  974MOL0    Cl31399  -1.887   2.885  11.582  0.6167 -0.5479 -0.3863
  974MOL0     C31400  -1.133   2.195  11.621 -0.4138 -0.0970 -0.1047
  974MOL0     C31401  -1.127   2.055  11.611  0.4711  0.9007 -0.0147
  974MOL0     O31402  -1.248   1.852  11.265 -0.2659  0.5677  0.0036
  974MOL0     C31403  -1.193   1.590  11.491 -0.5305 -0.0903  0.0614
  974MOL0     C31404  -1.181   1.450  11.498 -0.8035  0.0501  1.0369
  974MOL0     N31405  -0.688   0.896  11.085 -0.3960  0.4450  0.3303
  974MOL0     N31406  -0.617   0.804  11.037 -0.5074 -0.7735  0.3767
  974MOL0     C31407   0.416   0.291  11.110  0.5893  0.1966 -0.9393
  974MOL0     C31408   0.544   0.321  11.157  0.5882  0.2353 -0.6601
  974MOL0     C31409   0.980   0.266  11.238  0.6295  1.0148  0.2879
  974MOL0     C31410   1.057   0.320  11.138 -1.0938 -0.0524  0.1368
  974MOL0     C31411   1.195   0.349  11.156  0.5791 -0.0747 -0.0439
  974MOL0     C31412   1.264   0.323  11.274  0.0976  0.7421 -0.3271
  974MOL0     O31413   1.390   0.362  11.280 -0.9784 -0.3647  0.3346
  974MOL0     C31414   1.449   0.359  11.412 -0.0692  0.7549  0.2104
  974MOL0     C31415   1.581   0.418  11.399  0.1554 -0.3639 -0.0837
  974MOL0     C31416   1.602   0.558  11.336 -0.3033  0.4251 -0.7584
  974MOL0     C31417   1.754   0.600  11.336  0.0758 -0.1197  0.3858
  974MOL0     C31418   1.783   0.698  11.233 -0.1852  0.4488  1.1689
  974MOL0     C31419   1.812   0.780  11.148  0.3263 -0.5561  0.6205
  974MOL0     C31420   1.183   0.262  11.376 -0.9583 -0.3888 -0.6992
  974MOL0     C31421   1.046   0.231  11.357  0.1117  0.8957 -0.2389
  974MOL0     C31422   0.979   0.181  11.481 -0.6447  0.5933  0.1337
  974MOL0     H31423   0.705   0.153  10.905 -0.1249 -0.8382 -1.0824
  974MOL0     H31424   0.492   0.104  10.846  0.2364  2.8590 -2.3010
  974MOL0     H31425   0.123   0.244  11.121 -1.9005  3.1282 -0.1725
  974MOL0     H31426   0.185   0.375  11.012  0.2743  0.2788  3.3298
  974MOL0     H31427   0.019   0.129  10.945 -3.3502  0.0599 -4.9949
  974MOL0     H31428   0.070   0.244  10.822 -1.0313  0.1736 -0.4882
  974MOL0     H31429  -0.076   0.431  10.975 -1.1561 -0.1871  0.9205
  974MOL0     H31430  -0.128   0.279  11.056  2.1499 -0.1155  1.4659
  974MOL0     H31431  -0.159   0.271  10.770 -1.2039  1.3309 -1.0796
  974MOL0     H31432  -0.248   0.198  10.901 -3.5147  1.5464 -0.3167
  974MOL0     H31433  -0.247   0.495  10.833  1.9061 -2.0383 -3.2233
  974MOL0     H31434  -0.364   0.368  10.786 -0.5552 -1.7905  0.7723
  974MOL0     H31435  -0.424   0.327  11.018 -3.6461  1.2528 -0.5301
  974MOL0     H31436  -0.325   0.448  11.076 -0.9629 -1.4304  1.8061
  974MOL0     H31437  -0.565   0.518  10.905  0.9001  2.1707 -2.5081
  974MOL0     H31438  -0.437   0.633  10.936  1.4638 -1.1633  0.7371
  974MOL0     H31439  -0.601   0.486  11.141  1.2284 -1.8219 -1.8316
  974MOL0     H31440  -0.462   0.591  11.177  0.5269 -1.6774 -0.9172
  974MOL0     H31441  -0.722   0.663  11.308  0.7200  0.9308  0.4920
  974MOL0     H31442  -0.828   0.918  11.400  0.6172  0.9237 -0.6039
  974MOL0     H31443  -0.806   1.049  11.288 -1.2264  0.1146 -0.2874
  974MOL0     H31444  -0.999   0.949  11.144 -0.8165 -2.1112 -0.5067
  974MOL0     H31445  -1.008   0.812  11.249  4.1142 -0.5109 -2.1638
  974MOL0     H31446  -1.051   0.988  11.436  2.1071 -0.2823 -1.0407
  974MOL0     H31447  -1.197   0.976  11.334 -0.4019  1.1127  2.7905
  974MOL0     H31448  -1.148   1.161  11.220  0.2829 -2.3061 -1.2025
  974MOL0     H31449  -0.987   1.181  11.294  1.7918 -1.9232  4.4458
  974MOL0     H31450  -1.178   1.363  11.175  1.2705  1.8539 -0.4527
  974MOL0     H31451  -1.189   1.608  11.146 -2.8560  0.9520  0.5033
  974MOL0     H31452  -1.114   2.052  11.271  2.4758  0.8088  0.5198
  974MOL0     H31453  -1.153   2.277  11.292  2.3391 -0.1702  0.2213
  974MOL0     H31454  -1.112   2.483  11.367  0.6201 -0.4842  1.7482
  974MOL0     H31455  -1.271   2.461  11.353  0.5873 -1.8079  1.4015
  974MOL0     H31456  -1.192   2.666  11.561 -0.2762  2.2243 -0.2284
  974MOL0     H31457  -1.204   2.705  11.383 -0.8894  0.3926 -0.3100
  974MOL0     H31458  -1.429   2.685  11.380 -0.5740 -0.2662 -1.3152
  974MOL0     H31459  -1.426   2.561  11.517  0.9604 -0.0809 -1.1078
  974MOL0     H31460  -1.367   2.871  11.534  2.4786 -1.0463  0.9039
  974MOL0     H31461  -1.368   2.769  11.674 -1.2040 -1.3100  0.7976
  974MOL0     H31462  -1.615   2.738  11.653 -3.0870  0.3331 -2.7695
  974MOL0     H31463  -1.613   2.832  11.506 -1.1699 -0.6570  0.9552
  974MOL0     H31464  -1.487   2.983  11.733 -2.0787  0.5276  1.1759
  974MOL0     H31465  -1.581   3.028  11.592 -2.8085  1.9552  1.1758
  974MOL0     H31466  -1.673   3.038  11.843  0.6339  2.0356 -2.2354
  974MOL0     H31467  -1.678   2.859  11.823  0.3873 -0.1197  0.7775
  974MOL0     H31468  -1.903   3.003  11.785 -1.4759 -0.5628 -0.8265
  974MOL0     H31469  -1.817   3.085  11.663  0.9190 -0.9063  0.5181
  974MOL0     H31470  -1.124   2.242  11.719 -0.8858  1.4504 -0.7637
  974MOL0     H31471  -1.109   1.990  11.696 -2.7300 -0.9888 -0.6118
  974MOL0     H31472  -1.201   1.656  11.576  0.6810  2.0687 -1.4034
  974MOL0     H31473  -1.182   1.396  11.593  2.1279 -0.1348  1.0529
  974MOL0     H31474   0.343   0.338  11.174  0.5147 -2.5515  1.2175
  974MOL0     H31475   0.556   0.369  11.254 -1.2583 -1.4896  0.4878
  974MOL0     H31476   1.019   0.344  11.039 -0.2899  0.6680 -0.0131
  974MOL0     H31477   1.255   0.386  11.073  0.6147 -1.9058 -0.8903
  974MOL0     H31478   1.459   0.257  11.448  3.4673  1.2241  0.8447
  974MOL0     H31479   1.384   0.413  11.482  2.7409  2.7519  1.4553
  974MOL0     H31480   1.657   0.348  11.363 -0.2689 -0.3000 -1.1268
  974MOL0     H31481   1.613   0.437  11.502  1.6676 -0.3833 -0.5248
  974MOL0     H31482   1.547   0.632  11.395 -1.9524  0.0085 -1.7041
  974MOL0     H31483   1.552   0.557  11.238 -0.8951 -0.1036 -0.4592
  974MOL0     H31484   1.773   0.644  11.434 -2.6760 -0.1161  1.0117
  974MOL0     H31485   1.821   0.515  11.319  1.6459  1.1913 -0.1748
  974MOL0     H31486   1.824   0.849  11.067  1.0295 -0.0902  1.1136
  974MOL0     H31487   1.236   0.229  11.465  0.0098  1.3912 -0.5765
  974MOL0     H31488   1.038   0.197  11.572  4.1635 -0.2206 -2.5386
  974MOL0     H31489   0.886   0.238  11.471 -0.0742  1.2427 -1.7810
  974MOL0     H31490   0.969   0.072  11.478  2.7694  0.1926 -2.5348
  975MOL0     O31491   2.447   4.792   2.144  0.6231  0.1806  0.2375
  975MOL0     C31492   2.518   4.853   2.057  0.7277  0.2284 -0.8839
  975MOL0     O31493   2.652   4.848   2.048  0.2502 -0.1598 -0.0255
  975MOL0     C31494   2.713   4.779   2.146  1.1881  0.9457 -0.7784
  975MOL0     C31495   2.803   4.844   2.222 -0.1960  0.9707  0.5264
  975MOL0     C31496   2.865   4.776   2.333  0.5256 -0.4404 -0.4420
  975MOL0     C31497   2.840   4.638   2.363 -0.5977 -0.2107 -0.1488
  975MOL0     O31498   2.911   4.593   2.471 -0.5722  0.7164 -0.0269
  975MOL0     C31499   2.898   4.457   2.515 -0.8366  0.1436 -0.1436
  975MOL0     C31500   3.004   4.452   2.625  0.1948  0.5618  0.5126
  975MOL0     C31501   3.133   4.513   2.605 -0.2275  0.1247  0.5114
  975MOL0     C31502   3.162   4.631   2.703  0.1371 -0.0216 -1.1343
  975MOL0     C31503   3.310   4.669   2.678  0.7681 -0.1965  0.5670
  975MOL0     C31504   3.401   4.559   2.741 -1.1540  0.1091  0.4368
  975MOL0     C31505   3.539   4.629   2.759  0.4668  0.7908  0.4197
  975MOL0     C31506   3.644   4.516   2.798  0.3263 -0.2491  0.3961
  975MOL0     N31507   3.783   4.569   2.832  0.9578  1.5049 -0.6957
  975MOL0     C31508   3.817   4.637   2.939 -0.3730 -0.2946  0.1062
  975MOL0     C31509   3.939   4.693   2.912 -0.5958  0.3153  0.8314
  975MOL0     C31510   4.012   4.786   3.001 -0.2588  0.3578 -0.6830
  975MOL0     C31511   3.989   4.933   2.974 -1.0783 -0.0367 -0.9038
  975MOL0     C31512   4.045   4.987   2.836 -0.3083  0.4716 -0.5422
  975MOL0     C31513   4.192   4.957   2.797 -0.1160 -0.0923 -0.2920
  975MOL0     O31514   4.270   5.006   2.908 -0.3448 -0.0871 -0.0118
  975MOL0     C31515   4.387   5.078   2.875 -0.1449  0.0427  0.3976
  975MOL0     C31516   4.426   5.190   2.950 -0.3457  0.1886 -0.4404
  975MOL0     C31517   4.552   5.252   2.927 -0.6623  0.2605 -0.1417
  975MOL0     C31518   4.649   5.199   2.837  0.5241 -0.6064 -1.1111
  975MOL0     C31519   4.777   5.278   2.812 -0.5584 -0.9294 -0.0107
  975MOL0     O31520   4.839   5.240   2.686  0.1376 -0.2472  0.2835
  975MOL0     C31521   4.936   5.328   2.643  0.3507  0.0671 -0.5320
  975MOL0     C31522   5.060   5.292   2.609 -0.6776  0.3238 -0.2907
  975MOL0     C31523   5.144   5.374   2.531 -0.0120 -0.4188  0.7083
  975MOL0     C31524   5.102   5.501   2.492  0.6768 -0.1846  0.2788
  975MOL0     O31525   5.172   5.580   2.406  0.2469  0.1195  0.8171
  975MOL0     C31526   5.312   5.583   2.428  0.1668 -0.5765  0.5893
  975MOL0     C31527   5.383   5.658   2.321 -0.0440 -0.4413 -0.5087
  975MOL0     C31528   5.533   5.623   2.306 -0.2104 -0.2641 -0.1379
  975MOL0     C31529   5.616   5.674   2.431 -0.8936  0.2109 -0.3793
  975MOL0     C31530   5.752   5.721   2.384  0.0906  0.4613  0.9709
  975MOL0     C31531   5.847   5.767   2.497  0.9895 -0.5127 -0.3254
  975MOL0     C31532   5.987   5.824   2.456 -0.4865 -0.7311 -0.2809
  975MOL0     C31533   5.986   5.927   2.345  0.7106 -0.2011  0.1270
  975MOL0    Cl31534   5.860   6.051   2.384  0.0073 -0.6334 -0.2947
  975MOL0     C31535   4.980   5.548   2.544  0.2062  0.6149 -0.0687
  975MOL0     C31536   4.897   5.461   2.616 -0.9208  0.2766 -0.9946
  975MOL0     O31537   4.821   5.366   2.891  0.0966  0.1743 -1.0340
  975MOL0     C31538   4.613   5.080   2.769  0.6265 -0.6876 -1.4975
  975MOL0     C31539   4.484   5.027   2.788  0.0298  0.0932  0.0771
  975MOL0     N31540   3.982   4.641   2.790 -0.5403 -0.9757 -0.4514
  975MOL0     N31541   3.887   4.557   2.750 -0.2136  0.0515 -0.1063
  975MOL0     C31542   2.752   4.572   2.283  0.4307 -0.1147  0.4006
  975MOL0     C31543   2.683   4.641   2.172 -0.4178 -0.2450 -0.3388
  975MOL0     C31544   2.441   4.938   1.961  0.6169  0.9683 -0.8905
  975MOL0     C31545   2.506   5.051   1.914  0.1994 -0.6035  0.0750
  975MOL0     C31546   2.452   5.135   1.814 -0.6287 -0.1432 -0.5110
  975MOL0     C31547   2.333   5.095   1.752 -0.7036 -0.8929 -0.7448
  975MOL0     O31548   2.292   5.181   1.650  0.0932 -0.0067 -0.5897
  975MOL0     C31549   2.158   5.168   1.616  0.2452  0.5859 -0.3992
  975MOL0     C31550   2.113   5.291   1.537 -0.0008  0.4058 -0.2682
  975MOL0     C31551   2.075   5.417   1.622  0.6413  0.8037 -0.5495
  975MOL0     C31552   1.964   5.394   1.723 -1.0442  0.0154 -0.2872
  975MOL0     C31553   1.829   5.380   1.658 -0.8573  1.1428  0.4478
  975MOL0     C31554   1.717   5.367   1.605  0.1065  0.3617 -0.0517
  975MOL0     C31555   2.257   4.985   1.807 -0.1279 -0.4224  0.5893
  975MOL0     C31556   2.314   4.904   1.906 -0.5339 -0.3618  1.0155
  975MOL0     C31557   2.239   4.780   1.945  0.8506  0.3026 -0.2055
  975MOL0     H31558   2.829   4.947   2.198  3.3345 -0.2026 -1.3531
  975MOL0     H31559   2.939   4.827   2.394 -0.2383  0.4368 -0.2210
  975MOL0     H31560   2.795   4.435   2.543 -1.5844  3.1549 -0.1366
  975MOL0     H31561   2.933   4.392   2.434  4.0355  1.7371  0.3707
  975MOL0     H31562   3.021   4.349   2.657  1.6998  0.0126 -1.8072
  975MOL0     H31563   2.950   4.501   2.707 -0.4357  2.5582 -1.0236
  975MOL0     H31564   3.150   4.550   2.503  0.6445 -4.6304 -1.3360
  975MOL0     H31565   3.208   4.434   2.612  0.3121  0.3922 -1.6291
  975MOL0     H31566   3.089   4.712   2.711  1.4371  1.2496 -1.6754
  975MOL0     H31567   3.144   4.592   2.804 -2.2940  0.7608 -1.2090
  975MOL0     H31568   3.337   4.679   2.573  1.1703 -1.9949  0.4661
  975MOL0     H31569   3.338   4.761   2.730  2.2339 -1.0859  1.4141
  975MOL0     H31570   3.359   4.509   2.829 -1.8563 -0.5645 -0.2644
  975MOL0     H31571   3.401   4.474   2.672 -1.1124  0.5083 -0.0664
  975MOL0     H31572   3.526   4.696   2.844 -0.8388 -0.2256  1.0567
  975MOL0     H31573   3.556   4.678   2.663 -3.9686  2.0670  0.1061
  975MOL0     H31574   3.621   4.452   2.884  0.4141 -1.2508 -0.2992
  975MOL0     H31575   3.657   4.451   2.711  1.1375 -1.0530  1.0845
  975MOL0     H31576   3.759   4.669   3.026 -0.4734  2.6919 -0.9515
  975MOL0     H31577   3.975   4.756   3.099 -3.5195  1.5413 -1.4381
  975MOL0     H31578   4.119   4.766   2.986  0.2749  2.9549 -0.7249
  975MOL0     H31579   3.881   4.950   2.983 -1.1752 -1.1755  0.4219
  975MOL0     H31580   4.030   4.995   3.054 -0.2861 -3.9932  2.0811
  975MOL0     H31581   4.046   5.095   2.824 -1.9520  0.5421 -0.3618
  975MOL0     H31582   3.987   4.935   2.759 -1.9141  2.0665 -0.4603
  975MOL0     H31583   4.218   5.011   2.706  2.7528  0.4124  0.7333
  975MOL0     H31584   4.193   4.848   2.798  2.1925 -0.1668  2.5238
  975MOL0     H31585   4.367   5.207   3.040  2.4968 -2.8525  2.2446
  975MOL0     H31586   4.578   5.326   3.003 -1.7010  0.5931 -0.0988
  975MOL0     H31587   5.088   5.188   2.623  1.3846  1.0664  1.5714
  975MOL0     H31588   5.235   5.331   2.490  0.1061  0.8818 -0.4541
  975MOL0     H31589   5.351   5.610   2.527 -0.1177  1.0266  0.2949
  975MOL0     H31590   5.357   5.484   2.411  3.3159  0.7587  0.4050
  975MOL0     H31591   5.343   5.649   2.220 -0.7417 -0.2739 -0.2521
  975MOL0     H31592   5.380   5.766   2.334  0.4038 -0.7053  2.6020
  975MOL0     H31593   5.551   5.515   2.302 -5.5403 -1.5103  1.6478
  975MOL0     H31594   5.568   5.662   2.210  0.3850 -4.6403 -1.9519
  975MOL0     H31595   5.627   5.611   2.520  2.4021 -0.5656 -1.1880
  975MOL0     H31596   5.572   5.769   2.461 -0.1965  1.1793 -2.2774
  975MOL0     H31597   5.728   5.803   2.316  2.6852 -1.2713 -2.3672
  975MOL0     H31598   5.790   5.646   2.314 -3.7388 -1.3503  0.5559
  975MOL0     H31599   5.795   5.842   2.558  0.7246 -2.9084  2.6387
  975MOL0     H31600   5.861   5.681   2.563  0.3988 -0.6468 -0.3668
  975MOL0     H31601   6.060   5.748   2.426  1.2802  0.8919 -0.2512
  975MOL0     H31602   6.016   5.874   2.549 -1.7572  0.7180 -0.6143
  975MOL0     H31603   6.078   5.984   2.329  0.0471  0.3955 -1.7749
  975MOL0     H31604   5.956   5.871   2.256 -1.3667  2.0538 -0.6988
  975MOL0     H31605   4.951   5.651   2.525  0.2127  0.3797 -1.5058
  975MOL0     H31606   4.801   5.505   2.642 -0.3336  1.1530 -0.2347
  975MOL0     H31607   4.676   5.026   2.700  2.5742 -4.1079  2.4825
  975MOL0     H31608   4.455   4.933   2.741 -0.1962 -0.4502  1.2618
  975MOL0     H31609   2.733   4.465   2.287 -2.5823  0.3345  0.1650
  975MOL0     H31610   2.598   4.590   2.128  2.1382 -2.1283 -3.5593
  975MOL0     H31611   2.607   5.071   1.948 -0.0797  1.8938 -0.4016
  975MOL0     H31612   2.498   5.223   1.770  0.8259 -0.2219  0.7924
  975MOL0     H31613   2.108   5.168   1.713  0.4341 -1.3364 -0.2572
  975MOL0     H31614   2.157   5.070   1.568  3.3514 -1.2890  2.8096
  975MOL0     H31615   2.036   5.256   1.469 -0.9080  0.7726  0.5423
  975MOL0     H31616   2.202   5.326   1.484 -1.8601  5.1245 -0.7844
  975MOL0     H31617   2.035   5.495   1.556 -1.3576 -0.7372 -1.2684
  975MOL0     H31618   2.168   5.450   1.668 -1.2604  2.2704  2.5800
  975MOL0     H31619   1.980   5.308   1.789  1.3515 -0.5852 -1.4990
  975MOL0     H31620   1.957   5.482   1.787 -0.3213 -1.4623  1.9075
  975MOL0     H31621   1.644   5.339   1.532 -0.1248  1.2913 -0.1848
  975MOL0     H31622   2.162   4.965   1.758  0.9468 -0.3100 -1.6218
  975MOL0     H31623   2.199   4.798   2.045  0.3492  2.6617 -0.7755
  975MOL0     H31624   2.156   4.756   1.878  1.6048  0.5759 -1.2715
  975MOL0     H31625   2.298   4.689   1.933 -1.2038 -1.1559  0.2482
  976MOL0     O31626   9.392   3.601   9.054 -0.5341 -0.5665  0.2112
  976MOL0     C31627   9.311   3.518   9.093 -0.2354  0.4752 -0.0862
  976MOL0     O31628   9.172   3.539   9.103 -0.5257  1.2371  0.2093
  976MOL0     C31629   9.105   3.648   9.060 -0.2782 -0.0848 -0.2660
  976MOL0     C31630   8.968   3.632   9.065 -0.0313 -0.2699 -0.1293
  976MOL0     C31631   8.887   3.743   9.038  0.0292  1.3120 -0.5563
  976MOL0     C31632   8.937   3.867   9.033 -0.0770 -0.2939 -0.2899
  976MOL0     O31633   8.857   3.977   9.006  0.5065 -0.4582 -0.9942
  976MOL0     C31634   8.725   3.982   9.064 -0.4383  0.4625  0.4274
  976MOL0     C31635   8.684   4.129   9.081 -0.7932  0.1449 -0.5121
  976MOL0     C31636   8.794   4.224   9.151 -0.3719  0.4098 -0.6404
  976MOL0     C31637   8.884   4.294   9.042 -0.9096  0.3726 -0.3848
  976MOL0     C31638   8.993   4.392   9.077  0.1497  0.0345  0.1161
  976MOL0     C31639   9.120   4.313   9.086 -0.3982  0.0330  0.1476
  976MOL0     C31640   9.233   4.397   9.131  0.5561  0.1271  0.2053
  976MOL0     C31641   9.270   4.502   9.023  0.6787 -0.3350 -0.2712
  976MOL0     N31642   9.184   4.619   8.997  0.5976  0.2186  0.2832
  976MOL0     C31643   9.181   4.679   8.869 -0.1632  1.2432 -0.5469
  976MOL0     C31644   9.122   4.795   8.895 -0.1020  0.4134  0.1851
  976MOL0     C31645   9.085   4.899   8.785 -0.6385  0.2907 -0.8109
  976MOL0     C31646   8.965   4.842   8.710 -0.0165  0.8254  0.0779
  976MOL0     C31647   8.834   4.819   8.787 -0.3357 -0.6948  0.5575
  976MOL0     C31648   8.700   4.851   8.722  0.7739 -0.3557  0.4660
  976MOL0     O31649   8.704   4.972   8.646  0.8939 -1.0650 -0.2124
  976MOL0     C31650   8.624   4.965   8.540  0.8196  0.5775  0.4395
  976MOL0     C31651   8.689   4.960   8.416  0.5057  0.3423  0.0497
  976MOL0     C31652   8.610   4.939   8.300  0.2203 -0.2751  0.6523
  976MOL0     C31653   8.471   4.919   8.309  0.3190  0.0451 -0.8375
  976MOL0     C31654   8.402   4.895   8.178  0.4980 -0.3516 -0.4903
  976MOL0     O31655   8.486   4.902   8.066 -0.7640 -0.4441 -0.0559
  976MOL0     C31656   8.443   4.901   7.934 -0.2306  0.6959 -0.3235
  976MOL0     C31657   8.504   4.988   7.843 -0.3677 -0.6900  0.2964
  976MOL0     C31658   8.465   4.980   7.701  0.1554  0.1488 -0.2330
  976MOL0     C31659   8.374   4.887   7.652  0.2759 -0.5831 -0.5972
  976MOL0     O31660   8.352   4.875   7.522 -0.0257  0.1817 -0.0675
  976MOL0     C31661   8.407   4.972   7.438  0.1914 -0.3975  0.0469
  976MOL0     C31662   8.382   4.928   7.297 -0.4134 -0.0499 -0.4137
  976MOL0     C31663   8.243   4.955   7.248 -0.0519  0.6956 -0.2889
  976MOL0     C31664   8.121   4.921   7.339 -0.4860  0.0819 -0.3402
  976MOL0     C31665   7.979   4.915   7.268  0.4909 -0.0076  0.0801
  976MOL0     C31666   7.872   4.884   7.372  0.9049  0.3019  0.2264
  976MOL0     C31667   7.727   4.911   7.326  1.2381 -0.3116 -0.0263
  976MOL0     C31668   7.685   4.861   7.187 -0.3580 -0.7232  0.3081
  976MOL0    Cl31669   7.521   4.886   7.173  0.1413 -0.1572  0.3244
  976MOL0     C31670   8.310   4.799   7.756  0.0575  0.1553 -0.0665
  976MOL0     C31671   8.344   4.807   7.893 -0.1379  0.2936  0.6113
  976MOL0     O31672   8.280   4.880   8.174 -0.7213  0.4557 -0.1017
  976MOL0     C31673   8.407   4.934   8.435 -0.5138  0.4864  1.2828
  976MOL0     C31674   8.485   4.954   8.546 -0.1319  0.6890  0.1911
  976MOL0     N31675   9.085   4.813   9.026  0.3727 -0.0690 -0.3384
  976MOL0     N31676   9.125   4.704   9.096  0.2528 -0.1069  0.2203
  976MOL0     C31677   9.065   3.890   9.050 -1.2433 -0.6422  0.0219
  976MOL0     C31678   9.159   3.783   9.053  0.2406 -0.5461 -0.2232
  976MOL0     C31679   9.385   3.391   9.115  0.2772  0.6151 -0.1988
  976MOL0     C31680   9.521   3.396   9.151  0.2730 -0.0912  0.8431
  976MOL0     C31681   9.593   3.282   9.180  0.2185 -0.1995  0.2083
  976MOL0     C31682   9.531   3.155   9.179 -0.6051 -0.8569 -0.4909
  976MOL0     O31683   9.609   3.043   9.211  0.2234  1.0787  0.9349
  976MOL0     C31684   9.675   3.040   9.337  0.3032 -0.1869  0.5459
  976MOL0     C31685   9.705   2.899   9.368  0.5151 -0.1554  0.7831
  976MOL0     C31686   9.805   2.846   9.273 -0.0425  0.2191 -0.1359
  976MOL0     C31687   9.882   2.738   9.341  1.4068 -0.3709  0.2034
  976MOL0     C31688   9.794   2.623   9.370  0.1037 -0.2838  0.0391
  976MOL0     C31689   9.728   2.517   9.388  0.9858  0.6341  0.4494
  976MOL0     C31690   9.395   3.142   9.137 -1.1205 -1.0941  0.3451
  976MOL0     C31691   9.318   3.261   9.100  0.2319  0.1156  0.6621
  976MOL0     C31692   9.167   3.257   9.075 -0.4153  0.0581  0.3065
  976MOL0     H31693   8.935   3.531   9.088  1.1441 -0.0100  3.3110
  976MOL0     H31694   8.780   3.722   9.034  0.1316  0.5515  0.2744
  976MOL0     H31695   8.664   3.920   8.997  1.4670 -1.9296  0.7583
  976MOL0     H31696   8.719   3.942   9.165 -2.6406  0.9370  0.5242
  976MOL0     H31697   8.588   4.139   9.132 -0.4488  2.1104 -0.1595
  976MOL0     H31698   8.666   4.175   8.984  1.6838  2.9739  0.2272
  976MOL0     H31699   8.849   4.151   9.211 -1.0233  0.5503  0.1463
  976MOL0     H31700   8.741   4.302   9.207 -0.3533  2.5562 -3.3976
  976MOL0     H31701   8.926   4.211   8.983 -2.1609  0.5708 -1.6066
  976MOL0     H31702   8.828   4.343   8.962 -1.6376 -2.0741 -1.4884
  976MOL0     H31703   9.000   4.449   8.984  1.6248 -1.9062 -1.0545
  976MOL0     H31704   8.964   4.470   9.147  0.3113 -1.1816  1.5995
  976MOL0     H31705   9.113   4.236   9.164 -1.8919 -0.6171 -0.5897
  976MOL0     H31706   9.145   4.268   8.989 -2.2957 -0.4464 -0.1521
  976MOL0     H31707   9.331   4.348   9.129  1.5841  2.1330 -1.1343
  976MOL0     H31708   9.214   4.440   9.230 -3.0485  0.4797 -0.5065
  976MOL0     H31709   9.371   4.537   9.047  1.4336  0.0178 -3.4800
  976MOL0     H31710   9.275   4.449   8.927  0.3172 -3.1161  1.1292
  976MOL0     H31711   9.214   4.622   8.783 -1.1710  1.5280 -1.1323
  976MOL0     H31712   9.067   4.991   8.840 -0.2041  0.4991 -1.0128
  976MOL0     H31713   9.174   4.921   8.726 -1.0814 -0.3291 -1.7480
  976MOL0     H31714   8.959   4.918   8.631  2.5506  1.7379  0.6813
  976MOL0     H31715   8.993   4.746   8.665 -0.4889 -0.2149  1.9341
  976MOL0     H31716   8.838   4.879   8.878 -0.2593  0.0946  0.0446
  976MOL0     H31717   8.827   4.714   8.818  1.2184 -0.6151  1.2727
  976MOL0     H31718   8.621   4.861   8.797 -0.1372 -1.3897 -0.3226
  976MOL0     H31719   8.679   4.764   8.659  0.4321 -0.1177  0.2504
  976MOL0     H31720   8.796   4.970   8.402  0.5327 -1.4051 -1.3154
  976MOL0     H31721   8.675   4.940   8.213  0.8195  0.1027  1.0913
  976MOL0     H31722   8.563   5.069   7.884 -1.2332  0.6518 -0.9962
  976MOL0     H31723   8.511   5.059   7.643 -0.6215 -0.9622 -2.4833
  976MOL0     H31724   8.369   5.072   7.462 -2.1072 -0.9741 -0.9705
  976MOL0     H31725   8.516   4.975   7.442  0.2056 -1.5357  1.0986
  976MOL0     H31726   8.455   4.977   7.231 -0.9859  0.8907 -0.3727
  976MOL0     H31727   8.397   4.820   7.285  0.2446 -0.4458  3.0190
  976MOL0     H31728   8.237   5.061   7.225 -0.4956  1.8328  4.0530
  976MOL0     H31729   8.229   4.895   7.158 -1.4839 -0.2325  0.4947
  976MOL0     H31730   8.122   4.994   7.421  0.9470  1.0599 -1.1802
  976MOL0     H31731   8.143   4.821   7.376 -1.8039  0.0429  0.3832
  976MOL0     H31732   7.978   4.840   7.188 -0.3850  2.8168 -2.7488
  976MOL0     H31733   7.956   5.012   7.223  0.5861 -1.2848 -2.9698
  976MOL0     H31734   7.880   4.790   7.428 -1.4982  0.3776  0.8130
  976MOL0     H31735   7.890   4.949   7.458  0.3553  0.0468  0.5421
  976MOL0     H31736   7.714   5.020   7.328 -2.0790 -0.5983 -1.2016
  976MOL0     H31737   7.662   4.867   7.402  2.0915  0.6025  1.2850
  976MOL0     H31738   7.743   4.903   7.104  0.3589  1.2268  1.6954
  976MOL0     H31739   7.695   4.752   7.185 -2.6439 -1.0003  1.0248
  976MOL0     H31740   8.225   4.741   7.723 -0.0731 -0.1650  0.8035
  976MOL0     H31741   8.295   4.732   7.955  1.1515 -0.8260  0.3139
  976MOL0     H31742   8.301   4.911   8.442 -0.1383 -1.2539  1.6913
  976MOL0     H31743   8.420   4.971   8.631 -1.0917  3.1863 -0.9338
  976MOL0     H31744   9.099   3.993   9.062  2.8865 -2.0503  2.1714
  976MOL0     H31745   9.261   3.798   9.086  0.5857  0.1684 -1.5468
  976MOL0     H31746   9.575   3.490   9.151 -0.9211  0.7003 -1.8731
  976MOL0     H31747   9.696   3.303   9.209 -0.3481  1.8794  0.8994
  976MOL0     H31748   9.623   3.094   9.417  0.6454 -0.7201  1.1367
  976MOL0     H31749   9.774   3.084   9.325 -0.2359  1.1304  0.7768
  976MOL0     H31750   9.609   2.846   9.373  0.0925 -0.0525 -3.1767
  976MOL0     H31751   9.752   2.895   9.467  1.8877 -2.2121  0.1059
  976MOL0     H31752   9.883   2.919   9.248 -0.1650  0.3402 -0.1599
  976MOL0     H31753   9.757   2.790   9.193 -1.9261 -1.2282  1.9057
  976MOL0     H31754   9.964   2.704   9.276 -0.0148 -0.7730 -1.4409
  976MOL0     H31755   9.914   2.771   9.441 -0.5634  1.4713  0.2868
  976MOL0     H31756   9.659   2.436   9.397  1.8470 -0.3603 -1.4309
  976MOL0     H31757   9.349   3.044   9.141 -0.2574 -1.6260 -1.5487
  976MOL0     H31758   9.142   3.151   9.065  2.9747 -0.9923  1.4960
  976MOL0     H31759   9.105   3.295   9.156  0.8896 -1.0902  1.9028
  976MOL0     H31760   9.146   3.291   8.973 -1.8694 -0.2387  0.4846
  977MOL0     O31761  11.274   7.475   4.303  0.1207  0.5349  0.8411
  977MOL0     C31762  11.302   7.358   4.292 -0.0622  0.0278  0.3071
  977MOL0     O31763  11.394   7.292   4.375 -0.0416 -0.1237  0.8885
  977MOL0     C31764  11.494   7.365   4.436 -0.3661  0.7025 -0.2992
  977MOL0     C31765  11.562   7.305   4.537 -0.0973 -0.0981 -0.0407
  977MOL0     C31766  11.669   7.370   4.604 -0.4784  0.0666 -0.7466
  977MOL0     C31767  11.714   7.492   4.570 -0.2156 -0.8807  0.2223
  977MOL0     O31768  11.830   7.552   4.628  0.7980 -0.2261  0.0240
  977MOL0     C31769  11.923   7.552   4.521  0.1332  0.2901  0.2442
  977MOL0     C31770  12.066   7.581   4.574 -0.1409 -0.2868 -0.1531
  977MOL0     C31771  12.158   7.608   4.462 -1.4131 -0.1251 -0.2778
  977MOL0     C31772  12.299   7.612   4.517  0.0570 -0.8336  0.0810
  977MOL0     C31773  12.403   7.623   4.400  0.0767  0.1426  0.9235
  977MOL0     C31774  12.561   7.647   4.432 -0.2832 -0.5489 -0.3765
  977MOL0     C31775  12.624   7.546   4.534  0.2162 -0.1387  0.2845
  977MOL0     C31776  12.775   7.555   4.530 -0.0502 -0.5440  0.6101
  977MOL0     N31777  12.801   7.687   4.579  0.0482  0.7752  0.3184
  977MOL0     C31778  12.853   7.780   4.502 -0.0653 -0.9392 -0.0633
  977MOL0     C31779  12.904   7.870   4.585 -0.0884 -0.4794  0.2466
  977MOL0     C31780  12.947   8.007   4.523  0.6890 -0.3517  0.1712
  977MOL0     C31781  13.070   7.988   4.447  0.5199 -0.2053  0.1870
  977MOL0     C31782  13.086   8.091   4.327  0.2329  0.5479  0.8846
  977MOL0     C31783  13.154   8.221   4.376 -1.0824 -0.9953 -0.6477
  977MOL0     O31784  13.188   8.303   4.267 -0.2420 -0.2141  0.3642
  977MOL0     C31785  13.086   8.371   4.197  0.5516 -0.1075  0.7250
  977MOL0     C31786  13.127   8.443   4.081 -0.5914  0.0630  0.9586
  977MOL0     C31787  13.032   8.501   3.993  0.9785 -0.0563 -0.0250
  977MOL0     C31788  12.892   8.489   4.029  0.9767 -0.4014 -0.1566
  977MOL0     C31789  12.785   8.562   3.948  0.1126  0.8591  0.1174
  977MOL0     O31790  12.652   8.533   3.971 -0.3117 -0.3295  0.1053
  977MOL0     C31791  12.572   8.558   3.857  0.5081 -0.8243  0.0482
  977MOL0     C31792  12.510   8.683   3.825 -0.6021  0.4219  0.0036
  977MOL0     C31793  12.443   8.712   3.707  0.1937 -0.2490 -0.6275
  977MOL0     C31794  12.449   8.610   3.608 -0.5835  0.5034 -0.7047
  977MOL0     O31795  12.401   8.623   3.482 -0.7339  0.1345  0.4246
  977MOL0     C31796  12.519   8.623   3.385  0.6482  0.7221 -0.1762
  977MOL0     C31797  12.488   8.645   3.237  0.1627  1.1693 -1.0260
  977MOL0     C31798  12.375   8.547   3.196  0.1590 -0.0346  0.1094
  977MOL0     C31799  12.324   8.577   3.048  1.5331 -0.7681 -0.1874
  977MOL0     C31800  12.216   8.480   3.008 -0.2548  0.4750  0.8628
  977MOL0     C31801  12.264   8.338   2.958 -0.5840 -0.1390 -0.0407
  977MOL0     C31802  12.162   8.279   2.859  0.3792  0.0805 -0.4269
  977MOL0     C31803  12.204   8.286   2.722 -0.0607 -0.1046  0.3248
  977MOL0    Cl31804  12.092   8.186   2.625  0.1182 -0.2200  0.2597
  977MOL0     C31805  12.506   8.484   3.637 -0.6582  0.8985  0.3659
  977MOL0     C31806  12.569   8.458   3.754 -0.4891 -0.7884 -1.1549
  977MOL0     O31807  12.829   8.634   3.850  0.5361 -0.3505 -0.1065
  977MOL0     C31808  12.858   8.437   4.154  0.2019 -0.5213  0.2378
  977MOL0     C31809  12.951   8.378   4.234  0.0038 -1.3283  0.8898
  977MOL0     N31810  12.901   7.833   4.716 -0.2329  0.1462  0.4246
  977MOL0     N31811  12.826   7.726   4.707  0.1455 -0.3633  0.7072
  977MOL0     C31812  11.647   7.549   4.463  0.2637 -0.0163  0.1250
  977MOL0     C31813  11.537   7.494   4.411 -0.1282 -0.0052  0.3343
  977MOL0     C31814  11.238   7.271   4.197  1.0425  0.3057  0.5183
  977MOL0     C31815  11.218   7.134   4.215 -0.2943  1.5289  0.0856
  977MOL0     C31816  11.159   7.046   4.128  0.4529  0.9710  0.1522
  977MOL0     C31817  11.101   7.096   4.015  0.1681 -0.5310 -0.5578
  977MOL0     O31818  11.025   7.005   3.947  0.2820 -0.0704  0.2846
  977MOL0     C31819  10.953   7.034   3.829 -0.0884 -0.3233  0.4943
  977MOL0     C31820  10.986   6.933   3.716 -0.1293  0.5554 -0.4882
  977MOL0     C31821  10.901   6.795   3.728 -0.6429  0.1046 -0.6848
  977MOL0     C31822  10.981   6.711   3.809  1.0528 -0.0903 -0.6389
  977MOL0     C31823  10.925   6.580   3.833  0.2671  0.3693 -0.0283
  977MOL0     C31824  10.882   6.464   3.854 -0.5566  0.2131  0.6771
  977MOL0     C31825  11.113   7.232   3.986  0.2513 -0.6073  0.0972
  977MOL0     C31826  11.194   7.318   4.073  0.3558  0.4285  0.0035
  977MOL0     C31827  11.241   7.447   4.009  0.2465  0.4831 -0.2204
  977MOL0     H31828  11.530   7.202   4.550 -4.5120  1.0459 -0.2835
  977MOL0     H31829  11.706   7.326   4.696 -3.0707  0.4898  0.6133
  977MOL0     H31830  11.927   7.454   4.474 -0.2699 -1.0157  2.7895
  977MOL0     H31831  11.893   7.620   4.440 -1.2759  0.4431  0.8703
  977MOL0     H31832  12.100   7.505   4.645 -0.0948  1.4504  1.7704
  977MOL0     H31833  12.051   7.665   4.642 -0.6796 -0.8276  0.4079
  977MOL0     H31834  12.131   7.708   4.426  4.5400  3.0477  2.6262
  977MOL0     H31835  12.149   7.537   4.379 -0.2198 -0.2674 -0.3029
  977MOL0     H31836  12.322   7.696   4.583  2.8523  1.4725 -3.4733
  977MOL0     H31837  12.323   7.528   4.582 -1.9800  0.3831  2.6070
  977MOL0     H31838  12.396   7.530   4.343  1.9299 -1.7324  3.5026
  977MOL0     H31839  12.366   7.694   4.325 -1.1157 -0.8120  0.5852
  977MOL0     H31840  12.615   7.656   4.337 -0.8084  0.9601 -0.5712
  977MOL0     H31841  12.562   7.745   4.481  1.9098 -0.3457 -0.7494
  977MOL0     H31842  12.589   7.448   4.500  3.1916 -1.0032 -0.6632
  977MOL0     H31843  12.583   7.560   4.634 -0.8382  1.4161 -0.3400
  977MOL0     H31844  12.821   7.479   4.595  0.9450 -0.5878 -0.1183
  977MOL0     H31845  12.809   7.534   4.428  1.0196 -2.1664  1.2545
  977MOL0     H31846  12.836   7.795   4.396  3.5772  0.2065 -0.6283
  977MOL0     H31847  12.866   8.046   4.461  0.9788  0.0314  0.0278
  977MOL0     H31848  12.970   8.075   4.605 -1.4865 -2.1415  2.4429
  977MOL0     H31849  13.155   7.975   4.515  0.7291 -0.1710 -0.0693
  977MOL0     H31850  13.069   7.888   4.402  1.0182 -0.8822  1.6061
  977MOL0     H31851  12.988   8.109   4.281  0.6513  2.4353  0.6150
  977MOL0     H31852  13.137   8.044   4.242 -1.1425  0.2950  0.1673
  977MOL0     H31853  13.236   8.194   4.442 -0.9953  2.8095  1.0973
  977MOL0     H31854  13.083   8.283   4.431 -1.7844 -1.7242 -0.7085
  977MOL0     H31855  13.229   8.459   4.049 -0.6573 -0.1169  0.6663
  977MOL0     H31856  13.071   8.548   3.902 -1.4398 -0.8871 -1.5778
  977MOL0     H31857  12.522   8.757   3.903  3.5449  0.3454 -0.3343
  977MOL0     H31858  12.399   8.807   3.680  2.3926  0.4188 -2.2301
  977MOL0     H31859  12.588   8.703   3.413  2.4238 -0.4503 -1.0278
  977MOL0     H31860  12.568   8.526   3.394 -0.5451  0.0368 -0.7662
  977MOL0     H31861  12.459   8.750   3.223  0.7189  1.2092 -1.8967
  977MOL0     H31862  12.581   8.627   3.183  3.8436  1.1039  4.4767
  977MOL0     H31863  12.420   8.448   3.190  0.5059  0.1131  0.2169
  977MOL0     H31864  12.286   8.554   3.258 -2.3544 -1.3823 -3.0902
  977MOL0     H31865  12.408   8.559   2.980  2.6582 -2.3762  1.4971
  977MOL0     H31866  12.292   8.680   3.032  0.5646 -0.7871  1.4016
  977MOL0     H31867  12.166   8.520   2.919 -1.8087 -3.1325 -0.0514
  977MOL0     H31868  12.141   8.486   3.087  0.4127  1.5170  1.4409
  977MOL0     H31869  12.364   8.352   2.918 -0.7561  0.6107 -0.2278
  977MOL0     H31870  12.281   8.274   3.045 -1.7433  1.2202  1.2510
  977MOL0     H31871  12.063   8.324   2.876 -0.1813 -1.7725  1.8858
  977MOL0     H31872  12.152   8.170   2.866  1.4667 -0.0205 -0.3610
  977MOL0     H31873  12.173   8.383   2.683 -2.6358 -0.9895 -0.0450
  977MOL0     H31874  12.311   8.265   2.717  0.4272  2.1043  0.8637
  977MOL0     H31875  12.513   8.404   3.565 -1.1472 -0.7811  2.1121
  977MOL0     H31876  12.607   8.356   3.761  0.3831 -0.5307 -2.0235
  977MOL0     H31877  12.754   8.439   4.185  0.8963  0.2304  2.8448
  977MOL0     H31878  12.911   8.342   4.328  2.4392 -2.1632  1.6954
  977MOL0     H31879  11.676   7.653   4.449 -0.1419 -0.0072 -0.7187
  977MOL0     H31880  11.497   7.553   4.329 -0.0800 -0.3454  0.0619
  977MOL0     H31881  11.265   7.102   4.307 -2.4608  4.3227  2.3437
  977MOL0     H31882  11.140   6.941   4.148 -0.1309  1.0160 -0.1250
  977MOL0     H31883  10.966   7.131   3.780 -1.0830 -0.8439 -0.8642
  977MOL0     H31884  10.846   7.036   3.848 -0.1732  4.3104  0.7408
  977MOL0     H31885  11.095   6.927   3.713 -0.1434  0.7839 -2.1915
  977MOL0     H31886  10.948   6.964   3.618 -1.5479  0.4686  0.0054
  977MOL0     H31887  10.885   6.752   3.629 -0.8325 -1.7646  0.1180
  977MOL0     H31888  10.805   6.806   3.779 -0.1202  1.2836  0.0887
  977MOL0     H31889  11.076   6.703   3.756  1.1213  3.2156 -1.1976
  977MOL0     H31890  10.987   6.760   3.907 -1.3302  0.6093 -0.7953
  977MOL0     H31891  10.842   6.365   3.867 -3.3019  1.3543  1.7437
  977MOL0     H31892  11.068   7.261   3.892  1.0998 -0.6471 -0.3317
  977MOL0     H31893  11.235   7.440   3.900  0.0285 -2.5528 -0.1048
  977MOL0     H31894  11.179   7.529   4.048 -2.1476 -0.4068 -1.8747
  977MOL0     H31895  11.342   7.465   4.046 -0.3604 -1.1919  2.5590
  978MOL0     O31896  11.113  11.384   5.511 -0.0219  0.4298  0.3642
  978MOL0     C31897  11.028  11.300   5.473 -0.9458 -0.0198 -0.0576
  978MOL0     O31898  10.986  11.285   5.342 -0.0576 -0.0986  0.2592
  978MOL0     C31899  11.055  11.361   5.241 -0.7566 -0.0514 -0.3308
  978MOL0     C31900  11.086  11.498   5.248  0.0496  0.5286 -0.0470
  978MOL0     C31901  11.153  11.563   5.135  0.3606 -0.0631  1.0169
  978MOL0     C31902  11.165  11.491   5.011  0.1456 -0.6847 -0.1424
  978MOL0     O31903  11.226  11.559   4.906 -1.0951  0.4944  0.5206
  978MOL0     C31904  11.215  11.502   4.763 -0.3644  0.2367 -0.6133
  978MOL0     C31905  11.210  11.615   4.662 -0.3893  0.2839 -0.6377
  978MOL0     C31906  11.082  11.690   4.667 -0.7882 -0.6365 -0.9122
  978MOL0     C31907  11.068  11.782   4.541  0.1304 -0.1169  0.1354
  978MOL0     C31908  10.921  11.827   4.519 -0.5004 -0.3289 -0.1031
  978MOL0     C31909  10.897  11.911   4.394  0.1859 -0.3897  0.0715
  978MOL0     C31910  10.848  12.057   4.416 -0.1361  1.0504 -0.1845
  978MOL0     C31911  10.970  12.139   4.436  1.0236 -0.5574  0.5748
  978MOL0     N31912  11.028  12.138   4.573 -0.0082  0.7495  0.1168
  978MOL0     C31913  11.160  12.106   4.602 -0.1969 -0.5447 -0.2584
  978MOL0     C31914  11.166  12.125   4.739  0.1786 -0.5113  0.2552
  978MOL0     C31915  11.284  12.095   4.823  0.5270 -0.0841 -0.0138
  978MOL0     C31916  11.313  11.949   4.853  0.6139 -1.0242 -0.1728
  978MOL0     C31917  11.437  11.934   4.947 -0.9319 -0.2716  0.0344
  978MOL0     C31918  11.428  11.827   5.052 -0.9184 -0.0755  0.9611
  978MOL0     O31919  11.542  11.837   5.135  0.7263  0.3025  0.1531
  978MOL0     C31920  11.539  11.765   5.250  0.3302  0.0059  0.4710
  978MOL0     C31921  11.665  11.743   5.313  0.4310 -1.0514  0.3817
  978MOL0     C31922  11.674  11.693   5.437 -0.6362  0.6988 -0.3560
  978MOL0     C31923  11.567  11.637   5.509  1.8214  0.7837  1.2615
  978MOL0     C31924  11.588  11.572   5.640 -0.4888 -0.3416  1.0411
  978MOL0     O31925  11.482  11.509   5.678  0.2166  0.5936  0.0489
  978MOL0     C31926  11.485  11.444   5.796 -0.1802  0.3122  0.1267
  978MOL0     C31927  11.446  11.506   5.919  0.2841 -0.2960  1.2429
  978MOL0     C31928  11.437  11.442   6.041 -0.1869 -0.5410 -0.5019
  978MOL0     C31929  11.482  11.309   6.042  1.5320  0.5517 -0.6785
  978MOL0     O31930  11.485  11.272   6.175  0.3041 -0.4543  0.1252
  978MOL0     C31931  11.513  11.141   6.205  0.1087  0.3271 -0.0915
  978MOL0     C31932  11.518  11.135   6.352 -0.6816 -0.0854 -0.5413
  978MOL0     C31933  11.536  10.997   6.422 -0.4535 -0.4458  0.3867
  978MOL0     C31934  11.479  11.002   6.565 -0.6809 -0.2448  0.6220
  978MOL0     C31935  11.486  10.872   6.634  0.6576 -0.4026 -0.0406
  978MOL0     C31936  11.413  10.765   6.558  0.0866  0.0770  0.5113
  978MOL0     C31937  11.372  10.633   6.638  0.9682 -0.4690  0.5178
  978MOL0     C31938  11.260  10.644   6.738 -0.0526 -0.6183  0.8411
  978MOL0    Cl31939  11.106  10.669   6.662 -0.4784  0.4309 -0.5802
  978MOL0     C31940  11.516  11.240   5.924 -0.4735  0.0408 -0.7745
  978MOL0     C31941  11.512  11.313   5.804 -0.1712 -0.1480  0.5325
  978MOL0     O31942  11.693  11.574   5.697 -0.3143 -0.1869  0.5430
  978MOL0     C31943  11.438  11.644   5.447 -0.3426 -0.0094 -0.2303
  978MOL0     C31944  11.427  11.704   5.319  0.1428  0.6690  0.2170
  978MOL0     N31945  11.042  12.159   4.786 -0.5230  0.6663 -0.4651
  978MOL0     N31946  10.957  12.168   4.687  0.0098  0.4730 -0.5499
  978MOL0     C31947  11.130  11.357   5.012 -0.4166  0.5982  0.7013
  978MOL0     C31948  11.073  11.290   5.120  0.8892  0.9191 -0.5135
  978MOL0     C31949  10.968  11.207   5.564 -0.0572  0.1504  0.7651
  978MOL0     C31950  10.848  11.149   5.522  0.2035  0.3783  0.0932
  978MOL0     C31951  10.788  11.055   5.601 -0.2027 -0.1471  0.7025
  978MOL0     C31952  10.835  11.016   5.722  0.1478  0.6597  0.5275
  978MOL0     O31953  10.782  10.906   5.794 -0.6123 -0.0741 -0.1301
  978MOL0     C31954  10.855  10.779   5.780  0.5923 -0.4863  0.3947
  978MOL0     C31955  10.823  10.705   5.646  0.0255  0.2993 -0.6442
  978MOL0     C31956  10.685  10.624   5.636  0.3496 -0.1516  0.4705
  978MOL0     C31957  10.653  10.595   5.487  0.6073 -0.3259 -1.1347
  978MOL0     C31958  10.524  10.512   5.491  0.2492 -0.8330 -0.4764
  978MOL0     C31959  10.420  10.463   5.488  0.7184  0.0994 -0.2285
  978MOL0     C31960  10.958  11.076   5.761 -0.5852 -0.0130 -0.4832
  978MOL0     C31961  11.024  11.175   5.692 -0.6300  0.1257  0.3833
  978MOL0     C31962  11.148  11.234   5.747 -0.0619  0.5243  0.2557
  978MOL0     H31963  11.066  11.551   5.341  4.6863 -2.4270  3.0610
  978MOL0     H31964  11.188  11.665   5.142 -2.4258  1.3912 -2.7369
  978MOL0     H31965  11.293  11.435   4.725  0.3017  0.6893 -0.0760
  978MOL0     H31966  11.120  11.451   4.744  0.0127 -0.5935 -0.3099
  978MOL0     H31967  11.214  11.579   4.559  0.2973 -1.1988 -0.1186
  978MOL0     H31968  11.298  11.679   4.672 -0.8524  0.6055  2.3138
  978MOL0     H31969  11.080  11.743   4.762 -1.2465 -2.5183  0.1960
  978MOL0     H31970  10.997  11.621   4.665 -3.2352  2.1137  0.9167
  978MOL0     H31971  11.142  11.862   4.534 -0.2749  0.2220 -0.4647
  978MOL0     H31972  11.081  11.720   4.451 -0.8921 -0.9840  0.5557
  978MOL0     H31973  10.849  11.746   4.505 -3.5275  1.9471  1.0411
  978MOL0     H31974  10.895  11.880   4.611 -4.4678 -0.2267 -1.1012
  978MOL0     H31975  10.992  11.906   4.340  0.2568 -0.4285  0.1988
  978MOL0     H31976  10.824  11.849   4.342  3.0302 -0.4481 -4.3630
  978MOL0     H31977  10.774  12.081   4.493  0.1644 -2.5709  1.4810
  978MOL0     H31978  10.819  12.093   4.317  3.5123 -1.9993 -2.6444
  978MOL0     H31979  11.048  12.119   4.362 -2.1958 -1.8885 -2.7307
  978MOL0     H31980  10.945  12.245   4.426 -0.2048 -0.4489  3.5476
  978MOL0     H31981  11.235  12.084   4.527 -0.4535  1.9052 -1.3375
  978MOL0     H31982  11.371  12.154   4.796  0.7833 -0.7161 -0.5961
  978MOL0     H31983  11.245  12.128   4.920  0.1364 -1.7494  0.4277
  978MOL0     H31984  11.224  11.903   4.898 -1.3023  1.6467 -0.9835
  978MOL0     H31985  11.334  11.899   4.758  0.4347 -1.1388 -0.1540
  978MOL0     H31986  11.440  12.028   5.001 -3.5871 -1.1417  1.9188
  978MOL0     H31987  11.531  11.911   4.896 -0.8756 -0.8694  0.3947
  978MOL0     H31988  11.425  11.733   4.995  3.5476 -1.3638  2.4280
  978MOL0     H31989  11.339  11.841   5.114  0.4983  1.1324  2.8166
  978MOL0     H31990  11.750  11.785   5.261  0.6856 -1.3409  0.5611
  978MOL0     H31991  11.772  11.683   5.483  0.2697  0.3997 -2.2581
  978MOL0     H31992  11.431  11.612   5.902  0.7126 -0.6950 -2.3358
  978MOL0     H31993  11.410  11.494   6.133 -2.4546 -2.4337 -0.0053
  978MOL0     H31994  11.434  11.082   6.156 -0.1403  1.3917 -1.0220
  978MOL0     H31995  11.611  11.109   6.168 -2.4457 -4.2192 -4.1709
  978MOL0     H31996  11.587  11.204   6.402 -0.4609 -1.7616  1.5968
  978MOL0     H31997  11.420  11.165   6.389 -0.3668 -0.6635  0.8246
  978MOL0     H31998  11.477  10.925   6.365  3.1185 -1.0713 -2.9384
  978MOL0     H31999  11.642  10.974   6.437 -0.5033 -1.4810 -0.7083
  978MOL0     H32000  11.375  11.034   6.569 -0.3042  1.0010  0.8845
  978MOL0     H32001  11.532  11.072   6.630 -1.6277  2.4963 -1.3925
  978MOL0     H32002  11.442  10.870   6.735  0.6911 -3.5825  0.0199
  978MOL0     H32003  11.592  10.847   6.646  1.6933  2.9795 -1.1894
  978MOL0     H32004  11.318  10.800   6.517 -0.8435 -0.4690  2.1397
  978MOL0     H32005  11.481  10.728   6.480 -0.0623 -1.8318  1.2146
  978MOL0     H32006  11.455  10.593   6.698  0.3659 -0.1093  1.6073
  978MOL0     H32007  11.338  10.560   6.563  0.4358  0.9939 -0.7298
  978MOL0     H32008  11.253  10.555   6.801  0.4477 -0.1463  1.5673
  978MOL0     H32009  11.272  10.718   6.817 -0.8869 -0.4479  0.8255
  978MOL0     H32010  11.530  11.133   5.930  2.4888  0.4143  3.0980
  978MOL0     H32011  11.518  11.258   5.711  0.3665  3.5449 -1.7957
  978MOL0     H32012  11.349  11.610   5.499 -2.4460  2.4256 -1.9890
  978MOL0     H32013  11.325  11.696   5.284 -0.2231 -1.7848  1.6130
  978MOL0     H32014  11.123  11.304   4.918 -0.2012 -0.0337  1.0334
  978MOL0     H32015  11.044  11.186   5.120 -1.5578  1.5546 -0.0007
  978MOL0     H32016  10.808  11.171   5.423 -0.1258 -1.2446 -0.1735
  978MOL0     H32017  10.700  11.004   5.562  1.8494 -2.7126 -0.9003
  978MOL0     H32018  10.831  10.719   5.868 -0.5153  0.2014  0.5784
  978MOL0     H32019  10.963  10.796   5.775  0.3388  0.9727 -0.7099
  978MOL0     H32020  10.903  10.633   5.624 -1.0120 -1.3856  0.8762
  978MOL0     H32021  10.833  10.777   5.565 -0.6827 -1.9487 -2.8838
  978MOL0     H32022  10.599  10.683   5.670  0.2230 -0.2965  0.4053
  978MOL0     H32023  10.696  10.529   5.688 -1.1694 -0.5864  0.0566
  978MOL0     H32024  10.637  10.694   5.443  1.2328  1.3009  1.9793
  978MOL0     H32025  10.730  10.543   5.430  0.2151 -0.6788 -1.3402
  978MOL0     H32026  10.319  10.426   5.491  0.6168  0.2663 -1.1626
  978MOL0     H32027  11.008  11.047   5.853 -0.9445  1.0564  0.0702
  978MOL0     H32028  11.234  11.211   5.683  0.2009  4.6326 -1.2216
  978MOL0     H32029  11.149  11.344   5.747 -0.4161  0.5723 -1.8406
  978MOL0     H32030  11.156  11.209   5.853  1.9516 -0.6579 -0.1330
  979MOL0     O32031   6.148   1.866   4.702 -0.0620 -0.6943 -0.1420
  979MOL0     C32032   6.060   1.894   4.615 -0.7730  0.2602 -0.2310
  979MOL0     O32033   6.084   1.942   4.494 -0.4199  0.0555  0.1306
  979MOL0     C32034   6.205   1.963   4.437 -0.1864 -0.2194 -0.3341
  979MOL0     C32035   6.319   2.019   4.497 -0.9082  1.2546 -0.1463
  979MOL0     C32036   6.443   2.019   4.427 -1.0257  0.2126  0.4290
  979MOL0     C32037   6.448   1.982   4.297  0.3321  0.4670  0.7753
  979MOL0     O32038   6.562   1.986   4.221 -0.3221  0.7226 -0.0039
  979MOL0     C32039   6.601   2.120   4.198  0.0510  0.0001 -0.1050
  979MOL0     C32040   6.499   2.213   4.135  0.1420  0.5024 -0.0265
  979MOL0     C32041   6.574   2.341   4.102 -0.1709 -0.3368 -0.0143
  979MOL0     C32042   6.482   2.434   4.030 -0.3180  0.5185 -0.6215
  979MOL0     C32043   6.552   2.551   3.959 -0.0323 -0.0723  0.0835
  979MOL0     C32044   6.608   2.668   4.039 -0.5756 -0.3953  0.4494
  979MOL0     C32045   6.694   2.762   3.957  0.1364  0.1393 -0.9183
  979MOL0     C32046   6.600   2.851   3.865 -0.5012 -0.3107  0.0720
  979MOL0     N32047   6.669   2.973   3.825 -0.2973  0.5951 -0.2672
  979MOL0     C32048   6.725   2.985   3.703  0.5391 -0.1675 -0.5365
  979MOL0     C32049   6.740   3.118   3.688 -0.0751  0.0895  0.4508
  979MOL0     C32050   6.781   3.199   3.569 -0.5561  1.1854 -0.3152
  979MOL0     C32051   6.935   3.189   3.542  0.6684  0.2318  0.1390
  979MOL0     C32052   7.033   3.199   3.658 -0.0580  0.6536 -0.1506
  979MOL0     C32053   7.037   3.334   3.717  0.0436 -0.2312 -0.1666
  979MOL0     O32054   7.103   3.421   3.638 -0.3310 -0.0211  0.4181
  979MOL0     C32055   7.120   3.553   3.667 -0.1581  0.8109 -0.5223
  979MOL0     C32056   7.098   3.612   3.789  0.4437  0.9370 -1.5568
  979MOL0     C32057   7.137   3.748   3.809 -0.2599 -0.9055 -0.6542
  979MOL0     C32058   7.168   3.819   3.691 -0.4576 -0.2791 -0.2998
  979MOL0     C32059   7.200   3.969   3.695  0.3095  0.7018 -0.3647
  979MOL0     O32060   7.230   4.037   3.581  0.3437  0.9776 -0.7341
  979MOL0     C32061   7.269   4.170   3.578  0.7185 -0.0195  0.4462
  979MOL0     C32062   7.165   4.266   3.568  0.7666 -0.0151 -0.0253
  979MOL0     C32063   7.203   4.401   3.562  0.5904  0.5369 -0.1045
  979MOL0     C32064   7.335   4.441   3.571 -0.0405  0.1075 -0.1205
  979MOL0     O32065   7.365   4.574   3.556 -0.1998 -0.8037  0.1247
  979MOL0     C32066   7.437   4.635   3.669 -0.3839  0.4387  0.3426
  979MOL0     C32067   7.582   4.658   3.629 -0.3236 -0.0360 -1.1090
  979MOL0     C32068   7.656   4.782   3.688  0.2705 -0.3714  0.0276
  979MOL0     C32069   7.603   4.824   3.831 -0.1159  0.8862  0.4213
  979MOL0     C32070   7.721   4.904   3.882 -0.0219 -0.0723 -0.1200
  979MOL0     C32071   7.735   5.038   3.804 -0.9479  0.2367  0.4885
  979MOL0     C32072   7.833   5.133   3.860 -0.7186 -0.5782 -0.0928
  979MOL0     C32073   7.806   5.282   3.832  0.3583 -0.0040 -1.1015
  979MOL0    Cl32074   7.903   5.384   3.936  0.0381 -0.4916  0.1346
  979MOL0     C32075   7.439   4.341   3.582 -0.4798 -0.2118 -0.3091
  979MOL0     C32076   7.403   4.210   3.583  0.0400 -0.9047 -0.4694
  979MOL0     O32077   7.209   4.023   3.808 -0.5887  0.4096  0.0747
  979MOL0     C32078   7.182   3.757   3.570 -0.6631 -0.5006 -0.0217
  979MOL0     C32079   7.161   3.623   3.564 -0.1094  0.1534  0.1511
  979MOL0     N32080   6.695   3.180   3.804  0.4356 -0.1977  0.2691
  979MOL0     N32081   6.650   3.100   3.879  0.5573  0.7527 -0.6345
  979MOL0     C32082   6.330   1.938   4.234  0.3892 -0.1541  0.1015
  979MOL0     C32083   6.209   1.937   4.306 -0.0419  0.8486 -0.1404
  979MOL0     C32084   5.917   1.894   4.643  0.0028 -0.1062  0.4066
  979MOL0     C32085   5.823   1.869   4.546 -0.4673  0.9861  0.1442
  979MOL0     C32086   5.688   1.874   4.570 -0.4115  0.4358 -0.3515
  979MOL0     C32087   5.631   1.888   4.694 -0.2469  0.1253  0.0213
  979MOL0     O32088   5.496   1.885   4.721 -0.1345 -0.1696  0.0911
  979MOL0     C32089   5.409   1.899   4.610 -0.1496 -1.1270 -0.6819
  979MOL0     C32090   5.258   1.874   4.644 -0.9931 -0.0797 -0.5900
  979MOL0     C32091   5.252   1.739   4.713 -0.1453 -0.2052 -0.4177
  979MOL0     C32092   5.317   1.607   4.641  0.8301  0.4286 -0.1803
  979MOL0     C32093   5.247   1.576   4.513 -0.6888 -0.6738 -0.3255
  979MOL0     C32094   5.195   1.547   4.408 -0.3322  0.8406  0.1110
  979MOL0     C32095   5.720   1.904   4.799 -0.2334 -0.2735  0.5173
  979MOL0     C32096   5.861   1.911   4.775  0.5599 -0.6849 -0.5254
  979MOL0     C32097   5.939   1.942   4.905  0.2697  0.6135  0.1356
  979MOL0     H32098   6.317   2.049   4.601  0.9890 -1.4819  0.8059
  979MOL0     H32099   6.539   2.042   4.471 -0.1859  1.4169 -1.8515
  979MOL0     H32100   6.636   2.167   4.290 -0.7445 -0.4256  0.4294
  979MOL0     H32101   6.683   2.109   4.127  0.8937  0.7394  0.7309
  979MOL0     H32102   6.410   2.232   4.196  0.1058 -0.3449  0.1973
  979MOL0     H32103   6.459   2.171   4.043  2.2439  1.2478 -1.3425
  979MOL0     H32104   6.669   2.329   4.047 -0.3680  1.0630 -0.7155
  979MOL0     H32105   6.593   2.397   4.194 -2.0640  1.5096 -0.6779
  979MOL0     H32106   6.422   2.376   3.960 -1.4262  2.7758 -1.6331
  979MOL0     H32107   6.405   2.477   4.095 -1.3581  1.8355 -2.6335
  979MOL0     H32108   6.627   2.508   3.892 -0.7167  0.0691 -0.7916
  979MOL0     H32109   6.475   2.592   3.893  1.6070  3.0132 -0.1635
  979MOL0     H32110   6.529   2.721   4.094 -0.3957 -0.2482  0.5644
  979MOL0     H32111   6.667   2.609   4.110 -0.9621 -2.7561 -1.0697
  979MOL0     H32112   6.773   2.721   3.894  1.2975  2.2158 -0.8731
  979MOL0     H32113   6.741   2.829   4.029 -2.0072  1.1031 -0.3420
  979MOL0     H32114   6.586   2.785   3.779  2.2538  0.0665 -0.7669
  979MOL0     H32115   6.505   2.877   3.913 -1.1494 -0.0729 -1.2893
  979MOL0     H32116   6.751   2.908   3.631 -3.0543  0.2804 -2.5303
  979MOL0     H32117   6.720   3.166   3.485 -0.7825 -1.0584  0.6560
  979MOL0     H32118   6.763   3.306   3.583 -1.0937  0.8642  1.8592
  979MOL0     H32119   6.952   3.095   3.489 -0.5051  0.8033 -1.3209
  979MOL0     H32120   6.965   3.266   3.471 -0.2211  1.1407  0.7210
  979MOL0     H32121   7.131   3.163   3.626  0.9720 -0.2396  3.5255
  979MOL0     H32122   6.994   3.131   3.735 -4.1949  1.1450 -1.5304
  979MOL0     H32123   7.082   3.313   3.815 -2.8928 -0.2057  1.2997
  979MOL0     H32124   6.931   3.359   3.729 -0.7162 -3.4478  0.7514
  979MOL0     H32125   7.063   3.561   3.878  4.0639  2.2648  0.8085
  979MOL0     H32126   7.134   3.786   3.911  0.0138  0.3108 -1.0806
  979MOL0     H32127   7.058   4.248   3.570  0.4988  1.4796  0.3746
  979MOL0     H32128   7.123   4.474   3.551  0.5364  0.6196  0.7952
  979MOL0     H32129   7.387   4.722   3.712 -2.0258  0.8240 -2.1551
  979MOL0     H32130   7.439   4.557   3.745 -4.0016 -0.1920 -0.0413
  979MOL0     H32131   7.644   4.583   3.680 -0.3576  0.1711 -0.7553
  979MOL0     H32132   7.604   4.652   3.522 -0.6856  2.0716 -1.3370
  979MOL0     H32133   7.765   4.769   3.691  0.3419  0.2181  2.3268
  979MOL0     H32134   7.628   4.860   3.617 -0.9400  1.2777  2.1880
  979MOL0     H32135   7.601   4.730   3.887  0.8781 -0.2508 -1.3568
  979MOL0     H32136   7.513   4.884   3.843 -2.5211 -2.6167  1.7166
  979MOL0     H32137   7.809   4.838   3.884 -0.8577 -1.3571 -2.1775
  979MOL0     H32138   7.698   4.931   3.986 -4.6268  4.1801 -1.8552
  979MOL0     H32139   7.768   5.013   3.703  2.4902 -2.4877  2.0728
  979MOL0     H32140   7.637   5.082   3.828 -1.7618 -0.4166 -1.4832
  979MOL0     H32141   7.928   5.107   3.812 -1.1188  1.0570 -1.9167
  979MOL0     H32142   7.838   5.118   3.968 -4.4467 -2.4213 -0.0046
  979MOL0     H32143   7.835   5.304   3.729  0.5031 -0.6687 -1.2084
  979MOL0     H32144   7.700   5.305   3.849  0.7862  1.5754 -0.4032
  979MOL0     H32145   7.537   4.382   3.606 -1.6174  0.5864  3.7026
  979MOL0     H32146   7.473   4.128   3.593  0.8722 -0.3728 -1.8318
  979MOL0     H32147   7.197   3.809   3.476 -3.5260  0.9615  0.2290
  979MOL0     H32148   7.161   3.564   3.474  1.7835 -0.7587  0.7027
  979MOL0     H32149   6.322   1.918   4.128 -2.7159  0.6239  0.0963
  979MOL0     H32150   6.130   1.892   4.246 -0.0687 -2.1932  1.9317
  979MOL0     H32151   5.873   1.854   4.451  1.1306 -0.6472  1.1613
  979MOL0     H32152   5.622   1.851   4.488  1.3918 -1.1047 -1.4562
  979MOL0     H32153   5.431   1.820   4.538  3.2228 -0.4199 -0.6304
  979MOL0     H32154   5.416   2.002   4.574  1.9358  0.0268  2.5767
  979MOL0     H32155   5.202   1.866   4.550  0.4366  0.7097 -1.5428
  979MOL0     H32156   5.216   1.949   4.711  0.0481  0.9263 -1.0360
  979MOL0     H32157   5.143   1.728   4.722 -0.1159  0.7376  1.9178
  979MOL0     H32158   5.288   1.750   4.815 -2.5021  0.3190  0.4324
  979MOL0     H32159   5.423   1.606   4.618  0.7918  0.5092 -0.3605
  979MOL0     H32160   5.306   1.520   4.708  4.6360 -1.6385 -1.9195
  979MOL0     H32161   5.149   1.506   4.320  2.1295  0.1464 -0.9294
  979MOL0     H32162   5.691   1.910   4.904  3.1570 -0.2361  1.5730
  979MOL0     H32163   6.043   1.971   4.886  0.0057  1.5636  0.0657
  979MOL0     H32164   5.901   2.026   4.964  0.8954  2.1736 -1.5681
  979MOL0     H32165   5.922   1.859   4.974 -1.5293 -0.2080 -1.2047
  980MOL0     O32166  10.184   4.224  10.447 -0.0947  0.8729 -0.0357
  980MOL0     C32167  10.075   4.165  10.438 -0.9309  0.4601  0.0479
  980MOL0     O32168  10.003   4.100  10.535  0.5571 -0.3461 -0.3957
  980MOL0     C32169  10.080   4.074  10.642  0.2755 -0.3625  0.4185
  980MOL0     C32170  10.164   3.962  10.640 -0.7932  0.2435  0.5718
  980MOL0     C32171  10.235   3.932  10.747 -0.6186  0.3010  0.1469
  980MOL0     C32172  10.224   3.998  10.864  0.2949  0.2665 -1.0107
  980MOL0     O32173  10.290   3.951  10.980  0.6923  0.2231 -0.0207
  980MOL0     C32174  10.409   4.018  11.010 -0.4592  0.1904 -0.1088
  980MOL0     C32175  10.531   3.929  11.014 -0.8312  0.4158 -0.0534
  980MOL0     C32176  10.559   3.841  10.887 -0.1747  0.3247 -0.0573
  980MOL0     C32177  10.678   3.746  10.901  0.7150 -0.1758  0.0408
  980MOL0     C32178  10.693   3.651  10.776  0.2203 -0.6679 -0.0229
  980MOL0     C32179  10.731   3.730  10.657  0.9804  0.1239 -1.2758
  980MOL0     C32180  10.771   3.642  10.546  0.0784  1.5089  0.1426
  980MOL0     C32181  10.767   3.696  10.398  0.4901  0.1024  0.4489
  980MOL0     N32182  10.873   3.799  10.383  0.1157 -0.4452 -0.0653
  980MOL0     C32183  10.893   3.910  10.461  0.1167 -0.1990  0.1477
  980MOL0     C32184  10.991   3.986  10.401  0.0672  0.3195 -0.2288
  980MOL0     C32185  11.036   4.126  10.435  0.0334 -1.3158  0.6213
  980MOL0     C32186  10.942   4.244  10.382 -0.4262 -0.1551 -0.2540
  980MOL0     C32187  10.954   4.275  10.236  1.1828  0.3799  0.7106
  980MOL0     C32188  10.942   4.416  10.188  0.5937 -0.4427 -0.5550
  980MOL0     O32189  10.936   4.429  10.047 -0.0110 -0.3047 -0.2525
  980MOL0     C32190  10.925   4.551   9.995  0.1341  0.3686  0.1663
  980MOL0     C32191  10.891   4.669  10.065  0.3880  0.6594  0.5136
  980MOL0     C32192  10.879   4.795  10.005 -0.4078 -0.2197 -1.0515
  980MOL0     C32193  10.903   4.811   9.868  0.1453  0.7088 -0.1181
  980MOL0     C32194  10.896   4.940   9.800  0.5938 -0.0722  0.3777
  980MOL0     O32195  10.930   5.049   9.879 -0.0763 -0.1512 -0.4145
  980MOL0     C32196  10.890   5.176   9.842  0.0046 -0.1791  0.4423
  980MOL0     C32197  10.784   5.241   9.897  0.9357 -0.5189  0.1091
  980MOL0     C32198  10.757   5.375   9.869 -0.0261 -0.0142 -0.1480
  980MOL0     C32199  10.838   5.450   9.785 -0.8791 -0.4702  0.0807
  980MOL0     O32200  10.806   5.575   9.772 -0.0897 -0.1864  0.0317
  980MOL0     C32201  10.873   5.658   9.670 -0.2201  0.3731 -0.4364
  980MOL0     C32202  10.823   5.806   9.671  0.4489 -0.3940 -0.0514
  980MOL0     C32203  10.900   5.871   9.782 -0.4178  0.6962 -0.7960
  980MOL0     C32204  10.837   6.006   9.821 -0.9496  0.0362 -0.0241
  980MOL0     C32205  10.914   6.076   9.928 -0.8625 -0.2828 -0.6573
  980MOL0     C32206  10.890   6.227   9.930 -0.0654 -0.0003  0.1996
  980MOL0     C32207  10.948   6.300  10.054  0.1378 -0.6620  0.6106
  980MOL0     C32208  10.913   6.442  10.056 -0.7711 -0.1211  0.4268
  980MOL0    Cl32209  10.979   6.547   9.919 -0.0601  0.8669 -0.1527
  980MOL0     C32210  10.956   5.382   9.734  0.2590  0.4490 -0.6751
  980MOL0     C32211  10.980   5.245   9.762  0.5279  0.0277 -0.1726
  980MOL0     O32212  10.849   4.941   9.687  0.5505 -0.0508 -0.4976
  980MOL0     C32213  10.929   4.698   9.787  0.4461  0.1077 -0.5161
  980MOL0     C32214  10.933   4.580   9.855 -0.6027  0.1165 -0.8195
  980MOL0     N32215  11.025   3.914  10.284  0.4879 -0.0088 -1.3615
  980MOL0     N32216  10.957   3.804  10.276  0.2607  0.4237  0.1796
  980MOL0     C32217  10.140   4.115  10.869 -0.0968  1.1410  0.4996
  980MOL0     C32218  10.068   4.152  10.760 -0.3348  0.3279 -0.3268
  980MOL0     C32219  10.006   4.161  10.302 -0.3911  0.0644  0.2740
  980MOL0     C32220  10.017   4.274  10.224 -0.1063 -0.5188  0.0777
  980MOL0     C32221   9.956   4.279  10.096  0.5810  0.3288 -0.2994
  980MOL0     C32222   9.893   4.174  10.040 -0.6474 -0.4049 -0.1364
  980MOL0     O32223   9.828   4.176   9.920 -0.0640 -0.0731  0.5510
  980MOL0     C32224   9.776   4.053   9.853 -0.0573 -0.2362  0.2482
  980MOL0     C32225   9.876   3.958   9.806  0.2017 -0.2689 -0.1622
  980MOL0     C32226   9.984   4.019   9.712  0.3617 -0.1415 -0.1516
  980MOL0     C32227  10.126   3.965   9.733 -0.5902  0.8550  0.1362
  980MOL0     C32228  10.172   3.993   9.870 -0.1677 -0.4752  0.5949
  980MOL0     C32229  10.199   4.012   9.989 -0.1961 -0.9671  0.0074
  980MOL0     C32230   9.888   4.059  10.117 -0.5079 -0.0808  0.6130
  980MOL0     C32231   9.947   4.053  10.247  0.3620  0.3996  1.1088
  980MOL0     C32232   9.949   3.922  10.323  0.1249  0.3748  0.7558
  980MOL0     H32233  10.168   3.891  10.558  1.3289  2.0799 -1.0391
  980MOL0     H32234  10.301   3.846  10.754 -1.7984 -0.6398 -0.0312
  980MOL0     H32235  10.431   4.096  10.937  2.5199 -0.6447 -0.2050
  980MOL0     H32236  10.410   4.074  11.104  0.7503 -1.6700  1.0577
  980MOL0     H32237  10.530   3.850  11.091  2.7345 -0.8207 -1.0828
  980MOL0     H32238  10.618   3.983  11.053 -1.9530  2.1749  0.0865
  980MOL0     H32239  10.578   3.906  10.801  0.4975 -0.2273 -0.3302
  980MOL0     H32240  10.463   3.791  10.871  0.8385 -1.8150  0.3356
  980MOL0     H32241  10.778   3.785  10.924  0.6095 -0.8141  1.7161
  980MOL0     H32242  10.651   3.676  10.981  0.1196  2.1893  2.0491
  980MOL0     H32243  10.768   3.576  10.802  0.8587  0.0562  0.2686
  980MOL0     H32244  10.606   3.593  10.743  1.8948 -2.7549 -0.9894
  980MOL0     H32245  10.648   3.790  10.620 -0.2978 -1.6154 -1.3691
  980MOL0     H32246  10.815   3.798  10.674  2.6757 -1.6284 -2.2930
  980MOL0     H32247  10.700   3.559  10.543  0.7721  0.8499  1.1558
  980MOL0     H32248  10.870   3.596  10.557  1.1332  2.4155 -3.7973
  980MOL0     H32249  10.780   3.607  10.337  2.9894  0.3459  0.5574
  980MOL0     H32250  10.675   3.742  10.360  1.5615  1.6499 -0.3774
  980MOL0     H32251  10.839   3.935  10.552  2.4028  1.3877  1.1540
  980MOL0     H32252  11.054   4.144  10.541  0.4695  1.0898  0.2057
  980MOL0     H32253  11.137   4.138  10.392 -0.8873 -1.6228 -1.8219
  980MOL0     H32254  10.840   4.215  10.410 -0.0897  1.1202  2.6681
  980MOL0     H32255  10.961   4.337  10.436 -4.1969  0.8855 -0.3991
  980MOL0     H32256  10.892   4.212  10.172  3.1151 -0.3650 -0.5326
  980MOL0     H32257  11.061   4.254  10.219  0.9343 -1.1531  0.8707
  980MOL0     H32258  11.026   4.473  10.230 -3.1289  3.3544  2.6224
  980MOL0     H32259  10.848   4.458  10.226  0.8933 -0.0113 -0.2815
  980MOL0     H32260  10.872   4.657  10.171 -5.2746  0.7275 -0.1513
  980MOL0     H32261  10.836   4.880  10.058  0.0801  0.9793 -2.5085
  980MOL0     H32262  10.714   5.186   9.959  0.4072 -0.6520 -0.5882
  980MOL0     H32263  10.670   5.420   9.917 -0.6215 -0.2069 -1.0128
  980MOL0     H32264  10.980   5.664   9.691 -0.5327  0.9086  1.1989
  980MOL0     H32265  10.857   5.622   9.568 -4.0074  0.7230 -0.1048
  980MOL0     H32266  10.837   5.860   9.577  0.3835 -0.1025  0.1032
  980MOL0     H32267  10.715   5.808   9.686  0.1986  1.9709 -1.5321
  980MOL0     H32268  10.888   5.807   9.869 -0.8951  3.6457  1.4702
  980MOL0     H32269  11.008   5.881   9.764 -0.1626  1.0239  0.7753
  980MOL0     H32270  10.734   5.993   9.856 -1.3995  1.3681 -0.7638
  980MOL0     H32271  10.838   6.070   9.732 -0.4497  1.1989  0.7872
  980MOL0     H32272  11.021   6.056   9.922 -0.7117  0.4010 -0.3863
  980MOL0     H32273  10.889   6.045  10.030  1.2734  1.0181  0.3561
  980MOL0     H32274  10.917   6.283   9.840  1.2385  1.0137  1.1919
  980MOL0     H32275  10.783   6.240   9.951  0.0902  0.2769  0.8272
  980MOL0     H32276  11.054   6.290  10.078  0.4181  2.3978  1.0550
  980MOL0     H32277  10.893   6.252  10.137 -0.1737 -4.4464 -1.5316
  980MOL0     H32278  10.807   6.452  10.031 -0.3876  1.1420 -0.8012
  980MOL0     H32279  10.919   6.481  10.158 -1.9105  0.8529  0.1332
  980MOL0     H32280  11.033   5.436   9.681 -0.9575  2.0774 -0.8636
  980MOL0     H32281  11.067   5.182   9.743 -0.4428 -0.8520 -1.9593
  980MOL0     H32282  10.930   4.695   9.678  0.3302  0.8475 -0.5423
  980MOL0     H32283  10.939   4.501   9.780 -1.5468 -0.3318 -0.4375
  980MOL0     H32284  10.114   4.150  10.969 -0.6759  2.9889 -0.2619
  980MOL0     H32285   9.995   4.229  10.782  1.7820  2.7957 -1.4143
  980MOL0     H32286  10.056   4.360  10.278 -1.7299 -0.3728  1.0716
  980MOL0     H32287   9.991   4.355  10.027  3.8936 -1.8167 -1.2534
  980MOL0     H32288   9.723   4.105   9.773 -1.4592  0.0280  1.3159
  980MOL0     H32289   9.694   4.006   9.908 -1.2769 -0.5681 -1.7569
  980MOL0     H32290   9.812   3.888   9.752  3.4815 -2.1381 -1.9940
  980MOL0     H32291   9.929   3.907   9.887  0.4818 -3.6723 -2.2305
  980MOL0     H32292   9.985   4.128   9.714  2.0906 -0.1365  1.3233
  980MOL0     H32293   9.956   3.997   9.608  1.3333  0.4419 -0.5600
  980MOL0     H32294  10.120   3.857   9.725  3.1207 -0.2533  6.1249
  980MOL0     H32295  10.203   4.007   9.668  0.8257  2.3920  2.6204
  980MOL0     H32296  10.213   4.011  10.095 -0.0685 -0.1516  0.0012
  980MOL0     H32297   9.832   3.978  10.071 -0.2335  2.3502 -4.7806
  980MOL0     H32298   9.882   3.912  10.410 -1.7942  0.6377 -0.6193
  980MOL0     H32299   9.943   3.838  10.254  1.4321 -2.3318  3.6993
  980MOL0     H32300  10.055   3.912  10.347 -0.5004  1.7577  5.0351
  981MOL0     O32301  11.169   5.426   4.350 -0.1550 -0.2244 -0.4838
  981MOL0     C32302  11.238   5.336   4.386 -0.4079  0.3487  0.3878
  981MOL0     O32303  11.361   5.314   4.335  0.2848 -0.7797  0.1705
  981MOL0     C32304  11.398   5.392   4.228 -1.0319  1.3556  1.0053
  981MOL0     C32305  11.453   5.517   4.255 -0.3982  0.4883  0.5247
  981MOL0     C32306  11.475   5.609   4.151  0.3576 -0.0773  0.7450
  981MOL0     C32307  11.456   5.568   4.015 -0.2397 -0.4215 -0.1532
  981MOL0     O32308  11.480   5.665   3.913  0.5308  0.8655 -0.1555
  981MOL0     C32309  11.413   5.788   3.924 -0.0753  0.6947 -0.2188
  981MOL0     C32310  11.489   5.888   3.845 -0.3212 -0.1056  0.4192
  981MOL0     C32311  11.449   6.038   3.855 -0.9558 -0.5377 -0.1009
  981MOL0     C32312  11.402   6.085   4.001  0.3962  0.2622  0.6676
  981MOL0     C32313  11.354   6.231   4.000 -0.8946  0.3765  0.5579
  981MOL0     C32314  11.314   6.286   4.136 -0.6989 -0.5795 -0.2587
  981MOL0     C32315  11.358   6.425   4.160 -0.2272 -0.7996 -0.2843
  981MOL0     C32316  11.275   6.530   4.093 -0.6416  0.3349  0.3761
  981MOL0     N32317  11.304   6.656   4.165 -0.3591 -0.7548  0.5798
  981MOL0     C32318  11.284   6.676   4.292  0.1314  0.2325  0.3315
  981MOL0     C32319  11.353   6.793   4.316  0.2274  0.3673 -1.1199
  981MOL0     C32320  11.377   6.839   4.461 -1.0980 -0.6019 -0.7243
  981MOL0     C32321  11.533   6.839   4.481 -0.3751  0.3392  0.2448
  981MOL0     C32322  11.592   6.896   4.613  0.2198 -0.1315 -0.5615
  981MOL0     C32323  11.728   6.965   4.596 -0.1653 -0.5893 -1.1499
  981MOL0     O32324  11.782   7.008   4.725  0.1081 -0.1131 -0.0309
  981MOL0     C32325  11.906   7.077   4.730 -0.2597  0.8271  0.6194
  981MOL0     C32326  11.958   7.080   4.858 -0.5526 -0.0833  0.3023
  981MOL0     C32327  12.085   7.132   4.880 -0.0289  0.5406  1.0340
  981MOL0     C32328  12.162   7.186   4.778  0.2667 -0.1543  0.1800
  981MOL0     C32329  12.298   7.239   4.811  0.9729 -0.0614  0.1543
  981MOL0     O32330  12.339   7.244   4.939  0.0094  0.2322 -0.5768
  981MOL0     C32331  12.432   7.321   4.989 -0.7251 -0.3264  0.0430
  981MOL0     C32332  12.387   7.409   5.094 -0.3083 -0.0461  0.4363
  981MOL0     C32333  12.478   7.485   5.163  0.0471 -0.6121  0.1762
  981MOL0     C32334  12.610   7.499   5.109  0.8933  0.0411  0.6900
  981MOL0     O32335  12.683   7.601   5.163  0.3195 -0.6710  0.2995
  981MOL0     C32336  12.826   7.602   5.132 -0.4432  0.1071 -0.5326
  981MOL0     C32337  12.909   7.698   5.232 -0.1653  0.4766  0.3213
  981MOL0     C32338  13.065   7.676   5.218  0.8517 -0.7815  0.0854
  981MOL0     C32339  13.112   7.732   5.094 -0.6947  0.0874 -0.0150
  981MOL0     C32340  13.140   7.638   4.977 -0.9661 -0.8477  0.6589
  981MOL0     C32341  13.199   7.705   4.859  0.2069 -0.9197 -0.1132
  981MOL0     C32342  13.301   7.615   4.777  0.0956  0.2860  0.4730
  981MOL0     C32343  13.307   7.661   4.636  0.8091 -0.9747 -0.0720
  981MOL0    Cl32344  13.360   7.834   4.637 -0.2209  0.3169 -0.0287
  981MOL0     C32345  12.647   7.428   4.990  0.9384 -0.1092  0.2413
  981MOL0     C32346  12.562   7.333   4.933 -0.0245 -0.2436 -0.1698
  981MOL0     O32347  12.365   7.274   4.710 -0.2154 -0.1394 -0.7992
  981MOL0     C32348  12.110   7.165   4.647 -0.1191  0.2975  1.2007
  981MOL0     C32349  11.981   7.116   4.624  0.2004 -0.9096 -0.3735
  981MOL0     N32350  11.418   6.839   4.203  0.1040  0.3913  0.3489
  981MOL0     N32351  11.389   6.755   4.108  0.7898  0.7497 -0.4332
  981MOL0     C32352  11.425   5.436   3.988  0.9488 -0.3329  0.5853
  981MOL0     C32353  11.386   5.344   4.090  0.1193  0.5484 -0.1774
  981MOL0     C32354  11.196   5.255   4.503  0.2273  0.7021 -0.3307
  981MOL0     C32355  11.289   5.190   4.585 -0.1700 -0.0245 -0.3110
  981MOL0     C32356  11.253   5.124   4.701 -0.1446 -0.3645  0.0571
  981MOL0     C32357  11.122   5.107   4.739  0.7031 -0.5533 -0.3472
  981MOL0     O32358  11.103   5.059   4.864  0.9535  0.1079  0.0393
  981MOL0     C32359  11.024   5.140   4.956 -0.9334  0.4362 -1.2240
  981MOL0     C32360  11.058   5.117   5.097  0.0386  0.3835  0.3104
  981MOL0     C32361  11.200   5.164   5.135 -0.2193 -1.1657 -0.2922
  981MOL0     C32362  11.230   5.313   5.182 -1.3835  0.9659  0.7930
  981MOL0     C32363  11.379   5.321   5.193  0.2897  0.2861 -0.8637
  981MOL0     C32364  11.501   5.319   5.204  0.6705  0.6149  0.8087
  981MOL0     C32365  11.021   5.179   4.660 -0.3511  1.2325  0.1561
  981MOL0     C32366  11.061   5.235   4.536  0.0681 -0.2844  0.2826
  981MOL0     C32367  10.948   5.302   4.459 -0.3526  0.2135  0.1263
  981MOL0     H32368  11.463   5.546   4.359 -1.7870 -1.8224  1.3905
  981MOL0     H32369  11.509   5.712   4.165 -1.8135  1.0701 -1.5805
  981MOL0     H32370  11.311   5.787   3.883 -1.0893 -0.5081  2.1599
  981MOL0     H32371  11.419   5.823   4.027  1.0603 -0.3183  0.0874
  981MOL0     H32372  11.486   5.850   3.743  0.0487 -2.3285  1.1827
  981MOL0     H32373  11.593   5.891   3.877 -0.2335  1.1651  0.1017
  981MOL0     H32374  11.366   6.038   3.785 -0.3840  0.2737 -0.8015
  981MOL0     H32375  11.531   6.100   3.818 -2.3168  0.8421 -0.9031
  981MOL0     H32376  11.310   6.034   4.029 -1.1689  2.1393 -0.7411
  981MOL0     H32377  11.483   6.058   4.069  1.3051  0.5683 -0.2503
  981MOL0     H32378  11.428   6.296   3.953 -1.0352 -0.3271 -0.6703
  981MOL0     H32379  11.260   6.236   3.944 -0.2868  1.6212 -0.3857
  981MOL0     H32380  11.206   6.282   4.154 -0.6034  1.2701  0.9876
  981MOL0     H32381  11.359   6.229   4.217  1.6745  1.2494 -0.1878
  981MOL0     H32382  11.467   6.426   4.146 -0.1976  0.3398 -0.1040
  981MOL0     H32383  11.359   6.438   4.269 -2.0902  0.8039 -0.3983
  981MOL0     H32384  11.300   6.558   3.990  2.8182 -1.1266  0.6766
  981MOL0     H32385  11.171   6.499   4.105 -0.3066 -1.5695 -1.1090
  981MOL0     H32386  11.247   6.606   4.367  0.1505 -0.9215 -0.7028
  981MOL0     H32387  11.350   6.944   4.475 -1.3081 -0.6227 -0.9725
  981MOL0     H32388  11.315   6.778   4.528 -0.1033 -1.1716 -0.2929
  981MOL0     H32389  11.580   6.749   4.441  0.6782  2.5015 -4.1753
  981MOL0     H32390  11.563   6.908   4.401  1.0743 -1.1501 -0.5589
  981MOL0     H32391  11.596   6.820   4.692 -1.8453  2.2811  2.0628
  981MOL0     H32392  11.523   6.975   4.645 -2.3745 -2.0692 -0.9549
  981MOL0     H32393  11.706   7.047   4.527  0.5615  0.5880 -0.0234
  981MOL0     H32394  11.801   6.903   4.543 -0.8224 -2.3819 -0.0680
  981MOL0     H32395  11.906   7.045   4.947  0.0677  0.4078  0.8594
  981MOL0     H32396  12.111   7.135   4.985  0.8672 -4.0244  1.1313
  981MOL0     H32397  12.294   7.389   5.146 -0.2159 -0.6880  0.3579
  981MOL0     H32398  12.446   7.549   5.245  0.5344 -1.0787  0.7403
  981MOL0     H32399  12.856   7.497   5.130 -0.3769  0.0916 -3.4891
  981MOL0     H32400  12.839   7.640   5.030 -5.3629  0.3029 -1.3523
  981MOL0     H32401  12.894   7.805   5.218 -2.5027  0.4057  1.7749
  981MOL0     H32402  12.880   7.675   5.335 -0.4619  2.4106  0.7080
  981MOL0     H32403  13.118   7.728   5.298  2.5407 -1.7417 -0.3667
  981MOL0     H32404  13.085   7.570   5.234  2.6291 -0.5222 -0.1703
  981MOL0     H32405  13.200   7.793   5.117  1.3595 -2.1582 -1.3879
  981MOL0     H32406  13.039   7.801   5.052 -1.4550 -2.7177 -3.8491
  981MOL0     H32407  13.053   7.576   4.952 -2.3814  0.9494  0.9020
  981MOL0     H32408  13.224   7.578   5.014  1.8951  1.7110 -1.3009
  981MOL0     H32409  13.124   7.749   4.792  2.0907 -0.2063 -1.8782
  981MOL0     H32410  13.258   7.790   4.895 -4.6872  2.5970  0.5925
  981MOL0     H32411  13.274   7.509   4.786  2.0592 -0.2910  0.1434
  981MOL0     H32412  13.400   7.631   4.822  0.4486  3.0341 -1.0543
  981MOL0     H32413  13.372   7.603   4.570  1.1827  0.5992 -1.1317
  981MOL0     H32414  13.205   7.659   4.597  0.1725 -0.4419  1.4605
  981MOL0     H32415  12.739   7.440   4.933 -0.9781  3.6228 -2.4737
  981MOL0     H32416  12.593   7.271   4.850 -3.1054 -1.1776 -0.7586
  981MOL0     H32417  12.168   7.199   4.562 -0.4787 -4.0013 -1.0465
  981MOL0     H32418  11.954   7.115   4.519  0.0422  1.5860 -0.4303
  981MOL0     H32419  11.406   5.412   3.884  0.0007  2.9494 -0.1221
  981MOL0     H32420  11.358   5.244   4.060  1.8731 -0.0123 -0.0671
  981MOL0     H32421  11.391   5.183   4.550  1.1287  2.6899  2.4332
  981MOL0     H32422  11.329   5.087   4.769  1.8378 -0.1632 -1.9323
  981MOL0     H32423  10.920   5.110   4.937 -1.0795 -0.8110  1.1376
  981MOL0     H32424  11.045   5.247   4.950  1.6122  0.2698  2.0894
  981MOL0     H32425  11.046   5.014   5.131 -1.4205  1.1670  2.3500
  981MOL0     H32426  10.991   5.184   5.152 -0.3531  0.8582 -0.7076
  981MOL0     H32427  11.268   5.129   5.057  0.8522 -0.5293  0.3464
  981MOL0     H32428  11.225   5.096   5.216 -1.2574 -1.3700 -0.1238
  981MOL0     H32429  11.204   5.382   5.101  2.1632 -0.4520 -1.8233
  981MOL0     H32430  11.180   5.336   5.276 -1.6467 -0.3302  0.9871
  981MOL0     H32431  11.608   5.316   5.210  0.6969  0.4744  0.3606
  981MOL0     H32432  10.919   5.188   4.697 -0.2112  0.6919  0.6823
  981MOL0     H32433  10.951   5.263   4.357 -1.8507 -2.8763  1.1368
  981MOL0     H32434  10.847   5.268   4.486 -0.5365  0.6043 -0.0635
  981MOL0     H32435  10.944   5.410   4.472 -1.7114 -0.0323  2.4656
  982MOL0     O32436   2.266   6.612  11.434  0.2183 -0.4524 -0.9002
  982MOL0     C32437   2.336   6.541  11.359  0.1834 -0.1369 -0.2054
  982MOL0     O32438   2.303   6.414  11.313  0.5298 -0.4184 -0.1242
  982MOL0     C32439   2.168   6.389  11.313 -0.2357  0.8373 -0.2311
  982MOL0     C32440   2.111   6.365  11.190  0.3378 -0.2099  0.8771
  982MOL0     C32441   1.970   6.345  11.182 -0.7483 -1.1286 -0.7088
  982MOL0     C32442   1.895   6.357  11.296  0.1945  0.1134  0.3461
  982MOL0     O32443   1.760   6.342  11.284  0.2429  0.0337 -0.3030
  982MOL0     C32444   1.716   6.224  11.337  0.0809 -0.3265  0.1617
  982MOL0     C32445   1.576   6.208  11.307 -0.2687 -0.8968 -0.2094
  982MOL0     C32446   1.520   6.078  11.364  0.7106 -0.2234 -0.1097
  982MOL0     C32447   1.364   6.076  11.343 -0.1699  0.8166  0.0153
  982MOL0     C32448   1.311   5.948  11.393  0.2623  0.4071 -0.3635
  982MOL0     C32449   1.166   5.945  11.379 -0.1174 -0.8922 -0.3395
  982MOL0     C32450   1.105   5.809  11.414 -0.1528 -0.5546 -0.0800
  982MOL0     C32451   0.998   5.749  11.327 -0.6432  0.2877  1.0112
  982MOL0     N32452   0.869   5.830  11.341 -0.2523 -0.2005 -0.5122
  982MOL0     C32453   0.857   5.970  11.340  0.1654  0.1707 -0.7619
  982MOL0     C32454   0.721   5.986  11.336  0.1085  0.1970  0.0418
  982MOL0     C32455   0.656   6.131  11.345  0.2055  0.1992  0.1533
  982MOL0     C32456   0.503   6.123  11.319  0.0178 -0.2753  0.9930
  982MOL0     C32457   0.425   6.256  11.347  0.4277 -0.0779  0.7116
  982MOL0     C32458   0.474   6.310  11.480 -0.2594 -0.6563  0.2805
  982MOL0     O32459   0.384   6.401  11.541 -0.0912 -0.4997 -0.0147
  982MOL0     C32460   0.407   6.472  11.658 -0.3409  0.0866  1.2574
  982MOL0     C32461   0.529   6.502  11.715 -1.1072 -0.9343  0.4083
  982MOL0     C32462   0.542   6.582  11.828  0.3444  0.2123 -0.6875
  982MOL0     C32463   0.432   6.621  11.900 -0.4869 -0.9771 -0.2160
  982MOL0     C32464   0.440   6.687  12.033  0.0088  0.4741 -0.1457
  982MOL0     O32465   0.321   6.686  12.098 -0.3078  0.6164  0.9370
  982MOL0     C32466   0.322   6.742  12.224  0.0739 -0.7741  1.3322
  982MOL0     C32467   0.291   6.875  12.255  0.5454 -0.1582 -0.6656
  982MOL0     C32468   0.290   6.926  12.390 -0.2542  0.0950  0.5254
  982MOL0     C32469   0.325   6.840  12.495  0.5339  0.6585  0.2340
  982MOL0     O32470   0.320   6.879  12.632  0.9193 -0.2262 -0.4077
  982MOL0     C32471   0.454   6.865  12.688  0.1267 -0.0139 -0.3141
  982MOL0     C32472   0.483   6.990  12.784  0.0517  0.3896 -0.0754
  982MOL0     C32473   0.583   6.962  12.886  0.2418 -0.4191 -0.4004
  982MOL0     C32474   0.537   6.856  12.986  0.0752 -0.1287  0.0275
  982MOL0     C32475   0.405   6.864  13.058  0.0303  0.0490  0.5767
  982MOL0     C32476   0.383   7.004  13.111  0.1674  0.4587  1.1589
  982MOL0     C32477   0.270   7.017  13.213 -0.4442  0.5611  0.2513
  982MOL0     C32478   0.260   7.157  13.247 -1.1331 -0.4664 -0.4308
  982MOL0    Cl32479   0.154   7.179  13.386  0.3625  0.0767  0.1678
  982MOL0     C32480   0.349   6.709  12.451  0.1952 -0.4572 -0.2260
  982MOL0     C32481   0.345   6.665  12.327  0.6970  0.1628 -1.1261
  982MOL0     O32482   0.544   6.733  12.080  0.2504  0.1804 -0.8001
  982MOL0     C32483   0.307   6.595  11.844  0.3700  0.3836 -0.5440
  982MOL0     C32484   0.297   6.521  11.731 -0.1594  0.8342  0.0420
  982MOL0     N32485   0.657   5.868  11.307  0.2097  0.5909  0.1112
  982MOL0     N32486   0.747   5.772  11.324  0.1929 -0.5365  0.6085
  982MOL0     C32487   1.950   6.364  11.424  0.6886  0.0652 -0.1086
  982MOL0     C32488   2.091   6.380  11.431  0.0337 -1.4876 -0.0383
  982MOL0     C32489   2.483   6.583  11.353  1.3841 -0.3337  0.0851
  982MOL0     C32490   2.530   6.699  11.419  1.1902 -0.3238 -0.9737
  982MOL0     C32491   2.658   6.741  11.406  0.1314  0.0728 -0.6911
  982MOL0     C32492   2.758   6.679  11.334 -0.8462  0.6182  0.8187
  982MOL0     O32493   2.876   6.746  11.307 -0.0787  0.0346 -0.3787
  982MOL0     C32494   2.909   6.782  11.174 -1.2787 -1.0586 -0.2887
  982MOL0     C32495   3.031   6.873  11.177 -1.5429 -1.2419 -0.3284
  982MOL0     C32496   3.093   6.887  11.036  1.0254 -0.2350 -0.6916
  982MOL0     C32497   3.198   7.001  11.012 -0.7189  0.1089 -0.2903
  982MOL0     C32498   3.318   6.986  11.099  0.4941  0.4068  0.6476
  982MOL0     C32499   3.410   6.979  11.183  0.0731 -0.1965  0.2356
  982MOL0     C32500   2.713   6.563  11.265  0.9229 -0.6475 -0.4854
  982MOL0     C32501   2.577   6.514  11.277 -1.1078 -0.6418  0.1153
  982MOL0     C32502   2.550   6.412  11.179 -0.2000 -0.4750  0.6117
  982MOL0     H32503   2.176   6.352  11.104  0.5091  0.4434  0.9105
  982MOL0     H32504   1.929   6.331  11.082 -2.0934  1.1997 -0.5503
  982MOL0     H32505   1.773   6.145  11.287  0.0112  0.1986 -0.7821
  982MOL0     H32506   1.741   6.213  11.443 -1.5059  3.3726  1.0786
  982MOL0     H32507   1.550   6.235  11.204  2.4450 -2.0216 -1.3090
  982MOL0     H32508   1.534   6.281  11.376  0.5638 -1.6738  1.1806
  982MOL0     H32509   1.553   6.073  11.468 -0.1404  2.7789  0.4119
  982MOL0     H32510   1.561   5.997  11.303  0.8710 -0.1767 -0.0658
  982MOL0     H32511   1.322   6.158  11.401  0.7312  1.4890 -0.2640
  982MOL0     H32512   1.334   6.092  11.240 -1.4206  1.5997  0.4822
  982MOL0     H32513   1.360   5.868  11.338 -0.2008  1.4586 -2.4280
  982MOL0     H32514   1.344   5.936  11.496 -4.0538 -2.9038  0.9730
  982MOL0     H32515   1.120   6.013  11.452  1.1138 -0.7815  0.3630
  982MOL0     H32516   1.137   5.982  11.280  1.8729  3.1522  0.3687
  982MOL0     H32517   1.056   5.815  11.512 -4.2923  3.9613 -1.9730
  982MOL0     H32518   1.184   5.735  11.404 -0.9028 -1.1627 -2.2125
  982MOL0     H32519   1.024   5.738  11.221 -0.2465  1.5623  0.9624
  982MOL0     H32520   0.981   5.644  11.353 -1.2871  0.0216 -0.3674
  982MOL0     H32521   0.932   6.048  11.350  0.9334 -0.8036  2.0246
  982MOL0     H32522   0.680   6.176  11.442 -3.0438  2.7206 -0.0376
  982MOL0     H32523   0.703   6.179  11.259 -1.1349 -1.5108 -1.6360
  982MOL0     H32524   0.469   6.086  11.222  0.1980  1.0432  0.4158
  982MOL0     H32525   0.473   6.046  11.391 -0.6442 -0.7764  0.2046
  982MOL0     H32526   0.318   6.236  11.353  0.8586 -2.8974  0.0606
  982MOL0     H32527   0.439   6.337  11.274 -0.8267  1.5112  2.1328
  982MOL0     H32528   0.570   6.359  11.462 -1.4046  1.6791  0.0811
  982MOL0     H32529   0.484   6.231  11.555 -1.3952  1.2347  2.5807
  982MOL0     H32530   0.612   6.483  11.648  0.0445  0.8927  1.2221
  982MOL0     H32531   0.644   6.605  11.859  1.0826 -3.8285  0.5354
  982MOL0     H32532   0.271   6.949  12.178  1.6235 -0.1450 -0.9435
  982MOL0     H32533   0.253   7.026  12.405  2.4195  1.0871  1.0112
  982MOL0     H32534   0.457   6.775  12.749  0.4380  1.8010  2.5702
  982MOL0     H32535   0.528   6.858  12.607  1.6721  1.9709  0.8310
  982MOL0     H32536   0.505   7.074  12.718 -3.6091 -0.8805 -3.2883
  982MOL0     H32537   0.388   7.008  12.836 -0.9120  1.1930 -2.0107
  982MOL0     H32538   0.680   6.938  12.841  0.6971  0.7039 -0.0469
  982MOL0     H32539   0.608   7.049  12.947 -0.3270  0.7543 -1.7920
  982MOL0     H32540   0.614   6.857  13.064  0.0243 -1.7805  0.1389
  982MOL0     H32541   0.552   6.757  12.943 -1.5184 -1.5683  2.4960
  982MOL0     H32542   0.412   6.800  13.147  0.5645 -0.6353  0.0521
  982MOL0     H32543   0.320   6.839  12.994 -0.0459  1.1237  0.2447
  982MOL0     H32544   0.478   7.033  13.158  1.3866  1.0252 -1.4987
  982MOL0     H32545   0.372   7.080  13.033  0.3421  0.1285  0.8106
  982MOL0     H32546   0.294   6.956  13.300  0.7086 -1.4920 -1.4219
  982MOL0     H32547   0.174   6.983  13.173 -0.7943  1.2064  0.5282
  982MOL0     H32548   0.359   7.196  13.273 -0.2323 -1.1564 -2.5463
  982MOL0     H32549   0.215   7.214  13.165  1.1514  2.6828  0.2916
  982MOL0     H32550   0.373   6.628  12.518  0.4033 -1.1150 -1.0762
  982MOL0     H32551   0.376   6.562  12.309  0.6016 -0.3993  1.5214
  982MOL0     H32552   0.220   6.618  11.905  1.4557 -3.6147  3.0093
  982MOL0     H32553   0.198   6.490  11.698  0.4288 -2.6799  1.1210
  982MOL0     H32554   1.893   6.372  11.516  1.8217 -1.1945  0.7342
  982MOL0     H32555   2.141   6.387  11.527  0.7867  0.6399 -0.5243
  982MOL0     H32556   2.463   6.748  11.488  3.1000 -0.6318  1.2148
  982MOL0     H32557   2.692   6.828  11.460  2.5694 -0.0921 -1.8410
  982MOL0     H32558   2.827   6.847  11.143 -1.9226  0.2194  3.5195
  982MOL0     H32559   2.919   6.693  11.112  0.4471 -1.5286  0.6098
  982MOL0     H32560   3.106   6.825  11.240  2.0826  0.8596 -2.6781
  982MOL0     H32561   2.986   6.962  11.224  0.0415 -0.2780 -0.5542
  982MOL0     H32562   3.011   6.908  10.966 -1.0887 -2.4135  0.9509
  982MOL0     H32563   3.134   6.789  11.009 -1.2673 -1.0771 -1.4528
  982MOL0     H32564   3.238   6.983  10.912  0.6899  1.5984 -0.0292
  982MOL0     H32565   3.155   7.101  11.015  1.3400  1.1106 -1.8069
  982MOL0     H32566   3.484   6.976  11.261  0.9873 -1.7385 -0.6252
  982MOL0     H32567   2.787   6.521  11.198  2.1407 -2.2012  1.7337
  982MOL0     H32568   2.480   6.454  11.105 -0.3294 -1.3141  0.2438
  982MOL0     H32569   2.636   6.377  11.121 -1.0039 -2.5765  0.5802
  982MOL0     H32570   2.514   6.321  11.228  0.3272 -1.7280 -1.2262
  983MOL0     O32571   8.441   9.197   4.101 -0.1766 -0.2638 -0.2312
  983MOL0     C32572   8.369   9.178   4.204 -0.0969 -0.3301  0.8925
  983MOL0     O32573   8.413   9.186   4.334 -0.2943  0.4760  0.0869
  983MOL0     C32574   8.548   9.205   4.333  0.0887  0.2886  0.1117
  983MOL0     C32575   8.592   9.339   4.342  0.7629 -0.0926 -0.4718
  983MOL0     C32576   8.728   9.354   4.363  0.7315 -0.4597  0.7059
  983MOL0     C32577   8.812   9.252   4.371  0.6325  0.5020 -0.6708
  983MOL0     O32578   8.949   9.285   4.393 -0.1226  0.6652  0.6568
  983MOL0     C32579   9.055   9.190   4.372  0.7363 -0.5781  0.2230
  983MOL0     C32580   9.184   9.280   4.355  0.5665 -0.4796 -0.2781
  983MOL0     C32581   9.308   9.203   4.407  0.3603  0.2589 -0.8137
  983MOL0     C32582   9.430   9.286   4.378  0.2851 -0.0873  0.2137
  983MOL0     C32583   9.561   9.211   4.397  1.0037 -0.0733 -0.7786
  983MOL0     C32584   9.577   9.152   4.543  0.3772  0.2867 -0.3350
  983MOL0     C32585   9.730   9.107   4.562  0.7895 -0.4262 -0.0027
  983MOL0     C32586   9.744   8.999   4.678  0.1606 -0.6043 -0.5616
  983MOL0     N32587   9.731   8.863   4.624  0.4810 -0.9773  0.0097
  983MOL0     C32588   9.828   8.781   4.573 -0.4104  0.4948 -0.3220
  983MOL0     C32589   9.774   8.662   4.565 -0.8282  0.7307  0.2259
  983MOL0     C32590   9.845   8.545   4.507 -1.1519 -1.5564  0.4328
  983MOL0     C32591   9.944   8.485   4.608 -0.2991 -0.1648 -0.7546
  983MOL0     C32592   9.875   8.449   4.744 -0.7177  0.8929  0.0773
  983MOL0     C32593   9.864   8.555   4.856 -0.2716 -0.3804  0.2863
  983MOL0     O32594   9.988   8.597   4.904 -0.7341  0.3503  0.1280
  983MOL0     C32595  10.015   8.728   4.930  0.0714  0.8104 -0.4302
  983MOL0     C32596  10.137   8.780   4.876  0.8549  0.3070 -0.5831
  983MOL0     C32597  10.149   8.921   4.888  0.5800 -0.4312  0.4359
  983MOL0     C32598  10.058   9.000   4.954  0.0412 -0.6768 -0.4020
  983MOL0     C32599  10.077   9.144   4.988  0.6716  0.1021 -0.2494
  983MOL0     O32600   9.972   9.213   5.032  0.3007  0.2554  0.2030
  983MOL0     C32601   9.984   9.330   5.108  0.4427 -0.4980  0.3087
  983MOL0     C32602  10.091   9.363   5.192  0.5327  0.6997 -0.1289
  983MOL0     C32603  10.094   9.472   5.273 -0.3267 -0.0791 -0.1124
  983MOL0     C32604   9.983   9.559   5.287  0.2019 -0.8569 -0.0930
  983MOL0     O32605   9.973   9.666   5.379 -0.2874  0.0513 -0.4800
  983MOL0     C32606  10.082   9.683   5.470 -0.9236 -0.7433 -0.5240
  983MOL0     C32607  10.198   9.772   5.408 -0.1368 -0.2539 -0.3507
  983MOL0     C32608  10.162   9.916   5.381 -0.0835 -0.6989 -0.7664
  983MOL0     C32609  10.276  10.007   5.396 -0.1998 -0.0477 -0.1041
  983MOL0     C32610  10.228  10.149   5.403  0.0970  1.0164  0.9550
  983MOL0     C32611  10.140  10.186   5.283 -0.4105  0.1113  0.0477
  983MOL0     C32612  10.160  10.338   5.245 -0.2585  0.5985 -0.6504
  983MOL0     C32613  10.102  10.360   5.108  0.2647 -0.1878 -0.5856
  983MOL0    Cl32614  10.106  10.539   5.058 -0.6284 -0.5940  0.4170
  983MOL0     C32615   9.879   9.535   5.201 -0.3316  0.9282 -0.2363
  983MOL0     C32616   9.874   9.421   5.116 -0.0744  0.5027 -0.0042
  983MOL0     O32617  10.184   9.188   4.961  1.1048 -0.3126 -0.1128
  983MOL0     C32618   9.941   8.936   5.016 -1.0677  0.1904  0.6562
  983MOL0     C32619   9.920   8.803   4.997 -0.3236 -0.1129 -0.0108
  983MOL0     N32620   9.650   8.661   4.620 -0.2606  0.5568 -0.3199
  983MOL0     N32621   9.630   8.780   4.669 -1.0033  0.0419 -0.3008
  983MOL0     C32622   8.765   9.114   4.376 -0.1625  0.5973  0.4490
  983MOL0     C32623   8.626   9.096   4.361 -0.1059 -0.4339  0.5661
  983MOL0     C32624   8.220   9.171   4.190  0.8502  0.3470 -0.3134
  983MOL0     C32625   8.142   9.052   4.211 -0.7643 -0.1791 -1.0012
  983MOL0     C32626   8.001   9.039   4.186 -0.3870  0.1128 -0.0599
  983MOL0     C32627   7.939   9.151   4.151  0.6993 -0.6043  0.5258
  983MOL0     O32628   7.807   9.129   4.136  0.3319 -0.4370 -0.3530
  983MOL0     C32629   7.731   9.225   4.059  0.5101  0.2972  0.0800
  983MOL0     C32630   7.606   9.163   4.022 -0.0974 -0.0395  0.4409
  983MOL0     C32631   7.516   9.139   4.155  0.3589  0.0117 -0.4538
  983MOL0     C32632   7.363   9.105   4.149  0.9432 -0.1367  0.1725
  983MOL0     C32633   7.280   9.218   4.103  0.8349  0.8949  0.0988
  983MOL0     C32634   7.197   9.300   4.059  0.6405  1.2368  1.1357
  983MOL0     C32635   8.007   9.277   4.134  1.0628 -0.6152  0.2587
  983MOL0     C32636   8.145   9.282   4.144  1.5831  0.1712  0.2478
  983MOL0     C32637   8.213   9.407   4.094  0.2588 -0.2744 -0.9116
  983MOL0     H32638   8.512   9.411   4.328  0.1956 -0.9387 -1.8624
  983MOL0     H32639   8.757   9.458   4.358 -3.6426  0.9573  0.0004
  983MOL0     H32640   9.064   9.138   4.468 -0.1670 -3.9098 -1.3701
  983MOL0     H32641   9.030   9.125   4.287  5.4174 -0.0628 -1.8703
  983MOL0     H32642   9.176   9.375   4.410 -2.9573 -0.3599 -0.7618
  983MOL0     H32643   9.192   9.312   4.251 -0.1154  0.8870  0.0672
  983MOL0     H32644   9.304   9.110   4.348 -1.3279  0.3964 -0.9583
  983MOL0     H32645   9.289   9.180   4.512 -0.6507 -1.2819 -1.2934
  983MOL0     H32646   9.430   9.308   4.271  0.8885  0.1768  0.2615
  983MOL0     H32647   9.423   9.385   4.425 -0.2903  0.8022 -1.6338
  983MOL0     H32648   9.562   9.121   4.334  0.0311 -2.2787  2.1071
  983MOL0     H32649   9.654   9.261   4.369  2.8017 -1.9513  1.4770
  983MOL0     H32650   9.557   9.227   4.620  1.0399 -0.0748  0.1982
  983MOL0     H32651   9.515   9.062   4.551 -0.1444  0.5779 -0.9934
  983MOL0     H32652   9.793   9.192   4.589  2.2179 -1.4995  0.1885
  983MOL0     H32653   9.771   9.061   4.472  1.1027  0.1197 -0.1434
  983MOL0     H32654   9.842   9.015   4.724  0.1058  3.6991 -1.4961
  983MOL0     H32655   9.673   9.010   4.760 -1.4097  2.4328 -2.1756
  983MOL0     H32656   9.929   8.812   4.545  0.5543 -1.8388  0.3005
  983MOL0     H32657   9.765   8.476   4.478 -0.2905 -2.2626 -0.2939
  983MOL0     H32658   9.898   8.564   4.414 -1.1727 -0.8799  0.5528
  983MOL0     H32659   9.986   8.391   4.570 -2.0824 -1.5242  0.4719
  983MOL0     H32660  10.033   8.545   4.629  0.6097 -2.2219  1.8038
  983MOL0     H32661   9.936   8.367   4.784 -0.1257  1.0088 -0.5566
  983MOL0     H32662   9.772   8.414   4.745 -0.5520  0.3836  1.6851
  983MOL0     H32663   9.811   8.510   4.940 -1.4805  0.6688  0.1208
  983MOL0     H32664   9.810   8.643   4.819  1.1376 -1.2423 -4.5118
  983MOL0     H32665  10.203   8.714   4.821  2.2962  1.7331 -0.6286
  983MOL0     H32666  10.230   8.966   4.832 -2.1736  3.3866 -0.9478
  983MOL0     H32667  10.182   9.307   5.209 -0.9250 -2.3286 -1.5809
  983MOL0     H32668  10.179   9.486   5.339 -3.7818  2.0448  4.4919
  983MOL0     H32669  10.050   9.740   5.558  1.5336  0.5578 -0.3856
  983MOL0     H32670  10.121   9.587   5.507 -1.3102 -1.2586 -1.4168
  983MOL0     H32671  10.284   9.777   5.476  2.3990 -2.0163 -3.1375
  983MOL0     H32672  10.243   9.721   5.322  1.9570  1.8310 -0.6075
  983MOL0     H32673  10.120   9.926   5.281 -0.4392 -3.3769 -0.9553
  983MOL0     H32674  10.092   9.943   5.461 -1.0081 -1.6404 -1.2249
  983MOL0     H32675  10.353   9.991   5.320  1.0113 -0.5984  1.1905
  983MOL0     H32676  10.337   9.987   5.485  0.6919  0.5980 -0.5516
  983MOL0     H32677  10.316  10.214   5.396  0.2591  0.6179 -1.5158
  983MOL0     H32678  10.182  10.181   5.497  1.6992 -0.1494  2.1894
  983MOL0     H32679  10.173  10.131   5.195 -0.0883  0.6668 -0.1831
  983MOL0     H32680  10.034  10.163   5.300 -0.6606  1.1336 -0.0234
  983MOL0     H32681  10.265  10.369   5.237 -0.6522  2.5404  1.0284
  983MOL0     H32682  10.122  10.392   5.332  1.5932 -0.0900  0.6485
  983MOL0     H32683  10.149  10.297   5.032 -1.9074 -0.3289 -1.9003
  983MOL0     H32684   9.998  10.329   5.111  0.2410 -0.4301  4.2525
  983MOL0     H32685   9.798   9.607   5.198 -2.3641 -1.1853  0.6039
  983MOL0     H32686   9.783   9.414   5.057 -1.8339  0.4501  2.5213
  983MOL0     H32687   9.869   8.999   5.067 -2.0994 -0.6531  0.2669
  983MOL0     H32688   9.827   8.759   5.033 -1.8252  1.3977 -1.8154
  983MOL0     H32689   8.837   9.035   4.389  0.5536 -0.1795 -5.4975
  983MOL0     H32690   8.580   9.000   4.384 -1.2135 -0.8531 -2.8887
  983MOL0     H32691   8.205   8.967   4.233 -2.5270 -0.9888  1.2810
  983MOL0     H32692   7.958   8.940   4.187 -0.6978  0.2237  1.6779
  983MOL0     H32693   7.786   9.257   3.969 -1.2386  2.3990 -0.3023
  983MOL0     H32694   7.715   9.322   4.106 -1.6638 -0.8416  1.8636
  983MOL0     H32695   7.626   9.069   3.970  1.7198  0.5045  0.0876
  983MOL0     H32696   7.565   9.238   3.954  3.7320  1.1947 -0.7386
  983MOL0     H32697   7.525   9.232   4.213  0.4833 -0.5449  0.4336
  983MOL0     H32698   7.560   9.059   4.215 -0.4733  0.0985  0.2947
  983MOL0     H32699   7.353   9.022   4.078 -0.2296 -1.4797  1.8544
  983MOL0     H32700   7.327   9.066   4.244 -0.8097 -2.3139 -1.2656
  983MOL0     H32701   7.120   9.351   4.004  0.1001  0.5360  1.2355
  983MOL0     H32702   7.959   9.370   4.105  2.4397 -0.4255 -1.5382
  983MOL0     H32703   8.287   9.419   4.173  0.2541 -2.5985 -0.4794
  983MOL0     H32704   8.278   9.387   4.008  2.0347  0.3313  0.2340
  983MOL0     H32705   8.152   9.496   4.077 -1.5742 -1.2819  0.0145
  984MOL0     O32706   5.673   2.725  11.251  1.2390 -0.3382  0.3072
  984MOL0     C32707   5.647   2.612  11.215 -0.3390 -0.0072  0.2819
  984MOL0     O32708   5.744   2.518  11.197  0.2798 -0.2474  0.3897
  984MOL0     C32709   5.880   2.564  11.192  0.0804  0.2281  0.0312
  984MOL0     C32710   5.929   2.642  11.082 -0.2938  0.7926  1.2467
  984MOL0     C32711   6.049   2.702  11.085 -0.7169 -0.5567  0.5189
  984MOL0     C32712   6.126   2.708  11.206  0.4491  0.2436  0.0994
  984MOL0     O32713   6.241   2.777  11.211  0.2860  0.8059  0.3858
  984MOL0     C32714   6.331   2.765  11.317 -0.8770  0.2919  0.6219
  984MOL0     C32715   6.462   2.846  11.289 -0.0080  0.1387 -0.2018
  984MOL0     C32716   6.579   2.763  11.239 -0.5791  0.6102  0.1374
  984MOL0     C32717   6.585   2.739  11.081  0.1876  0.0926 -0.9358
  984MOL0     C32718   6.689   2.635  11.044 -0.1163 -0.3604 -0.2151
  984MOL0     C32719   6.830   2.640  11.113 -0.2579  0.4109 -0.5197
  984MOL0     C32720   6.911   2.527  11.063 -1.0124 -0.3450 -0.1395
  984MOL0     C32721   7.044   2.512  11.143  0.5465 -0.7414  0.2533
  984MOL0     N32722   7.104   2.387  11.085  0.2371  0.3268  0.2531
  984MOL0     C32723   7.182   2.375  10.971 -0.0313 -0.2848 -0.2719
  984MOL0     C32724   7.189   2.250  10.948 -0.9005  0.3678 -0.3583
  984MOL0     C32725   7.266   2.212  10.821  1.7731 -0.1027  0.0026
  984MOL0     C32726   7.419   2.210  10.839 -0.4762 -0.1221 -0.0339
  984MOL0     C32727   7.494   2.224  10.710 -0.1083  0.3780  0.0430
  984MOL0     C32728   7.647   2.205  10.732  1.1627  0.0588 -0.4209
  984MOL0     O32729   7.665   2.071  10.776  0.1308 -0.6666  0.2851
  984MOL0     C32730   7.762   2.000  10.717 -0.6330  0.4975  0.1199
  984MOL0     C32731   7.827   1.898  10.790  0.0809  0.4157 -0.3492
  984MOL0     C32732   7.916   1.814  10.723 -0.7146 -0.1206  0.2902
  984MOL0     C32733   7.953   1.826  10.587 -0.1908  0.4564  0.9240
  984MOL0     C32734   8.050   1.726  10.525  0.0919  0.2454  0.3492
  984MOL0     O32735   8.054   1.711  10.384  0.4429 -0.6492 -0.2663
  984MOL0     C32736   8.142   1.629  10.313  0.3969  0.2476 -0.0405
  984MOL0     C32737   8.172   1.495  10.332  0.2075 -0.3936  0.1077
  984MOL0     C32738   8.231   1.425  10.225  1.1649 -0.2986 -0.0859
  984MOL0     C32739   8.291   1.486  10.113  0.4357 -0.0112  0.9489
  984MOL0     O32740   8.370   1.416  10.019 -0.1104 -0.3901  0.2026
  984MOL0     C32741   8.403   1.270  10.034  0.1414 -0.0245 -0.1973
  984MOL0     C32742   8.479   1.217   9.910 -0.2004 -1.2689  0.4228
  984MOL0     C32743   8.409   1.234   9.781 -0.5826  0.5000 -0.6153
  984MOL0     C32744   8.492   1.185   9.656  0.4601  0.5131 -0.0230
  984MOL0     C32745   8.594   1.292   9.616 -1.1031 -1.2501 -0.1516
  984MOL0     C32746   8.657   1.258   9.479  0.7869  1.0609 -0.2573
  984MOL0     C32747   8.753   1.368   9.436 -0.5333 -0.0618  0.1075
  984MOL0     C32748   8.790   1.391   9.279  0.1950 -0.0262 -0.2864
  984MOL0    Cl32749   8.863   1.547   9.236 -0.0343  0.1948 -0.6066
  984MOL0     C32750   8.282   1.631  10.110 -0.3233 -0.2601  0.2538
  984MOL0     C32751   8.219   1.697  10.218 -0.0432  0.6661  0.1198
  984MOL0     O32752   8.093   1.643  10.601  0.1032 -0.3307  0.4743
  984MOL0     C32753   7.888   1.925  10.515 -0.2621 -0.1855  0.8325
  984MOL0     C32754   7.797   2.015  10.578 -1.2081  0.9599 -0.2575
  984MOL0     N32755   7.114   2.181  11.035  0.3987  0.1575 -0.1110
  984MOL0     N32756   7.048   2.259  11.113 -0.8328 -0.2734  0.2643
  984MOL0     C32757   6.080   2.628  11.312  0.4284 -0.7176  0.2796
  984MOL0     C32758   5.958   2.563  11.310 -0.6754  1.0012 -0.0152
  984MOL0     C32759   5.513   2.578  11.181  0.1260  0.9930 -0.4133
  984MOL0     C32760   5.491   2.451  11.122 -0.0166 -0.4431 -0.2474
  984MOL0     C32761   5.370   2.411  11.083 -0.5293  0.0159  0.2500
  984MOL0     C32762   5.263   2.496  11.094  0.4787 -0.7497  0.2435
  984MOL0     O32763   5.131   2.477  11.045 -0.9466 -0.9089  0.5638
  984MOL0     C32764   5.089   2.343  11.029  0.3859 -0.0521  0.7242
  984MOL0     C32765   4.939   2.350  11.013  0.4984 -0.2432  0.3553
  984MOL0     C32766   4.877   2.224  10.939 -1.0151 -0.5552  0.2304
  984MOL0     C32767   4.893   2.236  10.795 -0.0378  0.3908 -0.3655
  984MOL0     C32768   4.858   2.111  10.724 -0.3167  0.2053 -0.3371
  984MOL0     C32769   4.816   2.012  10.663  0.3178  0.5677  0.1444
  984MOL0     C32770   5.279   2.633  11.145 -0.1835  0.9107 -0.3765
  984MOL0     C32771   5.411   2.672  11.182  0.3799 -0.0841 -0.3469
  984MOL0     C32772   5.417   2.826  11.228 -0.5739  0.7127  0.3272
  984MOL0     H32773   5.868   2.656  10.993  1.3041 -0.2548 -0.0948
  984MOL0     H32774   6.073   2.758  10.995 -0.3934  3.8010  3.0241
  984MOL0     H32775   6.280   2.814  11.401 -1.1682  2.1608 -0.5777
  984MOL0     H32776   6.353   2.659  11.327 -0.5784 -0.3105 -4.1650
  984MOL0     H32777   6.490   2.907  11.375 -0.9317  1.6333 -0.9230
  984MOL0     H32778   6.429   2.913  11.208 -0.6315 -0.9172 -0.8501
  984MOL0     H32779   6.585   2.669  11.294 -1.5366  1.6209  2.0966
  984MOL0     H32780   6.664   2.824  11.273 -0.1542  0.4812 -0.6703
  984MOL0     H32781   6.490   2.704  11.039 -1.4808  2.1004  0.9487
  984MOL0     H32782   6.603   2.834  11.031  0.8634  0.7939  0.5865
  984MOL0     H32783   6.639   2.540  11.063  0.7733 -0.5075  1.6207
  984MOL0     H32784   6.700   2.616  10.937  2.0016  0.2044 -0.1415
  984MOL0     H32785   6.876   2.739  11.102 -0.1400  0.1588 -2.9311
  984MOL0     H32786   6.820   2.619  11.220 -2.5071  0.8928 -0.5893
  984MOL0     H32787   6.931   2.539  10.956  2.0409 -1.2652  0.2382
  984MOL0     H32788   6.850   2.439  11.084 -2.4974  0.8893  1.0176
  984MOL0     H32789   7.110   2.598  11.129  0.0915 -0.6913 -1.8165
  984MOL0     H32790   7.041   2.508  11.252  1.5385  2.5506  0.4986
  984MOL0     H32791   7.249   2.445  10.923 -0.5971  1.6512  1.6357
  984MOL0     H32792   7.221   2.117  10.793 -1.1492  1.1413  0.0901
  984MOL0     H32793   7.251   2.277  10.734 -0.9469  0.8167  1.0593
  984MOL0     H32794   7.446   2.292  10.906 -0.7442 -0.0355 -0.0297
  984MOL0     H32795   7.448   2.115  10.885  0.5804  0.2193  0.0229
  984MOL0     H32796   7.480   2.322  10.664 -0.0421  0.7841  0.8622
  984MOL0     H32797   7.450   2.143  10.651 -2.1546 -0.2917  2.3442
  984MOL0     H32798   7.683   2.270  10.812  2.5615 -1.8303  0.5558
  984MOL0     H32799   7.704   2.250  10.651  1.1476  1.7197  0.4404
  984MOL0     H32800   7.815   1.881  10.897  0.7340  2.2982  0.0612
  984MOL0     H32801   7.972   1.748  10.788  1.4848  2.5303  1.2883
  984MOL0     H32802   8.140   1.450  10.425 -0.9166  0.1503  0.0071
  984MOL0     H32803   8.251   1.319  10.238  0.4564 -0.8831 -3.0377
  984MOL0     H32804   8.464   1.259  10.124 -1.1195  0.5366  0.7491
  984MOL0     H32805   8.315   1.208  10.055  0.0361  1.3693  4.8472
  984MOL0     H32806   8.581   1.256   9.912 -0.4841 -0.4993  0.6150
  984MOL0     H32807   8.489   1.109   9.921  0.2830 -1.4637 -1.5248
  984MOL0     H32808   8.313   1.183   9.797 -1.7233  2.9720  1.1625
  984MOL0     H32809   8.372   1.334   9.755 -0.6195  0.1216 -2.0737
  984MOL0     H32810   8.423   1.166   9.573  0.8456 -0.9155 -0.0444
  984MOL0     H32811   8.537   1.086   9.673  0.2728  0.4970  0.3944
  984MOL0     H32812   8.672   1.298   9.693 -2.9594 -0.4110  1.7984
  984MOL0     H32813   8.547   1.391   9.617 -0.2991 -0.8598  0.4486
  984MOL0     H32814   8.717   1.166   9.480  0.3496  0.7764 -0.0100
  984MOL0     H32815   8.585   1.259   9.397 -0.9481 -1.5660  1.1286
  984MOL0     H32816   8.846   1.358   9.491 -0.2972 -2.1983 -0.6115
  984MOL0     H32817   8.701   1.462   9.460 -0.9733  0.2863 -1.9953
  984MOL0     H32818   8.852   1.310   9.239  1.8644  1.3384 -0.5621
  984MOL0     H32819   8.697   1.386   9.220 -0.9774  1.8544  1.2888
  984MOL0     H32820   8.347   1.689  10.046  0.5273 -2.9681 -1.4811
  984MOL0     H32821   8.201   1.804  10.207 -2.2449  0.5963  2.0316
  984MOL0     H32822   7.908   1.928  10.408 -2.5363  0.4019  0.3811
  984MOL0     H32823   7.739   2.086  10.520 -2.6322  0.5752  0.6279
  984MOL0     H32824   6.136   2.617  11.404  0.4701  1.8111  0.6262
  984MOL0     H32825   5.927   2.502  11.395  2.9922  0.6322  1.2386
  984MOL0     H32826   5.573   2.380  11.123 -0.0344 -0.5322  2.0926
  984MOL0     H32827   5.340   2.310  11.059 -2.6584  0.9925 -1.5960
  984MOL0     H32828   5.109   2.282  11.118 -2.2651 -2.0049  0.1215
  984MOL0     H32829   5.124   2.291  10.940 -0.1520 -0.2922  0.6491
  984MOL0     H32830   4.913   2.433  10.946 -2.3641 -0.7875  0.6711
  984MOL0     H32831   4.879   2.360  11.104 -0.0635 -0.0494 -0.0260
  984MOL0     H32832   4.782   2.183  10.977  0.7976 -3.3644  2.1159
  984MOL0     H32833   4.951   2.148  10.965  0.5153  1.6392  2.9475
  984MOL0     H32834   4.822   2.308  10.751  0.4267  0.8246 -0.4166
  984MOL0     H32835   4.994   2.269  10.770  1.4180 -1.8710  2.0412
  984MOL0     H32836   4.777   1.918  10.630  0.3889  0.8736 -0.8282
  984MOL0     H32837   5.195   2.701  11.155 -1.3232 -0.6524  1.5357
  984MOL0     H32838   5.323   2.881  11.217 -0.6451  0.7691  1.1534
  984MOL0     H32839   5.434   2.837  11.335 -1.8858  1.3411  0.4867
  984MOL0     H32840   5.495   2.879  11.172 -1.0407 -0.6509 -1.7479
  985MOL0     O32841   0.987   2.028   1.506  0.6273  0.8554  0.1169
  985MOL0     C32842   0.983   1.913   1.548  0.7503 -0.1798  0.3880
  985MOL0     O32843   0.919   1.806   1.502 -0.4670 -0.2652  0.0622
  985MOL0     C32844   0.831   1.808   1.394 -0.8255 -0.0794  0.3954
  985MOL0     C32845   0.852   1.902   1.292 -0.7304  0.5670  0.4284
  985MOL0     C32846   0.776   1.893   1.176 -0.1488 -0.5207 -0.3900
  985MOL0     C32847   0.671   1.800   1.168 -0.5449 -0.6301 -0.3537
  985MOL0     O32848   0.606   1.809   1.056  0.2866 -0.6697 -0.5655
  985MOL0     C32849   0.490   1.733   1.043  0.0645  0.3503  0.7405
  985MOL0     C32850   0.442   1.768   0.903  0.9202  0.3864  0.5207
  985MOL0     C32851   0.386   1.913   0.910  0.9170  0.2606 -0.0601
  985MOL0     C32852   0.372   1.963   0.770  0.1642  0.6189  0.5193
  985MOL0     C32853   0.264   1.903   0.688 -0.1478  0.6003 -0.5116
  985MOL0     C32854   0.264   1.954   0.548 -0.3852  0.2744  0.6513
  985MOL0     C32855   0.195   2.094   0.538 -0.3949  0.4825  0.2426
  985MOL0     C32856   0.046   2.116   0.560  0.0364  0.2259  0.1638
  985MOL0     N32857  -0.045   2.030   0.485 -0.6057  1.0007 -1.1120
  985MOL0     C32858  -0.096   1.913   0.538 -0.0274  0.7241 -0.0884
  985MOL0     C32859  -0.156   1.852   0.431 -0.1172 -0.5994 -0.7112
  985MOL0     C32860  -0.231   1.725   0.431  0.6475 -0.2992  0.5532
  985MOL0     C32861  -0.161   1.597   0.414 -0.3353  0.7429  0.2716
  985MOL0     C32862  -0.170   1.535   0.270  1.0969 -0.1610  0.3052
  985MOL0     C32863  -0.134   1.386   0.279  0.2250 -0.4425  0.2326
  985MOL0     O32864   0.009   1.370   0.294 -0.5349  0.1292 -0.4397
  985MOL0     C32865   0.059   1.243   0.321  0.2193  0.3327 -0.1054
  985MOL0     C32866   0.193   1.232   0.314  0.6992  0.4940 -0.8826
  985MOL0     C32867   0.258   1.107   0.310  0.0331  0.1316  0.2591
  985MOL0     C32868   0.178   0.987   0.308  0.0098  0.1912 -0.0332
  985MOL0     C32869   0.232   0.855   0.277 -0.4603  0.1991 -0.7283
  985MOL0     O32870   0.367   0.841   0.286  0.4142 -0.0341 -0.7751
  985MOL0     C32871   0.423   0.721   0.273  0.5562  0.3506 -1.3529
  985MOL0     C32872   0.526   0.708   0.183  0.0748  0.8195 -0.3564
  985MOL0     C32873   0.567   0.582   0.147  0.2112  0.2304  0.0479
  985MOL0     C32874   0.517   0.467   0.209  0.1377 -0.2021 -0.3774
  985MOL0     O32875   0.556   0.339   0.172  0.0310  0.7578  0.2933
  985MOL0     C32876   0.448   0.262   0.112  0.0413  0.1974 -1.1260
  985MOL0     C32877   0.515   0.152   0.036  0.0602  0.2882  0.5009
  985MOL0     C32878   0.413   0.060  -0.021 -0.1314  0.7139 -0.5226
  985MOL0     C32879   0.325  -0.001   0.089  0.2061 -0.2217 -0.5470
  985MOL0     C32880   0.216  -0.095   0.035  0.8473 -0.1491  0.5387
  985MOL0     C32881   0.275  -0.229  -0.012  1.0312 -0.1940 -0.3337
  985MOL0     C32882   0.376  -0.305   0.084 -0.4236 -0.6995  0.4717
  985MOL0     C32883   0.407  -0.448   0.053  0.2940  0.3266  0.2975
  985MOL0    Cl32884   0.523  -0.517   0.168  0.2780  0.0557 -0.1508
  985MOL0     C32885   0.419   0.475   0.312  0.6655  0.1696  0.5669
  985MOL0     C32886   0.371   0.608   0.340 -1.2629 -0.4635  0.0182
  985MOL0     O32887   0.149   0.766   0.249  0.5320 -0.3446 -0.3769
  985MOL0     C32888   0.038   1.007   0.320 -0.6116  0.7375 -0.0268
  985MOL0     C32889  -0.019   1.134   0.332  0.0218  0.4151 -0.6975
  985MOL0     N32890  -0.140   1.936   0.316  0.7541  0.3838  0.2146
  985MOL0     N32891  -0.073   2.042   0.349  1.1896 -0.4430 -0.5024
  985MOL0     C32892   0.657   1.706   1.264 -0.4502  0.5613  0.4777
  985MOL0     C32893   0.734   1.714   1.374  0.3797 -0.1077  0.6447
  985MOL0     C32894   1.071   1.883   1.671  0.1324 -0.1337  1.3229
  985MOL0     C32895   1.050   1.762   1.735 -0.4236  0.1682  0.1095
  985MOL0     C32896   1.132   1.714   1.833 -0.9253  0.6169 -0.3559
  985MOL0     C32897   1.247   1.786   1.864  0.1862 -0.1707  0.4132
  985MOL0     O32898   1.340   1.748   1.948 -0.8177 -0.0816 -0.0184
  985MOL0     C32899   1.316   1.626   2.010 -0.9650 -1.1600 -0.1018
  985MOL0     C32900   1.421   1.573   2.095 -0.5145  0.0600  0.4131
  985MOL0     C32901   1.475   1.660   2.208  0.5395 -0.6051  0.5273
  985MOL0     C32902   1.596   1.600   2.285  0.2148  0.2929 -0.8152
  985MOL0     C32903   1.600   1.651   2.420 -0.1797 -0.1018  0.7847
  985MOL0     C32904   1.613   1.686   2.533  0.1330 -1.0330 -0.6375
  985MOL0     C32905   1.271   1.908   1.807  0.8859  0.3874 -0.7683
  985MOL0     C32906   1.181   1.966   1.716 -0.6777 -0.2925 -0.5873
  985MOL0     C32907   1.216   2.101   1.653  0.5740  0.9465  0.5382
  985MOL0     H32908   0.946   1.956   1.292  1.3139 -2.6378  3.3296
  985MOL0     H32909   0.818   1.952   1.095  1.9971  2.8316  2.8831
  985MOL0     H32910   0.494   1.623   1.045 -0.4684  0.3113  0.1648
  985MOL0     H32911   0.416   1.772   1.112  0.5811  2.5707  0.1293
  985MOL0     H32912   0.370   1.697   0.861  0.5202  1.3803 -0.5505
  985MOL0     H32913   0.514   1.754   0.822 -0.3422 -0.0412 -0.5782
  985MOL0     H32914   0.456   1.978   0.963 -2.0015  0.8106  3.4783
  985MOL0     H32915   0.286   1.923   0.954  1.2756  1.4758  0.5170
  985MOL0     H32916   0.367   2.071   0.789 -0.6306  0.4190  1.5159
  985MOL0     H32917   0.465   1.947   0.713  0.4673 -0.8743  1.3791
  985MOL0     H32918   0.290   1.797   0.692 -0.0219  0.6535  0.2972
  985MOL0     H32919   0.163   1.921   0.729 -1.2289 -1.0973 -2.2674
  985MOL0     H32920   0.368   1.969   0.517 -0.8015 -2.1116 -2.3403
  985MOL0     H32921   0.227   1.879   0.477 -1.9585  0.5584  1.1520
  985MOL0     H32922   0.216   2.130   0.437  0.4433  0.7875  0.5176
  985MOL0     H32923   0.239   2.170   0.603 -2.0830  2.9099 -1.2627
  985MOL0     H32924   0.011   2.129   0.662 -0.8551 -0.2037 -0.0734
  985MOL0     H32925   0.025   2.217   0.525 -0.7313  0.3946  1.0811
  985MOL0     H32926  -0.110   1.885   0.641  1.2078 -1.1619 -0.3871
  985MOL0     H32927  -0.301   1.731   0.515 -2.1047 -0.5988 -1.5714
  985MOL0     H32928  -0.314   1.732   0.360 -1.2161  1.6608  2.7500
  985MOL0     H32929  -0.055   1.607   0.435 -0.4177 -1.7465  2.2800
  985MOL0     H32930  -0.198   1.516   0.478  2.2559 -2.5689 -2.0126
  985MOL0     H32931  -0.115   1.600   0.201 -2.0898  3.1129  0.5187
  985MOL0     H32932  -0.271   1.529   0.229  0.5896  1.1944  1.2788
  985MOL0     H32933  -0.159   1.341   0.183 -0.8777 -2.2336  1.2945
  985MOL0     H32934  -0.193   1.338   0.358  0.2364  2.5149  2.1732
  985MOL0     H32935   0.257   1.320   0.307  0.1962  0.7629 -5.2476
  985MOL0     H32936   0.361   1.107   0.278 -0.0645 -3.2397 -0.4272
  985MOL0     H32937   0.585   0.781   0.128 -0.9900  0.9399 -1.3764
  985MOL0     H32938   0.642   0.578   0.068 -1.0310  2.7346 -1.3772
  985MOL0     H32939   0.387   0.236   0.199 -1.0409  1.9513 -1.2949
  985MOL0     H32940   0.383   0.325   0.051 -1.5736  1.3553  1.6111
  985MOL0     H32941   0.575   0.208  -0.037  1.0364  0.7334  1.6170
  985MOL0     H32942   0.591   0.094   0.088  2.2517 -1.0159 -3.7181
  985MOL0     H32943   0.364   0.107  -0.107 -0.7976 -1.2002 -1.2430
  985MOL0     H32944   0.477  -0.022  -0.056  0.4643  0.7994  0.3468
  985MOL0     H32945   0.280   0.078   0.150  0.6312 -0.6819  0.3768
  985MOL0     H32946   0.388  -0.052   0.162  0.7691  0.0870 -0.8079
  985MOL0     H32947   0.168  -0.043  -0.049  0.4585 -1.9380 -0.3948
  985MOL0     H32948   0.138  -0.116   0.108 -0.9467  1.1585 -0.8818
  985MOL0     H32949   0.190  -0.296  -0.027 -1.2836  1.5581  3.4415
  985MOL0     H32950   0.312  -0.231  -0.115 -3.0583 -1.4350 -1.9614
  985MOL0     H32951   0.338  -0.314   0.187 -0.7390  0.9621  0.5312
  985MOL0     H32952   0.473  -0.257   0.099  0.0535 -1.9694  1.6561
  985MOL0     H32953   0.322  -0.517   0.054  0.5945 -0.0475  0.5546
  985MOL0     H32954   0.455  -0.460  -0.045 -1.0255 -1.7732 -0.1526
  985MOL0     H32955   0.384   0.400   0.382  0.9608  1.4923  2.2013
  985MOL0     H32956   0.299   0.626   0.420 -0.3244  0.0544  0.7766
  985MOL0     H32957  -0.030   0.923   0.317  0.1370  0.1296 -0.0562
  985MOL0     H32958  -0.127   1.139   0.333 -0.1339 -1.5974  1.0224
  985MOL0     H32959   0.596   1.618   1.248  3.3383 -2.5473  1.3725
  985MOL0     H32960   0.715   1.632   1.442 -2.8275 -0.3324 -0.3759
  985MOL0     H32961   0.968   1.699   1.703  0.4548 -1.8962  1.7003
  985MOL0     H32962   1.104   1.617   1.874 -1.2308  0.9212  0.1568
  985MOL0     H32963   1.297   1.555   1.928 -0.7136  2.3175 -3.4277
  985MOL0     H32964   1.233   1.636   2.081  0.8771 -1.2050  2.1709
  985MOL0     H32965   1.508   1.570   2.028  0.4684  3.8625  1.2843
  985MOL0     H32966   1.387   1.476   2.131 -2.3188  0.9001  1.1088
  985MOL0     H32967   1.394   1.668   2.281  1.1373  0.4774  1.0840
  985MOL0     H32968   1.509   1.756   2.169  4.4483 -1.2644  1.7908
  985MOL0     H32969   1.591   1.491   2.293 -2.8400  0.2615 -1.8791
  985MOL0     H32970   1.685   1.626   2.227  1.0002 -1.4819 -0.4861
  985MOL0     H32971   1.628   1.737   2.626 -0.8929 -1.7123 -0.0645
  985MOL0     H32972   1.348   1.976   1.841 -0.8071  3.2957 -2.3502
  985MOL0     H32973   1.300   2.144   1.708  0.0593  0.4199  1.7891
  985MOL0     H32974   1.248   2.080   1.551 -2.1203 -0.6541 -0.0732
  985MOL0     H32975   1.138   2.178   1.653  2.0926  2.5431  1.1173
  986MOL0     O32976   1.622   1.636   3.516 -0.5037  0.3441  0.0545
  986MOL0     C32977   1.541   1.696   3.579  1.3056  0.1844  0.4206
  986MOL0     O32978   1.571   1.798   3.677  0.0861  0.2393 -0.0537
  986MOL0     C32979   1.708   1.804   3.694 -0.4933 -1.2392  0.0856
  986MOL0     C32980   1.780   1.882   3.603 -0.7582 -0.2407 -0.4322
  986MOL0     C32981   1.924   1.884   3.601  0.5645  0.5229 -0.1391
  986MOL0     C32982   1.991   1.809   3.705  0.1030 -0.0343  0.3962
  986MOL0     O32983   2.125   1.821   3.736 -0.1859  0.6848  0.0648
  986MOL0     C32984   2.192   1.934   3.679 -0.4657 -0.4844  0.1545
  986MOL0     C32985   2.344   1.920   3.709 -0.4506 -0.4205 -0.5349
  986MOL0     C32986   2.379   1.948   3.859  0.3900 -0.0958  0.5914
  986MOL0     C32987   2.532   1.951   3.879  1.2672 -0.0579  0.5286
  986MOL0     C32988   2.554   1.920   4.029 -0.0212 -0.2166  0.6756
  986MOL0     C32989   2.701   1.909   4.086  0.0496 -0.1505 -0.1156
  986MOL0     C32990   2.800   1.827   4.000 -0.5581  0.5072 -0.0747
  986MOL0     C32991   2.774   1.677   4.018  0.3355 -0.0567  0.5813
  986MOL0     N32992   2.718   1.602   3.906  0.0431 -1.2668  0.0323
  986MOL0     C32993   2.597   1.566   3.882  0.2013 -0.6424  0.8712
  986MOL0     C32994   2.605   1.515   3.756  0.3114  0.0726 -0.3751
  986MOL0     C32995   2.491   1.435   3.686 -0.2465  0.4483  0.6232
  986MOL0     C32996   2.351   1.516   3.665 -0.5966  1.1429  1.0120
  986MOL0     C32997   2.262   1.425   3.578 -0.2278  0.2845 -1.1799
  986MOL0     C32998   2.167   1.507   3.493  0.4250 -0.0444  0.7356
  986MOL0     O32999   2.239   1.582   3.396  0.2038  0.8485  0.2181
  986MOL0     C33000   2.164   1.650   3.300 -0.1267 -0.9285 -1.3023
  986MOL0     C33001   2.230   1.692   3.183  0.3502  0.2552  0.1053
  986MOL0     C33002   2.167   1.751   3.080  0.3057 -0.0496 -0.2582
  986MOL0     C33003   2.037   1.806   3.106  1.0021  0.1579  0.9003
  986MOL0     C33004   1.966   1.890   3.012  0.1320  0.7622  0.2369
  986MOL0     O33005   2.044   1.952   2.914  1.1429 -0.6715 -0.8211
  986MOL0     C33006   1.960   2.031   2.834 -0.5848 -0.8875  0.1349
  986MOL0     C33007   1.891   1.966   2.728  0.0548 -0.2365 -0.1321
  986MOL0     C33008   1.832   2.051   2.628  0.9436  0.5119  0.2091
  986MOL0     C33009   1.837   2.188   2.633  0.5200 -0.1075 -0.0457
  986MOL0     O33010   1.790   2.241   2.514 -0.5054 -0.4674  0.0536
  986MOL0     C33011   1.886   2.248   2.411  0.5241 -0.1481  0.2158
  986MOL0     C33012   1.812   2.297   2.283 -0.5438 -0.0070  0.6610
  986MOL0     C33013   1.842   2.447   2.250 -0.3900  0.4981 -0.4052
  986MOL0     C33014   1.753   2.485   2.137 -0.6754 -0.7138  0.1588
  986MOL0     C33015   1.788   2.390   2.016 -0.2991 -0.1197  0.2521
  986MOL0     C33016   1.724   2.440   1.881 -0.6299 -0.2656 -0.4875
  986MOL0     C33017   1.753   2.336   1.778 -0.1670  0.2689  0.8488
  986MOL0     C33018   1.680   2.359   1.644  0.6042  0.0443  0.2946
  986MOL0    Cl33019   1.740   2.509   1.569  0.2085 -0.0984  0.1857
  986MOL0     C33020   1.896   2.254   2.745  0.5980  0.2096  0.1102
  986MOL0     C33021   1.961   2.174   2.839  0.0282 -0.7505 -0.1910
  986MOL0     O33022   1.836   1.899   3.018 -0.1447  0.7139  0.0586
  986MOL0     C33023   1.973   1.781   3.229 -0.7376 -0.4788 -0.8424
  986MOL0     C33024   2.036   1.692   3.320  1.2867  0.6064 -0.0023
  986MOL0     N33025   2.734   1.521   3.704 -0.3879  0.4024  0.7222
  986MOL0     N33026   2.801   1.584   3.797  0.0395 -0.4319 -0.3612
  986MOL0     C33027   1.913   1.740   3.809 -0.3975 -0.7922  0.3820
  986MOL0     C33028   1.778   1.748   3.797  0.3627 -0.1274  1.0486
  986MOL0     C33029   1.393   1.665   3.548 -0.1109 -0.2919 -0.6327
  986MOL0     C33030   1.298   1.764   3.585  0.4867 -0.2621 -0.9320
  986MOL0     C33031   1.162   1.747   3.563 -0.3058 -0.1109 -0.5268
  986MOL0     C33032   1.115   1.625   3.509  0.9516 -0.5853  0.1030
  986MOL0     O33033   0.980   1.600   3.500 -0.7664  0.5473  0.5720
  986MOL0     C33034   0.890   1.708   3.509  0.6699  0.0163  0.0197
  986MOL0     C33035   0.752   1.647   3.474 -0.2859  0.2949 -0.3554
  986MOL0     C33036   0.753   1.610   3.315  0.1949 -0.2347  0.2583
  986MOL0     C33037   0.609   1.575   3.272 -0.6699  0.1089 -0.7129
  986MOL0     C33038   0.560   1.439   3.313  0.1991 -0.2355  0.7318
  986MOL0     C33039   0.519   1.331   3.349 -0.0313  0.1600 -0.1921
  986MOL0     C33040   1.204   1.522   3.478  0.2444 -0.9491  0.2627
  986MOL0     C33041   1.339   1.534   3.493  0.5600 -1.3002 -0.1805
  986MOL0     C33042   1.428   1.415   3.471 -0.0132 -0.7715  0.8257
  986MOL0     H33043   1.728   1.946   3.531  0.8583 -1.0282 -2.4186
  986MOL0     H33044   1.950   1.933   3.508  1.5785 -1.6476 -1.0854
  986MOL0     H33045   2.181   1.946   3.571 -1.5000  1.7272  0.4642
  986MOL0     H33046   2.161   2.027   3.727  0.7731 -0.2030  0.4390
  986MOL0     H33047   2.402   1.986   3.642 -0.0012 -0.1310  0.1304
  986MOL0     H33048   2.375   1.818   3.686  2.7950  0.5959 -1.2448
  986MOL0     H33049   2.331   1.866   3.914 -0.9671 -2.2178 -3.3249
  986MOL0     H33050   2.337   2.047   3.877 -1.9395 -1.2584  2.1949
  986MOL0     H33051   2.571   1.870   3.817 -1.0692 -0.4515 -0.5460
  986MOL0     H33052   2.578   2.047   3.855  1.0652 -0.5483 -2.1097
  986MOL0     H33053   2.493   1.987   4.090 -0.9086 -0.9917  0.6719
  986MOL0     H33054   2.517   1.818   4.045  1.4021 -0.4552  2.7754
  986MOL0     H33055   2.745   2.008   4.097  1.3104 -0.9936  5.4103
  986MOL0     H33056   2.691   1.866   4.186  2.6206  1.0480  0.7327
  986MOL0     H33057   2.896   1.859   4.042  0.1581 -1.8399  0.2667
  986MOL0     H33058   2.797   1.850   3.894  0.0812  1.2959  0.0736
  986MOL0     H33059   2.867   1.625   4.043  0.2434 -1.2887 -1.3646
  986MOL0     H33060   2.707   1.667   4.104 -0.1160  0.1324  0.2550
  986MOL0     H33061   2.511   1.565   3.949 -0.5669  0.0870 -0.0735
  986MOL0     H33062   2.531   1.403   3.590 -0.0058  3.2989 -0.3127
  986MOL0     H33063   2.477   1.343   3.743  0.2867  0.4207  0.7236
  986MOL0     H33064   2.299   1.551   3.755  0.4191  0.0050  2.0815
  986MOL0     H33065   2.380   1.606   3.611  3.6104 -1.2965 -1.3591
  986MOL0     H33066   2.207   1.364   3.650 -0.6464 -1.1984 -2.6833
  986MOL0     H33067   2.327   1.361   3.516  2.0434 -0.2998  1.5838
  986MOL0     H33068   2.111   1.572   3.560 -0.6373  0.7772 -0.8811
  986MOL0     H33069   2.106   1.431   3.443 -0.3704 -1.0120  3.0291
  986MOL0     H33070   2.335   1.668   3.171  2.1224  6.3386  0.4828
  986MOL0     H33071   2.201   1.771   2.978 -3.1788  1.4967 -1.2948
  986MOL0     H33072   1.887   1.859   2.714 -0.4820 -0.4192  1.2131
  986MOL0     H33073   1.789   2.000   2.542 -0.7554 -0.3789  1.5479
  986MOL0     H33074   1.961   2.323   2.437 -0.8925  2.2221 -2.0927
  986MOL0     H33075   1.929   2.149   2.393  1.3697  0.5416 -1.8693
  986MOL0     H33076   1.841   2.229   2.202 -4.4462 -3.2540  1.6682
  986MOL0     H33077   1.704   2.286   2.298 -0.1619 -0.3419  3.6672
  986MOL0     H33078   1.815   2.502   2.340 -3.1725  1.6245 -1.7810
  986MOL0     H33079   1.942   2.477   2.219 -1.6550  0.5622 -5.2243
  986MOL0     H33080   1.760   2.590   2.107  1.6410 -0.1212  2.4711
  986MOL0     H33081   1.650   2.470   2.170 -0.6793  0.9030  1.0035
  986MOL0     H33082   1.738   2.295   2.034  1.6840 -1.5769 -1.4561
  986MOL0     H33083   1.893   2.393   1.984 -1.4592  1.0247 -4.3219
  986MOL0     H33084   1.616   2.451   1.894 -0.3296 -0.5474  3.4439
  986MOL0     H33085   1.758   2.535   1.840 -5.1114  0.8885 -1.9963
  986MOL0     H33086   1.738   2.230   1.801  0.4478 -0.3250 -1.2205
  986MOL0     H33087   1.861   2.339   1.757 -0.1873 -0.2806  0.6342
  986MOL0     H33088   1.704   2.286   1.565 -1.2056  0.7236 -0.9467
  986MOL0     H33089   1.573   2.349   1.666  0.6151 -0.0994  0.2869
  986MOL0     H33090   1.908   2.362   2.741 -2.8600  0.6499 -1.7845
  986MOL0     H33091   2.013   2.211   2.927 -1.9299  1.5865  0.0811
  986MOL0     H33092   1.873   1.824   3.237  0.3323  3.0228 -3.4291
  986MOL0     H33093   1.984   1.672   3.414  2.3361  5.5357  1.9496
  986MOL0     H33094   1.944   1.671   3.887 -0.6212 -0.0035  1.1822
  986MOL0     H33095   1.716   1.709   3.877 -0.3080 -1.2226  0.0170
  986MOL0     H33096   1.331   1.856   3.632  1.2505  0.3510 -2.5898
  986MOL0     H33097   1.104   1.832   3.599 -1.3913 -0.8938 -0.3695
  986MOL0     H33098   0.925   1.794   3.451  1.8525  0.8663  1.8931
  986MOL0     H33099   0.889   1.752   3.610 -2.2486  0.0378  0.0513
  986MOL0     H33100   0.669   1.713   3.501  0.5547  1.7930 -1.3099
  986MOL0     H33101   0.727   1.558   3.533 -2.8853 -0.2710 -2.1382
  986MOL0     H33102   0.822   1.535   3.276 -1.0163 -0.3866 -1.7346
  986MOL0     H33103   0.794   1.702   3.272  1.0060 -0.4328  0.5806
  986MOL0     H33104   0.551   1.650   3.325  0.6710 -0.4365  1.6953
  986MOL0     H33105   0.606   1.591   3.164 -1.3814 -1.4312 -0.9557
  986MOL0     H33106   0.477   1.247   3.399  1.6553  0.7479  2.3910
  986MOL0     H33107   1.168   1.431   3.431 -0.1362 -0.9946  0.6308
  986MOL0     H33108   1.372   1.344   3.409 -0.9041 -1.6086  2.5277
  986MOL0     H33109   1.515   1.452   3.417  1.4926 -1.3237  2.7780
  986MOL0     H33110   1.449   1.364   3.566  1.2894  0.6069  1.3149
  987MOL0     O33111   5.042   0.395   2.520 -0.3546  0.2881  0.8344
  987MOL0     C33112   5.088   0.388   2.406  0.3234 -0.4463 -0.3665
  987MOL0     O33113   5.030   0.331   2.300  0.1986 -0.2643  0.5992
  987MOL0     C33114   4.904   0.283   2.321  0.1976  0.0086  0.0979
  987MOL0     C33115   4.872   0.144   2.320  0.2430 -1.1164 -0.2396
  987MOL0     C33116   4.738   0.109   2.342 -0.3100  0.5447 -0.4393
  987MOL0     C33117   4.635   0.202   2.362  0.7973 -0.3921  0.0205
  987MOL0     O33118   4.502   0.167   2.365  0.9033  0.7916 -0.7437
  987MOL0     C33119   4.466   0.032   2.355 -0.6272  0.1328  0.0687
  987MOL0     C33120   4.325   0.001   2.309  0.1291 -1.0225  0.1043
  987MOL0     C33121   4.321   0.034   2.162  0.7639 -0.3009  0.3863
  987MOL0     C33122   4.175   0.063   2.123 -1.2318  0.4848  0.2431
  987MOL0     C33123   4.187   0.132   1.994  0.1308  0.2183  0.4133
  987MOL0     C33124   4.045   0.137   1.936  0.7973 -0.1736 -0.0446
  987MOL0     C33125   4.031   0.216   1.806  0.5882 -0.3652 -0.0292
  987MOL0     C33126   3.886   0.214   1.753  0.4618  0.4107  0.3328
  987MOL0     N33127   3.779   0.278   1.830  0.2791 -0.3890 -0.6207
  987MOL0     C33128   3.792   0.381   1.927  0.6543  0.6965  0.0467
  987MOL0     C33129   3.667   0.425   1.939  0.9888 -0.4648 -1.1013
  987MOL0     C33130   3.616   0.513   2.052 -1.2423  0.1558 -0.6095
  987MOL0     C33131   3.490   0.593   2.017 -0.0168  0.0589  1.1294
  987MOL0     C33132   3.498   0.728   2.092 -0.3401 -0.8338  0.0276
  987MOL0     C33133   3.378   0.816   2.057  0.2433 -0.3029  0.6012
  987MOL0     O33134   3.261   0.746   2.097  0.0678 -0.0317  0.6973
  987MOL0     C33135   3.140   0.815   2.068  0.1447 -0.3005 -0.4250
  987MOL0     C33136   3.127   0.942   2.013  0.0964 -0.0372  0.1129
  987MOL0     C33137   2.997   0.993   1.993 -0.8622 -0.6681 -0.0945
  987MOL0     C33138   2.880   0.930   2.034  0.3016  0.9318  0.1669
  987MOL0     C33139   2.747   0.992   2.022  0.3766 -0.4672 -0.5240
  987MOL0     O33140   2.750   1.125   2.026  0.2300 -0.0618 -0.0118
  987MOL0     C33141   2.640   1.204   2.017  0.0010 -0.8523 -0.8324
  987MOL0     C33142   2.565   1.211   1.905 -0.2188 -0.1808  0.1555
  987MOL0     C33143   2.458   1.297   1.895  1.2452 -0.0777 -0.3566
  987MOL0     C33144   2.431   1.391   2.002  0.3186  1.0043 -0.7674
  987MOL0     O33145   2.342   1.494   1.986  0.0032 -0.0056 -0.0749
  987MOL0     C33146   2.212   1.443   1.953  0.5490 -0.0987 -0.4918
  987MOL0     C33147   2.122   1.573   1.972  0.5316  0.4424  0.2465
  987MOL0     C33148   1.988   1.541   1.899  0.6145 -0.4715  0.6312
  987MOL0     C33149   1.889   1.662   1.891  0.0547 -0.2888  0.1973
  987MOL0     C33150   1.769   1.625   1.801 -0.0179 -0.4615  0.7449
  987MOL0     C33151   1.668   1.743   1.799  0.5192 -0.6781  1.1248
  987MOL0     C33152   1.727   1.864   1.744  0.2477 -0.7248  0.0133
  987MOL0     C33153   1.622   1.968   1.719 -1.1971 -0.5408 -0.0253
  987MOL0    Cl33154   1.579   2.059   1.873  0.1962 -0.0542 -0.1847
  987MOL0     C33155   2.510   1.392   2.121 -0.7696  0.5705  0.2143
  987MOL0     C33156   2.618   1.297   2.122 -0.6008 -0.2812  0.2942
  987MOL0     O33157   2.645   0.921   2.013 -0.3942 -0.1791  0.5065
  987MOL0     C33158   2.898   0.796   2.076  1.0049  0.4711 -0.3097
  987MOL0     C33159   3.024   0.738   2.092 -0.6592 -0.0289 -0.4169
  987MOL0     N33160   3.578   0.358   1.853 -0.1102  0.7389  0.3119
  987MOL0     N33161   3.652   0.269   1.784 -0.1027  0.1878  0.2759
  987MOL0     C33162   4.659   0.342   2.354 -0.2108  1.3054 -0.7297
  987MOL0     C33163   4.799   0.381   2.329  0.3441  0.1670  0.1834
  987MOL0     C33164   5.225   0.426   2.391 -0.3267  0.2107 -0.7801
  987MOL0     C33165   5.317   0.329   2.393 -1.0341 -0.3077 -0.3881
  987MOL0     C33166   5.453   0.360   2.399 -0.3479 -0.6568 -0.3798
  987MOL0     C33167   5.494   0.488   2.388 -0.5170 -0.4541 -0.0792
  987MOL0     O33168   5.627   0.520   2.391 -0.2693 -1.2525 -0.6033
  987MOL0     C33169   5.689   0.630   2.316 -0.5374  0.3726 -0.2010
  987MOL0     C33170   5.723   0.605   2.171  0.3010  0.2855 -0.0762
  987MOL0     C33171   5.756   0.726   2.095  0.8111 -1.0161 -0.2023
  987MOL0     C33172   5.744   0.718   1.939 -0.6610 -0.3472 -0.0117
  987MOL0     C33173   5.733   0.855   1.886 -0.2255 -0.5967 -0.3064
  987MOL0     C33174   5.738   0.960   1.828 -0.2347 -0.2278  0.6216
  987MOL0     C33175   5.399   0.598   2.396  0.1752 -0.0829  0.3985
  987MOL0     C33176   5.260   0.565   2.396  0.1582  0.4744  1.8748
  987MOL0     C33177   5.157   0.676   2.402  0.2700 -0.8002  0.3898
  987MOL0     H33178   4.959   0.078   2.312  1.9122  0.9281  0.1229
  987MOL0     H33179   4.724   0.002   2.349  0.7668  0.4461  0.6480
  987MOL0     H33180   4.533  -0.015   2.283 -2.1247 -0.1974 -1.1495
  987MOL0     H33181   4.470  -0.018   2.453 -0.3754  2.1485  1.1417
  987MOL0     H33182   4.262   0.072   2.362  0.9535  0.7713 -1.2149
  987MOL0     H33183   4.297  -0.100   2.339  1.4441 -0.9727  1.6228
  987MOL0     H33184   4.359  -0.049   2.101  1.1007  0.4608 -0.4598
  987MOL0     H33185   4.376   0.124   2.134 -0.0892 -0.1341 -0.8633
  987MOL0     H33186   4.121  -0.032   2.117 -2.0072  0.6126  3.4530
  987MOL0     H33187   4.123   0.130   2.191 -0.4019  1.0487  0.3377
  987MOL0     H33188   4.229   0.231   2.016  1.4147 -0.2314  0.0701
  987MOL0     H33189   4.232   0.061   1.925 -1.3294 -0.8004  0.4652
  987MOL0     H33190   4.016   0.034   1.914 -1.4538  0.3098  0.3686
  987MOL0     H33191   3.971   0.172   2.009 -1.2425 -0.8094 -1.7237
  987MOL0     H33192   4.100   0.168   1.735  2.3675  0.2158  1.2641
  987MOL0     H33193   4.056   0.320   1.825 -3.5633  1.3613 -2.5591
  987MOL0     H33194   3.870   0.256   1.653  0.8212  2.3838  1.0682
  987MOL0     H33195   3.853   0.111   1.738  1.1393  0.3424 -0.8215
  987MOL0     H33196   3.886   0.396   1.980  0.9023 -2.9890  0.8694
  987MOL0     H33197   3.596   0.450   2.140  5.0292  0.4734  1.5017
  987MOL0     H33198   3.690   0.585   2.086  1.5092 -2.8832  0.4062
  987MOL0     H33199   3.484   0.610   1.909 -4.2910 -4.5791  0.2676
  987MOL0     H33200   3.400   0.536   2.041  0.8477 -1.4100  0.9858
  987MOL0     H33201   3.588   0.783   2.064 -0.4827 -2.3333 -4.2716
  987MOL0     H33202   3.489   0.710   2.199  0.1333  4.8416  1.3441
  987MOL0     H33203   3.378   0.816   1.948  1.1382 -1.9623  0.5615
  987MOL0     H33204   3.392   0.916   2.097 -0.5950  0.6394 -1.3176
  987MOL0     H33205   3.212   1.010   2.002  0.5397 -0.3516  1.4963
  987MOL0     H33206   2.990   1.100   1.974 -0.8334 -0.8640 -1.2586
  987MOL0     H33207   2.559   1.133   1.829  4.1438  0.1594 -0.7637
  987MOL0     H33208   2.398   1.307   1.805 -0.6433  0.3397  0.8989
  987MOL0     H33209   2.206   1.403   1.852 -0.4246 -0.9067 -0.1292
  987MOL0     H33210   2.176   1.362   2.017  0.2203  0.4519  0.0276
  987MOL0     H33211   2.109   1.588   2.080  0.4256 -0.5647  0.3796
  987MOL0     H33212   2.161   1.665   1.927  1.9243  0.5348  1.5461
  987MOL0     H33213   2.009   1.519   1.794  0.9595 -2.6997  1.1180
  987MOL0     H33214   1.940   1.448   1.930 -0.6854  0.1128  0.4268
  987MOL0     H33215   1.929   1.755   1.850  0.1196 -0.1372  0.6074
  987MOL0     H33216   1.848   1.676   1.992  1.1306  0.8143  0.5008
  987MOL0     H33217   1.722   1.533   1.837  2.0284 -2.5848 -1.5843
  987MOL0     H33218   1.817   1.599   1.706  1.1200  1.6589  0.6711
  987MOL0     H33219   1.579   1.712   1.742  0.2563  0.9299  0.6203
  987MOL0     H33220   1.646   1.751   1.906 -0.0519 -0.5708  1.0016
  987MOL0     H33221   1.786   1.847   1.654 -2.2033  2.5039 -2.4562
  987MOL0     H33222   1.791   1.915   1.817  1.5946 -0.1230 -1.5432
  987MOL0     H33223   1.663   2.041   1.649  1.1866 -0.2023  1.6214
  987MOL0     H33224   1.524   1.936   1.681 -2.0448  1.1878  0.5935
  987MOL0     H33225   2.493   1.455   2.208 -0.1745  3.4544 -1.6321
  987MOL0     H33226   2.697   1.301   2.196 -0.0517  2.3699 -0.3242
  987MOL0     H33227   2.810   0.735   2.097  1.5450 -0.0680  0.4415
  987MOL0     H33228   3.031   0.636   2.129 -1.8809 -0.0204 -0.1227
  987MOL0     H33229   4.578   0.411   2.374  0.0740  1.0653  1.4703
  987MOL0     H33230   4.821   0.486   2.317  0.5405  0.4396  2.4386
  987MOL0     H33231   5.287   0.225   2.382 -0.6606 -0.6926  1.8155
  987MOL0     H33232   5.532   0.285   2.405 -0.2661 -0.4785  3.0688
  987MOL0     H33233   5.785   0.656   2.362  0.2763 -0.5271 -1.3243
  987MOL0     H33234   5.626   0.720   2.315  1.2392  1.8658  3.2137
  987MOL0     H33235   5.634   0.559   2.125 -0.7775  1.5870  0.6368
  987MOL0     H33236   5.797   0.525   2.160  1.8788  1.8418 -1.1221
  987MOL0     H33237   5.860   0.749   2.120  0.6803 -0.5853 -0.0488
  987MOL0     H33238   5.695   0.811   2.126  1.7170 -0.4815  0.1454
  987MOL0     H33239   5.821   0.657   1.890 -3.1736 -1.1024 -3.3415
  987MOL0     H33240   5.648   0.672   1.914 -1.4088 -0.0966  2.1536
  987MOL0     H33241   5.742   1.048   1.768 -2.9764 -1.1609 -1.0999
  987MOL0     H33242   5.426   0.703   2.390  0.5025 -0.1363  0.8846
  987MOL0     H33243   5.058   0.653   2.363 -0.4720  2.1768  0.2843
  987MOL0     H33244   5.142   0.685   2.510  0.3207  2.1257  0.2437
  987MOL0     H33245   5.198   0.772   2.370  0.2825 -0.6737  0.7743
  988MOL0     O33246  11.003   8.829   6.815  0.3220 -0.5628 -0.0873
  988MOL0     C33247  11.103   8.809   6.887  0.6959 -0.6124 -0.1647
  988MOL0     O33248  11.233   8.800   6.848 -0.0076 -0.0132  0.1219
  988MOL0     C33249  11.252   8.789   6.705 -0.0194  0.7600  0.8901
  988MOL0     C33250  11.273   8.899   6.624 -0.1105 -0.6162 -0.1912
  988MOL0     C33251  11.246   8.891   6.486 -0.0097 -0.9451 -0.0911
  988MOL0     C33252  11.203   8.775   6.418 -0.0031 -0.2960 -0.3316
  988MOL0     O33253  11.183   8.774   6.279  0.0443  0.8795 -0.0086
  988MOL0     C33254  11.276   8.842   6.195  0.2698  0.0591 -0.3696
  988MOL0     C33255  11.286   8.770   6.069  0.4342 -0.3547 -0.8396
  988MOL0     C33256  11.358   8.639   6.083 -0.4892  0.3941 -0.2132
  988MOL0     C33257  11.513   8.668   6.060  0.4491 -0.5272  0.3095
  988MOL0     C33258  11.589   8.546   6.102 -1.3947  0.1938  0.6054
  988MOL0     C33259  11.589   8.433   5.988 -1.1999 -0.1563 -0.0915
  988MOL0     C33260  11.617   8.291   6.032 -0.0070  0.2336  0.0257
  988MOL0     C33261  11.609   8.191   5.917  0.3338  0.3511 -1.3454
  988MOL0     N33262  11.489   8.204   5.834  0.2835  0.1541 -0.6409
  988MOL0     C33263  11.362   8.192   5.888  0.5972  1.4165 -0.2531
  988MOL0     C33264  11.275   8.206   5.781  0.4580  0.0608 -0.3790
  988MOL0     C33265  11.115   8.196   5.776 -0.3298  0.2627  0.1387
  988MOL0     C33266  11.054   8.270   5.647 -0.2974 -0.0806  0.8226
  988MOL0     C33267  11.024   8.415   5.704  0.4560 -0.2231 -0.6070
  988MOL0     C33268  10.959   8.505   5.604 -0.8639  0.7173  0.4331
  988MOL0     O33269  10.931   8.637   5.663 -0.0738 -0.2501 -0.0086
  988MOL0     C33270  11.024   8.737   5.683 -0.0742  0.0073  0.3883
  988MOL0     C33271  11.161   8.733   5.655 -0.3907 -0.6385  1.5704
  988MOL0     C33272  11.246   8.844   5.683  0.2540 -0.5198 -0.4382
  988MOL0     C33273  11.197   8.948   5.761 -0.8942 -0.7658  0.4772
  988MOL0     C33274  11.294   9.056   5.806  0.8940  0.3095  0.8352
  988MOL0     O33275  11.415   9.058   5.747  0.2660  0.1566 -0.0213
  988MOL0     C33276  11.506   9.154   5.775  0.0936  0.1123 -1.3761
  988MOL0     C33277  11.578   9.188   5.664 -0.0516 -0.1228 -0.3699
  988MOL0     C33278  11.676   9.290   5.672 -0.2001  0.6962  0.1597
  988MOL0     C33279  11.703   9.357   5.791  0.2815 -0.2899 -0.6031
  988MOL0     O33280  11.789   9.461   5.811 -0.5652 -0.2382  0.3188
  988MOL0     C33281  11.835   9.526   5.696 -0.0576 -0.5705  0.4397
  988MOL0     C33282  11.982   9.536   5.682  0.5320  0.1129  0.2064
  988MOL0     C33283  12.021   9.640   5.572 -0.6477 -0.3412 -0.6122
  988MOL0     C33284  12.152   9.578   5.513  0.3771 -0.5339 -0.7038
  988MOL0     C33285  12.221   9.685   5.430 -0.2050  0.6459  0.6937
  988MOL0     C33286  12.350   9.642   5.344 -0.4789  0.2397 -0.1866
  988MOL0     C33287  12.319   9.525   5.250 -0.2837  0.5316  0.1102
  988MOL0     C33288  12.434   9.434   5.222  0.1732  0.2254  0.3167
  988MOL0    Cl33289  12.370   9.296   5.122 -0.1471  1.1679  0.8764
  988MOL0     C33290  11.630   9.325   5.910 -0.0954  0.2753 -0.0898
  988MOL0     C33291  11.533   9.223   5.900  0.4011  0.2742  0.4014
  988MOL0     O33292  11.244   9.129   5.891 -0.3402 -0.2153 -0.7228
  988MOL0     C33293  11.068   8.954   5.786  0.5547  0.1683 -0.1845
  988MOL0     C33294  10.982   8.849   5.747  0.2278  0.2425  0.7413
  988MOL0     N33295  11.352   8.235   5.676  0.3523 -0.6506  0.3833
  988MOL0     N33296  11.471   8.223   5.706 -0.5457  0.0827  0.4318
  988MOL0     C33297  11.196   8.660   6.496  0.3271  0.2638 -0.2394
  988MOL0     C33298  11.218   8.662   6.634  0.0446 -0.1311  1.4665
  988MOL0     C33299  11.078   8.781   7.026 -0.1435  0.1935  0.5542
  988MOL0     C33300  11.165   8.867   7.106  0.0026  0.9187  0.0184
  988MOL0     C33301  11.141   8.869   7.242 -0.8859 -0.3549 -0.2533
  988MOL0     C33302  11.035   8.799   7.299  0.3665  0.0235 -0.0441
  988MOL0     O33303  11.002   8.839   7.430 -0.4358  0.5603 -0.3959
  988MOL0     C33304  10.862   8.843   7.462  0.2768  0.3568 -0.4239
  988MOL0     C33305  10.817   8.986   7.436 -0.4253  0.4800 -0.7781
  988MOL0     C33306  10.892   9.082   7.535  0.2941  0.6421 -0.3537
  988MOL0     C33307  10.894   9.220   7.479 -0.3409 -0.9127  0.0673
  988MOL0     C33308  10.761   9.267   7.432  1.4959 -0.8189 -0.2316
  988MOL0     C33309  10.647   9.295   7.387  0.3442 -0.9423  0.9141
  988MOL0     C33310  10.958   8.708   7.225  0.2972 -0.6771 -0.3204
  988MOL0     C33311  10.975   8.706   7.086  0.1522  0.1017  0.3285
  988MOL0     C33312  10.887   8.629   6.998  0.6267  0.0767 -0.9914
  988MOL0     H33313  11.302   8.994   6.668  2.1605 -0.9924 -0.7693
  988MOL0     H33314  11.257   8.972   6.415  1.1399 -2.2252 -1.4298
  988MOL0     H33315  11.238   8.944   6.185 -0.4183  0.1038  1.9743
  988MOL0     H33316  11.375   8.855   6.241 -0.8377  2.1846  1.6352
  988MOL0     H33317  11.328   8.830   5.987  2.6983 -0.5054  0.1599
  988MOL0     H33318  11.181   8.748   6.046 -0.9640  2.7523  1.7982
  988MOL0     H33319  11.334   8.564   6.007  2.7870 -0.0279 -1.0061
  988MOL0     H33320  11.347   8.599   6.184 -0.3245 -1.0450 -0.7496
  988MOL0     H33321  11.534   8.704   5.959  2.9756  0.7693  1.2273
  988MOL0     H33322  11.541   8.750   6.127 -2.0840  1.9116 -1.3673
  988MOL0     H33323  11.692   8.573   6.128 -1.2570  1.3505 -0.9739
  988MOL0     H33324  11.547   8.509   6.196 -2.8374 -1.5025 -0.6472
  988MOL0     H33325  11.494   8.440   5.936 -1.9344 -0.1396  1.2180
  988MOL0     H33326  11.661   8.467   5.912 -2.2587  3.4006  0.3575
  988MOL0     H33327  11.547   8.255   6.108  0.4957 -0.9874 -0.0762
  988MOL0     H33328  11.723   8.293   6.061  0.8870  6.2189 -2.2852
  988MOL0     H33329  11.701   8.215   5.861  1.2446  2.0629  0.7254
  988MOL0     H33330  11.619   8.091   5.960 -1.1568  1.8715  3.1328
  988MOL0     H33331  11.330   8.170   5.989  0.2785  3.5076  0.1526
  988MOL0     H33332  11.079   8.093   5.784  1.3062 -0.4385 -0.9744
  988MOL0     H33333  11.078   8.231   5.873 -2.9502 -1.3961 -0.1617
  988MOL0     H33334  11.124   8.264   5.563  0.5062 -0.0163  1.4693
  988MOL0     H33335  10.958   8.227   5.615  1.1265 -3.8343  1.0419
  988MOL0     H33336  11.107   8.461   5.759 -0.2218 -0.9568  1.1041
  988MOL0     H33337  10.957   8.392   5.787  0.0217 -1.9174 -1.3738
  988MOL0     H33338  10.865   8.462   5.567 -0.5029 -0.1946  0.5512
  988MOL0     H33339  11.023   8.528   5.518 -0.3331  1.0871  0.9178
  988MOL0     H33340  11.195   8.633   5.632 -0.1322 -0.5764  1.6772
  988MOL0     H33341  11.349   8.847   5.652 -0.1007  1.1010 -1.5716
  988MOL0     H33342  11.544   9.148   5.569 -2.1290  1.2784 -0.2789
  988MOL0     H33343  11.729   9.309   5.580  1.0164 -2.2284  0.1452
  988MOL0     H33344  11.780   9.502   5.604 -1.6093 -0.3895  1.2857
  988MOL0     H33345  11.808   9.630   5.717 -3.4502 -0.5242 -3.0475
  988MOL0     H33346  12.028   9.563   5.778  0.7986 -0.9884  0.3957
  988MOL0     H33347  12.023   9.438   5.657 -1.4494 -0.4462 -1.0466
  988MOL0     H33348  11.949   9.642   5.490 -1.4696 -4.8546 -0.2884
  988MOL0     H33349  12.035   9.740   5.613 -3.0615  0.0497 -0.6105
  988MOL0     H33350  12.119   9.494   5.451  0.7015 -0.0134 -1.6101
  988MOL0     H33351  12.230   9.549   5.584 -0.3081  1.0774  0.7672
  988MOL0     H33352  12.237   9.775   5.489  1.2278 -0.5054  2.1945
  988MOL0     H33353  12.146   9.710   5.354  0.6667 -3.4734 -1.8597
  988MOL0     H33354  12.388   9.720   5.277 -0.8823 -0.9923 -1.9109
  988MOL0     H33355  12.430   9.619   5.415 -1.6346 -1.6264  0.5986
  988MOL0     H33356  12.268   9.568   5.163  0.2769 -0.2700 -0.6393
  988MOL0     H33357  12.241   9.459   5.290  0.8068  0.2132  1.7812
  988MOL0     H33358  12.514   9.479   5.163  0.7365 -2.1271 -0.8211
  988MOL0     H33359  12.475   9.395   5.315  0.4903 -1.0102 -0.3138
  988MOL0     H33360  11.659   9.367   6.005 -0.5904  0.0248  0.1736
  988MOL0     H33361  11.479   9.193   5.990  1.0458  0.4272  0.8446
  988MOL0     H33362  11.020   9.029   5.849  2.3274  0.1107  1.3201
  988MOL0     H33363  10.881   8.844   5.785  1.0173 -2.3744  2.8169
  988MOL0     H33364  11.163   8.568   6.448 -0.5578 -1.7663  3.7928
  988MOL0     H33365  11.197   8.572   6.691  1.9110 -1.4726  0.1526
  988MOL0     H33366  11.257   8.913   7.070  0.3421  0.0796 -0.2188
  988MOL0     H33367  11.217   8.918   7.302  2.4292 -5.6199  0.5769
  988MOL0     H33368  10.841   8.825   7.568  1.0637  3.2456  0.3234
  988MOL0     H33369  10.794   8.783   7.402  1.4463 -1.6425  0.1661
  988MOL0     H33370  10.710   9.000   7.451 -0.4548 -1.5968  1.6535
  988MOL0     H33371  10.854   9.003   7.334  3.1390  1.7694  0.5778
  988MOL0     H33372  10.995   9.050   7.556 -0.3173 -0.4996  1.1542
  988MOL0     H33373  10.833   9.085   7.627  1.9808 -0.7346  0.8515
  988MOL0     H33374  10.934   9.284   7.558 -0.4182 -0.1666 -0.4926
  988MOL0     H33375  10.969   9.223   7.400 -1.3695 -0.0146 -0.9033
  988MOL0     H33376  10.558   9.316   7.332  1.8040  0.0626 -1.1801
  988MOL0     H33377  10.883   8.643   7.269 -0.0946  1.8811  3.3202
  988MOL0     H33378  10.802   8.692   6.969 -0.1563 -1.7828 -2.9755
  988MOL0     H33379  10.938   8.578   6.916 -1.2389 -1.0170 -1.5265
  988MOL0     H33380  10.829   8.554   7.053 -0.7160  0.9106 -1.2205
  989MOL0     O33381   1.616   2.485  10.554 -0.1233 -0.5894  0.0459
  989MOL0     C33382   1.540   2.575  10.542 -0.3958  0.5372  0.6573
  989MOL0     O33383   1.413   2.581  10.575  0.1329  0.5459  0.2483
  989MOL0     C33384   1.358   2.468  10.632  0.2685  0.1301  0.8159
  989MOL0     C33385   1.319   2.460  10.763  0.4421 -0.4323  0.0201
  989MOL0     C33386   1.265   2.338  10.814 -0.0974 -0.9757 -0.1520
  989MOL0     C33387   1.239   2.235  10.728 -0.6689 -0.2568  0.5820
  989MOL0     O33388   1.179   2.129  10.781 -0.2479 -0.0078  0.5959
  989MOL0     C33389   1.077   2.063  10.705  0.2212 -0.4386  0.6796
  989MOL0     C33390   0.972   1.992  10.789 -0.3432  0.0362 -1.2765
  989MOL0     C33391   1.017   1.955  10.931 -0.0436  0.0389 -0.1414
  989MOL0     C33392   0.918   1.873  10.993 -0.4435 -1.0033  0.3562
  989MOL0     C33393   0.950   1.840  11.142 -0.5572  0.6480  0.2418
  989MOL0     C33394   0.859   1.718  11.182 -0.9164 -0.2465 -0.5301
  989MOL0     C33395   0.868   1.710  11.339  0.0295 -1.0550 -0.0722
  989MOL0     C33396   0.780   1.592  11.379 -0.2124  1.0718 -0.7748
  989MOL0     N33397   0.801   1.583  11.523 -0.0306  0.1672  0.4716
  989MOL0     C33398   0.912   1.514  11.582  0.2600 -0.7414 -0.5894
  989MOL0     C33399   0.864   1.515  11.717  0.9566  0.1911  0.8116
  989MOL0     C33400   0.947   1.467  11.832  0.3577 -0.3377 -0.7764
  989MOL0     C33401   1.091   1.510  11.845  0.2336 -0.8216  1.2353
  989MOL0     C33402   1.134   1.638  11.914 -0.5886  0.6639  0.3233
  989MOL0     C33403   1.077   1.764  11.850  0.5498 -0.3017  0.0653
  989MOL0     O33404   1.158   1.791  11.737 -0.1618 -0.0262 -0.0101
  989MOL0     C33405   1.113   1.898  11.661 -0.6924  0.5276 -0.3188
  989MOL0     C33406   0.984   1.960  11.648  0.0039 -0.5512 -0.1646
  989MOL0     C33407   0.967   2.063  11.550  0.6792 -0.2374  0.1205
  989MOL0     C33408   1.062   2.094  11.454 -0.5295 -0.0124 -0.3887
  989MOL0     C33409   1.042   2.196  11.354 -0.2052  0.9115  0.1982
  989MOL0     O33410   0.916   2.240  11.344 -0.2745 -0.2996 -0.3926
  989MOL0     C33411   0.882   2.294  11.221  0.4344 -0.0070 -0.5295
  989MOL0     C33412   0.856   2.215  11.107 -0.2911  0.2037 -0.1360
  989MOL0     C33413   0.820   2.273  10.983 -0.4704 -0.3540  0.5399
  989MOL0     C33414   0.790   2.406  10.984  1.3555 -0.5552 -0.0870
  989MOL0     O33415   0.735   2.447  10.871  0.5470  0.3597  0.6038
  989MOL0     C33416   0.808   2.533  10.785 -0.4771 -0.3017 -0.3895
  989MOL0     C33417   0.895   2.450  10.694  0.4841 -0.8598  0.6341
  989MOL0     C33418   0.843   2.467  10.549 -0.7783 -0.2307  0.4210
  989MOL0     C33419   0.960   2.415  10.459  0.9916 -0.5881 -0.1487
  989MOL0     C33420   0.938   2.451  10.319 -0.3591  0.7770  0.1903
  989MOL0     C33421   1.041   2.391  10.215 -0.1306 -1.0140  0.2029
  989MOL0     C33422   1.030   2.247  10.205 -0.2101  0.2773  0.1670
  989MOL0     C33423   1.063   2.206  10.056 -0.6191  0.1728  0.0890
  989MOL0    Cl33424   1.242   2.237  10.006  0.1386  0.3534 -0.0501
  989MOL0     C33425   0.813   2.492  11.097  0.3056 -0.3061 -0.3288
  989MOL0     C33426   0.868   2.433  11.213  0.3342 -0.2434  0.0443
  989MOL0     O33427   1.138   2.225  11.281  0.5290  0.8020  0.1461
  989MOL0     C33428   1.179   2.017  11.462  0.0928 -0.4731 -0.1138
  989MOL0     C33429   1.203   1.931  11.566  0.1216  0.4906  0.7323
  989MOL0     N33430   0.733   1.559  11.734 -0.4383 -0.1013  0.2179
  989MOL0     N33431   0.705   1.604  11.618  0.9523 -0.1401 -0.1451
  989MOL0     C33432   1.271   2.239  10.593 -0.0374  0.2275 -0.0447
  989MOL0     C33433   1.330   2.356  10.544  0.2649 -0.4131  0.4673
  989MOL0     C33434   1.610   2.695  10.486  0.4039 -0.5904 -0.6200
  989MOL0     C33435   1.709   2.753  10.567 -0.3235  0.4798  0.5009
  989MOL0     C33436   1.770   2.869  10.531 -0.7333  0.0818  0.4012
  989MOL0     C33437   1.747   2.920  10.398 -0.3863 -0.2895  0.2092
  989MOL0     O33438   1.807   3.033  10.355  0.0769  0.0793 -0.0566
  989MOL0     C33439   1.836   3.047  10.216 -0.8039 -0.4841 -0.7562
  989MOL0     C33440   1.917   3.170  10.182  0.1167 -0.7662 -0.0261
  989MOL0     C33441   1.910   3.185  10.032 -0.3056  0.3310 -0.5000
  989MOL0     C33442   1.991   3.305   9.981 -0.7940  0.1756  0.1239
  989MOL0     C33443   1.913   3.426  10.010  0.5212 -0.7949  0.2183
  989MOL0     C33444   1.858   3.526  10.043  0.3120  0.2900  0.0919
  989MOL0     C33445   1.640   2.857  10.319 -0.8373 -0.4492 -1.3239
  989MOL0     C33446   1.576   2.749  10.364  1.0200  0.2098  0.2012
  989MOL0     C33447   1.472   2.680  10.283  0.3062  0.6851 -0.2752
  989MOL0     H33448   1.322   2.553  10.819  1.6335 -0.2856 -0.2702
  989MOL0     H33449   1.254   2.323  10.921 -1.8785  0.8659 -0.0308
  989MOL0     H33450   1.026   2.126  10.631 -0.9663 -0.6458  1.2949
  989MOL0     H33451   1.134   1.983  10.658 -0.4219 -0.0170 -0.8655
  989MOL0     H33452   0.933   1.908  10.731 -0.6167 -0.5471 -0.2662
  989MOL0     H33453   0.887   2.061  10.796  0.6882  1.4472 -2.1311
  989MOL0     H33454   1.038   2.049  10.983  1.7249  0.1138 -0.9304
  989MOL0     H33455   1.113   1.902  10.931 -0.4006 -0.7498  2.2420
  989MOL0     H33456   0.825   1.930  10.979 -1.2839 -1.7229  2.5821
  989MOL0     H33457   0.905   1.781  10.936 -1.6391 -0.3642 -0.4493
  989MOL0     H33458   1.051   1.797  11.152 -0.7982 -0.7377 -2.3417
  989MOL0     H33459   0.941   1.926  11.208  2.0404  1.0098  0.2278
  989MOL0     H33460   0.754   1.733  11.154 -1.0481 -1.8696 -0.9816
  989MOL0     H33461   0.887   1.626  11.131 -1.7098  0.2403 -1.8957
  989MOL0     H33462   0.832   1.800  11.389  2.0786 -1.0046  1.4610
  989MOL0     H33463   0.970   1.709  11.377  0.1354  0.2111 -0.2690
  989MOL0     H33464   0.679   1.624  11.351  1.0781  3.9266 -2.6185
  989MOL0     H33465   0.814   1.499  11.331 -0.4529  0.5670  0.0179
  989MOL0     H33466   1.008   1.485  11.541  1.8899  1.9738  1.0332
  989MOL0     H33467   0.901   1.509  11.921  0.2317 -0.4029 -0.8102
  989MOL0     H33468   0.944   1.358  11.831  0.4337 -0.3765  1.0810
  989MOL0     H33469   1.146   1.428  11.892  0.5222  0.0341  2.4182
  989MOL0     H33470   1.139   1.523  11.747 -1.6293  0.8887  0.4822
  989MOL0     H33471   1.240   1.663  11.906 -0.8918  3.7954  3.5416
  989MOL0     H33472   1.123   1.643  12.022  1.6661  1.0681  0.5792
  989MOL0     H33473   1.088   1.850  11.917 -4.3791  2.2974 -1.9241
  989MOL0     H33474   0.972   1.743  11.825 -0.5353  1.9652  2.2437
  989MOL0     H33475   0.894   1.928  11.700 -1.2329 -1.4013 -2.6783
  989MOL0     H33476   0.870   2.107  11.530  0.7054  1.2337  2.7905
  989MOL0     H33477   0.873   2.109  11.116 -0.0092  0.2713  0.1246
  989MOL0     H33478   0.802   2.218  10.891  0.1590 -1.3507  1.0030
  989MOL0     H33479   0.743   2.595  10.723 -1.1893 -1.9678 -1.4040
  989MOL0     H33480   0.883   2.585  10.845  0.8704 -1.8055 -0.6954
  989MOL0     H33481   1.000   2.478  10.704  1.4623 -3.4200 -1.2824
  989MOL0     H33482   0.892   2.347  10.731 -0.8487 -0.8751  0.5391
  989MOL0     H33483   0.744   2.423  10.536 -0.1558 -0.7767 -3.8456
  989MOL0     H33484   0.829   2.573  10.522  0.7675 -0.6424 -2.4518
  989MOL0     H33485   0.982   2.308  10.462  1.1837 -0.5615 -0.5793
  989MOL0     H33486   1.043   2.478  10.492 -0.0617 -0.2809  2.1040
  989MOL0     H33487   0.934   2.558  10.294 -3.4880 -0.0541 -4.1291
  989MOL0     H33488   0.840   2.410  10.293 -0.7190  1.9941 -0.4914
  989MOL0     H33489   1.024   2.431  10.115  1.8161 -0.6452 -0.0206
  989MOL0     H33490   1.141   2.418  10.248  0.4234 -2.6092 -0.1158
  989MOL0     H33491   0.935   2.206  10.238 -0.3550  0.7689  0.3668
  989MOL0     H33492   1.111   2.216  10.271  2.7358  0.4778 -3.0498
  989MOL0     H33493   1.040   2.099  10.061  0.5415 -0.1070 -0.3169
  989MOL0     H33494   0.993   2.244   9.981  0.9213 -1.5236 -2.3276
  989MOL0     H33495   0.800   2.599  11.106  2.2051 -0.0902  0.0829
  989MOL0     H33496   0.890   2.490  11.302  0.9251  1.1758 -0.9796
  989MOL0     H33497   1.258   2.025  11.388 -0.0256 -1.3780 -0.3500
  989MOL0     H33498   1.292   1.868  11.563 -2.8304 -4.0938 -1.0339
  989MOL0     H33499   1.244   2.163  10.521  3.4221 -0.6702 -0.5512
  989MOL0     H33500   1.347   2.365  10.437 -1.2526  1.8268  0.3467
  989MOL0     H33501   1.745   2.704  10.657  1.3298  1.6385  0.5251
  989MOL0     H33502   1.852   2.906  10.592  0.2234 -3.0516  1.2136
  989MOL0     H33503   1.747   3.049  10.152 -1.2207 -1.3391 -0.2310
  989MOL0     H33504   1.886   2.955  10.184 -1.3704 -2.4708  3.3688
  989MOL0     H33505   2.021   3.158  10.212 -0.4376  1.1717  3.0958
  989MOL0     H33506   1.876   3.265  10.217 -0.3380  0.9461 -4.5076
  989MOL0     H33507   1.806   3.195   9.997 -0.1663 -2.6101 -2.0337
  989MOL0     H33508   1.941   3.091   9.986 -3.6499 -2.1484  1.7179
  989MOL0     H33509   2.092   3.318  10.021 -1.4316  3.7814  0.9151
  989MOL0     H33510   2.007   3.290   9.874  2.3565 -2.5191  0.8111
  989MOL0     H33511   1.798   3.612  10.063 -3.2083 -1.2753 -2.5089
  989MOL0     H33512   1.617   2.880  10.215 -1.1405  0.2446 -1.1087
  989MOL0     H33513   1.485   2.572  10.282 -1.0415  0.5012 -0.8804
  989MOL0     H33514   1.369   2.709  10.309  0.0042 -0.6650  0.1164
  989MOL0     H33515   1.486   2.715  10.180  2.3078 -1.5936 -0.8641
  990MOL0     O33516  10.204   7.469   0.248 -0.6848  0.0442  0.0402
  990MOL0     C33517  10.308   7.398   0.254 -0.7806  0.0193 -0.1955
  990MOL0     O33518  10.413   7.421   0.335  1.3366 -0.5536 -0.4528
  990MOL0     C33519  10.419   7.516   0.438  0.0727  0.5692 -0.0983
  990MOL0     C33520  10.545   7.539   0.485 -0.3563 -0.3104 -0.4613
  990MOL0     C33521  10.559   7.642   0.591 -0.7679  0.7517 -0.4004
  990MOL0     C33522  10.456   7.714   0.637  0.4822 -0.5488  0.9030
  990MOL0     O33523  10.464   7.810   0.734  0.5196 -0.7727 -0.1257
  990MOL0     C33524  10.553   7.919   0.705 -0.2686  0.8403 -0.5444
  990MOL0     C33525  10.561   8.004   0.829 -0.0073 -0.2405 -0.5210
  990MOL0     C33526  10.410   8.033   0.871  0.1387 -0.5865  0.0327
  990MOL0     C33527  10.415   8.122   0.991  0.0398  0.6105 -0.0070
  990MOL0     C33528  10.297   8.213   1.006  0.0512  0.3836  0.5245
  990MOL0     C33529  10.168   8.129   0.995  0.4460 -0.4061 -0.0975
  990MOL0     C33530  10.038   8.216   1.004  0.0901  0.0764 -0.6604
  990MOL0     C33531  10.042   8.307   1.135  0.2822 -0.3901 -0.3592
  990MOL0     N33532   9.919   8.395   1.127 -0.7973  0.5345 -0.7349
  990MOL0     C33533   9.835   8.384   1.229 -0.4665 -1.2207  0.3382
  990MOL0     C33534   9.742   8.469   1.189 -0.4355 -0.0038 -0.6287
  990MOL0     C33535   9.608   8.483   1.248 -0.3691  0.6771 -0.7550
  990MOL0     C33536   9.497   8.535   1.157  1.2137  0.1992  0.3589
  990MOL0     C33537   9.356   8.514   1.214  0.9729  0.1633 -1.0454
  990MOL0     C33538   9.320   8.559   1.356 -1.0313  0.8227  0.0491
  990MOL0     O33539   9.195   8.499   1.392 -0.4787 -0.4307  0.5089
  990MOL0     C33540   9.144   8.559   1.511 -0.2408 -0.0232  0.5827
  990MOL0     C33541   9.215   8.639   1.605  0.5497  0.1226  0.2421
  990MOL0     C33542   9.172   8.696   1.729  0.7544  1.0087 -0.4191
  990MOL0     C33543   9.040   8.659   1.770 -0.3659 -0.2185 -0.3657
  990MOL0     C33544   8.981   8.690   1.908 -0.6899 -0.0131 -0.3369
  990MOL0     O33545   8.883   8.613   1.954  0.1399 -0.5154  0.2380
  990MOL0     C33546   8.837   8.631   2.082 -0.5739 -0.0296  0.4622
  990MOL0     C33547   8.702   8.671   2.115  0.1733 -0.8007 -0.8185
  990MOL0     C33548   8.659   8.654   2.255  0.1381 -0.5464 -0.1361
  990MOL0     C33549   8.756   8.618   2.346  0.3101  0.4934 -0.7910
  990MOL0     O33550   8.723   8.609   2.479  0.1156  0.0685 -0.1998
  990MOL0     C33551   8.769   8.708   2.580  0.3059 -0.5808  0.5811
  990MOL0     C33552   8.760   8.643   2.713  0.7095 -0.7346  0.6882
  990MOL0     C33553   8.800   8.735   2.836 -0.4659  0.3908 -0.1903
  990MOL0     C33554   8.837   8.650   2.961  0.1308  0.2918  0.2927
  990MOL0     C33555   8.879   8.739   3.084  0.4457 -0.0644 -0.5402
  990MOL0     C33556   8.838   8.674   3.218 -0.7250 -0.6375  0.7132
  990MOL0     C33557   8.885   8.529   3.234  0.4976 -0.4296 -0.9272
  990MOL0     C33558   9.035   8.521   3.233  0.0833  0.2167 -0.3985
  990MOL0    Cl33559   9.057   8.346   3.226  0.3508  0.1225 -0.2054
  990MOL0     C33560   8.885   8.591   2.308 -0.1086 -0.3597  0.1896
  990MOL0     C33561   8.922   8.586   2.182  0.2207 -0.8118  0.2916
  990MOL0     O33562   9.041   8.779   1.966 -0.0967  0.0403  0.3131
  990MOL0     C33563   8.958   8.586   1.678 -0.6245 -0.1632  0.2374
  990MOL0     C33564   9.008   8.543   1.552 -0.0276  0.6305  0.3744
  990MOL0     N33565   9.798   8.556   1.091  0.9418  0.6924 -0.6030
  990MOL0     N33566   9.909   8.513   1.056 -0.2965  0.6295 -0.8295
  990MOL0     C33567  10.328   7.690   0.586 -0.3503 -0.2513 -1.1967
  990MOL0     C33568  10.318   7.600   0.485 -0.1070  0.6561  0.0072
  990MOL0     C33569  10.330   7.287   0.157  0.1194 -0.3570 -0.0267
  990MOL0     C33570  10.460   7.240   0.141  0.6817  0.6043 -0.2581
  990MOL0     C33571  10.490   7.144   0.047 -0.3468 -0.5797 -0.9195
  990MOL0     C33572  10.398   7.112  -0.053  0.1945  0.4478 -0.3811
  990MOL0     O33573  10.429   7.030  -0.158  0.3975 -0.5685 -0.3624
  990MOL0     C33574  10.552   6.980  -0.176  0.0173 -0.5692  0.3003
  990MOL0     C33575  10.629   7.095  -0.243 -0.3841  0.1496  0.2027
  990MOL0     C33576  10.765   7.045  -0.286  0.4165  0.2929  0.4093
  990MOL0     C33577  10.861   7.051  -0.158 -0.3530  0.3104 -0.7441
  990MOL0     C33578  10.894   7.189  -0.138 -0.3389  0.0213  0.2594
  990MOL0     C33579  10.910   7.301  -0.113  0.6291  0.2475  0.8331
  990MOL0     C33580  10.265   7.153  -0.037 -0.0042 -0.3077 -0.0852
  990MOL0     C33581  10.225   7.234   0.072  0.0640 -0.1044  0.9697
  990MOL0     C33582  10.082   7.272   0.085  0.0734  0.6090  0.4112
  990MOL0     H33583  10.629   7.477   0.456  0.1056  0.9018 -1.8309
  990MOL0     H33584  10.660   7.665   0.624 -1.0663  0.4089  0.8241
  990MOL0     H33585  10.655   7.882   0.693 -0.3203  0.9707 -1.4836
  990MOL0     H33586  10.525   7.972   0.613  0.0828 -0.0771 -1.2023
  990MOL0     H33587  10.630   8.088   0.818  0.8850 -0.8756  0.0963
  990MOL0     H33588  10.609   7.941   0.904  0.4474 -1.4869 -1.8164
  990MOL0     H33589  10.356   7.940   0.891 -0.3899 -1.4346 -4.2634
  990MOL0     H33590  10.367   8.089   0.787  0.4578  2.3773  1.6828
  990MOL0     H33591  10.432   8.063   1.082 -2.9537  1.6674  1.3501
  990MOL0     H33592  10.493   8.198   0.982 -0.5995  1.2355 -0.3503
  990MOL0     H33593  10.313   8.270   1.098  0.9648  3.0838 -1.1989
  990MOL0     H33594  10.292   8.279   0.919 -0.7152 -2.3467 -1.6519
  990MOL0     H33595  10.167   8.091   0.892  3.2775  2.3724 -1.3165
  990MOL0     H33596  10.153   8.045   1.063 -3.7643 -0.6232 -1.0418
  990MOL0     H33597   9.956   8.144   1.012  0.4272 -0.1397  2.2716
  990MOL0     H33598  10.031   8.271   0.910  0.5562  2.3802  0.5595
  990MOL0     H33599  10.058   8.258   1.232  2.7867  0.5295 -0.2498
  990MOL0     H33600  10.110   8.392   1.123  0.1829 -0.6718 -3.5718
  990MOL0     H33601   9.827   8.308   1.306  1.1574 -1.1954  0.5657
  990MOL0     H33602   9.581   8.388   1.294 -1.8079  1.6052  0.4546
  990MOL0     H33603   9.620   8.559   1.326  1.8666 -0.0004 -0.3779
  990MOL0     H33604   9.529   8.634   1.124  3.0122 -0.7083 -0.7386
  990MOL0     H33605   9.500   8.484   1.060 -0.7882 -0.1074  0.4129
  990MOL0     H33606   9.349   8.405   1.218  2.6946  0.0698  0.8022
  990MOL0     H33607   9.287   8.547   1.135 -1.7271 -1.4549  0.4891
  990MOL0     H33608   9.321   8.668   1.360 -1.5197  0.7812  1.8673
  990MOL0     H33609   9.396   8.525   1.426  0.6887  2.1951 -1.0491
  990MOL0     H33610   9.322   8.644   1.586  0.4641  2.9451  0.1880
  990MOL0     H33611   9.230   8.762   1.793 -1.1651  0.1261  2.4284
  990MOL0     H33612   8.638   8.711   2.037  0.1377  4.0642  1.3430
  990MOL0     H33613   8.558   8.678   2.286 -0.5263 -1.8249 -1.1868
  990MOL0     H33614   8.869   8.730   2.541  0.0702 -1.5304 -0.6277
  990MOL0     H33615   8.708   8.799   2.579 -1.2192 -1.4624  3.2041
  990MOL0     H33616   8.656   8.609   2.721  0.5845 -1.2801 -2.3521
  990MOL0     H33617   8.818   8.551   2.702  0.6668 -0.5714 -1.1035
  990MOL0     H33618   8.892   8.787   2.808  0.0558  0.0358  0.7813
  990MOL0     H33619   8.732   8.820   2.849  3.3773  4.3818 -3.0851
  990MOL0     H33620   8.919   8.587   2.927  0.9868  0.8219  1.2988
  990MOL0     H33621   8.745   8.592   2.975  0.6753 -1.1208 -1.5655
  990MOL0     H33622   8.828   8.835   3.086  1.0189  0.3372 -2.7044
  990MOL0     H33623   8.986   8.762   3.078  0.9719 -1.2694  2.3741
  990MOL0     H33624   8.847   8.740   3.304  0.1157 -0.0900  0.2198
  990MOL0     H33625   8.730   8.660   3.200 -0.4403 -1.1308 -0.7493
  990MOL0     H33626   8.842   8.457   3.163 -1.0156 -1.0807  0.5701
  990MOL0     H33627   8.849   8.497   3.333  0.4303 -1.1200 -1.1667
  990MOL0     H33628   9.087   8.570   3.150 -0.0412  1.2921  0.1480
  990MOL0     H33629   9.080   8.553   3.327 -3.0833  1.0657  0.9301
  990MOL0     H33630   8.966   8.562   2.375  0.3588 -2.1932 -1.0708
  990MOL0     H33631   9.015   8.532   2.172  0.1064 -0.7873 -1.1079
  990MOL0     H33632   8.851   8.580   1.695 -1.7344  3.2506 -3.7655
  990MOL0     H33633   8.930   8.508   1.486 -0.3284  0.7380  0.6732
  990MOL0     H33634  10.244   7.746   0.627 -0.1230  0.2327 -1.3769
  990MOL0     H33635  10.214   7.587   0.456 -0.6001  0.2741  1.8354
  990MOL0     H33636  10.542   7.271   0.205  0.8653 -0.8442  0.2505
  990MOL0     H33637  10.594   7.114   0.039  0.1201  1.2827 -2.8522
  990MOL0     H33638  10.538   6.900  -0.249 -0.0457 -0.2838 -0.0048
  990MOL0     H33639  10.595   6.941  -0.084  0.0102  0.6342  0.8344
  990MOL0     H33640  10.641   7.186  -0.184  4.3802  0.3455 -0.6983
  990MOL0     H33641  10.581   7.121  -0.338 -2.4555  0.8888  1.3923
  990MOL0     H33642  10.802   7.117  -0.360  2.0465 -0.7736  0.1416
  990MOL0     H33643  10.766   6.944  -0.329  2.6662 -0.6482  2.4625
  990MOL0     H33644  10.814   7.007  -0.070  2.6830  1.9043  1.8712
  990MOL0     H33645  10.950   6.992  -0.182 -1.4250 -0.3951 -3.4876
  990MOL0     H33646  10.917   7.407  -0.095 -0.4846  0.1869  1.7253
  990MOL0     H33647  10.191   7.114  -0.107  0.5992  1.5624 -1.8591
  990MOL0     H33648  10.054   7.359   0.024 -2.9437 -0.7144 -0.2876
  990MOL0     H33649  10.029   7.188   0.039  0.6256  0.8446 -0.6909
  990MOL0     H33650  10.051   7.284   0.189 -1.4613  2.7576 -0.2165
  991MOL0     O33651   8.025  10.717   8.968  0.5922 -0.6305  0.4903
  991MOL0     C33652   7.906  10.687   8.959  0.4585  0.3393 -0.8128
  991MOL0     O33653   7.808  10.727   9.046  0.2020  0.0978  1.3766
  991MOL0     C33654   7.821  10.838   9.131  0.2579 -0.3016  0.3479
  991MOL0     C33655   7.929  10.928   9.151 -0.0115 -0.7461  0.1953
  991MOL0     C33656   7.906  11.031   9.243 -0.0122  1.0179  0.5863
  991MOL0     C33657   7.785  11.059   9.302  0.1225 -0.1275 -0.2694
  991MOL0     O33658   7.771  11.169   9.380  0.5076 -0.2545  1.0856
  991MOL0     C33659   7.641  11.216   9.410  0.1947 -0.4550 -0.0217
  991MOL0     C33660   7.609  11.180   9.558 -0.2475  0.1825  0.4824
  991MOL0     C33661   7.501  11.273   9.610 -0.8991 -0.8089  0.5557
  991MOL0     C33662   7.483  11.246   9.768 -0.3100 -0.7890  0.7214
  991MOL0     C33663   7.363  11.332   9.818 -1.5994 -0.1469 -0.5716
  991MOL0     C33664   7.349  11.311   9.966  0.4748  0.0357  0.4173
  991MOL0     C33665   7.298  11.176  10.016 -0.5380 -0.4952 -0.1765
  991MOL0     C33666   7.249  11.178  10.158  0.2356 -0.8567  0.3779
  991MOL0     N33667   7.207  11.046  10.198  0.2778  0.1285  0.2545
  991MOL0     C33668   7.134  10.951  10.129 -0.3054  0.3389  0.8929
  991MOL0     C33669   7.105  10.865  10.222 -0.9046  0.9649  0.7247
  991MOL0     C33670   6.997  10.762  10.198 -0.6203 -0.7369  0.2391
  991MOL0     C33671   7.062  10.646  10.125 -0.3995  0.0745  0.8030
  991MOL0     C33672   6.956  10.539  10.081 -0.5907  0.4119 -0.5188
  991MOL0     C33673   6.821  10.586  10.020  0.6394 -0.6539  0.6610
  991MOL0     O33674   6.746  10.477   9.964  0.4225  0.4281  0.1396
  991MOL0     C33675   6.631  10.510   9.902 -0.4018  0.8220 -0.6651
  991MOL0     C33676   6.614  10.618   9.810  0.0870  0.6776 -0.0307
  991MOL0     C33677   6.495  10.627   9.734  0.1257 -0.4193  0.5092
  991MOL0     C33678   6.389  10.537   9.747 -0.2391  0.3342  0.0588
  991MOL0     C33679   6.263  10.559   9.664  0.4654  0.3623  0.0280
  991MOL0     O33680   6.266  10.677   9.599  0.5472 -0.1539 -0.2602
  991MOL0     C33681   6.175  10.728   9.509  0.0039 -0.3157  0.9354
  991MOL0     C33682   6.041  10.689   9.512  0.8474 -0.2563  0.5357
  991MOL0     C33683   5.949  10.751   9.433 -0.1276 -0.3347 -0.9026
  991MOL0     C33684   5.982  10.863   9.357 -0.2017 -0.5209  0.5023
  991MOL0     O33685   5.903  10.916   9.254  0.4300  0.0597 -0.1140
  991MOL0     C33686   5.764  10.923   9.278  0.5539  0.1909  0.4002
  991MOL0     C33687   5.703  11.007   9.166  0.5040 -0.6472 -0.7925
  991MOL0     C33688   5.742  11.153   9.187 -0.0758 -0.7191  0.3794
  991MOL0     C33689   5.628  11.254   9.133 -0.5202 -0.0884 -0.7226
  991MOL0     C33690   5.632  11.238   8.980 -0.0635 -0.1538  0.4744
  991MOL0     C33691   5.544  11.357   8.912  0.4303 -0.1326  0.2467
  991MOL0     C33692   5.599  11.497   8.910 -0.9866 -0.1101  0.1262
  991MOL0     C33693   5.515  11.594   8.841  0.9099 -0.4366 -0.8439
  991MOL0    Cl33694   5.606  11.749   8.839  0.1605 -0.3546 -0.1758
  991MOL0     C33695   6.119  10.898   9.350  0.2116 -1.0123 -0.5994
  991MOL0     C33696   6.212  10.824   9.421  0.6330 -0.3224  0.1757
  991MOL0     O33697   6.184  10.467   9.646  0.5319 -0.8382  0.5497
  991MOL0     C33698   6.409  10.420   9.828  0.0598  1.0114 -0.0252
  991MOL0     C33699   6.534  10.410   9.903  1.3162 -0.0037 -0.6290
  991MOL0     N33700   7.168  10.894  10.343  0.0114 -0.9610  0.0170
  991MOL0     N33701   7.237  11.001  10.328 -0.4566  0.0635 -0.0585
  991MOL0     C33702   7.680  10.972   9.275  0.1743 -0.6503 -0.0171
  991MOL0     C33703   7.698  10.863   9.189  0.8057 -0.2428  0.4455
  991MOL0     C33704   7.872  10.592   8.849 -0.2262  0.9590 -0.4661
  991MOL0     C33705   7.747  10.514   8.863  0.3013 -0.5614  0.7853
  991MOL0     C33706   7.709  10.420   8.761 -0.5835 -0.5856 -1.1191
  991MOL0     C33707   7.798  10.392   8.653 -1.2948  0.5982  0.5038
  991MOL0     O33708   7.777  10.316   8.540  0.8853 -1.2066 -0.2259
  991MOL0     C33709   7.648  10.259   8.528 -0.6983 -0.5884  1.0196
  991MOL0     C33710   7.659  10.148   8.425  0.1442 -1.0729 -0.2389
  991MOL0     C33711   7.702  10.007   8.472  0.5694  0.4916  0.6023
  991MOL0     C33712   7.601   9.895   8.422 -0.0485 -0.1055  0.1422
  991MOL0     C33713   7.596   9.777   8.505  0.2125  0.1230 -0.5329
  991MOL0     C33714   7.598   9.665   8.550  0.2027 -0.5514  0.8029
  991MOL0     C33715   7.924  10.465   8.642 -0.2573  0.0066 -0.4231
  991MOL0     C33716   7.964  10.554   8.743 -0.0087 -0.8968  0.7159
  991MOL0     C33717   8.101  10.616   8.725 -0.4664  0.2049  0.7655
  991MOL0     H33718   8.018  10.927   9.089  1.2155  1.9443  1.6917
  991MOL0     H33719   7.979  11.110   9.256  0.3695  1.0814 -1.6281
  991MOL0     H33720   7.650  11.325   9.402 -4.5056  0.2735  1.7969
  991MOL0     H33721   7.561  11.179   9.346 -1.0895 -4.2949  3.3897
  991MOL0     H33722   7.696  11.185   9.623 -0.5477  2.4948  0.8038
  991MOL0     H33723   7.572  11.077   9.552 -2.4274  0.9402 -0.1276
  991MOL0     H33724   7.404  11.254   9.563 -2.7545  1.2815  3.2265
  991MOL0     H33725   7.524  11.378   9.592 -0.9546 -1.1774 -1.9186
  991MOL0     H33726   7.462  11.146   9.807 -2.1539  0.4201  3.0916
  991MOL0     H33727   7.580  11.275   9.811  0.7836 -1.1089 -1.3895
  991MOL0     H33728   7.393  11.437   9.806 -0.9269 -0.2649  0.0107
  991MOL0     H33729   7.266  11.335   9.767 -1.3323 -0.2217 -1.0963
  991MOL0     H33730   7.447  11.329  10.010  0.8000 -2.6450  0.9686
  991MOL0     H33731   7.277  11.390   9.990  0.4299 -0.5876  2.5355
  991MOL0     H33732   7.374  11.098  10.017 -1.2313 -1.2118 -1.1171
  991MOL0     H33733   7.217  11.146   9.949 -1.1679  0.2159  0.2417
  991MOL0     H33734   7.323  11.223  10.225 -0.1279  1.2374 -0.5486
  991MOL0     H33735   7.156  11.236  10.154  0.6102 -0.2541  0.3127
  991MOL0     H33736   7.087  10.951  10.031  0.7684  0.8866  0.3698
  991MOL0     H33737   6.960  10.724  10.294 -0.1644  0.5260  0.9437
  991MOL0     H33738   6.916  10.805  10.139 -1.9738  0.4832  2.8253
  991MOL0     H33739   7.090  10.688  10.028  3.6804 -1.6916  1.0383
  991MOL0     H33740   7.151  10.601  10.168 -1.5572  0.7127  4.1836
  991MOL0     H33741   6.924  10.479  10.166  0.4074  0.0226 -0.4151
  991MOL0     H33742   7.008  10.476  10.008  2.6110  1.0081  1.0868
  991MOL0     H33743   6.840  10.661   9.942  0.9016 -0.0471  1.2921
  991MOL0     H33744   6.760  10.635  10.096 -1.4569 -1.3852 -0.4671
  991MOL0     H33745   6.691  10.694   9.797 -0.4674  1.2851  0.2240
  991MOL0     H33746   6.486  10.713   9.669  1.0818  0.9367  2.0850
  991MOL0     H33747   5.985  10.624   9.578  0.6409 -3.5495 -2.5787
  991MOL0     H33748   5.848  10.713   9.445  1.5016 -4.6960  0.9839
  991MOL0     H33749   5.709  10.828   9.272 -1.8365  1.5878 -1.5542
  991MOL0     H33750   5.736  10.970   9.372 -0.3430 -1.8175  1.2016
  991MOL0     H33751   5.744  10.974   9.071  1.2917 -0.2206 -0.6080
  991MOL0     H33752   5.595  10.993   9.182  0.5364  2.0220  3.6968
  991MOL0     H33753   5.750  11.174   9.294  0.5529 -0.5583  0.3057
  991MOL0     H33754   5.838  11.178   9.142 -0.0603 -0.2812  0.6491
  991MOL0     H33755   5.649  11.358   9.160  0.8995 -1.0115  2.1602
  991MOL0     H33756   5.534  11.227   9.182 -0.2817  3.2973  1.9864
  991MOL0     H33757   5.580  11.146   8.952 -1.6560  1.0529 -0.7403
  991MOL0     H33758   5.737  11.257   8.954 -0.4195  1.9824  0.4136
  991MOL0     H33759   5.513  11.324   8.812  2.4199  0.1222 -0.5064
  991MOL0     H33760   5.452  11.374   8.968  0.3408  0.2163 -0.0011
  991MOL0     H33761   5.689  11.492   8.848  1.6106  0.7953  3.5657
  991MOL0     H33762   5.634  11.541   9.003 -0.0999 -1.6682  0.5703
  991MOL0     H33763   5.494  11.559   8.740 -0.3438 -1.0850 -0.3766
  991MOL0     H33764   5.424  11.612   8.899  1.0328  1.4003 -1.1376
  991MOL0     H33765   6.151  10.970   9.275  0.9784 -1.9145 -1.1606
  991MOL0     H33766   6.313  10.863   9.428 -0.0058  2.1029 -2.4648
  991MOL0     H33767   6.337  10.339   9.822  2.7878 -1.6156  0.0088
  991MOL0     H33768   6.559  10.324   9.963  0.9966  2.7292  3.8296
  991MOL0     H33769   7.579  10.985   9.313  0.0334  0.1305 -0.6399
  991MOL0     H33770   7.615  10.799   9.163  0.2455  0.8961 -0.6736
  991MOL0     H33771   7.683  10.515   8.950 -0.4885 -0.5329  0.2180
  991MOL0     H33772   7.617  10.363   8.771 -0.4357 -0.9362 -1.7375
  991MOL0     H33773   7.574  10.337   8.509  0.7765  0.3826 -1.1442
  991MOL0     H33774   7.623  10.211   8.624  1.5223  1.9873  3.0298
  991MOL0     H33775   7.731  10.173   8.346  0.0302 -0.3249 -0.1178
  991MOL0     H33776   7.555  10.136   8.391 -0.1894 -2.1667  1.1079
  991MOL0     H33777   7.709  10.006   8.582  1.9272  3.7865  0.6622
  991MOL0     H33778   7.796   9.979   8.423  0.9434  1.4571  0.7421
  991MOL0     H33779   7.498   9.927   8.404  0.5132  0.4742 -2.3988
  991MOL0     H33780   7.639   9.864   8.324 -2.8086 -1.1599 -0.6987
  991MOL0     H33781   7.626   9.568   8.587 -0.6872 -1.2013 -0.1531
  991MOL0     H33782   7.993  10.444   8.560  0.8777  1.0701  0.2264
  991MOL0     H33783   8.179  10.593   8.797  1.0399 -0.9857 -1.1448
  991MOL0     H33784   8.140  10.588   8.627  0.0598  0.2566  0.9585
  991MOL0     H33785   8.085  10.725   8.722 -2.7685 -0.0622  1.1190
  992MOL0     O33786   0.473   5.024  10.884 -0.2876 -0.0130 -0.4151
  992MOL0     C33787   0.412   5.126  10.854 -0.5134 -1.1069  0.7247
  992MOL0     O33788   0.295   5.166  10.908 -0.0802  0.0594  0.7044
  992MOL0     C33789   0.259   5.111  11.028 -0.1218  0.1618 -0.4558
  992MOL0     C33790   0.266   5.196  11.149  0.1231  0.1438  0.3909
  992MOL0     C33791   0.238   5.144  11.281 -0.2725  0.7110 -0.7348
  992MOL0     C33792   0.198   5.008  11.298  0.1285 -0.0864 -0.7477
  992MOL0     O33793   0.167   4.958  11.420  0.2849  0.3174  0.4571
  992MOL0     C33794   0.219   5.006  11.544  0.2379  0.7482 -0.5665
  992MOL0     C33795   0.183   4.921  11.669  0.3998 -0.2611 -0.2283
  992MOL0     C33796   0.285   4.801  11.699  0.7439 -0.7298  0.2477
  992MOL0     C33797   0.210   4.686  11.770  0.2988 -0.2054  0.5036
  992MOL0     C33798   0.296   4.562  11.782  0.2967 -0.2419 -0.2157
  992MOL0     C33799   0.399   4.586  11.898 -0.6100 -0.5481  0.1358
  992MOL0     C33800   0.474   4.455  11.916 -1.0246  0.0264 -0.1772
  992MOL0     C33801   0.567   4.452  12.039  0.1772  0.0333  0.6737
  992MOL0     N33802   0.637   4.581  12.052  0.0384 -0.4449 -0.1488
  992MOL0     C33803   0.737   4.644  11.981  0.3918 -0.3220  0.1098
  992MOL0     C33804   0.788   4.740  12.062 -0.6520  0.4257  0.1698
  992MOL0     C33805   0.905   4.837  12.048 -0.9935  0.7219  0.0108
  992MOL0     C33806   0.851   4.975  12.061  0.1529 -0.1597  0.7089
  992MOL0     C33807   0.946   5.085  12.011  0.3257  0.2559 -0.8773
  992MOL0     C33808   1.081   5.070  12.091  0.1154  0.3829  0.2968
  992MOL0     O33809   1.153   5.200  12.102  0.0333  0.8833  0.4409
  992MOL0     C33810   1.282   5.204  12.153  0.9132  0.2109 -0.8303
  992MOL0     C33811   1.340   5.330  12.162 -0.1050 -0.6172 -0.6035
  992MOL0     C33812   1.469   5.350  12.222 -0.5164  0.2027  1.0126
  992MOL0     C33813   1.541   5.240  12.262  0.0484  0.7908 -1.1014
  992MOL0     C33814   1.669   5.249  12.333  0.9750 -0.2310 -0.4458
  992MOL0     O33815   1.703   5.375  12.369  0.2936 -0.1574 -0.0251
  992MOL0     C33816   1.808   5.395  12.451  0.7035  0.9516 -0.4854
  992MOL0     C33817   1.794   5.381  12.589 -1.1595 -0.6676  0.2775
  992MOL0     C33818   1.895   5.436  12.668 -0.7374 -0.0596  0.4199
  992MOL0     C33819   2.017   5.485  12.614 -0.1136  0.1228 -0.7023
  992MOL0     O33820   2.115   5.541  12.703  0.0543  0.5132 -0.2950
  992MOL0     C33821   2.242   5.472  12.691 -0.4125  0.3078 -0.1614
  992MOL0     C33822   2.344   5.546  12.601  0.3155 -0.3029  0.0270
  992MOL0     C33823   2.363   5.682  12.652 -0.5883 -0.3690 -0.0903
  992MOL0     C33824   2.446   5.760  12.547 -0.2300 -0.7412  0.7237
  992MOL0     C33825   2.442   5.908  12.576 -0.3488  0.2237  0.9685
  992MOL0     C33826   2.486   5.960  12.712  0.3017 -0.2060  0.4911
  992MOL0     C33827   2.613   5.906  12.775  0.6269  0.4669 -0.0309
  992MOL0     C33828   2.753   5.951  12.730  0.2870 -0.1285  0.6994
  992MOL0    Cl33829   2.758   5.892  12.557 -0.0859  0.1221 -0.2821
  992MOL0     C33830   2.026   5.499  12.474  0.7653 -0.0107 -0.3061
  992MOL0     C33831   1.917   5.450  12.398  0.2263 -0.2041 -0.2969
  992MOL0     O33832   1.714   5.139  12.372  0.3500 -0.5950 -0.2062
  992MOL0     C33833   1.473   5.112  12.253  0.3581  0.8443  0.2743
  992MOL0     C33834   1.348   5.089  12.196 -0.0239 -0.8304  0.3574
  992MOL0     N33835   0.721   4.734  12.182  0.4787  0.1394  0.5523
  992MOL0     N33836   0.633   4.644  12.178  0.6833  0.7095  0.8280
  992MOL0     C33837   0.189   4.931  11.180  0.3101  0.0655 -0.1894
  992MOL0     C33838   0.223   4.979  11.050 -0.3031 -0.8336 -0.3975
  992MOL0     C33839   0.480   5.224  10.765 -0.6870 -0.0183  0.1589
  992MOL0     C33840   0.617   5.206  10.748  1.4607 -0.2980  0.4557
  992MOL0     C33841   0.683   5.290  10.656 -0.5230 -1.1422  1.5854
  992MOL0     C33842   0.609   5.390  10.593 -1.3172 -0.3624  0.5658
  992MOL0     O33843   0.672   5.477  10.510 -0.0335 -0.0837  0.1774
  992MOL0     C33844   0.783   5.436  10.429 -0.1930 -0.0393  0.1053
  992MOL0     C33845   0.797   5.545  10.326 -0.2372  0.1399  0.2655
  992MOL0     C33846   0.826   5.688  10.376  0.5049 -0.3488  0.3780
  992MOL0     C33847   0.872   5.790  10.272 -0.2700 -0.3275 -0.4454
  992MOL0     C33848   0.940   5.907  10.320  0.0699  0.8435 -0.0524
  992MOL0     C33849   0.993   6.009  10.356  0.4965 -0.2622 -0.4588
  992MOL0     C33850   0.481   5.410  10.616  0.2152  0.5490  0.4844
  992MOL0     C33851   0.409   5.329  10.703 -0.2799 -0.1249  0.6452
  992MOL0     C33852   0.259   5.366  10.723 -0.0830  0.2441  0.4900
  992MOL0     H33853   0.302   5.298  11.138 -2.9517  1.2126 -1.0195
  992MOL0     H33854   0.255   5.205  11.369  1.3416  1.0548 -1.2409
  992MOL0     H33855   0.327   4.990  11.531  0.6390 -0.6198  3.2101
  992MOL0     H33856   0.187   5.110  11.562 -1.0036  0.1448  0.9177
  992MOL0     H33857   0.078   4.890  11.665  0.2022  0.5194 -1.6820
  992MOL0     H33858   0.182   4.986  11.757 -4.2531 -0.2601  0.0033
  992MOL0     H33859   0.368   4.845  11.755  0.2855  1.0910 -0.4400
  992MOL0     H33860   0.309   4.767  11.597 -0.8884  0.4899 -0.5880
  992MOL0     H33861   0.174   4.704  11.872  0.4761 -0.6661  0.6538
  992MOL0     H33862   0.129   4.660  11.701  1.4878 -2.9820 -0.0075
  992MOL0     H33863   0.228   4.479  11.800 -0.9092  0.7396 -0.1469
  992MOL0     H33864   0.352   4.551  11.689 -1.5920  2.3183 -1.8020
  992MOL0     H33865   0.470   4.662  11.863 -1.2470 -1.0457 -2.4007
  992MOL0     H33866   0.357   4.624  11.992 -1.7271 -0.8311 -0.2307
  992MOL0     H33867   0.543   4.452  11.831  1.7865  3.7996  1.7185
  992MOL0     H33868   0.412   4.365  11.908  1.5628 -1.7161 -2.2999
  992MOL0     H33869   0.507   4.445  12.130 -2.8529  2.2648 -0.9627
  992MOL0     H33870   0.631   4.367  12.013 -1.2647 -1.0007  0.3256
  992MOL0     H33871   0.774   4.618  11.883 -0.5958 -0.1595 -0.3177
  992MOL0     H33872   0.988   4.813  12.115  0.3693  1.2030 -1.4464
  992MOL0     H33873   0.949   4.822  11.949  3.3566 -1.3729  1.9968
  992MOL0     H33874   0.756   4.978  12.006 -1.0561 -0.5032  2.6913
  992MOL0     H33875   0.822   4.994  12.165  0.6844 -2.7580  1.4086
  992MOL0     H33876   0.898   5.175  12.049  3.6395  2.0187 -0.5731
  992MOL0     H33877   0.964   5.099  11.904  0.3064  0.4762 -0.8513
  992MOL0     H33878   1.144   4.989  12.054 -0.6825 -0.6768  1.2091
  992MOL0     H33879   1.056   5.040  12.193 -3.2786  0.6904 -0.2975
  992MOL0     H33880   1.283   5.412  12.119  0.1848  1.9169  3.3378
  992MOL0     H33881   1.506   5.452  12.227 -1.4939  0.7464 -1.3764
  992MOL0     H33882   1.698   5.366  12.638 -1.9464  1.6993 -0.4077
  992MOL0     H33883   1.873   5.440  12.775  0.6612  0.6388  0.6924
  992MOL0     H33884   2.272   5.459  12.795 -3.8126  0.9996  1.0523
  992MOL0     H33885   2.236   5.373  12.645 -0.2861  0.5821 -0.7861
  992MOL0     H33886   2.431   5.480  12.606 -1.6322 -2.9381  1.4862
  992MOL0     H33887   2.312   5.535  12.497 -2.6601 -0.8665  0.9327
  992MOL0     H33888   2.268   5.732  12.671  1.6541  4.1126  0.7884
  992MOL0     H33889   2.413   5.668  12.749 -0.2822 -2.6996 -0.5254
  992MOL0     H33890   2.420   5.743  12.442  0.5832 -0.6958  0.5027
  992MOL0     H33891   2.552   5.732  12.550  0.1613  0.6679  0.6463
  992MOL0     H33892   2.341   5.941  12.552 -0.7168 -2.4072 -1.6220
  992MOL0     H33893   2.502   5.954  12.497  2.2252 -2.1605  1.3444
  992MOL0     H33894   2.489   6.069  12.707 -1.3052 -0.1788 -3.0439
  992MOL0     H33895   2.413   5.933  12.790  0.7678 -2.9724  0.0605
  992MOL0     H33896   2.602   5.798  12.758 -1.7911  0.8228 -1.0943
  992MOL0     H33897   2.615   5.919  12.884  0.8279 -3.4805  0.5940
  992MOL0     H33898   2.763   6.060  12.736 -1.5676  0.0956  0.3321
  992MOL0     H33899   2.836   5.905  12.784  0.9810 -1.3220 -1.2590
  992MOL0     H33900   2.121   5.537  12.437  2.2976 -2.8339  0.4646
  992MOL0     H33901   1.923   5.451  12.290  4.4372 -0.6269 -0.2288
  992MOL0     H33902   1.531   5.026  12.285 -0.5264  0.4739  0.9083
  992MOL0     H33903   1.312   4.987  12.191 -0.2471 -1.0096  3.3948
  992MOL0     H33904   0.161   4.826  11.191  0.9057 -0.0915 -0.1684
  992MOL0     H33905   0.216   4.903  10.972 -1.5790 -2.2562  1.0319
  992MOL0     H33906   0.667   5.130  10.807 -0.2141  0.1749  2.5904
  992MOL0     H33907   0.787   5.260  10.645 -0.6193 -1.4694  1.5536
  992MOL0     H33908   0.757   5.356  10.359 -1.6285 -0.0445  0.6061
  992MOL0     H33909   0.871   5.402  10.484 -0.5916 -3.0507 -0.9045
  992MOL0     H33910   0.707   5.544  10.264  0.3183 -0.1189 -0.5676
  992MOL0     H33911   0.865   5.518  10.244 -0.9888  1.7474 -0.9312
  992MOL0     H33912   0.900   5.687  10.457  0.4226  0.1169  0.4601
  992MOL0     H33913   0.732   5.729  10.412  0.8865 -1.4385  2.8581
  992MOL0     H33914   0.941   5.742  10.201  0.7468 -0.5402  0.6460
  992MOL0     H33915   0.778   5.825  10.228 -0.1634 -0.3482 -0.6947
  992MOL0     H33916   1.039   6.100  10.388  1.0811 -0.5617 -0.4309
  992MOL0     H33917   0.432   5.492  10.564 -3.1696 -1.2834  0.5180
  992MOL0     H33918   0.198   5.277  10.708 -0.2446  0.5260 -0.6362
  992MOL0     H33919   0.243   5.407  10.823 -0.0182  1.4224  0.0333
  992MOL0     H33920   0.231   5.436  10.644  2.7191 -0.2096 -1.0341
  993MOL0     O33921   3.695  11.150  10.077  0.3339  0.0460  0.1850
  993MOL0     C33922   3.674  11.035  10.029  0.6576  0.5391  1.2153
  993MOL0     O33923   3.748  10.917  10.050  0.2374 -0.4324  0.6071
  993MOL0     C33924   3.831  10.922  10.153  0.2104 -0.2044  0.5470
  993MOL0     C33925   3.814  10.841  10.260 -0.1898  0.3158 -0.6380
  993MOL0     C33926   3.909  10.843  10.372 -0.1851  0.5662 -0.7893
  993MOL0     C33927   4.009  10.941  10.373  0.8796  0.2295 -1.1428
  993MOL0     O33928   4.081  10.976  10.485  0.3215  0.9248  0.1339
  993MOL0     C33929   4.169  10.871  10.536  0.8117  0.0486  0.4666
  993MOL0     C33930   4.321  10.866  10.470 -0.0921  0.4176  0.0129
  993MOL0     C33931   4.401  10.745  10.519  0.0374 -0.2346  0.6925
  993MOL0     C33932   4.365  10.695  10.656  0.1866  0.0223 -0.3749
  993MOL0     C33933   4.484  10.606  10.708  0.2560  0.6758  0.0582
  993MOL0     C33934   4.471  10.536  10.848  0.1651  0.0003  0.7988
  993MOL0     C33935   4.339  10.469  10.863 -0.6398  0.5230  0.7008
  993MOL0     C33936   4.333  10.361  10.986 -0.2176 -0.6599 -0.3450
  993MOL0     N33937   4.350  10.435  11.112 -0.2083  0.1650 -0.1038
  993MOL0     C33938   4.266  10.481  11.203 -0.4957 -0.9132 -0.0387
  993MOL0     C33939   4.346  10.552  11.294  0.6219  0.3995  0.5358
  993MOL0     C33940   4.292  10.624  11.406  0.4337 -0.6057 -0.2547
  993MOL0     C33941   4.357  10.767  11.421 -1.0581  0.1757 -0.4691
  993MOL0     C33942   4.280  10.874  11.492 -0.5374 -0.6651 -0.7831
  993MOL0     C33943   4.147  10.910  11.438  0.0182 -0.6487 -0.3507
  993MOL0     O33944   4.166  11.041  11.376  0.0639 -0.1249 -0.2136
  993MOL0     C33945   4.058  11.127  11.368  0.0638  0.5522  0.4994
  993MOL0     C33946   3.929  11.089  11.381 -0.2950  0.5817 -0.3127
  993MOL0     C33947   3.819  11.180  11.369 -0.5093 -0.1861 -0.0315
  993MOL0     C33948   3.849  11.314  11.341 -0.1389  0.1392 -1.5802
  993MOL0     C33949   3.740  11.420  11.333  0.0619  0.8333 -0.5841
  993MOL0     O33950   3.767  11.540  11.279 -0.3630 -0.4610 -0.3958
  993MOL0     C33951   3.673  11.639  11.278 -0.1215  0.3369  0.0148
  993MOL0     C33952   3.539  11.623  11.234 -0.2810 -0.2151 -1.4182
  993MOL0     C33953   3.445  11.725  11.243  0.3028  0.3251 -0.9202
  993MOL0     C33954   3.488  11.866  11.248 -0.8196  0.0039 -0.0544
  993MOL0     O33955   3.414  11.981  11.241 -0.1324 -0.0272  0.7353
  993MOL0     C33956   3.269  11.968  11.239  0.3221  0.7497  0.8028
  993MOL0     C33957   3.204  12.111  11.210 -0.8346 -0.2901 -0.6299
  993MOL0     C33958   3.215  12.140  11.053 -0.4659  0.3424  0.6440
  993MOL0     C33959   3.314  12.261  11.022 -0.5821  0.7110  0.2852
  993MOL0     C33960   3.363  12.243  10.879 -0.1220 -0.7020 -0.1934
  993MOL0     C33961   3.425  12.372  10.816 -1.0019 -0.5593 -0.9391
  993MOL0     C33962   3.532  12.424  10.919 -0.0392 -0.1961 -0.0639
  993MOL0     C33963   3.620  12.538  10.861  0.3437 -0.1939  0.3594
  993MOL0    Cl33964   3.699  12.479  10.704  0.6046 -0.2572 -0.3866
  993MOL0     C33965   3.626  11.881  11.267 -0.3029  0.4420 -0.2814
  993MOL0     C33966   3.713  11.772  11.293  0.2991 -0.2942  0.9913
  993MOL0     O33967   3.629  11.381  11.368  0.4297 -0.1309 -0.3929
  993MOL0     C33968   3.979  11.356  11.323  0.3244  0.4583 -0.0079
  993MOL0     C33969   4.080  11.258  11.334 -0.3252 -0.2552 -1.1832
  993MOL0     N33970   4.471  10.536  11.255  0.6856 -0.3992 -0.2061
  993MOL0     N33971   4.474  10.474  11.142 -0.0256  0.6262  0.4669
  993MOL0     C33972   4.023  11.017  10.260 -0.2787 -0.1370 -0.3067
  993MOL0     C33973   3.948  10.999  10.146  0.4539 -0.0723  0.8014
  993MOL0     C33974   3.578  11.016   9.916 -0.1926 -0.2966 -0.1086
  993MOL0     C33975   3.523  10.889   9.901  0.7386  0.2480  0.5427
  993MOL0     C33976   3.422  10.864   9.792 -1.1623 -0.3881 -0.6521
  993MOL0     C33977   3.385  10.973   9.717 -0.4737  0.6111  0.4477
  993MOL0     O33978   3.307  10.946   9.612 -0.3782  0.2507  0.1706
  993MOL0     C33979   3.275  11.055   9.520 -0.2424  0.2387  0.2229
  993MOL0     C33980   3.163  11.004   9.430  0.6994 -0.0617  0.5299
  993MOL0     C33981   3.101  11.120   9.345 -0.0566  0.4419  0.2502
  993MOL0     C33982   3.027  11.047   9.224  0.4623 -0.5723 -0.4622
  993MOL0     C33983   2.991  11.147   9.116 -0.0691  0.0179 -1.2987
  993MOL0     C33984   2.956  11.235   9.037 -0.4302  0.3440  0.1187
  993MOL0     C33985   3.446  11.094   9.737 -1.0096  0.0241 -0.6128
  993MOL0     C33986   3.546  11.121   9.835 -0.1947 -0.0535  0.3763
  993MOL0     C33987   3.606  11.253   9.842  0.3390  0.1501  0.3525
  993MOL0     H33988   3.738  10.763  10.253  0.4661 -0.3755 -0.2067
  993MOL0     H33989   3.897  10.767  10.448  0.3330 -1.0364 -2.2309
  993MOL0     H33990   4.165  10.893  10.643 -0.9409  1.4232  0.1708
  993MOL0     H33991   4.121  10.773  10.524  0.8825 -0.0102  0.6775
  993MOL0     H33992   4.381  10.956  10.486 -0.8450  0.7629  0.9794
  993MOL0     H33993   4.303  10.859  10.362 -1.3626 -0.7274  0.2738
  993MOL0     H33994   4.510  10.757  10.508  0.2648 -3.4679 -2.3229
  993MOL0     H33995   4.380  10.659  10.454  0.4249  0.4719 -0.4049
  993MOL0     H33996   4.359  10.779  10.726  1.2350 -0.7087  0.6269
  993MOL0     H33997   4.275  10.633  10.649  0.9288 -1.2086  0.7844
  993MOL0     H33998   4.504  10.535  10.628 -1.6102  0.2970 -0.1065
  993MOL0     H33999   4.570  10.674  10.720 -2.2534  4.0199  0.5782
  993MOL0     H34000   4.550  10.460  10.848  1.2619  1.0858  2.0521
  993MOL0     H34001   4.477  10.609  10.929 -3.4828 -0.2521  1.4531
  993MOL0     H34002   4.289  10.433  10.773  0.3902 -0.6515  0.5684
  993MOL0     H34003   4.268  10.542  10.903 -2.9076 -1.4486  0.4821
  993MOL0     H34004   4.232  10.319  10.981 -0.8981  0.8123  0.2778
  993MOL0     H34005   4.408  10.283  10.980  0.2511 -0.2507  0.1070
  993MOL0     H34006   4.158  10.471  11.199 -0.3061 -3.3709 -2.5932
  993MOL0     H34007   4.183  10.623  11.396  0.4861  2.5377 -3.1584
  993MOL0     H34008   4.310  10.568  11.498  0.6268 -3.4579 -1.9144
  993MOL0     H34009   4.451  10.762  11.476 -1.3605  1.1073  0.1620
  993MOL0     H34010   4.378  10.808  11.322  0.3582 -1.7110 -0.9997
  993MOL0     H34011   4.348  10.959  11.495 -1.5332  0.2537 -2.4299
  993MOL0     H34012   4.267  10.848  11.597  0.6064  2.9908  0.4002
  993MOL0     H34013   4.083  10.917  11.526  2.4727 -0.0403  1.4640
  993MOL0     H34014   4.114  10.831  11.369  1.1173 -0.4955 -1.0754
  993MOL0     H34015   3.901  10.984  11.382  1.0801  0.1975 -0.6171
  993MOL0     H34016   3.719  11.138  11.380  0.0818 -2.9720 -3.5331
  993MOL0     H34017   3.494  11.527  11.211 -2.7248  0.7291 -0.8218
  993MOL0     H34018   3.339  11.702  11.236  0.9255 -2.3136 -3.8809
  993MOL0     H34019   3.245  11.896  11.160  2.5585  1.2057 -0.3513
  993MOL0     H34020   3.234  11.931  11.336 -3.3353  4.5104  1.2117
  993MOL0     H34021   3.098  12.105  11.233 -1.2338 -0.1187 -2.3272
  993MOL0     H34022   3.256  12.190  11.266  0.2172  0.1028 -2.0807
  993MOL0     H34023   3.254  12.050  11.006  0.5449  0.2683  1.5790
  993MOL0     H34024   3.118  12.146  11.003 -1.4058 -2.9932  1.8105
  993MOL0     H34025   3.396  12.262  11.094  0.4898 -0.0237 -0.8838
  993MOL0     H34026   3.266  12.357  11.043 -0.4519  0.2968  2.7362
  993MOL0     H34027   3.270  12.210  10.832 -1.1344 -0.8840  1.8174
  993MOL0     H34028   3.443  12.169  10.877  2.6676  1.8286  3.6033
  993MOL0     H34029   3.473  12.344  10.721 -4.8068  0.2814 -3.3519
  993MOL0     H34030   3.356  12.455  10.800 -0.8411 -0.6243 -2.0942
  993MOL0     H34031   3.594  12.340  10.951  1.1741  0.7921  0.2620
  993MOL0     H34032   3.481  12.455  11.011 -1.6821  3.0546 -1.8643
  993MOL0     H34033   3.553  12.623  10.841 -0.5826 -0.6411  1.4768
  993MOL0     H34034   3.700  12.560  10.932  1.5496  1.2925 -1.3514
  993MOL0     H34035   3.674  11.977  11.280 -1.7830  1.3190 -1.0838
  993MOL0     H34036   3.816  11.796  11.317  0.4892  2.5323 -1.9561
  993MOL0     H34037   3.988  11.464  11.331  0.4555  0.3532  1.4153
  993MOL0     H34038   4.184  11.289  11.328 -1.1483  4.4955  2.4762
  993MOL0     H34039   4.088  11.103  10.263  0.6776 -0.7014 -2.5370
  993MOL0     H34040   3.966  11.062  10.059  1.0352 -1.0298  0.2095
  993MOL0     H34041   3.558  10.812   9.970  3.0943  0.6370 -0.1260
  993MOL0     H34042   3.384  10.763   9.775 -1.4692 -0.2979 -0.4911
  993MOL0     H34043   3.360  11.071   9.453  0.2879 -0.0365  0.8283
  993MOL0     H34044   3.250  11.149   9.570  0.7483  1.8362 -2.0883
  993MOL0     H34045   3.074  10.961   9.477 -0.8050  0.6163 -1.5400
  993MOL0     H34046   3.193  10.925   9.360  2.2654 -1.2560  2.4394
  993MOL0     H34047   3.184  11.186   9.318  3.1684 -3.7496 -1.2182
  993MOL0     H34048   3.021  11.176   9.394  1.7851  3.8213 -0.3093
  993MOL0     H34049   3.092  10.972   9.178  0.0525 -0.4552 -1.2573
  993MOL0     H34050   2.933  10.997   9.248  1.1292 -1.2279  0.9024
  993MOL0     H34051   2.912  11.303   8.967 -0.0560  0.0014 -0.4633
  993MOL0     H34052   3.433  11.173   9.662 -1.0614 -1.9604 -2.8156
  993MOL0     H34053   3.553  11.318   9.912  2.6379  2.7174 -0.1296
  993MOL0     H34054   3.711  11.259   9.872  1.3003 -2.4388 -2.0390
  993MOL0     H34055   3.607  11.295   9.741 -2.6373 -0.2349  0.0730
  994MOL0     O34056   2.529   7.525   1.446 -1.5573  0.7064 -0.3383
  994MOL0     C34057   2.649   7.505   1.411  0.7863 -0.9306 -0.7970
  994MOL0     O34058   2.694   7.488   1.284  0.2028 -0.4111  0.6015
  994MOL0     C34059   2.604   7.472   1.180 -0.3136  1.4542 -0.9259
  994MOL0     C34060   2.549   7.350   1.156 -1.3239 -0.6112  0.4648
  994MOL0     C34061   2.447   7.338   1.069 -0.5540 -0.4574 -0.1064
  994MOL0     C34062   2.406   7.440   0.983  0.4946  0.8500  0.2691
  994MOL0     O34063   2.329   7.432   0.868  0.0311 -0.4096 -0.7040
  994MOL0     C34064   2.340   7.321   0.792  0.5706 -0.4907  0.5527
  994MOL0     C34065   2.446   7.329   0.678 -0.1957 -1.6525 -0.3622
  994MOL0     C34066   2.594   7.291   0.718 -1.3592  0.2790 -0.7514
  994MOL0     C34067   2.697   7.308   0.602 -0.7265 -0.5663  0.3784
  994MOL0     C34068   2.711   7.182   0.527 -0.1917  0.4589 -0.9208
  994MOL0     C34069   2.790   7.074   0.602 -0.6922 -0.4602  0.3362
  994MOL0     C34070   2.855   6.954   0.518 -0.6422 -0.3160  0.5173
  994MOL0     C34071   2.948   6.999   0.403  1.0865  0.6181  0.3908
  994MOL0     N34072   3.054   7.087   0.457 -0.3888 -0.4731  0.8813
  994MOL0     C34073   3.169   7.040   0.507 -0.1433 -0.0475 -0.7141
  994MOL0     C34074   3.254   7.143   0.538  0.2116 -0.2789  0.2081
  994MOL0     C34075   3.385   7.141   0.600 -0.3094  0.5447  0.6985
  994MOL0     C34076   3.476   7.048   0.521 -0.4715 -0.1161  1.1407
  994MOL0     C34077   3.613   7.047   0.582 -0.2045  0.6653  0.0867
  994MOL0     C34078   3.685   6.918   0.542  0.2652  0.1215  0.5586
  994MOL0     O34079   3.715   6.934   0.400 -0.3880 -0.4968  0.0760
  994MOL0     C34080   3.760   6.819   0.339 -0.1196  0.2494  0.1619
  994MOL0     C34081   3.781   6.815   0.197  1.2328  0.4429  0.6123
  994MOL0     C34082   3.830   6.695   0.146 -0.8958  0.2720 -0.8484
  994MOL0     C34083   3.886   6.589   0.222 -0.3231  1.2167  0.4813
  994MOL0     C34084   3.934   6.463   0.163  0.2070 -0.8389 -0.4814
  994MOL0     O34085   4.044   6.403   0.198 -0.5680 -0.2842  0.9643
  994MOL0     C34086   4.125   6.338   0.104 -0.2722 -1.0963  0.0139
  994MOL0     C34087   4.186   6.415   0.008  0.2015 -0.6899 -0.3891
  994MOL0     C34088   4.264   6.357  -0.096 -0.3445  0.5152  0.4557
  994MOL0     C34089   4.277   6.215  -0.102 -0.0310 -0.7141  0.7079
  994MOL0     O34090   4.349   6.154  -0.204  0.1437 -0.0149  0.2848
  994MOL0     C34091   4.309   6.013  -0.220 -0.8764 -1.2353  0.7883
  994MOL0     C34092   4.374   5.963  -0.353 -0.3858  0.0902  0.0332
  994MOL0     C34093   4.530   5.970  -0.365 -0.6956  0.0734  0.0558
  994MOL0     C34094   4.585   5.982  -0.509 -0.3831 -0.1019 -0.7192
  994MOL0     C34095   4.734   5.967  -0.529 -0.2697 -0.3057  0.3358
  994MOL0     C34096   4.813   6.042  -0.414  1.1976  0.0081  0.2499
  994MOL0     C34097   4.962   6.071  -0.454  0.7058  0.9052 -0.4146
  994MOL0     C34098   5.035   6.179  -0.366  0.6735 -0.0344  0.0162
  994MOL0    Cl34099   5.046   6.106  -0.201 -0.0479 -0.0722  0.7464
  994MOL0     C34100   4.213   6.139  -0.005 -0.1676  0.8228 -0.6161
  994MOL0     C34101   4.138   6.204   0.100 -0.8121  0.8379 -0.7224
  994MOL0     O34102   3.864   6.420   0.074 -0.0620  0.4690  0.8714
  994MOL0     C34103   3.862   6.590   0.362  0.3828 -0.8020  0.6336
  994MOL0     C34104   3.798   6.704   0.415 -1.7542  0.3230  1.0567
  994MOL0     N34105   3.179   7.252   0.514 -0.4406  0.1195  0.4798
  994MOL0     N34106   3.060   7.226   0.463  0.5099 -0.6791  0.3021
  994MOL0     C34107   2.464   7.563   1.011 -0.7354 -0.7773 -0.1310
  994MOL0     C34108   2.557   7.584   1.112 -0.0037  0.2992 -0.2978
  994MOL0     C34109   2.748   7.499   1.514 -0.1687 -0.5819  0.3379
  994MOL0     C34110   2.851   7.407   1.497 -0.1773 -0.0450 -0.5319
  994MOL0     C34111   2.953   7.402   1.589  0.2343  0.1749 -0.2531
  994MOL0     C34112   2.952   7.460   1.712  0.7641  0.7461 -0.1574
  994MOL0     O34113   3.060   7.433   1.795  0.1198  0.0613  0.6400
  994MOL0     C34114   3.054   7.448   1.933  0.0704  0.7115  0.5490
  994MOL0     C34115   2.955   7.344   1.993  0.4436  0.3347  0.5885
  994MOL0     C34116   3.004   7.197   1.990 -0.2320 -0.2905 -0.5948
  994MOL0     C34117   2.915   7.086   2.050 -0.2730 -0.1233  0.4643
  994MOL0     C34118   2.831   7.142   2.161 -0.4405 -0.3097  0.1989
  994MOL0     C34119   2.777   7.201   2.253  0.2217 -0.0386 -0.8044
  994MOL0     C34120   2.838   7.545   1.743 -0.6689 -0.7737 -0.1552
  994MOL0     C34121   2.737   7.564   1.642  0.8975 -0.1505  0.4607
  994MOL0     C34122   2.633   7.673   1.674  0.1233 -0.7302 -0.0533
  994MOL0     H34123   2.592   7.271   1.216  1.6171 -0.4839 -1.3004
  994MOL0     H34124   2.423   7.235   1.041  0.7183 -0.0576 -3.0716
  994MOL0     H34125   2.360   7.232   0.853  1.1220 -0.7570 -0.0058
  994MOL0     H34126   2.240   7.298   0.753  0.8854 -2.4751  0.7682
  994MOL0     H34127   2.442   7.435   0.651 -0.4407 -1.3293  0.8974
  994MOL0     H34128   2.424   7.258   0.598  0.8465 -0.2465 -1.9821
  994MOL0     H34129   2.606   7.192   0.761  0.0859  0.5755 -0.4196
  994MOL0     H34130   2.629   7.356   0.799 -4.2155 -1.8455  2.4657
  994MOL0     H34131   2.667   7.384   0.529 -2.3876 -0.3743  1.1950
  994MOL0     H34132   2.798   7.342   0.626 -1.3915 -0.0014  2.6904
  994MOL0     H34133   2.613   7.142   0.501 -0.3441  1.6147 -2.2378
  994MOL0     H34134   2.769   7.201   0.436 -2.1905  1.5451 -2.0519
  994MOL0     H34135   2.857   7.119   0.676 -0.4989 -2.8326  1.7144
  994MOL0     H34136   2.718   7.016   0.660 -3.8309  0.2913 -2.5105
  994MOL0     H34137   2.771   6.899   0.476 -1.0335 -0.5764  1.6013
  994MOL0     H34138   2.906   6.881   0.582  0.2509  1.2436  1.6665
  994MOL0     H34139   2.995   6.909   0.365  0.4779  0.4881 -0.0735
  994MOL0     H34140   2.888   7.046   0.324 -1.0051 -0.3433  1.3049
  994MOL0     H34141   3.196   6.934   0.507 -0.3486 -0.1129 -1.7764
  994MOL0     H34142   3.438   7.236   0.610  2.0043 -0.2991 -2.0706
  994MOL0     H34143   3.392   7.103   0.702  1.1696  0.7132  0.6796
  994MOL0     H34144   3.444   6.944   0.511  0.9420 -0.6602  2.1048
  994MOL0     H34145   3.495   7.096   0.424 -0.1250 -2.9709 -0.3007
  994MOL0     H34146   3.600   7.057   0.690 -1.2100  0.0091  0.0396
  994MOL0     H34147   3.674   7.133   0.552  0.9532  0.8516  2.7018
  994MOL0     H34148   3.626   6.829   0.563 -2.1100  0.9881 -1.8614
  994MOL0     H34149   3.780   6.922   0.597 -0.1204  1.0660  1.1787
  994MOL0     H34150   3.755   6.901   0.136  0.2997  0.0464  0.4347
  994MOL0     H34151   3.832   6.689   0.037 -2.6266 -2.2623 -0.8298
  994MOL0     H34152   4.179   6.522   0.024 -2.4112 -0.7731 -0.4709
  994MOL0     H34153   4.308   6.421  -0.172 -2.1524  2.1300  0.6805
  994MOL0     H34154   4.343   5.947  -0.140 -1.4680 -3.1761 -0.4980
  994MOL0     H34155   4.201   6.001  -0.231 -0.8617 -0.8737  0.1789
  994MOL0     H34156   4.340   5.859  -0.359  1.6736 -0.5820 -0.7863
  994MOL0     H34157   4.321   6.012  -0.435 -0.6553  2.4402  1.5211
  994MOL0     H34158   4.555   6.058  -0.303 -0.8338  0.2307 -0.1117
  994MOL0     H34159   4.579   5.883  -0.321  0.4342  0.0906 -1.1268
  994MOL0     H34160   4.553   6.077  -0.553 -1.4497 -0.6689 -1.2034
  994MOL0     H34161   4.533   5.902  -0.563 -0.8257 -0.3439  0.0506
  994MOL0     H34162   4.760   6.020  -0.621 -0.7666  2.1698  1.5484
  994MOL0     H34163   4.759   5.860  -0.534  1.3193  0.0067  0.8699
  994MOL0     H34164   4.756   6.135  -0.402  0.0030 -0.7621  0.7632
  994MOL0     H34165   4.811   5.978  -0.325  1.6053  1.2976  1.2134
  994MOL0     H34166   4.975   6.094  -0.560 -0.7910 -1.8724 -1.3063
  994MOL0     H34167   5.018   5.979  -0.434 -1.0652 -0.3912 -1.1829
  994MOL0     H34168   5.138   6.193  -0.402  1.4664 -0.5685  1.9771
  994MOL0     H34169   4.991   6.279  -0.373  2.4209  0.6652 -2.2818
  994MOL0     H34170   4.230   6.032   0.003 -0.1449  0.9024  0.5320
  994MOL0     H34171   4.105   6.153   0.190 -1.5467 -0.9347 -1.9546
  994MOL0     H34172   3.885   6.499   0.416 -2.0025  0.0024  3.2005
  994MOL0     H34173   3.791   6.692   0.523 -0.0203  1.0119  1.2832
  994MOL0     H34174   2.434   7.645   0.946  1.3378 -0.4395 -0.7388
  994MOL0     H34175   2.591   7.687   1.118  1.1325  0.0191 -1.3291
  994MOL0     H34176   2.857   7.338   1.413  3.0451 -1.6628  0.8621
  994MOL0     H34177   3.035   7.332   1.584 -1.3217 -2.0612  2.3840
  994MOL0     H34178   3.021   7.549   1.957  1.8113  1.1247  1.4023
  994MOL0     H34179   3.155   7.434   1.974  0.1124 -3.1311 -0.4560
  994MOL0     H34180   2.862   7.355   1.936  0.7952  0.6835  0.0676
  994MOL0     H34181   2.938   7.366   2.099 -0.0514 -2.0717  1.0579
  994MOL0     H34182   3.101   7.192   2.041  1.7010  2.7635 -3.5296
  994MOL0     H34183   3.017   7.168   1.885 -0.8926  5.2590 -2.5364
  994MOL0     H34184   2.848   7.052   1.970  0.4412  0.3454 -0.3512
  994MOL0     H34185   2.982   7.006   2.083  2.4991  2.7907  2.4404
  994MOL0     H34186   2.721   7.246   2.333 -1.7983 -0.1581 -2.0757
  994MOL0     H34187   2.846   7.595   1.839  5.1900 -1.1515 -0.1144
  994MOL0     H34188   2.681   7.745   1.742  0.9010 -0.0131 -1.3142
  994MOL0     H34189   2.606   7.738   1.590 -0.1505 -0.3104  0.3580
  994MOL0     H34190   2.542   7.633   1.719 -0.4976  0.0299 -0.6105
  995MOL0     O34191   3.576   8.690   2.734  0.2375  0.7122  0.3203
  995MOL0     C34192   3.469   8.654   2.684  0.1624 -0.1397  0.7200
  995MOL0     O34193   3.412   8.710   2.576  0.5820 -0.3765  0.1561
  995MOL0     C34194   3.486   8.774   2.480  0.1132  0.3730  0.1366
  995MOL0     C34195   3.576   8.693   2.404 -1.4657  0.0385  0.2217
  995MOL0     C34196   3.630   8.741   2.287  0.3227 -0.8362 -0.5634
  995MOL0     C34197   3.584   8.870   2.235  0.0504 -0.1710 -0.3054
  995MOL0     O34198   3.620   8.922   2.112 -0.2014 -0.7544 -0.3660
  995MOL0     C34199   3.758   8.911   2.060  0.8128 -0.1516 -0.2790
  995MOL0     C34200   3.844   9.028   2.095 -0.0676  0.6054 -0.3547
  995MOL0     C34201   3.886   9.020   2.253  0.0065  0.8736  0.3298
  995MOL0     C34202   4.022   9.098   2.265 -0.0681  0.0483  0.0759
  995MOL0     C34203   4.063   9.084   2.411 -0.0268  0.2881 -0.4250
  995MOL0     C34204   4.200   9.155   2.455  0.3743 -1.0456  0.2160
  995MOL0     C34205   4.199   9.302   2.432  0.3441  0.5851 -0.3613
  995MOL0     C34206   4.316   9.361   2.513  0.2625 -1.2517 -0.2920
  995MOL0     N34207   4.299   9.363   2.660 -0.6837  0.6474  0.1396
  995MOL0     C34208   4.183   9.405   2.732 -0.7600  0.0587 -0.4159
  995MOL0     C34209   4.204   9.352   2.857 -0.3238  0.4679 -0.4204
  995MOL0     C34210   4.122   9.346   2.983 -0.4779 -0.5301  1.0691
  995MOL0     C34211   3.986   9.285   2.964 -0.6350 -0.4802  0.3129
  995MOL0     C34212   4.004   9.136   3.003 -0.5427  0.0740  0.9835
  995MOL0     C34213   4.080   9.045   2.898  0.0776 -0.6220 -0.3782
  995MOL0     O34214   3.993   8.953   2.829  0.5637  0.3981 -1.0339
  995MOL0     C34215   4.043   8.880   2.726 -0.0113  0.0701  0.6942
  995MOL0     C34216   3.944   8.800   2.656 -0.0649  0.4599  0.1906
  995MOL0     C34217   3.981   8.708   2.556 -0.5824 -0.2951  0.3124
  995MOL0     C34218   4.117   8.700   2.512  0.5629 -0.7875  0.6107
  995MOL0     C34219   4.170   8.626   2.397  0.3511 -0.3174  0.0149
  995MOL0     O34220   4.274   8.671   2.336  0.6754  0.3367 -0.3433
  995MOL0     C34221   4.361   8.578   2.284  0.3919 -0.2489 -0.2108
  995MOL0     C34222   4.419   8.605   2.159 -0.0177 -0.5655 -0.7871
  995MOL0     C34223   4.511   8.513   2.108  1.1225  0.2488 -0.3601
  995MOL0     C34224   4.545   8.402   2.179  0.1687 -0.5823 -0.6743
  995MOL0     O34225   4.622   8.305   2.121  0.2830 -0.4716  0.0541
  995MOL0     C34226   4.734   8.345   2.047  0.0091  0.2604  0.5817
  995MOL0     C34227   4.846   8.230   2.074  0.5987  0.6822 -0.5156
  995MOL0     C34228   4.924   8.261   2.200 -0.0423 -0.0144 -0.7243
  995MOL0     C34229   4.839   8.236   2.332  0.1242 -0.3289  0.7818
  995MOL0     C34230   4.871   8.345   2.438 -0.8146  0.0214  0.0383
  995MOL0     C34231   4.794   8.301   2.567  0.0878 -0.2979  0.2976
  995MOL0     C34232   4.850   8.177   2.644 -0.4110  0.3108  0.4384
  995MOL0     C34233   4.744   8.108   2.741 -1.1139 -0.3923  0.4516
  995MOL0    Cl34234   4.668   8.244   2.829  0.1096 -0.4172 -0.2722
  995MOL0     C34235   4.496   8.387   2.310  0.7127  1.1163 -0.0379
  995MOL0     C34236   4.399   8.477   2.367 -0.0580  0.5019  0.5355
  995MOL0     O34237   4.092   8.541   2.351  0.4374  0.2088 -0.1228
  995MOL0     C34238   4.213   8.780   2.581 -0.2559  0.4928  0.3993
  995MOL0     C34239   4.180   8.869   2.689 -0.1777  0.2762  0.0017
  995MOL0     N34240   4.332   9.297   2.855  0.3594 -0.7123 -0.4013
  995MOL0     N34241   4.385   9.299   2.740 -0.1151  0.1157 -0.5353
  995MOL0     C34242   3.504   8.945   2.314  0.5956  0.1135  0.1509
  995MOL0     C34243   3.447   8.895   2.434  0.5518 -0.7257  0.0917
  995MOL0     C34244   3.395   8.552   2.759  0.0799  0.1733 -0.1091
  995MOL0     C34245   3.414   8.538   2.897  0.6948 -0.7262 -0.2366
  995MOL0     C34246   3.348   8.440   2.973  0.2384 -0.8105  0.7407
  995MOL0     C34247   3.245   8.362   2.910 -0.1504 -0.2029 -0.6957
  995MOL0     O34248   3.181   8.260   2.972 -0.1359 -2.0724 -0.1753
  995MOL0     C34249   3.248   8.186   3.073 -0.3244 -0.6998 -0.3705
  995MOL0     C34250   3.206   8.041   3.068 -0.5713 -0.1301  0.6575
  995MOL0     C34251   3.053   8.023   3.044  0.0971  0.2381  0.0250
  995MOL0     C34252   2.991   7.893   3.101 -0.3115 -0.3025 -0.2234
  995MOL0     C34253   2.845   7.906   3.134  0.0904  0.1729  0.7993
  995MOL0     C34254   2.724   7.907   3.146  0.2755  0.4891 -0.9183
  995MOL0     C34255   3.212   8.398   2.779 -0.8867 -0.0054  0.1076
  995MOL0     C34256   3.284   8.483   2.698  0.5790  0.0265 -0.5509
  995MOL0     C34257   3.238   8.497   2.558 -0.1631  0.3799  0.4199
  995MOL0     H34258   3.618   8.602   2.447 -0.7436 -0.4538 -1.4515
  995MOL0     H34259   3.689   8.662   2.242  0.6485 -0.6053 -0.5400
  995MOL0     H34260   3.813   8.827   2.102  0.1326 -0.1381  0.6632
  995MOL0     H34261   3.741   8.894   1.953  0.9480 -1.6120 -0.0854
  995MOL0     H34262   3.790   9.123   2.091 -4.3295 -1.5586 -0.9184
  995MOL0     H34263   3.932   9.021   2.030  0.8948 -2.6039  1.0801
  995MOL0     H34264   3.891   8.917   2.289  4.6285 -0.2334 -2.6085
  995MOL0     H34265   3.809   9.073   2.310  0.5322  0.6401  1.2643
  995MOL0     H34266   4.095   9.043   2.205 -0.2961  0.2067 -0.3551
  995MOL0     H34267   4.022   9.205   2.243  2.1597  0.2547  0.9057
  995MOL0     H34268   3.989   9.136   2.472  0.0006 -0.5981  0.3891
  995MOL0     H34269   4.057   8.979   2.443 -1.6939  0.1218 -1.1391
  995MOL0     H34270   4.215   9.138   2.561 -1.4328  0.8172  0.8444
  995MOL0     H34271   4.276   9.098   2.401  0.3009 -2.3366  1.4480
  995MOL0     H34272   4.105   9.346   2.467  0.2446 -0.6938  1.0735
  995MOL0     H34273   4.205   9.321   2.325 -3.3163 -1.4259 -1.0700
  995MOL0     H34274   4.414   9.319   2.486  1.8124  1.0070  1.4856
  995MOL0     H34275   4.314   9.465   2.481  1.6043 -1.7344 -2.1389
  995MOL0     H34276   4.092   9.459   2.712  0.2435  2.2805  0.6155
  995MOL0     H34277   4.178   9.294   3.062  1.3738  0.4281  0.4333
  995MOL0     H34278   4.110   9.448   3.018 -0.0787 -0.0947 -0.0335
  995MOL0     H34279   3.913   9.332   3.032  0.5747  0.8992  0.7235
  995MOL0     H34280   3.954   9.303   2.861 -1.8800  0.3973  0.8155
  995MOL0     H34281   3.908   9.094   3.034  0.2761 -1.9506  0.9249
  995MOL0     H34282   4.059   9.116   3.096 -0.6280 -2.9306  0.4857
  995MOL0     H34283   4.154   8.992   2.959 -2.2692  0.0588  3.3141
  995MOL0     H34284   4.132   9.102   2.820 -0.2153  1.4505  0.8670
  995MOL0     H34285   3.841   8.819   2.685 -0.4285 -1.2253  0.0779
  995MOL0     H34286   3.902   8.651   2.509 -0.9503 -0.4152  1.0642
  995MOL0     H34287   4.402   8.697   2.104 -0.1145  0.8726  1.5208
  995MOL0     H34288   4.562   8.535   2.015  2.4495  2.6876  0.8566
  995MOL0     H34289   4.709   8.347   1.941 -0.2841  1.3046  0.6632
  995MOL0     H34290   4.774   8.444   2.072  0.4936  0.2680 -0.1836
  995MOL0     H34291   4.803   8.130   2.068 -0.7081  1.2813 -2.6804
  995MOL0     H34292   4.922   8.235   1.995  0.2030  0.6604 -0.9020
  995MOL0     H34293   5.010   8.195   2.215 -0.6223 -0.3845  1.2570
  995MOL0     H34294   4.961   8.364   2.193 -1.5641  0.5048 -1.5669
  995MOL0     H34295   4.866   8.135   2.364  2.1892 -0.3203 -0.7511
  995MOL0     H34296   4.731   8.229   2.317  0.2999 -4.9462 -0.0417
  995MOL0     H34297   4.835   8.440   2.399  1.2309  1.1994  0.8510
  995MOL0     H34298   4.979   8.364   2.440 -0.5316 -1.3640 -0.5759
  995MOL0     H34299   4.801   8.383   2.639  0.7965  0.5052 -0.6457
  995MOL0     H34300   4.690   8.294   2.534 -1.1185 -0.8879  3.7900
  995MOL0     H34301   4.942   8.204   2.698  0.9075 -0.5711 -1.2575
  995MOL0     H34302   4.884   8.094   2.581 -0.3400  0.8928 -0.3030
  995MOL0     H34303   4.665   8.050   2.691 -0.0440 -1.4458 -0.0552
  995MOL0     H34304   4.802   8.040   2.803  0.0443 -2.5846 -2.7665
  995MOL0     H34305   4.527   8.300   2.367 -1.7295 -0.3911 -0.8568
  995MOL0     H34306   4.377   8.485   2.473 -0.0961  0.2465  0.5474
  995MOL0     H34307   4.318   8.766   2.556 -0.3503 -3.2463  1.4195
  995MOL0     H34308   4.259   8.929   2.733 -1.5230  1.1793  1.2731
  995MOL0     H34309   3.461   9.040   2.284 -0.1061 -0.5533 -1.0354
  995MOL0     H34310   3.380   8.951   2.499 -1.7260  1.3706 -3.7193
  995MOL0     H34311   3.495   8.587   2.951  0.7823  0.5080 -1.4370
  995MOL0     H34312   3.364   8.418   3.077 -0.6791  1.0820  1.3323
  995MOL0     H34313   3.225   8.212   3.177  0.7258 -1.3185  0.0373
  995MOL0     H34314   3.357   8.189   3.065 -0.1110  1.8861  1.9450
  995MOL0     H34315   3.241   7.989   3.158 -0.1770  0.8841  1.1126
  995MOL0     H34316   3.270   7.991   2.995  0.1570  1.6023  0.0598
  995MOL0     H34317   3.036   8.023   2.935  2.6536  1.8157 -0.4670
  995MOL0     H34318   3.008   8.108   3.096  1.6381 -0.1608  2.1116
  995MOL0     H34319   2.995   7.819   3.021 -1.2688  0.2215 -0.7718
  995MOL0     H34320   3.037   7.852   3.192 -3.4817 -4.1334 -0.0728
  995MOL0     H34321   2.620   7.933   3.142  0.0329 -0.2822 -0.1248
  995MOL0     H34322   3.135   8.341   2.729  0.6071 -1.0619 -1.0930
  995MOL0     H34323   3.214   8.600   2.532 -0.5741  0.2576  0.2981
  995MOL0     H34324   3.305   8.447   2.488 -2.3224 -3.0306  0.5203
  995MOL0     H34325   3.144   8.442   2.543  0.4739 -0.6658  0.1579
  996MOL0     O34326   0.411   7.465  11.096  0.4225  0.5297 -0.2030
  996MOL0     C34327   0.300   7.405  11.127 -0.4526 -0.1743 -0.0587
  996MOL0     O34328   0.228   7.423  11.240  0.3149 -0.8882 -1.1666
  996MOL0     C34329   0.276   7.511  11.333 -0.2070  0.4119 -0.3676
  996MOL0     C34330   0.385   7.470  11.418  0.2191  0.6381  0.1331
  996MOL0     C34331   0.435   7.558  11.522 -1.0201 -0.3602 -0.2588
  996MOL0     C34332   0.368   7.679  11.544 -0.4939 -0.5448 -0.4573
  996MOL0     O34333   0.416   7.780  11.623 -0.6970  0.0536 -0.3622
  996MOL0     C34334   0.476   7.741  11.744 -0.1520  0.1951 -0.7529
  996MOL0     C34335   0.443   7.828  11.863 -0.0811  0.4776 -0.2212
  996MOL0     C34336   0.449   7.752  11.995  0.2082 -0.1772 -0.5809
  996MOL0     C34337   0.441   7.830  12.125  0.1394 -0.3091 -0.4246
  996MOL0     C34338   0.447   7.747  12.244 -0.2831  0.9051 -0.3377
  996MOL0     C34339   0.442   7.826  12.378 -0.2993 -0.2178 -1.2479
  996MOL0     C34340   0.452   7.731  12.492  0.4134  0.7962 -0.1285
  996MOL0     C34341   0.310   7.676  12.527  0.6457 -0.8336  0.3572
  996MOL0     N34342   0.198   7.774  12.549  0.5936 -1.1522 -0.0494
  996MOL0     C34343   0.114   7.796  12.443  0.2033 -0.2537 -0.1233
  996MOL0     C34344   0.021   7.885  12.497 -0.4979  0.9476 -0.4543
  996MOL0     C34345  -0.110   7.932  12.432  0.0310 -0.6255 -0.1607
  996MOL0     C34346  -0.093   8.076  12.375  0.4851  0.4171  0.7281
  996MOL0     C34347   0.029   8.106  12.284  0.3962  0.5191  0.7273
  996MOL0     C34348   0.041   8.010  12.157 -0.3957 -0.0799 -1.0427
  996MOL0     O34349  -0.056   8.037  12.064 -0.2409 -0.3463  0.1399
  996MOL0     C34350  -0.075   7.959  11.962 -0.5425  0.0134  0.2714
  996MOL0     C34351   0.021   7.871  11.918  0.0544  0.8129  0.0630
  996MOL0     C34352   0.003   7.796  11.800  0.0931 -0.2435  1.0689
  996MOL0     C34353  -0.107   7.823  11.710  0.8643 -0.3757 -0.3500
  996MOL0     C34354  -0.126   7.755  11.575 -0.2621  0.5242  0.2245
  996MOL0     O34355  -0.208   7.819  11.488 -0.3598  0.0108  0.1794
  996MOL0     C34356  -0.224   7.765  11.366 -0.1799  0.1606 -0.8006
  996MOL0     C34357  -0.160   7.823  11.257  0.5688 -0.1206  2.2181
  996MOL0     C34358  -0.195   7.778  11.123  0.4153  0.4933 -0.0439
  996MOL0     C34359  -0.295   7.678  11.097 -0.0862 -0.5456 -0.6670
  996MOL0     O34360  -0.335   7.628  10.972 -0.4665 -0.0369 -0.1828
  996MOL0     C34361  -0.280   7.680  10.852 -0.7883 -0.1026 -0.2269
  996MOL0     C34362  -0.147   7.619  10.814 -0.4592 -0.5604  0.7074
  996MOL0     C34363  -0.182   7.489  10.737 -0.3551 -0.1841 -0.0234
  996MOL0     C34364  -0.069   7.413  10.672  0.3572 -0.7070  0.5799
  996MOL0     C34365  -0.136   7.294  10.616  0.2986 -0.0366  0.2239
  996MOL0     C34366  -0.057   7.237  10.503 -0.4621  0.0915 -0.1257
  996MOL0     C34367  -0.118   7.110  10.445 -0.1805  0.3901 -1.0810
  996MOL0     C34368  -0.022   7.059  10.346  0.8483 -1.2868  0.6163
  996MOL0    Cl34369  -0.063   6.912  10.255  0.2491  0.1900 -0.3674
  996MOL0     C34370  -0.350   7.623  11.209 -0.7480  0.2479 -1.3776
  996MOL0     C34371  -0.322   7.668  11.344  0.1445 -0.8224  0.1813
  996MOL0     O34372  -0.055   7.655  11.553 -0.1381 -0.5858 -0.7769
  996MOL0     C34373  -0.205   7.918  11.752 -0.4140  0.1215  0.6153
  996MOL0     C34374  -0.188   7.976  11.885 -0.5275 -0.2315 -0.0112
  996MOL0     N34375   0.067   7.928  12.621  0.3386 -0.1660  0.4774
  996MOL0     N34376   0.171   7.849  12.655  0.5289 -0.6525 -0.6582
  996MOL0     C34377   0.260   7.720  11.458 -0.0918 -0.2197  0.3859
  996MOL0     C34378   0.205   7.630  11.363 -0.4189  0.3716  0.6672
  996MOL0     C34379   0.254   7.303  11.024  0.7764 -0.5578 -0.3745
  996MOL0     C34380   0.353   7.252  10.936  0.1074  0.2642 -0.0624
  996MOL0     C34381   0.322   7.151  10.840  0.0125 -1.1841 -0.5156
  996MOL0     C34382   0.195   7.111  10.837 -0.3701 -1.0266  0.5096
  996MOL0     O34383   0.157   7.025  10.740 -0.3516 -0.1901 -0.4888
  996MOL0     C34384   0.215   6.893  10.742  1.2281 -0.7853  0.5086
  996MOL0     C34385   0.157   6.807  10.628 -0.2993  0.3801  0.2162
  996MOL0     C34386   0.032   6.725  10.656 -0.6251  0.7965  0.6667
  996MOL0     C34387   0.008   6.692  10.803 -0.1514 -0.1977 -0.3039
  996MOL0     C34388  -0.122   6.633  10.805  0.5605  0.4422  0.1695
  996MOL0     C34389  -0.235   6.578  10.802  0.7097  1.4966  0.0570
  996MOL0     C34390   0.095   7.166  10.906  0.0207  0.9425 -0.2500
  996MOL0     C34391   0.117   7.251  11.014 -0.4248 -0.5814 -0.1619
  996MOL0     C34392  -0.005   7.302  11.089 -0.0294 -0.3839  0.4185
  996MOL0     H34393   0.420   7.368  11.417 -2.8652 -0.7063  3.6419
  996MOL0     H34394   0.521   7.533  11.584  1.3368 -0.7579 -3.4378
  996MOL0     H34395   0.445   7.638  11.764 -1.4728 -0.4922 -5.0973
  996MOL0     H34396   0.584   7.742  11.729 -0.1010  0.7990 -0.3260
  996MOL0     H34397   0.344   7.873  11.859  0.2576  1.3872  1.1863
  996MOL0     H34398   0.522   7.904  11.863 -1.9074  2.4577  0.6078
  996MOL0     H34399   0.541   7.695  12.005  1.1779  1.5239  0.6625
  996MOL0     H34400   0.367   7.679  11.998  0.7486 -0.7801 -0.2581
  996MOL0     H34401   0.536   7.885  12.130  0.9884 -1.8300  2.5738
  996MOL0     H34402   0.355   7.898  12.122  1.5148  1.4715 -1.2954
  996MOL0     H34403   0.360   7.681  12.256  0.6477  0.0788  2.8813
  996MOL0     H34404   0.539   7.690  12.256 -1.8044 -1.1422  3.1169
  996MOL0     H34405   0.525   7.897  12.368  0.6544 -1.2306 -0.6754
  996MOL0     H34406   0.353   7.888  12.391 -0.4638 -0.1600 -2.5134
  996MOL0     H34407   0.481   7.787  12.582  1.6401 -2.8274  1.9199
  996MOL0     H34408   0.518   7.645  12.481  1.1518  1.3892 -0.4559
  996MOL0     H34409   0.286   7.607  12.446  0.3912  0.2582 -0.5129
  996MOL0     H34410   0.318   7.615  12.618 -0.9270 -2.2022 -0.3905
  996MOL0     H34411   0.118   7.751  12.345 -2.5794  1.8417 -1.3521
  996MOL0     H34412  -0.135   7.859  12.355 -0.8499 -0.0307 -0.4470
  996MOL0     H34413  -0.183   7.927  12.513  1.9158 -1.5256  1.5615
  996MOL0     H34414  -0.185   8.097  12.319  0.9000  0.0584 -0.1102
  996MOL0     H34415  -0.093   8.135  12.467 -0.4919  0.4450  0.7273
  996MOL0     H34416   0.121   8.097  12.343  1.0390  0.3120 -0.2795
  996MOL0     H34417   0.021   8.208  12.245 -1.9554 -0.5676 -2.0161
  996MOL0     H34418   0.034   7.908  12.195 -1.5115 -0.2945 -1.8044
  996MOL0     H34419   0.140   8.015  12.110 -0.4721  2.2276 -1.0690
  996MOL0     H34420   0.110   7.858  11.979 -1.7744 -2.7322  2.3563
  996MOL0     H34421   0.085   7.734  11.768 -0.7084 -1.6563  1.6824
  996MOL0     H34422  -0.081   7.894  11.278  3.1911 -2.6908  1.8264
  996MOL0     H34423  -0.157   7.817  11.029 -0.7610  2.3285  0.2045
  996MOL0     H34424  -0.354   7.677  10.771 -1.6653  0.0268  0.5543
  996MOL0     H34425  -0.267   7.789  10.854 -2.4197  0.1636 -1.5323
  996MOL0     H34426  -0.085   7.683  10.750  0.4051 -3.3556 -1.4802
  996MOL0     H34427  -0.087   7.583  10.897 -0.6027 -1.8961  0.2584
  996MOL0     H34428  -0.236   7.415  10.797  0.2939 -0.9607 -0.3689
  996MOL0     H34429  -0.246   7.513  10.651 -1.8137  0.8444  1.2921
  996MOL0     H34430   0.008   7.380  10.742  0.5489 -0.0510  0.6875
  996MOL0     H34431  -0.021   7.483  10.603 -1.0340  0.1586  0.4329
  996MOL0     H34432  -0.232   7.325  10.574 -0.5257 -1.9005  0.6173
  996MOL0     H34433  -0.153   7.226  10.700 -0.5292 -1.2885 -0.9020
  996MOL0     H34434  -0.040   7.313  10.425  1.3085 -0.2411 -0.1159
  996MOL0     H34435   0.039   7.204  10.543  0.3664 -0.3705 -2.3657
  996MOL0     H34436  -0.216   7.137  10.405 -1.4655 -1.8838  0.3609
  996MOL0     H34437  -0.120   7.047  10.534 -3.7605  2.0156  0.1589
  996MOL0     H34438  -0.014   7.137  10.270 -0.3307  0.9556  2.6085
  996MOL0     H34439   0.077   7.050  10.391  1.0735  4.3599  2.0478
  996MOL0     H34440  -0.416   7.537  11.201 -1.1447  0.2782  0.8941
  996MOL0     H34441  -0.380   7.619  11.422  2.1140 -2.7992  0.4918
  996MOL0     H34442  -0.283   7.960  11.689 -1.4861 -1.0834  1.0687
  996MOL0     H34443  -0.262   8.042  11.931  1.5641 -0.2788  3.8886
  996MOL0     H34444   0.220   7.819  11.476 -2.0087 -1.0448  0.8615
  996MOL0     H34445   0.118   7.670  11.312 -0.2021 -0.0323 -0.0484
  996MOL0     H34446   0.455   7.290  10.940  0.2914 -0.2072 -0.1435
  996MOL0     H34447   0.394   7.111  10.769  2.6461 -1.3648  2.0706
  996MOL0     H34448   0.206   6.847  10.841  1.0403 -0.7110  0.5261
  996MOL0     H34449   0.322   6.891  10.720  1.0025  0.8779 -0.9445
  996MOL0     H34450   0.236   6.732  10.619  1.4684  2.2505 -0.6242
  996MOL0     H34451   0.136   6.860  10.535 -2.1573 -0.8626 -0.1364
  996MOL0     H34452   0.041   6.633  10.598 -1.9939 -0.0836  1.7813
  996MOL0     H34453  -0.049   6.783  10.610 -1.6345 -3.3096 -3.5299
  996MOL0     H34454   0.081   6.625  10.850 -0.8823  0.5091  2.0113
  996MOL0     H34455  -0.001   6.782  10.866 -0.6369 -1.6866  1.8516
  996MOL0     H34456  -0.317   6.510  10.787  0.5467  1.9070 -1.0202
  996MOL0     H34457  -0.003   7.119  10.899  0.0333  1.0571 -1.3092
  996MOL0     H34458  -0.086   7.313  11.016  1.4513  1.2465 -1.0833
  996MOL0     H34459  -0.044   7.229  11.160 -1.4464  1.4085  1.5585
  996MOL0     H34460   0.004   7.392  11.149 -3.6566  0.9638 -0.7822
  997MOL0     O34461   7.750   5.703   4.434 -0.5161 -0.0040  0.5300
  997MOL0     C34462   7.831   5.672   4.339 -0.8709 -0.6203  0.0473
  997MOL0     O34463   7.857   5.550   4.287 -0.4066 -0.2173 -0.9548
  997MOL0     C34464   7.794   5.433   4.323  0.4446 -0.4150  0.2775
  997MOL0     C34465   7.668   5.422   4.385  0.4258  0.1480 -0.3041
  997MOL0     C34466   7.600   5.305   4.376 -0.2524  0.5410  0.2634
  997MOL0     C34467   7.655   5.188   4.325 -0.4200 -0.2684 -0.0959
  997MOL0     O34468   7.576   5.070   4.339 -0.0661  0.5673 -0.0535
  997MOL0     C34469   7.645   4.944   4.331 -0.4802 -0.5038 -0.1492
  997MOL0     C34470   7.575   4.855   4.434 -0.2837  0.1706 -0.2859
  997MOL0     C34471   7.621   4.702   4.432 -0.0523 -0.7367  0.3435
  997MOL0     C34472   7.544   4.602   4.338  0.2298 -0.4082  0.0685
  997MOL0     C34473   7.548   4.616   4.183  0.4490 -0.2157 -0.3472
  997MOL0     C34474   7.671   4.549   4.121  0.8930  0.5411  0.3384
  997MOL0     C34475   7.635   4.396   4.109  0.4539  0.7070  0.5301
  997MOL0     C34476   7.762   4.322   4.057  0.6255 -0.1360  0.3613
  997MOL0     N34477   7.844   4.377   3.946  0.1891 -0.0862 -0.2893
  997MOL0     C34478   7.961   4.459   3.957  0.3140 -0.4409  0.4353
  997MOL0     C34479   7.993   4.498   3.830 -0.1667  0.4873  0.0197
  997MOL0     C34480   8.095   4.602   3.797 -0.5522 -0.2926 -0.2530
  997MOL0     C34481   8.134   4.603   3.648  0.5852 -0.0756 -0.2514
  997MOL0     C34482   8.213   4.475   3.615  0.9448 -0.7868  0.1638
  997MOL0     C34483   8.258   4.484   3.470  1.2272  0.6935  0.1544
  997MOL0     O34484   8.324   4.357   3.436  0.1669 -0.3385 -0.1085
  997MOL0     C34485   8.434   4.310   3.505 -0.5813 -0.2997  0.2139
  997MOL0     C34486   8.459   4.177   3.486  0.5109 -0.4276  0.0394
  997MOL0     C34487   8.558   4.108   3.553  0.6104  1.0724 -0.4086
  997MOL0     C34488   8.642   4.177   3.644 -0.4265  0.6004 -0.3636
  997MOL0     C34489   8.753   4.101   3.716 -1.2264  0.1964 -0.2094
  997MOL0     O34490   8.818   4.162   3.820 -0.3920  0.5945  0.5688
  997MOL0     C34491   8.916   4.088   3.875 -0.4371 -0.4221 -0.1752
  997MOL0     C34492   9.042   4.147   3.901  0.2820 -0.4352  0.2955
  997MOL0     C34493   9.149   4.080   3.949 -0.1210  0.6308 -0.4620
  997MOL0     C34494   9.138   3.941   3.977  0.0241 -0.8463  0.2043
  997MOL0     O34495   9.247   3.876   4.030  0.9221 -0.5946 -0.1045
  997MOL0     C34496   9.337   3.817   3.932 -0.1775 -0.1558 -0.3062
  997MOL0     C34497   9.295   3.675   3.884  0.2570 -0.5973  0.8450
  997MOL0     C34498   9.349   3.571   3.979  0.0059  0.4642  0.4834
  997MOL0     C34499   9.311   3.437   3.913  0.0865  0.4170  0.2985
  997MOL0     C34500   9.387   3.317   3.974 -0.8475 -1.4273  0.3992
  997MOL0     C34501   9.334   3.180   3.917  0.0998  0.6732 -1.4236
  997MOL0     C34502   9.356   3.065   4.016 -1.6064 -0.4229 -0.1992
  997MOL0     C34503   9.237   3.019   4.089 -0.3457  0.2259  0.5077
  997MOL0    Cl34504   9.126   3.155   4.129 -0.2456 -0.3474 -0.0543
  997MOL0     C34505   9.012   3.885   3.976 -0.1339 -0.2803  0.1995
  997MOL0     C34506   8.898   3.952   3.928  0.4220  0.2071  0.5324
  997MOL0     O34507   8.787   3.992   3.661  0.5305 -0.0725  0.6753
  997MOL0     C34508   8.629   4.316   3.663  0.0607 -0.2691 -0.5115
  997MOL0     C34509   8.525   4.381   3.590 -0.3789 -0.3033 -0.5004
  997MOL0     N34510   7.902   4.428   3.747 -0.6995 -0.5749 -0.4249
  997MOL0     N34511   7.821   4.358   3.817 -0.4101  0.6994 -0.5151
  997MOL0     C34512   7.781   5.197   4.264 -0.8232 -0.3479  0.1971
  997MOL0     C34513   7.843   5.318   4.265 -0.2339 -0.1093 -0.8644
  997MOL0     C34514   7.916   5.784   4.298 -0.9883  0.3736  0.0810
  997MOL0     C34515   7.944   5.879   4.404  1.0551 -0.1205  0.5285
  997MOL0     C34516   8.028   5.979   4.381  0.7870  0.4108 -0.3498
  997MOL0     C34517   8.076   6.009   4.253  0.5487  0.2320  0.0235
  997MOL0     O34518   8.149   6.120   4.232 -0.9622 -1.1727 -0.4932
  997MOL0     C34519   8.183   6.157   4.099  0.7234  0.9136 -0.5289
  997MOL0     C34520   8.191   6.308   4.086  0.2223 -0.4497  0.1348
  997MOL0     C34521   8.046   6.382   4.093 -2.0788  0.1497  1.4405
  997MOL0     C34522   7.980   6.398   4.226  0.9605  0.4108  1.3907
  997MOL0     C34523   8.079   6.459   4.325  0.2628  0.3592  0.5537
  997MOL0     C34524   8.150   6.516   4.401 -0.3122  0.4470 -0.7444
  997MOL0     C34525   8.062   5.908   4.162 -0.4884 -0.5221 -1.1323
  997MOL0     C34526   7.977   5.804   4.174  0.0325 -0.9828 -0.1434
  997MOL0     C34527   7.951   5.726   4.046  0.0171 -0.6783  0.3422
  997MOL0     H34528   7.621   5.507   4.434  0.6125 -0.9007  1.7946
  997MOL0     H34529   7.515   5.293   4.442  0.4134  1.2398  1.2851
  997MOL0     H34530   7.644   4.907   4.228 -0.9467  0.2379 -0.4116
  997MOL0     H34531   7.748   4.941   4.371  0.1731 -0.2650 -1.7514
  997MOL0     H34532   7.467   4.872   4.438 -0.2351  0.2954  1.8114
  997MOL0     H34533   7.619   4.885   4.530  3.1109 -1.9359 -0.9886
  997MOL0     H34534   7.600   4.659   4.530 -1.3811 -1.2237 -0.1240
  997MOL0     H34535   7.727   4.699   4.408 -0.0771 -0.9064  0.2575
  997MOL0     H34536   7.568   4.497   4.358  2.1195 -0.0451 -0.1568
  997MOL0     H34537   7.438   4.622   4.356  0.1739  0.7292 -1.3317
  997MOL0     H34538   7.458   4.580   4.133 -0.8435  0.3453  1.4764
  997MOL0     H34539   7.554   4.724   4.166  1.1929 -0.0069  1.0513
  997MOL0     H34540   7.690   4.588   4.021 -0.3881 -2.1053 -1.0680
  997MOL0     H34541   7.759   4.572   4.181 -1.0528  0.6073  3.3688
  997MOL0     H34542   7.555   4.385   4.035  2.9714  4.7712 -3.3346
  997MOL0     H34543   7.612   4.343   4.202  0.7978 -2.6955 -1.1947
  997MOL0     H34544   7.836   4.301   4.135  0.9358  0.9001  0.3519
  997MOL0     H34545   7.729   4.223   4.024  3.4675 -1.1186  0.1593
  997MOL0     H34546   8.016   4.500   4.041  1.2873 -0.3578 -0.2183
  997MOL0     H34547   8.061   4.697   3.839  0.9237  0.1521 -0.0060
  997MOL0     H34548   8.185   4.574   3.852 -1.3808 -3.1815 -0.1984
  997MOL0     H34549   8.054   4.620   3.575  0.4155 -1.8295 -0.5260
  997MOL0     H34550   8.201   4.689   3.648 -0.8456  1.0994 -1.4406
  997MOL0     H34551   8.153   4.384   3.623  1.0479 -0.8278  0.4842
  997MOL0     H34552   8.297   4.469   3.685 -0.1855 -5.2443  1.4412
  997MOL0     H34553   8.322   4.571   3.450  1.7429  0.1036 -0.8381
  997MOL0     H34554   8.173   4.497   3.403  2.3746  3.6435 -0.8837
  997MOL0     H34555   8.388   4.128   3.420 -0.1000  0.8868 -0.3168
  997MOL0     H34556   8.554   4.000   3.550  1.2528  0.9814  1.0502
  997MOL0     H34557   9.062   4.252   3.879  0.2392 -0.3931  0.4551
  997MOL0     H34558   9.239   4.134   3.978 -2.2114  2.9435  2.3147
  997MOL0     H34559   9.343   3.898   3.858 -0.1010  2.0839  2.0293
  997MOL0     H34560   9.434   3.808   3.983 -1.9026  1.6965  3.6997
  997MOL0     H34561   9.186   3.676   3.877  0.2950  1.9653 -0.7219
  997MOL0     H34562   9.338   3.659   3.785  0.2762 -0.0185  0.7596
  997MOL0     H34563   9.457   3.588   3.974 -0.2623  1.9623 -1.9619
  997MOL0     H34564   9.317   3.568   4.083  2.2920 -1.4898  1.2162
  997MOL0     H34565   9.326   3.452   3.806 -0.9079  1.5935  0.3033
  997MOL0     H34566   9.205   3.428   3.938  0.4576  1.4494  2.5424
  997MOL0     H34567   9.361   3.309   4.080 -5.8184 -0.3639 -0.4710
  997MOL0     H34568   9.494   3.337   3.965 -1.0995 -0.0978  0.1393
  997MOL0     H34569   9.226   3.184   3.904 -0.5053 -1.7670  1.4849
  997MOL0     H34570   9.378   3.158   3.819  1.8418 -1.2238 -0.3024
  997MOL0     H34571   9.429   3.086   4.095 -2.0255 -0.4137  0.1898
  997MOL0     H34572   9.403   2.977   3.970  0.0746  0.7263 -0.7801
  997MOL0     H34573   9.189   2.951   4.018 -0.6200  0.4512  0.4711
  997MOL0     H34574   9.268   2.973   4.183 -0.6612  2.7441  1.9426
  997MOL0     H34575   9.002   3.781   4.005  1.0716 -0.9722 -1.6758
  997MOL0     H34576   8.801   3.904   3.934  0.8927 -0.7506  0.6389
  997MOL0     H34577   8.699   4.376   3.719  0.1526 -0.4376 -0.4481
  997MOL0     H34578   8.517   4.489   3.596  1.1735 -0.2245  0.9946
  997MOL0     H34579   7.834   5.112   4.220  0.2850  0.1801  0.4725
  997MOL0     H34580   7.942   5.325   4.222  1.3823 -4.6716  1.5060
  997MOL0     H34581   7.919   5.868   4.509 -1.2392 -0.0960  0.0394
  997MOL0     H34582   8.046   6.057   4.454 -0.2263 -1.0890  1.5705
  997MOL0     H34583   8.116   6.120   4.022  1.6108 -2.1780  0.0499
  997MOL0     H34584   8.282   6.112   4.088  0.6742  0.7521 -0.3296
  997MOL0     H34585   8.238   6.328   3.990 -1.0152  1.8661 -0.0835
  997MOL0     H34586   8.262   6.341   4.163  0.2741  2.3285 -0.9860
  997MOL0     H34587   7.983   6.314   4.035 -1.1218  2.3060 -2.5548
  997MOL0     H34588   8.049   6.473   4.031  3.8522 -1.1622 -0.8171
  997MOL0     H34589   7.888   6.457   4.221 -0.0117 -1.1335  0.1076
  997MOL0     H34590   7.946   6.300   4.259 -1.2365  1.0758  1.3070
  997MOL0     H34591   8.214   6.568   4.470  2.2907 -1.2975 -1.7006
  997MOL0     H34592   8.100   5.916   4.060 -0.4594  1.4839 -1.0058
  997MOL0     H34593   8.027   5.734   3.969 -1.7634 -0.9271 -1.5310
  997MOL0     H34594   7.926   5.620   4.047 -1.9539 -0.4266 -3.6570
  997MOL0     H34595   7.866   5.771   3.994  1.3942 -0.9463 -2.3001
  998MOL0     O34596   3.017  10.702   8.174  0.8567 -1.2286 -0.7929
  998MOL0     C34597   3.138  10.721   8.154  1.4622  0.1329 -0.1628
  998MOL0     O34598   3.191  10.832   8.085 -0.2178  0.3373  0.3129
  998MOL0     C34599   3.109  10.938   8.045 -1.2586  0.8517 -0.4397
  998MOL0     C34600   3.145  11.004   7.930 -0.6546  0.3810  0.1171
  998MOL0     C34601   3.062  11.103   7.869 -0.0613  0.5719  0.7792
  998MOL0     C34602   2.930  11.131   7.913 -0.0841 -0.2875 -0.1605
  998MOL0     O34603   2.835  11.199   7.838  0.5067 -1.3460 -0.5154
  998MOL0     C34604   2.804  11.146   7.717  0.2779  0.1266 -0.0771
  998MOL0     C34605   2.711  11.240   7.640 -0.1640  0.3478 -0.5171
  998MOL0     C34606   2.796  11.367   7.608 -0.9068 -0.0404 -0.0947
  998MOL0     C34607   2.739  11.454   7.495  0.4634  0.2554  0.3248
  998MOL0     C34608   2.793  11.596   7.494  0.9490  0.8220  0.2338
  998MOL0     C34609   2.688  11.692   7.443  0.3196  0.6379 -0.4334
  998MOL0     C34610   2.736  11.802   7.349 -0.5914 -0.8999 -1.7349
  998MOL0     C34611   2.772  11.755   7.208  0.3071 -0.3042 -0.7531
  998MOL0     N34612   2.648  11.725   7.125  0.0125 -0.1719 -0.3756
  998MOL0     C34613   2.578  11.813   7.045 -0.0051  0.2993  0.1032
  998MOL0     C34614   2.493  11.733   6.971 -0.4245  0.2086 -0.9171
  998MOL0     C34615   2.403  11.762   6.864  0.8530  0.6461 -0.0617
  998MOL0     C34616   2.464  11.839   6.743  0.4079 -0.0877  0.5610
  998MOL0     C34617   2.354  11.850   6.626  1.2079 -0.1995  0.2036
  998MOL0     C34618   2.414  11.942   6.516 -0.7232 -0.1227 -0.7177
  998MOL0     O34619   2.456  12.076   6.568  0.0150  0.0382 -0.0686
  998MOL0     C34620   2.363  12.167   6.609  1.3417  0.2204  0.5788
  998MOL0     C34621   2.386  12.254   6.717  0.3934  0.4606  0.0449
  998MOL0     C34622   2.306  12.364   6.757  0.2188 -0.0687  0.5934
  998MOL0     C34623   2.187  12.386   6.685  0.0413  0.3837  0.1341
  998MOL0     C34624   2.095  12.495   6.721  0.0989 -0.3523  0.1940
  998MOL0     O34625   2.046  12.575   6.621 -0.1403  0.4593  0.0559
  998MOL0     C34626   1.949  12.663   6.648  1.3701  0.0713  0.9852
  998MOL0     C34627   1.968  12.793   6.605  0.3349  0.2337  0.7176
  998MOL0     C34628   1.879  12.890   6.629  0.7727  0.0709 -0.3496
  998MOL0     C34629   1.761  12.865   6.707 -0.3795 -0.5850 -0.4456
  998MOL0     O34630   1.677  12.964   6.732  0.8810  0.0668  0.4247
  998MOL0     C34631   1.657  13.072   6.643  0.0961  0.9799 -0.3455
  998MOL0     C34632   1.531  13.146   6.680 -0.2460 -0.0468  0.0474
  998MOL0     C34633   1.432  13.098   6.572  0.2801 -0.3370  0.1217
  998MOL0     C34634   1.296  13.165   6.599  0.2493  0.5776  0.7071
  998MOL0     C34635   1.191  13.127   6.494 -1.1918 -0.3684  0.3923
  998MOL0     C34636   1.200  13.219   6.370 -1.3581 -0.6380 -0.6274
  998MOL0     C34637   1.072  13.212   6.280 -0.8478 -0.7531 -0.1443
  998MOL0     C34638   1.075  13.097   6.188 -0.8478  0.1037  0.2581
  998MOL0    Cl34639   0.907  13.055   6.139 -0.4795  0.1824 -0.0464
  998MOL0     C34640   1.743  12.734   6.759  0.0198  0.2727 -0.0650
  998MOL0     C34641   1.834  12.632   6.728  0.7686 -0.9113 -0.6724
  998MOL0     O34642   2.075  12.511   6.840 -0.4535 -0.0203 -1.1171
  998MOL0     C34643   2.167  12.302   6.575 -0.6915 -0.9370  0.4232
  998MOL0     C34644   2.246  12.196   6.541 -0.6060  0.9328 -1.0050
  998MOL0     N34645   2.515  11.600   7.005 -0.5838  0.0597  0.9895
  998MOL0     N34646   2.606  11.600   7.094 -0.0366  0.1956 -0.7062
  998MOL0     C34647   2.893  11.066   8.030  0.7146  0.3388 -0.1416
  998MOL0     C34648   2.985  10.983   8.105  0.1908 -0.6682 -0.1154
  998MOL0     C34649   3.229  10.618   8.208 -0.4387  0.9029  0.2715
  998MOL0     C34650   3.174  10.508   8.283 -0.8835 -0.1970  0.0971
  998MOL0     C34651   3.250  10.416   8.345 -0.1335 -0.5806  0.3066
  998MOL0     C34652   3.387  10.413   8.327  1.0462 -0.4291 -0.3818
  998MOL0     O34653   3.460  10.321   8.403 -0.6912 -0.6960 -0.5272
  998MOL0     C34654   3.604  10.314   8.401 -0.2409  0.7981  0.2350
  998MOL0     C34655   3.661  10.398   8.516  0.2971 -0.2384 -0.1527
  998MOL0     C34656   3.598  10.534   8.554  0.0397  0.4363 -0.0962
  998MOL0     C34657   3.676  10.624   8.649  1.4059 -0.4311 -0.3956
  998MOL0     C34658   3.595  10.747   8.685 -0.7020  0.1017 -0.5607
  998MOL0     C34659   3.541  10.833   8.756  1.8373  0.4447  0.0271
  998MOL0     C34660   3.437  10.510   8.236  0.4942  0.2758 -1.4118
  998MOL0     C34661   3.364  10.617   8.182 -0.3520 -1.1405 -0.5287
  998MOL0     C34662   3.446  10.724   8.110  0.9353  0.1043  0.3960
  998MOL0     H34663   3.234  10.988   7.871  0.6783  0.6430  1.9823
  998MOL0     H34664   3.088  11.142   7.771  0.4351 -2.9971 -0.6400
  998MOL0     H34665   2.899  11.124   7.667  2.4702 -0.9919  4.1151
  998MOL0     H34666   2.751  11.050   7.716  1.0763 -0.3599 -2.6231
  998MOL0     H34667   2.625  11.269   7.700 -1.3953 -0.1345 -1.9935
  998MOL0     H34668   2.684  11.183   7.551  4.9142 -1.1986 -1.3997
  998MOL0     H34669   2.893  11.337   7.566  0.5639  2.0083  1.6334
  998MOL0     H34670   2.814  11.417   7.703 -0.3267 -1.5700  0.6237
  998MOL0     H34671   2.754  11.402   7.400  3.1624  0.5566  0.4949
  998MOL0     H34672   2.635  11.463   7.527  0.4040 -1.3967  0.6924
  998MOL0     H34673   2.829  11.631   7.591  1.2692  1.6859 -0.1852
  998MOL0     H34674   2.878  11.604   7.425 -1.2065  3.2639 -2.3858
  998MOL0     H34675   2.604  11.647   7.389  1.1975 -0.6192 -0.7989
  998MOL0     H34676   2.643  11.739   7.531  2.2877  4.1731 -1.1186
  998MOL0     H34677   2.820  11.851   7.399 -2.6859 -0.2720  1.4414
  998MOL0     H34678   2.648  11.867   7.343 -0.7707  0.0823  4.6535
  998MOL0     H34679   2.820  11.838   7.155  0.1495  0.2545 -0.0479
  998MOL0     H34680   2.828  11.661   7.205 -0.6818 -0.8895 -2.0506
  998MOL0     H34681   2.589  11.921   7.036  1.5209  0.0631 -1.2402
  998MOL0     H34682   2.368  11.668   6.822 -0.5585  1.6737 -1.2737
  998MOL0     H34683   2.314  11.818   6.897 -1.4426 -2.6575 -0.1897
  998MOL0     H34684   2.502  11.936   6.778 -0.0140  0.7195 -1.0768
  998MOL0     H34685   2.546  11.778   6.706  1.7848  2.7154 -1.3449
  998MOL0     H34686   2.251  11.875   6.654  0.9720 -0.5893 -0.2832
  998MOL0     H34687   2.336  11.758   6.569 -1.7407 -0.1834  0.9552
  998MOL0     H34688   2.332  11.943   6.443 -1.4548  0.5448  0.1028
  998MOL0     H34689   2.503  11.897   6.470  0.7532  0.7083  1.1928
  998MOL0     H34690   2.475  12.224   6.772 -1.0215 -1.3845  1.4668
  998MOL0     H34691   2.356  12.419   6.836  3.8246  1.0418 -2.2031
  998MOL0     H34692   2.065  12.793   6.556 -0.4075 -1.4992 -0.8976
  998MOL0     H34693   1.888  12.988   6.584 -0.6459  0.3653 -0.0415
  998MOL0     H34694   1.737  13.144   6.664  0.0190  0.2574  2.8936
  998MOL0     H34695   1.655  13.047   6.537 -0.4143  1.3859 -0.4373
  998MOL0     H34696   1.502  13.125   6.783  1.9910  3.9146  1.7238
  998MOL0     H34697   1.560  13.251   6.667  1.2517 -0.5559 -0.9572
  998MOL0     H34698   1.466  13.138   6.476 -0.3579  1.7926  0.7247
  998MOL0     H34699   1.416  12.990   6.565  1.0686 -0.6131  1.9328
  998MOL0     H34700   1.316  13.272   6.600  0.6972  0.4928  1.9285
  998MOL0     H34701   1.265  13.154   6.703  0.7606 -0.4337  0.7715
  998MOL0     H34702   1.100  13.149   6.550 -0.6897 -1.0690  1.5129
  998MOL0     H34703   1.193  13.025   6.456  2.3153  0.1558 -1.3053
  998MOL0     H34704   1.214  13.324   6.396  0.7392 -0.6727 -1.4240
  998MOL0     H34705   1.289  13.186   6.315 -1.4028 -1.7396 -0.0587
  998MOL0     H34706   1.076  13.308   6.229 -0.0988  0.3685  1.8718
  998MOL0     H34707   0.985  13.201   6.345 -0.0224 -1.8181  0.8329
  998MOL0     H34708   1.130  13.107   6.093 -0.3530 -1.6832  0.3094
  998MOL0     H34709   1.118  13.014   6.245  2.4182  1.2370 -0.3359
  998MOL0     H34710   1.659  12.740   6.828 -1.5352  3.8194 -2.0054
  998MOL0     H34711   1.818  12.541   6.785  2.2935 -1.9017 -1.7064
  998MOL0     H34712   2.077  12.328   6.520 -2.2261  0.3252  3.2904
  998MOL0     H34713   2.226  12.122   6.464  0.7460 -1.3574  0.7006
  998MOL0     H34714   2.789  11.078   8.057 -0.2432 -1.1764 -2.7258
  998MOL0     H34715   2.949  10.933   8.194  0.1399 -1.9722 -0.8411
  998MOL0     H34716   3.071  10.522   8.313 -0.3191  3.3750  0.8056
  998MOL0     H34717   3.190  10.357   8.413 -0.1192 -2.8887 -1.5446
  998MOL0     H34718   3.641  10.361   8.310 -0.3971  1.8525  0.7056
  998MOL0     H34719   3.636  10.209   8.404  1.6813  1.3490  0.7283
  998MOL0     H34720   3.768  10.410   8.496  0.3140  0.1893  0.1787
  998MOL0     H34721   3.657  10.334   8.604  0.9660 -0.7306 -0.4719
  998MOL0     H34722   3.501  10.528   8.605  0.6182 -0.3025  0.9459
  998MOL0     H34723   3.586  10.589   8.460 -1.3486 -0.2554 -0.3493
  998MOL0     H34724   3.695  10.574   8.745 -1.3497 -0.2818  0.3360
  998MOL0     H34725   3.773  10.656   8.610  1.2332 -0.7458 -1.1023
  998MOL0     H34726   3.487  10.896   8.824 -1.1267 -1.5511 -0.2512
  998MOL0     H34727   3.542  10.499   8.210  0.1127 -0.4841 -2.7285
  998MOL0     H34728   3.400  10.766   8.020  2.9672 -0.0481 -0.7694
  998MOL0     H34729   3.485  10.795   8.183  0.5248 -0.8015  1.5367
  998MOL0     H34730   3.543  10.687   8.075  1.7186  1.7464  0.7454
  999MOL0     O34731  10.368   1.266  10.119 -0.2451 -0.3509  0.1634
  999MOL0     C34732  10.470   1.295  10.187 -0.8326  0.3776 -0.6136
  999MOL0     O34733  10.592   1.219  10.182 -0.7993  0.7731 -0.1461
  999MOL0     C34734  10.605   1.124  10.084 -0.0105  0.5763  0.6530
  999MOL0     C34735  10.555   0.990  10.097 -1.3888  0.4108 -1.1571
  999MOL0     C34736  10.571   0.898   9.992  0.3130  0.4276 -0.4123
  999MOL0     C34737  10.623   0.955   9.862 -0.9551  0.5983 -0.2691
  999MOL0     O34738  10.639   0.885   9.744 -0.2269 -0.2459 -0.7698
  999MOL0     C34739  10.614   0.746   9.757 -0.1547  1.0366 -0.3441
  999MOL0     C34740  10.668   0.685   9.621  0.1401 -0.2474  0.4893
  999MOL0     C34741  10.679   0.530   9.605 -0.1649  0.3506 -0.4365
  999MOL0     C34742  10.635   0.467   9.483  0.3293  0.2890  0.3937
  999MOL0     C34743  10.640   0.317   9.494  0.2837 -0.1450  0.7786
  999MOL0     C34744  10.577   0.257   9.358  0.0695  0.0407 -0.7122
  999MOL0     C34745  10.598   0.105   9.342  0.2265 -0.1780 -0.7554
  999MOL0     C34746  10.573   0.014   9.461  0.1838 -1.1143 -0.4236
  999MOL0     N34747  10.625  -0.117   9.436  0.7931 -1.1646 -0.3599
  999MOL0     C34748  10.580  -0.198   9.350 -0.2270  0.4721  0.5264
  999MOL0     C34749  10.675  -0.297   9.358 -0.9843 -1.4025 -0.2787
  999MOL0     C34750  10.676  -0.419   9.273  0.0924 -0.8553  0.2968
  999MOL0     C34751  10.733  -0.389   9.133 -0.0437 -0.2575  0.3717
  999MOL0     C34752  10.886  -0.419   9.127  0.7055  0.1119  0.1387
  999MOL0     C34753  10.923  -0.565   9.130  0.7460  0.0056 -0.0561
  999MOL0     O34754  10.866  -0.624   9.012  0.3586  0.1177 -0.7603
  999MOL0     C34755  10.953  -0.626   8.901  0.8941 -0.2143  0.8927
  999MOL0     C34756  11.079  -0.556   8.889  1.0020 -0.2129  0.2653
  999MOL0     C34757  11.147  -0.544   8.770 -0.6290  0.1902 -0.3847
  999MOL0     C34758  11.113  -0.621   8.667  0.1019 -0.3421  0.2520
  999MOL0     C34759  11.201  -0.611   8.547  0.2987  0.1163 -0.1816
  999MOL0     O34760  11.321  -0.551   8.560  0.3307 -0.4097  0.2618
  999MOL0     C34761  11.397  -0.531   8.442 -0.2786 -0.4134 -0.5003
  999MOL0     C34762  11.422  -0.398   8.405 -0.4264  0.6363 -0.1675
  999MOL0     C34763  11.502  -0.374   8.290  0.0430 -0.1035  0.1786
  999MOL0     C34764  11.556  -0.473   8.217  0.3206  0.2824 -0.1038
  999MOL0     O34765  11.623  -0.442   8.109 -0.4748 -0.4139 -0.3720
  999MOL0     C34766  11.766  -0.459   8.124 -0.2173 -0.6807 -0.2908
  999MOL0     C34767  11.827  -0.376   8.004  1.2642  0.0373  0.5022
  999MOL0     C34768  11.810  -0.445   7.865  0.7981  1.5215 -0.1122
  999MOL0     C34769  11.839  -0.357   7.755  0.0786  0.8214 -0.6170
  999MOL0     C34770  11.908  -0.434   7.642 -0.0332  0.3084  0.2416
  999MOL0     C34771  11.956  -0.352   7.523 -0.9524 -0.2133  0.3099
  999MOL0     C34772  12.081  -0.415   7.461  0.0143 -0.6057  0.9252
  999MOL0     C34773  12.122  -0.331   7.335 -0.0069 -0.0441  0.9451
  999MOL0    Cl34774  12.121  -0.153   7.370  0.5332 -0.3349 -0.0142
  999MOL0     C34775  11.530  -0.611   8.259  0.7300  0.0772  0.1873
  999MOL0     C34776  11.449  -0.637   8.371 -1.0670  0.0077 -0.2696
  999MOL0     O34777  11.153  -0.646   8.442 -0.0016  0.2299  0.6940
  999MOL0     C34778  10.995  -0.699   8.679 -1.2311 -0.2752  0.8082
  999MOL0     C34779  10.916  -0.697   8.791 -0.2692  0.5865  0.7473
  999MOL0     N34780  10.757  -0.272   9.460 -0.0521 -0.4002  0.5472
  999MOL0     N34781  10.729  -0.160   9.506 -0.4089  0.2979 -0.3666
  999MOL0     C34782  10.648   1.093   9.849 -0.0303 -0.7002  0.1805
  999MOL0     C34783  10.647   1.168   9.961 -0.2772 -0.1661 -1.1059
  999MOL0     C34784  10.444   1.417  10.274  0.6453 -0.8061  0.6060
  999MOL0     C34785  10.336   1.498  10.243 -0.2083 -0.6798  1.1557
  999MOL0     C34786  10.286   1.586  10.327 -0.1616 -0.6986  0.6652
  999MOL0     C34787  10.349   1.618  10.445 -0.2820 -0.0600  0.6423
  999MOL0     O34788  10.310   1.700  10.545 -0.5675  0.0270 -0.2812
  999MOL0     C34789  10.203   1.786  10.503  0.0297  0.5029  0.0311
  999MOL0     C34790  10.162   1.879  10.624  0.0993  0.6930  0.3696
  999MOL0     C34791  10.277   1.987  10.624  0.4386 -0.1800 -0.0995
  999MOL0     C34792  10.243   2.094  10.725 -0.0323  0.4537  0.1035
  999MOL0     C34793  10.363   2.166  10.779  1.3438 -0.3234  0.8042
  999MOL0     C34794  10.463   2.231  10.811 -0.8283 -0.3638 -0.0171
  999MOL0     C34795  10.471   1.541  10.474  0.5845 -0.1999  0.6512
  999MOL0     C34796  10.520   1.453  10.389 -0.3155 -0.1529  0.0518
  999MOL0     C34797  10.659   1.379  10.428 -0.7566 -0.1597  0.2169
  999MOL0     H34798  10.531   0.970  10.201  4.4924 -0.7382  0.3307
  999MOL0     H34799  10.547   0.792   9.999  2.4409 -0.1370 -0.9006
  999MOL0     H34800  10.672   0.697   9.836 -1.8621 -2.2173 -0.9207
  999MOL0     H34801  10.508   0.721   9.766 -0.1591  1.2148  0.1660
  999MOL0     H34802  10.769   0.727   9.611 -0.1921  1.0441  2.1760
  999MOL0     H34803  10.593   0.720   9.550  0.9101 -2.1842 -1.4219
  999MOL0     H34804  10.630   0.485   9.692  2.2325  2.5485  2.2609
  999MOL0     H34805  10.780   0.489   9.617 -0.8701 -0.9993  1.5963
  999MOL0     H34806  10.533   0.500   9.459 -0.0159 -1.4326 -0.7145
  999MOL0     H34807  10.699   0.504   9.402 -0.3340  0.5984 -0.0050
  999MOL0     H34808  10.739   0.271   9.503  0.5113 -0.5457 -2.3743
  999MOL0     H34809  10.569   0.291   9.573  0.5044 -0.3319  0.9146
  999MOL0     H34810  10.470   0.277   9.358  0.0850  0.1569  0.2100
  999MOL0     H34811  10.620   0.302   9.268  1.3978  0.5950  0.1672
  999MOL0     H34812  10.697   0.104   9.296  0.3623 -0.8669 -0.4653
  999MOL0     H34813  10.529   0.064   9.267  0.9863 -0.7907 -1.1343
  999MOL0     H34814  10.622   0.055   9.550  3.0384 -1.4713 -1.7168
  999MOL0     H34815  10.465   0.021   9.476  0.0746  1.4715 -1.8245
  999MOL0     H34816  10.488  -0.189   9.293 -0.9718 -1.5494  1.3274
  999MOL0     H34817  10.733  -0.490   9.333  0.5925 -0.2203  0.5896
  999MOL0     H34818  10.572  -0.451   9.265 -0.9855  1.4408  3.0885
  999MOL0     H34819  10.686  -0.449   9.055  1.1948  0.9238 -1.3584
  999MOL0     H34820  10.717  -0.285   9.104  0.9797 -0.3909 -0.7496
  999MOL0     H34821  10.947  -0.380   9.209  2.3265  0.6847 -1.2692
  999MOL0     H34822  10.930  -0.391   9.030  3.6887 -2.2815  0.6602
  999MOL0     H34823  10.870  -0.606   9.217  0.1216 -1.7891 -1.2289
  999MOL0     H34824  11.027  -0.598   9.139  0.0234 -2.5870 -0.3287
  999MOL0     H34825  11.113  -0.497   8.973  0.7416 -1.7903  1.5375
  999MOL0     H34826  11.238  -0.484   8.771  1.1828 -2.3256 -2.2422
  999MOL0     H34827  11.378  -0.321   8.468  1.2038 -0.2367  2.1850
  999MOL0     H34828  11.505  -0.271   8.256 -2.4055 -0.8632 -2.7900
  999MOL0     H34829  11.788  -0.399   8.212 -2.1751  0.0035 -0.2282
  999MOL0     H34830  11.796  -0.565   8.120 -0.0297 -0.6062 -1.2386
  999MOL0     H34831  11.769  -0.284   8.000 -3.3550 -2.6156 -1.0266
  999MOL0     H34832  11.932  -0.376   8.034  0.8998 -3.8175  2.3692
  999MOL0     H34833  11.878  -0.531   7.861  1.0298  1.7231 -0.5237
  999MOL0     H34834  11.709  -0.485   7.856  1.3181  0.4738 -1.6681
  999MOL0     H34835  11.913  -0.283   7.786  1.4176 -0.3716 -0.8760
  999MOL0     H34836  11.745  -0.312   7.724 -1.5306 -1.6203  0.3883
  999MOL0     H34837  11.836  -0.514   7.621 -0.3320  0.4449  0.7376
  999MOL0     H34838  11.999  -0.485   7.675  0.3419  0.8596  0.0670
  999MOL0     H34839  11.880  -0.351   7.445  0.8302 -1.6201 -1.5292
  999MOL0     H34840  11.971  -0.244   7.538  1.6453  0.3413 -4.5502
  999MOL0     H34841  12.062  -0.517   7.426 -0.8760  0.3382 -1.5325
  999MOL0     H34842  12.164  -0.424   7.532  1.2260 -2.5382 -0.6192
  999MOL0     H34843  12.219  -0.359   7.293  0.0316  0.7845  0.4581
  999MOL0     H34844  12.053  -0.336   7.251  3.3502 -3.0271 -1.9424
  999MOL0     H34845  11.569  -0.692   8.197 -1.1791 -2.8081  2.4984
  999MOL0     H34846  11.442  -0.737   8.413 -1.0206  0.5942  1.1948
  999MOL0     H34847  10.962  -0.757   8.593  2.1256  0.0582 -0.8663
  999MOL0     H34848  10.829  -0.762   8.793  1.0746 -1.6023 -2.8743
  999MOL0     H34849  10.669   1.139   9.753 -5.4887  0.6603 -0.7192
  999MOL0     H34850  10.684   1.270   9.969  2.4355 -1.2045  1.7508
  999MOL0     H34851  10.267   1.470  10.164  0.8792  1.3255 -0.5809
  999MOL0     H34852  10.198   1.647  10.308  0.9991  0.9376  0.3039
  999MOL0     H34853  10.123   1.716  10.477  1.1738 -0.4647 -0.9712
  999MOL0     H34854  10.227   1.843  10.413 -2.9756  0.1987 -1.0952
  999MOL0     H34855  10.169   1.819  10.715  0.7581  2.4551  1.5369
  999MOL0     H34856  10.063   1.923  10.611  0.4853  1.0200 -2.0009
  999MOL0     H34857  10.289   2.025  10.522 -1.8944  0.4946 -0.1827
  999MOL0     H34858  10.375   1.942  10.641 -1.0892 -3.7527  0.2327
  999MOL0     H34859  10.169   2.160  10.677 -0.1683  0.5304  0.4191
  999MOL0     H34860  10.206   2.051  10.818  1.5733 -2.9211 -0.6677
  999MOL0     H34861  10.546   2.290  10.844  0.3037 -1.9460  0.0857
  999MOL0     H34862  10.529   1.580  10.558 -1.0287  2.4633  0.6161
  999MOL0     H34863  10.721   1.443  10.492  0.1676 -0.2430 -0.5879
  999MOL0     H34864  10.633   1.289  10.485  0.9858 -0.4040  0.6794
  999MOL0     H34865  10.716   1.356  10.338 -0.1377  0.2118  0.5128
 1000MOL0     O34866   9.813   1.494  11.316 -0.7397  0.4245 -0.0843
 1000MOL0     C34867   9.816   1.445  11.425  0.8436  0.7747 -0.7979
 1000MOL0     O34868   9.804   1.497  11.546 -0.0677 -0.3727 -0.7180
 1000MOL0     C34869   9.812   1.637  11.544  0.4529  0.3079  0.4030
 1000MOL0     C34870   9.704   1.715  11.500  0.0774  0.2848 -0.6747
 1000MOL0     C34871   9.714   1.849  11.467 -0.0676  0.0650 -0.6558
 1000MOL0     C34872   9.827   1.918  11.514 -0.0774  1.1892  0.3319
 1000MOL0     O34873   9.830   2.054  11.500  0.4918 -0.2554 -0.2818
 1000MOL0     C34874   9.959   2.115  11.476  0.4920  0.9132 -0.6559
 1000MOL0     C34875   9.941   2.268  11.434 -0.2385 -0.1520 -0.3277
 1000MOL0     C34876   9.876   2.264  11.294 -0.1737 -0.6053  0.8480
 1000MOL0     C34877   9.814   2.398  11.258 -0.8454 -0.2600  0.8377
 1000MOL0     C34878   9.665   2.401  11.241 -1.0137  0.0706 -0.2358
 1000MOL0     C34879   9.616   2.319  11.120  0.0376  0.0860 -0.5317
 1000MOL0     C34880   9.470   2.299  11.108  0.3815 -0.3497  1.3044
 1000MOL0     C34881   9.432   2.216  10.988  0.6735  0.5870  0.8424
 1000MOL0     N34882   9.469   2.268  10.854  0.6583  0.5755 -0.1717
 1000MOL0     C34883   9.584   2.229  10.795  0.0680  0.1816 -0.2848
 1000MOL0     C34884   9.614   2.321  10.700  0.4213  0.1502  0.0067
 1000MOL0     C34885   9.736   2.323  10.609  0.0334 -0.1132  0.1807
 1000MOL0     C34886   9.705   2.293  10.457 -0.4618  0.0313 -0.3146
 1000MOL0     C34887   9.647   2.162  10.449  0.2569  0.8772  0.3113
 1000MOL0     C34888   9.731   2.045  10.500  0.1394  0.5367 -1.0576
 1000MOL0     O34889   9.861   2.050  10.443  0.5617  0.5354 -0.3555
 1000MOL0     C34890   9.871   2.013  10.309  0.3598 -0.2962 -0.4229
 1000MOL0     C34891   9.807   1.900  10.243 -0.2983 -0.5563 -0.1661
 1000MOL0     C34892   9.837   1.865  10.109  0.0421  0.0023 -0.2949
 1000MOL0     C34893   9.938   1.926  10.044 -0.1010 -0.0760  0.0077
 1000MOL0     C34894   9.969   1.890   9.908  1.0722  0.2480  0.2235
 1000MOL0     O34895   9.878   1.807   9.851 -0.1392 -0.3253 -0.1371
 1000MOL0     C34896   9.904   1.740   9.734 -0.1529 -0.4336 -0.4175
 1000MOL0     C34897   9.806   1.741   9.627  0.0056  0.2729 -0.7423
 1000MOL0     C34898   9.854   1.679   9.511 -0.0352 -0.3856  0.4801
 1000MOL0     C34899   9.978   1.617   9.498 -0.3560 -0.6519 -0.4398
 1000MOL0     O34900   9.987   1.546   9.387 -0.4472 -0.7295 -0.0324
 1000MOL0     C34901  10.076   1.606   9.297 -0.1152 -0.1899 -0.8378
 1000MOL0     C34902  10.091   1.520   9.170 -0.5612 -0.1761 -0.2650
 1000MOL0     C34903  10.167   1.595   9.061  0.2578  0.3131 -0.6079
 1000MOL0     C34904  10.174   1.500   8.931 -0.4535 -0.1216  0.7399
 1000MOL0     C34905  10.309   1.500   8.854  0.7928 -0.4979  0.0995
 1000MOL0     C34906  10.360   1.647   8.832 -0.1778 -0.2028 -0.9531
 1000MOL0     C34907  10.439   1.675   8.700  0.8457 -0.0683  0.5594
 1000MOL0     C34908  10.558   1.586   8.694 -0.0934  0.1346  0.0379
 1000MOL0    Cl34909  10.670   1.641   8.563 -0.1310  0.0410  0.4534
 1000MOL0     C34910  10.080   1.620   9.598  0.2858  0.4197 -0.5007
 1000MOL0     C34911  10.034   1.680   9.721 -0.3848 -0.6616 -0.2089
 1000MOL0     O34912  10.070   1.933   9.848  0.0213 -0.2349 -0.0431
 1000MOL0     C34913  10.004   2.033  10.099 -0.1890 -0.4792 -0.8261
 1000MOL0     C34914   9.973   2.067  10.231  0.8260  0.4451 -0.0008
 1000MOL0     N34915   9.523   2.428  10.716 -0.4696 -0.3205  0.3845
 1000MOL0     N34916   9.442   2.393  10.817  0.4169 -0.3371  0.4211
 1000MOL0     C34917   9.940   1.844  11.576  0.0799 -0.3335  0.4893
 1000MOL0     C34918   9.929   1.704  11.580  0.3720 -0.5324  0.0271
 1000MOL0     C34919   9.820   1.300  11.421  0.5576  0.2829 -0.7266
 1000MOL0     C34920   9.732   1.225  11.499 -0.2694 -0.5068  0.0790
 1000MOL0     C34921   9.719   1.088  11.482  0.6074 -0.2303  0.5260
 1000MOL0     C34922   9.809   1.016  11.401 -0.1568  1.2798 -0.2982
 1000MOL0     O34923   9.823   0.883  11.399  0.1433 -0.0517  0.3574
 1000MOL0     C34924   9.709   0.792  11.382  0.4612  0.0845  0.6982
 1000MOL0     C34925   9.747   0.658  11.446  0.0291 -0.3867 -0.8513
 1000MOL0     C34926   9.801   0.656  11.599  0.2569  0.2211  1.1963
 1000MOL0     C34927   9.701   0.726  11.696 -0.2458  0.7806  0.4845
 1000MOL0     C34928   9.569   0.665  11.697  0.5290  0.1005 -0.1136
 1000MOL0     C34929   9.456   0.643  11.702 -0.3960  0.2029 -0.3405
 1000MOL0     C34930   9.902   1.086  11.333 -0.2492  0.6093 -0.1227
 1000MOL0     C34931   9.904   1.228  11.334  0.3043  0.8800  0.2809
 1000MOL0     C34932  10.000   1.292  11.236 -0.1941 -0.0099  0.3746
 1000MOL0     H34933   9.606   1.670  11.493 -0.4234  1.1513  0.4243
 1000MOL0     H34934   9.623   1.897  11.432 -1.3782 -1.7499  0.1065
 1000MOL0     H34935  10.030   2.115  11.559  0.0174  5.2640 -0.0189
 1000MOL0     H34936  10.016   2.070  11.394 -0.1610 -0.1981 -0.5166
 1000MOL0     H34937  10.041   2.314  11.435 -0.9882  1.6876  2.5167
 1000MOL0     H34938   9.890   2.326  11.512  0.5131  1.8368 -1.2422
 1000MOL0     H34939   9.797   2.189  11.287  1.2072 -2.1937  1.5208
 1000MOL0     H34940   9.951   2.247  11.216 -0.9547 -0.4206  0.0519
 1000MOL0     H34941   9.844   2.488  11.312 -4.8154  1.7667  0.0899
 1000MOL0     H34942   9.845   2.424  11.156 -4.6905  2.0840  0.0475
 1000MOL0     H34943   9.627   2.370  11.339 -0.6529  1.1384  0.2602
 1000MOL0     H34944   9.635   2.502  11.210 -1.1954  0.0302 -0.1896
 1000MOL0     H34945   9.664   2.354  11.028  1.1609 -0.6333 -0.2306
 1000MOL0     H34946   9.667   2.223  11.132  0.4478  0.6038  2.6231
 1000MOL0     H34947   9.411   2.392  11.104 -0.7406 -1.0588  0.9162
 1000MOL0     H34948   9.436   2.251  11.200 -2.6446  0.6256  0.8132
 1000MOL0     H34949   9.464   2.112  10.998 -1.1051 -0.1543 -0.5235
 1000MOL0     H34950   9.323   2.217  10.978  0.8520  2.0013 -2.5208
 1000MOL0     H34951   9.644   2.142  10.821  1.7589  1.9920  2.3168
 1000MOL0     H34952   9.768   2.427  10.617 -2.9436  0.7471  2.8247
 1000MOL0     H34953   9.818   2.268  10.657 -0.9945  0.9740  3.4373
 1000MOL0     H34954   9.637   2.372  10.425  0.8441  1.2004 -0.2998
 1000MOL0     H34955   9.805   2.295  10.412  0.6352  1.1136  1.9873
 1000MOL0     H34956   9.636   2.149  10.341 -1.5376  1.2457  0.4175
 1000MOL0     H34957   9.545   2.167  10.488  0.0401  2.1235 -0.3543
 1000MOL0     H34958   9.669   1.960  10.468  1.3704 -0.0899 -1.8434
 1000MOL0     H34959   9.729   2.066  10.608  1.9386 -0.2175 -0.8381
 1000MOL0     H34960   9.729   1.841  10.289 -2.1429  1.3607 -0.6978
 1000MOL0     H34961   9.780   1.780  10.071  2.1108 -0.8572 -1.6518
 1000MOL0     H34962   9.702   1.770   9.628 -0.5359 -1.5440  1.5276
 1000MOL0     H34963   9.791   1.685   9.423  2.9838  2.2832 -1.7632
 1000MOL0     H34964  10.023   1.701   9.287 -2.6550 -0.8544  3.6462
 1000MOL0     H34965  10.174   1.624   9.342 -0.7813 -0.0480  0.5954
 1000MOL0     H34966  10.145   1.431   9.203  0.9156  1.2726  1.3948
 1000MOL0     H34967   9.988   1.497   9.139 -1.4572  0.8320  1.8170
 1000MOL0     H34968  10.121   1.690   9.032 -1.8767 -0.5278 -0.1007
 1000MOL0     H34969  10.270   1.608   9.096  1.9403 -2.9581 -3.6223
 1000MOL0     H34970  10.104   1.528   8.852 -0.9057  1.2168  1.5895
 1000MOL0     H34971  10.150   1.399   8.966  0.2480 -0.9447 -1.0680
 1000MOL0     H34972  10.321   1.429   8.772 -0.2075 -0.2490 -0.2756
 1000MOL0     H34973  10.380   1.472   8.932  0.4571 -2.2220 -0.1830
 1000MOL0     H34974  10.283   1.722   8.851  0.9137  0.0172  3.7117
 1000MOL0     H34975  10.437   1.660   8.909 -0.0288 -0.4338 -1.0619
 1000MOL0     H34976  10.467   1.780   8.699  0.3381  0.0656 -0.0857
 1000MOL0     H34977  10.359   1.651   8.629 -2.6626  0.4754  3.9529
 1000MOL0     H34978  10.607   1.583   8.792 -3.8789 -1.9872  2.0835
 1000MOL0     H34979  10.517   1.488   8.671 -1.8328  0.0874  2.8282
 1000MOL0     H34980  10.180   1.578   9.592 -1.1427 -3.5905  0.7298
 1000MOL0     H34981  10.100   1.694   9.805  0.3249 -0.9828 -0.7082
 1000MOL0     H34982  10.093   2.071  10.049  0.3067  0.5554  0.7446
 1000MOL0     H34983  10.039   2.138  10.281  2.6170 -0.3777 -1.0850
 1000MOL0     H34984  10.026   1.900  11.612  0.1881 -0.1528 -0.0512
 1000MOL0     H34985   9.994   1.634  11.630  1.3249  0.8582  0.8210
 1000MOL0     H34986   9.674   1.269  11.580  0.2866  0.0742  0.1625
 1000MOL0     H34987   9.663   1.019  11.544  3.7774 -2.7941  0.8150
 1000MOL0     H34988   9.691   0.781  11.274  0.4239  0.2486  0.6857
 1000MOL0     H34989   9.610   0.823  11.418 -0.8423 -2.1846 -0.6630
 1000MOL0     H34990   9.815   0.611  11.375  1.0628  0.3116 -0.3466
 1000MOL0     H34991   9.652   0.603  11.445 -1.2726  1.7154  0.0309
 1000MOL0     H34992   9.899   0.705  11.597  0.3025  0.1992  2.4499
 1000MOL0     H34993   9.812   0.551  11.629  2.2547  0.1317  0.2780
 1000MOL0     H34994   9.751   0.717  11.793 -1.4339 -0.6859  0.9947
 1000MOL0     H34995   9.682   0.826  11.656 -0.4957  0.0674 -1.2800
 1000MOL0     H34996   9.350   0.627  11.696 -0.3373 -0.0896 -0.6587
 1000MOL0     H34997   9.945   1.020  11.258 -4.4329 -3.0919  0.3227
 1000MOL0     H34998  10.084   1.227  11.211  0.4397  1.4804 -1.6474
 1000MOL0     H34999   9.945   1.308  11.143  0.8228 -2.5855 -0.7595
 1000MOL0     H35000  10.039   1.385  11.278  2.7634 -0.8047 -0.3973
 1001MOL0     O35001   0.738   3.007   5.449 -0.5559  0.0848 -0.3885
 1001MOL0     C35002   0.781   3.047   5.561 -0.1067 -0.3524  0.7892
 1001MOL0     O35003   0.744   3.164   5.622  0.3413 -0.3838  1.3947
 1001MOL0     C35004   0.653   3.245   5.559 -0.9332  0.0479 -0.1311
 1001MOL0     C35005   0.653   3.278   5.430  0.4888 -0.3296  0.8564
 1001MOL0     C35006   0.567   3.371   5.365 -0.6464  0.5515 -0.4537
 1001MOL0     C35007   0.484   3.443   5.451 -0.5645 -0.5020  1.0330
 1001MOL0     O35008   0.402   3.545   5.389 -0.1394  0.1782  0.4377
 1001MOL0     C35009   0.325   3.632   5.468 -0.4681  0.7077  0.1591
 1001MOL0     C35010   0.258   3.717   5.371 -0.3923  0.4271  0.6405
 1001MOL0     C35011   0.152   3.648   5.288  0.0568 -0.1025  0.2369
 1001MOL0     C35012   0.066   3.745   5.203  1.0039 -0.9980 -0.3569
 1001MOL0     C35013  -0.049   3.668   5.142  0.4383 -0.0298 -0.0762
 1001MOL0     C35014  -0.172   3.749   5.102  0.9679  0.0257 -0.1092
 1001MOL0     C35015  -0.296   3.654   5.078  0.1951  1.3038 -0.2403
 1001MOL0     C35016  -0.427   3.731   5.030  0.4748  1.1309 -0.9894
 1001MOL0     N35017  -0.451   3.847   5.111 -0.4650 -0.4838 -0.4740
 1001MOL0     C35018  -0.478   3.858   5.244  0.0283  0.3031  0.2493
 1001MOL0     C35019  -0.530   3.982   5.254 -0.5125  0.7743  0.3567
 1001MOL0     C35020  -0.591   4.044   5.380  0.5954  0.7304 -0.1499
 1001MOL0     C35021  -0.720   4.106   5.363  0.3837  0.0005 -0.4885
 1001MOL0     C35022  -0.820   3.992   5.319  0.4587  0.2780 -0.1740
 1001MOL0     C35023  -0.822   3.861   5.395 -0.2966  0.2763 -0.8964
 1001MOL0     O35024  -0.949   3.799   5.385 -0.9305  0.0949 -0.0562
 1001MOL0     C35025  -0.983   3.747   5.264 -0.9271  0.3487 -0.0981
 1001MOL0     C35026  -0.888   3.683   5.177 -0.7669 -0.5957  0.3888
 1001MOL0     C35027  -0.919   3.595   5.068 -0.3185  0.5930 -0.5960
 1001MOL0     C35028  -1.058   3.571   5.042 -1.2010  0.4912 -0.1492
 1001MOL0     C35029  -1.092   3.480   4.929 -0.7682  0.3648 -0.1024
 1001MOL0     O35030  -0.995   3.468   4.828  0.1581  0.5837 -0.7120
 1001MOL0     C35031  -1.024   3.389   4.720  0.5281  0.2312  0.1850
 1001MOL0     C35032  -1.024   3.254   4.727 -0.7515  0.0745  0.3664
 1001MOL0     C35033  -1.027   3.176   4.612  0.2959  0.0889  0.3251
 1001MOL0     C35034  -1.043   3.227   4.480  0.1884 -0.8469  0.0947
 1001MOL0     O35035  -1.047   3.144   4.371 -0.0798 -0.6268  0.0992
 1001MOL0     C35036  -0.919   3.072   4.359  0.0412 -0.3541  0.8759
 1001MOL0     C35037  -0.826   3.166   4.284  1.0532  0.3513  0.2443
 1001MOL0     C35038  -0.678   3.124   4.290  0.4800 -0.4908 -0.0085
 1001MOL0     C35039  -0.621   3.156   4.422 -0.0651  0.7852  0.7930
 1001MOL0     C35040  -0.479   3.108   4.438 -0.1381 -0.4224 -0.0406
 1001MOL0     C35041  -0.402   3.166   4.559 -0.4434 -0.5259  0.2407
 1001MOL0     C35042  -0.384   3.316   4.556  0.3458 -0.0956 -0.1564
 1001MOL0     C35043  -0.296   3.365   4.444 -0.4416 -0.2807 -0.0762
 1001MOL0    Cl35044  -0.371   3.413   4.288  0.1411  0.1218  0.0595
 1001MOL0     C35045  -1.050   3.365   4.476  0.5789 -0.6636 -0.2358
 1001MOL0     C35046  -1.045   3.446   4.595  0.1218 -0.0124 -0.0072
 1001MOL0     O35047  -1.211   3.439   4.928 -0.3500 -0.1726  0.1393
 1001MOL0     C35048  -1.148   3.643   5.122  0.2244  0.2092 -0.2177
 1001MOL0     C35049  -1.115   3.720   5.236 -0.3107  0.9373  0.8249
 1001MOL0     N35050  -0.522   4.042   5.134 -0.1018 -0.1833  0.1493
 1001MOL0     N35051  -0.482   3.965   5.046 -0.6615 -0.2644  0.4594
 1001MOL0     C35052   0.489   3.416   5.588  0.7036 -0.6403 -0.6857
 1001MOL0     C35053   0.578   3.322   5.638  0.4087  0.5731 -0.3509
 1001MOL0     C35054   0.868   2.952   5.647  0.8577 -0.7194 -0.3209
 1001MOL0     C35055   0.919   3.002   5.766 -0.0566 -0.5389 -0.1168
 1001MOL0     C35056   1.002   2.920   5.846 -0.1691  0.1796 -0.4755
 1001MOL0     C35057   1.044   2.795   5.804  0.8124 -1.9021 -0.1427
 1001MOL0     O35058   1.124   2.710   5.870 -0.0410  0.2387  0.5256
 1001MOL0     C35059   1.095   2.689   6.008  0.3075 -0.4310  0.2177
 1001MOL0     C35060   1.217   2.692   6.100  0.1962 -0.4424  0.0124
 1001MOL0     C35061   1.349   2.736   6.025 -0.4095 -0.1313 -0.1950
 1001MOL0     C35062   1.452   2.752   6.141 -0.2063 -0.1624 -0.7925
 1001MOL0     C35063   1.566   2.817   6.079 -0.5379 -0.9468 -0.1976
 1001MOL0     C35064   1.643   2.889   6.024  1.0133 -0.6659  0.4131
 1001MOL0     C35065   0.994   2.748   5.688 -0.6532 -0.0248 -0.6684
 1001MOL0     C35066   0.901   2.819   5.606 -0.0600  1.0319 -0.2748
 1001MOL0     C35067   0.867   2.747   5.478 -0.2832 -0.8668 -0.0299
 1001MOL0     H35068   0.720   3.231   5.358  3.4975  1.8918  1.9774
 1001MOL0     H35069   0.572   3.387   5.258 -2.0326 -0.7109 -0.7411
 1001MOL0     H35070   0.256   3.566   5.521 -0.4372 -0.2188 -0.9213
 1001MOL0     H35071   0.382   3.681   5.548 -0.3270  0.8594 -0.0358
 1001MOL0     H35072   0.330   3.763   5.303  0.7489 -1.1494  0.7510
 1001MOL0     H35073   0.210   3.791   5.437  2.7887  2.3948  0.9483
 1001MOL0     H35074   0.081   3.609   5.361  0.2442 -0.8332  0.0397
 1001MOL0     H35075   0.186   3.569   5.221 -0.0602 -0.6525  0.8212
 1001MOL0     H35076   0.020   3.814   5.274 -0.7710 -1.7156 -0.7570
 1001MOL0     H35077   0.127   3.799   5.130  1.5406  0.3143  1.0181
 1001MOL0     H35078  -0.012   3.623   5.049 -0.5774  3.0760 -2.1593
 1001MOL0     H35079  -0.083   3.586   5.206  1.2917  0.5161  1.1040
 1001MOL0     H35080  -0.192   3.823   5.181 -0.4432 -0.4712  0.0322
 1001MOL0     H35081  -0.155   3.812   5.014  1.4223 -0.3061 -0.2651
 1001MOL0     H35082  -0.313   3.602   5.173 -2.2211 -2.2257 -2.3643
 1001MOL0     H35083  -0.273   3.580   5.000  1.2725 -1.6101  2.5973
 1001MOL0     H35084  -0.409   3.772   4.930  1.4474  1.2375 -0.7770
 1001MOL0     H35085  -0.522   3.678   5.039  0.6410  0.9134 -0.4931
 1001MOL0     H35086  -0.465   3.782   5.321  1.2745 -0.4989 -0.7208
 1001MOL0     H35087  -0.601   3.970   5.461  0.8644 -0.5942 -1.2860
 1001MOL0     H35088  -0.522   4.117   5.421  0.8059  0.5270 -0.1378
 1001MOL0     H35089  -0.748   4.139   5.464  1.5427  1.5631 -0.6418
 1001MOL0     H35090  -0.729   4.195   5.301 -1.3673  2.0433  2.4334
 1001MOL0     H35091  -0.800   3.977   5.212  1.5635  0.7245 -0.0523
 1001MOL0     H35092  -0.917   4.042   5.323 -0.3008 -1.2131  1.1483
 1001MOL0     H35093  -0.800   3.883   5.500 -1.6809  3.2247 -1.1450
 1001MOL0     H35094  -0.736   3.802   5.362 -0.0807  0.8677 -1.3903
 1001MOL0     H35095  -0.783   3.701   5.198 -1.8767  3.1716  3.8706
 1001MOL0     H35096  -0.838   3.545   5.017 -1.1361 -2.1038  0.5710
 1001MOL0     H35097  -1.013   3.188   4.813  3.2770 -0.4615 -0.3462
 1001MOL0     H35098  -1.022   3.070   4.633  1.6421  0.3384  1.3972
 1001MOL0     H35099  -0.871   3.045   4.454 -1.2708  0.4306  1.7876
 1001MOL0     H35100  -0.932   2.987   4.291  3.2532  0.7246 -1.3464
 1001MOL0     H35101  -0.861   3.164   4.181  0.2078  0.0700  0.5274
 1001MOL0     H35102  -0.840   3.271   4.311 -3.6964 -0.3817  1.6245
 1001MOL0     H35103  -0.681   3.015   4.280 -2.2810 -0.5085  0.3114
 1001MOL0     H35104  -0.621   3.157   4.202  0.0310 -0.7667 -0.4059
 1001MOL0     H35105  -0.680   3.134   4.511 -1.0064  2.8147  0.7417
 1001MOL0     H35106  -0.611   3.265   4.423 -1.8682  1.0064 -0.3248
 1001MOL0     H35107  -0.422   3.122   4.346  2.1509 -0.8041  1.2481
 1001MOL0     H35108  -0.484   2.999   4.452 -0.7599 -0.2237  1.5152
 1001MOL0     H35109  -0.470   3.143   4.642 -4.3202 -0.4256 -2.6114
 1001MOL0     H35110  -0.306   3.119   4.579  0.4278  0.2788 -1.7791
 1001MOL0     H35111  -0.348   3.347   4.655 -2.2256 -1.6382  1.3631
 1001MOL0     H35112  -0.480   3.368   4.550 -0.5402 -1.7284 -0.8839
 1001MOL0     H35113  -0.235   3.453   4.466 -0.2689  0.8950 -4.3906
 1001MOL0     H35114  -0.232   3.280   4.417 -0.4512  0.3701 -2.2863
 1001MOL0     H35115  -1.077   3.416   4.383  0.7980  2.1766  1.1535
 1001MOL0     H35116  -1.048   3.552   4.570 -2.2817 -0.5534 -2.5083
 1001MOL0     H35117  -1.254   3.625   5.106 -0.3454 -0.7456  3.6112
 1001MOL0     H35118  -1.192   3.756   5.305 -2.8114 -1.0207 -0.7486
 1001MOL0     H35119   0.441   3.474   5.667  3.7092 -1.1569  1.7246
 1001MOL0     H35120   0.582   3.302   5.745  3.2706 -0.6199 -0.5841
 1001MOL0     H35121   0.888   3.097   5.809 -2.1191 -1.6182  0.9668
 1001MOL0     H35122   1.031   2.964   5.941 -2.5328 -0.4796  0.6255
 1001MOL0     H35123   1.030   2.605   6.031 -1.8136  1.2601  0.7169
 1001MOL0     H35124   1.020   2.755   6.051 -0.0643 -0.4568 -0.3701
 1001MOL0     H35125   1.230   2.597   6.153 -2.6209 -0.1125  1.4944
 1001MOL0     H35126   1.204   2.771   6.175  1.6871  0.4816 -0.6588
 1001MOL0     H35127   1.337   2.837   5.986  0.0574 -0.4986 -1.3173
 1001MOL0     H35128   1.376   2.671   5.942  2.0037 -0.0766  0.4612
 1001MOL0     H35129   1.418   2.818   6.221  1.2754  2.1341 -1.9355
 1001MOL0     H35130   1.482   2.656   6.183  0.6652  0.3552 -0.1952
 1001MOL0     H35131   1.709   2.964   5.984  0.9688 -1.3104 -0.9234
 1001MOL0     H35132   1.033   2.651   5.661  3.3483  0.1391  3.2478
 1001MOL0     H35133   0.901   2.815   5.400 -0.4165 -0.4810  0.2446
 1001MOL0     H35134   0.922   2.653   5.471  1.6268  0.2745 -1.1803
 1001MOL0     H35135   0.760   2.732   5.461  0.0201 -1.8758 -1.1640
 1002MOL0     O35136   9.163   8.417   8.896 -0.2162 -0.6049 -0.5116
 1002MOL0     C35137   9.270   8.370   8.933  0.6538  0.6489  0.1308
 1002MOL0     O35138   9.340   8.274   8.859  0.1473 -0.6073 -0.3700
 1002MOL0     C35139   9.318   8.257   8.724 -0.6602 -0.6298  1.2933
 1002MOL0     C35140   9.308   8.382   8.654  0.3199  0.5211 -0.3824
 1002MOL0     C35141   9.280   8.383   8.516  0.0292  0.1493 -0.2652
 1002MOL0     C35142   9.245   8.264   8.453  0.7704  0.3132 -0.1266
 1002MOL0     O35143   9.212   8.259   8.324 -0.4589  0.8590 -1.4228
 1002MOL0     C35144   9.277   8.355   8.236 -0.2233  0.8418 -0.3132
 1002MOL0     C35145   9.242   8.328   8.089  1.0402  0.6876 -0.3851
 1002MOL0     C35146   9.313   8.198   8.038  0.3750  0.4861  0.4745
 1002MOL0     C35147   9.284   8.165   7.894  0.7125  0.8140  0.0769
 1002MOL0     C35148   9.131   8.132   7.867 -0.9028 -0.0041  0.6463
 1002MOL0     C35149   9.079   8.032   7.967  0.5607 -0.5517  0.2767
 1002MOL0     C35150   8.958   7.945   7.936  0.5933 -0.2568 -0.7979
 1002MOL0     C35151   8.845   8.013   7.857 -0.2792  0.5503  0.0579
 1002MOL0     N35152   8.720   7.938   7.861  0.7217 -0.6548 -0.6545
 1002MOL0     C35153   8.616   7.957   7.959 -0.4926 -0.1243 -0.3535
 1002MOL0     C35154   8.505   7.896   7.911 -0.3076 -0.4859  0.3443
 1002MOL0     C35155   8.369   7.885   7.964  0.1901 -0.0918 -0.9045
 1002MOL0     C35156   8.303   8.025   7.972 -0.1971  0.1485 -0.8363
 1002MOL0     C35157   8.147   8.026   7.963  0.3004 -0.9818 -0.3893
 1002MOL0     C35158   8.096   8.132   8.065 -0.1559 -0.3714 -0.0847
 1002MOL0     O35159   8.095   8.084   8.199  0.1137  0.2526 -0.0665
 1002MOL0     C35160   7.983   8.010   8.242 -0.5158  0.0470  0.4604
 1002MOL0     C35161   7.895   7.936   8.167  0.5049  0.5717 -0.7115
 1002MOL0     C35162   7.800   7.860   8.229  0.2100  0.1316  0.1697
 1002MOL0     C35163   7.779   7.868   8.366 -0.3684  0.9511  0.0661
 1002MOL0     C35164   7.670   7.802   8.441  0.1310 -0.3191  0.3566
 1002MOL0     O35165   7.664   7.826   8.570 -0.4974 -0.3862 -1.1525
 1002MOL0     C35166   7.582   7.745   8.645 -0.7362  0.7808  0.0608
 1002MOL0     C35167   7.636   7.699   8.769  0.0525  0.1371 -0.0817
 1002MOL0     C35168   7.563   7.599   8.833 -0.3921  0.3803  0.3963
 1002MOL0     C35169   7.435   7.555   8.786  0.5408 -0.1155 -0.1855
 1002MOL0     O35170   7.353   7.451   8.842 -0.0174 -0.7909  0.0940
 1002MOL0     C35171   7.434   7.367   8.929 -0.0537 -0.0520 -0.8730
 1002MOL0     C35172   7.363   7.230   8.938 -0.2706 -0.1058 -0.2872
 1002MOL0     C35173   7.425   7.159   9.053  0.2568  0.5773  0.0875
 1002MOL0     C35174   7.453   7.008   9.036  0.3627  0.5663 -0.5070
 1002MOL0     C35175   7.498   6.939   9.164  0.3511  0.0262  0.4273
 1002MOL0     C35176   7.459   6.798   9.152  0.8245 -0.6109 -0.0210
 1002MOL0     C35177   7.519   6.705   9.258 -1.3263  0.2638  0.3819
 1002MOL0     C35178   7.567   6.567   9.217 -0.8269  0.1408 -1.5512
 1002MOL0    Cl35179   7.422   6.485   9.156  0.2333 -0.1406  0.2263
 1002MOL0     C35180   7.377   7.628   8.677  0.4106 -0.3172  1.2622
 1002MOL0     C35181   7.448   7.728   8.623 -0.7080 -0.1233 -0.7664
 1002MOL0     O35182   7.603   7.714   8.383 -0.6241 -0.3333 -0.0984
 1002MOL0     C35183   7.869   7.935   8.443 -0.5854  0.4640  0.6837
 1002MOL0     C35184   7.971   8.005   8.377  0.8100 -0.1278 -0.2388
 1002MOL0     N35185   8.541   7.837   7.794  0.7208  0.4668  0.2282
 1002MOL0     N35186   8.668   7.862   7.763  0.1142  0.0560 -0.3829
 1002MOL0     C35187   9.269   8.144   8.519 -0.7659  0.2706 -0.2504
 1002MOL0     C35188   9.302   8.140   8.653  0.3509  0.4311 -0.1943
 1002MOL0     C35189   9.296   8.393   9.078 -0.5686 -0.3688  0.5593
 1002MOL0     C35190   9.395   8.306   9.134  0.6473 -0.3902  0.4058
 1002MOL0     C35191   9.447   8.329   9.263 -0.4414 -0.4962 -0.3695
 1002MOL0     C35192   9.397   8.436   9.331 -0.0609 -0.1058  0.1482
 1002MOL0     O35193   9.447   8.453   9.459 -0.3340 -0.0945  0.6306
 1002MOL0     C35194   9.459   8.580   9.517  0.5149  0.2181 -0.5600
 1002MOL0     C35195   9.584   8.655   9.449 -0.7203  1.0806 -0.4627
 1002MOL0     C35196   9.650   8.741   9.562 -0.6420 -0.2145  0.0372
 1002MOL0     C35197   9.743   8.848   9.516  0.3057 -0.3511 -0.5237
 1002MOL0     C35198   9.831   8.803   9.407  0.5259  0.0195  0.7556
 1002MOL0     C35199   9.900   8.766   9.315 -0.0261 -0.4815 -0.0489
 1002MOL0     C35200   9.282   8.502   9.284  1.0375 -0.3319  0.2083
 1002MOL0     C35201   9.223   8.487   9.163  0.3281 -0.2828 -0.7474
 1002MOL0     C35202   9.084   8.567   9.136 -0.5430 -0.3107 -0.2473
 1002MOL0     H35203   9.317   8.473   8.712  0.0132 -0.4836  1.3189
 1002MOL0     H35204   9.290   8.480   8.468  1.4970 -0.0460 -0.4258
 1002MOL0     H35205   9.271   8.460   8.269  2.2484  0.6082  1.2281
 1002MOL0     H35206   9.381   8.333   8.263 -0.8347  1.3231  2.8735
 1002MOL0     H35207   9.297   8.411   8.044  6.3461 -1.8301  0.6061
 1002MOL0     H35208   9.135   8.325   8.069  0.9388 -2.3743  0.1169
 1002MOL0     H35209   9.293   8.108   8.097 -1.8753 -0.6335 -1.8101
 1002MOL0     H35210   9.422   8.207   8.040  0.6846 -2.1940  3.2389
 1002MOL0     H35211   9.302   8.253   7.831  1.3902  0.0472 -0.8299
 1002MOL0     H35212   9.354   8.093   7.852  2.8235  3.6531 -1.6081
 1002MOL0     H35213   9.072   8.224   7.862  1.5117  1.5650 -2.1439
 1002MOL0     H35214   9.117   8.089   7.767 -0.5234  1.4608 -0.0662
 1002MOL0     H35215   9.159   7.959   7.984  1.9291  0.5305 -1.2188
 1002MOL0     H35216   9.059   8.086   8.060  1.8860 -0.9348  0.8044
 1002MOL0     H35217   8.920   7.899   8.028  1.2274  0.7686  0.0027
 1002MOL0     H35218   8.994   7.864   7.872  1.1276  0.0032 -0.8295
 1002MOL0     H35219   8.831   8.111   7.904  4.9082  0.6872  1.9779
 1002MOL0     H35220   8.879   8.026   7.754  0.3661  1.9627  0.4167
 1002MOL0     H35221   8.631   8.017   8.048  0.9247 -0.1360 -0.5523
 1002MOL0     H35222   8.308   7.820   7.900  0.6075 -2.3127  0.8413
 1002MOL0     H35223   8.371   7.836   8.061  1.8910  0.9728 -0.3604
 1002MOL0     H35224   8.323   8.079   8.065 -0.4027  0.2016 -0.8239
 1002MOL0     H35225   8.346   8.088   7.893 -1.9836 -2.2245 -3.9333
 1002MOL0     H35226   8.112   7.923   7.977  0.9741 -1.4861 -2.2328
 1002MOL0     H35227   8.128   8.055   7.860 -4.0396  1.4021  0.7923
 1002MOL0     H35228   7.993   8.164   8.047  0.2799 -0.3261 -2.9487
 1002MOL0     H35229   8.160   8.218   8.044  2.4293 -2.3753 -0.8983
 1002MOL0     H35230   7.897   7.938   8.059 -1.9537 -1.3161 -0.8755
 1002MOL0     H35231   7.733   7.795   8.173  1.1247 -0.1289 -0.6468
 1002MOL0     H35232   7.738   7.715   8.801 -0.0495 -2.1011  1.6071
 1002MOL0     H35233   7.609   7.558   8.923 -2.7617 -2.1031  0.5914
 1002MOL0     H35234   7.534   7.346   8.890 -1.3191 -2.9416 -2.9113
 1002MOL0     H35235   7.445   7.411   9.029 -1.5206 -1.5123 -0.0025
 1002MOL0     H35236   7.255   7.233   8.953 -0.9011 -2.1618 -3.5800
 1002MOL0     H35237   7.372   7.177   8.843 -3.4523 -2.2572  0.4580
 1002MOL0     H35238   7.524   7.201   9.074  0.2030  0.9285 -0.3352
 1002MOL0     H35239   7.369   7.184   9.143  0.5811 -0.6470  0.6430
 1002MOL0     H35240   7.528   6.994   8.958  3.8759  3.6455  1.9814
 1002MOL0     H35241   7.353   6.975   9.007  0.1419  1.6193 -0.9733
 1002MOL0     H35242   7.443   6.977   9.251 -0.5365 -0.2368 -0.0109
 1002MOL0     H35243   7.605   6.957   9.169  0.1631  1.3085  0.0910
 1002MOL0     H35244   7.350   6.790   9.157  0.7975  0.4942  3.0317
 1002MOL0     H35245   7.490   6.773   9.050  0.4830 -3.0766  0.4171
 1002MOL0     H35246   7.451   6.692   9.342 -2.7473  2.3155 -0.3626
 1002MOL0     H35247   7.607   6.759   9.293 -1.8796  1.4828 -0.0477
 1002MOL0     H35248   7.644   6.562   9.139 -1.2077 -2.6935 -1.8614
 1002MOL0     H35249   7.612   6.518   9.303 -0.7859 -2.7118 -3.0595
 1002MOL0     H35250   7.287   7.597   8.626  0.2016  4.2115 -1.6245
 1002MOL0     H35251   7.412   7.789   8.540 -0.5467 -0.3917 -1.0364
 1002MOL0     H35252   7.859   7.952   8.550  0.1049  0.8772  0.6878
 1002MOL0     H35253   8.057   8.042   8.432  3.3275 -2.0014 -2.6618
 1002MOL0     H35254   9.271   8.056   8.456  3.3545  2.1934 -3.3252
 1002MOL0     H35255   9.298   8.056   8.722 -0.5841  2.0521  1.8446
 1002MOL0     H35256   9.446   8.224   9.084  2.1279 -0.3598  1.8074
 1002MOL0     H35257   9.532   8.267   9.288 -0.8901 -1.6860 -1.6782
 1002MOL0     H35258   9.468   8.574   9.625  0.2915  2.0297 -0.4049
 1002MOL0     H35259   9.368   8.636   9.495  0.2456  1.2822  2.7671
 1002MOL0     H35260   9.558   8.722   9.367 -1.8629 -0.1152 -1.1153
 1002MOL0     H35261   9.654   8.575   9.420  0.1795  0.7900  2.1641
 1002MOL0     H35262   9.714   8.680   9.627  1.3239 -0.4191 -1.9746
 1002MOL0     H35263   9.579   8.796   9.625  2.4547  2.1249  1.7793
 1002MOL0     H35264   9.683   8.920   9.461  1.8991  1.4759  0.0122
 1002MOL0     H35265   9.794   8.908   9.593 -0.3076 -1.4741  0.8153
 1002MOL0     H35266   9.967   8.733   9.239  2.3933 -1.9892  2.5236
 1002MOL0     H35267   9.238   8.571   9.356  5.4919  1.8087  1.2555
 1002MOL0     H35268   9.092   8.648   9.062 -0.5483  1.5319  1.6864
 1002MOL0     H35269   9.026   8.480   9.104  3.9016 -3.3156 -1.1326
 1002MOL0     H35270   9.044   8.616   9.225  0.6885 -1.8197  1.2027
 1003MOL0     O35271  10.552   3.407   6.620  0.2322 -0.1836 -0.1732
 1003MOL0     C35272  10.611   3.425   6.515 -0.4335 -0.6683 -0.5597
 1003MOL0     O35273  10.736   3.376   6.484 -0.1952 -0.2681  0.1672
 1003MOL0     C35274  10.795   3.279   6.558 -0.2488 -0.4787 -1.2064
 1003MOL0     C35275  10.724   3.180   6.622  0.2009  0.0298  0.1553
 1003MOL0     C35276  10.789   3.074   6.689 -0.4813  0.4625  0.3731
 1003MOL0     C35277  10.922   3.073   6.699  0.4678  0.1010  0.0885
 1003MOL0     O35278  10.986   2.987   6.787  1.3857 -0.5725 -0.2043
 1003MOL0     C35279  11.110   2.948   6.731  0.5225  0.8005 -0.2044
 1003MOL0     C35280  11.146   2.818   6.799  0.5326 -0.0866 -0.3866
 1003MOL0     C35281  11.039   2.705   6.756 -0.6051  0.4475  0.3295
 1003MOL0     C35282  11.066   2.580   6.828 -0.2213  0.1873  0.7660
 1003MOL0     C35283  10.949   2.488   6.813 -0.2140  0.1092  0.2633
 1003MOL0     C35284  10.953   2.371   6.917 -0.7800 -0.1185 -0.1638
 1003MOL0     C35285  10.822   2.287   6.926 -0.2641 -0.6788  0.1599
 1003MOL0     C35286  10.711   2.362   6.982  0.2168  0.2038 -0.0574
 1003MOL0     N35287  10.588   2.286   6.997  0.3567 -0.7777  0.2336
 1003MOL0     C35288  10.516   2.217   6.900 -0.3410  0.1210 -0.0457
 1003MOL0     C35289  10.393   2.194   6.948 -0.4938 -0.2951 -0.3313
 1003MOL0     C35290  10.288   2.129   6.887  0.6569  1.1301  0.4593
 1003MOL0     C35291  10.273   1.981   6.919  0.0115  0.0867  0.4037
 1003MOL0     C35292  10.237   1.949   7.064 -0.3112 -0.0738  0.4241
 1003MOL0     C35293  10.174   1.808   7.076  0.5302 -0.1176 -0.4380
 1003MOL0     O35294  10.176   1.770   7.213 -0.0159 -0.1976 -0.4928
 1003MOL0     C35295  10.082   1.681   7.254 -0.1006  0.8418  1.0177
 1003MOL0     C35296  10.072   1.654   7.389  0.5983 -0.1241 -0.9512
 1003MOL0     C35297  10.013   1.547   7.444  0.2687  0.3362  0.3802
 1003MOL0     C35298   9.931   1.462   7.368  0.6904 -0.9653 -0.3774
 1003MOL0     C35299   9.867   1.339   7.423  0.0449 -0.2248  0.3371
 1003MOL0     O35300   9.802   1.269   7.329  0.0319 -0.0163 -0.3216
 1003MOL0     C35301   9.729   1.156   7.366  0.3986 -0.3950 -0.2329
 1003MOL0     C35302   9.730   1.037   7.300  0.3475  0.4417  0.1937
 1003MOL0     C35303   9.672   0.914   7.339 -0.3093  0.1114  0.3215
 1003MOL0     C35304   9.584   0.918   7.444 -0.0307 -0.3672  0.1258
 1003MOL0     O35305   9.525   0.797   7.479 -0.4200  0.1141 -0.3752
 1003MOL0     C35306   9.410   0.807   7.564  0.3220  0.2658 -0.4834
 1003MOL0     C35307   9.344   0.672   7.594 -0.3686  0.8146 -0.4053
 1003MOL0     C35308   9.222   0.667   7.506 -0.2754 -0.6738 -0.4955
 1003MOL0     C35309   9.123   0.559   7.553  0.2367 -0.4662 -0.1573
 1003MOL0     C35310   9.004   0.544   7.456  0.4221 -0.0221 -0.4667
 1003MOL0     C35311   8.890   0.482   7.530  0.7102 -0.2806  0.7191
 1003MOL0     C35312   8.774   0.460   7.431 -0.0227 -1.1216  0.0051
 1003MOL0     C35313   8.709   0.589   7.391  0.2529 -0.6350 -0.2392
 1003MOL0    Cl35314   8.527   0.569   7.400  0.5191  0.3053  0.2428
 1003MOL0     C35315   9.560   1.040   7.504 -0.1681  1.0311  0.2399
 1003MOL0     C35316   9.629   1.157   7.468 -0.2659 -0.8714  0.1565
 1003MOL0     O35317   9.876   1.309   7.537  0.0477  0.5449  1.0370
 1003MOL0     C35318   9.922   1.487   7.225 -0.5714  0.1715 -0.8003
 1003MOL0     C35319  10.002   1.590   7.173  0.2433 -0.8161  0.6409
 1003MOL0     N35320  10.396   2.245   7.077  0.0023  0.5379 -0.1161
 1003MOL0     N35321  10.502   2.295   7.101 -1.1308 -0.8193 -0.3700
 1003MOL0     C35322  10.993   3.181   6.651 -0.2674 -0.5945  0.0956
 1003MOL0     C35323  10.935   3.285   6.583 -0.7607 -0.7588 -0.1236
 1003MOL0     C35324  10.540   3.505   6.407 -0.0623  0.3644  0.0802
 1003MOL0     C35325  10.607   3.509   6.284 -0.1308 -1.1917 -0.3078
 1003MOL0     C35326  10.559   3.587   6.177  0.7192 -0.3462  0.1190
 1003MOL0     C35327  10.429   3.644   6.188 -0.4849  0.5951  0.0129
 1003MOL0     O35328  10.374   3.695   6.071 -0.1156 -0.3985  0.8231
 1003MOL0     C35329  10.243   3.754   6.075 -0.3638  0.6999 -0.5249
 1003MOL0     C35330  10.182   3.776   5.938 -0.2769  0.6510 -0.2039
 1003MOL0     C35331  10.271   3.884   5.869  0.1365 -0.1724 -0.2650
 1003MOL0     C35332  10.258   3.856   5.719  0.3439  0.1772 -0.7779
 1003MOL0     C35333  10.299   3.979   5.643  0.6709  0.0598  0.4579
 1003MOL0     C35334  10.316   4.055   5.551 -0.3635  0.2090 -0.3762
 1003MOL0     C35335  10.359   3.636   6.313 -1.3388 -0.6567  1.2000
 1003MOL0     C35336  10.409   3.564   6.414 -0.3750  0.2701 -0.0933
 1003MOL0     C35337  10.326   3.557   6.530 -0.1923  0.1826 -0.1593
 1003MOL0     H35338  10.616   3.172   6.611  0.1783  0.7441 -0.2532
 1003MOL0     H35339  10.736   2.989   6.730  1.3788 -2.0258 -2.0506
 1003MOL0     H35340  11.106   2.930   6.623  0.4064  0.7481 -0.1912
 1003MOL0     H35341  11.183   3.025   6.759  0.5801  0.2007  1.3816
 1003MOL0     H35342  11.151   2.824   6.908  2.0212  0.1859 -0.4501
 1003MOL0     H35343  11.240   2.785   6.754 -0.2880 -2.1431 -0.7171
 1003MOL0     H35344  11.062   2.678   6.653 -1.9756  1.6201 -0.3172
 1003MOL0     H35345  10.940   2.738   6.788  0.1900 -0.2304  3.9506
 1003MOL0     H35346  11.161   2.542   6.789 -1.9278 -2.3859 -1.3312
 1003MOL0     H35347  11.072   2.588   6.937  1.2570 -5.3783  1.4288
 1003MOL0     H35348  10.862   2.551   6.836  0.3745  0.8152  0.5647
 1003MOL0     H35349  10.946   2.436   6.716 -1.1451 -1.5031  1.1052
 1003MOL0     H35350  11.034   2.303   6.891 -1.4352 -1.6588  1.6248
 1003MOL0     H35351  10.972   2.406   7.019  0.0233 -0.6186 -0.1411
 1003MOL0     H35352  10.838   2.197   6.985 -3.5367 -0.3357  1.8218
 1003MOL0     H35353  10.798   2.254   6.824 -1.6348 -0.3966  0.3689
 1003MOL0     H35354  10.737   2.398   7.081 -1.5395  2.7747 -0.4452
 1003MOL0     H35355  10.681   2.451   6.925 -1.0049  1.1864  2.0089
 1003MOL0     H35356  10.555   2.188   6.803  1.9205 -1.6538  1.2646
 1003MOL0     H35357  10.194   2.181   6.911  0.3097  1.0841 -0.7314
 1003MOL0     H35358  10.296   2.141   6.778 -0.4757 -1.5842  0.0008
 1003MOL0     H35359  10.190   1.954   6.853  0.2831  0.5053 -0.1272
 1003MOL0     H35360  10.358   1.920   6.884 -1.1110 -0.2079 -2.0307
 1003MOL0     H35361  10.162   2.017   7.105 -1.5418 -2.0300  1.5576
 1003MOL0     H35362  10.337   1.947   7.108  1.4029  1.4450 -2.9765
 1003MOL0     H35363  10.229   1.743   7.008  1.4514  1.2065 -1.0062
 1003MOL0     H35364  10.069   1.818   7.048 -0.9705  0.7356  4.4815
 1003MOL0     H35365  10.124   1.722   7.456  2.2492 -0.3067 -2.0059
 1003MOL0     H35366  10.020   1.523   7.550  3.2918  2.9287  0.8881
 1003MOL0     H35367   9.805   1.036   7.221  0.0008  0.7340 -0.1460
 1003MOL0     H35368   9.703   0.822   7.289  1.1056 -0.6435  2.4313
 1003MOL0     H35369   9.438   0.856   7.658 -1.5319 -1.0535  0.8197
 1003MOL0     H35370   9.339   0.877   7.518 -2.0512 -0.7633  1.3694
 1003MOL0     H35371   9.406   0.587   7.566 -0.5224  1.0775 -1.5895
 1003MOL0     H35372   9.324   0.661   7.701  0.8420  0.1694 -0.2327
 1003MOL0     H35373   9.169   0.762   7.492 -2.0417 -1.1752  2.0353
 1003MOL0     H35374   9.252   0.632   7.407  0.5441  1.5218 -1.0768
 1003MOL0     H35375   9.095   0.584   7.655  2.1951  0.7082  0.1352
 1003MOL0     H35376   9.162   0.457   7.556 -1.4207 -1.1168  0.3770
 1003MOL0     H35377   9.025   0.490   7.364  0.6342  0.8280 -0.9189
 1003MOL0     H35378   8.977   0.645   7.426  0.7290 -0.3216 -1.7844
 1003MOL0     H35379   8.927   0.390   7.575 -0.2963  0.2852  2.8686
 1003MOL0     H35380   8.856   0.548   7.610  0.7109  0.6858 -0.0593
 1003MOL0     H35381   8.702   0.392   7.479 -3.0330  2.5444  1.1959
 1003MOL0     H35382   8.804   0.404   7.341 -2.7216 -1.8641 -0.5321
 1003MOL0     H35383   8.729   0.683   7.445 -1.7671  0.9578 -2.0729
 1003MOL0     H35384   8.729   0.614   7.287 -1.2987 -0.0212 -0.4182
 1003MOL0     H35385   9.496   1.046   7.591 -1.0041 -3.6507  0.2269
 1003MOL0     H35386   9.612   1.250   7.521 -0.5418  0.3526 -1.9535
 1003MOL0     H35387   9.874   1.419   7.157 -1.0915 -1.1016  0.7744
 1003MOL0     H35388   9.996   1.615   7.068 -3.1742  1.3766  1.1842
 1003MOL0     H35389  11.097   3.200   6.674 -0.4110  2.6114 -1.4159
 1003MOL0     H35390  10.995   3.361   6.535  0.5333 -1.4604  0.3411
 1003MOL0     H35391  10.694   3.445   6.274 -1.8730 -3.5562 -1.4132
 1003MOL0     H35392  10.612   3.602   6.084 -0.3011 -1.0878 -0.6004
 1003MOL0     H35393  10.244   3.848   6.131  1.3944  0.7734 -0.5960
 1003MOL0     H35394  10.166   3.693   6.122 -1.6023  2.7372  0.2207
 1003MOL0     H35395  10.080   3.814   5.938 -0.7997 -0.5948 -2.4292
 1003MOL0     H35396  10.182   3.675   5.896 -1.8856 -0.7605  2.8809
 1003MOL0     H35397  10.376   3.885   5.898  0.0191  0.6147  0.1504
 1003MOL0     H35398  10.224   3.981   5.885 -0.9563 -0.7709  0.3277
 1003MOL0     H35399  10.322   3.776   5.682 -1.6646  0.1158 -4.5938
 1003MOL0     H35400  10.156   3.825   5.696  0.4944 -2.1247  1.2469
 1003MOL0     H35401  10.333   4.131   5.478 -0.2219  1.0758  0.5378
 1003MOL0     H35402  10.261   3.684   6.318 -1.2261 -0.4485  1.4600
 1003MOL0     H35403  10.344   3.633   6.607  0.4976  0.8251 -0.9340
 1003MOL0     H35404  10.223   3.552   6.496 -0.0025 -3.7212 -0.5099
 1003MOL0     H35405  10.327   3.457   6.573  0.5898  0.6324  0.9263
 1004MOL0     O35406  10.553   7.345   3.724 -0.3094 -0.2241  0.1724
 1004MOL0     C35407  10.632   7.262   3.768  0.0748  0.2514 -0.5000
 1004MOL0     O35408  10.758   7.282   3.805  0.2204 -0.1225 -0.2184
 1004MOL0     C35409  10.811   7.406   3.789  0.4066 -0.3573 -0.0588
 1004MOL0     C35410  10.849   7.475   3.900  0.4473 -0.7319 -0.2678
 1004MOL0     C35411  10.911   7.607   3.896  0.8638 -0.2903  0.2832
 1004MOL0     C35412  10.950   7.650   3.765  0.1504 -0.3862  0.4044
 1004MOL0     O35413  10.988   7.786   3.750 -0.3202 -0.5542 -0.6912
 1004MOL0     C35414  11.127   7.812   3.737  0.3065  0.1406  0.4458
 1004MOL0     C35415  11.209   7.776   3.865 -0.3022 -0.2557  0.8270
 1004MOL0     C35416  11.342   7.845   3.857  0.2521 -0.3222 -0.4618
 1004MOL0     C35417  11.415   7.853   3.988 -0.2010  0.7793  0.0047
 1004MOL0     C35418  11.553   7.928   3.989  0.5001  0.7219  0.0016
 1004MOL0     C35419  11.599   7.932   4.136  0.6668 -0.8543  0.0519
 1004MOL0     C35420  11.692   8.050   4.167  0.1133  0.7100  0.1833
 1004MOL0     C35421  11.809   8.014   4.266  0.0534  0.7446 -0.2288
 1004MOL0     N35422  11.915   7.939   4.195  0.1044  0.3409 -0.4884
 1004MOL0     C35423  11.987   7.964   4.084  0.5844 -0.0276 -0.3620
 1004MOL0     C35424  12.057   7.847   4.053  0.3874 -0.6646  0.6544
 1004MOL0     C35425  12.140   7.821   3.933  0.3516  0.0190  1.1187
 1004MOL0     C35426  12.284   7.785   3.958  0.5128 -0.1579 -0.5619
 1004MOL0     C35427  12.369   7.736   3.839  0.8799 -0.3989  0.1920
 1004MOL0     C35428  12.516   7.717   3.885  0.1076 -1.0320  0.7225
 1004MOL0     O35429  12.523   7.618   3.986 -0.4980  0.3774 -0.2617
 1004MOL0     C35430  12.645   7.588   4.044  0.8040 -1.1555 -0.1350
 1004MOL0     C35431  12.752   7.680   4.041 -0.6352 -0.9393 -0.1911
 1004MOL0     C35432  12.873   7.660   4.109 -0.6830 -0.5315  0.3917
 1004MOL0     C35433  12.891   7.529   4.168 -0.3378 -0.6059  0.2304
 1004MOL0     C35434  13.015   7.503   4.245  0.1498 -0.6062  0.1244
 1004MOL0     O35435  13.037   7.379   4.274  0.7216  0.3621  0.5465
 1004MOL0     C35436  13.153   7.343   4.330  0.0481 -0.2377 -0.4921
 1004MOL0     C35437  13.152   7.294   4.468  0.3872 -0.3521 -0.5282
 1004MOL0     C35438  13.268   7.256   4.532 -0.1045 -0.5180  0.6514
 1004MOL0     C35439  13.386   7.268   4.465 -0.2896 -0.0986  0.5097
 1004MOL0     O35440  13.499   7.217   4.513  0.1793  0.5969 -0.2037
 1004MOL0     C35441  13.586   7.322   4.560 -0.0574  0.1741 -0.2996
 1004MOL0     C35442  13.682   7.259   4.658 -0.4970 -0.0938  0.9626
 1004MOL0     C35443  13.762   7.345   4.750  0.3401 -0.3853  0.5759
 1004MOL0     C35444  13.899   7.287   4.783 -0.1124  0.8131 -0.6713
 1004MOL0     C35445  13.952   7.359   4.901  0.1176  0.9576 -0.1916
 1004MOL0     C35446  14.036   7.271   4.991 -0.4384 -0.0279 -0.0994
 1004MOL0     C35447  14.124   7.360   5.091 -0.6751 -0.0040 -0.4957
 1004MOL0     C35448  14.236   7.283   5.169 -0.5851  0.8493  1.2221
 1004MOL0    Cl35449  14.301   7.377   5.313  0.3297 -0.3421 -0.0028
 1004MOL0     C35450  13.392   7.317   4.328  0.2401  0.9156  1.0105
 1004MOL0     C35451  13.274   7.340   4.257 -0.5773  0.3282  1.2744
 1004MOL0     O35452  13.095   7.593   4.274  0.3323  0.1548  0.2715
 1004MOL0     C35453  12.784   7.440   4.162  0.0874 -0.5577  0.1634
 1004MOL0     C35454  12.661   7.466   4.104  0.7014  0.2512 -0.2826
 1004MOL0     N35455  12.056   7.765   4.168  1.1705  0.1727 -0.0615
 1004MOL0     N35456  11.960   7.816   4.249 -0.2303 -0.5175  0.1693
 1004MOL0     C35457  10.917   7.579   3.652 -0.0461 -0.2322 -0.5966
 1004MOL0     C35458  10.852   7.452   3.669  0.2713 -0.6796 -0.1566
 1004MOL0     C35459  10.572   7.131   3.812  0.7243 -0.1513  0.3970
 1004MOL0     C35460  10.600   7.020   3.735 -0.0467  0.3001  1.6430
 1004MOL0     C35461  10.539   6.899   3.762 -0.3254 -0.3815 -0.1166
 1004MOL0     C35462  10.445   6.883   3.865 -0.4355  0.1853  0.1642
 1004MOL0     O35463  10.384   6.768   3.909  0.0591 -0.0687  0.3566
 1004MOL0     C35464  10.333   6.684   3.802  0.3336  0.8140 -1.1855
 1004MOL0     C35465  10.441   6.573   3.781  0.1840 -0.3007  0.1348
 1004MOL0     C35466  10.446   6.475   3.904  0.0643 -0.8401 -0.6414
 1004MOL0     C35467  10.544   6.367   3.879 -0.3268 -0.1417  0.2166
 1004MOL0     C35468  10.596   6.319   4.005 -0.3300  0.5488 -0.1679
 1004MOL0     C35469  10.654   6.280   4.107  0.4923  1.3842  0.5591
 1004MOL0     C35470  10.414   6.996   3.930  0.5638  0.1106 -0.1971
 1004MOL0     C35471  10.478   7.128   3.912 -0.2163  0.9627 -0.7428
 1004MOL0     C35472  10.424   7.245   3.984 -0.3913 -0.8417 -0.6883
 1004MOL0     H35473  10.818   7.436   3.996  0.0113  0.7777  0.2297
 1004MOL0     H35474  10.923   7.664   3.987 -0.7414 -2.3176  1.8918
 1004MOL0     H35475  11.159   7.746   3.657  1.3415 -1.5117  2.1473
 1004MOL0     H35476  11.133   7.917   3.707 -1.2864 -0.9634 -4.8231
 1004MOL0     H35477  11.223   7.671   3.893  2.3696  0.1254  1.1505
 1004MOL0     H35478  11.171   7.826   3.955 -2.1736 -1.1493  0.5826
 1004MOL0     H35479  11.324   7.950   3.833  2.1537 -0.2761 -1.8614
 1004MOL0     H35480  11.413   7.790   3.795  1.9076 -0.9393  1.8318
 1004MOL0     H35481  11.348   7.900   4.061  0.2773  1.3051  0.1137
 1004MOL0     H35482  11.425   7.749   4.020 -0.5212  0.7804  0.1215
 1004MOL0     H35483  11.628   7.881   3.924 -0.8629  2.0657 -2.7249
 1004MOL0     H35484  11.543   8.032   3.956 -0.1657  1.0385  1.1602
 1004MOL0     H35485  11.511   7.940   4.201  0.9632 -1.2662  0.5039
 1004MOL0     H35486  11.651   7.840   4.162  1.7780 -1.2866 -3.2410
 1004MOL0     H35487  11.632   8.124   4.222  0.1182  0.7196  0.1746
 1004MOL0     H35488  11.730   8.098   4.076 -0.7923  2.1082  0.4995
 1004MOL0     H35489  11.852   8.103   4.313  3.6997 -1.9798  2.1899
 1004MOL0     H35490  11.763   7.951   4.343 -2.1741 -1.5008 -3.1448
 1004MOL0     H35491  11.984   8.047   4.014  0.7934  0.4462  0.1842
 1004MOL0     H35492  12.085   7.741   3.881 -1.7728 -0.2778  3.6096
 1004MOL0     H35493  12.151   7.910   3.871  0.5527  0.5819  1.9573
 1004MOL0     H35494  12.343   7.864   4.005 -1.5032 -0.2964  2.4299
 1004MOL0     H35495  12.280   7.708   4.036  0.1015  1.3704  0.9691
 1004MOL0     H35496  12.377   7.812   3.761  0.9374  0.6041  1.1432
 1004MOL0     H35497  12.329   7.640   3.805  3.3265 -1.8548  1.1353
 1004MOL0     H35498  12.542   7.813   3.930  4.1014 -1.5406 -0.1091
 1004MOL0     H35499  12.590   7.694   3.807  0.6586  1.5571  0.3929
 1004MOL0     H35500  12.745   7.778   3.995 -0.4325 -0.4471  0.7918
 1004MOL0     H35501  12.953   7.734   4.116 -0.6039 -0.4570 -1.1299
 1004MOL0     H35502  13.066   7.273   4.530  1.6699 -1.8040  0.8308
 1004MOL0     H35503  13.273   7.227   4.637  3.1758  1.4881  1.1774
 1004MOL0     H35504  13.641   7.364   4.476 -3.3454  0.2218 -2.5800
 1004MOL0     H35505  13.533   7.404   4.608  0.3700  1.1861 -1.5090
 1004MOL0     H35506  13.624   7.198   4.728  1.6376 -0.0551  2.9006
 1004MOL0     H35507  13.751   7.184   4.619 -0.3247  0.5580 -0.0031
 1004MOL0     H35508  13.799   7.439   4.707 -0.7424 -0.8540 -1.4818
 1004MOL0     H35509  13.704   7.362   4.841  0.9181  0.9412  0.7338
 1004MOL0     H35510  13.971   7.307   4.703  2.0852 -0.2679  0.9333
 1004MOL0     H35511  13.886   7.184   4.817  3.3315  0.4097 -0.1921
 1004MOL0     H35512  13.884   7.395   4.979  0.7552  2.2503 -0.2047
 1004MOL0     H35513  14.007   7.445   4.862  0.3272  0.2666 -1.4803
 1004MOL0     H35514  13.973   7.206   5.052 -2.0612  1.7022  0.1743
 1004MOL0     H35515  14.108   7.213   4.932  0.1494  0.4171  0.1778
 1004MOL0     H35516  14.048   7.409   5.153  0.0581  1.7022 -0.8776
 1004MOL0     H35517  14.166   7.435   5.023 -0.3784  0.1860 -0.1022
 1004MOL0     H35518  14.189   7.189   5.200  0.8508 -0.1140  0.5790
 1004MOL0     H35519  14.320   7.245   5.110 -0.5786  1.1791  1.0156
 1004MOL0     H35520  13.485   7.314   4.272 -0.4165 -2.4925 -0.1324
 1004MOL0     H35521  13.268   7.372   4.154 -0.1925  0.3494  1.2564
 1004MOL0     H35522  12.784   7.340   4.203 -2.3536 -0.8857 -0.4678
 1004MOL0     H35523  12.592   7.385   4.081 -0.1012  1.3417 -1.9025
 1004MOL0     H35524  10.930   7.637   3.561 -1.0005  2.1999  0.7151
 1004MOL0     H35525  10.818   7.393   3.585  0.8827 -3.5181  1.4417
 1004MOL0     H35526  10.681   7.030   3.663  1.4218 -1.2401  3.0009
 1004MOL0     H35527  10.552   6.823   3.686 -0.0881  0.7359 -1.2224
 1004MOL0     H35528  10.307   6.739   3.712  0.1726  1.9651 -0.4603
 1004MOL0     H35529  10.242   6.637   3.839 -0.8239  2.0690 -2.3391
 1004MOL0     H35530  10.539   6.620   3.771  0.0401  0.1410  0.7458
 1004MOL0     H35531  10.427   6.521   3.686 -3.2284  2.6202 -1.1968
 1004MOL0     H35532  10.345   6.450   3.939 -0.6977  2.5665 -0.0708
 1004MOL0     H35533  10.480   6.539   3.986 -2.4229  1.6106 -1.3442
 1004MOL0     H35534  10.519   6.288   3.808  1.0887 -2.1980  1.8764
 1004MOL0     H35535  10.632   6.408   3.830 -0.1363 -0.6678  0.1095
 1004MOL0     H35536  10.712   6.272   4.197 -0.3930  2.1158  1.2172
 1004MOL0     H35537  10.340   6.988   4.009  1.6618 -3.1492  0.6192
 1004MOL0     H35538  10.374   7.320   3.922  1.3935  0.8860 -0.1478
 1004MOL0     H35539  10.357   7.209   4.063  1.8377  0.1322  1.8147
 1004MOL0     H35540  10.508   7.292   4.037  0.7765  0.0969 -3.2157
 1005MOL0     O35541   7.067   3.540   9.134 -0.4681  0.5821 -0.0172
 1005MOL0     C35542   6.983   3.582   9.053 -0.5327  0.0206 -0.7979
 1005MOL0     O35543   6.865   3.515   9.030  0.1440 -0.0598  0.7066
 1005MOL0     C35544   6.797   3.452   9.138  0.0537 -0.2845  0.4354
 1005MOL0     C35545   6.751   3.317   9.127  0.0543 -0.3167 -0.7950
 1005MOL0     C35546   6.679   3.259   9.233 -0.1361 -0.5638 -0.9520
 1005MOL0     C35547   6.637   3.338   9.342  0.3519  0.1782  0.4614
 1005MOL0     O35548   6.552   3.281   9.428 -0.2024 -0.1009  0.7988
 1005MOL0     C35549   6.426   3.249   9.363 -0.5819  0.0674 -0.5954
 1005MOL0     C35550   6.307   3.313   9.422 -0.8792 -0.3346 -0.6163
 1005MOL0     C35551   6.302   3.457   9.378  0.2967 -0.1277  0.4117
 1005MOL0     C35552   6.160   3.518   9.421 -0.0235 -0.7303  0.0891
 1005MOL0     C35553   6.147   3.665   9.386  0.2650 -0.3269  1.0819
 1005MOL0     C35554   6.036   3.738   9.464  0.2023  0.2839  0.3437
 1005MOL0     C35555   6.036   3.884   9.451  0.0726 -0.2648 -0.3816
 1005MOL0     C35556   5.919   3.956   9.517 -0.0790  0.5542  0.5118
 1005MOL0     N35557   5.788   3.937   9.448 -0.1023  0.4033  0.1646
 1005MOL0     C35558   5.760   4.008   9.338  0.2796  0.1225  0.7476
 1005MOL0     C35559   5.638   3.959   9.308  0.9497  0.6012 -0.3666
 1005MOL0     C35560   5.556   4.028   9.198  0.0025  0.7054 -0.2420
 1005MOL0     C35561   5.432   3.952   9.147  0.2595 -0.6110 -0.4766
 1005MOL0     C35562   5.462   3.806   9.108 -0.4683  0.3539  0.2510
 1005MOL0     C35563   5.532   3.802   8.974  0.1478 -0.7262 -0.9986
 1005MOL0     O35564   5.574   3.670   8.934  0.4523 -0.5498  0.2821
 1005MOL0     C35565   5.705   3.656   8.949  0.2904 -0.3127  0.3749
 1005MOL0     C35566   5.787   3.712   9.045 -0.1175  0.5932  0.7360
 1005MOL0     C35567   5.927   3.690   9.044  0.6652 -0.1189 -0.8166
 1005MOL0     C35568   5.983   3.614   8.947 -0.0788 -0.2067  0.3254
 1005MOL0     C35569   6.122   3.594   8.938 -1.0636  0.2778 -0.1625
 1005MOL0     O35570   6.169   3.540   8.818 -0.0939  0.9773 -0.5473
 1005MOL0     C35571   6.295   3.485   8.801  0.0158 -0.6722  0.1338
 1005MOL0     C35572   6.405   3.519   8.884  0.0541  0.0925  0.3178
 1005MOL0     C35573   6.518   3.443   8.873  0.1040  0.7244 -0.2930
 1005MOL0     C35574   6.524   3.327   8.785 -0.6263 -0.1282 -0.6895
 1005MOL0     O35575   6.643   3.259   8.781 -0.0700 -0.1947  0.5017
 1005MOL0     C35576   6.681   3.179   8.670  0.1612 -0.0407  0.5272
 1005MOL0     C35577   6.830   3.164   8.678  1.0345 -0.0405  0.0671
 1005MOL0     C35578   6.877   3.040   8.604  0.5766 -0.8779 -0.5665
 1005MOL0     C35579   6.840   2.923   8.691  0.7618 -0.3026  0.2619
 1005MOL0     C35580   6.848   2.812   8.596 -0.0507  0.7559  0.0021
 1005MOL0     C35581   6.996   2.761   8.566  0.3602  0.6709  0.6690
 1005MOL0     C35582   7.099   2.761   8.679 -0.0674  0.3884 -0.8597
 1005MOL0     C35583   7.093   2.638   8.758  0.9775  0.0194  0.6801
 1005MOL0    Cl35584   7.231   2.627   8.869  0.0102 -0.4535 -0.4676
 1005MOL0     C35585   6.425   3.309   8.694  0.5633  0.8533  0.2676
 1005MOL0     C35586   6.305   3.382   8.705 -0.4509 -0.1473 -0.1400
 1005MOL0     O35587   6.197   3.615   9.037 -0.0148  0.1963 -0.7437
 1005MOL0     C35588   5.899   3.547   8.854 -0.1699 -0.2041  0.2809
 1005MOL0     C35589   5.770   3.565   8.861 -0.0713  0.1162  1.9187
 1005MOL0     N35590   5.595   3.873   9.409  0.8222 -0.3321 -0.4288
 1005MOL0     N35591   5.679   3.857   9.495  0.0906  0.1168 -0.7056
 1005MOL0     C35592   6.689   3.471   9.361  0.5940 -0.2514 -0.0550
 1005MOL0     C35593   6.764   3.520   9.254 -0.0480  0.1640  0.8633
 1005MOL0     C35594   7.004   3.695   8.967 -0.2974  0.3999 -0.3714
 1005MOL0     C35595   6.919   3.712   8.856 -0.5254  0.5705 -0.6256
 1005MOL0     C35596   6.948   3.813   8.760 -0.6669 -0.1621 -0.0913
 1005MOL0     C35597   7.038   3.907   8.788 -0.2590 -0.4237  0.1153
 1005MOL0     O35598   7.067   4.012   8.716 -1.3291 -0.3811  0.9084
 1005MOL0     C35599   7.033   4.014   8.580  0.3248 -0.2921 -0.3557
 1005MOL0     C35600   7.041   4.149   8.523  0.5029  0.6179  0.5033
 1005MOL0     C35601   7.181   4.211   8.523 -1.1410 -0.0910  0.4516
 1005MOL0     C35602   7.176   4.351   8.468 -0.7831 -1.0763  0.7948
 1005MOL0     C35603   7.308   4.416   8.451  0.5215  0.1120 -0.4376
 1005MOL0     C35604   7.424   4.451   8.436  0.3634 -0.7719 -0.0336
 1005MOL0     C35605   7.123   3.893   8.900  0.0800  0.6236 -0.4463
 1005MOL0     C35606   7.111   3.784   8.991 -0.1876  0.1831  0.3815
 1005MOL0     C35607   7.201   3.785   9.118 -0.4881 -0.3946  0.1981
 1005MOL0     H35608   6.780   3.262   9.038 -2.9366  2.3507 -3.6706
 1005MOL0     H35609   6.649   3.155   9.229  1.0836 -1.1018  1.6209
 1005MOL0     H35610   6.427   3.278   9.258 -0.9901  0.1441 -0.5795
 1005MOL0     H35611   6.425   3.139   9.362 -1.0268  0.0014  1.6735
 1005MOL0     H35612   6.300   3.299   9.530  1.7918  2.7650  0.1271
 1005MOL0     H35613   6.217   3.263   9.386  0.5439 -2.8432 -0.9756
 1005MOL0     H35614   6.304   3.456   9.269  0.8092 -0.4394  0.4214
 1005MOL0     H35615   6.381   3.516   9.426  0.3414 -0.5574  0.8710
 1005MOL0     H35616   6.077   3.470   9.369 -0.8236  1.9998 -1.3637
 1005MOL0     H35617   6.134   3.518   9.527  1.9260  0.3243  0.6008
 1005MOL0     H35618   6.239   3.721   9.402 -1.0918  2.5640 -0.2797
 1005MOL0     H35619   6.136   3.674   9.277  1.7934 -0.1323  0.9342
 1005MOL0     H35620   5.941   3.708   9.419  0.9566 -2.0263  0.1942
 1005MOL0     H35621   6.026   3.712   9.570  0.7039 -2.1832 -0.1477
 1005MOL0     H35622   6.047   3.904   9.344 -3.9856 -2.9116 -1.5122
 1005MOL0     H35623   6.132   3.920   9.490 -0.8505  1.9528  0.0016
 1005MOL0     H35624   5.892   3.928   9.620 -3.7045  1.5209 -0.0231
 1005MOL0     H35625   5.933   4.064   9.509 -0.0104  0.6166  1.3178
 1005MOL0     H35626   5.816   4.087   9.289  3.0194 -0.8801  2.0595
 1005MOL0     H35627   5.528   4.126   9.239  0.0137  1.6747 -2.3992
 1005MOL0     H35628   5.616   4.047   9.108 -0.8452 -0.5512 -1.0959
 1005MOL0     H35629   5.367   3.942   9.235  0.0510  2.6277 -0.1622
 1005MOL0     H35630   5.375   3.997   9.065 -1.4452  1.1831  1.5474
 1005MOL0     H35631   5.368   3.752   9.097  0.6992 -2.3145  2.3314
 1005MOL0     H35632   5.515   3.752   9.187 -0.2519  0.4320  0.1606
 1005MOL0     H35633   5.613   3.875   8.965 -0.7896  0.6441  1.0975
 1005MOL0     H35634   5.455   3.836   8.904  1.5728  0.8136 -1.9113
 1005MOL0     H35635   5.739   3.791   9.101 -2.2651  1.0035 -1.5212
 1005MOL0     H35636   5.985   3.731   9.126 -2.0374  0.0591  1.1425
 1005MOL0     H35637   6.404   3.603   8.952  1.3953 -1.4878  2.4205
 1005MOL0     H35638   6.592   3.479   8.943 -2.7626  1.7205  2.4740
 1005MOL0     H35639   6.626   3.085   8.678 -1.3857  0.6740 -0.9754
 1005MOL0     H35640   6.651   3.223   8.574 -1.5446 -2.3140 -0.0609
 1005MOL0     H35641   6.871   3.250   8.625 -1.3519  0.8593 -0.4360
 1005MOL0     H35642   6.877   3.160   8.776  0.8024  1.7926  0.2855
 1005MOL0     H35643   6.813   3.035   8.515 -2.3682 -0.1385  1.3816
 1005MOL0     H35644   6.983   3.054   8.580 -0.1798  2.0886 -2.6804
 1005MOL0     H35645   6.740   2.935   8.733 -0.0652  2.4988 -2.1684
 1005MOL0     H35646   6.900   2.901   8.781  0.3276 -1.5116  0.2702
 1005MOL0     H35647   6.793   2.828   8.502 -0.9739  2.9354  0.8500
 1005MOL0     H35648   6.796   2.732   8.649  0.3569  2.4905  3.2905
 1005MOL0     H35649   6.990   2.665   8.515  1.9597  0.8573  0.0647
 1005MOL0     H35650   7.041   2.824   8.488  1.1525 -0.9347 -0.2228
 1005MOL0     H35651   7.093   2.851   8.739  1.8696 -1.3154  2.1487
 1005MOL0     H35652   7.196   2.765   8.628  1.5493 -2.3481  1.6280
 1005MOL0     H35653   6.998   2.648   8.811 -0.2303  0.5892 -1.4807
 1005MOL0     H35654   7.099   2.561   8.681  0.3809  1.2448 -0.6213
 1005MOL0     H35655   6.426   3.237   8.612 -4.4680 -0.7723  1.2647
 1005MOL0     H35656   6.225   3.360   8.636  0.6438 -3.5614 -0.5329
 1005MOL0     H35657   5.943   3.475   8.787 -0.4247 -0.6700  0.6098
 1005MOL0     H35658   5.693   3.505   8.813 -1.6718  1.8381  2.2017
 1005MOL0     H35659   6.664   3.525   9.451  1.6700  1.9575 -1.0141
 1005MOL0     H35660   6.816   3.613   9.274  0.6386  0.1080 -0.5244
 1005MOL0     H35661   6.845   3.636   8.832 -2.8460  2.4564  0.1384
 1005MOL0     H35662   6.892   3.814   8.668 -0.9495 -0.0519  0.0813
 1005MOL0     H35663   6.928   3.988   8.563  0.2388  1.5679 -3.5394
 1005MOL0     H35664   7.101   3.950   8.524  1.9039  1.4105 -0.4799
 1005MOL0     H35665   6.981   4.213   8.588  1.4732  1.9707  0.1024
 1005MOL0     H35666   7.015   4.143   8.417  0.5943  1.9264  0.3927
 1005MOL0     H35667   7.226   4.148   8.446 -2.0019 -0.3934  0.1734
 1005MOL0     H35668   7.229   4.218   8.621 -0.8881 -1.1890  0.4216
 1005MOL0     H35669   7.137   4.346   8.366  1.1258  1.6125 -0.1871
 1005MOL0     H35670   7.111   4.416   8.527 -1.0357 -1.0037  0.4445
 1005MOL0     H35671   7.525   4.483   8.418  1.5983 -4.2198  0.1616
 1005MOL0     H35672   7.194   3.975   8.905 -0.9730  1.6689 -1.6641
 1005MOL0     H35673   7.154   3.767   9.215 -1.4614  0.2405 -0.1367
 1005MOL0     H35674   7.293   3.729   9.097  1.9915  2.5319  2.3459
 1005MOL0     H35675   7.232   3.890   9.118  0.2904 -0.6131 -0.5241
 1006MOL0     O35676   5.028   5.470   7.410  0.2410  0.2552 -0.0406
 1006MOL0     C35677   4.957   5.415   7.327 -1.1378 -0.7480 -0.9229
 1006MOL0     O35678   4.928   5.287   7.329  0.3884  0.4488 -0.4360
 1006MOL0     C35679   4.913   5.237   7.449  0.5249  0.5554  0.1910
 1006MOL0     C35680   4.785   5.241   7.512  0.0799 -0.6565 -0.2334
 1006MOL0     C35681   4.769   5.172   7.632  0.2121  0.3836 -1.2222
 1006MOL0     C35682   4.883   5.118   7.696  0.3510  0.1479 -0.6072
 1006MOL0     O35683   4.873   5.050   7.816  0.5160  0.4277 -0.5511
 1006MOL0     C35684   4.752   5.008   7.869  0.6624  0.1666 -0.2369
 1006MOL0     C35685   4.673   5.116   7.945 -0.2337  0.1752 -0.3251
 1006MOL0     C35686   4.589   5.062   8.060  0.3588 -0.1043 -0.1286
 1006MOL0     C35687   4.509   5.178   8.119 -0.7190 -0.4557  0.0318
 1006MOL0     C35688   4.394   5.123   8.203  0.5276  0.4410 -0.0182
 1006MOL0     C35689   4.280   5.087   8.101 -0.5319 -0.7189  0.6685
 1006MOL0     C35690   4.163   5.009   8.162  0.1825 -0.5959  0.1117
 1006MOL0     C35691   4.052   4.988   8.058 -0.0769  0.3399 -0.7475
 1006MOL0     N35692   3.992   5.110   8.013 -0.2118  0.0133 -0.2754
 1006MOL0     C35693   3.945   5.221   8.082  0.4835  0.4178  0.3498
 1006MOL0     C35694   3.901   5.300   7.986  0.0823  0.1321  0.0154
 1006MOL0     C35695   3.816   5.426   8.000 -0.3013 -0.6748  0.9005
 1006MOL0     C35696   3.924   5.535   8.021  0.0929 -0.4356  0.1156
 1006MOL0     C35697   3.861   5.653   8.093 -0.2852 -0.1214  0.0225
 1006MOL0     C35698   3.740   5.723   8.015  0.5858 -0.5368 -0.2652
 1006MOL0     O35699   3.721   5.852   8.087  0.2905 -0.1059  0.3447
 1006MOL0     C35700   3.619   5.932   8.046  0.7315  0.1449  0.2346
 1006MOL0     C35701   3.534   6.005   8.135 -1.4692 -0.1624  1.0625
 1006MOL0     C35702   3.431   6.086   8.086  0.1279  0.7958  1.0843
 1006MOL0     C35703   3.400   6.094   7.953 -0.2659 -0.1118  0.2955
 1006MOL0     C35704   3.300   6.184   7.898 -0.1335  0.7629 -0.2648
 1006MOL0     O35705   3.253   6.158   7.766 -0.0042 -0.2980  0.2099
 1006MOL0     C35706   3.166   6.259   7.717  0.7429  0.4001  0.0317
 1006MOL0     C35707   3.025   6.232   7.699  0.0392 -0.1302 -0.2869
 1006MOL0     C35708   2.942   6.318   7.648  0.8588  0.2383 -0.7049
 1006MOL0     C35709   2.983   6.452   7.623 -0.0664 -0.0645 -0.6326
 1006MOL0     O35710   2.896   6.532   7.556 -0.4720 -0.0978 -0.3748
 1006MOL0     C35711   2.858   6.650   7.633  0.2431  0.2785  0.1938
 1006MOL0     C35712   2.928   6.777   7.598 -0.0496  0.6408 -0.5443
 1006MOL0     C35713   2.922   6.822   7.450  0.1887 -1.0188 -0.9614
 1006MOL0     C35714   2.953   6.972   7.443  0.0205  0.2807 -0.3792
 1006MOL0     C35715   2.949   7.017   7.300 -0.9190  0.0761  0.8096
 1006MOL0     C35716   2.955   7.167   7.305 -0.7746 -0.2317  0.6441
 1006MOL0     C35717   2.815   7.224   7.328  0.1010  0.3524  0.7946
 1006MOL0     C35718   2.819   7.369   7.376 -0.0707  0.6721  0.3608
 1006MOL0    Cl35719   2.684   7.452   7.300  0.1776  0.0384  0.4915
 1006MOL0     C35720   3.119   6.495   7.658  0.6925  0.7246 -0.5724
 1006MOL0     C35721   3.210   6.394   7.691 -0.0533 -0.4851  0.2141
 1006MOL0     O35722   3.247   6.269   7.981  0.4134  0.7430  0.6152
 1006MOL0     C35723   3.474   6.016   7.863  0.3188 -0.2114 -0.0972
 1006MOL0     C35724   3.582   5.943   7.916 -0.8248  0.4672  1.4900
 1006MOL0     N35725   3.934   5.250   7.856 -0.5138  0.2918 -0.2831
 1006MOL0     N35726   3.982   5.136   7.880 -0.5275 -0.1628 -0.0671
 1006MOL0     C35727   5.006   5.114   7.640 -0.2468  0.0235 -0.3333
 1006MOL0     C35728   5.025   5.181   7.513  0.5151  0.7269  0.2481
 1006MOL0     C35729   4.907   5.492   7.217  0.5963 -0.8363  0.2363
 1006MOL0     C35730   4.767   5.511   7.220 -0.1091  0.4259  1.1505
 1006MOL0     C35731   4.704   5.585   7.120  0.7685  1.1380 -0.1810
 1006MOL0     C35732   4.783   5.651   7.026 -1.1256 -0.0670 -0.4371
 1006MOL0     O35733   4.726   5.751   6.950  0.6755  0.6856  0.2118
 1006MOL0     C35734   4.785   5.881   6.974  0.1244 -0.1517  0.8910
 1006MOL0     C35735   4.698   5.987   6.896  1.1801 -0.6938  0.0517
 1006MOL0     C35736   4.689   5.953   6.752  0.1657  0.4384  0.2612
 1006MOL0     C35737   4.579   6.032   6.682  0.1046  0.5462 -0.8798
 1006MOL0     C35738   4.602   6.176   6.656  0.0025 -0.2513  0.2056
 1006MOL0     C35739   4.626   6.293   6.635 -0.3482 -0.1377  0.4441
 1006MOL0     C35740   4.922   5.633   7.018  0.4327  0.2125  0.2953
 1006MOL0     C35741   4.985   5.547   7.108  0.2173  0.3566 -1.3321
 1006MOL0     C35742   5.131   5.527   7.105  0.0524 -0.1786  0.4452
 1006MOL0     H35743   4.711   5.299   7.459  1.3448  2.0508  0.7920
 1006MOL0     H35744   4.668   5.169   7.672  1.1216 -0.3596  1.1791
 1006MOL0     H35745   4.694   4.967   7.786  1.5422 -3.1996  0.6416
 1006MOL0     H35746   4.765   4.927   7.941 -0.1293  0.8377  0.6816
 1006MOL0     H35747   4.619   5.186   7.880  1.2863  0.9737 -0.7919
 1006MOL0     H35748   4.744   5.190   7.983 -0.5352 -0.2436  1.1398
 1006MOL0     H35749   4.661   5.021   8.132 -1.5254 -1.6144  0.9974
 1006MOL0     H35750   4.529   4.974   8.037 -1.1748  0.4341  1.6033
 1006MOL0     H35751   4.586   5.228   8.179 -0.5011 -0.9225  0.1443
 1006MOL0     H35752   4.472   5.247   8.042  0.6590  0.8530  0.5072
 1006MOL0     H35753   4.417   5.032   8.261  1.3329  1.2172  0.9201
 1006MOL0     H35754   4.365   5.207   8.267 -0.9967  0.4315 -0.6538
 1006MOL0     H35755   4.243   5.182   8.062  1.9606  0.3615  0.7786
 1006MOL0     H35756   4.315   5.027   8.016 -0.7849  0.3198 -0.1972
 1006MOL0     H35757   4.124   5.071   8.244  0.5426  0.2212 -0.3266
 1006MOL0     H35758   4.201   4.911   8.194  1.7232 -0.0997 -0.1141
 1006MOL0     H35759   4.103   4.932   7.979  2.1449  1.7714 -0.4277
 1006MOL0     H35760   3.971   4.931   8.104  0.0183  1.0736  0.3587
 1006MOL0     H35761   3.939   5.243   8.188  1.2308 -0.1960  0.5257
 1006MOL0     H35762   3.771   5.436   7.901  3.3807  2.5216 -0.6932
 1006MOL0     H35763   3.741   5.447   8.078  1.8533  3.9157  2.1242
 1006MOL0     H35764   4.011   5.498   8.077  2.5082  2.0256 -1.7496
 1006MOL0     H35765   3.958   5.564   7.921  2.1275 -0.2352  0.8125
 1006MOL0     H35766   3.932   5.727   8.129  1.5107 -1.5269 -0.5058
 1006MOL0     H35767   3.817   5.611   8.184  1.6044 -1.5594  0.3214
 1006MOL0     H35768   3.651   5.660   8.014 -1.1275  1.7257 -1.3026
 1006MOL0     H35769   3.754   5.741   7.908 -0.6092  1.0882 -0.1959
 1006MOL0     H35770   3.562   6.006   8.240 -1.0174  3.9559  1.0354
 1006MOL0     H35771   3.369   6.131   8.163 -0.5896  0.1364  0.9047
 1006MOL0     H35772   2.976   6.138   7.722  1.2651 -0.5837  0.5175
 1006MOL0     H35773   2.842   6.289   7.618  0.6621 -1.1269  1.1466
 1006MOL0     H35774   2.752   6.663   7.609  0.3254  0.5332 -0.0473
 1006MOL0     H35775   2.860   6.641   7.742 -0.2848 -0.7013  0.1366
 1006MOL0     H35776   2.872   6.850   7.657 -2.3396 -0.9809 -0.5570
 1006MOL0     H35777   3.031   6.782   7.634  0.9045  3.6161 -3.2463
 1006MOL0     H35778   2.989   6.766   7.385  0.6944  0.9880 -2.2778
 1006MOL0     H35779   2.820   6.810   7.411  0.0027 -0.9262 -0.5082
 1006MOL0     H35780   3.044   6.984   7.503 -0.6581  2.3478  0.3129
 1006MOL0     H35781   2.871   7.021   7.496 -0.7841  1.8840 -2.8890
 1006MOL0     H35782   2.865   6.983   7.238 -0.9534  1.4258  0.0708
 1006MOL0     H35783   3.032   6.974   7.244 -1.4549 -1.6153  1.2703
 1006MOL0     H35784   3.038   7.205   7.366 -1.8522 -0.5167  2.3651
 1006MOL0     H35785   2.974   7.170   7.198 -1.4373 -2.1708  0.4310
 1006MOL0     H35786   2.760   7.181   7.413  0.6596  1.1133  1.5508
 1006MOL0     H35787   2.769   7.214   7.229  2.8606  2.0037 -0.7728
 1006MOL0     H35788   2.824   7.380   7.484 -1.0065 -0.6810  0.5719
 1006MOL0     H35789   2.907   7.421   7.338 -0.4556  2.0258  1.2813
 1006MOL0     H35790   3.144   6.599   7.641  0.1491  0.4380 -3.6227
 1006MOL0     H35791   3.312   6.418   7.719 -0.6424  0.9807  1.2203
 1006MOL0     H35792   3.447   6.027   7.758 -2.5108  4.3342  0.8472
 1006MOL0     H35793   3.649   5.899   7.842 -0.1190  5.1020 -1.0106
 1006MOL0     H35794   5.091   5.067   7.688  0.8343  2.1006 -0.1433
 1006MOL0     H35795   5.119   5.168   7.460  0.0236 -2.3275 -0.0368
 1006MOL0     H35796   4.710   5.454   7.292 -1.3254 -0.7432 -0.6393
 1006MOL0     H35797   4.596   5.594   7.126 -0.0124 -4.4403 -1.1505
 1006MOL0     H35798   4.883   5.887   6.925 -0.2062 -0.1407  0.2208
 1006MOL0     H35799   4.800   5.901   7.080 -3.8031 -2.4553  2.0639
 1006MOL0     H35800   4.733   6.090   6.908  0.3311 -0.4106  0.1910
 1006MOL0     H35801   4.593   5.994   6.928  0.9596  0.7579 -0.8643
 1006MOL0     H35802   4.664   5.847   6.745  0.7640  0.1762  1.7723
 1006MOL0     H35803   4.784   5.975   6.703 -0.1632 -1.6786 -1.4736
 1006MOL0     H35804   4.560   5.980   6.588  1.3186 -2.6236  0.4802
 1006MOL0     H35805   4.488   6.020   6.742 -0.3969  1.6054 -1.3950
 1006MOL0     H35806   4.660   6.395   6.626  1.1245 -0.6121  0.3253
 1006MOL0     H35807   4.983   5.682   6.942 -1.8547 -0.4768 -2.1533
 1006MOL0     H35808   5.170   5.533   7.207  1.6025  2.8590 -0.1922
 1006MOL0     H35809   5.146   5.429   7.059 -1.2454 -0.5804  0.8577
 1006MOL0     H35810   5.179   5.607   7.047 -1.4583  0.3272 -0.1465
 1007MOL0     O35811  11.219   5.477   8.951  0.5280  0.5408  0.7572
 1007MOL0     C35812  11.265   5.584   8.905  0.6308 -0.0137 -0.2708
 1007MOL0     O35813  11.400   5.623   8.905 -0.3567 -0.7135  0.2442
 1007MOL0     C35814  11.490   5.524   8.945 -0.2778 -0.6604 -0.0329
 1007MOL0     C35815  11.565   5.446   8.858 -0.1891 -0.9872  0.1039
 1007MOL0     C35816  11.639   5.339   8.897 -0.4101  1.1150  0.5918
 1007MOL0     C35817  11.651   5.300   9.028  0.6580  0.3213 -0.0118
 1007MOL0     O35818  11.716   5.188   9.091 -0.4958 -0.8342  0.2849
 1007MOL0     C35819  11.777   5.096   8.995 -0.4972  0.8376 -0.5402
 1007MOL0     C35820  11.823   4.971   9.074 -0.5947 -0.1709  0.0632
 1007MOL0     C35821  11.902   4.996   9.204 -0.7102 -0.1878 -0.7542
 1007MOL0     C35822  11.940   4.873   9.284  0.2133 -0.8365  0.0471
 1007MOL0     C35823  11.816   4.820   9.363  0.7084 -0.0018  0.2099
 1007MOL0     C35824  11.840   4.697   9.444  0.5215  0.0299  0.1811
 1007MOL0     C35825  11.707   4.639   9.494 -0.2912  0.0723 -0.7960
 1007MOL0     C35826  11.726   4.499   9.562 -0.2127  0.0245 -0.4043
 1007MOL0     N35827  11.590   4.446   9.554  0.1817 -0.1091 -0.5182
 1007MOL0     C35828  11.474   4.460   9.633 -0.0418  0.1098  0.5241
 1007MOL0     C35829  11.368   4.400   9.577  0.2494 -0.2185 -0.5088
 1007MOL0     C35830  11.229   4.367   9.632  0.1299  0.1193  0.4209
 1007MOL0     C35831  11.210   4.231   9.695 -0.1293  0.1983  0.7643
 1007MOL0     C35832  11.080   4.201   9.758  0.3113 -0.5245  0.6243
 1007MOL0     C35833  10.959   4.211   9.657 -0.5753 -0.7680 -0.0016
 1007MOL0     O35834  10.974   4.136   9.531  0.4789  0.4846  0.8319
 1007MOL0     C35835  10.964   3.995   9.510 -0.2912 -0.9760 -0.5298
 1007MOL0     C35836  11.033   3.947   9.397  0.7471  0.7473 -1.0026
 1007MOL0     C35837  11.044   3.813   9.387  0.5203  1.2573  1.1648
 1007MOL0     C35838  10.983   3.721   9.486 -0.3290 -0.2467  0.4381
 1007MOL0     C35839  10.990   3.576   9.461  0.4836 -0.0582  0.3960
 1007MOL0     O35840  11.031   3.542   9.334  0.0310 -0.1359 -0.5796
 1007MOL0     C35841  11.041   3.412   9.304 -0.6527  0.7270  0.5497
 1007MOL0     C35842  10.934   3.325   9.311  0.3942 -0.1470  0.0743
 1007MOL0     C35843  10.937   3.197   9.269 -0.6010  0.0264  0.3011
 1007MOL0     C35844  11.060   3.134   9.218  0.2529 -0.3256 -0.2778
 1007MOL0     O35845  11.049   3.009   9.169 -0.3939 -0.4900 -0.9190
 1007MOL0     C35846  11.161   2.913   9.188 -0.0071  0.4394 -0.1043
 1007MOL0     C35847  11.118   2.769   9.174 -0.2169  0.7489 -0.3309
 1007MOL0     C35848  11.235   2.673   9.165  1.1122 -0.0804 -0.4192
 1007MOL0     C35849  11.183   2.538   9.216 -0.2547 -0.6185  0.5389
 1007MOL0     C35850  11.273   2.421   9.173  0.7818 -0.1208 -0.6646
 1007MOL0     C35851  11.201   2.283   9.167 -1.0587  0.2758  0.1073
 1007MOL0     C35852  11.172   2.234   9.312  0.6175 -0.2662  1.2778
 1007MOL0     C35853  11.292   2.189   9.379  0.0388  0.3175  0.1733
 1007MOL0    Cl35854  11.242   2.137   9.546  0.2103 -0.0105 -0.1275
 1007MOL0     C35855  11.178   3.220   9.213 -0.7450  0.3606 -0.1944
 1007MOL0     C35856  11.159   3.348   9.260 -0.0678 -0.3335 -0.6224
 1007MOL0     O35857  10.960   3.493   9.553 -0.3236 -0.2124  0.5795
 1007MOL0     C35858  10.922   3.774   9.601  0.0779  0.4210 -0.0316
 1007MOL0     C35859  10.896   3.907   9.606 -1.5618  0.3245  0.0948
 1007MOL0     N35860  11.428   4.350   9.453  0.6242  1.0528  0.1408
 1007MOL0     N35861  11.547   4.387   9.437  0.7179  0.0645 -0.0681
 1007MOL0     C35862  11.586   5.375   9.121  0.0767 -1.0546  0.1164
 1007MOL0     C35863  11.513   5.490   9.080  0.7252 -0.2014  0.4301
 1007MOL0     C35864  11.167   5.677   8.842 -0.3153 -0.1780  0.2752
 1007MOL0     C35865  11.221   5.786   8.787 -0.2804  0.4925  0.0432
 1007MOL0     C35866  11.137   5.873   8.719 -0.2224 -0.7072 -0.1115
 1007MOL0     C35867  11.005   5.852   8.710 -0.9334  0.4739 -0.7835
 1007MOL0     O35868  10.921   5.942   8.652 -0.6299  0.7518 -0.0488
 1007MOL0     C35869  10.940   6.086   8.676 -0.0195 -0.0120 -0.7292
 1007MOL0     C35870  10.838   6.158   8.594  0.4200 -0.5077  0.6822
 1007MOL0     C35871  10.832   6.307   8.615  0.6493  0.3903 -0.0628
 1007MOL0     C35872  10.754   6.385   8.503  0.7604 -0.0694 -0.0654
 1007MOL0     C35873  10.610   6.380   8.518  0.4394 -1.1980 -0.3702
 1007MOL0     C35874  10.487   6.377   8.511  0.7092 -0.3984  0.1077
 1007MOL0     C35875  10.941   5.741   8.760  0.6452 -0.0753 -0.2206
 1007MOL0     C35876  11.022   5.650   8.830  0.2852 -0.1464  1.0630
 1007MOL0     C35877  10.928   5.549   8.896 -0.0883  0.7215  0.0935
 1007MOL0     H35878  11.560   5.470   8.752  0.5835 -0.0270  0.2742
 1007MOL0     H35879  11.701   5.279   8.830 -2.3067 -0.7063  0.3344
 1007MOL0     H35880  11.702   5.076   8.918 -0.8483  1.2528 -0.3120
 1007MOL0     H35881  11.864   5.140   8.946 -0.5849  3.2408  1.2472
 1007MOL0     H35882  11.875   4.900   9.010 -0.8571  0.0819 -0.4447
 1007MOL0     H35883  11.730   4.923   9.107 -1.5206  0.3605 -1.6311
 1007MOL0     H35884  11.844   5.066   9.266  0.3921 -0.3365  0.4861
 1007MOL0     H35885  11.993   5.047   9.173 -1.6595  2.4258  0.4832
 1007MOL0     H35886  11.974   4.798   9.211 -2.0035 -2.7024  0.8248
 1007MOL0     H35887  12.033   4.890   9.340  1.4995 -2.1299 -1.5872
 1007MOL0     H35888  11.771   4.891   9.434 -0.3719 -0.3247 -0.1316
 1007MOL0     H35889  11.739   4.797   9.289  1.5894  2.9376 -1.7858
 1007MOL0     H35890  11.895   4.634   9.372  0.2499  1.3130 -1.2045
 1007MOL0     H35891  11.899   4.721   9.533 -0.3624 -2.5415  1.5249
 1007MOL0     H35892  11.642   4.628   9.406 -3.2921  4.6897  0.5155
 1007MOL0     H35893  11.648   4.702   9.561 -0.2118 -1.5391  0.8695
 1007MOL0     H35894  11.790   4.427   9.510 -0.7547  1.5823 -3.4509
 1007MOL0     H35895  11.766   4.506   9.664  0.9676 -3.3745 -0.5194
 1007MOL0     H35896  11.467   4.514   9.726  0.6373  1.5360 -0.2297
 1007MOL0     H35897  11.211   4.446   9.705  0.2606  0.7039 -0.1615
 1007MOL0     H35898  11.153   4.388   9.556  0.0718 -0.1593  0.4026
 1007MOL0     H35899  11.228   4.158   9.616 -2.5373  0.6821 -0.3353
 1007MOL0     H35900  11.287   4.205   9.768  2.8793 -2.5297 -3.0193
 1007MOL0     H35901  11.060   4.277   9.834  2.9151  1.4117 -0.4630
 1007MOL0     H35902  11.081   4.098   9.795 -1.3297 -0.6811  0.3071
 1007MOL0     H35903  10.954   4.316   9.625  2.2057 -0.5152  0.0819
 1007MOL0     H35904  10.868   4.186   9.711  1.4419 -3.6726  2.4175
 1007MOL0     H35905  11.091   4.015   9.335  0.9227 -0.2491 -1.9609
 1007MOL0     H35906  11.109   3.780   9.307 -0.9397  0.6002  0.2164
 1007MOL0     H35907  10.843   3.372   9.346  1.4020  0.7711  1.5879
 1007MOL0     H35908  10.847   3.136   9.262 -0.8796  0.5697 -1.4943
 1007MOL0     H35909  11.230   2.936   9.106 -0.3517  0.2642 -0.4511
 1007MOL0     H35910  11.223   2.927   9.277  0.2463 -2.5048  0.2656
 1007MOL0     H35911  11.054   2.754   9.261  1.3299  1.1596  0.9144
 1007MOL0     H35912  11.049   2.753   9.090 -1.2126 -1.8159  0.8818
 1007MOL0     H35913  11.290   2.681   9.071  1.8304  1.6287  0.0967
 1007MOL0     H35914  11.301   2.711   9.244 -2.1622  0.0116  2.5602
 1007MOL0     H35915  11.080   2.525   9.180  0.2394 -2.1937 -0.3866
 1007MOL0     H35916  11.170   2.535   9.324 -1.7211  0.3046  0.4276
 1007MOL0     H35917  11.353   2.420   9.247  1.3814 -0.8610 -1.3113
 1007MOL0     H35918  11.311   2.436   9.071 -0.1870 -1.3438 -1.2389
 1007MOL0     H35919  11.107   2.283   9.111 -0.9815 -1.5805 -0.0868
 1007MOL0     H35920  11.273   2.213   9.124  0.5436  1.8052  0.2137
 1007MOL0     H35921  11.090   2.163   9.315  1.7277 -1.5539  2.3840
 1007MOL0     H35922  11.132   2.324   9.360  0.5089  1.1773 -1.3469
 1007MOL0     H35923  11.326   2.103   9.321 -1.5533 -1.7618  2.1372
 1007MOL0     H35924  11.369   2.267   9.374 -0.5059  0.8260 -0.7053
 1007MOL0     H35925  11.272   3.183   9.172 -0.7237 -0.1932  0.3334
 1007MOL0     H35926  11.241   3.419   9.260  0.0454 -0.4370  0.5453
 1007MOL0     H35927  10.872   3.708   9.671  2.1255 -2.4670 -1.1231
 1007MOL0     H35928  10.856   3.930   9.704  1.2035 -3.2279  2.2996
 1007MOL0     H35929  11.589   5.335   9.222  0.9448 -5.8551 -1.5678
 1007MOL0     H35930  11.458   5.550   9.152  0.9512  0.8083 -0.2151
 1007MOL0     H35931  11.325   5.817   8.779 -0.3257  0.3690 -1.4388
 1007MOL0     H35932  11.177   5.954   8.660 -0.4076 -2.7883 -3.3702
 1007MOL0     H35933  11.039   6.112   8.637  0.1962 -0.2579 -0.3607
 1007MOL0     H35934  10.945   6.120   8.780  2.1481  1.2251 -1.1725
 1007MOL0     H35935  10.740   6.117   8.620 -0.7982  1.8742  0.1558
 1007MOL0     H35936  10.856   6.139   8.488 -1.1698  1.5421 -0.0362
 1007MOL0     H35937  10.936   6.340   8.624  1.9202 -2.6022 -1.9636
 1007MOL0     H35938  10.777   6.324   8.707  1.3095  2.6862 -0.0365
 1007MOL0     H35939  10.781   6.491   8.511 -1.5162  0.4922  0.9944
 1007MOL0     H35940  10.782   6.343   8.406  0.3643 -2.0191  0.6318
 1007MOL0     H35941  10.381   6.388   8.509  0.6511 -0.8616  0.3556
 1007MOL0     H35942  10.833   5.743   8.755  0.6470  1.0025 -0.1950
 1007MOL0     H35943  10.904   5.463   8.833  0.9958  0.2220  0.3258
 1007MOL0     H35944  10.977   5.525   8.991 -1.1930  1.3967  0.8461
 1007MOL0     H35945  10.840   5.602   8.930  1.4745  2.0726  2.2669
 1008MOL0     O35946   0.490  10.255  10.315  0.0164 -0.7076 -0.4355
 1008MOL0     C35947   0.513  10.145  10.370  0.5471  0.2429 -0.5157
 1008MOL0     O35948   0.584  10.128  10.493 -0.2618 -0.0702 -0.1319
 1008MOL0     C35949   0.638  10.250  10.542  0.1374 -0.6004 -0.3563
 1008MOL0     C35950   0.577  10.329  10.646  0.4827  0.5035 -0.6447
 1008MOL0     C35951   0.645  10.435  10.697  0.2171  0.0779 -0.7006
 1008MOL0     C35952   0.759  10.488  10.646  0.3667  0.3424 -0.1832
 1008MOL0     O35953   0.819  10.606  10.691  0.0865 -0.0319 -0.0530
 1008MOL0     C35954   0.746  10.685  10.781 -0.1837  0.6620 -0.2514
 1008MOL0     C35955   0.830  10.814  10.795 -0.7863 -0.2428 -0.2028
 1008MOL0     C35956   0.970  10.778  10.850 -0.6353 -0.5454  0.6573
 1008MOL0     C35957   1.066  10.907  10.872  1.5585  1.0561 -0.3545
 1008MOL0     C35958   1.197  10.866  10.934 -1.1837  0.4499 -1.1685
 1008MOL0     C35959   1.312  10.969  10.913 -0.1081  0.3621  0.0238
 1008MOL0     C35960   1.398  10.972  11.035  0.3815 -0.3399 -0.5187
 1008MOL0     C35961   1.492  10.847  11.054 -0.1126 -0.5329 -0.2946
 1008MOL0     N35962   1.562  10.824  10.929  1.1876  0.5653  0.3070
 1008MOL0     C35963   1.664  10.904  10.889 -0.1428  0.7867 -0.3859
 1008MOL0     C35964   1.700  10.867  10.761  0.1632 -0.1127  0.4476
 1008MOL0     C35965   1.810  10.929  10.681  0.1288  0.0246  0.5504
 1008MOL0     C35966   1.763  11.066  10.623  0.5878 -0.3796 -0.0845
 1008MOL0     C35967   1.862  11.143  10.551 -0.1030  0.2892 -0.3694
 1008MOL0     C35968   1.835  11.287  10.517 -0.2214  0.2995  0.5482
 1008MOL0     O35969   1.961  11.357  10.473  0.0226  0.2475  0.1224
 1008MOL0     C35970   1.968  11.490  10.442 -0.0740  1.2637  1.0883
 1008MOL0     C35971   1.883  11.586  10.489  0.2645  0.2354  0.3533
 1008MOL0     C35972   1.909  11.723  10.473  0.1757 -0.0973  0.3827
 1008MOL0     C35973   2.029  11.762  10.410  1.0344 -0.3051 -1.2384
 1008MOL0     C35974   2.066  11.911  10.407  0.0521  0.6807 -0.1813
 1008MOL0     O35975   2.015  11.984  10.494  0.6810  0.3083  0.2357
 1008MOL0     C35976   2.074  12.100  10.524  0.3763 -1.1430 -0.7771
 1008MOL0     C35977   2.206  12.150  10.496  0.9953  0.3657 -0.3621
 1008MOL0     C35978   2.261  12.267  10.542  0.3216 -0.1278 -0.6320
 1008MOL0     C35979   2.176  12.354  10.617  0.4759  0.7758  0.7681
 1008MOL0     O35980   2.217  12.477  10.655  0.2112 -0.2490 -0.3427
 1008MOL0     C35981   2.339  12.497  10.731 -0.1596  0.9874 -0.3631
 1008MOL0     C35982   2.326  12.449  10.880 -0.2569 -0.2132 -0.3591
 1008MOL0     C35983   2.463  12.429  10.956  0.2736  0.6384 -0.3009
 1008MOL0     C35984   2.547  12.550  10.987  0.7747 -0.5538  0.6685
 1008MOL0     C35985   2.642  12.527  11.102  0.1643  0.4594  0.2297
 1008MOL0     C35986   2.759  12.430  11.061 -0.1272 -0.5069  0.2318
 1008MOL0     C35987   2.835  12.385  11.183  0.3719  0.6403 -0.5205
 1008MOL0     C35988   2.754  12.307  11.292  0.3685  0.3123 -0.8242
 1008MOL0    Cl35989   2.883  12.212  11.386  0.2174  0.0750  0.2649
 1008MOL0     C35990   2.048  12.312  10.651 -0.3713  0.2194 -0.3298
 1008MOL0     C35991   1.997  12.198  10.591 -0.2957  0.7650  0.3275
 1008MOL0     O35992   2.140  11.947  10.309  0.1897  0.2677 -1.3473
 1008MOL0     C35993   2.120  11.664  10.356  0.0309 -0.5722  0.4559
 1008MOL0     C35994   2.087  11.530  10.371  0.6550  0.1369 -0.2849
 1008MOL0     N35995   1.615  10.758  10.737  0.0931  0.2819  0.1571
 1008MOL0     N35996   1.529  10.728  10.834  0.3068 -0.2075 -0.8344
 1008MOL0     C35997   0.821  10.412  10.551 -0.0094  0.1948  0.3818
 1008MOL0     C35998   0.761  10.295  10.500 -0.0804  0.6505  0.4474
 1008MOL0     C35999   0.456  10.022  10.316  0.3473  0.7465 -0.5420
 1008MOL0     C36000   0.449   9.903  10.401 -0.6400  0.7218  0.0935
 1008MOL0     C36001   0.420   9.782  10.340  0.1146  0.0456  0.2210
 1008MOL0     C36002   0.382   9.761  10.205 -0.1796 -0.1627  0.2925
 1008MOL0     O36003   0.343   9.639  10.150  0.1110  0.1772 -0.3559
 1008MOL0     C36004   0.450   9.544  10.149  0.1758  1.1269 -0.3395
 1008MOL0     C36005   0.386   9.405  10.182 -0.2845  0.0505  1.3426
 1008MOL0     C36006   0.455   9.285  10.096 -0.3126 -0.2013 -0.9344
 1008MOL0     C36007   0.580   9.234  10.168 -0.0587  0.7548  0.0301
 1008MOL0     C36008   0.640   9.134  10.076  0.3958 -0.1288  1.1957
 1008MOL0     C36009   0.685   9.051  10.008 -0.5088  1.2486 -0.3169
 1008MOL0     C36010   0.383   9.877  10.133  0.4152 -0.2350  0.3538
 1008MOL0     C36011   0.424  10.006  10.178  0.3396 -0.3994 -0.3209
 1008MOL0     C36012   0.406  10.125  10.087  0.6270  0.3410  0.5140
 1008MOL0     H36013   0.482  10.291  10.684 -0.1592 -0.5941 -3.1250
 1008MOL0     H36014   0.602  10.480  10.786  1.9891 -4.3944  2.7996
 1008MOL0     H36015   0.646  10.705  10.741  0.3242  3.7188 -0.1971
 1008MOL0     H36016   0.741  10.639  10.880 -1.8051 -1.9630 -1.4440
 1008MOL0     H36017   0.779  10.894  10.850 -1.0367 -1.8692  2.0677
 1008MOL0     H36018   0.846  10.861  10.697 -1.2483  0.8313  0.2173
 1008MOL0     H36019   1.017  10.693  10.799 -0.4848 -0.5102  0.7388
 1008MOL0     H36020   0.957  10.750  10.955 -1.5432 -1.1852  0.3960
 1008MOL0     H36021   1.080  10.965  10.780 -0.4413  1.9542 -0.1507
 1008MOL0     H36022   1.028  10.991  10.931  0.8805  0.5405 -0.0529
 1008MOL0     H36023   1.166  10.848  11.037  0.1981  0.7359 -0.6810
 1008MOL0     H36024   1.237  10.772  10.894  0.6468  1.5951 -2.1609
 1008MOL0     H36025   1.364  10.958  10.818 -0.4619  2.4550 -0.4503
 1008MOL0     H36026   1.272  11.070  10.904  1.2137  0.8588 -0.5561
 1008MOL0     H36027   1.332  10.974  11.122 -0.4569 -1.1263 -1.1075
 1008MOL0     H36028   1.454  11.066  11.029  2.4728 -1.4823 -0.0662
 1008MOL0     H36029   1.554  10.855  11.144 -2.9085 -1.9699  1.9433
 1008MOL0     H36030   1.440  10.755  11.082 -2.9741  1.4578  1.5799
 1008MOL0     H36031   1.697  10.992  10.942 -0.4676  0.1653  0.8972
 1008MOL0     H36032   1.907  10.937  10.730  1.5109 -0.2397 -1.9340
 1008MOL0     H36033   1.815  10.860  10.596 -2.6470  1.5494 -1.0148
 1008MOL0     H36034   1.690  11.052  10.543  3.4207  2.6653 -3.5863
 1008MOL0     H36035   1.715  11.119  10.706  1.1451 -1.5280  1.0071
 1008MOL0     H36036   1.883  11.089  10.458 -1.5207  1.6594 -1.5189
 1008MOL0     H36037   1.948  11.146  10.620 -0.4383 -0.4909  0.0942
 1008MOL0     H36038   1.801  11.327  10.613  0.5641  0.3887  0.7938
 1008MOL0     H36039   1.747  11.299  10.453 -0.1010 -0.0554  0.3115
 1008MOL0     H36040   1.801  11.545  10.547  3.9495 -5.9538  2.0552
 1008MOL0     H36041   1.832  11.790  10.510  0.1616  1.0870 -1.6561
 1008MOL0     H36042   2.282  12.094  10.443  1.8821 -1.8751  2.9173
 1008MOL0     H36043   2.352  12.314  10.508  0.7471 -0.4245  0.0613
 1008MOL0     H36044   2.417  12.442  10.677 -0.5646 -0.6252  0.6301
 1008MOL0     H36045   2.377  12.599  10.722 -0.5361  0.9797 -2.6537
 1008MOL0     H36046   2.272  12.522  10.941  0.5376 -1.2313  1.6548
 1008MOL0     H36047   2.273  12.353  10.881  1.4373 -1.2035 -0.9394
 1008MOL0     H36048   2.436  12.364  11.040 -2.7256  0.8391 -1.0021
 1008MOL0     H36049   2.525  12.375  10.885 -2.5021 -1.0785 -1.5555
 1008MOL0     H36050   2.480  12.636  10.997 -1.4138 -1.6035 -3.2206
 1008MOL0     H36051   2.606  12.576  10.899 -2.3992  3.7662 -0.5158
 1008MOL0     H36052   2.566  12.484  11.168 -0.2194  0.0740 -0.4503
 1008MOL0     H36053   2.685  12.619  11.142  0.3372  0.4492  0.0664
 1008MOL0     H36054   2.717  12.339  11.016  1.9949 -1.1587 -0.5280
 1008MOL0     H36055   2.816  12.482  10.983 -3.3999 -0.3022 -2.2566
 1008MOL0     H36056   2.876  12.477  11.227  1.3442 -0.1074  0.1878
 1008MOL0     H36057   2.912  12.309  11.162  2.3397  1.3921  3.0983
 1008MOL0     H36058   2.707  12.371  11.367 -1.4118 -2.0864  0.2675
 1008MOL0     H36059   2.687  12.229  11.253 -0.0039 -0.5621  1.4324
 1008MOL0     H36060   1.978  12.374  10.705  0.9404  1.5488 -0.1135
 1008MOL0     H36061   1.894  12.165  10.604  0.6022 -2.0977  0.7136
 1008MOL0     H36062   2.215  11.692  10.310  0.2741  0.1101  1.3454
 1008MOL0     H36063   2.143  11.447  10.329  0.2264 -1.0968  1.5039
 1008MOL0     H36064   0.917  10.430  10.504 -0.0553  1.9082  0.8697
 1008MOL0     H36065   0.811  10.235  10.425 -0.6864  2.1576 -1.2575
 1008MOL0     H36066   0.484   9.898  10.503 -0.4857  0.2356  0.0173
 1008MOL0     H36067   0.412   9.693  10.402  2.4574 -1.7663 -1.9025
 1008MOL0     H36068   0.527   9.579  10.219  1.1662  0.7685 -1.2251
 1008MOL0     H36069   0.498   9.543  10.051  0.4056 -2.0080 -0.3032
 1008MOL0     H36070   0.279   9.410  10.162  0.0663  1.3240 -0.4113
 1008MOL0     H36071   0.396   9.387  10.289 -0.2146 -1.0939  1.1580
 1008MOL0     H36072   0.490   9.328  10.002  0.0374 -1.5422 -1.4433
 1008MOL0     H36073   0.383   9.204  10.078 -0.4193 -0.2053 -0.4939
 1008MOL0     H36074   0.652   9.316  10.176  1.1659 -0.1671 -1.1084
 1008MOL0     H36075   0.564   9.204  10.272 -1.9269 -2.7791 -1.1244
 1008MOL0     H36076   0.731   8.981   9.941 -2.2923 -1.3909  1.0497
 1008MOL0     H36077   0.353   9.875  10.029  3.0862 -0.9621 -0.4795
 1008MOL0     H36078   0.323  10.192  10.111  1.4205  0.9342  1.6936
 1008MOL0     H36079   0.497  10.185  10.081 -0.1549  1.4885 -0.4709
 1008MOL0     H36080   0.374  10.088   9.989 -2.2148 -0.7617  1.7382
 1009MOL0     O36081   2.191  10.473   3.003 -0.4065 -0.6844  0.2161
 1009MOL0     C36082   2.163  10.485   3.122 -0.9229  0.4833 -0.2946
 1009MOL0     O36083   2.229  10.432   3.227 -0.1808  0.1378 -0.3158
 1009MOL0     C36084   2.324  10.340   3.202  1.0038  0.4752  0.1226
 1009MOL0     C36085   2.453  10.361   3.232 -0.9932  0.0800  0.3400
 1009MOL0     C36086   2.533  10.244   3.245 -0.5776 -0.1971 -1.1600
 1009MOL0     C36087   2.491  10.116   3.224 -0.1918  0.3636  0.0488
 1009MOL0     O36088   2.570   9.996   3.238  0.4746  0.2014 -0.6660
 1009MOL0     C36089   2.703  10.016   3.297  0.0055  0.2038  0.9644
 1009MOL0     C36090   2.821  10.027   3.195 -0.1350 -0.8514 -0.0242
 1009MOL0     C36091   2.956  10.075   3.238 -0.0665  0.1528 -0.5715
 1009MOL0     C36092   3.014   9.950   3.314 -0.3339 -1.3897 -0.1671
 1009MOL0     C36093   3.161   9.989   3.356 -0.4938 -0.6189  0.0232
 1009MOL0     C36094   3.184  10.107   3.442  0.2140  0.3487  0.5197
 1009MOL0     C36095   3.336  10.119   3.475 -0.0162  0.2535 -0.7059
 1009MOL0     C36096   3.376  10.242   3.566  0.7577  0.2595  0.0656
 1009MOL0     N36097   3.516  10.271   3.595 -0.1585  0.6845 -0.1042
 1009MOL0     C36098   3.621  10.243   3.506 -0.0819 -0.3635 -0.9333
 1009MOL0     C36099   3.737  10.275   3.577 -0.4089 -0.1372 -1.0716
 1009MOL0     C36100   3.883  10.260   3.535 -0.1477  0.2595 -0.3682
 1009MOL0     C36101   3.898  10.134   3.447 -0.5485  0.0136 -0.6818
 1009MOL0     C36102   3.891   9.995   3.513  0.0146 -0.4760 -0.0361
 1009MOL0     C36103   3.990   9.977   3.628 -0.5663  0.1211 -0.0290
 1009MOL0     O36104   3.993   9.843   3.667  0.6240  0.0366 -0.9413
 1009MOL0     C36105   4.106   9.775   3.713  0.1551 -0.4974  0.2626
 1009MOL0     C36106   4.097   9.639   3.747  0.7344 -0.1987 -0.2261
 1009MOL0     C36107   4.202   9.561   3.791 -0.7542 -0.0782 -0.0998
 1009MOL0     C36108   4.331   9.622   3.789 -0.2972 -1.4283 -0.7028
 1009MOL0     C36109   4.444   9.541   3.811  0.9300 -0.9182  0.0601
 1009MOL0     O36110   4.564   9.592   3.769  0.1227  0.5911  0.7381
 1009MOL0     C36111   4.666   9.502   3.775 -0.7867  0.3416 -0.9419
 1009MOL0     C36112   4.739   9.465   3.659  0.4786 -0.6908 -0.2276
 1009MOL0     C36113   4.857   9.398   3.662  1.0797 -0.2485  1.0613
 1009MOL0     C36114   4.923   9.377   3.787  0.9808 -0.5147  0.2442
 1009MOL0     O36115   5.046   9.324   3.807 -0.0842 -0.4929  0.4336
 1009MOL0     C36116   5.072   9.207   3.730  0.0093 -0.7302  0.1232
 1009MOL0     C36117   4.978   9.090   3.765  0.7456 -0.5552  0.1599
 1009MOL0     C36118   4.969   9.058   3.918  0.0131  0.7222  0.0578
 1009MOL0     C36119   5.102   9.015   3.979  0.6120 -0.6239  0.1911
 1009MOL0     C36120   5.089   8.999   4.130  0.5949 -0.5533 -0.1895
 1009MOL0     C36121   5.184   9.091   4.204  0.2643 -0.4349  0.6394
 1009MOL0     C36122   5.138   9.104   4.342 -1.0733 -0.4815 -0.6899
 1009MOL0     C36123   5.189   9.229   4.406  0.0063 -1.2419  0.7398
 1009MOL0    Cl36124   5.119   9.370   4.331 -0.4883  0.3486 -0.2127
 1009MOL0     C36125   4.861   9.436   3.891  0.6327 -0.2270 -0.0074
 1009MOL0     C36126   4.726   9.490   3.896  0.7381  0.0766 -0.1834
 1009MOL0     O36127   4.421   9.422   3.838 -0.4775  0.0122  0.3330
 1009MOL0     C36128   4.349   9.757   3.753  0.4340 -0.8673 -0.5784
 1009MOL0     C36129   4.241   9.826   3.703  0.8106 -1.0188  0.2572
 1009MOL0     N36130   3.693  10.336   3.691 -0.1415  0.5401 -0.1855
 1009MOL0     N36131   3.568  10.320   3.708  0.5723 -0.1925  1.3572
 1009MOL0     C36132   2.360  10.097   3.191 -0.6777 -0.0220  0.8028
 1009MOL0     C36133   2.275  10.210   3.183 -0.2378 -0.6859 -0.2090
 1009MOL0     C36134   2.045  10.563   3.140 -0.0467 -0.1966 -0.9431
 1009MOL0     C36135   1.935  10.508   3.216 -0.1526 -0.4844 -0.8092
 1009MOL0     C36136   1.810  10.569   3.224  0.0847  0.2050  0.0151
 1009MOL0     C36137   1.790  10.694   3.165 -0.1144 -0.0179 -1.2396
 1009MOL0     O36138   1.668  10.750   3.176  0.1289 -0.7991  0.7829
 1009MOL0     C36139   1.673  10.894   3.168  0.1181  0.5305  0.6606
 1009MOL0     C36140   1.566  10.946   3.261 -0.3550 -0.5949  0.3009
 1009MOL0     C36141   1.586  10.900   3.406 -0.0662  0.9236 -0.8734
 1009MOL0     C36142   1.450  10.901   3.484  0.1744  0.3472  0.2622
 1009MOL0     C36143   1.357  10.802   3.428  0.1123  0.1375 -0.6115
 1009MOL0     C36144   1.282  10.723   3.371 -0.4826  0.2389  0.8675
 1009MOL0     C36145   1.895  10.749   3.105  0.0129  0.0879 -1.1462
 1009MOL0     C36146   2.024  10.694   3.087 -0.1637  0.0229 -0.2968
 1009MOL0     C36147   2.139  10.761   3.010 -0.1696  0.3577 -0.2996
 1009MOL0     H36148   2.501  10.459   3.234  2.1512 -1.2569 -1.3497
 1009MOL0     H36149   2.636  10.258   3.277 -1.1283  0.9851  0.2062
 1009MOL0     H36150   2.703  10.085   3.381 -1.9172 -2.5376  3.4095
 1009MOL0     H36151   2.723   9.918   3.342 -1.7881 -0.7167 -0.1137
 1009MOL0     H36152   2.787  10.105   3.126 -0.3727 -1.3352 -0.4554
 1009MOL0     H36153   2.843   9.939   3.134  4.1330 -0.3957  0.5274
 1009MOL0     H36154   2.941  10.153   3.313 -1.4013 -0.7364  0.1288
 1009MOL0     H36155   3.025  10.112   3.161 -1.4527  2.3567 -0.8622
 1009MOL0     H36156   2.960   9.928   3.407  0.2999 -1.0322  0.2940
 1009MOL0     H36157   3.019   9.860   3.252 -1.4157 -2.3858  1.1335
 1009MOL0     H36158   3.197   9.900   3.407  1.0719 -0.2635 -0.3892
 1009MOL0     H36159   3.213  10.005   3.261  2.8008 -2.2854  1.3898
 1009MOL0     H36160   3.163  10.200   3.389  1.5767  1.0215  1.1184
 1009MOL0     H36161   3.132  10.098   3.538  3.8544  0.4736  2.6911
 1009MOL0     H36162   3.403  10.133   3.389  1.0123  1.6338  0.2773
 1009MOL0     H36163   3.360  10.027   3.528  0.2101  1.7067  1.8580
 1009MOL0     H36164   3.327  10.329   3.521 -2.8413 -1.0149  1.1077
 1009MOL0     H36165   3.330  10.228   3.664  2.0057 -3.6559  0.2619
 1009MOL0     H36166   3.614  10.195   3.409  1.2417 -3.5663  0.4257
 1009MOL0     H36167   3.924  10.347   3.483 -0.7453  1.8049  1.5880
 1009MOL0     H36168   3.942  10.248   3.627  1.6867 -0.6967 -1.6186
 1009MOL0     H36169   3.833  10.159   3.363 -2.4482  0.7136  0.9064
 1009MOL0     H36170   3.994  10.145   3.396  1.5852 -1.0507  2.7826
 1009MOL0     H36171   3.911   9.916   3.439 -0.0212  1.4498 -2.2327
 1009MOL0     H36172   3.798   9.982   3.569  0.7496  1.4130  1.7200
 1009MOL0     H36173   3.959  10.032   3.717 -0.1671 -1.7146  1.3094
 1009MOL0     H36174   4.088  10.015   3.597 -0.5674  0.4918  0.4146
 1009MOL0     H36175   3.995   9.600   3.749  0.0211  1.5471  2.0891
 1009MOL0     H36176   4.176   9.460   3.819  0.0635 -1.9632 -5.1804
 1009MOL0     H36177   4.678   9.482   3.571 -0.2119 -0.6076  0.2612
 1009MOL0     H36178   4.916   9.355   3.581 -3.9573 -3.0975 -1.5559
 1009MOL0     H36179   5.078   9.227   3.623 -0.0357  3.5300  0.7399
 1009MOL0     H36180   5.178   9.183   3.740  1.8579  3.8482 -4.2162
 1009MOL0     H36181   4.881   9.125   3.728  1.8152  2.5301  0.0504
 1009MOL0     H36182   5.002   8.995   3.716  1.0388 -1.9409  2.8181
 1009MOL0     H36183   4.932   9.149   3.966  0.9171  1.5258 -0.7556
 1009MOL0     H36184   4.903   8.973   3.938  2.2603 -1.6315 -1.8542
 1009MOL0     H36185   5.177   9.088   3.950  0.4696  0.8318  3.0703
 1009MOL0     H36186   5.112   8.914   3.939  3.8485 -0.0513 -0.6792
 1009MOL0     H36187   5.113   8.895   4.155 -0.9182 -0.7464  0.5650
 1009MOL0     H36188   4.986   9.018   4.159  1.4422  3.0320  0.9492
 1009MOL0     H36189   5.290   9.066   4.190 -0.3721 -2.2769 -1.2969
 1009MOL0     H36190   5.182   9.188   4.153  0.7175 -1.7935 -2.1046
 1009MOL0     H36191   5.169   9.022   4.407 -1.2698 -1.4964 -1.8439
 1009MOL0     H36192   5.029   9.111   4.351 -1.5064 -0.6026 -4.4070
 1009MOL0     H36193   5.155   9.229   4.511 -1.2467 -1.6524  0.3546
 1009MOL0     H36194   5.298   9.225   4.404  0.2121  1.4820  2.2575
 1009MOL0     H36195   4.919   9.431   3.982 -0.0030 -0.5851  0.3840
 1009MOL0     H36196   4.679   9.526   3.986  2.9489 -0.6270  1.3389
 1009MOL0     H36197   4.449   9.797   3.767  0.4213 -1.5065  1.8316
 1009MOL0     H36198   4.254   9.924   3.659  0.1295 -0.4565  1.2750
 1009MOL0     H36199   2.334   9.992   3.181  2.6546 -1.0092  1.2842
 1009MOL0     H36200   2.168  10.211   3.163 -0.5043  1.0090  1.0326
 1009MOL0     H36201   1.957  10.412   3.262 -1.1719  0.0524  0.9166
 1009MOL0     H36202   1.720  10.523   3.262 -0.3820  0.5452 -0.6627
 1009MOL0     H36203   1.664  10.940   3.070  0.6127 -0.1442  0.2904
 1009MOL0     H36204   1.765  10.929   3.215 -0.6003 -1.3951  3.8553
 1009MOL0     H36205   1.476  10.905   3.215  1.1929 -3.0523 -0.7812
 1009MOL0     H36206   1.555  11.054   3.267 -1.8597 -0.7106 -0.1757
 1009MOL0     H36207   1.663  10.960   3.456  0.0665 -1.7628  2.4872
 1009MOL0     H36208   1.631  10.801   3.413  0.3729  1.1352 -0.5692
 1009MOL0     H36209   1.470  10.881   3.590  2.3870  0.7346 -0.0239
 1009MOL0     H36210   1.415  11.004   3.486  0.4021  0.5187 -2.1722
 1009MOL0     H36211   1.235  10.632   3.338  0.4709  0.2304 -0.5737
 1009MOL0     H36212   1.888  10.847   3.059 -1.7187  0.7076  0.3347
 1009MOL0     H36213   2.110  10.866   3.001 -0.6256  0.3197  0.5650
 1009MOL0     H36214   2.237  10.765   3.059 -0.5412  0.8432  0.4237
 1009MOL0     H36215   2.160  10.728   2.908  0.8458  3.2297 -1.1322
 1010MOL0     O36216   8.276   7.871   5.052 -0.8072  0.4356  0.3926
 1010MOL0     C36217   8.338   7.776   5.103  0.9016 -0.1095 -0.3652
 1010MOL0     O36218   8.284   7.659   5.134 -0.1754 -0.5520 -0.7000
 1010MOL0     C36219   8.153   7.644   5.096  0.6182  0.2338  0.6753
 1010MOL0     C36220   8.050   7.691   5.175  0.4928  0.0367  0.4334
 1010MOL0     C36221   7.915   7.681   5.131  0.6159  1.2955  0.0177
 1010MOL0     C36222   7.878   7.600   5.020 -0.7073 -0.3827 -0.2901
 1010MOL0     O36223   7.742   7.583   4.986  0.0386 -0.1025  0.3520
 1010MOL0     C36224   7.700   7.449   4.956  0.1037 -0.2290 -0.0632
 1010MOL0     C36225   7.541   7.448   4.937  0.4799 -0.9406  0.1529
 1010MOL0     C36226   7.511   7.337   4.843  0.6172 -0.4656  0.3666
 1010MOL0     C36227   7.501   7.218   4.922  0.2756 -0.4355 -0.4382
 1010MOL0     C36228   7.457   7.109   4.831 -0.6242  0.1832  0.3547
 1010MOL0     C36229   7.498   6.971   4.887 -0.2177  0.3182 -0.3428
 1010MOL0     C36230   7.446   6.855   4.807 -0.7331  0.6028 -0.4487
 1010MOL0     C36231   7.393   6.733   4.892  0.0590  0.1287  0.1510
 1010MOL0     N36232   7.509   6.672   4.959 -0.2250 -0.2709  0.1626
 1010MOL0     C36233   7.627   6.614   4.913  0.2707  0.0536 -1.2222
 1010MOL0     C36234   7.692   6.568   5.026  0.3069  1.1456 -0.1917
 1010MOL0     C36235   7.819   6.488   5.032  0.4736 -0.0914 -0.3944
 1010MOL0     C36236   7.945   6.574   5.019  0.3393 -0.1015  0.9475
 1010MOL0     C36237   8.074   6.489   5.005 -0.4298  0.0706 -0.4760
 1010MOL0     C36238   8.187   6.581   4.970 -0.0336 -0.9782 -0.8011
 1010MOL0     O36239   8.156   6.644   4.841 -0.9147 -0.7020 -0.1156
 1010MOL0     C36240   8.242   6.748   4.807  0.1131 -0.1356  0.1595
 1010MOL0     C36241   8.192   6.852   4.732 -0.4943  0.1203  0.2449
 1010MOL0     C36242   8.279   6.954   4.687  1.0577 -0.1068 -0.5939
 1010MOL0     C36243   8.416   6.954   4.708 -0.7766  0.4761 -0.2704
 1010MOL0     C36244   8.510   7.050   4.653  0.3104 -0.6059 -1.1088
 1010MOL0     O36245   8.640   7.033   4.663 -0.1958  0.8978 -0.6747
 1010MOL0     C36246   8.733   7.109   4.599 -0.0333 -0.2549  0.4028
 1010MOL0     C36247   8.721   7.185   4.479  0.4988 -0.1116 -0.1741
 1010MOL0     C36248   8.834   7.244   4.426  0.1026 -0.5034 -0.1631
 1010MOL0     C36249   8.966   7.244   4.485  0.6214 -0.1804  0.5804
 1010MOL0     O36250   9.059   7.328   4.421  0.3043  0.1038  0.1584
 1010MOL0     C36251   9.197   7.290   4.394  0.2222  1.0725 -0.1246
 1010MOL0     C36252   9.238   7.383   4.281  0.0758  0.9928  1.0156
 1010MOL0     C36253   9.390   7.389   4.264 -0.1332  0.0498 -0.5016
 1010MOL0     C36254   9.450   7.289   4.167 -0.2053 -0.8861  0.0361
 1010MOL0     C36255   9.597   7.330   4.133 -0.0857  1.1704 -0.2530
 1010MOL0     C36256   9.662   7.218   4.056  0.4106 -0.3157  0.4684
 1010MOL0     C36257   9.806   7.259   4.050  0.5638 -0.1819  0.6772
 1010MOL0     C36258   9.893   7.156   3.990 -0.2960 -0.7665  0.1615
 1010MOL0    Cl36259  10.057   7.240   3.966 -0.2684 -0.1301 -0.0636
 1010MOL0     C36260   8.977   7.151   4.589  0.3907  0.2476 -0.1873
 1010MOL0     C36261   8.867   7.085   4.641  0.4966  0.4189  0.5857
 1010MOL0     O36262   8.453   7.155   4.621  0.1964 -0.7272  0.1192
 1010MOL0     C36263   8.462   6.852   4.794  0.1407  0.3092  0.2489
 1010MOL0     C36264   8.382   6.750   4.838  0.1554  1.1186  0.0444
 1010MOL0     N36265   7.612   6.609   5.129  0.4387  0.5419  0.2195
 1010MOL0     N36266   7.503   6.667   5.094 -0.1362  0.3247 -0.8361
 1010MOL0     C36267   7.982   7.540   4.951  0.9692 -0.6737 -0.2007
 1010MOL0     C36268   8.117   7.572   4.985  0.4924 -0.1519 -0.0048
 1010MOL0     C36269   8.480   7.794   5.124  0.1035 -0.1686  0.9168
 1010MOL0     C36270   8.557   7.893   5.055 -0.2016  0.3668 -0.5113
 1010MOL0     C36271   8.693   7.916   5.079  0.0100  0.2044  0.8609
 1010MOL0     C36272   8.755   7.843   5.182  0.5033  0.8046  0.6982
 1010MOL0     O36273   8.881   7.861   5.223  0.9374 -0.0249  0.3378
 1010MOL0     C36274   8.972   7.912   5.124 -0.4756 -0.3833 -0.0481
 1010MOL0     C36275   9.091   7.819   5.114 -0.2399 -0.4279 -0.0285
 1010MOL0     C36276   9.059   7.679   5.058  0.6311 -0.1182  0.7030
 1010MOL0     C36277   9.174   7.624   4.967 -0.6910  0.3520 -1.1285
 1010MOL0     C36278   9.130   7.515   4.887 -0.1602  0.2605  0.5934
 1010MOL0     C36279   9.106   7.406   4.834  0.0182 -0.3046 -0.6629
 1010MOL0     C36280   8.688   7.744   5.253  0.2621 -0.1204  0.0012
 1010MOL0     C36281   8.550   7.724   5.228 -1.4929  0.3125 -0.4975
 1010MOL0     C36282   8.500   7.605   5.304 -0.1731  0.5264 -0.0514
 1010MOL0     H36283   8.077   7.731   5.272 -1.9037  1.3836  0.6321
 1010MOL0     H36284   7.836   7.714   5.198 -2.2561 -4.8894  0.4248
 1010MOL0     H36285   7.739   7.418   4.859  0.6815  2.6582 -0.8658
 1010MOL0     H36286   7.740   7.372   5.023  0.6116 -0.8619 -1.0654
 1010MOL0     H36287   7.520   7.540   4.882 -4.3137 -0.0328  2.9605
 1010MOL0     H36288   7.482   7.469   5.027  1.7975  1.7201  0.5163
 1010MOL0     H36289   7.577   7.323   4.757 -2.2005 -0.3142 -1.9897
 1010MOL0     H36290   7.416   7.355   4.791  1.1628 -0.6052 -0.6967
 1010MOL0     H36291   7.603   7.199   4.957  0.8546 -1.6415 -2.6459
 1010MOL0     H36292   7.447   7.224   5.018  2.9799  1.1496  1.1099
 1010MOL0     H36293   7.348   7.117   4.821 -0.5229  2.6184  0.6173
 1010MOL0     H36294   7.487   7.122   4.727  1.9149 -2.9337  0.5454
 1010MOL0     H36295   7.607   6.979   4.893 -0.2291 -0.1230  3.6229
 1010MOL0     H36296   7.468   6.961   4.992 -1.3236  0.1447 -0.6691
 1010MOL0     H36297   7.512   6.823   4.725  2.5633 -0.2796  2.3072
 1010MOL0     H36298   7.356   6.901   4.766 -0.0608  2.0298 -0.3908
 1010MOL0     H36299   7.324   6.768   4.970  0.3687  0.1240  0.4282
 1010MOL0     H36300   7.352   6.660   4.821  1.7430 -1.0558  0.3522
 1010MOL0     H36301   7.672   6.621   4.814  1.8932 -1.0208 -0.5971
 1010MOL0     H36302   7.816   6.417   5.115  1.1624  0.8916  0.4991
 1010MOL0     H36303   7.824   6.424   4.943  3.4674  0.3777 -0.6578
 1010MOL0     H36304   7.931   6.632   4.927 -2.8312 -1.0158  0.7462
 1010MOL0     H36305   7.953   6.638   5.107 -1.4443 -2.0556  2.6323
 1010MOL0     H36306   8.071   6.424   4.918  2.0845  0.4256 -0.9124
 1010MOL0     H36307   8.095   6.428   5.094  4.0991 -0.5305 -1.6833
 1010MOL0     H36308   8.288   6.539   4.966  0.5649  0.4740 -2.0007
 1010MOL0     H36309   8.213   6.659   5.042 -0.6128 -0.2268 -1.3826
 1010MOL0     H36310   8.086   6.850   4.706 -1.1676  3.3034  2.1704
 1010MOL0     H36311   8.218   7.025   4.631 -2.7855 -3.6312 -1.4263
 1010MOL0     H36312   8.624   7.191   4.430 -1.3092 -0.4846  3.0878
 1010MOL0     H36313   8.811   7.280   4.326 -0.3100 -3.0285 -1.0495
 1010MOL0     H36314   9.262   7.299   4.481 -0.2714 -1.7131  0.6239
 1010MOL0     H36315   9.205   7.184   4.366 -2.0713  1.1049 -1.2083
 1010MOL0     H36316   9.202   7.342   4.186 -1.2305  2.1066  1.0061
 1010MOL0     H36317   9.192   7.482   4.288 -3.1797 -0.4146  1.3936
 1010MOL0     H36318   9.416   7.490   4.234 -2.4650  0.9750  0.3509
 1010MOL0     H36319   9.438   7.375   4.362 -2.5667  1.3943  0.9795
 1010MOL0     H36320   9.390   7.285   4.076  4.1705  1.5806 -3.3710
 1010MOL0     H36321   9.450   7.192   4.217  0.3753 -0.9347 -0.0494
 1010MOL0     H36322   9.642   7.354   4.230 -1.6762 -0.5391  0.9943
 1010MOL0     H36323   9.595   7.421   4.073  2.5063  1.3014 -0.2340
 1010MOL0     H36324   9.649   7.116   4.093 -2.6081 -0.1393  0.0866
 1010MOL0     H36325   9.619   7.203   3.957  0.0858 -2.9085  0.9334
 1010MOL0     H36326   9.844   7.286   4.149 -5.0163 -0.8294  3.3831
 1010MOL0     H36327   9.808   7.349   3.989  0.2186 -0.3021  0.4859
 1010MOL0     H36328   9.893   7.075   4.064  1.7639  1.0527  2.3387
 1010MOL0     H36329   9.865   7.117   3.892  1.0329  2.9365 -1.9112
 1010MOL0     H36330   9.072   7.127   4.636  0.8688  2.2004 -0.0435
 1010MOL0     H36331   8.868   7.025   4.732 -0.8629  2.6851  2.2106
 1010MOL0     H36332   8.565   6.853   4.829  1.0960 -0.2876 -2.3288
 1010MOL0     H36333   8.428   6.683   4.909 -0.8265  0.9687  0.5625
 1010MOL0     H36334   7.950   7.483   4.865  0.6363 -2.6259  1.1351
 1010MOL0     H36335   8.197   7.538   4.921  3.7186  1.9234  2.5935
 1010MOL0     H36336   8.505   7.950   4.978  2.2788  1.1035 -1.7294
 1010MOL0     H36337   8.741   8.000   5.030 -0.5734  0.2980  0.4351
 1010MOL0     H36338   9.000   8.011   5.161  0.4739 -0.5569 -0.2640
 1010MOL0     H36339   8.943   7.932   5.020 -0.6614  2.7007  0.5006
 1010MOL0     H36340   9.127   7.811   5.217  0.2717 -0.9901 -0.2467
 1010MOL0     H36341   9.173   7.867   5.061 -0.0281 -0.1721  0.5269
 1010MOL0     H36342   8.964   7.672   5.004  1.3352  2.2673 -1.0223
 1010MOL0     H36343   9.055   7.609   5.143  2.0115  1.7184  2.3673
 1010MOL0     H36344   9.220   7.702   4.906 -1.9660 -0.0471 -2.6792
 1010MOL0     H36345   9.254   7.598   5.036 -0.0639  5.2810  0.3768
 1010MOL0     H36346   9.091   7.304   4.803  2.1802 -1.0837  0.6052
 1010MOL0     H36347   8.735   7.688   5.333  0.1361 -2.8637 -1.7151
 1010MOL0     H36348   8.576   7.548   5.358 -1.5407 -1.2491  0.1013
 1010MOL0     H36349   8.423   7.648   5.369  0.5841  1.3478  0.3206
 1010MOL0     H36350   8.455   7.524   5.246 -2.1309 -1.2952  3.6280
 1011MOL0     O36351   8.355   8.038   4.456  0.1543 -0.0688 -0.9714
 1011MOL0     C36352   8.430   8.131   4.489 -0.5384 -1.0260 -0.6762
 1011MOL0     O36353   8.423   8.250   4.426 -0.4234  0.5032  0.6886
 1011MOL0     C36354   8.328   8.276   4.335 -0.1316  0.0834 -0.5648
 1011MOL0     C36355   8.365   8.334   4.206 -0.4592  0.0798 -0.1295
 1011MOL0     C36356   8.261   8.348   4.105 -0.2290  1.0775 -0.5742
 1011MOL0     C36357   8.126   8.323   4.128  0.1152  0.4538  0.1646
 1011MOL0     O36358   8.027   8.322   4.036  0.5687  0.6795 -0.0878
 1011MOL0     C36359   8.050   8.359   3.902 -0.1793  0.0068  0.5080
 1011MOL0     C36360   8.121   8.248   3.820  0.3082  0.0551  0.2240
 1011MOL0     C36361   8.127   8.285   3.669  0.9006  0.2669  0.2015
 1011MOL0     C36362   8.198   8.163   3.610  0.2900 -0.9023  0.0193
 1011MOL0     C36363   8.216   8.194   3.463  0.6905 -0.2437  1.1486
 1011MOL0     C36364   8.298   8.081   3.393 -0.1150 -0.7111 -0.3248
 1011MOL0     C36365   8.289   8.089   3.236 -0.8312 -0.3644  0.1276
 1011MOL0     C36366   8.150   8.097   3.171 -0.5852 -0.2619 -0.1911
 1011MOL0     N36367   8.151   8.097   3.026 -0.5078  1.2420 -0.2713
 1011MOL0     C36368   8.160   7.988   2.948 -0.2418  0.2102 -0.0334
 1011MOL0     C36369   8.183   8.045   2.830 -0.7762  0.0058  0.0713
 1011MOL0     C36370   8.213   7.970   2.703 -1.4534  0.0040  0.0316
 1011MOL0     C36371   8.362   7.970   2.682  0.1278  0.5768  0.5525
 1011MOL0     C36372   8.443   7.862   2.759  0.1014 -0.3220 -0.0385
 1011MOL0     C36373   8.601   7.886   2.767  0.0557  0.4342 -0.1168
 1011MOL0     O36374   8.656   7.866   2.638 -0.1952  0.3317  0.0665
 1011MOL0     C36375   8.749   7.767   2.638 -0.8680 -0.1889 -0.6690
 1011MOL0     C36376   8.881   7.778   2.688 -0.3760 -0.1434 -0.0767
 1011MOL0     C36377   8.983   7.685   2.655 -0.7875 -0.0628  0.0288
 1011MOL0     C36378   8.940   7.556   2.608  0.0277  0.1032  0.5845
 1011MOL0     C36379   9.033   7.447   2.592 -0.5074 -0.5062  0.7644
 1011MOL0     O36380   9.146   7.461   2.665  0.2382  0.5108 -0.5326
 1011MOL0     C36381   9.227   7.358   2.693  0.1965  0.3063  0.5037
 1011MOL0     C36382   9.281   7.366   2.821  0.1794 -0.7362 -0.8101
 1011MOL0     C36383   9.354   7.253   2.863 -0.3070 -0.4905  0.3152
 1011MOL0     C36384   9.376   7.137   2.789  0.3818  0.3280 -0.0977
 1011MOL0     O36385   9.452   7.030   2.834  0.0334  0.5116  0.2295
 1011MOL0     C36386   9.387   6.896   2.816 -0.3100  0.7025 -0.0227
 1011MOL0     C36387   9.432   6.805   2.927 -0.4510  0.3538 -0.3064
 1011MOL0     C36388   9.322   6.714   2.974 -0.4851  0.2333  1.1426
 1011MOL0     C36389   9.362   6.622   3.096 -0.7270 -0.7496  0.3476
 1011MOL0     C36390   9.456   6.505   3.065 -0.6352  0.0503 -0.6838
 1011MOL0     C36391   9.416   6.430   2.930  0.2754 -0.7573 -0.2970
 1011MOL0     C36392   9.491   6.293   2.944  0.5788  0.3106  0.9397
 1011MOL0     C36393   9.499   6.230   2.808 -0.2236 -0.2307 -0.5692
 1011MOL0    Cl36394   9.331   6.190   2.753 -0.1372  0.2741  0.2022
 1011MOL0     C36395   9.332   7.144   2.658 -0.1999 -0.2568 -0.7117
 1011MOL0     C36396   9.260   7.257   2.611  0.2634 -0.2201 -0.0093
 1011MOL0     O36397   9.000   7.350   2.525 -0.1004 -0.4268  0.2836
 1011MOL0     C36398   8.804   7.537   2.567  0.5819 -1.0864 -1.0689
 1011MOL0     C36399   8.719   7.652   2.574 -0.0110 -0.3591  0.7302
 1011MOL0     N36400   8.195   8.184   2.839  0.4111 -0.3890 -0.2598
 1011MOL0     N36401   8.159   8.207   2.954  0.5717 -0.1700  0.6805
 1011MOL0     C36402   8.091   8.285   4.267  0.6448  0.2032  0.0267
 1011MOL0     C36403   8.190   8.260   4.365 -0.8436  0.1477 -0.3748
 1011MOL0     C36404   8.541   8.107   4.580  1.2962 -0.0822  0.4264
 1011MOL0     C36405   8.632   8.200   4.599  0.8529 -0.1458  0.5025
 1011MOL0     C36406   8.736   8.175   4.683  1.1425 -0.5604 -0.2168
 1011MOL0     C36407   8.752   8.055   4.739 -0.7212  0.8298  0.4697
 1011MOL0     O36408   8.871   8.020   4.796  0.9072  0.2503  0.2287
 1011MOL0     C36409   8.978   7.987   4.708  0.1332 -0.7401 -0.8950
 1011MOL0     C36410   8.995   7.842   4.662 -0.0474  0.3230  0.1301
 1011MOL0     C36411   9.141   7.837   4.613  0.0607  0.2645 -0.7638
 1011MOL0     C36412   9.172   7.703   4.540 -0.6208 -0.7571  0.6606
 1011MOL0     C36413   9.312   7.695   4.480  0.7868 -1.0454  0.6462
 1011MOL0     C36414   9.419   7.679   4.420  0.6841 -0.2825 -0.4553
 1011MOL0     C36415   8.659   7.953   4.717  0.3441  0.2811 -0.2547
 1011MOL0     C36416   8.545   7.978   4.646  0.1692 -0.0043 -0.8590
 1011MOL0     C36417   8.447   7.861   4.655  0.2608 -0.3735 -0.2960
 1011MOL0     H36418   8.472   8.345   4.194  0.1890 -2.9800  1.7898
 1011MOL0     H36419   8.274   8.388   4.005 -1.2541 -0.2213 -1.2554
 1011MOL0     H36420   7.950   8.373   3.859  0.7434  0.6486 -1.5970
 1011MOL0     H36421   8.104   8.453   3.891 -2.4864  1.2277 -1.4340
 1011MOL0     H36422   8.072   8.152   3.836  0.6168 -0.0829  0.3427
 1011MOL0     H36423   8.221   8.238   3.863  1.2092  1.1202 -1.4822
 1011MOL0     H36424   8.179   8.380   3.656  1.7986 -0.5155 -2.6631
 1011MOL0     H36425   8.025   8.289   3.631  1.9803  2.0398 -2.7966
 1011MOL0     H36426   8.298   8.164   3.653  1.6731  1.3642 -2.8588
 1011MOL0     H36427   8.145   8.069   3.625  0.9896 -1.6367 -1.8255
 1011MOL0     H36428   8.116   8.194   3.418  0.2894  0.0771  2.0233
 1011MOL0     H36429   8.260   8.291   3.438 -2.1114 -0.0908 -4.9302
 1011MOL0     H36430   8.401   8.079   3.429 -0.7403  1.2346  1.8632
 1011MOL0     H36431   8.259   7.987   3.431 -0.7294 -0.4844 -0.3830
 1011MOL0     H36432   8.338   8.002   3.192 -0.5619  0.5108 -1.3792
 1011MOL0     H36433   8.354   8.168   3.198 -0.6825  0.4077  1.9030
 1011MOL0     H36434   8.085   8.023   3.220  1.2994 -2.8927 -1.3863
 1011MOL0     H36435   8.109   8.197   3.187  0.2592  0.3695 -1.7411
 1011MOL0     H36436   8.135   7.883   2.958 -0.1123  0.3493  2.3783
 1011MOL0     H36437   8.179   7.866   2.703 -0.6861 -0.4239 -3.9224
 1011MOL0     H36438   8.153   8.018   2.626 -4.7550 -0.0531  2.3543
 1011MOL0     H36439   8.386   7.953   2.576  0.0349  0.1837  0.5911
 1011MOL0     H36440   8.408   8.063   2.717 -0.0441 -0.1042  2.7362
 1011MOL0     H36441   8.405   7.764   2.729 -0.5547 -0.1635  0.2576
 1011MOL0     H36442   8.407   7.875   2.862 -2.8387 -2.8055 -0.5869
 1011MOL0     H36443   8.641   7.826   2.849 -4.0843  0.9405  2.5849
 1011MOL0     H36444   8.618   7.988   2.802  3.3282  0.0631 -0.3586
 1011MOL0     H36445   8.904   7.874   2.733 -0.4971 -0.6532  1.1178
 1011MOL0     H36446   9.087   7.701   2.682 -0.1692  0.9378 -2.5632
 1011MOL0     H36447   9.269   7.464   2.867  1.8585  0.8877 -3.4967
 1011MOL0     H36448   9.400   7.248   2.962  0.4201  1.3799  0.1045
 1011MOL0     H36449   9.278   6.905   2.826 -0.4465 -0.6560 -0.0927
 1011MOL0     H36450   9.393   6.855   2.714 -0.8603 -1.3567  0.7152
 1011MOL0     H36451   9.522   6.749   2.900 -2.2149 -3.0582  0.3200
 1011MOL0     H36452   9.470   6.863   3.011 -0.9216 -0.3265  0.3906
 1011MOL0     H36453   9.246   6.777   3.020 -0.3828  0.0092  1.6269
 1011MOL0     H36454   9.277   6.652   2.896 -3.1900  1.4379  1.6297
 1011MOL0     H36455   9.274   6.569   3.133 -0.2482 -2.7618 -1.2298
 1011MOL0     H36456   9.397   6.686   3.178 -0.5968 -2.2242  1.4768
 1011MOL0     H36457   9.464   6.440   3.152 -1.6604  0.2086 -0.4546
 1011MOL0     H36458   9.554   6.550   3.050  0.9662 -3.6440 -2.3540
 1011MOL0     H36459   9.307   6.423   2.933  0.1939  0.4970  0.4678
 1011MOL0     H36460   9.439   6.497   2.847  0.2185 -1.9661 -1.3315
 1011MOL0     H36461   9.430   6.222   3.000  1.0324  0.3017  1.4265
 1011MOL0     H36462   9.594   6.294   2.980  1.4000 -0.4964 -1.1872
 1011MOL0     H36463   9.543   6.297   2.734 -1.2563  1.9637  0.7025
 1011MOL0     H36464   9.549   6.134   2.822 -1.6522 -1.2245 -1.9518
 1011MOL0     H36465   9.353   7.058   2.595  4.3226 -1.2095  1.6712
 1011MOL0     H36466   9.224   7.258   2.509  1.9467 -2.8283 -0.7224
 1011MOL0     H36467   8.762   7.439   2.546 -0.3406 -1.3117  1.5203
 1011MOL0     H36468   8.613   7.631   2.561 -0.1264 -0.1303  1.2876
 1011MOL0     H36469   7.985   8.265   4.282  0.9446 -1.2877  0.3140
 1011MOL0     H36470   8.153   8.234   4.463  0.2736  0.8788  0.2642
 1011MOL0     H36471   8.612   8.301   4.564 -1.5382  0.2190  2.6198
 1011MOL0     H36472   8.806   8.253   4.713  0.4557  0.3644 -0.9582
 1011MOL0     H36473   9.065   8.013   4.769 -0.5009  0.3810 -0.4385
 1011MOL0     H36474   8.979   8.052   4.620  2.6499 -0.2589 -0.5729
 1011MOL0     H36475   8.922   7.836   4.581  0.0012 -0.4529  0.1381
 1011MOL0     H36476   8.982   7.771   4.744 -1.6801 -1.4084 -1.5427
 1011MOL0     H36477   9.215   7.850   4.693  1.0843 -0.9023 -1.4803
 1011MOL0     H36478   9.150   7.915   4.537 -0.2034  0.3008 -0.7576
 1011MOL0     H36479   9.150   7.613   4.599 -2.1280 -0.5411  0.4626
 1011MOL0     H36480   9.106   7.690   4.454 -1.5115 -0.0499  1.2182
 1011MOL0     H36481   9.518   7.663   4.381  0.1073 -2.0715 -1.2894
 1011MOL0     H36482   8.674   7.854   4.759  0.5842 -0.3064 -1.6709
 1011MOL0     H36483   8.426   7.807   4.562 -2.5279 -0.2635  0.1780
 1011MOL0     H36484   8.479   7.781   4.723  0.2096  1.2382  1.7067
 1011MOL0     H36485   8.344   7.889   4.678  0.5283  1.2654 -0.9682
 1012MOL0     O36486   7.818   8.791   1.534 -0.1270  0.1864  0.2749
 1012MOL0     C36487   7.919   8.777   1.464 -0.0659 -0.0404 -0.0776
 1012MOL0     O36488   8.010   8.677   1.486 -0.5295  0.1452  0.3857
 1012MOL0     C36489   7.993   8.584   1.577 -0.0680 -0.9783 -0.5993
 1012MOL0     C36490   7.877   8.510   1.557  0.1231  0.0549  0.5143
 1012MOL0     C36491   7.866   8.402   1.639  0.0449  0.4180  1.0243
 1012MOL0     C36492   7.959   8.370   1.744  0.4434  0.1966  0.4209
 1012MOL0     O36493   7.934   8.268   1.827  0.5475 -0.2586 -0.3102
 1012MOL0     C36494   8.003   8.153   1.802  0.3536  0.9968 -0.3834
 1012MOL0     C36495   7.937   8.019   1.852  1.1333  0.7371 -0.0363
 1012MOL0     C36496   7.796   7.982   1.804 -1.1876  0.6440 -0.2989
 1012MOL0     C36497   7.692   8.036   1.904  0.5610 -0.2050 -0.0869
 1012MOL0     C36498   7.558   8.068   1.832  0.8330 -0.2495  0.0556
 1012MOL0     C36499   7.447   8.071   1.943 -0.4612  0.5316  0.0990
 1012MOL0     C36500   7.309   8.059   1.883  0.3275 -0.7442  0.3562
 1012MOL0     C36501   7.279   8.202   1.826 -0.7480  0.6807  0.2058
 1012MOL0     N36502   7.150   8.195   1.739  0.4999 -0.0046  0.1417
 1012MOL0     C36503   7.142   8.183   1.598 -0.0761  0.1103  0.3541
 1012MOL0     C36504   7.005   8.170   1.577 -0.7612  0.2409  0.4669
 1012MOL0     C36505   6.920   8.161   1.449  0.3941 -0.1656  1.1714
 1012MOL0     C36506   6.974   8.247   1.326  0.1881 -0.1374 -0.8459
 1012MOL0     C36507   6.961   8.393   1.344 -0.2972 -0.1189  0.2511
 1012MOL0     C36508   6.983   8.466   1.209  0.2966  0.5854  0.2056
 1012MOL0     O36509   7.101   8.414   1.140 -0.5427  0.7202 -0.1002
 1012MOL0     C36510   7.088   8.434   1.005  0.5341  0.9205  0.2734
 1012MOL0     C36511   7.112   8.326   0.915  1.0743 -0.4684 -0.2376
 1012MOL0     C36512   7.106   8.344   0.776 -0.0962 -0.3804  0.0171
 1012MOL0     C36513   7.072   8.467   0.724  0.2894 -0.3693  0.1844
 1012MOL0     C36514   7.070   8.490   0.571  0.6379 -0.4122 -0.2374
 1012MOL0     O36515   7.050   8.623   0.524  0.4860  0.4649  0.1039
 1012MOL0     C36516   7.000   8.629   0.394  0.7326 -0.5886  0.2039
 1012MOL0     C36517   7.077   8.591   0.285 -0.5534  0.1901  0.7735
 1012MOL0     C36518   7.021   8.613   0.156 -0.6752  0.3664  0.4862
 1012MOL0     C36519   6.894   8.667   0.141 -0.3212 -0.1706  0.0546
 1012MOL0     O36520   6.832   8.685   0.025  0.1735 -0.2421  0.2687
 1012MOL0     C36521   6.912   8.685  -0.092  0.2015  0.0055  1.2466
 1012MOL0     C36522   6.829   8.762  -0.200 -0.5255  0.7466  0.2045
 1012MOL0     C36523   6.715   8.667  -0.255  0.3729  0.6367  0.0520
 1012MOL0     C36524   6.636   8.730  -0.365  0.0794 -0.5710 -0.1590
 1012MOL0     C36525   6.521   8.649  -0.427  0.0830  0.6872  0.1989
 1012MOL0     C36526   6.574   8.547  -0.520  0.5575 -0.3382  0.9231
 1012MOL0     C36527   6.474   8.446  -0.573 -0.0156 -0.1975  0.7933
 1012MOL0     C36528   6.539   8.342  -0.668  0.5153 -0.3975 -0.5244
 1012MOL0    Cl36529   6.608   8.427  -0.801  0.2202  0.1417  0.4832
 1012MOL0     C36530   6.820   8.694   0.252  0.3146 -0.2512 -0.5220
 1012MOL0     C36531   6.871   8.685   0.384 -0.7012 -0.7202  0.5127
 1012MOL0     O36532   7.094   8.393   0.504  0.4566 -0.2593 -0.6781
 1012MOL0     C36533   7.029   8.570   0.805  0.0717 -0.4018  0.2915
 1012MOL0     C36534   7.041   8.552   0.950 -0.3368 -0.3445  0.0117
 1012MOL0     N36535   6.941   8.166   1.700 -0.6310  0.0936 -0.0795
 1012MOL0     N36536   7.030   8.179   1.792 -0.0461 -0.6415  0.1727
 1012MOL0     C36537   8.066   8.458   1.761 -0.2986 -0.1605  0.1685
 1012MOL0     C36538   8.075   8.572   1.688  0.7658 -0.2329  0.6525
 1012MOL0     C36539   7.944   8.871   1.353  0.3971 -0.8003  0.1792
 1012MOL0     C36540   7.836   8.961   1.328 -0.1028  0.9049 -0.5798
 1012MOL0     C36541   7.854   9.053   1.219 -0.2282 -1.5807 -0.4012
 1012MOL0     C36542   7.969   9.062   1.140  0.3473 -0.9389 -0.3377
 1012MOL0     O36543   7.991   9.131   1.022 -0.2139  0.4318  0.1864
 1012MOL0     C36544   7.949   9.262   1.018  0.2667 -0.2445 -0.0357
 1012MOL0     C36545   8.066   9.346   1.069  0.4414 -0.0973 -0.6345
 1012MOL0     C36546   8.095   9.326   1.218 -0.8209 -0.8535  0.1869
 1012MOL0     C36547   8.209   9.428   1.251  0.8210  0.8267 -0.9115
 1012MOL0     C36548   8.338   9.355   1.233 -0.5404 -0.3492 -0.4537
 1012MOL0     C36549   8.446   9.303   1.202 -0.0153  0.1650 -0.3693
 1012MOL0     C36550   8.079   8.980   1.176  0.4966  0.0295  0.2799
 1012MOL0     C36551   8.063   8.884   1.283  0.1101 -0.2607 -0.5130
 1012MOL0     C36552   8.184   8.803   1.287 -1.0802 -0.5179  0.0660
 1012MOL0     H36553   7.806   8.535   1.479 -1.3992 -1.9089  1.1715
 1012MOL0     H36554   7.778   8.339   1.631  1.0003 -1.0753  1.7387
 1012MOL0     H36555   8.015   8.132   1.696 -0.3026  0.6910 -0.4020
 1012MOL0     H36556   8.105   8.161   1.843 -0.6509 -1.3042  3.0394
 1012MOL0     H36557   7.937   8.008   1.961  0.6143  3.7548  0.3521
 1012MOL0     H36558   7.993   7.938   1.804  0.6218  0.7343 -0.6426
 1012MOL0     H36559   7.796   7.879   1.768  3.2113 -0.6238  2.5108
 1012MOL0     H36560   7.787   8.036   1.710  0.9535 -1.5789 -1.8892
 1012MOL0     H36561   7.667   7.962   1.980 -1.3655  0.4076 -0.0671
 1012MOL0     H36562   7.729   8.126   1.954  1.7873 -0.0501 -1.2307
 1012MOL0     H36563   7.557   8.159   1.772  1.7821 -1.8081 -2.4986
 1012MOL0     H36564   7.531   7.993   1.756  2.5264 -1.1151  0.2441
 1012MOL0     H36565   7.458   7.975   1.995  0.3053  0.9280  0.6992
 1012MOL0     H36566   7.455   8.154   2.014  0.3014 -0.2551  0.9607
 1012MOL0     H36567   7.231   8.032   1.955 -2.1958  2.1808 -1.0734
 1012MOL0     H36568   7.308   7.982   1.805  1.0704  0.2041 -0.6174
 1012MOL0     H36569   7.251   8.277   1.900  0.4036  0.1331  1.2403
 1012MOL0     H36570   7.369   8.247   1.784  1.5641 -3.0707  0.5974
 1012MOL0     H36571   7.221   8.195   1.524  0.4042  1.8552  1.0790
 1012MOL0     H36572   6.927   8.058   1.414  0.2086  0.4033 -0.6608
 1012MOL0     H36573   6.817   8.184   1.477  0.0598 -2.8094  2.3798
 1012MOL0     H36574   7.079   8.224   1.304  1.1744  2.3342  0.7130
 1012MOL0     H36575   6.919   8.225   1.234 -0.4007 -0.4312 -0.4279
 1012MOL0     H36576   7.036   8.427   1.417 -0.8265 -1.1654  1.3342
 1012MOL0     H36577   6.863   8.412   1.388  0.8621  1.7042  2.2830
 1012MOL0     H36578   7.000   8.573   1.225 -0.3507  1.2657 -3.0569
 1012MOL0     H36579   6.894   8.443   1.151  0.2514 -1.1378  0.9135
 1012MOL0     H36580   7.152   8.232   0.952 -3.4878 -3.2001 -1.4643
 1012MOL0     H36581   7.131   8.262   0.709 -2.6546 -1.6980  0.5360
 1012MOL0     H36582   7.173   8.544   0.302  0.3231  1.0314 -1.5265
 1012MOL0     H36583   7.080   8.582   0.071  3.0960 -0.0633  3.0159
 1012MOL0     H36584   7.011   8.730  -0.088  1.3773 -2.1340 -0.9060
 1012MOL0     H36585   6.928   8.579  -0.117  0.3962  0.5904 -1.3574
 1012MOL0     H36586   6.779   8.849  -0.156 -0.7444 -0.3082  2.1412
 1012MOL0     H36587   6.892   8.787  -0.286  1.5242 -1.2978  1.0211
 1012MOL0     H36588   6.750   8.567  -0.284 -2.0403 -0.3155  0.1640
 1012MOL0     H36589   6.646   8.640  -0.175  0.2607  0.5562 -0.0723
 1012MOL0     H36590   6.714   8.754  -0.438  0.5152 -3.6906 -0.8586
 1012MOL0     H36591   6.593   8.824  -0.328  2.1640  0.5599 -0.4549
 1012MOL0     H36592   6.461   8.720  -0.484 -2.1188 -2.2311 -1.3479
 1012MOL0     H36593   6.451   8.600  -0.358 -3.2175  1.6596 -2.2226
 1012MOL0     H36594   6.607   8.608  -0.605 -2.0042  0.8634  0.7093
 1012MOL0     H36595   6.662   8.503  -0.472  1.0728  0.6183  0.8829
 1012MOL0     H36596   6.401   8.503  -0.631 -0.0593 -0.6450  0.4052
 1012MOL0     H36597   6.420   8.398  -0.490 -0.7592  0.1531  0.5250
 1012MOL0     H36598   6.615   8.292  -0.607 -1.5080  1.6366  4.1970
 1012MOL0     H36599   6.468   8.267  -0.705  1.0059 -0.1662 -1.9760
 1012MOL0     H36600   6.712   8.696   0.238  0.0649  3.0756  0.9226
 1012MOL0     H36601   6.807   8.706   0.470 -1.8350  0.3240 -0.5569
 1012MOL0     H36602   6.998   8.664   0.760 -0.9507 -0.4840  0.7712
 1012MOL0     H36603   7.018   8.640   1.010 -2.6481 -0.7455 -0.1785
 1012MOL0     H36604   8.146   8.444   1.833  1.8599  0.6342 -1.9627
 1012MOL0     H36605   8.153   8.646   1.706  0.0019  0.0616  2.9612
 1012MOL0     H36606   7.741   8.949   1.379 -0.4192 -1.3520 -1.5727
 1012MOL0     H36607   7.773   9.116   1.185 -0.8552 -2.2035 -0.0747
 1012MOL0     H36608   7.853   9.265   1.071 -0.6768 -4.2313 -1.1940
 1012MOL0     H36609   7.927   9.288   0.914  1.0657 -4.2251 -1.3484
 1012MOL0     H36610   8.039   9.451   1.052 -0.9251 -0.1551  0.8401
 1012MOL0     H36611   8.154   9.324   1.008  1.8861 -6.0661  2.7984
 1012MOL0     H36612   8.132   9.227   1.247 -0.8620 -0.8231  0.3395
 1012MOL0     H36613   8.002   9.347   1.270 -0.0484 -0.6691  1.5428
 1012MOL0     H36614   8.206   9.522   1.195 -0.7136  1.0807 -0.4600
 1012MOL0     H36615   8.199   9.446   1.358 -2.3907  1.6387 -1.2361
 1012MOL0     H36616   8.538   9.255   1.175  0.0940  0.2012 -0.0681
 1012MOL0     H36617   8.169   8.979   1.115  1.3576 -1.1687  1.5129
 1012MOL0     H36618   8.275   8.862   1.280 -2.2788  1.2023 -2.5643
 1012MOL0     H36619   8.196   8.723   1.361 -2.3846 -1.6068 -0.8481
 1012MOL0     H36620   8.177   8.747   1.194  2.3888  1.6688 -1.6915
 1013MOL0     O36621   8.755   5.319   8.070 -0.1569 -0.0585  0.5762
 1013MOL0     C36622   8.654   5.351   8.127 -0.1830 -0.9585  0.3167
 1013MOL0     O36623   8.642   5.397   8.252  0.2597  0.5329 -0.6313
 1013MOL0     C36624   8.749   5.365   8.336  0.3265  0.3641  0.4785
 1013MOL0     C36625   8.707   5.294   8.453 -0.0703 -0.1803 -0.9623
 1013MOL0     C36626   8.799   5.263   8.557  0.1020 -0.6874  0.1793
 1013MOL0     C36627   8.940   5.276   8.533  0.6813 -0.2014  0.2043
 1013MOL0     O36628   9.027   5.245   8.638 -0.5558  0.0371 -0.0720
 1013MOL0     C36629   9.080   5.369   8.685 -0.4698 -0.3678  0.0738
 1013MOL0     C36630   9.167   5.333   8.803  0.7464  1.0650  0.9783
 1013MOL0     C36631   9.282   5.249   8.759 -0.5026 -0.4268 -0.6235
 1013MOL0     C36632   9.349   5.209   8.891  0.2872 -0.2702 -0.1105
 1013MOL0     C36633   9.486   5.133   8.859 -0.3153 -0.4911 -1.0043
 1013MOL0     C36634   9.582   5.101   8.982 -0.3919 -0.3241 -0.3825
 1013MOL0     C36635   9.501   5.033   9.099  0.6621 -0.0409 -0.6578
 1013MOL0     C36636   9.417   4.914   9.061 -0.7023  0.1961  0.7333
 1013MOL0     N36637   9.509   4.805   9.025 -0.0878  0.7984  0.3064
 1013MOL0     C36638   9.587   4.719   9.098 -0.4251  0.5301  0.3457
 1013MOL0     C36639   9.635   4.632   9.012  0.0179 -0.3631  0.0232
 1013MOL0     C36640   9.729   4.514   9.041 -0.7357  0.7983 -0.0907
 1013MOL0     C36641   9.694   4.390   8.962  0.5432 -0.9151 -0.1061
 1013MOL0     C36642   9.732   4.379   8.816  0.5142 -0.0642  0.3711
 1013MOL0     C36643   9.668   4.262   8.765  0.0737  0.1329 -0.5911
 1013MOL0     O36644   9.699   4.220   8.632  0.6213  0.1826 -0.0303
 1013MOL0     C36645   9.635   4.274   8.516  0.3988 -0.8991  0.6875
 1013MOL0     C36646   9.550   4.390   8.515 -0.4631 -0.6902 -0.5890
 1013MOL0     C36647   9.505   4.451   8.394 -0.6278  1.1087 -0.3595
 1013MOL0     C36648   9.554   4.397   8.273 -0.1366 -0.3620 -0.0670
 1013MOL0     C36649   9.511   4.464   8.142 -1.2844  0.0229 -0.8705
 1013MOL0     O36650   9.499   4.391   8.039 -0.2571 -0.6035  0.5112
 1013MOL0     C36651   9.415   4.410   7.937 -0.5820 -0.7576  0.6864
 1013MOL0     C36652   9.458   4.363   7.813  0.3396  0.0301  0.0952
 1013MOL0     C36653   9.378   4.380   7.696  0.2462  0.7994 -0.6213
 1013MOL0     C36654   9.257   4.453   7.695  0.5591 -0.0947 -0.7786
 1013MOL0     O36655   9.192   4.481   7.577  0.1725 -0.0068 -0.3308
 1013MOL0     C36656   9.272   4.546   7.473  0.5807 -0.5154  0.5779
 1013MOL0     C36657   9.299   4.686   7.508 -0.6067 -0.4198 -0.3887
 1013MOL0     C36658   9.375   4.746   7.389 -0.1355  0.1012 -0.7302
 1013MOL0     C36659   9.314   4.875   7.328  0.8598 -0.7446 -0.1436
 1013MOL0     C36660   9.351   5.005   7.402 -0.9339  0.9575  0.1622
 1013MOL0     C36661   9.368   5.127   7.320 -0.3879 -0.6871 -0.4153
 1013MOL0     C36662   9.245   5.154   7.218  0.6483 -0.1297  0.3733
 1013MOL0     C36663   9.110   5.157   7.289 -0.8127 -0.2119  0.6024
 1013MOL0    Cl36664   9.083   5.296   7.398  0.0904 -0.1465 -0.1904
 1013MOL0     C36665   9.209   4.510   7.821  0.6867 -0.0932  0.2033
 1013MOL0     C36666   9.288   4.481   7.936 -0.0069 -0.0591  0.4495
 1013MOL0     O36667   9.484   4.582   8.156 -0.2256 -0.1549  0.1528
 1013MOL0     C36668   9.629   4.281   8.279 -0.5185 -0.0922 -0.1335
 1013MOL0     C36669   9.673   4.227   8.393 -0.0048  0.5809 -0.2312
 1013MOL0     N36670   9.604   4.674   8.882  0.4316  0.5336 -0.5862
 1013MOL0     N36671   9.516   4.773   8.892 -0.6375 -0.0066  0.2962
 1013MOL0     C36672   8.983   5.342   8.414  0.2707  0.1608 -0.5571
 1013MOL0     C36673   8.889   5.385   8.316  0.3492  0.2355 -0.3017
 1013MOL0     C36674   8.531   5.338   8.038  0.1687 -0.6555 -0.5307
 1013MOL0     C36675   8.545   5.363   7.903  0.7759  0.0122  0.3712
 1013MOL0     C36676   8.439   5.348   7.809 -0.7567  0.6896 -0.2268
 1013MOL0     C36677   8.318   5.307   7.857 -0.2143  0.5258  0.4200
 1013MOL0     O36678   8.211   5.296   7.771  0.1172  0.2657 -0.8146
 1013MOL0     C36679   8.145   5.167   7.765  0.1847  0.3727  0.2388
 1013MOL0     C36680   7.998   5.193   7.730  0.6265 -1.1081 -0.0772
 1013MOL0     C36681   7.969   5.261   7.602 -0.1797  0.9728  0.1806
 1013MOL0     C36682   7.826   5.322   7.597 -0.0942  0.2982  0.1310
 1013MOL0     C36683   7.726   5.213   7.590 -0.1647 -0.1124 -0.0262
 1013MOL0     C36684   7.633   5.133   7.589  0.0597  0.5673 -0.4422
 1013MOL0     C36685   8.293   5.290   7.991  0.0542 -0.6392  0.1864
 1013MOL0     C36686   8.403   5.301   8.086  0.9255  0.1088  0.8238
 1013MOL0     C36687   8.366   5.268   8.227  0.3563  0.0320  0.4092
 1013MOL0     H36688   8.605   5.267   8.477 -0.2315  2.9017  2.8196
 1013MOL0     H36689   8.759   5.214   8.645  0.2607 -1.0470  0.0488
 1013MOL0     H36690   9.147   5.419   8.614 -2.0438  0.4839 -0.8483
 1013MOL0     H36691   8.997   5.430   8.722 -1.9218 -2.9267  1.3139
 1013MOL0     H36692   9.110   5.280   8.879  0.4150  1.9887  1.3864
 1013MOL0     H36693   9.205   5.425   8.849  5.1375 -1.2373  2.5397
 1013MOL0     H36694   9.353   5.312   8.705  0.6602  0.8748  2.2052
 1013MOL0     H36695   9.252   5.161   8.702 -0.0107 -0.9338 -0.1056
 1013MOL0     H36696   9.372   5.289   8.962  0.6076  0.4063 -0.9643
 1013MOL0     H36697   9.275   5.151   8.948  0.0229  0.2504  0.0798
 1013MOL0     H36698   9.460   5.039   8.809  0.3561 -0.7377 -0.8951
 1013MOL0     H36699   9.539   5.187   8.781 -0.7083 -0.3595 -1.1826
 1013MOL0     H36700   9.668   5.040   8.953  0.1794  0.9405 -1.4278
 1013MOL0     H36701   9.626   5.193   9.023 -1.1118 -0.1529  0.0300
 1013MOL0     H36702   9.425   5.100   9.140 -0.2942 -0.3624 -1.8286
 1013MOL0     H36703   9.559   5.010   9.189  1.8874  3.6996 -0.3498
 1013MOL0     H36704   9.353   4.873   9.139  1.2655  1.3812  3.0912
 1013MOL0     H36705   9.360   4.938   8.971 -1.1668 -1.9529  0.4031
 1013MOL0     H36706   9.613   4.705   9.202  2.2313 -1.5660 -0.5027
 1013MOL0     H36707   9.829   4.552   9.019 -0.3292 -0.7581 -1.0413
 1013MOL0     H36708   9.736   4.485   9.147 -2.3797 -0.7543 -0.3604
 1013MOL0     H36709   9.739   4.308   9.019 -1.5989 -1.9271  0.2256
 1013MOL0     H36710   9.587   4.381   8.979  0.0929  1.7486 -1.0138
 1013MOL0     H36711   9.839   4.362   8.805  0.6710  1.3546 -0.6166
 1013MOL0     H36712   9.702   4.477   8.776 -1.2753  1.5320  4.9498
 1013MOL0     H36713   9.560   4.268   8.772 -0.0434 -2.2292  0.5456
 1013MOL0     H36714   9.700   4.188   8.838 -1.9700  1.0718  1.3419
 1013MOL0     H36715   9.512   4.430   8.609 -1.1162  0.8563 -1.4840
 1013MOL0     H36716   9.437   4.535   8.396  0.1051  1.7232 -0.6777
 1013MOL0     H36717   9.556   4.320   7.798 -0.4244 -2.9226  2.4130
 1013MOL0     H36718   9.407   4.341   7.598  0.4561  1.0361 -0.6544
 1013MOL0     H36719   9.356   4.484   7.440 -1.2755 -2.5570 -0.5997
 1013MOL0     H36720   9.194   4.562   7.398 -0.4008 -1.1891  1.4215
 1013MOL0     H36721   9.207   4.745   7.521  0.1298  0.3256  1.7855
 1013MOL0     H36722   9.363   4.685   7.596 -0.4894 -2.3953 -0.4534
 1013MOL0     H36723   9.479   4.748   7.422 -0.2568 -2.5573  0.0332
 1013MOL0     H36724   9.383   4.675   7.306  0.7838 -0.6173 -0.0452
 1013MOL0     H36725   9.207   4.868   7.307  0.8292  0.5887 -0.4910
 1013MOL0     H36726   9.368   4.889   7.235  0.3450 -2.8711 -0.8158
 1013MOL0     H36727   9.442   4.968   7.451 -1.6881 -0.4879  0.5265
 1013MOL0     H36728   9.285   5.025   7.487 -0.3535  1.0144  0.6060
 1013MOL0     H36729   9.376   5.217   7.382  0.2888 -0.1103 -1.3191
 1013MOL0     H36730   9.451   5.107   7.252 -1.3467 -0.5325 -1.6770
 1013MOL0     H36731   9.240   5.074   7.144 -3.2118 -0.9406  1.3115
 1013MOL0     H36732   9.251   5.250   7.165  0.9634 -0.6516 -0.5697
 1013MOL0     H36733   9.033   5.147   7.212 -0.0835 -3.4011  0.1452
 1013MOL0     H36734   9.086   5.069   7.349  1.0823 -0.6851  0.7286
 1013MOL0     H36735   9.118   4.569   7.818  0.9743  0.4029  0.9570
 1013MOL0     H36736   9.238   4.515   8.026  0.9330 -2.4417  1.9732
 1013MOL0     H36737   9.668   4.231   8.191  3.0712  1.0691  0.6201
 1013MOL0     H36738   9.743   4.144   8.398 -2.4657 -1.8320 -2.4454
 1013MOL0     H36739   9.085   5.374   8.395  0.7501 -0.7841  0.3008
 1013MOL0     H36740   8.919   5.441   8.228  0.5185  1.1240  0.3004
 1013MOL0     H36741   8.641   5.399   7.867  0.3810 -0.4312 -1.1862
 1013MOL0     H36742   8.451   5.380   7.706  1.3808  3.2803  0.7022
 1013MOL0     H36743   8.149   5.120   7.864 -0.3426 -0.1541  0.0181
 1013MOL0     H36744   8.186   5.097   7.693  1.2781  0.7460  0.4841
 1013MOL0     H36745   7.953   5.258   7.806  2.2286  0.3980 -0.3731
 1013MOL0     H36746   7.944   5.099   7.744  0.4142 -0.7770  1.5006
 1013MOL0     H36747   7.980   5.189   7.520  0.9582 -0.8531  1.8595
 1013MOL0     H36748   8.040   5.343   7.586  0.2530  1.1196  2.5561
 1013MOL0     H36749   7.806   5.396   7.675 -1.6606 -0.3814  0.4070
 1013MOL0     H36750   7.809   5.380   7.505 -3.6480  1.6648  1.4956
 1013MOL0     H36751   7.540   5.080   7.582 -1.2463  2.8921 -2.3726
 1013MOL0     H36752   8.190   5.271   8.019 -0.0814  0.2338  0.2955
 1013MOL0     H36753   8.400   5.339   8.303  1.8683 -0.9243  0.6762
 1013MOL0     H36754   8.259   5.248   8.230 -0.0153  0.3237 -3.9642
 1013MOL0     H36755   8.422   5.176   8.246 -2.1562 -1.1165  2.9143
 1014MOL0     O36756   5.141  10.828   9.873  0.1011 -0.2376  0.6219
 1014MOL0     C36757   5.108  10.945   9.908  0.6944  0.8617  0.1506
 1014MOL0     O36758   5.039  11.038   9.822 -0.1283 -0.2558 -0.4848
 1014MOL0     C36759   4.953  10.998   9.723  0.3713 -0.8843 -0.0348
 1014MOL0     C36760   4.919  11.100   9.631 -0.4709  0.0562 -0.0096
 1014MOL0     C36761   4.825  11.077   9.532  0.9592  0.8022 -0.0859
 1014MOL0     C36762   4.780  10.948   9.515 -0.1061  1.0062  0.3229
 1014MOL0     O36763   4.692  10.928   9.410  0.2295 -0.5667  0.0840
 1014MOL0     C36764   4.609  10.814   9.422  0.1110 -0.5688  1.1428
 1014MOL0     C36765   4.528  10.799   9.294  1.1369  0.4377 -0.1065
 1014MOL0     C36766   4.408  10.899   9.268 -0.3449 -0.3498  0.4804
 1014MOL0     C36767   4.450  11.042   9.232  0.2415  0.7655 -1.0446
 1014MOL0     C36768   4.316  11.123   9.233  0.3149  0.0346  0.8586
 1014MOL0     C36769   4.339  11.267   9.241 -0.3213 -0.2824  0.2565
 1014MOL0     C36770   4.218  11.349   9.233  0.0036 -0.4570  0.9168
 1014MOL0     C36771   4.155  11.363   9.097  0.4384  0.1299 -0.4865
 1014MOL0     N36772   4.026  11.423   9.087  0.3351 -0.1098 -0.5177
 1014MOL0     C36773   3.991  11.550   9.131  1.3330 -0.5295  0.0666
 1014MOL0     C36774   3.864  11.574   9.121  0.4831 -0.6054  0.5610
 1014MOL0     C36775   3.791  11.706   9.146 -0.0310  0.2495 -0.1525
 1014MOL0     C36776   3.761  11.775   9.007 -0.3714  0.3745 -0.9619
 1014MOL0     C36777   3.669  11.890   9.037  1.0013  0.5039  0.2624
 1014MOL0     C36778   3.625  11.961   8.903  0.4430 -0.1792  0.5552
 1014MOL0     O36779   3.567  12.090   8.932 -0.7722  0.2176 -0.3176
 1014MOL0     C36780   3.550  12.186   8.836 -0.6536  0.3793  0.6725
 1014MOL0     C36781   3.526  12.314   8.889 -0.0461 -0.3211  0.2401
 1014MOL0     C36782   3.522  12.430   8.808  0.2644 -0.6060 -0.0304
 1014MOL0     C36783   3.541  12.411   8.668  0.6273  0.0360 -0.1524
 1014MOL0     C36784   3.520  12.525   8.574 -0.9046 -0.4278 -0.1089
 1014MOL0     O36785   3.495  12.494   8.442  0.4287 -0.3694 -0.3749
 1014MOL0     C36786   3.443  12.581   8.350  0.2899 -0.2346 -0.4153
 1014MOL0     C36787   3.385  12.709   8.386  0.1047 -1.0236  0.5376
 1014MOL0     C36788   3.343  12.795   8.283  0.2973 -0.6004  0.1586
 1014MOL0     C36789   3.365  12.758   8.152 -0.4103  0.2927  0.5959
 1014MOL0     O36790   3.334  12.836   8.043  0.0522 -0.1065  0.2500
 1014MOL0     C36791   3.420  12.953   8.037 -0.8907 -0.5634  0.2000
 1014MOL0     C36792   3.545  12.930   7.942  0.4205  0.4274 -0.4320
 1014MOL0     C36793   3.517  12.852   7.818  0.8678 -0.4356 -0.4683
 1014MOL0     C36794   3.625  12.878   7.699  0.5679  0.5673  0.3484
 1014MOL0     C36795   3.580  12.788   7.582 -0.0231  0.1838 -0.1910
 1014MOL0     C36796   3.705  12.776   7.486  0.1884 -0.8351 -0.4866
 1014MOL0     C36797   3.667  12.708   7.346 -0.1498  0.3220 -0.1617
 1014MOL0     C36798   3.791  12.711   7.250 -0.1564  0.0446 -0.0213
 1014MOL0    Cl36799   3.720  12.650   7.092 -0.3349  0.1868 -0.5126
 1014MOL0     C36800   3.417  12.644   8.121  0.3840  0.0484  0.4800
 1014MOL0     C36801   3.453  12.554   8.215 -0.6580  0.0812  0.8933
 1014MOL0     O36802   3.545  12.637   8.619  0.2433 -0.0156 -0.6236
 1014MOL0     C36803   3.569  12.283   8.616 -0.4738  0.3287 -0.3837
 1014MOL0     C36804   3.578  12.170   8.700  0.0687 -1.4233  0.8192
 1014MOL0     N36805   3.812  11.468   9.055  0.2194  0.0411 -0.1096
 1014MOL0     N36806   3.908  11.382   9.033  0.7113 -0.4904  0.4440
 1014MOL0     C36807   4.807  10.851   9.622  0.0763  0.4254  0.6413
 1014MOL0     C36808   4.893  10.875   9.724  0.5337  0.4797 -0.3136
 1014MOL0     C36809   5.155  10.977  10.038 -0.0154 -0.1763 -0.6800
 1014MOL0     C36810   5.084  11.056  10.130  0.6729  0.2621  0.3656
 1014MOL0     C36811   5.138  11.095  10.254 -1.2174  0.1237  0.6466
 1014MOL0     C36812   5.255  11.042  10.305 -0.2299  0.9721  0.1732
 1014MOL0     O36813   5.304  11.079  10.423 -1.0220 -0.2687 -0.0691
 1014MOL0     C36814   5.244  11.029  10.541 -0.2131 -0.0377  0.0188
 1014MOL0     C36815   5.298  11.093  10.670 -1.4353 -0.0571 -0.0048
 1014MOL0     C36816   5.302  11.246  10.659 -0.0065  0.3147  0.1560
 1014MOL0     C36817   5.322  11.319  10.793 -0.7393  0.9090 -0.0777
 1014MOL0     C36818   5.435  11.258  10.851  0.1929  0.3885  0.0689
 1014MOL0     C36819   5.541  11.204  10.887 -0.8422 -0.2613 -0.6592
 1014MOL0     C36820   5.335  10.973  10.222 -0.3952  0.4771  0.6631
 1014MOL0     C36821   5.289  10.943  10.087  0.4124 -0.6660 -0.2533
 1014MOL0     C36822   5.396  10.904   9.997  0.7251  0.9650 -0.9497
 1014MOL0     H36823   4.970  11.195   9.640  1.9099 -1.2973  3.0040
 1014MOL0     H36824   4.811  11.160   9.463 -0.2608  1.9551  1.4670
 1014MOL0     H36825   4.675  10.727   9.417  4.0745  2.2766 -0.4804
 1014MOL0     H36826   4.554  10.799   9.515  0.9515 -1.7879  1.4703
 1014MOL0     H36827   4.468  10.708   9.293  0.7268  0.7077 -0.0182
 1014MOL0     H36828   4.602  10.782   9.215 -0.7896 -1.7130 -1.5490
 1014MOL0     H36829   4.351  10.906   9.361 -0.7661  1.1533  0.1336
 1014MOL0     H36830   4.352  10.853   9.186  0.6033 -0.5908 -0.0503
 1014MOL0     H36831   4.525  11.068   9.307  0.1619  2.2850 -1.4759
 1014MOL0     H36832   4.501  11.057   9.137  1.7143  1.0256 -0.2354
 1014MOL0     H36833   4.249  11.094   9.152 -0.1711  0.3571  1.1407
 1014MOL0     H36834   4.250  11.095   9.315 -0.0010 -0.5899  0.3955
 1014MOL0     H36835   4.383  11.284   9.340 -1.6171  0.7038  0.6783
 1014MOL0     H36836   4.413  11.300   9.167  0.2749 -2.6287 -0.2673
 1014MOL0     H36837   4.250  11.447   9.271 -1.1450  1.2720 -2.2052
 1014MOL0     H36838   4.142  11.320   9.307 -1.2790 -1.5197 -0.7557
 1014MOL0     H36839   4.234  11.421   9.048  0.8947  0.4886  0.6242
 1014MOL0     H36840   4.159  11.275   9.033  0.7212 -1.1035  1.1451
 1014MOL0     H36841   4.064  11.625   9.159  2.0642 -2.7399  5.2203
 1014MOL0     H36842   3.699  11.689   9.203  1.0913  0.1380  1.7076
 1014MOL0     H36843   3.850  11.767   9.215 -0.2076  0.0039  0.2187
 1014MOL0     H36844   3.851  11.809   8.955 -1.0548  4.9971  0.4127
 1014MOL0     H36845   3.715  11.698   8.944  1.2998 -0.6208 -1.0174
 1014MOL0     H36846   3.722  11.968   9.093  0.2861  0.6924  0.6814
 1014MOL0     H36847   3.582  11.849   9.087 -0.8848  2.0004 -1.6156
 1014MOL0     H36848   3.555  11.898   8.849  2.1859 -2.6904  1.0820
 1014MOL0     H36849   3.721  11.984   8.857 -0.3471  2.5871  0.1013
 1014MOL0     H36850   3.508  12.329   8.995  2.0043 -1.7756  0.8456
 1014MOL0     H36851   3.494  12.524   8.855 -1.7249 -1.1216 -0.0752
 1014MOL0     H36852   3.381  12.759   8.483 -3.4850  0.2132 -0.1241
 1014MOL0     H36853   3.297  12.887   8.317 -2.0603 -1.1225 -1.4149
 1014MOL0     H36854   3.357  13.033   7.997 -1.9445 -1.6288 -0.3481
 1014MOL0     H36855   3.463  12.992   8.130  2.5408 -1.8143 -0.7044
 1014MOL0     H36856   3.591  13.027   7.917  0.5997  0.6813  0.8465
 1014MOL0     H36857   3.624  12.885   8.002 -0.1523  1.9478  1.5560
 1014MOL0     H36858   3.508  12.745   7.833  1.8175 -0.5765 -0.8056
 1014MOL0     H36859   3.420  12.884   7.779  0.3447 -2.7468 -1.1947
 1014MOL0     H36860   3.722  12.840   7.735  0.7669 -1.7260 -2.2941
 1014MOL0     H36861   3.623  12.984   7.674  0.9291  0.1945 -1.4263
 1014MOL0     H36862   3.501  12.845   7.534 -1.5409 -0.0662  1.8602
 1014MOL0     H36863   3.539  12.692   7.614 -3.5961  1.8150  0.5919
 1014MOL0     H36864   3.733  12.879   7.465  2.2371 -1.6352 -2.0672
 1014MOL0     H36865   3.795  12.730   7.530  1.2007 -0.2031 -1.8243
 1014MOL0     H36866   3.593  12.774   7.300  2.1363  3.2491  0.0674
 1014MOL0     H36867   3.624  12.609   7.360 -2.8033  1.2913 -0.9034
 1014MOL0     H36868   3.836  12.810   7.234  2.0798 -1.2305 -2.4731
 1014MOL0     H36869   3.861  12.632   7.276 -0.6032 -0.3817 -0.0929
 1014MOL0     H36870   3.430  12.611   8.018  2.1891 -0.1771  0.7405
 1014MOL0     H36871   3.493  12.467   8.164 -0.3408  0.9399 -0.3940
 1014MOL0     H36872   3.580  12.275   8.508  3.1023 -0.1814 -0.0858
 1014MOL0     H36873   3.611  12.076   8.658  2.8756 -1.7543  3.4391
 1014MOL0     H36874   4.760  10.756   9.600  2.3612 -0.4309 -1.0123
 1014MOL0     H36875   4.907  10.792   9.791 -1.3856 -1.0160 -1.6474
 1014MOL0     H36876   4.982  11.085  10.107 -1.5414 -4.1660  2.9829
 1014MOL0     H36877   5.094  11.181  10.302  1.8472  3.8926 -2.5918
 1014MOL0     H36878   5.270  10.923  10.549  0.8815  0.1103 -1.2190
 1014MOL0     H36879   5.136  11.045  10.531 -1.1514 -3.5480  2.6533
 1014MOL0     H36880   5.398  11.050  10.680 -1.8247 -0.9418  0.2297
 1014MOL0     H36881   5.232  11.064  10.753  1.8754  0.0426  2.9009
 1014MOL0     H36882   5.209  11.278  10.612  0.1520  3.1041  1.5579
 1014MOL0     H36883   5.386  11.271  10.593 -0.7830  0.1799 -0.8983
 1014MOL0     H36884   5.346  11.424  10.775 -0.3473  0.4062 -3.1885
 1014MOL0     H36885   5.238  11.311  10.862  1.2337 -1.2171  2.2717
 1014MOL0     H36886   5.637  11.163  10.911 -1.1342  0.4841  2.1655
 1014MOL0     H36887   5.435  10.939  10.249 -1.0415  0.3843  3.2003
 1014MOL0     H36888   5.419  10.803  10.032  2.1546  1.3404 -0.7717
 1014MOL0     H36889   5.375  10.920   9.890  1.0879  1.9150 -0.8848
 1014MOL0     H36890   5.479  10.972  10.016  0.8688  0.5219  0.0281
 1015MOL0     O36891   4.025   0.903   7.213  0.7465  0.3498 -0.1687
 1015MOL0     C36892   3.942   0.808   7.189  0.3637 -0.0557 -0.0889
 1015MOL0     O36893   3.865   0.738   7.277 -0.0493 -0.2193 -0.1273
 1015MOL0     C36894   3.861   0.789   7.406 -0.4405 -0.2525  0.3990
 1015MOL0     C36895   3.750   0.869   7.439 -0.5917  0.5410 -0.4751
 1015MOL0     C36896   3.750   0.947   7.555 -0.1417  0.2036 -0.6736
 1015MOL0     C36897   3.852   0.925   7.658  0.6833  0.3983  1.1323
 1015MOL0     O36898   3.856   0.993   7.776  0.7360  0.2441 -1.0577
 1015MOL0     C36899   3.730   1.039   7.841 -1.2059  0.2830  0.2224
 1015MOL0     C36900   3.764   1.115   7.958  0.0271 -0.0769  0.0070
 1015MOL0     C36901   3.809   1.033   8.074 -0.8250  0.0070 -0.7803
 1015MOL0     C36902   3.847   1.116   8.199 -0.0140  0.3642  0.9296
 1015MOL0     C36903   3.874   1.029   8.321  0.2406 -0.7382  1.6228
 1015MOL0     C36904   3.889   1.098   8.449  0.0577 -0.8238 -0.8895
 1015MOL0     C36905   3.899   0.990   8.563  0.8910 -0.7223  0.3349
 1015MOL0     C36906   4.021   0.898   8.557  0.2484 -0.8081 -0.2389
 1015MOL0     N36907   4.143   0.985   8.599 -0.3196 -0.2120 -0.6097
 1015MOL0     C36908   4.176   1.026   8.730 -0.3701 -0.2375 -0.3067
 1015MOL0     C36909   4.272   1.114   8.715 -0.8118 -0.6490  0.7072
 1015MOL0     C36910   4.346   1.178   8.835 -0.0534  0.6528  0.1824
 1015MOL0     C36911   4.481   1.108   8.879  0.0621 -0.4275 -0.1262
 1015MOL0     C36912   4.466   0.979   8.958 -0.2474  0.3019  0.2437
 1015MOL0     C36913   4.600   0.935   8.995  0.0543  0.5145 -0.5618
 1015MOL0     O36914   4.678   1.016   9.087  0.4092  0.1269  0.2783
 1015MOL0     C36915   4.649   1.008   9.217  0.3335 -0.1405  0.1091
 1015MOL0     C36916   4.531   0.934   9.268 -0.2358  0.5448  0.4898
 1015MOL0     C36917   4.521   0.919   9.410 -0.1885 -0.3297 -0.0300
 1015MOL0     C36918   4.609   1.005   9.495  0.8039 -0.5327 -0.6962
 1015MOL0     C36919   4.577   1.010   9.645 -0.1582 -0.2882 -0.1489
 1015MOL0     O36920   4.643   1.089   9.722  0.2889  0.0969  0.2179
 1015MOL0     C36921   4.717   1.025   9.819 -0.2565  0.3484  0.1060
 1015MOL0     C36922   4.722   0.885   9.846 -0.0680  0.1260  0.8187
 1015MOL0     C36923   4.775   0.834   9.964 -0.0279 -0.1881  0.0188
 1015MOL0     C36924   4.835   0.912  10.059 -0.1557 -1.3868  0.7583
 1015MOL0     O36925   4.879   0.874  10.181  0.3073 -0.2597  0.2156
 1015MOL0     C36926   4.825   0.765  10.253 -0.0288  0.4477 -1.4896
 1015MOL0     C36927   4.689   0.794  10.304  0.3766  0.3037  0.8771
 1015MOL0     C36928   4.672   0.910  10.399  0.0846 -0.6272  0.9738
 1015MOL0     C36929   4.742   0.896  10.530 -0.7571  0.5003 -0.2356
 1015MOL0     C36930   4.728   1.021  10.628  0.8286  1.3093  0.1156
 1015MOL0     C36931   4.580   1.047  10.656  0.6240  0.0094 -0.2708
 1015MOL0     C36932   4.566   1.139  10.785  0.2784  0.3995 -0.4549
 1015MOL0     C36933   4.462   1.239  10.761 -1.0837 -0.7532 -0.2260
 1015MOL0    Cl36934   4.447   1.336  10.905  0.4071  0.0911 -0.4512
 1015MOL0     C36935   4.854   1.045  10.022  0.0738 -0.6685 -0.2447
 1015MOL0     C36936   4.798   1.110   9.907 -0.1656  0.1275 -0.7168
 1015MOL0     O36937   4.478   0.941   9.685 -0.5010  0.1396  0.1471
 1015MOL0     C36938   4.706   1.087   9.439  0.1070 -0.1602 -0.3483
 1015MOL0     C36939   4.730   1.075   9.302  0.6677 -0.7561 -0.5054
 1015MOL0     N36940   4.310   1.127   8.588 -0.1353 -0.1668 -0.0232
 1015MOL0     N36941   4.229   1.055   8.520 -0.1088 -0.5053  0.0208
 1015MOL0     C36942   3.951   0.834   7.622  0.1641  0.6938 -0.2509
 1015MOL0     C36943   3.967   0.773   7.505  0.3794  0.5347  0.2618
 1015MOL0     C36944   3.930   0.763   7.055 -0.0018  0.5782  0.9218
 1015MOL0     C36945   3.800   0.786   6.983 -0.1318 -1.0864 -0.0053
 1015MOL0     C36946   3.784   0.766   6.848  0.4232  0.2933 -0.3911
 1015MOL0     C36947   3.892   0.723   6.765  0.5166  1.8266 -0.0147
 1015MOL0     O36948   3.878   0.673   6.633  0.7796 -0.0336  0.0792
 1015MOL0     C36949   3.752   0.701   6.564  0.7321 -0.2519  0.5072
 1015MOL0     C36950   3.661   0.577   6.574  0.6540  0.2500 -0.7430
 1015MOL0     C36951   3.729   0.453   6.525  0.6059  0.0230  0.6872
 1015MOL0     C36952   3.639   0.345   6.456 -0.7831 -0.3730  0.4173
 1015MOL0     C36953   3.606   0.379   6.316  0.7262  0.1696 -0.1018
 1015MOL0     C36954   3.588   0.430   6.206 -0.3760 -0.5086 -0.8149
 1015MOL0     C36955   4.015   0.719   6.825 -0.6931  0.4181 -0.3195
 1015MOL0     C36956   4.038   0.733   6.964  0.2309  0.3370 -0.1508
 1015MOL0     C36957   4.175   0.704   7.014 -1.1570 -0.5811 -0.1863
 1015MOL0     H36958   3.668   0.866   7.368  1.1098  0.0911 -2.5146
 1015MOL0     H36959   3.666   1.007   7.589 -1.3402 -0.9960 -1.4172
 1015MOL0     H36960   3.683   1.110   7.772 -1.1487 -0.3800 -0.5156
 1015MOL0     H36961   3.664   0.956   7.871 -0.3596 -0.6795 -0.5052
 1015MOL0     H36962   3.672   1.154   8.003 -0.2556 -2.5768  1.8006
 1015MOL0     H36963   3.833   1.194   7.925  1.6902 -2.4301 -2.5517
 1015MOL0     H36964   3.897   0.971   8.051  0.7095  2.5268 -2.2032
 1015MOL0     H36965   3.719   0.976   8.099 -0.5292  0.5770  1.8399
 1015MOL0     H36966   3.930   1.180   8.168  1.5261 -1.9370  0.0422
 1015MOL0     H36967   3.762   1.183   8.216  1.2394  2.4665 -0.6500
 1015MOL0     H36968   3.788   0.962   8.325  0.3125 -0.9598  0.0972
 1015MOL0     H36969   3.967   0.979   8.293  0.6290  1.1699 -0.8634
 1015MOL0     H36970   3.984   1.151   8.444  1.1290 -2.4017  1.3388
 1015MOL0     H36971   3.806   1.164   8.476 -0.2119 -2.1564  1.9367
 1015MOL0     H36972   3.815   0.921   8.544  2.2302 -2.3457  0.0258
 1015MOL0     H36973   3.888   1.033   8.663 -0.0874  1.4811 -0.6546
 1015MOL0     H36974   4.021   0.811   8.624  1.9898 -1.7161 -1.3358
 1015MOL0     H36975   4.035   0.862   8.455  0.6423  2.3585 -1.4129
 1015MOL0     H36976   4.125   0.986   8.818 -0.0956 -1.1306 -0.5375
 1015MOL0     H36977   4.357   1.286   8.822 -0.3717  0.6813  0.1415
 1015MOL0     H36978   4.289   1.177   8.928  0.9801  1.9487  0.8799
 1015MOL0     H36979   4.545   1.099   8.790 -0.3548 -0.4674 -0.4252
 1015MOL0     H36980   4.537   1.175   8.944 -0.5402  1.1743 -1.2044
 1015MOL0     H36981   4.418   0.903   8.896 -2.5692  1.7330  0.1638
 1015MOL0     H36982   4.403   0.991   9.047  1.9390 -2.8682  2.4464
 1015MOL0     H36983   4.665   0.921   8.907  1.7128  2.5960  0.2376
 1015MOL0     H36984   4.588   0.833   9.033 -2.9662  0.3581 -1.6819
 1015MOL0     H36985   4.463   0.876   9.206 -0.5756 -0.6944  1.9414
 1015MOL0     H36986   4.433   0.865   9.443  0.5896 -1.8108 -0.2678
 1015MOL0     H36987   4.679   0.813   9.777  0.6877 -0.1764  0.6615
 1015MOL0     H36988   4.752   0.729   9.976 -0.2205 -0.1178  0.2920
 1015MOL0     H36989   4.803   0.681  10.185 -2.5126  0.6949 -1.0784
 1015MOL0     H36990   4.891   0.740  10.336  0.3758  0.9346 -1.6573
 1015MOL0     H36991   4.631   0.818  10.215  0.3076  0.9820  1.1025
 1015MOL0     H36992   4.646   0.700  10.338 -0.4529  0.1293 -0.5752
 1015MOL0     H36993   4.718   1.001  10.358  2.4385 -2.5266 -0.9562
 1015MOL0     H36994   4.566   0.933  10.409  0.1642  1.2030 -1.4321
 1015MOL0     H36995   4.848   0.875  10.515  0.1178  4.0008  0.1787
 1015MOL0     H36996   4.701   0.806  10.576 -0.9484 -1.2095 -3.4187
 1015MOL0     H36997   4.771   1.110  10.582 -1.4482  1.9394 -0.9245
 1015MOL0     H36998   4.788   1.003  10.718  1.3271 -2.1855 -0.7890
 1015MOL0     H36999   4.545   1.101  10.567  5.0502  0.9708 -1.6942
 1015MOL0     H37000   4.516   0.959  10.670 -1.6284  1.4458 -0.9172
 1015MOL0     H37001   4.659   1.193  10.806 -0.1274  1.0502 -0.3001
 1015MOL0     H37002   4.548   1.078  10.873  4.0514 -0.0104  0.1964
 1015MOL0     H37003   4.485   1.306  10.678 -1.2119 -0.4795 -0.0424
 1015MOL0     H37004   4.359   1.209  10.738 -1.7239 -1.3804  2.9308
 1015MOL0     H37005   4.919   1.112  10.076 -1.0612  0.2209  0.0692
 1015MOL0     H37006   4.793   1.218   9.897 -1.0297  0.1058 -0.5982
 1015MOL0     H37007   4.779   1.144   9.495 -1.8217 -1.1878  3.6012
 1015MOL0     H37008   4.817   1.139   9.288  1.0733 -0.8348  1.3140
 1015MOL0     H37009   4.033   0.834   7.693 -0.8515  1.7568  0.9717
 1015MOL0     H37010   4.051   0.707   7.487 -1.4149 -2.7350  2.6932
 1015MOL0     H37011   3.714   0.818   7.041  0.3899 -1.4898  1.0003
 1015MOL0     H37012   3.685   0.781   6.807 -0.2510  2.2143  1.7100
 1015MOL0     H37013   3.755   0.728   6.458  1.6526 -1.6431  0.1513
 1015MOL0     H37014   3.700   0.782   6.617  0.1961 -0.0488 -0.3054
 1015MOL0     H37015   3.565   0.604   6.527  0.0915  1.8232  1.1968
 1015MOL0     H37016   3.638   0.557   6.679 -1.3099  4.0333 -0.2726
 1015MOL0     H37017   3.782   0.399   6.604  2.1013  0.5167  0.0615
 1015MOL0     H37018   3.807   0.491   6.458 -0.7896  1.9506  0.0776
 1015MOL0     H37019   3.709   0.261   6.454  1.6502  1.4751  2.1987
 1015MOL0     H37020   3.554   0.315   6.519 -1.5737 -0.8504 -0.8351
 1015MOL0     H37021   3.573   0.488   6.117 -0.9661  0.9145  0.1710
 1015MOL0     H37022   4.094   0.685   6.758 -1.7334  0.7742 -1.7709
 1015MOL0     H37023   4.255   0.705   6.940 -0.0403 -1.4213  0.9711
 1015MOL0     H37024   4.221   0.760   7.096  2.1880 -2.0720 -0.8970
 1015MOL0     H37025   4.183   0.608   7.065  1.5460  0.5045  1.6902
 1016MOL0     O37026   4.859   3.886  11.090 -0.6999  0.1169 -0.1541
 1016MOL0     C37027   4.810   3.779  11.068  0.4951  0.4765 -0.8744
 1016MOL0     O37028   4.761   3.696  11.169 -0.2863 -0.3388 -0.0079
 1016MOL0     C37029   4.840   3.688  11.287 -0.3064 -0.4056  0.0744
 1016MOL0     C37030   4.768   3.690  11.402  0.5043 -0.4102 -0.4564
 1016MOL0     C37031   4.826   3.693  11.531 -0.1464 -0.0532  0.2916
 1016MOL0     C37032   4.959   3.697  11.539 -0.0940 -1.6085  0.3118
 1016MOL0     O37033   5.007   3.695  11.670 -0.7747  0.3155  0.6742
 1016MOL0     C37034   5.140   3.747  11.684  0.2340 -0.0416 -1.3544
 1016MOL0     C37035   5.178   3.780  11.825  0.2904 -0.5555  0.1071
 1016MOL0     C37036   5.111   3.900  11.880 -0.6872 -0.1950  0.3570
 1016MOL0     C37037   5.159   3.933  12.022 -0.1230  0.4281  0.9937
 1016MOL0     C37038   5.045   4.002  12.093 -1.1054  0.4123 -0.5501
 1016MOL0     C37039   4.973   3.909  12.189 -0.3339 -0.2973  0.7205
 1016MOL0     C37040   4.817   3.911  12.195 -0.3589  0.4666  0.0376
 1016MOL0     C37041   4.730   3.848  12.087 -1.0802  0.0126  0.7092
 1016MOL0     N37042   4.747   3.709  12.071  0.9935  0.2418 -0.2351
 1016MOL0     C37043   4.830   3.650  11.978 -1.0080  0.6524  0.0660
 1016MOL0     C37044   4.798   3.521  11.964  0.3419 -0.1991 -0.4134
 1016MOL0     C37045   4.865   3.411  11.894  0.2541  0.5448  0.3173
 1016MOL0     C37046   4.774   3.392  11.771 -0.3364  0.5991  0.5028
 1016MOL0     C37047   4.829   3.282  11.687  0.3353 -0.6551 -0.4764
 1016MOL0     C37048   4.975   3.262  11.671 -0.6203 -0.2546  0.7531
 1016MOL0     O37049   4.998   3.171  11.564 -0.0405 -0.0667 -0.3627
 1016MOL0     C37050   4.999   3.233  11.439  0.5544  0.7348 -0.5170
 1016MOL0     C37051   5.099   3.316  11.396  0.4509 -1.0311 -0.2492
 1016MOL0     C37052   5.107   3.360  11.261  1.0308  0.7627 -0.3760
 1016MOL0     C37053   5.010   3.326  11.168 -0.6851 -1.1935 -0.6580
 1016MOL0     C37054   5.008   3.372  11.024  0.3099 -0.7586  0.7127
 1016MOL0     O37055   5.085   3.482  11.002  0.9849 -0.1480 -0.1859
 1016MOL0     C37056   5.100   3.546  10.878 -0.2893  0.5347 -0.2016
 1016MOL0     C37057   5.140   3.685  10.890 -0.5287 -0.3398  1.0545
 1016MOL0     C37058   5.166   3.770  10.780  1.3284  0.2707  1.0256
 1016MOL0     C37059   5.156   3.719  10.654 -0.0327 -0.2296  0.5488
 1016MOL0     O37060   5.171   3.776  10.532  0.3532 -0.3026  0.6126
 1016MOL0     C37061   5.221   3.909  10.525  0.0060 -0.3152  0.0469
 1016MOL0     C37062   5.369   3.922  10.568  0.1534  0.9319  0.0765
 1016MOL0     C37063   5.458   3.832  10.483  0.5167 -0.0384  0.0702
 1016MOL0     C37064   5.489   3.691  10.544 -0.2795 -1.3944 -0.1565
 1016MOL0     C37065   5.590   3.617  10.459  0.1785 -0.0788 -0.2621
 1016MOL0     C37066   5.704   3.549  10.539  0.8684  0.6088 -1.7174
 1016MOL0     C37067   5.794   3.467  10.458 -0.4221 -0.1644 -0.1945
 1016MOL0     C37068   5.874   3.542  10.353  0.5250 -0.2158 -0.2956
 1016MOL0    Cl37069   5.974   3.415  10.267 -0.3247 -0.1248 -0.1675
 1016MOL0     C37070   5.112   3.590  10.640 -0.2109 -0.0095 -0.2728
 1016MOL0     C37071   5.072   3.505  10.748 -0.5130 -0.3448 -0.5713
 1016MOL0     O37072   4.945   3.314  10.937 -0.4786  1.3602  0.0956
 1016MOL0     C37073   4.918   3.233  11.201  0.5067  0.9079  0.0978
 1016MOL0     C37074   4.915   3.177  11.341 -0.3799 -0.8789  0.1642
 1016MOL0     N37075   4.700   3.496  12.062  0.3058 -0.4280  0.1934
 1016MOL0     N37076   4.671   3.609  12.123  0.7495 -0.4480 -0.5982
 1016MOL0     C37077   5.043   3.687  11.418 -0.6077 -0.2038  0.0442
 1016MOL0     C37078   4.978   3.691  11.294  0.2067  0.0792 -0.0830
 1016MOL0     C37079   4.796   3.729  10.919  0.7696 -0.2677 -1.3951
 1016MOL0     C37080   4.747   3.598  10.907  0.6699  0.3317 -0.0345
 1016MOL0     C37081   4.706   3.545  10.788 -0.2265  0.1564 -0.3977
 1016MOL0     C37082   4.721   3.621  10.673 -0.0485 -0.2628 -0.4538
 1016MOL0     O37083   4.668   3.560  10.563 -0.1823  0.1626 -0.1445
 1016MOL0     C37084   4.594   3.631  10.461  0.0715 -0.6501  0.0392
 1016MOL0     C37085   4.668   3.597  10.330  0.5588 -0.8294  0.4830
 1016MOL0     C37086   4.669   3.453  10.295  0.5583 -0.7000  0.2813
 1016MOL0     C37087   4.765   3.416  10.176 -0.1519 -1.5836 -0.9928
 1016MOL0     C37088   4.906   3.440  10.221  0.0768  0.4422  0.9361
 1016MOL0     C37089   5.024   3.462  10.246 -0.2851  0.5200 -0.4981
 1016MOL0     C37090   4.793   3.740  10.674 -0.4524  0.1302  0.2667
 1016MOL0     C37091   4.825   3.801  10.800  0.6921 -0.0554  0.6005
 1016MOL0     C37092   4.878   3.945  10.794 -0.3605  0.5470 -0.7659
 1016MOL0     H37093   4.662   3.682  11.381  1.1414 -2.2939 -3.7294
 1016MOL0     H37094   4.760   3.680  11.615 -3.5082  0.0275 -2.1242
 1016MOL0     H37095   5.208   3.662  11.674  1.0781 -0.5663  4.8589
 1016MOL0     H37096   5.168   3.834  11.624 -0.2867 -0.0468 -1.6132
 1016MOL0     H37097   5.286   3.799  11.835 -0.0394  0.5172  1.9719
 1016MOL0     H37098   5.154   3.694  11.888 -0.2185  0.2958  1.0893
 1016MOL0     H37099   5.003   3.886  11.882 -1.0592  2.2552  0.8405
 1016MOL0     H37100   5.123   3.989  11.818  0.2014  1.1647  2.3469
 1016MOL0     H37101   5.191   3.844  12.078  2.7591  0.1087 -0.9423
 1016MOL0     H37102   5.247   3.998  12.023 -0.6536  1.1608  1.7627
 1016MOL0     H37103   5.068   4.086  12.158 -4.2171 -1.2380  3.0942
 1016MOL0     H37104   4.979   4.038  12.013 -1.6963 -2.3422 -1.4163
 1016MOL0     H37105   4.996   3.809  12.151  0.1934 -0.1030  0.5104
 1016MOL0     H37106   5.014   3.918  12.290  1.2128  1.9554 -0.0333
 1016MOL0     H37107   4.786   4.016  12.202 -2.6830 -0.2000  0.7279
 1016MOL0     H37108   4.783   3.858  12.285  0.0642 -0.6770 -0.4474
 1016MOL0     H37109   4.627   3.876  12.108 -1.2168  1.3911 -1.4784
 1016MOL0     H37110   4.752   3.902  11.994 -2.4498  0.7440  0.7789
 1016MOL0     H37111   4.915   3.702  11.934  0.7900 -2.2658 -0.2100
 1016MOL0     H37112   4.969   3.435  11.874  0.8548  0.2432  2.8146
 1016MOL0     H37113   4.884   3.331  11.965 -0.4618 -0.0872 -0.1815
 1016MOL0     H37114   4.671   3.361  11.788 -1.1448  3.4427  1.3164
 1016MOL0     H37115   4.761   3.474  11.700 -1.5532 -0.3284 -0.3808
 1016MOL0     H37116   4.787   3.305  11.588 -2.5220 -1.4099  0.4593
 1016MOL0     H37117   4.783   3.186  11.714 -0.3154 -0.6558 -1.4904
 1016MOL0     H37118   5.013   3.224  11.767 -0.4749 -0.3652  0.6533
 1016MOL0     H37119   5.028   3.357  11.659  2.7549 -1.8029  2.0522
 1016MOL0     H37120   5.156   3.379  11.463 -2.6226  1.4554  0.2757
 1016MOL0     H37121   5.179   3.435  11.232  1.5735 -0.5565 -2.7584
 1016MOL0     H37122   5.159   3.731  10.987 -0.9110  2.7691 -0.2369
 1016MOL0     H37123   5.191   3.874  10.794 -1.3993  0.9771  1.1810
 1016MOL0     H37124   5.210   3.937  10.420  0.4909 -0.0393  0.0684
 1016MOL0     H37125   5.159   3.971  10.591  0.0691 -2.1586  1.9422
 1016MOL0     H37126   5.408   4.023  10.554 -0.2669  0.9386 -1.1537
 1016MOL0     H37127   5.383   3.920  10.677 -3.0353  3.2579  0.6733
 1016MOL0     H37128   5.419   3.832  10.381 -0.8802  4.2985  0.4191
 1016MOL0     H37129   5.555   3.883  10.479  0.7015 -0.3902 -0.0083
 1016MOL0     H37130   5.398   3.630  10.552 -1.8139  0.7364 -0.4877
 1016MOL0     H37131   5.521   3.701  10.648 -0.0753 -2.9554 -0.0457
 1016MOL0     H37132   5.625   3.687  10.383 -0.1959 -0.7395 -1.0669
 1016MOL0     H37133   5.536   3.539  10.404 -0.0002  1.9668 -3.2257
 1016MOL0     H37134   5.759   3.623  10.598 -0.3116  0.5716 -0.5331
 1016MOL0     H37135   5.670   3.473  10.610 -0.5545 -0.0814 -3.0607
 1016MOL0     H37136   5.732   3.391  10.411  0.6375 -0.8730 -0.4884
 1016MOL0     H37137   5.869   3.417  10.521  2.5585 -0.6986 -3.8307
 1016MOL0     H37138   5.806   3.589  10.282  1.9686  0.3126 -1.3695
 1016MOL0     H37139   5.942   3.618  10.393  0.8119 -0.8593  0.4816
 1016MOL0     H37140   5.084   3.555  10.540 -3.4955  1.5513 -0.0406
 1016MOL0     H37141   5.033   3.404  10.735  5.5265 -3.1890 -0.1448
 1016MOL0     H37142   4.840   3.212  11.129  2.8500 -0.8056 -2.1212
 1016MOL0     H37143   4.843   3.114  11.391  1.3045 -1.2641  2.2567
 1016MOL0     H37144   5.151   3.684  11.407 -0.6824 -2.2418 -0.5498
 1016MOL0     H37145   5.039   3.702  11.205  1.0961  0.4081  0.5547
 1016MOL0     H37146   4.748   3.539  10.999  0.6133  1.7454  0.8991
 1016MOL0     H37147   4.692   3.438  10.771 -1.2147 -0.1816  2.1022
 1016MOL0     H37148   4.601   3.740  10.469 -4.9163 -0.1790  1.0340
 1016MOL0     H37149   4.491   3.594  10.459  0.0647 -0.6316 -1.5947
 1016MOL0     H37150   4.770   3.634  10.339  0.2656 -0.0788  0.8349
 1016MOL0     H37151   4.613   3.638  10.245  0.8024  0.6015  0.9981
 1016MOL0     H37152   4.567   3.424  10.270 -0.8896  0.5349  4.1100
 1016MOL0     H37153   4.695   3.409  10.392  0.2127  2.7888  2.1135
 1016MOL0     H37154   4.754   3.310  10.150 -1.2820 -1.8522  0.4773
 1016MOL0     H37155   4.743   3.485  10.095  1.1368 -0.8767 -0.7706
 1016MOL0     H37156   5.131   3.470  10.241 -0.3841  4.8492  0.0899
 1016MOL0     H37157   4.820   3.783  10.578 -0.3234 -1.9728 -0.7009
 1016MOL0     H37158   4.951   3.963  10.873 -2.5231 -0.3105  1.5396
 1016MOL0     H37159   4.931   3.961  10.699  1.6100 -1.8122 -0.1476
 1016MOL0     H37160   4.800   4.019  10.815 -0.6254 -0.4647  2.3257
 1017MOL0     O37161   7.428   2.599  11.117 -0.7974 -0.1832 -0.6290
 1017MOL0     C37162   7.493   2.647  11.022  0.5407  0.7229 -0.1818
 1017MOL0     O37163   7.444   2.741  10.933  0.4674  0.0900  0.1815
 1017MOL0     C37164   7.328   2.814  10.975 -0.7499 -0.3578  0.4546
 1017MOL0     C37165   7.355   2.928  11.047 -0.0052  0.4577  0.4988
 1017MOL0     C37166   7.244   3.012  11.074  0.7679 -0.1418 -0.0542
 1017MOL0     C37167   7.109   2.978  11.042 -0.0854  1.0224  0.3680
 1017MOL0     O37168   6.995   3.050  11.074  0.8419 -0.3063 -0.3816
 1017MOL0     C37169   7.006   3.170  11.154 -0.7274 -0.1909  0.0030
 1017MOL0     C37170   6.875   3.237  11.181  0.6255 -0.1664 -0.3080
 1017MOL0     C37171   6.798   3.165  11.301 -0.6302 -0.0242 -0.5238
 1017MOL0     C37172   6.657   3.223  11.341  0.2759  0.7740 -0.1783
 1017MOL0     C37173   6.667   3.373  11.375 -0.3128  0.6775  0.4475
 1017MOL0     C37174   6.525   3.428  11.406 -0.1829 -0.2919 -0.1157
 1017MOL0     C37175   6.533   3.571  11.425  0.4051 -0.2165  0.1298
 1017MOL0     C37176   6.399   3.622  11.472  0.5780 -0.0030  0.0464
 1017MOL0     N37177   6.288   3.611  11.376 -0.9688  0.4228  0.1153
 1017MOL0     C37178   6.285   3.612  11.239 -1.2696  0.9808  0.5150
 1017MOL0     C37179   6.147   3.620  11.209 -1.1937 -0.6203  0.9714
 1017MOL0     C37180   6.098   3.607  11.066  0.3780  0.9072 -0.0820
 1017MOL0     C37181   6.063   3.748  11.003 -0.2252  0.2398  0.1468
 1017MOL0     C37182   6.051   3.731  10.852  0.6745  0.6904  0.2202
 1017MOL0     C37183   6.180   3.723  10.777  0.4174  0.3259  0.5145
 1017MOL0     O37184   6.254   3.843  10.822  0.0394  0.0968 -0.5747
 1017MOL0     C37185   6.369   3.869  10.750 -0.7888 -0.0355  0.0086
 1017MOL0     C37186   6.450   3.978  10.785  0.5901 -0.1817  0.3826
 1017MOL0     C37187   6.561   4.013  10.716 -0.3401 -0.1314 -0.8704
 1017MOL0     C37188   6.619   3.919  10.630  0.0949 -0.7756  0.6530
 1017MOL0     C37189   6.736   3.967  10.553 -0.7136  0.4746 -0.1931
 1017MOL0     O37190   6.837   4.045  10.602  0.4379 -0.9726  0.9954
 1017MOL0     C37191   6.964   4.035  10.550 -0.2393 -0.3339  0.6297
 1017MOL0     C37192   7.013   3.934  10.463  0.3866  0.1929  0.1072
 1017MOL0     C37193   7.128   3.969  10.382  0.6431  0.0373 -0.1116
 1017MOL0     C37194   7.196   4.087  10.387 -1.2061  0.7177  0.1404
 1017MOL0     O37195   7.304   4.114  10.306  0.6315 -0.2324 -0.4202
 1017MOL0     C37196   7.407   4.203  10.358  0.6761  0.1093 -0.1737
 1017MOL0     C37197   7.458   4.289  10.234  0.2748  0.1798 -0.3710
 1017MOL0     C37198   7.574   4.219  10.154  0.0912  0.0986 -0.6139
 1017MOL0     C37199   7.550   4.207  10.000 -0.2269 -0.3415 -0.6979
 1017MOL0     C37200   7.700   4.193   9.952 -0.6581 -0.0745 -0.7786
 1017MOL0     C37201   7.694   4.187   9.793 -0.2000 -0.1448  0.0324
 1017MOL0     C37202   7.615   4.061   9.740 -0.0536  0.0241  0.3595
 1017MOL0     C37203   7.666   4.003   9.605  1.0045  0.5822  0.5252
 1017MOL0    Cl37204   7.709   4.139   9.499 -0.3590 -0.0328  0.1053
 1017MOL0     C37205   7.141   4.183  10.476 -0.3606 -0.2527  0.0464
 1017MOL0     C37206   7.034   4.157  10.549 -0.6593 -0.3890  0.1927
 1017MOL0     O37207   6.738   3.921  10.442 -0.1428  0.0951  0.6081
 1017MOL0     C37208   6.541   3.801  10.590 -0.2124 -0.2396  0.6052
 1017MOL0     C37209   6.416   3.789  10.645  0.2698  0.5776  0.4281
 1017MOL0     N37210   6.077   3.630  11.324 -0.0939  0.0629  0.6402
 1017MOL0     N37211   6.161   3.631  11.418  0.2361 -1.2293 -0.0196
 1017MOL0     C37212   7.089   2.865  10.974  0.7313 -0.1678 -0.4044
 1017MOL0     C37213   7.195   2.790  10.940 -1.2127  0.0774  0.0392
 1017MOL0     C37214   7.624   2.582  10.990  0.9180  0.3267  0.3080
 1017MOL0     C37215   7.693   2.624  10.869 -0.0717 -0.1525  0.6530
 1017MOL0     C37216   7.822   2.572  10.836 -0.0842 -0.4524  0.4125
 1017MOL0     C37217   7.864   2.458  10.895 -0.9893  1.1178  0.3204
 1017MOL0     O37218   7.987   2.409  10.855  0.4734 -0.0278 -0.3428
 1017MOL0     C37219   8.081   2.356  10.957 -0.5664 -0.2983  0.7694
 1017MOL0     C37220   8.221   2.315  10.898  0.5946 -0.9129 -0.2542
 1017MOL0     C37221   8.203   2.202  10.792  0.3370  0.6133  0.0356
 1017MOL0     C37222   8.150   2.247  10.659  0.2283  1.0477  0.8673
 1017MOL0     C37223   8.174   2.140  10.556  1.1773 -0.6775  0.2999
 1017MOL0     C37224   8.189   2.045  10.478  0.1242 -1.7619  0.6040
 1017MOL0     C37225   7.801   2.407  11.002  1.3971  0.3120  0.3093
 1017MOL0     C37226   7.683   2.468  11.045  0.0554  0.8084 -0.3227
 1017MOL0     C37227   7.611   2.396  11.162 -0.9559 -0.0259 -0.2685
 1017MOL0     H37228   7.457   2.941  11.082 -0.4466  2.8314  1.0898
 1017MOL0     H37229   7.269   3.108  11.118 -1.5778  0.3105  0.4518
 1017MOL0     H37230   7.054   3.135  11.245  0.5657 -2.3697 -1.4307
 1017MOL0     H37231   7.079   3.230  11.098  1.2799 -3.0526 -0.6780
 1017MOL0     H37232   6.816   3.251  11.090  0.0620  4.1956  0.4972
 1017MOL0     H37233   6.892   3.338  11.221 -1.9149 -0.4743  1.7944
 1017MOL0     H37234   6.852   3.163  11.396 -1.9500  0.7758  0.2829
 1017MOL0     H37235   6.783   3.059  11.275 -1.6124 -0.5575  1.9301
 1017MOL0     H37236   6.589   3.221  11.255  3.1152  1.1157 -2.5815
 1017MOL0     H37237   6.618   3.177  11.432 -0.1925  3.2574  0.9393
 1017MOL0     H37238   6.734   3.395  11.459 -2.1387  1.6126  1.7223
 1017MOL0     H37239   6.700   3.430  11.287 -2.4716 -0.3415 -1.0904
 1017MOL0     H37240   6.446   3.406  11.334  0.9263 -3.2908 -0.5492
 1017MOL0     H37241   6.499   3.380  11.501  4.7752  1.6230  2.5892
 1017MOL0     H37242   6.561   3.622  11.332  0.7873  4.0540  2.3482
 1017MOL0     H37243   6.615   3.593  11.494 -0.9421 -1.8827  2.3744
 1017MOL0     H37244   6.375   3.582  11.571 -0.3827  0.5242  0.0449
 1017MOL0     H37245   6.388   3.730  11.491 -1.8425 -0.4101  1.3647
 1017MOL0     H37246   6.373   3.582  11.182 -1.6814 -2.1042  1.3265
 1017MOL0     H37247   6.175   3.548  11.014  1.5813  1.2897  1.2137
 1017MOL0     H37248   6.009   3.544  11.070  0.9281  0.1851  1.5984
 1017MOL0     H37249   5.963   3.778  11.037 -1.3623 -0.7484 -2.1397
 1017MOL0     H37250   6.126   3.834  11.026 -0.1205 -0.2873  1.9707
 1017MOL0     H37251   5.993   3.818  10.819 -2.2553 -0.9326  0.7983
 1017MOL0     H37252   5.996   3.637  10.841 -0.1140  0.5079  4.2714
 1017MOL0     H37253   6.158   3.717  10.670 -0.8177  1.7923  0.6575
 1017MOL0     H37254   6.239   3.643  10.823 -1.5091  0.1242  2.8194
 1017MOL0     H37255   6.407   4.032  10.868  1.5590 -1.1498  1.5467
 1017MOL0     H37256   6.610   4.107  10.741  0.5672 -1.5024  3.2890
 1017MOL0     H37257   6.967   3.836  10.451  0.1701  0.4000 -0.8404
 1017MOL0     H37258   7.166   3.891  10.317 -0.2898 -0.3549 -0.2076
 1017MOL0     H37259   7.378   4.278  10.433 -0.9602 -1.9111  1.3187
 1017MOL0     H37260   7.487   4.151  10.411  2.8638  1.7327 -1.6903
 1017MOL0     H37261   7.370   4.308  10.173 -0.1604 -0.1502  0.1396
 1017MOL0     H37262   7.495   4.386  10.268  0.1073  0.0222  0.2863
 1017MOL0     H37263   7.662   4.281  10.178 -1.6225  3.1289 -1.5793
 1017MOL0     H37264   7.588   4.118  10.195 -0.5199  0.8376  1.5959
 1017MOL0     H37265   7.505   4.296   9.955 -1.1563 -0.0475  0.7219
 1017MOL0     H37266   7.491   4.117   9.981  1.0733 -1.2057 -0.7598
 1017MOL0     H37267   7.764   4.112   9.989 -1.4570 -0.3626 -0.0047
 1017MOL0     H37268   7.756   4.285   9.975  0.3207 -0.7679 -0.3144
 1017MOL0     H37269   7.662   4.282   9.749 -1.7770 -1.3243 -1.5313
 1017MOL0     H37270   7.796   4.189   9.755 -0.7709  3.0596 -1.6576
 1017MOL0     H37271   7.509   4.085   9.724 -0.4231 -2.6203 -1.9012
 1017MOL0     H37272   7.614   3.990   9.822  4.1354  5.3246  5.9178
 1017MOL0     H37273   7.755   3.941   9.622  0.4688  0.3066  2.6757
 1017MOL0     H37274   7.592   3.933   9.564 -1.5904  1.8382  2.7704
 1017MOL0     H37275   7.183   4.282  10.490 -0.3662 -0.6989  4.7014
 1017MOL0     H37276   6.991   4.234  10.612  0.1842  0.5545 -0.3513
 1017MOL0     H37277   6.566   3.722  10.519 -3.6574 -0.6682 -0.3062
 1017MOL0     H37278   6.357   3.705  10.610 -0.3857  2.1079 -2.4307
 1017MOL0     H37279   6.984   2.839  10.959  0.9498 -0.5409 -1.3415
 1017MOL0     H37280   7.159   2.707  10.880  0.0973  0.3350 -1.1446
 1017MOL0     H37281   7.645   2.701  10.809 -2.1436 -0.4281  1.8754
 1017MOL0     H37282   7.870   2.615  10.749 -0.1070 -1.2022  0.0255
 1017MOL0     H37283   8.032   2.268  11.000 -1.2071 -0.3243  0.0223
 1017MOL0     H37284   8.097   2.423  11.042 -0.8893 -0.8143  1.2415
 1017MOL0     H37285   8.294   2.281  10.973  1.9104  0.4510 -0.8491
 1017MOL0     H37286   8.266   2.408  10.860 -0.7084 -0.2994 -0.3278
 1017MOL0     H37287   8.123   2.135  10.825 -0.2175  0.8147 -0.8899
 1017MOL0     H37288   8.291   2.140  10.774  0.2762  0.5921 -0.1803
 1017MOL0     H37289   8.043   2.269  10.668  0.3098  0.8493  2.8714
 1017MOL0     H37290   8.206   2.330  10.616  1.1979 -0.6787 -1.4128
 1017MOL0     H37291   8.192   1.973  10.399  1.7671 -0.4514 -0.6183
 1017MOL0     H37292   7.842   2.321  11.055 -0.0699 -2.0043 -2.0579
 1017MOL0     H37293   7.602   2.469  11.243 -1.2483  0.3705 -0.6480
 1017MOL0     H37294   7.515   2.355  11.129 -1.0219  0.2228 -0.3888
 1017MOL0     H37295   7.676   2.327  11.216 -1.2535  0.6059  0.9492
 1018MOL0     O37296   6.182   5.605   3.012 -0.1591  0.5772 -1.0539
 1018MOL0     C37297   6.186   5.709   3.085  0.2032 -0.1740  1.4594
 1018MOL0     O37298   6.112   5.740   3.195  0.0934  0.6776 -0.1653
 1018MOL0     C37299   6.055   5.637   3.258  0.3049  0.0839 -0.4572
 1018MOL0     C37300   6.121   5.574   3.363  0.7921 -0.0049  0.3837
 1018MOL0     C37301   6.082   5.457   3.427  0.4549 -0.5228  0.9352
 1018MOL0     C37302   5.969   5.399   3.385  0.7298 -0.1485  0.4563
 1018MOL0     O37303   5.924   5.276   3.428 -0.6068  0.7136  0.1334
 1018MOL0     C37304   5.986   5.220   3.545  0.5338 -0.0604  0.7864
 1018MOL0     C37305   5.899   5.099   3.592  0.3274  0.6401 -0.1406
 1018MOL0     C37306   5.909   5.066   3.750 -0.4107  0.1854  1.1264
 1018MOL0     C37307   6.006   4.941   3.773 -0.1965  0.2974  0.4058
 1018MOL0     C37308   6.020   4.918   3.920  0.8504 -1.0215  0.0119
 1018MOL0     C37309   6.087   4.793   3.966  0.4457 -0.7908 -0.6820
 1018MOL0     C37310   6.051   4.759   4.106 -1.0406 -0.8209 -0.2084
 1018MOL0     C37311   6.140   4.849   4.198 -0.2858 -0.5080 -0.8865
 1018MOL0     N37312   6.122   4.837   4.338 -0.1944  0.3594 -0.4619
 1018MOL0     C37313   6.117   4.726   4.412 -0.0189 -0.3360  0.2877
 1018MOL0     C37314   6.080   4.762   4.537  0.4138  0.0323  0.0469
 1018MOL0     C37315   6.044   4.683   4.661 -0.4514  1.2712  0.9986
 1018MOL0     C37316   5.906   4.614   4.643  1.4994  0.1171  0.2719
 1018MOL0     C37317   5.835   4.593   4.776 -0.5246 -0.1576 -0.4260
 1018MOL0     C37318   5.884   4.476   4.850 -0.5853 -1.0241 -0.0240
 1018MOL0     O37319   5.989   4.521   4.951  0.1374 -0.2799 -0.4770
 1018MOL0     C37320   6.114   4.453   4.969  0.6976 -0.7850  0.8189
 1018MOL0     C37321   6.204   4.497   5.066  0.3985 -0.1364  0.7707
 1018MOL0     C37322   6.330   4.446   5.065  0.5853 -0.6813 -0.3652
 1018MOL0     C37323   6.366   4.333   4.995  0.1920 -0.2484  0.0121
 1018MOL0     C37324   6.504   4.275   4.999  0.4506  0.2292  0.7601
 1018MOL0     O37325   6.582   4.304   5.115  0.2072 -0.1239 -0.1694
 1018MOL0     C37326   6.700   4.241   5.142  0.4661 -0.0336 -0.0550
 1018MOL0     C37327   6.729   4.226   5.279 -0.9508 -0.4578 -0.8251
 1018MOL0     C37328   6.829   4.152   5.332 -0.1697 -0.3393 -0.9749
 1018MOL0     C37329   6.926   4.101   5.242 -0.1068 -0.2795  0.6957
 1018MOL0     O37330   7.041   4.037   5.284 -0.3795 -0.1651 -1.0439
 1018MOL0     C37331   7.074   4.067   5.420 -0.2376  0.1156 -0.7640
 1018MOL0     C37332   7.216   4.017   5.458  0.5963 -0.3665  0.0841
 1018MOL0     C37333   7.240   4.005   5.605  1.2249  0.1383  0.2529
 1018MOL0     C37334   7.389   3.976   5.645  0.0093  0.3908 -0.1654
 1018MOL0     C37335   7.382   3.822   5.666 -0.0895 -0.3872 -1.2004
 1018MOL0     C37336   7.520   3.756   5.683 -0.6933  0.4119 -1.1270
 1018MOL0     C37337   7.614   3.816   5.793 -0.7009 -0.1649 -0.2920
 1018MOL0     C37338   7.536   3.807   5.934 -0.5981 -0.8778  0.2078
 1018MOL0    Cl37339   7.645   3.862   6.064 -0.0260 -0.1653  0.1776
 1018MOL0     C37340   6.906   4.113   5.105  0.2490  1.2108 -0.4751
 1018MOL0     C37341   6.794   4.180   5.057 -0.4337  0.4806  0.4507
 1018MOL0     O37342   6.542   4.204   4.902 -0.2972 -0.0695 -0.9897
 1018MOL0     C37343   6.269   4.290   4.896 -0.5433  1.1186  0.6062
 1018MOL0     C37344   6.145   4.344   4.885  0.4211  0.1996  1.2238
 1018MOL0     N37345   6.061   4.897   4.535  0.0188 -0.1093 -0.5164
 1018MOL0     N37346   6.074   4.934   4.416 -0.8174 -0.6419  0.1382
 1018MOL0     C37347   5.879   5.466   3.295  0.0315 -0.8184 -0.3071
 1018MOL0     C37348   5.926   5.584   3.227 -0.4340 -0.4920  0.7102
 1018MOL0     C37349   6.273   5.823   3.030  0.4962  0.1728 -0.0686
 1018MOL0     C37350   6.268   5.944   3.095 -0.1415 -0.5420  1.6122
 1018MOL0     C37351   6.342   6.050   3.053 -0.3378 -0.3089 -0.1504
 1018MOL0     C37352   6.426   6.039   2.946 -0.0670 -0.7043  0.4216
 1018MOL0     O37353   6.480   6.161   2.893 -0.4135  0.5509 -0.5491
 1018MOL0     C37354   6.578   6.148   2.791  0.7195  0.3205 -0.1732
 1018MOL0     C37355   6.640   6.279   2.757  0.1227  0.1623  0.1075
 1018MOL0     C37356   6.715   6.348   2.880 -0.0020  0.0555  0.0890
 1018MOL0     C37357   6.628   6.453   2.949 -0.3766  0.2073  0.2841
 1018MOL0     C37358   6.579   6.394   3.072  0.2542  0.5705  0.7205
 1018MOL0     C37359   6.568   6.347   3.182 -0.2371  0.0211 -0.5481
 1018MOL0     C37360   6.442   5.920   2.891  0.4519 -0.2057 -0.5491
 1018MOL0     C37361   6.360   5.819   2.924  0.3683 -0.1846 -0.4028
 1018MOL0     C37362   6.398   5.695   2.849 -0.5066 -0.0306  0.5323
 1018MOL0     H37363   6.225   5.595   3.385  0.0606  1.8643  2.3987
 1018MOL0     H37364   6.149   5.415   3.502  1.5654  0.0278  0.2882
 1018MOL0     H37365   6.089   5.186   3.538  0.0969 -1.9140  2.5928
 1018MOL0     H37366   5.972   5.289   3.629 -0.0734 -1.3037  1.7265
 1018MOL0     H37367   5.924   5.010   3.533  0.3478  0.5019  0.0792
 1018MOL0     H37368   5.792   5.121   3.582  0.3813  1.3917  0.8369
 1018MOL0     H37369   5.808   5.042   3.784 -0.3684  0.6924  1.6154
 1018MOL0     H37370   5.939   5.150   3.813 -1.5520  1.0845  0.5257
 1018MOL0     H37371   5.956   4.862   3.717  0.2977  1.6858 -2.1459
 1018MOL0     H37372   6.094   4.971   3.716 -0.7905 -1.4771 -1.5589
 1018MOL0     H37373   6.075   5.005   3.957  0.2445 -0.5251 -0.2187
 1018MOL0     H37374   5.916   4.927   3.954  0.1403 -0.4876 -2.0750
 1018MOL0     H37375   6.054   4.712   3.902  0.5967 -0.1354 -1.6086
 1018MOL0     H37376   6.194   4.811   3.948  0.2447  0.1829 -0.9819
 1018MOL0     H37377   6.061   4.654   4.135  0.2590 -0.1225  2.1540
 1018MOL0     H37378   5.949   4.786   4.135 -0.7749  3.0817 -2.2103
 1018MOL0     H37379   6.244   4.826   4.175  0.6671  1.4645  1.0602
 1018MOL0     H37380   6.132   4.953   4.163 -1.2663 -1.3144 -3.2792
 1018MOL0     H37381   6.136   4.626   4.373 -1.3594 -0.6644  0.4001
 1018MOL0     H37382   6.122   4.607   4.666  0.9432  1.7472 -5.3949
 1018MOL0     H37383   6.060   4.743   4.752  0.9842  2.1543  0.2023
 1018MOL0     H37384   5.838   4.670   4.580  1.0453 -0.9701 -0.2319
 1018MOL0     H37385   5.916   4.520   4.588  3.3518  1.1198 -1.2258
 1018MOL0     H37386   5.734   4.579   4.737  0.2936 -1.0563 -2.3852
 1018MOL0     H37387   5.845   4.677   4.845 -1.3045 -1.1498  0.9518
 1018MOL0     H37388   5.924   4.406   4.776 -1.3350 -1.5404  0.0445
 1018MOL0     H37389   5.799   4.433   4.903  1.3015 -2.0811  2.3924
 1018MOL0     H37390   6.188   4.584   5.129 -1.0029  0.3492 -0.2147
 1018MOL0     H37391   6.401   4.490   5.134  0.7509 -2.0218  0.3505
 1018MOL0     H37392   6.656   4.273   5.343  1.8182  1.7678  0.8887
 1018MOL0     H37393   6.846   4.134   5.437 -0.4200  0.7511 -0.7392
 1018MOL0     H37394   7.086   4.174   5.440  0.0618 -0.3967  2.3167
 1018MOL0     H37395   7.009   4.017   5.493 -0.9568  3.2431  0.9187
 1018MOL0     H37396   7.233   3.914   5.425  0.1273  0.0427 -1.5493
 1018MOL0     H37397   7.294   4.079   5.413 -1.1458  2.0552  0.1777
 1018MOL0     H37398   7.209   4.103   5.641 -1.2796 -0.4085 -0.1773
 1018MOL0     H37399   7.164   3.939   5.649 -0.6865  2.1632  0.1743
 1018MOL0     H37400   7.405   4.032   5.738 -3.2444 -2.5167  2.4066
 1018MOL0     H37401   7.460   4.003   5.566 -3.3743  0.8270 -3.3450
 1018MOL0     H37402   7.324   3.764   5.594 -0.5935 -3.8884  1.7377
 1018MOL0     H37403   7.327   3.810   5.759  1.9758 -0.7428  0.0361
 1018MOL0     H37404   7.497   3.652   5.708  1.5723  0.3105  0.9204
 1018MOL0     H37405   7.572   3.747   5.587 -1.5208  2.2962 -1.7936
 1018MOL0     H37406   7.640   3.921   5.775 -2.1514  0.5354  1.3786
 1018MOL0     H37407   7.706   3.758   5.801 -0.7424 -0.0392  1.3660
 1018MOL0     H37408   7.445   3.867   5.939  1.4985  2.8394 -1.7922
 1018MOL0     H37409   7.512   3.700   5.944  1.2041 -1.3484 -0.1624
 1018MOL0     H37410   6.983   4.059   5.051  2.1674  2.6158  0.7553
 1018MOL0     H37411   6.776   4.193   4.951  1.2233 -0.3406  0.0319
 1018MOL0     H37412   6.296   4.214   4.824  4.5725  0.7869  2.4190
 1018MOL0     H37413   6.092   4.311   4.796  1.1047  0.3487  0.7571
 1018MOL0     H37414   5.778   5.437   3.268  0.2243 -0.3310 -1.5777
 1018MOL0     H37415   5.860   5.629   3.154 -0.0811 -0.6820  0.2641
 1018MOL0     H37416   6.215   5.957   3.189  0.5855  3.0454  1.6507
 1018MOL0     H37417   6.324   6.149   3.094  1.3863  0.2989 -0.7840
 1018MOL0     H37418   6.530   6.100   2.705 -0.5917  0.4286  0.4764
 1018MOL0     H37419   6.658   6.084   2.831 -1.9547 -1.6437  2.4545
 1018MOL0     H37420   6.549   6.335   2.729  0.4087  2.5544  3.3769
 1018MOL0     H37421   6.706   6.257   2.673  0.3242 -0.9491  0.5420
 1018MOL0     H37422   6.804   6.395   2.838 -0.1154 -0.8206 -1.1578
 1018MOL0     H37423   6.750   6.279   2.957  1.3996 -1.3403 -1.7425
 1018MOL0     H37424   6.687   6.543   2.970  2.0031 -1.0144 -0.7750
 1018MOL0     H37425   6.542   6.479   2.887  0.7189  1.1642 -0.8889
 1018MOL0     H37426   6.570   6.308   3.281 -2.2998 -0.5004 -0.6662
 1018MOL0     H37427   6.510   5.909   2.807  0.4597 -0.3311 -0.5265
 1018MOL0     H37428   6.434   5.714   2.747  0.8835  0.0281  1.0184
 1018MOL0     H37429   6.471   5.630   2.898 -2.7132 -1.1385  2.5432
 1018MOL0     H37430   6.303   5.641   2.835 -0.0501 -1.0722  1.3312
 1019MOL0     O37431   3.236   6.049  10.225  0.2079 -0.6030 -0.0756
 1019MOL0     C37432   3.306   5.976  10.158  0.0532  0.9293  0.6071
 1019MOL0     O37433   3.331   5.844  10.191  0.0658 -0.4380 -0.0012
 1019MOL0     C37434   3.257   5.789  10.287  0.2658  0.7938 -0.2441
 1019MOL0     C37435   3.314   5.737  10.402  0.0584  0.3819 -0.6350
 1019MOL0     C37436   3.238   5.652  10.492 -0.6235  0.6565 -0.8919
 1019MOL0     C37437   3.100   5.635  10.474  0.0564 -0.2617  0.0053
 1019MOL0     O37438   3.033   5.555  10.554  0.2967 -0.1809  0.0183
 1019MOL0     C37439   2.911   5.504  10.503 -0.5445 -0.0413 -0.8599
 1019MOL0     C37440   2.848   5.393  10.580  0.8354 -0.1573 -0.1950
 1019MOL0     C37441   2.704   5.354  10.522 -1.0145  0.7382 -0.2330
 1019MOL0     C37442   2.648   5.215  10.575  0.5550 -0.0558  0.6256
 1019MOL0     C37443   2.522   5.188  10.495 -0.1808  0.1961 -0.4751
 1019MOL0     C37444   2.507   5.036  10.456 -0.7110 -0.2429 -0.4043
 1019MOL0     C37445   2.547   4.927  10.564 -0.1363  0.4680 -0.1102
 1019MOL0     C37446   2.429   4.831  10.587  0.3912 -0.2343  0.6792
 1019MOL0     N37447   2.484   4.707  10.646 -0.0881 -0.6165 -0.2899
 1019MOL0     C37448   2.480   4.664  10.775 -1.0666 -0.8535 -0.6069
 1019MOL0     C37449   2.542   4.546  10.765 -0.4519 -0.4554 -0.2387
 1019MOL0     C37450   2.578   4.443  10.869 -0.2143  0.3883  0.2143
 1019MOL0     C37451   2.694   4.484  10.970  0.5218 -0.5520 -0.0546
 1019MOL0     C37452   2.825   4.479  10.904 -0.1668  0.2551 -0.3304
 1019MOL0     C37453   2.853   4.600  10.808 -0.3211 -0.3485  0.3653
 1019MOL0     O37454   2.997   4.624  10.784 -0.4188 -0.4615 -0.8600
 1019MOL0     C37455   3.031   4.733  10.709 -0.6320  0.2738  0.0802
 1019MOL0     C37456   3.164   4.778  10.726  0.6206 -0.4006 -0.3198
 1019MOL0     C37457   3.212   4.873  10.635 -0.0766 -0.1992  0.3480
 1019MOL0     C37458   3.128   4.925  10.533  0.2635  0.1772 -1.0287
 1019MOL0     C37459   3.186   5.021  10.444  0.5825 -0.1144  0.4037
 1019MOL0     O37460   3.123   5.029  10.320  0.3522 -0.2671  0.4605
 1019MOL0     C37461   3.153   5.143  10.242 -0.7652 -0.6949 -0.3254
 1019MOL0     C37462   3.200   5.121  10.116  0.3370 -0.0482  1.2470
 1019MOL0     C37463   3.222   5.225  10.021 -0.0917  0.8353  0.6622
 1019MOL0     C37464   3.230   5.356  10.071 -0.1552  0.8630  0.7932
 1019MOL0     O37465   3.253   5.468   9.994  0.0687  0.5653  0.1846
 1019MOL0     C37466   3.240   5.459   9.856 -0.5059 -0.5219  0.1347
 1019MOL0     C37467   3.271   5.597   9.793  0.3273 -0.2935  0.0468
 1019MOL0     C37468   3.288   5.575   9.642 -0.5001 -0.6458 -0.3882
 1019MOL0     C37469   3.343   5.693   9.559 -0.5979  0.9328 -0.2278
 1019MOL0     C37470   3.374   5.663   9.409  0.0566  0.2178  0.7238
 1019MOL0     C37471   3.252   5.607   9.324  0.5474  0.0182 -0.3232
 1019MOL0     C37472   3.154   5.721   9.314  0.0862 -0.7060  0.2647
 1019MOL0     C37473   3.021   5.690   9.233 -0.7992  0.2848 -0.3701
 1019MOL0    Cl37474   3.060   5.681   9.056  0.2375 -0.1607  0.3566
 1019MOL0     C37475   3.202   5.382  10.206 -0.8501  0.0868 -0.2219
 1019MOL0     C37476   3.158   5.273  10.283  0.0650 -1.5863  0.2623
 1019MOL0     O37477   3.284   5.078  10.476  0.6998 -0.2401 -0.4476
 1019MOL0     C37478   2.995   4.881  10.523  0.5192  0.5257  0.6354
 1019MOL0     C37479   2.952   4.781  10.609 -0.8619  0.4599 -0.8251
 1019MOL0     N37480   2.578   4.518  10.638 -0.4242  0.8538  0.1642
 1019MOL0     N37481   2.555   4.617  10.562 -0.2382 -0.0700 -0.0601
 1019MOL0     C37482   3.039   5.686  10.358  0.4058 -0.6652  0.0236
 1019MOL0     C37483   3.121   5.770  10.270 -0.9433  0.0106  0.0137
 1019MOL0     C37484   3.347   6.028  10.025  0.1404  0.5558  0.3099
 1019MOL0     C37485   3.409   5.935   9.938  0.4040  1.0267 -0.0906
 1019MOL0     C37486   3.463   5.978   9.812  0.7267 -0.1104  0.8515
 1019MOL0     C37487   3.445   6.114   9.766  1.2774 -0.8083 -0.7285
 1019MOL0     O37488   3.477   6.167   9.642 -0.1795  0.4785 -0.5401
 1019MOL0     C37489   3.533   6.073   9.551 -0.8122  0.8669  0.1257
 1019MOL0     C37490   3.570   6.150   9.433 -0.1663 -0.2294  0.3242
 1019MOL0     C37491   3.458   6.215   9.350 -0.0702  0.4600 -0.3560
 1019MOL0     C37492   3.359   6.124   9.274  0.5174  0.3617  0.8169
 1019MOL0     C37493   3.430   6.031   9.183 -0.2519  0.8320  1.0557
 1019MOL0     C37494   3.500   5.953   9.116 -0.7454 -1.2468 -1.3219
 1019MOL0     C37495   3.389   6.206   9.855  0.7844  0.0623 -0.2343
 1019MOL0     C37496   3.335   6.161   9.975  0.2437  1.0380 -0.9342
 1019MOL0     C37497   3.294   6.276  10.063 -0.0444 -0.3655  0.3460
 1019MOL0     H37498   3.422   5.746  10.411  0.1321 -1.0497  0.1084
 1019MOL0     H37499   3.281   5.598  10.576 -0.4583  0.5857 -1.0219
 1019MOL0     H37500   2.846   5.592  10.493  0.5222  0.6377 -2.2218
 1019MOL0     H37501   2.929   5.465  10.402  1.6890  0.3509 -0.6731
 1019MOL0     H37502   2.832   5.426  10.683  1.7757  1.4616 -0.5208
 1019MOL0     H37503   2.919   5.312  10.602  0.7871  0.1227  1.0869
 1019MOL0     H37504   2.724   5.366  10.416 -0.1234  4.3103  0.1800
 1019MOL0     H37505   2.629   5.431  10.543 -1.7758 -0.2446  0.7721
 1019MOL0     H37506   2.718   5.131  10.566 -2.9170 -3.2022  0.1803
 1019MOL0     H37507   2.635   5.218  10.684  1.7513 -0.4477  0.7933
 1019MOL0     H37508   2.435   5.224  10.551  0.6526 -0.1265  1.0912
 1019MOL0     H37509   2.519   5.243  10.400 -1.1765 -1.0252 -1.1743
 1019MOL0     H37510   2.408   5.016  10.414 -1.0667 -0.2124  0.3912
 1019MOL0     H37511   2.574   5.022  10.371 -1.0465  0.8635 -0.8694
 1019MOL0     H37512   2.572   4.978  10.658 -1.8443  0.1803  0.5347
 1019MOL0     H37513   2.640   4.878  10.533  1.2881  2.5095  0.7408
 1019MOL0     H37514   2.348   4.866  10.651 -2.3649 -0.6075 -2.3380
 1019MOL0     H37515   2.377   4.796  10.497 -0.4258 -1.7892  1.7067
 1019MOL0     H37516   2.431   4.724  10.852  0.0593 -0.0581 -0.4905
 1019MOL0     H37517   2.485   4.407  10.915  1.4396 -2.5273  1.5987
 1019MOL0     H37518   2.617   4.348  10.831  1.3555  0.4345  1.5906
 1019MOL0     H37519   2.687   4.581  11.020  1.5817 -0.5663  0.1496
 1019MOL0     H37520   2.700   4.395  11.034  1.1189 -1.7036 -1.6226
 1019MOL0     H37521   2.843   4.389  10.844  0.5156 -0.3648  0.7689
 1019MOL0     H37522   2.899   4.473  10.985  3.1563  1.7667 -2.9806
 1019MOL0     H37523   2.797   4.691  10.830  0.2706  0.6028 -1.7453
 1019MOL0     H37524   2.826   4.562  10.709 -1.3231  1.7022 -0.2060
 1019MOL0     H37525   3.221   4.726  10.802  1.9717 -1.7428 -2.1708
 1019MOL0     H37526   3.311   4.915  10.650 -0.4160  2.0130 -2.6940
 1019MOL0     H37527   3.202   5.021  10.073 -1.8795  0.2650  0.2957
 1019MOL0     H37528   3.260   5.193   9.924 -0.0880  1.1530  0.5574
 1019MOL0     H37529   3.318   5.388   9.828  0.0152 -0.0681  0.4143
 1019MOL0     H37530   3.139   5.422   9.834 -0.6634  0.0750 -0.1712
 1019MOL0     H37531   3.183   5.663   9.796  1.1263  0.8197 -0.1172
 1019MOL0     H37532   3.357   5.641   9.844  1.6541 -1.0890 -1.4228
 1019MOL0     H37533   3.361   5.495   9.627  0.3068 -0.3549  1.6344
 1019MOL0     H37534   3.188   5.544   9.610 -1.7516  0.1725  2.3786
 1019MOL0     H37535   3.442   5.722   9.595  0.3367 -0.9817 -1.1470
 1019MOL0     H37536   3.277   5.779   9.579  0.7383  1.9781 -0.1402
 1019MOL0     H37537   3.450   5.584   9.407  1.3747  1.4368  1.0512
 1019MOL0     H37538   3.417   5.750   9.358 -0.1809  0.6115  1.1932
 1019MOL0     H37539   3.284   5.594   9.220 -1.9629 -1.7856 -0.9549
 1019MOL0     H37540   3.214   5.517   9.373  0.6146  1.8534  3.4043
 1019MOL0     H37541   3.206   5.806   9.268 -0.7213 -0.7004 -0.6823
 1019MOL0     H37542   3.125   5.756   9.413  0.5526  0.4254  0.0167
 1019MOL0     H37543   2.985   5.597   9.279 -0.1013 -0.0298 -0.4463
 1019MOL0     H37544   2.934   5.756   9.241 -1.6502 -0.8761  0.2166
 1019MOL0     H37545   3.211   5.482  10.248  2.2196  0.5133 -1.6378
 1019MOL0     H37546   3.126   5.303  10.383  2.4011 -0.7020  0.8199
 1019MOL0     H37547   2.922   4.927  10.457  0.5248  1.7895  1.4758
 1019MOL0     H37548   2.849   4.747  10.610 -0.5004 -0.6818  1.0209
 1019MOL0     H37549   2.936   5.684  10.322 -0.0265  2.5235  0.8143
 1019MOL0     H37550   3.070   5.823  10.190  1.0915  3.4181  0.7922
 1019MOL0     H37551   3.404   5.831   9.966 -1.5720  0.7789 -1.1528
 1019MOL0     H37552   3.526   5.917   9.748  3.6935  1.5346  2.0032
 1019MOL0     H37553   3.465   5.991   9.528  1.8119 -2.1879  2.4185
 1019MOL0     H37554   3.622   6.021   9.589  1.4019  1.9318 -3.2029
 1019MOL0     H37555   3.623   6.075   9.373  1.4282  0.7799  0.4315
 1019MOL0     H37556   3.641   6.225   9.468  1.9657 -1.9893 -0.0398
 1019MOL0     H37557   3.497   6.279   9.270  1.3692  1.8341  1.3756
 1019MOL0     H37558   3.408   6.282   9.420 -1.6399 -0.3335 -0.6500
 1019MOL0     H37559   3.291   6.067   9.338  0.8573 -1.4596 -0.3718
 1019MOL0     H37560   3.292   6.194   9.223  0.7169  1.2801  1.7785
 1019MOL0     H37561   3.566   5.880   9.074  1.6255 -0.6912  1.1481
 1019MOL0     H37562   3.396   6.313   9.843 -1.1259  0.4620  1.5295
 1019MOL0     H37563   3.206   6.260  10.126  1.1143 -1.7530  1.7132
 1019MOL0     H37564   3.372   6.292  10.138  3.3562 -1.3613 -2.6862
 1019MOL0     H37565   3.273   6.365  10.004  1.8200  0.1786  0.4441
 1020MOL0     O37566   5.816   6.683  11.436  0.3542  0.7009 -0.3642
 1020MOL0     C37567   5.929   6.628  11.427  0.2562 -0.2303  0.2723
 1020MOL0     O37568   6.035   6.671  11.503 -0.1384 -0.3776 -0.0479
 1020MOL0     C37569   6.030   6.792  11.575 -0.3265  0.6915  0.3974
 1020MOL0     C37570   5.998   6.793  11.715 -0.5005 -0.0580  0.4129
 1020MOL0     C37571   5.994   6.920  11.779 -1.2050 -0.3290 -0.1888
 1020MOL0     C37572   6.017   7.041  11.709 -0.5864  0.4156 -0.1776
 1020MOL0     O37573   6.033   7.163  11.773  0.4752 -0.3899 -0.3450
 1020MOL0     C37574   5.935   7.206  11.865  0.1765  0.0641  0.3574
 1020MOL0     C37575   5.975   7.336  11.917 -0.3593  0.2736 -0.8614
 1020MOL0     C37576   5.960   7.449  11.822 -0.2978  0.1676 -0.9700
 1020MOL0     C37577   5.994   7.582  11.886 -0.3130  0.2137 -0.4614
 1020MOL0     C37578   5.980   7.697  11.785  0.8677  1.1365 -0.2109
 1020MOL0     C37579   5.949   7.832  11.860 -0.3060 -0.1251 -0.4378
 1020MOL0     C37580   6.068   7.905  11.913  0.1367 -0.6354  0.1191
 1020MOL0     C37581   6.034   8.046  11.975 -0.1232  0.3537  0.0062
 1020MOL0     N37582   5.949   8.034  12.097  0.3381  0.1750  0.0405
 1020MOL0     C37583   5.821   8.076  12.114  0.4040  0.5923 -0.9838
 1020MOL0     C37584   5.788   8.047  12.238 -0.0955  0.1080  0.6277
 1020MOL0     C37585   5.657   8.086  12.288 -1.0493  1.3388  0.1349
 1020MOL0     C37586   5.658   8.075  12.441 -0.3747  0.8534 -0.3492
 1020MOL0     C37587   5.510   8.061  12.494 -0.7370  0.4827  0.4217
 1020MOL0     C37588   5.511   8.039  12.649  0.5514 -0.6448 -0.3857
 1020MOL0     O37589   5.541   8.155  12.723  0.3664 -1.0778 -0.7430
 1020MOL0     C37590   5.469   8.192  12.837  0.0854  1.0169  0.0939
 1020MOL0     C37591   5.423   8.095  12.932 -0.2622 -0.3996 -0.7869
 1020MOL0     C37592   5.354   8.139  13.050 -0.0126 -0.3047 -0.4490
 1020MOL0     C37593   5.348   8.283  13.085  0.5314  0.4013 -0.4160
 1020MOL0     C37594   5.290   8.332  13.210  0.0319 -0.4803 -0.2870
 1020MOL0     O37595   5.253   8.463  13.216  0.0491 -0.0053  0.0125
 1020MOL0     C37596   5.209   8.532  13.326  0.0474  0.5921  0.5026
 1020MOL0     C37597   5.217   8.664  13.288 -0.6006  0.0494  0.5963
 1020MOL0     C37598   5.185   8.765  13.379 -0.0039  0.1162 -0.7357
 1020MOL0     C37599   5.137   8.729  13.507  0.8607  0.1531 -0.0068
 1020MOL0     O37600   5.076   8.813  13.594  0.3989 -0.7091 -0.8828
 1020MOL0     C37601   5.148   8.818  13.720 -0.6379 -0.1246 -0.6761
 1020MOL0     C37602   5.103   8.943  13.804 -0.8885 -1.0910  0.2921
 1020MOL0     C37603   5.181   9.068  13.748  0.3593  0.0469 -0.0331
 1020MOL0     C37604   5.102   9.199  13.765 -0.7808  1.0215  0.2187
 1020MOL0     C37605   5.206   9.317  13.762 -0.4456  0.8118  0.3033
 1020MOL0     C37606   5.152   9.452  13.724  0.2446  0.2523  0.9992
 1020MOL0     C37607   5.100   9.464  13.579 -0.5710 -0.6908 -0.8501
 1020MOL0     C37608   5.188   9.402  13.473  0.2929 -0.3651 -0.1718
 1020MOL0    Cl37609   5.357   9.487  13.476  0.2380 -0.0547 -0.1020
 1020MOL0     C37610   5.117   8.592  13.536 -0.1313 -0.1227  1.0234
 1020MOL0     C37611   5.164   8.493  13.446 -0.4328  0.5247 -0.6059
 1020MOL0     O37612   5.281   8.257  13.308 -0.7060 -0.1458 -0.8466
 1020MOL0     C37613   5.393   8.375  12.985 -0.7216  0.1554 -0.0649
 1020MOL0     C37614   5.447   8.326  12.860 -0.0799  0.5199  0.6192
 1020MOL0     N37615   5.910   7.992  12.295  0.5156  0.2162 -0.2378
 1020MOL0     N37616   5.998   7.975  12.211  0.5225  0.7910  0.0504
 1020MOL0     C37617   6.052   7.030  11.571  0.4071  0.1956 -0.0395
 1020MOL0     C37618   6.049   6.909  11.500 -0.7271  0.0388 -0.2907
 1020MOL0     C37619   5.930   6.503  11.348 -0.5410  0.7820 -0.0872
 1020MOL0     C37620   5.819   6.466  11.281  1.1692 -0.1180 -0.0188
 1020MOL0     C37621   5.804   6.364  11.190  0.5453 -0.6712  0.1320
 1020MOL0     C37622   5.910   6.272  11.181 -0.2776  0.2515 -0.0239
 1020MOL0     O37623   5.887   6.164  11.106  0.2834  0.3018 -0.5609
 1020MOL0     C37624   5.997   6.073  11.076 -0.0345  0.2389 -0.5063
 1020MOL0     C37625   5.949   5.943  11.011  0.5135  0.4521 -0.6861
 1020MOL0     C37626   5.825   5.890  11.092  0.4111  0.0791  0.7607
 1020MOL0     C37627   5.879   5.817  11.210  0.1860 -0.7733 -0.4197
 1020MOL0     C37628   5.782   5.735  11.282  0.3456 -0.5743  0.1560
 1020MOL0     C37629   5.712   5.658  11.345  0.2914 -0.3889  0.7800
 1020MOL0     C37630   6.029   6.302  11.255  0.3566  0.1158  0.2513
 1020MOL0     C37631   6.036   6.413  11.344 -0.2366  0.1901  0.3436
 1020MOL0     C37632   6.173   6.441  11.404  0.7791 -0.3576 -0.3528
 1020MOL0     H37633   5.986   6.700  11.769  0.7943 -0.9313 -0.7345
 1020MOL0     H37634   5.983   6.926  11.887 -2.4700  1.4370 -0.3678
 1020MOL0     H37635   5.846   7.205  11.801  0.2257 -1.2867  0.2671
 1020MOL0     H37636   5.918   7.138  11.948  1.8059  2.3677  2.7158
 1020MOL0     H37637   6.083   7.336  11.938 -0.4094  0.0917 -0.6016
 1020MOL0     H37638   5.928   7.360  12.012  2.1383 -1.1896  0.8875
 1020MOL0     H37639   5.856   7.457  11.789 -0.7347 -1.7290 -0.1985
 1020MOL0     H37640   6.017   7.432  11.730 -1.5775 -0.0846 -1.7593
 1020MOL0     H37641   5.932   7.599  11.975 -1.4427  0.0506 -1.2120
 1020MOL0     H37642   6.093   7.560  11.928 -0.5381  0.2262  0.0863
 1020MOL0     H37643   6.065   7.691  11.717  3.1904  1.4324  2.4565
 1020MOL0     H37644   5.886   7.688  11.731 -0.5484  4.7202  1.3624
 1020MOL0     H37645   5.912   7.895  11.778 -2.2829  1.2911  1.4237
 1020MOL0     H37646   5.867   7.833  11.932 -1.0639  0.7607 -1.2924
 1020MOL0     H37647   6.137   7.912  11.828 -0.3398  1.9461 -0.1146
 1020MOL0     H37648   6.120   7.849  11.992  0.0626 -1.0833 -0.1452
 1020MOL0     H37649   6.132   8.087  12.002  0.2360 -1.3430  1.4820
 1020MOL0     H37650   5.985   8.110  11.901 -0.8254 -0.3189 -0.1269
 1020MOL0     H37651   5.750   8.112  12.040 -2.1533 -1.5962  0.2464
 1020MOL0     H37652   5.644   8.192  12.266 -4.2351  0.6787 -1.8027
 1020MOL0     H37653   5.582   8.024  12.238 -1.1555 -2.4996  4.4093
 1020MOL0     H37654   5.722   7.992  12.473 -2.5885 -0.8810 -0.1538
 1020MOL0     H37655   5.706   8.158  12.494  0.0310  0.2313  0.2782
 1020MOL0     H37656   5.458   7.982  12.438 -0.0087  0.6796 -0.5566
 1020MOL0     H37657   5.452   8.150  12.468 -0.4402 -0.2706 -3.4345
 1020MOL0     H37658   5.595   7.971  12.671  2.3364  0.4648 -3.1481
 1020MOL0     H37659   5.412   8.002  12.678  1.2483 -1.3778  1.1827
 1020MOL0     H37660   5.424   7.991  12.902 -2.3321 -1.2167  1.6235
 1020MOL0     H37661   5.325   8.067  13.126 -0.1071 -0.3334 -0.5112
 1020MOL0     H37662   5.248   8.688  13.187  1.2034 -0.0445  1.0979
 1020MOL0     H37663   5.173   8.867  13.342  0.3955  1.3534  2.2375
 1020MOL0     H37664   5.134   8.728  13.781  1.9921 -2.0987 -2.7251
 1020MOL0     H37665   5.254   8.824  13.695 -0.0849 -1.3383  1.1082
 1020MOL0     H37666   4.994   8.949  13.807 -0.8928 -1.5849  1.7949
 1020MOL0     H37667   5.130   8.944  13.910  1.3332  2.1960 -0.1616
 1020MOL0     H37668   5.276   9.070  13.801 -0.2440 -0.3394  1.1021
 1020MOL0     H37669   5.195   9.045  13.642 -4.0099 -2.4367 -0.3291
 1020MOL0     H37670   5.058   9.208  13.865  0.9229  0.0054  1.1057
 1020MOL0     H37671   5.018   9.215  13.696 -0.4083  2.2995  0.0389
 1020MOL0     H37672   5.296   9.302  13.701  0.8336  2.5569  1.6559
 1020MOL0     H37673   5.253   9.323  13.860 -0.3311 -3.5311  0.7450
 1020MOL0     H37674   5.067   9.468  13.791  0.3080 -2.6952  1.8959
 1020MOL0     H37675   5.220   9.536  13.743  1.8319 -1.2296  2.1559
 1020MOL0     H37676   5.079   9.567  13.550 -0.9131 -0.8000 -0.9879
 1020MOL0     H37677   4.998   9.426  13.570 -1.2848  1.4313 -2.4926
 1020MOL0     H37678   5.201   9.297  13.501  0.4979  0.5440  3.7858
 1020MOL0     H37679   5.137   9.419  13.378  0.2231 -1.7559 -0.4030
 1020MOL0     H37680   5.075   8.578  13.636  1.5637 -0.4134  1.7302
 1020MOL0     H37681   5.150   8.387  13.464 -2.5622  1.0449  1.2840
 1020MOL0     H37682   5.384   8.483  12.987 -0.3734  0.2307 -1.4338
 1020MOL0     H37683   5.465   8.390  12.774  4.9673  0.8726  1.6796
 1020MOL0     H37684   6.086   7.127  11.539  1.1559 -0.1266 -0.2206
 1020MOL0     H37685   6.078   6.891  11.397 -0.7528 -0.3491 -0.2309
 1020MOL0     H37686   5.737   6.537  11.286  0.7020 -0.7444  1.8704
 1020MOL0     H37687   5.707   6.362  11.141  1.1288  1.6723 -1.3134
 1020MOL0     H37688   6.034   6.047  11.176 -2.7753  0.3077  0.6196
 1020MOL0     H37689   6.081   6.114  11.021  3.5473 -2.7173  2.2034
 1020MOL0     H37690   6.036   5.876  11.010 -0.8573 -1.4829  0.5894
 1020MOL0     H37691   5.921   5.964  10.908  3.4169  1.6001 -1.3357
 1020MOL0     H37692   5.763   5.820  11.035 -0.9741 -0.1909  2.5370
 1020MOL0     H37693   5.755   5.966  11.126  0.1650  0.5753 -0.7663
 1020MOL0     H37694   5.970   5.758  11.195  2.8111  2.5908  0.9240
 1020MOL0     H37695   5.906   5.887  11.290 -1.3972 -1.9558  1.2244
 1020MOL0     H37696   5.650   5.596  11.407  0.6206 -1.1923  0.3218
 1020MOL0     H37697   6.112   6.233  11.258  0.4570  0.1393 -1.1899
 1020MOL0     H37698   6.211   6.544  11.396 -0.2554 -0.0079 -0.9757
 1020MOL0     H37699   6.159   6.408  11.507 -1.3479  2.3279  0.3596
 1020MOL0     H37700   6.251   6.379  11.360  1.1038 -0.1134 -0.1293
 1021MOL0     O37701   0.625   3.332   3.170  0.6542  1.4042  0.0995
 1021MOL0     C37702   0.632   3.207   3.179 -0.3365 -0.1501 -0.0204
 1021MOL0     O37703   0.701   3.147   3.271 -0.4249  0.4988  0.2284
 1021MOL0     C37704   0.799   3.224   3.336  0.2803  0.3594  0.2599
 1021MOL0     C37705   0.912   3.262   3.254  0.3327 -0.1627 -0.1994
 1021MOL0     C37706   1.008   3.338   3.322  0.2809 -0.7812  0.9803
 1021MOL0     C37707   1.006   3.373   3.461 -0.3021  0.9038  1.3940
 1021MOL0     O37708   1.107   3.450   3.508 -0.1412  0.5154 -0.4906
 1021MOL0     C37709   1.106   3.506   3.641 -0.1495  0.4106  0.0002
 1021MOL0     C37710   1.251   3.540   3.669  0.1625  0.4233 -0.9643
 1021MOL0     C37711   1.261   3.554   3.823 -0.3155  0.2759  0.3660
 1021MOL0     C37712   1.201   3.674   3.886 -0.3624  0.0835  0.4640
 1021MOL0     C37713   1.287   3.706   4.015  0.8920 -0.5899 -0.8812
 1021MOL0     C37714   1.421   3.770   3.978 -0.7270  0.2201 -0.2997
 1021MOL0     C37715   1.529   3.724   4.082 -0.6326  0.3419 -0.4086
 1021MOL0     C37716   1.642   3.818   4.096  0.2646 -0.1809  0.7419
 1021MOL0     N37717   1.756   3.735   4.146  1.0317  0.2916 -0.5507
 1021MOL0     C37718   1.787   3.719   4.281 -0.0349 -0.3668 -0.0514
 1021MOL0     C37719   1.888   3.627   4.287 -0.6853  0.6553  0.6943
 1021MOL0     C37720   1.953   3.579   4.420  0.0550 -0.2179 -0.2738
 1021MOL0     C37721   1.961   3.688   4.529 -0.5342 -0.3685 -0.5406
 1021MOL0     C37722   2.064   3.800   4.496  0.5444  0.7331 -0.1624
 1021MOL0     C37723   2.201   3.741   4.472  1.1134  0.3156  1.2280
 1021MOL0     O37724   2.230   3.711   4.337 -0.3913 -0.2986  0.2031
 1021MOL0     C37725   2.330   3.617   4.306 -0.4204 -0.5219  0.4311
 1021MOL0     C37726   2.331   3.550   4.187  0.0084  0.3336 -0.4338
 1021MOL0     C37727   2.435   3.460   4.155  0.9004  1.6245 -0.5362
 1021MOL0     C37728   2.540   3.435   4.253 -0.1287 -0.3599  0.2227
 1021MOL0     C37729   2.648   3.342   4.226 -0.2562 -0.3583 -0.0580
 1021MOL0     O37730   2.677   3.298   4.095  0.7832  0.1963 -0.1980
 1021MOL0     C37731   2.802   3.241   4.089  0.2777  1.5508 -0.4936
 1021MOL0     C37732   2.911   3.307   4.040  0.3691 -0.3909 -0.1817
 1021MOL0     C37733   3.030   3.237   4.018  0.2016  0.9295  0.0558
 1021MOL0     C37734   3.043   3.103   4.050 -0.1501  0.2816 -0.9578
 1021MOL0     O37735   3.166   3.045   4.036  0.3929  0.0250  0.1524
 1021MOL0     C37736   3.171   2.911   3.987 -0.3642 -0.3061 -0.3644
 1021MOL0     C37737   3.313   2.865   3.949  0.1678  0.7037 -0.4265
 1021MOL0     C37738   3.382   2.960   3.846  0.2184  0.1942 -0.2351
 1021MOL0     C37739   3.371   2.913   3.700 -0.3109 -0.0854  0.2987
 1021MOL0     C37740   3.464   2.997   3.603 -0.3027 -0.0012 -0.1174
 1021MOL0     C37741   3.489   2.926   3.469 -0.0367  0.0298  0.6330
 1021MOL0     C37742   3.539   3.014   3.357 -0.2523 -0.1736 -0.6559
 1021MOL0     C37743   3.458   3.133   3.320 -0.0900  0.3262  0.5477
 1021MOL0    Cl37744   3.285   3.082   3.301 -0.3770 -0.2767 -0.0720
 1021MOL0     C37745   2.939   3.032   4.111 -0.0545 -0.4151 -0.9716
 1021MOL0     C37746   2.820   3.102   4.118 -0.3668  0.4834  0.1738
 1021MOL0     O37747   2.711   3.304   4.328 -1.0880 -0.2544  0.3656
 1021MOL0     C37748   2.520   3.490   4.381 -0.1719 -0.0936  0.7993
 1021MOL0     C37749   2.427   3.583   4.410 -1.0324 -1.0716 -0.3462
 1021MOL0     N37750   1.924   3.592   4.164  0.0306 -0.8242 -0.4118
 1021MOL0     N37751   1.853   3.657   4.088 -0.3065 -0.2057  0.8643
 1021MOL0     C37752   0.889   3.342   3.521 -1.1381  0.1851 -0.5705
 1021MOL0     C37753   0.789   3.267   3.468  0.0506  0.1101 -0.6856
 1021MOL0     C37754   0.558   3.131   3.077  0.7864 -0.2440  0.4987
 1021MOL0     C37755   0.533   2.995   3.113  0.3934 -0.2948 -0.0075
 1021MOL0     C37756   0.471   2.908   3.018 -0.2461  0.0439  0.2340
 1021MOL0     C37757   0.435   2.957   2.895  0.6272  0.7396  0.2206
 1021MOL0     O37758   0.359   2.872   2.814  0.0471  0.2570 -0.4527
 1021MOL0     C37759   0.419   2.784   2.708  0.5668 -1.0075  0.7349
 1021MOL0     C37760   0.466   2.850   2.585 -0.8983 -0.5426  0.6389
 1021MOL0     C37761   0.366   2.923   2.496  0.1154 -0.4986  0.1922
 1021MOL0     C37762   0.251   2.842   2.460 -0.4425  0.7721 -0.0363
 1021MOL0     C37763   0.276   2.774   2.332 -0.3217 -1.1216  0.2655
 1021MOL0     C37764   0.316   2.746   2.225  0.0618  0.2237 -0.0444
 1021MOL0     C37765   0.449   3.097   2.855 -0.5019 -0.0534  0.2642
 1021MOL0     C37766   0.517   3.187   2.948  1.1178 -0.1939  0.0732
 1021MOL0     C37767   0.532   3.328   2.910  0.0911  0.7285  0.7333
 1021MOL0     H37768   0.911   3.220   3.154 -2.7685  0.8046 -0.6778
 1021MOL0     H37769   1.098   3.356   3.264 -0.6524 -0.7235 -0.5059
 1021MOL0     H37770   1.049   3.600   3.647 -0.0398  0.5443 -0.9131
 1021MOL0     H37771   1.067   3.442   3.721 -1.9082  1.1191 -0.2388
 1021MOL0     H37772   1.280   3.627   3.610 -3.6308 -0.0322 -3.8912
 1021MOL0     H37773   1.324   3.470   3.627  0.8105  0.1008  0.6449
 1021MOL0     H37774   1.370   3.558   3.835 -0.1971  1.9786 -0.9243
 1021MOL0     H37775   1.225   3.465   3.875 -1.6759  1.1676  0.9950
 1021MOL0     H37776   1.189   3.753   3.811 -1.2587 -2.0678 -1.7971
 1021MOL0     H37777   1.096   3.657   3.914 -0.2988  0.9963  1.3234
 1021MOL0     H37778   1.241   3.772   4.089  0.2648  1.2884 -2.8646
 1021MOL0     H37779   1.311   3.611   4.063 -2.9640 -1.6266 -0.6737
 1021MOL0     H37780   1.451   3.740   3.877  1.5040 -1.8565  0.8746
 1021MOL0     H37781   1.423   3.879   3.971 -2.2193  0.1542 -3.4602
 1021MOL0     H37782   1.556   3.620   4.062  0.5855  0.9748 -2.1956
 1021MOL0     H37783   1.479   3.719   4.180  4.1679  0.8582  2.3499
 1021MOL0     H37784   1.662   3.861   3.997 -0.5468  0.4913  0.8587
 1021MOL0     H37785   1.624   3.902   4.164 -0.1230 -1.0347  1.7276
 1021MOL0     H37786   1.741   3.777   4.360 -4.0137 -1.4793 -1.2904
 1021MOL0     H37787   1.885   3.500   4.455 -1.7804  0.7468 -1.4765
 1021MOL0     H37788   2.049   3.531   4.400 -0.1558 -1.8861  2.2910
 1021MOL0     H37789   1.864   3.736   4.545  0.8456  2.3494  0.2970
 1021MOL0     H37790   1.987   3.638   4.622 -1.4452 -3.1323 -1.6795
 1021MOL0     H37791   2.066   3.866   4.583  1.6561 -0.8213  1.0408
 1021MOL0     H37792   2.041   3.853   4.404  1.8031 -0.6409 -1.3280
 1021MOL0     H37793   2.211   3.658   4.541  0.0779 -0.6859  0.2203
 1021MOL0     H37794   2.281   3.812   4.495 -0.4626  1.6571  2.9524
 1021MOL0     H37795   2.255   3.573   4.113  0.0862  2.3528  0.0529
 1021MOL0     H37796   2.428   3.422   4.054 -1.2708  2.1401 -0.6273
 1021MOL0     H37797   2.917   3.411   4.007  2.4385  0.2858  2.0426
 1021MOL0     H37798   3.119   3.288   3.983  0.2831  0.0458 -1.0556
 1021MOL0     H37799   3.122   2.837   4.050 -2.0885  0.2815 -0.9552
 1021MOL0     H37800   3.118   2.909   3.891 -2.3050  3.2791  0.4322
 1021MOL0     H37801   3.369   2.873   4.043 -0.6318  1.7374 -0.0169
 1021MOL0     H37802   3.315   2.760   3.919  2.0285  0.0662  1.5898
 1021MOL0     H37803   3.369   3.066   3.871  1.0729  0.1682  0.3573
 1021MOL0     H37804   3.486   2.929   3.859 -0.3243 -2.0910 -0.8943
 1021MOL0     H37805   3.265   2.918   3.673 -0.4180  2.5074  0.8920
 1021MOL0     H37806   3.405   2.810   3.686  1.3861  0.7824 -2.9080
 1021MOL0     H37807   3.560   3.012   3.653 -0.7829 -1.4615  1.3443
 1021MOL0     H37808   3.416   3.094   3.589 -0.0627 -0.1178 -1.9935
 1021MOL0     H37809   3.570   2.855   3.488  0.8682 -0.6151 -4.2279
 1021MOL0     H37810   3.402   2.871   3.434  1.9706 -1.2888 -2.7969
 1021MOL0     H37811   3.550   2.949   3.270 -2.3431 -2.7979  0.8842
 1021MOL0     H37812   3.640   3.049   3.381 -0.5281 -1.1097  2.2567
 1021MOL0     H37813   3.471   3.217   3.389 -2.2516 -0.1424  1.5923
 1021MOL0     H37814   3.490   3.172   3.223  0.1381  2.2981  1.3539
 1021MOL0     H37815   2.951   2.933   4.154 -2.0748 -0.1443  0.3635
 1021MOL0     H37816   2.734   3.046   4.156 -0.5794  1.1543  0.7063
 1021MOL0     H37817   2.598   3.477   4.455  2.2017 -0.6524 -1.6356
 1021MOL0     H37818   2.436   3.626   4.509  2.7483  0.3446 -1.1424
 1021MOL0     H37819   0.861   3.380   3.619  3.1079 -0.1158  1.0095
 1021MOL0     H37820   0.699   3.242   3.524  1.0084 -0.2923  0.7174
 1021MOL0     H37821   0.559   2.963   3.213  0.6122 -0.5082 -0.1308
 1021MOL0     H37822   0.434   2.812   3.053 -2.5009  1.1599  1.1233
 1021MOL0     H37823   0.349   2.704   2.685 -0.7749  0.1247  0.7309
 1021MOL0     H37824   0.498   2.738   2.769 -0.5939 -0.2093  2.9626
 1021MOL0     H37825   0.502   2.767   2.523 -1.2275 -0.5358  0.4374
 1021MOL0     H37826   0.546   2.918   2.615 -1.1073 -0.9348  2.1428
 1021MOL0     H37827   0.407   2.960   2.402 -1.9536 -0.8055 -0.8626
 1021MOL0     H37828   0.327   3.007   2.554  0.5954  0.2429 -0.5433
 1021MOL0     H37829   0.225   2.763   2.531 -0.6121  1.7439  1.0068
 1021MOL0     H37830   0.174   2.917   2.442 -2.4747 -1.1304  0.1604
 1021MOL0     H37831   0.351   2.731   2.124 -2.8350  1.3403 -1.3258
 1021MOL0     H37832   0.411   3.136   2.761  0.3323  2.0210  0.7253
 1021MOL0     H37833   0.460   3.401   2.947 -4.1118 -2.6439 -0.0657
 1021MOL0     H37834   0.634   3.365   2.926  0.4575  0.6099 -1.1294
 1021MOL0     H37835   0.521   3.333   2.801  0.7367  0.6783  0.6597
 1022MOL0     O37836   4.164   5.745   8.322 -0.1135 -0.2120 -0.0061
 1022MOL0     C37837   4.279   5.734   8.368 -0.7815 -0.3556  0.4511
 1022MOL0     O37838   4.363   5.845   8.381 -0.3807 -0.1820  0.2808
 1022MOL0     C37839   4.336   5.942   8.295  0.0407  0.2054  0.0324
 1022MOL0     C37840   4.420   5.965   8.189  0.2444  0.8953 -0.8235
 1022MOL0     C37841   4.405   6.067   8.095  0.6767  0.2019 -0.2288
 1022MOL0     C37842   4.293   6.150   8.108 -0.7264 -0.7819 -0.3824
 1022MOL0     O37843   4.261   6.251   8.018 -0.4516 -0.2199  0.1605
 1022MOL0     C37844   4.362   6.337   7.972 -0.3179 -0.3399 -0.2721
 1022MOL0     C37845   4.303   6.427   7.866 -0.5903 -1.1689  0.2907
 1022MOL0     C37846   4.241   6.357   7.748 -0.2572  1.0921 -0.7753
 1022MOL0     C37847   4.228   6.457   7.637  0.3920  0.3462 -0.4752
 1022MOL0     C37848   4.137   6.426   7.516  0.2870 -0.2460 -0.0070
 1022MOL0     C37849   4.156   6.280   7.476  0.9078 -0.0986 -0.1404
 1022MOL0     C37850   4.042   6.232   7.378 -0.7529 -0.4178 -0.5181
 1022MOL0     C37851   4.042   6.308   7.249  0.3350 -0.3871 -0.3722
 1022MOL0     N37852   3.916   6.274   7.162  0.5732 -0.1917 -0.8406
 1022MOL0     C37853   3.808   6.360   7.144 -0.0795 -1.0978 -0.9844
 1022MOL0     C37854   3.713   6.280   7.100  0.2250 -0.0734 -0.2026
 1022MOL0     C37855   3.575   6.320   7.058  0.4648 -0.0730 -0.0858
 1022MOL0     C37856   3.575   6.329   6.906  0.4843 -0.2552  0.4720
 1022MOL0     C37857   3.450   6.401   6.856 -0.1632 -0.4072  0.6902
 1022MOL0     C37858   3.430   6.402   6.705 -0.5594  0.3921  0.2948
 1022MOL0     O37859   3.521   6.507   6.668 -0.4944 -0.4172 -0.6009
 1022MOL0     C37860   3.524   6.551   6.537  0.6504 -1.2527 -0.5988
 1022MOL0     C37861   3.610   6.650   6.495 -0.1245  0.2841 -0.3731
 1022MOL0     C37862   3.599   6.719   6.372 -0.4599 -0.2163 -0.3431
 1022MOL0     C37863   3.508   6.675   6.277  0.5840 -0.2085 -0.5557
 1022MOL0     C37864   3.519   6.717   6.140  0.0269 -0.2575 -0.5832
 1022MOL0     O37865   3.634   6.789   6.107  0.1582 -0.3805  0.7493
 1022MOL0     C37866   3.630   6.841   5.983 -0.4938 -1.1230  0.6892
 1022MOL0     C37867   3.517   6.915   5.942 -0.1892  0.1697  0.5371
 1022MOL0     C37868   3.533   6.979   5.821 -0.1258  0.3908  0.1725
 1022MOL0     C37869   3.651   6.991   5.741  0.9117  0.0354  0.7228
 1022MOL0     O37870   3.672   7.068   5.632 -0.3956  0.2749  0.3892
 1022MOL0     C37871   3.554   7.144   5.586  0.0383  0.1323 -0.4111
 1022MOL0     C37872   3.577   7.242   5.472  0.8598  0.2838  0.0994
 1022MOL0     C37873   3.687   7.347   5.482 -1.4218  0.1332 -0.3333
 1022MOL0     C37874   3.697   7.425   5.349 -0.6844  0.8656 -0.7984
 1022MOL0     C37875   3.772   7.568   5.382 -1.0117 -0.1796 -0.2136
 1022MOL0     C37876   3.774   7.657   5.252 -0.3858  0.2616 -0.3283
 1022MOL0     C37877   3.827   7.800   5.283  0.5917 -0.0080 -0.0230
 1022MOL0     C37878   3.814   7.901   5.165 -0.1925  0.2711 -0.1464
 1022MOL0    Cl37879   3.638   7.927   5.104 -0.2240  0.1470 -0.2064
 1022MOL0     C37880   3.760   6.917   5.789  0.1911 -0.0465  0.2761
 1022MOL0     C37881   3.750   6.840   5.907 -0.9880  0.3633 -0.4614
 1022MOL0     O37882   3.439   6.666   6.062  0.3603 -1.0360 -0.4415
 1022MOL0     C37883   3.427   6.565   6.310 -0.1006 -0.2416 -0.1685
 1022MOL0     C37884   3.431   6.522   6.441  0.4474 -0.5955  0.1644
 1022MOL0     N37885   3.761   6.157   7.080  0.5583  0.3091  0.0195
 1022MOL0     N37886   3.877   6.147   7.126 -0.3236 -0.0960  0.3852
 1022MOL0     C37887   4.207   6.135   8.224 -0.5692 -0.4357  0.3264
 1022MOL0     C37888   4.231   6.031   8.316  0.2352  0.2970  0.6049
 1022MOL0     C37889   4.332   5.608   8.442  0.0789  0.1560 -0.5494
 1022MOL0     C37890   4.430   5.621   8.541 -0.7265 -0.4117  0.1526
 1022MOL0     C37891   4.490   5.502   8.591 -0.3219 -0.6166 -0.8561
 1022MOL0     C37892   4.459   5.375   8.556  0.4138  0.3019 -0.1778
 1022MOL0     O37893   4.514   5.268   8.611  0.1727 -0.0563 -0.0418
 1022MOL0     C37894   4.563   5.163   8.524  0.6874  1.1769  0.2293
 1022MOL0     C37895   4.675   5.075   8.582 -0.1296 -0.1146 -0.1687
 1022MOL0     C37896   4.805   5.165   8.591  0.2756 -0.8922 -1.4257
 1022MOL0     C37897   4.931   5.087   8.595 -0.6009 -0.4265  0.2865
 1022MOL0     C37898   4.933   4.997   8.708  0.6178 -0.2084 -0.7377
 1022MOL0     C37899   4.920   4.953   8.826  0.1970 -0.0721 -0.3428
 1022MOL0     C37900   4.346   5.357   8.471 -1.4965 -0.4998 -1.3515
 1022MOL0     C37901   4.284   5.474   8.413  0.7593 -0.0761 -0.5777
 1022MOL0     C37902   4.166   5.442   8.321 -1.0210 -0.1807  0.5019
 1022MOL0     H37903   4.516   5.915   8.182  0.5006  1.1844  0.3541
 1022MOL0     H37904   4.474   6.066   8.010  2.3925 -1.6987  1.1006
 1022MOL0     H37905   4.412   6.378   8.060 -0.1520 -3.6090  1.2683
 1022MOL0     H37906   4.439   6.279   7.919  0.2056 -0.7115  0.8550
 1022MOL0     H37907   4.389   6.485   7.832 -1.8018  1.7173  1.7971
 1022MOL0     H37908   4.227   6.492   7.912  1.0055 -0.4203  1.9915
 1022MOL0     H37909   4.153   6.306   7.789  0.3001  0.9431  0.2813
 1022MOL0     H37910   4.301   6.275   7.708 -1.0950  0.2256 -0.3214
 1022MOL0     H37911   4.196   6.554   7.676  1.3753  0.5139 -0.0462
 1022MOL0     H37912   4.331   6.484   7.612 -0.2259  3.0205 -0.4606
 1022MOL0     H37913   4.031   6.440   7.540 -1.2022 -1.5518 -4.7471
 1022MOL0     H37914   4.167   6.487   7.431 -0.9650  0.8389  0.3000
 1022MOL0     H37915   4.249   6.280   7.419 -1.2020 -1.0532 -3.9786
 1022MOL0     H37916   4.163   6.203   7.552 -0.8700 -1.1155 -0.9230
 1022MOL0     H37917   3.945   6.266   7.415 -0.1481  2.6683 -1.4573
 1022MOL0     H37918   4.032   6.124   7.367 -1.0938 -0.7146  2.1284
 1022MOL0     H37919   4.034   6.413   7.275  0.8992 -0.4095 -0.1073
 1022MOL0     H37920   4.129   6.295   7.184  0.0915 -0.9044 -0.5988
 1022MOL0     H37921   3.788   6.464   7.167 -2.2594 -1.8145  0.7094
 1022MOL0     H37922   3.509   6.236   7.079 -0.3003  0.8400  1.3837
 1022MOL0     H37923   3.534   6.415   7.094 -0.1943 -0.6932  0.8229
 1022MOL0     H37924   3.660   6.384   6.866  0.1515 -1.2255 -1.7036
 1022MOL0     H37925   3.583   6.234   6.853  3.8863  1.1791 -1.8739
 1022MOL0     H37926   3.462   6.503   6.893  1.4144  0.7133 -2.5256
 1022MOL0     H37927   3.359   6.353   6.893 -1.0612  0.9272  0.2965
 1022MOL0     H37928   3.324   6.426   6.694 -0.6786 -0.0671  0.4074
 1022MOL0     H37929   3.457   6.305   6.661  0.2872  0.8405 -0.2001
 1022MOL0     H37930   3.664   6.687   6.582 -3.4367  2.4205  0.9586
 1022MOL0     H37931   3.663   6.806   6.365 -0.0175 -0.2112  2.5064
 1022MOL0     H37932   3.430   6.919   6.007  0.7460 -1.2158  1.9347
 1022MOL0     H37933   3.453   7.050   5.801 -0.0146  0.2903 -0.6598
 1022MOL0     H37934   3.473   7.076   5.560 -0.3878  1.6105 -3.2410
 1022MOL0     H37935   3.534   7.212   5.670  1.6838  1.4883 -1.0499
 1022MOL0     H37936   3.580   7.192   5.375 -0.9310  0.5582 -0.1316
 1022MOL0     H37937   3.483   7.297   5.480  1.4391  1.1822  0.9139
 1022MOL0     H37938   3.662   7.407   5.571 -1.3832 -2.7237  1.7388
 1022MOL0     H37939   3.786   7.303   5.496  0.2219  3.0261 -2.0676
 1022MOL0     H37940   3.598   7.450   5.311 -2.1110 -1.8638  0.7988
 1022MOL0     H37941   3.747   7.357   5.278 -0.2223  0.2497  0.0944
 1022MOL0     H37942   3.870   7.553   5.428 -1.5246  1.2868  1.5231
 1022MOL0     H37943   3.713   7.617   5.461 -0.6882 -0.1810  0.0324
 1022MOL0     H37944   3.835   7.613   5.173  1.8236  2.3114  0.1149
 1022MOL0     H37945   3.669   7.679   5.234 -0.6387  0.2777  1.0325
 1022MOL0     H37946   3.934   7.799   5.305  0.7903  2.3181 -0.6618
 1022MOL0     H37947   3.771   7.838   5.369 -1.5395 -0.2298 -1.2500
 1022MOL0     H37948   3.858   7.993   5.206 -1.4428  0.4254  0.8922
 1022MOL0     H37949   3.877   7.873   5.080  0.6946  1.6066  0.0260
 1022MOL0     H37950   3.854   6.915   5.736  0.5939 -2.1403  0.9642
 1022MOL0     H37951   3.843   6.792   5.938  1.5377  2.2439 -4.3093
 1022MOL0     H37952   3.353   6.526   6.240 -1.5630  2.9437 -0.5628
 1022MOL0     H37953   3.367   6.436   6.460  1.2158 -0.9577  1.2129
 1022MOL0     H37954   4.119   6.194   8.249 -0.2221 -0.9061  2.9003
 1022MOL0     H37955   4.151   6.013   8.388  0.4384  0.7478  0.9483
 1022MOL0     H37956   4.466   5.718   8.575 -0.0925 -0.5410 -0.1215
 1022MOL0     H37957   4.559   5.513   8.674 -1.5749 -4.3166  0.8634
 1022MOL0     H37958   4.593   5.199   8.426 -0.1702  0.2914 -0.3816
 1022MOL0     H37959   4.476   5.101   8.499  0.7214  1.7417 -1.3609
 1022MOL0     H37960   4.683   4.985   8.520 -2.6993 -0.7511  0.3275
 1022MOL0     H37961   4.650   5.054   8.686  2.6077  5.6001  2.0956
 1022MOL0     H37962   4.793   5.234   8.675  1.2178 -1.4296 -0.8350
 1022MOL0     H37963   4.817   5.222   8.499 -0.4788  2.5906  0.4623
 1022MOL0     H37964   4.942   5.033   8.501 -0.9001  0.4613 -0.2633
 1022MOL0     H37965   5.016   5.157   8.599 -0.7433 -0.2765  0.7614
 1022MOL0     H37966   4.898   4.908   8.921 -0.4771 -1.2268 -1.0239
 1022MOL0     H37967   4.314   5.254   8.458  0.5053 -1.3861  0.2764
 1022MOL0     H37968   4.191   5.471   8.218 -1.7276  0.1651  0.4214
 1022MOL0     H37969   4.145   5.335   8.311  0.7858 -0.3346 -4.7132
 1022MOL0     H37970   4.081   5.504   8.350 -0.5149  1.1295 -0.6776
 1023MOL0     O37971   4.738   6.840   5.523  0.3442  0.4987  0.3233
 1023MOL0     C37972   4.842   6.902   5.524 -0.6701  0.3817 -0.8871
 1023MOL0     O37973   4.914   6.933   5.412  0.1368  0.3013 -0.0855
 1023MOL0     C37974   4.875   6.888   5.290  0.1113 -0.1891 -0.2942
 1023MOL0     C37975   4.870   6.750   5.264  0.7869  0.2226  0.2088
 1023MOL0     C37976   4.866   6.709   5.129 -0.0644 -0.3118 -0.2909
 1023MOL0     C37977   4.849   6.805   5.020  0.8206 -0.4014 -0.3701
 1023MOL0     O37978   4.831   6.785   4.887 -0.0653  0.1192  0.4487
 1023MOL0     C37979   4.820   6.646   4.853  0.7484 -0.6282  0.5401
 1023MOL0     C37980   4.806   6.616   4.703  0.8353 -0.3643  0.2377
 1023MOL0     C37981   4.908   6.690   4.614  0.3604 -1.8730 -0.2207
 1023MOL0     C37982   5.041   6.631   4.617 -0.0592  0.1284 -0.0905
 1023MOL0     C37983   5.129   6.707   4.508 -0.4911 -0.5165 -0.1418
 1023MOL0     C37984   5.268   6.632   4.490 -0.0858  0.2614  0.3985
 1023MOL0     C37985   5.356   6.704   4.385  0.5390  0.4780  0.2855
 1023MOL0     C37986   5.507   6.674   4.398 -0.4817 -0.4262  0.0958
 1023MOL0     N37987   5.550   6.550   4.338 -0.3163 -0.2905  0.3557
 1023MOL0     C37988   5.644   6.457   4.380 -0.1408 -0.1351  0.1340
 1023MOL0     C37989   5.636   6.368   4.274  0.1468 -0.6908 -0.8518
 1023MOL0     C37990   5.707   6.246   4.265 -0.0730  0.5681 -0.0221
 1023MOL0     C37991   5.861   6.289   4.255 -0.1236 -0.2126 -0.3185
 1023MOL0     C37992   5.951   6.161   4.242  0.1856  0.5264  1.0234
 1023MOL0     C37993   6.000   6.129   4.381 -0.3074  0.0233 -0.5669
 1023MOL0     O37994   6.085   6.017   4.381  0.1041  0.3145 -0.6179
 1023MOL0     C37995   6.031   5.893   4.350 -0.5359 -0.0978  0.0740
 1023MOL0     C37996   5.913   5.836   4.394 -0.5858 -0.4988 -0.9049
 1023MOL0     C37997   5.870   5.715   4.354  0.3007  0.0963  1.2159
 1023MOL0     C37998   5.946   5.650   4.255  0.3536  0.5507  0.1328
 1023MOL0     C37999   5.902   5.517   4.214  0.2618  0.9133 -0.9323
 1023MOL0     O38000   5.783   5.479   4.276  0.0007 -0.8946  0.0265
 1023MOL0     C38001   5.737   5.352   4.280 -0.0601  0.2246  0.2763
 1023MOL0     C38002   5.817   5.243   4.299 -0.1550 -0.5502  1.0731
 1023MOL0     C38003   5.768   5.111   4.310  1.0093  0.1973  0.2147
 1023MOL0     C38004   5.630   5.096   4.327 -0.0373 -1.3404  0.6472
 1023MOL0     O38005   5.572   4.972   4.325 -0.4343 -0.0469 -0.4859
 1023MOL0     C38006   5.642   4.874   4.396  0.1003  0.1192 -1.0147
 1023MOL0     C38007   5.557   4.739   4.390 -0.1239 -0.2714 -0.0384
 1023MOL0     C38008   5.569   4.666   4.254  0.4886 -0.4992  0.1804
 1023MOL0     C38009   5.687   4.574   4.259  0.7431 -0.2611  0.0886
 1023MOL0     C38010   5.705   4.518   4.112  1.0040  0.0069 -0.7223
 1023MOL0     C38011   5.798   4.394   4.114  0.1337 -0.1812  0.4047
 1023MOL0     C38012   5.823   4.352   3.965 -0.0314  0.2104 -0.7939
 1023MOL0     C38013   5.944   4.260   3.945  0.6293  0.1442 -0.0753
 1023MOL0    Cl38014   5.900   4.103   4.001  0.0756  0.0224  0.2251
 1023MOL0     C38015   5.551   5.207   4.324  0.9492  1.0493  0.5877
 1023MOL0     C38016   5.598   5.337   4.298  0.3257  0.6161 -0.1176
 1023MOL0     O38017   5.962   5.458   4.129  0.0530 -0.0032  0.5721
 1023MOL0     C38018   6.065   5.707   4.199  0.9350 -0.0969 -0.5293
 1023MOL0     C38019   6.106   5.830   4.259  0.3423  0.0720 -0.1417
 1023MOL0     N38020   5.551   6.397   4.173  0.8066 -0.0541  0.2072
 1023MOL0     N38021   5.496   6.511   4.214 -0.2225 -0.0505  0.7917
 1023MOL0     C38022   4.838   6.943   5.059 -0.4260 -0.4649  0.7235
 1023MOL0     C38023   4.857   6.982   5.192  0.6632 -0.1409  0.2165
 1023MOL0     C38024   4.891   6.961   5.659  0.1330  0.3791 -0.0431
 1023MOL0     C38025   4.850   6.896   5.779 -0.3594  0.5004  0.1167
 1023MOL0     C38026   4.904   6.940   5.898 -0.8412 -0.8294  0.8481
 1023MOL0     C38027   4.978   7.048   5.906 -0.2080 -0.5974 -0.0620
 1023MOL0     O38028   5.003   7.098   6.034  0.5663  0.0676 -0.1994
 1023MOL0     C38029   5.082   7.216   6.046 -0.0898  0.9461  0.5470
 1023MOL0     C38030   5.104   7.237   6.193 -0.2726  0.9009 -0.1968
 1023MOL0     C38031   5.231   7.161   6.251 -0.4096 -0.1558  0.1045
 1023MOL0     C38032   5.250   7.192   6.401 -0.5446 -0.2301 -0.1745
 1023MOL0     C38033   5.141   7.142   6.481 -0.2914  0.1515  1.1534
 1023MOL0     C38034   5.060   7.096   6.556  0.6640 -0.2689 -0.2388
 1023MOL0     C38035   5.007   7.119   5.790 -0.1446  0.5243  0.1463
 1023MOL0     C38036   4.981   7.070   5.662 -0.6708  0.6701 -0.7108
 1023MOL0     C38037   5.017   7.156   5.545  0.1455 -0.3831 -0.1281
 1023MOL0     H38038   4.865   6.667   5.334 -1.6196 -0.3005 -0.4855
 1023MOL0     H38039   4.882   6.605   5.101  1.3181 -0.7094  1.7069
 1023MOL0     H38040   4.912   6.599   4.889  2.0421  1.7275  0.4801
 1023MOL0     H38041   4.729   6.603   4.896  0.4050 -1.3633 -0.8320
 1023MOL0     H38042   4.712   6.654   4.661  0.1415 -0.6873  1.4504
 1023MOL0     H38043   4.802   6.509   4.681  2.1556  0.1602 -3.1302
 1023MOL0     H38044   4.907   6.797   4.638  0.9133 -1.0893 -3.3422
 1023MOL0     H38045   4.877   6.687   4.510 -1.9301 -1.7897  0.4101
 1023MOL0     H38046   5.088   6.635   4.716 -0.6937 -1.2483  0.2877
 1023MOL0     H38047   5.039   6.523   4.600 -1.3823 -0.2648  2.1233
 1023MOL0     H38048   5.083   6.706   4.409  3.1641 -1.1332 -2.0205
 1023MOL0     H38049   5.141   6.815   4.520 -0.8897 -0.4325 -0.4710
 1023MOL0     H38050   5.316   6.648   4.587 -1.9410  2.6811  1.0220
 1023MOL0     H38051   5.265   6.524   4.477 -0.0623  0.2264  0.6813
 1023MOL0     H38052   5.345   6.810   4.409  0.8344  0.2739  1.3515
 1023MOL0     H38053   5.316   6.682   4.285 -3.8031 -0.9713  2.1325
 1023MOL0     H38054   5.566   6.751   4.348 -3.4282  0.6869 -1.9272
 1023MOL0     H38055   5.543   6.678   4.501  0.5422  2.8769 -0.2857
 1023MOL0     H38056   5.707   6.451   4.468 -1.1969 -0.4611  0.8939
 1023MOL0     H38057   5.678   6.187   4.352  1.0996  0.0297  0.0224
 1023MOL0     H38058   5.684   6.180   4.181 -2.6869 -1.2878  1.9774
 1023MOL0     H38059   5.886   6.361   4.176 -0.7519  1.9610  1.3570
 1023MOL0     H38060   5.877   6.352   4.343  1.2892  0.1880 -0.8389
 1023MOL0     H38061   6.028   6.189   4.170 -1.7290 -0.8650 -1.7475
 1023MOL0     H38062   5.904   6.072   4.198 -0.4320  1.6079 -0.5774
 1023MOL0     H38063   5.918   6.107   4.450  0.6026  2.1843  1.3308
 1023MOL0     H38064   6.053   6.219   4.414 -2.2257  1.4054 -1.0467
 1023MOL0     H38065   5.855   5.889   4.469  0.8488  1.0403 -0.8052
 1023MOL0     H38066   5.782   5.672   4.401 -1.0262 -0.6387 -1.7295
 1023MOL0     H38067   5.926   5.245   4.301 -0.0638 -3.2632  3.0122
 1023MOL0     H38068   5.840   5.029   4.307  1.1313  0.2439  1.3557
 1023MOL0     H38069   5.742   4.841   4.364 -0.2394 -1.6676 -0.3522
 1023MOL0     H38070   5.652   4.907   4.500 -1.0750  1.0600 -1.1853
 1023MOL0     H38071   5.586   4.671   4.471 -0.4213  0.6178  0.8345
 1023MOL0     H38072   5.452   4.758   4.417 -0.1013  0.3125 -0.3560
 1023MOL0     H38073   5.478   4.607   4.242  0.7138 -0.6423 -0.9473
 1023MOL0     H38074   5.585   4.737   4.172  2.3928 -1.5653 -0.4212
 1023MOL0     H38075   5.704   4.498   4.336 -0.3312  0.1142  0.7207
 1023MOL0     H38076   5.774   4.635   4.285  1.1185 -0.4812 -0.6170
 1023MOL0     H38077   5.742   4.604   4.057 -0.8679  3.3202  2.7556
 1023MOL0     H38078   5.613   4.489   4.060  1.3804 -0.2234 -1.2797
 1023MOL0     H38079   5.893   4.412   4.164 -0.1524  2.1795  0.2153
 1023MOL0     H38080   5.747   4.307   4.157 -1.8296  1.7919  2.3263
 1023MOL0     H38081   5.833   4.439   3.899 -0.0540 -1.0042 -2.4802
 1023MOL0     H38082   5.727   4.308   3.937 -1.2852  2.0724  0.3724
 1023MOL0     H38083   5.976   4.236   3.843  0.4318 -0.2953 -0.0403
 1023MOL0     H38084   6.032   4.291   4.001  2.7248  2.4993 -4.2246
 1023MOL0     H38085   5.445   5.191   4.340  1.2587 -3.6088 -0.6714
 1023MOL0     H38086   5.538   5.427   4.289  0.5509  1.4951  4.7131
 1023MOL0     H38087   6.118   5.670   4.112  0.8639  0.3859 -0.7812
 1023MOL0     H38088   6.197   5.875   4.220 -0.2996 -0.4276 -2.3768
 1023MOL0     H38089   4.834   7.032   4.998  4.9293 -0.8646 -0.7738
 1023MOL0     H38090   4.865   7.087   5.215 -2.7165  1.2417 -3.6958
 1023MOL0     H38091   4.780   6.813   5.775  0.3843 -0.1620  0.4690
 1023MOL0     H38092   4.880   6.886   5.989  0.1260 -1.4826  0.7294
 1023MOL0     H38093   5.036   7.301   5.994 -1.1817  0.3293  0.4824
 1023MOL0     H38094   5.175   7.196   5.992  0.7069 -0.0794  2.1958
 1023MOL0     H38095   5.013   7.212   6.248 -0.6428 -2.7534 -2.1716
 1023MOL0     H38096   5.109   7.346   6.204 -1.7974  0.9477  0.2415
 1023MOL0     H38097   5.331   7.189   6.215 -0.2586  0.0186  0.6389
 1023MOL0     H38098   5.217   7.053   6.244 -5.7883 -0.0507  3.5477
 1023MOL0     H38099   5.340   7.138   6.430 -1.2736 -0.6348  1.4380
 1023MOL0     H38100   5.248   7.299   6.425 -2.9544 -0.1258 -0.6065
 1023MOL0     H38101   4.986   7.073   6.631 -2.4299 -0.0971 -3.0134
 1023MOL0     H38102   5.044   7.221   5.794 -0.3934  0.6154  0.1119
 1023MOL0     H38103   5.107   7.118   5.496  1.1239  2.0059 -0.3566
 1023MOL0     H38104   4.938   7.165   5.470 -0.5715  1.3841  0.7842
 1023MOL0     H38105   5.044   7.257   5.579 -0.5753 -0.8650  2.0475
 1024MOL0     O38106   7.221   7.315   0.709 -1.0562  0.7402 -0.2818
 1024MOL0     C38107   7.169   7.423   0.746  0.8413  0.4968 -0.3348
 1024MOL0     O38108   7.245   7.536   0.753 -0.5810  0.3972 -0.6767
 1024MOL0     C38109   7.375   7.529   0.721 -0.7723 -0.5955  0.0003
 1024MOL0     C38110   7.432   7.628   0.641 -0.0251  0.5083  0.5889
 1024MOL0     C38111   7.567   7.646   0.622  0.1819 -0.7081 -0.7319
 1024MOL0     C38112   7.659   7.567   0.690 -0.0295  0.1691  0.3574
 1024MOL0     O38113   7.794   7.568   0.659  1.0106  0.2285  0.0458
 1024MOL0     C38114   7.837   7.620   0.535 -0.3468  0.2050  0.6748
 1024MOL0     C38115   7.962   7.540   0.483  0.5901  0.3134 -0.4158
 1024MOL0     C38116   8.008   7.604   0.349 -0.4749  0.3828 -0.0283
 1024MOL0     C38117   8.128   7.529   0.289 -0.1877  0.7426  0.9837
 1024MOL0     C38118   8.218   7.629   0.213 -0.2263  0.3738  0.4187
 1024MOL0     C38119   8.303   7.735   0.294 -0.4930  0.8247  0.7058
 1024MOL0     C38120   8.369   7.827   0.201 -0.1212 -1.1939  0.0252
 1024MOL0     C38121   8.438   7.936   0.280  0.1503  0.2228  0.4269
 1024MOL0     N38122   8.462   8.052   0.198  0.1292 -0.3569  0.3686
 1024MOL0     C38123   8.555   8.069   0.099 -1.2198  0.4017 -0.8186
 1024MOL0     C38124   8.516   8.195   0.057  0.5838  0.7797 -0.3743
 1024MOL0     C38125   8.587   8.271  -0.052  0.3846  0.8036 -0.8784
 1024MOL0     C38126   8.505   8.264  -0.182 -0.1920  0.6971  0.4565
 1024MOL0     C38127   8.533   8.368  -0.297  0.2033  0.2329 -1.1211
 1024MOL0     C38128   8.510   8.513  -0.238  0.4911 -0.7246 -0.7466
 1024MOL0     O38129   8.387   8.526  -0.153 -0.3848 -0.7312  0.2335
 1024MOL0     C38130   8.266   8.527  -0.215 -0.0431  0.2133 -0.0518
 1024MOL0     C38131   8.238   8.536  -0.353 -0.5872 -0.1718  0.3168
 1024MOL0     C38132   8.105   8.537  -0.400  0.5672 -0.8499  0.8430
 1024MOL0     C38133   7.998   8.543  -0.314  0.5338 -0.5900  0.5681
 1024MOL0     C38134   7.849   8.569  -0.360 -0.2951  0.3497 -0.2250
 1024MOL0     O38135   7.750   8.603  -0.267 -0.0540  0.8838  0.0324
 1024MOL0     C38136   7.619   8.591  -0.301 -0.4547  0.5545 -0.7791
 1024MOL0     C38137   7.560   8.481  -0.357 -0.5142  1.2318  0.3674
 1024MOL0     C38138   7.420   8.465  -0.365  0.7071 -0.5470  0.4400
 1024MOL0     C38139   7.337   8.577  -0.329  0.4682  0.1082 -0.1944
 1024MOL0     O38140   7.199   8.556  -0.323 -0.3710 -1.2282 -1.3208
 1024MOL0     C38141   7.128   8.645  -0.408  0.0148  0.3874  0.3189
 1024MOL0     C38142   7.019   8.574  -0.477  0.1153 -0.2901  0.4228
 1024MOL0     C38143   7.080   8.456  -0.556 -0.3690  0.8219  0.0782
 1024MOL0     C38144   6.954   8.395  -0.636 -1.0746  0.1790  0.8135
 1024MOL0     C38145   6.997   8.266  -0.710  0.5708  0.4612 -0.5670
 1024MOL0     C38146   6.871   8.205  -0.775 -0.4167  0.1552  0.6780
 1024MOL0     C38147   6.884   8.050  -0.819  0.1314 -0.6869 -0.0592
 1024MOL0     C38148   7.006   8.030  -0.910  0.0416  0.2662  0.3201
 1024MOL0    Cl38149   7.040   7.859  -0.933 -0.1358 -0.3369  0.0955
 1024MOL0     C38150   7.404   8.697  -0.292 -0.2867 -0.4445  0.0739
 1024MOL0     C38151   7.544   8.700  -0.265  0.9824  0.1403 -0.3953
 1024MOL0     O38152   7.830   8.565  -0.480  0.6182  0.2863 -0.0379
 1024MOL0     C38153   8.029   8.538  -0.177  0.1907 -0.3423  0.8177
 1024MOL0     C38154   8.160   8.530  -0.129 -0.5532  0.5320  0.4531
 1024MOL0     N38155   8.388   8.233   0.112 -0.0704  0.8025  0.6856
 1024MOL0     N38156   8.372   8.152   0.203 -0.6827  0.0272  0.0462
 1024MOL0     C38157   7.608   7.483   0.783  0.2622  0.1378 -0.3381
 1024MOL0     C38158   7.466   7.462   0.792  0.2243 -0.5853 -0.3937
 1024MOL0     C38159   7.028   7.442   0.786  0.0896 -0.4023  0.5399
 1024MOL0     C38160   6.996   7.559   0.863 -0.2514  0.4778 -0.2300
 1024MOL0     C38161   6.863   7.576   0.911 -0.0523 -0.0268 -0.4081
 1024MOL0     C38162   6.759   7.483   0.875  0.5253  0.2730 -0.7512
 1024MOL0     O38163   6.624   7.489   0.919 -0.6810  0.6443  0.2328
 1024MOL0     C38164   6.561   7.610   0.963 -0.4323  0.2605 -1.0282
 1024MOL0     C38165   6.541   7.624   1.112  0.1905 -0.0847  0.0561
 1024MOL0     C38166   6.469   7.511   1.191  0.4095  0.2364 -0.0235
 1024MOL0     C38167   6.316   7.525   1.173  0.6782  1.2723  0.2808
 1024MOL0     C38168   6.248   7.425   1.255  0.4300  0.2585 -0.2448
 1024MOL0     C38169   6.194   7.369   1.349 -1.0498  0.0801 -0.1012
 1024MOL0     C38170   6.790   7.380   0.792  0.6262 -0.1544  0.0189
 1024MOL0     C38171   6.922   7.352   0.752 -0.1191 -0.0100 -0.6142
 1024MOL0     C38172   6.948   7.242   0.650 -0.4735 -0.0868 -0.3661
 1024MOL0     H38173   7.351   7.686   0.599 -0.5868 -1.4800 -1.2813
 1024MOL0     H38174   7.604   7.732   0.568 -0.9146  2.2060  2.7388
 1024MOL0     H38175   7.760   7.617   0.458  2.4590 -0.6373 -2.2877
 1024MOL0     H38176   7.845   7.729   0.540 -1.8536  0.3133  1.5786
 1024MOL0     H38177   7.942   7.436   0.459  0.8052  0.6217 -2.0971
 1024MOL0     H38178   8.039   7.535   0.560  0.8621 -1.5303 -0.7654
 1024MOL0     H38179   8.034   7.710   0.358 -0.7614  0.5600 -1.1304
 1024MOL0     H38180   7.920   7.607   0.285 -1.7233  0.9526  1.6476
 1024MOL0     H38181   8.199   7.496   0.365  1.7799  0.6661 -0.8097
 1024MOL0     H38182   8.089   7.449   0.224  0.0321  1.1074  0.4022
 1024MOL0     H38183   8.289   7.568   0.155 -1.6069  1.9986 -3.2873
 1024MOL0     H38184   8.159   7.677   0.135 -0.9440 -3.2763 -1.4739
 1024MOL0     H38185   8.234   7.781   0.365 -0.8360  3.5646 -1.2315
 1024MOL0     H38186   8.381   7.680   0.347  0.6347 -0.3518 -2.0049
 1024MOL0     H38187   8.286   7.881   0.155  0.2702 -0.3853  0.2409
 1024MOL0     H38188   8.429   7.796   0.114 -1.0510  2.0230 -1.9710
 1024MOL0     H38189   8.371   7.976   0.357 -2.0459 -0.6504 -0.9395
 1024MOL0     H38190   8.527   7.890   0.324  0.7772 -0.5022 -1.4929
 1024MOL0     H38191   8.636   8.006   0.064 -1.4759  0.2564 -1.1565
 1024MOL0     H38192   8.592   8.375  -0.017  0.9836  1.1073 -1.8389
 1024MOL0     H38193   8.686   8.229  -0.070  1.8438  3.6865 -0.1253
 1024MOL0     H38194   8.529   8.164  -0.220 -2.6785  0.7663 -1.5631
 1024MOL0     H38195   8.404   8.277  -0.144  0.6236  2.2280  2.2294
 1024MOL0     H38196   8.459   8.341  -0.373 -0.9710 -2.9591  0.9182
 1024MOL0     H38197   8.631   8.342  -0.338 -0.3223 -4.4313 -0.0788
 1024MOL0     H38198   8.502   8.574  -0.329 -0.9137  0.4922  0.1321
 1024MOL0     H38199   8.593   8.556  -0.182  1.2309 -1.8612 -0.9418
 1024MOL0     H38200   8.322   8.551  -0.420 -0.7697 -1.4635 -0.2308
 1024MOL0     H38201   8.088   8.553  -0.506  1.6353  4.1598  1.1667
 1024MOL0     H38202   7.628   8.407  -0.397 -3.7108 -2.0358  0.5093
 1024MOL0     H38203   7.389   8.364  -0.387 -0.8610  0.2437 -1.1467
 1024MOL0     H38204   7.097   8.727  -0.342 -1.0430  0.3187 -0.0748
 1024MOL0     H38205   7.189   8.694  -0.485 -2.5102  0.0801 -2.0151
 1024MOL0     H38206   6.952   8.548  -0.395 -0.3389  3.0667  1.2557
 1024MOL0     H38207   6.950   8.633  -0.539  1.1086 -1.6348 -2.1112
 1024MOL0     H38208   7.142   8.503  -0.633  1.0180 -0.1044  0.6119
 1024MOL0     H38209   7.134   8.383  -0.495 -1.1592  0.0000 -0.1840
 1024MOL0     H38210   6.910   8.461  -0.711 -1.1443 -1.3037 -0.5116
 1024MOL0     H38211   6.874   8.374  -0.564 -1.5916 -0.0331  0.1837
 1024MOL0     H38212   7.046   8.200  -0.638  1.3619  1.9910  0.3357
 1024MOL0     H38213   7.079   8.283  -0.781  2.2702  1.0505  1.4290
 1024MOL0     H38214   6.791   8.219  -0.703  0.2187  2.4625  0.9955
 1024MOL0     H38215   6.839   8.261  -0.864  3.9075  3.0277  0.6353
 1024MOL0     H38216   6.794   8.039  -0.880  0.0124 -2.6648  0.3850
 1024MOL0     H38217   6.887   7.981  -0.734 -2.4067  0.9203  1.4702
 1024MOL0     H38218   6.978   8.069  -1.008 -3.4357 -1.2815  0.5505
 1024MOL0     H38219   7.093   8.080  -0.866  1.3162  0.0372 -1.8014
 1024MOL0     H38220   7.348   8.787  -0.270  0.0051 -0.0682 -0.6889
 1024MOL0     H38221   7.571   8.795  -0.218  1.8559  0.1889 -0.9958
 1024MOL0     H38222   7.954   8.540  -0.099 -0.8613 -1.6377 -0.1263
 1024MOL0     H38223   8.176   8.527  -0.022 -0.2017  2.4254  0.4844
 1024MOL0     H38224   7.682   7.428   0.840 -0.9146 -2.4154 -1.0763
 1024MOL0     H38225   7.408   7.388   0.846 -0.6794 -0.2427 -0.8751
 1024MOL0     H38226   7.071   7.632   0.889 -0.7340  0.2117  2.1384
 1024MOL0     H38227   6.835   7.661   0.972  0.0002  0.6579 -1.3091
 1024MOL0     H38228   6.457   7.602   0.931 -0.8255 -3.3563  0.6573
 1024MOL0     H38229   6.607   7.702   0.927 -1.7911  0.6787 -1.7481
 1024MOL0     H38230   6.475   7.709   1.132 -1.6425 -1.4203 -0.0518
 1024MOL0     H38231   6.638   7.637   1.160  0.5337  0.5295 -0.7953
 1024MOL0     H38232   6.508   7.497   1.293  0.1808 -2.5232 -0.2217
 1024MOL0     H38233   6.498   7.415   1.146 -1.8111 -2.0396  2.9263
 1024MOL0     H38234   6.279   7.625   1.195 -1.5831  0.7505 -0.9124
 1024MOL0     H38235   6.288   7.508   1.069  2.3809 -1.6030  0.1915
 1024MOL0     H38236   6.150   7.301   1.420 -3.1537  2.8336  1.4688
 1024MOL0     H38237   6.709   7.312   0.769  1.0378 -0.3738 -0.8147
 1024MOL0     H38238   6.988   7.285   0.558  2.4903  0.7562  1.2036
 1024MOL0     H38239   7.021   7.170   0.685  0.8465  1.8257  1.0193
 1024MOL0     H38240   6.854   7.189   0.629  0.5636 -2.7006  1.1804
  11.47519  11.47519  11.47519
